/*--------------------------------*- C++ -*----------------------------------*\
  =========                 |
  \\      /  F ield         | OpenFOAM: The Open Source CFD Toolbox
   \\    /   O peration     | Website:  https://openfoam.org
    \\  /    A nd           | Version:  7
     \\/     M anipulation  |
\*---------------------------------------------------------------------------*/
FoamFile
{
    version     2.0;
    format      ascii;
    class       volScalarField;
    location    "9";
    object      nut;
}
// * * * * * * * * * * * * * * * * * * * * * * * * * * * * * * * * * * * * * //

dimensions      [0 2 -1 0 0 0 0];

internalField   nonuniform List<scalar> 
18720
(
8.7596e-05
0.000311583
9.38628e-05
9.20725e-05
0.000127564
0.000365471
0.00038428
0.000281977
0.000139625
8.49764e-05
9.64004e-05
0.000124168
0.000145017
0.000547915
0.00047706
0.000252555
0.000420344
8.20496e-05
0.000272842
0.000204942
0.000301563
0.000130946
9.92586e-05
0.000122078
0.000158739
0.000171299
0.000714503
0.000536199
0.000571634
0.000940886
0.000381462
0.000481887
0.00047387
0.000566274
0.000342731
0.000285278
0.000270273
0.000289194
0.000390989
0.00014538
0.000104941
0.000131326
0.000195848
3.40055e-05
0.000180762
0.00114101
0.000906376
0.000840779
0.000729866
0.000333741
0.000647854
0.000692113
0.000628832
0.000467953
0.000804755
0.000351668
0.000644646
0.000486501
0.00028594
0.000395069
0.000218422
0.000423148
0.000343969
0.000441439
0.000220617
0.000117522
0.000139766
0.00023575
0.000392524
0.000198322
8.45236e-05
0.000973393
0.00127963
0.00104932
0.00107038
0.000743517
0.000722558
0.000532785
0.000481506
0.000741109
0.00160111
0.000543277
0.00114354
0.00181614
0.000424801
0.000315372
0.000337649
0.000654221
0.000638732
0.000615919
0.000379835
0.000254024
0.000221902
0.000379988
0.00028979
0.00041045
0.000192803
7.98437e-05
0.00011627
0.000140402
0.000263489
0.000142582
0.000176489
0.000140546
0.000155457
0.000284479
0.000937561
0.000776837
0.00122685
0.00113034
0.00111914
0.00134025
0.000811028
0.00153729
0.000499783
0.000533264
0.0006541
0.0010756
0.0027282
0.000511275
0.00107387
0.00040144
0.000932045
0.00196515
0.000562762
0.000627706
0.000342299
0.000874409
0.000805842
0.000802391
0.000287747
0.000274325
0.000244787
0.000200847
0.000262982
0.000264468
0.000326129
0.000374417
0.000285326
0.00013968
0.000122285
0.00014052
0.000230279
5.87659e-05
0.000279458
0.000125285
0.000102536
0.000107951
0.000517471
0.000454503
0.000651548
0.000844744
0.00124168
0.000850436
0.00113042
0.0012979
0.000702957
0.00110924
0.00118507
0.000631146
0.000687679
0.00137724
0.00132147
0.00060733
0.00133858
0.00141097
0.0013011
0.00162134
0.000734833
0.000459638
0.000788946
0.000874945
0.00286246
0.00147841
0.00029057
0.000570487
0.00028591
0.000657716
0.000900821
0.000886707
0.00103159
0.000391964
0.000249304
0.000361241
0.000198423
0.000166567
0.000193413
0.000381934
0.000626846
0.000220209
0.000449051
0.000110056
0.0001273
0.000142573
0.000233413
0.00022562
0.000275438
7.52467e-05
0.000136447
0.000105431
0.000125319
0.000383883
0.000459354
0.000348637
0.000315793
0.000371898
0.000348107
0.000843107
0.00109022
0.00113976
0.000762114
0.00112802
0.000860807
0.00128348
0.000472254
0.00121169
0.00119781
0.000948632
0.00103393
0.000935869
0.000965334
0.000668897
0.000945591
0.00181055
0.00130469
0.00189988
0.00131028
0.000814612
0.00134838
0.000795898
0.000743482
0.000315706
0.0042579
0.00260681
0.00041983
0.000531106
0.000333095
0.000355367
0.000642797
0.00105869
0.00112632
0.00134758
0.00062229
0.000821383
0.000494257
0.000209512
0.000239091
0.000154164
0.000263829
0.0004303
0.000290309
0.000231544
0.000397024
0.000221831
6.27696e-05
0.000125442
0.00014233
0.000209421
0.00027953
0.000155862
0.000183985
0.000154465
0.000242232
7.46699e-05
0.000118281
0.000449316
0.000704503
0.000471944
0.000382512
0.000660559
0.00031611
0.000475284
0.00044839
0.000557797
0.000309477
0.000196001
0.000522643
0.000892725
0.00105919
0.000543161
0.000894997
0.00102021
0.00110323
0.00151631
0.00131086
0.00103922
0.00150657
0.00110627
0.00121316
0.000813336
0.00111744
0.00138285
0.001163
0.000901174
0.000931465
0.00171234
0.00147496
0.00231682
0.00139676
0.00052531
0.00133921
0.000728117
0.000857941
0.000833008
0.0025697
0.00224454
0.000255407
0.000480702
0.000771359
0.00057862
0.000423364
0.000765779
0.00099022
0.00139894
0.000904802
0.000356146
0.000624748
0.00021455
0.000203807
0.000122193
0.000270998
0.000183561
0.000278232
0.000421434
0.000177714
0.000379097
0.000358962
0.00018691
0.000175029
0.00017399
0.000128922
0.000146083
0.000195809
9.33838e-05
0.000216961
0.000175883
0.000145328
0.000184742
9.31342e-05
9.83215e-05
9.23124e-05
0.000435952
0.00054411
0.000337078
0.000426583
0.000679384
0.000484423
0.000387623
0.000492734
0.000777825
0.00041447
0.000199977
0.000393687
0.000601236
0.000691037
0.00031776
0.000612247
0.000350826
0.000653905
0.00119867
0.00137652
0.000587063
0.000737999
0.000801369
0.00131246
0.00102381
0.000961438
0.00147204
0.00113626
0.00157488
0.00156761
0.00092712
0.000915997
0.000932219
0.00111297
0.00214134
0.00118311
0.000890772
0.00180597
0.00150826
0.00186156
0.00262107
0.00193597
0.00154169
0.00117616
0.00101426
0.000774701
0.000960625
0.000609689
0.00154575
0.00329601
0.000650795
0.000363602
0.000814337
0.000430994
0.000472637
0.000530018
0.000711899
0.00083143
0.00135484
0.000688332
0.000605045
0.000950365
0.000259236
0.000430799
0.000279535
0.000178239
0.000321955
0.000236315
0.000322411
0.000440587
0.000306359
0.000352547
0.000362555
0.00023428
0.000220971
0.000334075
9.51365e-05
0.000144013
0.00014477
0.000184932
0.000192722
0.000254105
8.7593e-05
0.000133485
0.000122457
0.000121413
0.000128445
9.26755e-05
0.000171364
0.000416769
0.000579409
0.000378328
0.000525234
0.000445237
0.000381256
0.000267082
0.000466406
0.000563627
0.000438309
0.000411126
0.000524154
0.000615182
0.000944004
0.000403052
0.000570182
0.000180331
0.000380698
0.000618495
0.000738131
0.00028331
0.000310453
0.000464774
0.000690496
0.00104053
0.000966126
0.00121567
0.000645296
0.000694686
0.000882964
0.00119147
0.00115324
0.00113552
0.00128805
0.00149477
0.00108649
0.00126724
0.00129602
0.00129962
0.000795269
0.00121411
0.0011157
0.00126294
0.00115329
0.00093696
0.00120255
0.00177019
0.00133406
0.00166012
0.00140949
0.00178866
0.00125897
0.000796019
0.000628052
0.00113719
0.000936713
0.00114583
0.000854275
0.0020898
0.00286315
0.0005576
0.00063946
0.000823899
0.000431543
0.000513238
0.000478633
0.000605164
0.000544192
0.000843035
0.00132825
0.000524311
0.000635908
0.00109023
0.000320547
0.000436065
0.000767919
0.000354866
0.000195706
0.000347778
0.000307099
0.000349183
0.000455044
0.000251977
0.000321952
0.000292027
0.000203891
0.000246438
0.000259447
0.000620556
0.000173159
0.00019632
0.000144809
0.000179387
0.000142105
0.000242141
0.000129748
0.000127661
9.13966e-05
0.000121246
0.000126995
9.15662e-05
0.000185467
0.000290158
0.000446996
0.000525531
0.000305532
0.0004286
0.000555737
0.000310521
0.00040126
0.000530043
0.000387691
0.000480407
0.000288051
0.000406001
0.000491245
0.000690552
0.000508552
0.000595583
0.000389497
0.000386888
0.000758208
0.000727072
0.000415135
0.000338477
0.000476043
0.000296034
0.00051341
0.000860734
0.000999781
0.000450978
0.000181564
0.000268022
0.000493427
0.00108756
0.000952616
0.000749318
0.0010187
0.000430681
0.000600928
0.000725883
0.00116298
0.00113433
0.00136754
0.00173837
0.000896309
0.00136998
0.000693315
0.00171013
0.00145117
0.00166259
0.00107806
0.00118876
0.00250573
0.00168516
0.000774893
0.000716588
0.00119463
0.00111818
0.00124218
0.00144883
0.00144528
0.00246734
0.00120143
0.00153674
0.00105167
0.000824315
0.000588284
0.00110069
0.00112996
0.00124628
0.000940215
0.00129493
0.00263328
0.000734483
0.000838988
0.000590033
0.000386326
0.000896754
0.000721305
0.000647186
0.000563244
0.000383716
0.000798822
0.0012589
0.000609172
0.000439248
0.000820015
0.000350009
0.000318041
0.00085802
0.000614819
0.000529146
9.52191e-05
0.000350185
0.000353361
0.000302834
0.000505319
0.000281078
0.000360531
0.000208916
0.000225836
0.000169871
0.000213943
0.000684
0.000489568
0.000220817
0.000225808
0.000122686
0.000172909
0.00011294
0.0001546
0.000117039
0.000110664
0.000117015
0.000118084
0.000115373
9.24461e-05
0.000199459
0.000337332
4.03712e-05
0.000301795
0.000288656
0.000354093
0.00034172
0.000421525
0.000345827
0.000559473
0.000334696
0.000362692
0.000395962
0.000340688
0.000585229
0.000410934
0.000719506
0.000501754
0.000422433
0.000297645
0.000503858
0.000428205
0.000671883
0.000575803
0.00051441
0.000486508
0.000507758
0.00058037
0.000614875
0.000639399
0.000599133
0.000496171
0.000361473
0.000278823
0.000347322
0.000804634
0.000640211
0.000677597
0.000437086
0.000354932
0.000361277
0.000368863
0.000929497
0.00101189
0.0010813
0.000831845
0.000780139
0.000313286
0.000546865
0.000499533
0.000968868
0.00128156
0.000985154
0.00148934
0.00174379
0.00103673
0.00113546
0.00094232
0.00102424
0.00186271
0.00082237
0.00117147
0.00105703
0.00128439
0.00102269
0.00091514
0.00101454
0.000964588
0.00102744
0.00110699
0.00199519
0.000945145
0.00164768
0.00178082
0.00222195
0.00151164
0.00167939
0.000769113
0.000881597
0.0011259
0.00072712
0.000954315
0.0012122
0.00127216
0.00147458
0.00317703
0.00143577
0.00111023
0.000766086
0.000381338
0.000838359
0.000822101
0.000821556
0.000456523
0.000458221
0.000638331
0.000713408
0.00109867
0.000753739
0.000439135
0.000721621
0.000430163
0.000235726
0.000788069
0.000540166
0.000619692
0.00048098
0.000258634
0.000343869
0.000382713
0.000301621
0.000595761
0.000279441
0.000391562
0.000254905
0.000217902
0.000175332
0.000172044
0.000628263
0.000649569
0.000282209
5.12092e-05
0.000219524
0.000113363
0.000137739
0.000115256
0.000420815
0.00013554
0.000158024
0.000112759
0.000114815
0.000104935
9.79833e-05
0.000217408
0.00032457
0.000142071
0.000245855
0.000201134
0.00035321
0.000477726
0.000331167
0.000321116
0.000337809
0.000444431
0.000268747
0.000413471
0.000413561
0.000364658
0.000425118
0.00030601
0.000492007
0.00042598
0.000481651
0.000429264
0.000529656
0.000370963
0.000516137
0.00046852
0.000518366
0.000331269
0.00037057
0.000521956
0.00069985
0.000746012
0.000441045
0.000550534
0.00065133
0.000473908
0.000351873
0.000574207
0.000802971
0.000401782
0.000465585
0.000502509
0.000382002
0.000435329
0.000361465
0.000701198
0.000945155
0.000733076
0.0010342
0.000908159
0.000218996
0.000207599
0.000369572
0.000773604
0.00139075
0.00136076
0.00062336
0.000774545
0.00121809
0.000683239
0.000375409
0.000904611
0.000758575
0.00141815
0.00135659
0.000925752
0.00125875
0.00127052
0.00113754
0.00108761
0.000849976
0.000983772
0.00157394
0.00124134
0.000998655
0.00108732
0.00146944
0.00156931
0.00118765
0.00135009
0.00092078
0.00143549
0.000834116
0.000974198
0.0011321
0.00219429
0.0015083
0.0016683
0.00228746
0.00134942
0.0018032
0.000648562
0.000740585
0.00127416
0.000593431
0.00135796
0.00104338
0.00112627
0.0011486
0.00184239
0.000847703
0.00228911
0.00121903
0.00087711
0.000438826
0.000633643
0.00090562
0.000556731
0.000321129
0.000391666
0.000454654
0.000544543
0.000730583
0.000881479
0.000646448
0.000617921
0.000573704
0.000417223
0.000314248
0.000674045
0.000819028
0.000462287
0.000349286
0.000245981
0.000222779
0.000394829
0.000420179
0.000275671
0.000585282
0.000364841
0.000395767
0.000289468
0.000197927
0.000151959
0.000149757
0.000503397
0.000730242
0.000258291
0.000241924
0.000116524
0.000212256
0.000125117
0.000116726
8.18052e-05
0.000174371
0.000154894
0.000115483
3.97652e-05
0.000157545
0.000114721
9.08308e-05
0.000219503
0.000268622
0.00012358
0.000112806
0.000103306
0.000213323
0.000248647
0.000161584
0.000131002
0.000287882
0.000550158
0.00034584
0.000338818
0.000289684
0.000327346
0.000410928
0.000455418
0.000335276
0.000504009
0.000491077
0.000447815
0.000403236
0.000320341
0.000419195
0.000507271
0.000449501
0.000424982
0.000415208
0.000429665
0.000344648
0.000269643
0.000573949
0.000412805
0.000544376
0.00039643
0.00042346
0.000391047
0.00058431
0.000416798
0.000448235
0.000652682
0.000557581
0.000391278
0.000453516
0.000400252
0.00065519
0.000791117
0.000285319
0.000302966
0.000451443
0.000282872
0.000440738
0.000309376
0.000387899
0.000764845
0.00105371
0.000662243
0.000591765
0.000826468
0.000722602
0.000422508
0.000224932
0.000234368
0.000674582
0.00131685
0.00114381
0.00138487
0.000949702
0.000710403
0.00137544
0.000585879
0.000603631
0.000606462
0.000557137
0.000851861
0.00173141
0.00115045
0.00110654
0.0016352
0.00127367
0.00101619
0.00158952
0.00105032
0.000926562
0.0013231
0.00146163
0.00090707
0.00152884
0.00112953
0.001542
0.00123989
0.00161239
0.000847278
0.00108009
0.00115569
0.000947889
0.00130989
0.00116693
0.00149609
0.00153983
0.00175217
0.00182141
0.0024525
0.00139855
0.00099395
0.000930636
0.00199925
0.000400287
0.00112559
0.000459179
0.00106934
0.00111593
0.00113996
0.00175097
0.00169843
0.00254024
0.00175414
0.00115597
0.000522074
0.000420938
0.000796117
0.000588098
0.000507722
0.000365813
0.000344446
0.000518308
0.000395539
0.000788448
0.000847728
0.000655464
0.000678219
0.000560546
0.000396011
0.000234248
0.000479301
0.000824683
0.000346558
0.000356614
0.000308659
0.000240871
0.0002725
0.000302396
0.000449401
0.000279092
0.000474763
0.000331471
0.00035908
0.000271231
0.00026636
0.000203195
0.000168292
0.000383125
0.000754055
0.000261285
0.000398045
0.000253751
8.99275e-05
0.000218745
0.000102386
0.000114381
0.000194872
0.000223237
0.000126872
0.000137915
3.63654e-05
0.000119029
0.000110813
9.31903e-05
0.000213512
0.000175196
9.60377e-05
9.96646e-05
0.000123352
0.000101313
0.000213587
0.000251426
0.000175673
0.000253683
0.000235632
0.000445068
0.000178546
0.000216127
0.000419404
0.000503425
0.000432675
0.000374649
0.000313109
0.000397268
0.000464688
0.000381511
0.000432093
0.000358273
0.000400679
0.000322084
0.000411735
0.000544136
0.000383186
0.000381446
0.000333439
0.000436193
0.000394546
0.000534229
0.000286957
0.00042808
0.000348815
0.000441556
0.000487625
0.000702165
0.0003587
0.000629475
0.000469847
0.000441543
0.000447986
0.000268022
0.000330111
0.00057084
0.000261708
0.000414703
0.000750893
0.000426455
0.000288058
0.000462415
0.000364058
0.000556653
0.000513495
0.000705836
0.000592826
0.000436983
0.000785956
0.000706801
0.000494174
0.000391736
0.000361047
0.000716527
0.000953969
0.000623322
0.00066747
0.000345758
0.000674902
0.000520796
0.000408151
0.000142512
0.000268093
0.00068495
0.0014102
0.00125065
0.00102559
0.000440244
0.000828742
0.000829148
0.00131032
0.000306507
0.000402483
0.000492286
0.000425546
0.00118223
0.0012092
0.00121484
0.00179941
0.00173704
0.001165
0.00107572
0.0017938
0.00145843
0.000858058
0.000768267
0.000776852
0.00088346
0.000886266
0.000920174
0.00237574
0.00161542
0.00232582
0.00146681
0.000864499
0.00139991
0.000739112
0.000603032
0.000849753
0.00134386
0.00117285
0.00138504
0.00149758
0.00169575
0.00364764
0.0027883
0.00159
0.00148056
0.000504745
0.00146941
0.00076123
0.000777418
0.00069521
0.000919245
0.00124643
0.000951889
0.00115393
0.00155758
0.00187232
0.00209475
0.00216651
0.00146704
0.000894327
0.000352984
0.00109002
0.000727641
0.000391963
0.000814553
0.000346968
0.000774301
0.000393286
0.000696304
0.000647548
0.000912332
0.000722655
0.000691258
0.000569702
0.000372456
0.000211736
0.000396896
0.000849761
0.000539322
0.000462187
0.000234977
0.000342205
0.000209366
0.000250029
0.000272388
0.000481323
0.000267382
0.000490503
0.000319271
0.00027424
0.000279593
0.000320689
0.000238617
0.000137167
0.000301183
0.000789892
0.000387061
0.000324684
0.000208106
0.000181901
7.01795e-05
0.000212238
9.53989e-05
0.000108571
0.000221911
0.000417248
0.000207756
0.000187224
6.08476e-05
0.000112827
7.99517e-05
9.68685e-05
0.000202717
0.000167123
8.01622e-05
2.84039e-05
0.000156922
0.000127386
6.84125e-05
0.000327245
0.000349321
0.00024973
0.000407332
0.000331757
0.000290575
0.000276442
0.000221636
0.000293221
0.000344438
0.000207312
0.000201952
0.000355422
0.000492983
0.000583564
0.000325725
0.000353228
0.000317332
0.000395059
0.000255527
0.000407599
0.00047104
0.000383033
0.000369326
0.000385265
0.000256736
0.000558239
0.000408141
0.00054282
0.000389512
0.000352608
0.000320947
0.000397948
0.000403433
0.000358803
0.000436545
0.000331103
0.000445244
0.000407809
0.000382586
0.000498809
0.00048102
0.000372362
0.000340552
0.000727399
0.000331211
0.000370658
0.000401707
0.000289048
0.000503882
0.000633292
0.000465491
0.000292622
0.000221202
0.000766747
0.000351022
0.000592387
0.000489887
0.000523161
0.000810027
0.00070058
0.000584465
0.000749055
0.000405007
0.000830301
0.000650593
0.000956771
0.000587883
0.0005143
0.000348518
0.000583376
0.000912362
0.000924796
0.00097695
0.000552204
0.000715411
0.00103654
0.00023957
0.000562865
9.29112e-05
6.30398e-05
0.000471179
0.000810925
0.00131373
0.00181299
0.000921183
0.000873795
0.000904821
0.000882002
0.00121462
0.000853578
0.000465108
0.00026462
0.000411395
0.000982147
0.00122953
0.00174407
0.00082101
0.0015868
0.00146305
0.000855328
0.00121293
0.00135176
0.000432929
0.000744713
0.00069907
0.000745584
0.000605553
0.000936629
0.00117222
0.00182996
0.00120674
0.00242042
0.00193789
0.00168425
0.00148875
0.00129585
0.00056473
0.000507077
0.000957957
0.00114325
0.00120437
0.00153559
0.001361
0.00163952
0.00334148
0.00246359
0.00139962
0.00260753
0.000468779
0.00225648
0.000904498
0.000519351
0.000937547
0.000511935
0.000723584
0.00139713
0.00119031
0.000996792
0.00123719
0.00148558
0.00146362
0.00172657
0.00185564
0.00136345
0.000506413
0.00115034
0.000663172
0.000651189
0.000908277
0.000660025
0.000265888
0.000719947
0.0012159
0.000816916
0.000616464
0.00117669
0.000682776
0.000707715
0.000597247
0.000521999
0.000189614
0.000463039
0.000821981
0.000476226
0.000481815
0.000254669
0.000334909
0.000170507
0.000208804
0.000107994
0.000347665
0.000481507
0.000249797
0.000476363
0.000322789
0.000272886
0.000272909
0.000335815
0.000195934
0.000169196
0.000287279
0.000822429
0.000291182
0.000196134
0.000165603
0.000164325
0.000202422
0.000153396
0.000187694
9.06747e-05
7.74837e-05
0.000157333
0.00035686
9.18158e-05
0.000100338
4.69811e-05
0.000106862
7.84735e-05
0.000103293
0.000191961
0.000198356
0.000158582
4.58106e-05
0.000171047
0.000136706
8.95818e-05
0.000196184
0.000260375
0.00035699
0.000316642
0.000249184
0.000228436
0.000233705
0.00037386
0.000329383
0.000252271
0.000451212
0.000282321
0.000246886
0.000414339
0.00030557
0.000507371
0.000303205
0.000203078
0.000241338
0.000243538
0.000332608
0.00030366
0.000340934
0.00033702
0.00027052
0.000368158
0.000334281
0.000393087
0.00037451
0.000414019
0.000396349
0.000287133
0.000327636
0.000347807
0.000553988
0.000270611
0.000420068
0.000459548
0.000456203
0.000323339
0.000341426
0.000399329
0.00057648
0.000320035
0.000639958
0.000568806
0.00042152
0.000315559
0.000381605
0.00039741
0.00051617
0.000248943
0.000273031
0.000235868
0.000421477
0.000608225
0.00046967
0.000363713
0.000434379
0.000392208
0.000354681
0.00043233
0.000524354
0.000659484
0.000457554
0.00050122
0.000510238
0.00064872
0.000537794
0.00056312
0.00052704
0.000561771
0.000639998
0.000708369
0.000478066
0.000366382
0.000394112
0.000516634
0.000430141
0.000537161
0.000639176
0.000620811
0.0004955
0.000561972
0.000947948
0.000790155
0.000835308
0.000504244
0.000559629
0.000545347
0.00165964
0.000150075
0.000569186
0.00041055
0.000114256
0.000420481
0.0010642
0.00104487
0.00137793
0.00178477
0.000785512
0.000671106
0.00104415
0.00121961
0.000301314
0.000247115
0.000513279
0.00071017
0.000897185
0.000474739
0.00147823
0.00107837
0.0010741
0.00122542
0.00149294
0.00106954
0.00133253
0.00121026
0.000530975
0.000518637
0.00117257
0.00086283
0.000918
0.000596775
0.000591004
0.00117214
0.00224345
0.00176865
0.00141274
0.00268175
0.00170798
0.0010805
0.000757545
0.000670963
0.000590428
0.000703871
0.000793527
0.00105324
0.00121953
0.00114422
0.00139218
0.00167425
0.00107359
0.0032273
0.00153409
0.00237112
0.000660116
0.000929646
0.00114536
0.000679599
0.000569897
0.000883689
0.000653393
0.00106362
0.00125755
0.00103355
0.000997496
0.00133336
0.00131465
0.000919185
0.0014296
0.00210551
0.00158535
0.000471416
0.000838195
0.000971305
0.000985063
0.000727061
0.000613142
0.000620901
0.000161075
0.000545564
0.000668296
0.000420799
0.000744308
0.00093992
0.000736959
0.00077734
0.000533487
0.000686412
0.000351566
0.000381607
0.000642943
0.000956378
0.000588831
0.000252976
0.000348778
0.000267197
0.000323321
0.000234965
0.000273708
0.000269749
0.000442507
0.000266577
0.000354435
0.000300494
0.000206079
0.000181953
0.000293601
0.000211348
0.000217184
0.000229488
0.00081559
0.000388769
0.000275136
0.0002657
0.000127609
0.000264269
0.000406267
0.000127076
0.000177911
8.46795e-05
5.67765e-05
0.000112816
0.000254034
0.000287622
4.36023e-05
4.01483e-05
9.03506e-05
8.58743e-05
0.000116072
0.000169796
0.000224232
0.000188563
0.000160239
0.000152327
0.000202412
0.000219297
0.000261053
0.000255517
0.000335816
0.00028256
0.000290414
0.000260251
0.000336734
0.000282836
0.000248157
0.000555261
0.00047693
0.000374342
0.000476234
0.000414078
0.00047289
0.000222919
0.000313347
0.000309347
0.000236604
0.00027311
0.000256919
0.000319521
0.000351382
0.000382559
0.000160452
0.000225023
0.000408183
0.000285429
0.00034387
0.000391772
0.000306697
0.000301565
0.000319355
0.000317719
0.000281723
0.000217467
0.000324487
0.000462285
0.000401945
0.00037933
0.000362964
0.000393779
0.000322034
0.00042508
0.000234377
0.000365627
0.000432773
0.000411768
0.00048719
0.00038533
0.000428918
0.000422284
0.000447306
0.000349063
0.000375116
0.000343858
0.000507181
0.000514868
0.000357324
0.000425764
0.000211109
0.000531365
0.000451603
0.000575367
0.000529496
0.000421089
0.000541182
0.000494767
0.000622633
0.000386842
0.00048187
0.000428152
0.000655969
0.000439695
0.000428031
0.000538528
0.000364766
0.000313009
0.000283131
0.000330738
0.00058703
0.000412841
0.000607541
0.000591202
0.000566983
0.000734532
0.000635895
0.000562722
0.000576008
0.000237967
0.000309707
0.000512304
0.000278337
0.000696084
0.00117854
0.000650823
0.000728331
0.000402681
0.000545269
0.00106272
0.000509528
0.000410022
0.00048406
0.000696119
0.00125396
0.00170838
0.000835892
0.000367507
0.000421753
0.000768921
0.000323203
0.000681345
0.00075626
0.000963612
0.00174764
0.00109793
0.000677948
0.00103056
0.000707514
0.00123643
0.000680037
0.000367875
0.000336496
0.000443737
0.000876271
0.000824702
0.00109498
0.000401125
0.00157095
0.00127825
0.00132454
0.00134748
0.00132769
0.00192351
0.000738108
0.00102596
0.000553626
0.00115656
0.00107036
0.0008312
0.000862571
0.000809636
0.000904409
0.000720079
0.00204871
0.0015547
0.00188663
0.00125593
0.00111855
0.002054
0.000544315
0.00100306
0.000341463
0.000723973
0.00102363
0.00122658
0.00122306
0.000959966
0.000719366
0.00152332
0.00109219
0.00203795
0.00205839
0.00187649
0.0011694
0.000773891
0.00132072
0.000752768
0.000549437
0.000716685
0.000531633
0.000547163
0.000982668
0.00116384
0.00116776
0.0010204
0.00101513
0.00134659
0.00074038
0.00119574
0.00207459
0.00135767
0.000318267
0.000703479
0.000830414
0.000641153
0.000432667
0.000799448
0.000803182
0.000548571
0.000305872
0.00057446
0.000468268
0.00083009
0.000747754
0.0006454
0.000705663
0.000760325
0.000610665
0.000472856
0.00045872
0.000449676
0.000567617
0.000740241
0.000600698
0.000311265
0.000341139
0.000395172
0.00032922
0.000355193
0.000401874
0.000134761
0.000322319
0.000425928
0.00026676
0.00033207
0.000320117
0.000115082
0.000141741
0.00022031
0.00028177
0.000219947
0.000285047
0.000769141
0.000535436
0.000222114
0.000286942
0.000149848
0.000337095
0.000523166
0.000400869
0.000174799
0.000174077
7.24041e-05
7.18229e-05
9.87734e-05
6.7206e-05
7.81638e-05
9.16366e-05
4.60657e-05
6.31663e-05
8.78197e-05
9.88666e-05
0.000151653
0.000237355
0.000111786
0.00031761
0.000172146
0.000148409
8.16104e-05
0.000180492
0.000158991
0.00030901
0.000674644
0.000525997
0.000416657
0.000254368
0.000305552
0.000296927
0.000200804
0.000359706
0.000349047
0.000317932
0.000295671
0.000274502
0.000253869
0.000325465
0.000452906
0.000489527
0.000489992
0.000556563
0.00037872
0.000287705
0.000267152
0.000388784
0.000294683
0.000298216
0.000337716
0.000332427
0.000298192
0.000386862
0.000352386
0.000272266
0.000233798
0.000362632
0.000338476
0.000305062
0.000327318
0.000215629
0.00023768
0.000330595
0.000354074
0.000333596
0.000241952
0.00039256
0.000371139
0.000718118
0.000366672
0.000444404
0.000385713
0.000388498
0.00040036
0.000316812
0.000375122
0.000423467
0.00041438
0.000478285
0.000459916
0.000397918
0.000503375
0.000337882
0.000357784
0.000500827
0.000409583
0.000404028
0.000176078
0.000513773
0.000329262
0.000563656
0.00040244
0.000436125
0.000423432
0.000490474
0.000420542
0.000400185
0.000396406
0.000427488
0.000349132
0.000716572
0.000398512
0.000297819
0.000739964
0.000602552
0.000547831
0.000677769
0.000756407
0.000432344
0.000444732
0.000465401
0.0002683
0.000388599
0.000413585
0.000584695
0.000286944
0.000532095
0.000625364
0.000586911
0.000643787
0.000425395
0.000763443
0.000408236
0.000795168
0.000340426
0.000404633
0.00079996
0.000573724
0.000757218
0.00114964
0.000665134
0.000776089
0.000841696
0.000627098
0.000332023
0.000533633
0.000863608
0.000739258
0.000528817
0.000475012
0.000623063
0.000353865
0.00134181
0.000763488
0.000472322
0.000685789
0.00040936
0.000207843
0.000572361
0.000625088
0.000926904
0.001111
0.0014552
0.0010015
0.000734497
0.000973821
0.00151702
0.00130195
0.000568643
0.000691682
0.000449027
0.000658925
0.000268811
0.000445933
0.000761102
0.000967999
0.000901396
0.0016155
0.00116943
0.00160558
0.000630048
0.000935013
0.002542
0.000807872
0.000872453
0.000142244
0.000279105
0.00073295
0.000638047
0.000707139
0.000396858
0.000280916
0.0012543
0.000576621
0.00144839
0.0021043
0.00142566
0.00210165
0.00116696
0.00144198
0.000769709
0.00085712
0.000525758
0.0003207
0.000597252
0.00113263
0.000844549
0.00107136
0.00105259
0.00161303
0.00140058
0.000859193
0.00106267
0.00306749
0.00179728
0.00142523
0.000782092
0.0013272
0.000797273
0.000718209
0.000530461
0.000659033
0.000267222
0.000650335
0.000707306
0.0012101
0.0012082
0.001013
0.00106878
0.00129393
0.000818025
0.00112739
0.00172219
0.00141979
0.000752938
0.00049426
0.000903547
0.00117613
0.000947724
0.000936112
0.000715201
0.000481983
0.000643794
0.000381625
0.000174712
0.00125402
0.000689152
0.000714903
0.000823614
0.000670489
0.000702695
0.000604608
0.000278594
0.000549656
0.000517423
0.000680483
0.000652522
0.000576791
0.000474762
0.000327314
0.000614705
0.000387183
0.000506249
0.000486831
0.000426763
0.000364452
0.000246812
0.000331227
0.00027271
0.000315201
0.000335708
0.000121126
0.00013909
0.000159148
0.000236017
0.000203186
0.000584925
0.000716119
0.000552693
0.00021246
0.000157103
0.000232116
0.000246074
0.000424126
0.000405674
0.000319948
0.000290933
0.000178724
0.000103508
9.63377e-05
6.82728e-05
0.000143674
0.00026494
0.000218804
5.92351e-05
5.32699e-05
6.63764e-05
9.03538e-05
0.000142945
0.000236553
0.000136355
0.000209304
0.00011313
5.9639e-05
0.000107842
0.000164284
0.000378825
0.000421932
0.000349598
0.001424
0.000647774
0.000575177
0.000616132
0.000426946
0.000367511
0.000401807
0.000398186
0.00036105
0.000286204
0.000349599
0.000310098
0.000420509
0.000333364
0.00023912
0.000397655
0.000283387
0.000373285
0.000434011
0.000541832
0.000314478
0.000408277
0.000374426
0.000414576
0.000323614
0.000358015
0.000345122
0.000364507
0.000363843
0.000402108
0.000314017
0.000300851
0.000267565
0.000180325
0.00012377
0.000407366
0.000205943
0.000339516
0.000245308
0.000346535
0.000255645
0.000170772
0.000223457
0.000481489
0.00032704
0.000349969
0.000386742
0.000401332
0.000356781
0.00038759
0.000460959
0.000257466
0.00028773
0.0007561
0.000372073
0.000512203
0.000321494
0.000348447
0.000360529
0.000405672
0.000403495
0.000367083
0.000666694
0.000534382
0.000516885
0.000429399
0.000457389
0.000444659
0.000401888
0.000319799
0.000364471
0.000396423
0.000429361
0.000571059
0.000324619
0.000770188
0.000384928
0.000382903
0.000358256
0.000570793
0.000498971
0.000478204
0.000319494
0.000564865
0.00027051
0.000333337
0.000248508
0.000226074
0.00086279
0.000444079
0.000369515
0.000392327
0.000754616
0.000649862
0.000729375
0.000662654
0.000767661
0.000407882
0.00052987
0.000476113
0.000336354
0.000153597
0.000540083
0.00079534
0.000456511
0.000622132
0.000538105
0.000450278
0.000667974
0.000585332
0.000407523
0.000561794
0.000515252
0.000416801
0.000362686
0.000621712
0.000756198
0.000873165
0.00111225
0.000670677
0.00061101
0.000167411
0.000731991
0.000686838
0.000350062
0.000389961
0.000380742
0.00102398
0.000525484
0.000526377
0.0010144
0.00045529
0.000380975
0.0009846
0.000280464
0.000792721
0.000597288
0.000430029
0.000210851
0.000440236
0.000793665
0.000810365
0.000673997
0.0010134
0.00138032
0.000881278
0.000875223
0.00137299
0.00106757
0.000517049
0.000264752
0.000905408
0.000389674
0.000250916
0.000335936
0.000168981
0.000274632
0.000522396
0.000909413
0.00113509
0.000955881
0.00139939
0.00100016
0.000803098
0.0009552
0.00130138
0.000864754
0.000522088
0.00072331
0.00124783
0.00101441
0.000561335
0.000566497
0.000434418
0.00058254
0.00110799
0.000882378
0.00103696
0.00241617
0.0013495
0.00152522
0.000884099
0.00135795
0.000904556
0.00132178
0.00103475
0.000695372
0.000397315
0.000575072
0.00091003
0.000966119
0.00114875
0.00104864
0.000739484
0.00145015
0.000823095
0.00128698
0.00277203
0.00154429
0.00157013
0.000538821
0.00147231
0.000949197
0.000727019
0.000930294
0.000655789
0.000552193
0.00135659
0.00035583
0.000829967
0.00115124
0.0012654
0.000790648
0.00094305
0.00106404
0.000960541
0.00110082
0.00135857
0.00162779
0.00100145
0.000330425
0.00125701
0.00102418
0.00117436
0.000662765
0.000671625
0.000485719
0.000361986
0.000530339
0.00047884
0.00130734
0.0003934
0.0005912
0.000883781
0.000801121
0.000734113
0.000722514
0.000437679
0.000168024
0.000521748
0.000514405
0.000491687
0.000993237
0.000478733
0.000608141
0.000310447
0.00053671
0.000348659
0.000392444
0.000503133
0.000318797
0.000342838
0.000272231