/*--------------------------------*- C++ -*----------------------------------*\
  =========                 |
  \\      /  F ield         | OpenFOAM: The Open Source CFD Toolbox
   \\    /   O peration     | Website:  https://openfoam.org
    \\  /    A nd           | Version:  7
     \\/     M anipulation  |
\*---------------------------------------------------------------------------*/
FoamFile
{
    version     2.0;
    format      ascii;
    class       volScalarField;
    location    "9";
    object      p;
}
// * * * * * * * * * * * * * * * * * * * * * * * * * * * * * * * * * * * * * //

dimensions      [0 2 -2 0 0 0 0];

internalField   nonuniform List<scalar> 
18720
(
-67.6995
-67.9683
-67.7013
-67.6981
-67.4946
-67.6194
-67.994
-67.9382
-68.3067
-67.5001
-67.6957
-67.4833
-66.4354
-64.6666
-67.654
-67.5281
-68.7882
-68.3578
-67.9009
-68.28
-67.2953
-66.4252
-67.6922
-67.4665
-66.441
-64.8789
-62.6306
-64.694
-64.603
-65.4209
-68.8793
-67.4663
-68.6826
-68.5215
-67.2702
-67.8713
-68.275
-67.2864
-65.5008
-64.8717
-67.6886
-67.4458
-66.441
-64.9253
-63.4023
-61.0503
-62.7673
-62.6635
-63.2506
-65.5186
-64.6481
-65.3751
-67.2624
-68.4677
-67.476
-68.5753
-68.5662
-67.7807
-65.4837
-67.8473
-68.231
-67.2415
-65.505
-63.7364
-63.3901
-67.6856
-67.4226
-66.4345
-64.9411
-63.4093
-62.2497
-59.2584
-61.0369
-61.0181
-61.1514
-63.37
-62.8064
-63.1908
-63.2985
-67.1339
-64.7937
-65.2338
-67.196
-68.2515
-67.5543
-67.4926
-68.4306
-68.42
-67.8562
-64.5028
-63.693
-67.8345
-68.1493
-67.2103
-65.495
-63.7669
-62.2203
-62.2322
-67.6827
-67.3966
-66.4193
-64.9393
-63.4159
-62.266
-61.6745
-58.4065
-59.218
-59.4272
-59.1743
-61.3259
-61.1725
-60.9747
-61.3642
-63.2039
-62.87
-63.078
-63.1323
-63.388
-67.8268
-64.8487
-65.1268
-66.8595
-68.2479
-65.0625
-64.3326
-67.4421
-68.2328
-68.2117
-67.7339
-64.7108
-62.6759
-62.1822
-67.8007
-68.056
-67.1755
-65.4707
-63.7775
-62.2385
-61.5688
-61.6673
-67.6688
-67.3677
-66.3971
-64.9491
-63.4248
-62.2856
-61.6812
-61.0746
-56.9822
-58.2758
-58.4987
-58.0417
-59.0352
-59.7011
-59.303
-59.3755
-61.3176
-61.2688
-60.8964
-61.4592
-61.0902
-63.1947
-62.9082
-62.9372
-63.1439
-63.5426
-63.439
-65.1386
-64.6465
-65.0315
-66.499
-67.9628
-64.9363
-63.365
-62.5966
-67.2567
-68.0305
-68.0342
-67.3504
-64.9523
-62.7518
-61.5634
-61.5374
-67.7873
-67.9507
-67.1191
-65.4332
-63.7745
-62.2684
-61.6195
-60.8537
-61.0635
-67.6446
-67.3366
-66.3703
-64.9599
-63.4333
-62.312
-61.6887
-61.0882
-60.5466
-55.973
-56.831
-57.1434
-56.8691
-58.1503
-58.5744
-58.1975
-57.9253
-59.1644
-59.8567
-59.4934
-59.3427
-58.7693
-61.1287
-61.3558
-60.7624
-61.5286
-60.9769
-60.9066
-63.7815
-63.1267
-62.8285
-63.3389
-63.349
-63.2756
-64.1655
-62.8346
-64.614
-64.9167
-66.1883
-67.5747
-65.4856
-63.6193
-61.8282
-61.4778
-67.2164
-67.8103
-67.8302
-66.8027
-64.8559
-62.7655
-61.6581
-60.889
-60.8177
-67.7844
-67.8389
-67.0367
-65.4069
-63.7781
-62.3474
-61.666
-60.892
-60.2811
-60.5386
-67.6215
-67.3035
-66.3392
-64.9643
-63.446
-62.3269
-61.6954
-61.103
-60.5596
-60.0701
-55.2067
-55.8254
-56.0673
-55.8979
-56.8175
-57.0392
-56.9068
-56.7877
-57.9361
-58.7253
-58.259
-57.9979
-57.6125
-58.8992
-59.9018
-59.7618
-59.4695
-58.8399
-58.2911
-61.1101
-61.4647
-60.7144
-61.3088
-61.0097
-60.7617
-61.5186
-63.8266
-63.3591
-62.8232
-62.9801
-63.4714
-63.1813
-64.3085
-61.6227
-61.5021
-64.605
-64.8453
-65.8142
-67.2441
-65.8911
-63.6186
-62.1378
-61.0618
-60.8071
-67.1347
-67.5991
-67.5374
-66.3842
-64.4982
-62.7571
-61.7468
-60.9532
-60.3157
-60.2622
-67.7671
-67.7237
-66.9585
-65.3867
-63.7916
-62.4218
-61.6978
-60.9305
-60.3052
-59.7645
-60.0628
-67.606
-67.2692
-66.3032
-64.9606
-63.4491
-62.34
-61.7041
-61.1182
-60.5787
-60.0787
-59.7444
-54.5418
-55.0676
-55.2591
-55.1674
-55.8103
-56.0922
-56.0147
-55.8652
-56.8151
-57.104
-57.0203
-56.7772
-56.6048
-57.6497
-58.7452
-58.3685
-58.1145
-57.741
-57.16
-58.3684
-60.0592
-59.8091
-59.4348
-58.8529
-58.336
-58.2658
-61.3456
-61.4379
-60.6796
-61.0665
-61.3107
-60.8875
-61.5366
-61.139
-61.282
-63.5315
-62.7272
-62.4426
-63.4764
-63.0719
-63.6189
-61.84
-61.7535
-60.8109
-64.6298
-64.9613
-65.4971
-66.9026
-65.4735
-62.7801
-62.3265
-61.3787
-60.0696
-60.2287
-67.069
-67.3729
-67.2372
-66.0586
-64.1392
-62.8227
-61.7816
-60.9853
-60.3702
-59.4191
-59.7348
-67.7434
-67.606
-66.8844
-65.3659
-63.8092
-62.4717
-61.7351
-60.9679
-60.3412
-59.794
-59.4334
-59.7373
-67.5891
-67.2352
-66.2634
-64.9571
-63.4501
-62.3615
-61.7126
-61.1328
-60.5965
-60.0888
-59.7519
-59.5637
-54.0619
-54.5016
-54.6143
-54.5977
-55.0669
-55.3247
-55.2458
-55.1086
-55.7472
-56.1278
-56.0453
-55.9055
-55.6236
-56.5024
-57.2139
-56.8765
-56.812
-56.5905
-56.1774
-57.1478
-58.7222
-58.637
-58.1741
-57.8229
-57.1254
-56.9943
-58.2212
-60.2318
-59.7293
-59.4898
-58.9726
-58.3557
-58.321
-58.281
-60.9449
-61.6038
-60.746
-61.2639
-61.173
-60.8737
-61.174
-61.241
-60.4481
-61.1471
-63.6492
-62.8387
-62.7921
-63.3007
-62.8929
-62.4407
-62.0517
-62.3857
-61.1561
-59.9779
-64.7655
-64.8502
-65.382
-66.5785
-65.1687
-62.2414
-62.5296
-61.7266
-60.2799
-59.195
-59.387
-67.0345
-67.1703
-66.9655
-65.748
-63.7766
-62.9322
-61.8076
-61.015
-60.4134
-59.4545
-58.9813
-59.4237
-67.7168
-67.497
-66.7995
-65.3371
-63.8229
-62.5098
-61.7654
-61.0074
-60.376
-59.8335
-59.4468
-59.3138
-59.5726
-67.5666
-67.2029
-66.2223
-64.952
-63.458
-62.3854
-61.7229
-61.148
-60.6028
-60.0998
-59.7592
-59.5551
-59.6529
-53.7337
-54.054
-54.1417
-54.0994
-54.5233
-54.6884
-54.6707
-54.4992
-55.0695
-55.4057
-55.2755
-55.1239
-54.9843
-55.5163
-56.188
-55.9663
-56.0008
-55.7106
-55.4095
-56.206
-57.2766
-56.9484
-56.8544
-56.6949
-56.158
-55.9797
-57.0212
-58.9022
-58.5977
-58.3055
-57.9249
-57.1715
-57.1121
-56.8998
-58.3141
-60.2765
-59.8649
-59.6089
-58.9888
-58.4324
-58.3902
-58.1822
-58.8695
-59.9546
-61.923
-60.9536
-61.1055
-61.1392
-60.6807
-60.7085
-61.0669
-60.8772
-59.0816
-60.5706
-63.6611
-62.9355
-62.8095
-63.0971
-62.744
-61.5532
-62.1982
-62.7021
-61.6841
-59.1544
-59.03
-64.8219
-64.7662
-65.1991
-66.1078
-64.7242
-62.0355
-62.7055
-61.8471
-60.5017
-59.3603
-58.5334
-58.9745
-67.0211
-67.0089
-66.6903
-65.4993
-63.4456
-63.0828
-61.8519
-61.0333
-60.4507
-59.5316
-59.0021
-59.083
-59.3492
-67.6987
-67.3941
-66.7066
-65.3019
-63.8026
-62.5441
-61.8015
-61.0406
-60.4102
-59.8694
-59.4656
-59.2878
-59.357
-59.6787
-67.5442
-67.1732
-66.1802
-64.9472
-63.4745
-62.4116
-61.7337
-61.1635
-60.6099
-60.1143
-59.7671
-59.5451
-59.6268
-59.9923
-53.4762
-53.765
-53.8033
-53.8209
-54.0797
-54.2062
-54.1738
-54.1196
-54.5352
-54.7463
-54.7255
-54.5629
-54.5086
-54.9502
-55.4506
-55.3818
-55.2122
-55.0622
-54.8596
-55.4453
-56.2893
-56.0804
-56.0527
-55.7518
-55.4777
-55.2611
-56.0362
-57.2274
-56.9924
-56.9529
-56.628
-56.1689
-55.9932
-55.9534
-56.9962
-58.9382
-58.5664
-58.3631
-57.9963
-57.2668
-56.9991
-56.7596
-56.7453
-58.5632
-60.5905
-60.066
-59.4967
-59.0528
-58.3748
-58.138
-57.9728
-58.7809
-58.0051
-58.5988
-61.9674
-61.3758
-60.7244
-61.2063
-60.7328
-60.0874
-61.1167
-60.9331
-59.6174
-58.3928
-58.7592
-63.8388
-62.935
-62.4618
-62.9267
-62.3653
-61.2439
-62.4303
-63.015
-62.3355
-59.6216
-58.2455
-58.4945
-64.8471
-64.8557
-65.017
-65.9003
-64.178
-62.2721
-62.4674
-61.6136
-60.6861
-59.5291
-58.6198
-58.8004
-59.1832
-67.0107
-66.8304
-66.455
-65.3818
-63.2786
-63.1493
-61.914
-61.0387
-60.4609
-59.6035
-59.038
-59.0086
-59.7023
-59.442
-67.6491
-67.2962
-66.6131
-65.2667
-63.7498
-62.5888
-61.8469
-61.0684
-60.4495
-59.9032
-59.4888
-59.2706
-59.2702
-59.9555
-60.0248
-67.5209
-67.1459
-66.1381
-64.9332
-63.4995
-62.4393
-61.7443
-61.1774
-60.6229
-60.1326
-59.7752
-59.5344
-59.5995
-59.9388
-60.1344
-53.3099
-53.501
-53.5217
-53.5748
-53.7037
-53.8893
-53.8758
-53.8358
-54.1171
-54.2535
-54.2699
-54.1853
-54.121
-54.4667
-54.841
-54.7795
-54.6442
-54.5415
-54.4592
-54.8634
-55.4512
-55.4775
-55.2925
-55.1542
-54.9538
-54.8072
-55.2964
-56.327
-56.1995
-56.0514
-55.8724
-55.6279
-55.2015
-55.3429
-55.9118
-57.363
-57.1432
-57.0259
-56.6367
-56.2532
-55.9331
-55.9177
-55.7636
-56.4555
-58.8748
-58.642
-58.3511
-58.0925
-57.1885
-56.6885
-57.0403
-56.8969
-56.5575
-57.5988
-60.8593
-60.2637
-59.6436
-59.276
-58.4689
-57.7727
-58.1252
-58.856
-58.2717
-57.2037
-57.9945
-62.1708
-61.4903
-61.06
-61.4737
-60.7773
-59.7501
-60.6451
-60.9566
-60.1645
-58.783
-57.7758
-58.0606
-63.9806
-63.0203
-62.5551
-62.8622
-62.0824
-61.0992
-62.2068
-62.8208
-62.9566
-60.2098
-58.4719
-58.2043
-58.9362
-64.8367
-64.8314
-64.8681
-65.6203
-63.6618
-62.2854
-61.8892
-61.5444
-60.8183
-59.6827
-58.7529
-58.6566
-59.7765
-59.8531
-66.9695
-66.7232
-66.3159
-65.3715
-63.257
-63.2412
-61.9836
-61.0298
-60.4539
-59.6649
-59.0917
-58.9544
-59.5597
-60.7049
-60.0101
-67.6134
-67.2074
-66.5229
-65.2311
-63.695
-62.633
-61.8838
-61.091
-60.4888
-59.9371
-59.5135
-59.2593
-59.1797
-59.902
-60.6111
-60.1425
-67.4972
-67.121
-66.0963
-64.9167
-63.5284
-62.4646
-61.7549
-61.1897
-60.6367
-60.1476
-59.784
-59.5254
-59.5729
-59.8957
-60.1352
-60.382
-53.1777
-53.2841
-53.3769
-53.4344
-53.474
-53.6028
-53.6239
-53.589
-53.7757
-53.9479
-53.931
-53.8526
-53.8108
-54.0755
-54.327
-54.2846
-54.2575
-54.1366
-54.0355
-54.4213
-54.851
-54.8365
-54.7411
-54.6203
-54.5242
-54.3193
-54.778
-55.5244
-55.4963
-55.3214
-55.2008
-55.0103
-54.8092
-54.7561
-55.3878
-56.3532
-56.2945
-56.0986
-55.8854
-55.5953
-55.2951
-55.356
-55.3603
-55.8598
-57.3851
-57.1828
-57.0397
-56.7238
-56.3751
-55.9209
-55.9754
-55.9502
-55.9511
-56.5383
-59.0062
-58.5574
-58.4376
-58.1829
-57.3738
-56.7948
-56.9615
-56.8637
-56.7338
-56.4387
-56.8006
-60.9979
-60.4142
-60.0485
-59.4837
-58.9143
-58.2508
-58.1835
-58.4327
-58.6175
-57.6034
-57.1311
-57.571
-62.1906
-61.7156
-61.1313
-61.4522
-60.6708
-59.4405
-60.2956
-60.868
-60.4807
-59.4219
-58.0882
-57.7201
-58.5415
-64.0889
-63.1285
-62.6568
-62.9144
-62.3437
-60.9911
-61.5519
-62.4839
-63.3676
-60.7122
-58.6114
-58.1609
-59.8544
-59.9366
-64.8897
-64.7996
-64.785
-65.3638
-63.4244
-62.1726
-61.203
-61.1611
-60.8218
-59.8115
-58.8727
-58.5059
-59.6025
-61.4745
-60.862
-66.9045
-66.6307
-66.1639
-65.4376
-63.2499
-63.217
-62.1087
-61.0323
-60.4403
-59.7508
-59.1758
-58.9239
-59.4211
-60.5195
-61.3665
-60.6808
-67.5598
-67.1224
-66.4357
-65.1951
-63.6378
-62.6771
-61.9195
-61.113
-60.5265
-59.9646
-59.5398
-59.2531
-59.0961
-59.8518
-60.5223
-61.1945
-60.4172
-67.4716
-67.0989
-66.0561
-64.8901
-63.555
-62.487
-61.7648
-61.1986
-60.6524
-60.1625
-59.7921
-59.5193
-59.5491
-59.8642
-60.1249
-60.3454
-60.8745
-53.0521
-53.1527
-53.2699
-53.2737
-53.3442
-53.4033
-53.475
-53.4172
-53.5311
-53.6023
-53.6048
-53.5923
-53.537
-53.7735
-53.9464
-53.984
-53.9019
-53.8805
-53.768
-54.0611
-54.3863
-54.3361
-54.3181
-54.2107
-54.1201
-54.0103
-54.4008
-54.9516
-54.8632
-54.8087
-54.6317
-54.5004
-54.3977
-54.3553
-54.7929
-55.5207
-55.5289
-55.3305
-55.2342
-55.0562
-54.8151
-54.7506
-54.9022
-55.3954
-56.4195
-56.3994
-56.1306
-55.9651
-55.6697
-55.3426
-55.1736
-55.2662
-55.45
-55.9368
-57.4838
-57.2469
-57.1023
-56.8162
-56.3894
-55.898
-55.9131
-56.0577
-55.9632
-56.1045
-56.3756
-59.0686
-58.7993
-58.5278
-58.2989
-57.5537
-56.8647
-56.9242
-56.7702
-56.7987
-56.5653
-56.7346
-56.9366
-60.8398
-60.5684
-60.0165
-59.5381
-58.9313
-58.2269
-58.3572
-58.0662
-58.8591
-57.8544
-57.3831
-57.5002
-57.9278
-62.3117
-61.8422
-61.2676
-61.3641
-60.6109
-59.9065
-60.6075
-60.3914
-60.5155
-59.8391
-58.3499
-57.5441
-59.3324
-60.3098
-64.2181
-63.2435
-62.6434
-63.0703
-63.09
-61.0338
-60.9232
-61.7994
-63.11
-60.865
-58.8497
-58.1527
-59.3896
-61.8182
-61.639
-65.0232
-64.9075
-64.6953
-65.2369
-63.355
-62.2313
-60.8713
-60.5521
-60.7456
-59.9506
-58.9687
-58.4204
-59.3848
-61.1909
-62.4352
-61.4725
-66.8254
-66.4099
-65.9737
-65.4654
-63.2464
-63.0606
-62.228
-61.054
-60.3965
-59.8327
-59.2593
-58.9349
-59.2095
-60.305
-61.219
-62.0235
-61.2348
-67.5078
-67.0425
-66.3576
-65.1593
-63.5744
-62.7204
-61.9388
-61.1342
-60.5667
-59.9884
-59.5691
-59.2512
-59.0249
-59.8021
-60.4244
-61.145
-62.0019
-60.8623
-67.447
-67.0782
-66.0178
-64.8752
-63.5792
-62.5184
-61.7739
-61.2072
-60.6683
-60.1817
-59.8006
-59.5167
-59.5289
-59.8337
-60.0959
-60.324
-60.8775
-61.5691
-52.9813
-52.9944
-53.1149
-53.0756
-53.2236
-53.2836
-53.2728
-53.2572
-53.3678
-53.4452
-53.4884
-53.5062
-53.3942
-53.4916
-53.6115
-53.6839
-53.7161
-53.6061
-53.5237
-53.7406
-54.0226
-54.0346
-53.9809
-53.9087
-53.8833
-53.7266
-53.9791
-54.4353
-54.4183
-54.3482
-54.2458
-54.1535
-54.0408
-53.9647
-54.3527
-54.9303
-54.9327
-54.8557
-54.6925
-54.5868
-54.3962
-54.3908
-54.3663
-54.8963
-55.5178
-55.5662
-55.4634
-55.2775
-55.1484
-54.8236
-54.7199
-54.8087
-55.0288
-55.564
-56.5114
-56.4851
-56.17
-56.0292
-55.6826
-55.522
-55.1768
-55.1633
-55.2972
-55.6228
-56.1258
-57.6003
-57.3736
-57.0861
-56.8532
-56.4858
-56.2429
-55.843
-56.0162
-56.0595
-56.0819
-56.433
-56.6918
-59.2488
-58.7733
-58.5283
-58.2881
-57.7011
-56.9266
-56.6414
-56.6298
-56.6559
-56.7008
-56.7724
-57.1771
-57.7897
-61.0471
-60.6388
-60.0772
-59.6098
-59.0814
-58.0186
-58.2073
-58.2643
-58.3849
-57.9761
-57.7351
-57.471
-58.902
-59.8711
-62.3661
-61.9331
-61.4029
-61.3223
-60.6136
-59.6048
-59.7963
-59.9843
-60.5614
-60.123
-58.4324
-57.5425
-58.9721
-61.3489
-62.0925
-64.3044
-63.4023
-62.5422
-62.8986
-62.3808
-61.0983
-60.5907
-60.8679
-62.5724
-61.0326
-59.1354
-58.1408
-59.0909
-61.4649
-62.4751
-62.4326
-65.1451
-64.9341
-64.633
-65.1676
-63.2429
-62.1317
-60.9948
-60.2497
-60.4951
-59.9226
-59.0456
-58.4083
-59.1414
-60.852
-62.2544
-63.2605
-62.0889
-66.9656
-66.2834
-65.8637
-65.3755
-63.4021
-62.8745
-62.3117
-61.1233
-60.3887
-59.8989
-59.352
-58.9732
-59.0381
-60.0502
-61.027
-61.937
-63.4126
-62.0078
-67.4527
-66.9723
-66.2947
-65.1297
-63.5896
-62.7248
-61.9422
-61.1715
-60.6097
-60.0165
-59.5939
-59.2541
-58.9588
-59.7638
-60.3253
-61.07
-61.9832
-62.4891
-61.5219
-67.424
-67.0589
-65.9813
-64.87
-63.6036
-62.5416
-61.7819
-61.2213
-60.6861
-60.2004
-59.8099
-59.5175
-59.5104
-59.8018
-60.0404
-60.3111
-60.8807
-61.5953
-61.5332
-52.9583
-52.8908
-53.0254
-52.9641
-53.092
-53.17
-53.1289
-53.0945
-53.1469
-53.3046
-53.3424
-53.2735
-53.1079
-53.3169
-53.5442
-53.588
-53.5553
-53.4667
-53.379
-53.4892
-53.7836
-53.7624
-53.7263
-53.6485
-53.5548
-53.5385
-53.6472
-54.0888
-54.0538
-54.0302
-53.9232
-53.9167
-53.7585
-53.737
-54.0616
-54.5098
-54.4785
-54.3709
-54.3446
-54.1599
-54.027
-53.987
-53.9912
-54.5447
-55.0133
-54.9906
-54.904
-54.6819
-54.6076
-54.4084
-54.3731
-54.3768
-54.471
-55.0085
-55.6536
-55.5991
-55.506
-55.2471
-55.1927
-54.9255
-54.7376
-54.7311
-54.8008
-55.1934
-55.7222
-56.7088
-56.2672
-56.2839
-55.986
-55.7054
-55.4664
-55.3009
-55.1576
-55.2824
-55.555
-55.9006
-56.5443
-57.7068
-57.2964
-57.0826
-56.8786
-56.5894
-56.3182
-55.8947
-56.0355
-56.0847
-56.0677
-56.2158
-56.8783
-57.427
-59.0796
-58.9007
-58.5108
-58.2697
-57.8191
-57.0624
-56.701
-56.7537
-56.4912
-56.8615
-56.8233
-56.9803
-58.2297
-59.5117
-61.3057
-60.8153
-60.1608
-59.7118
-59.1228
-58.3409
-58.2477
-57.9942
-58.0912
-58.0006
-57.962
-57.2772
-59.5126
-60.8771
-61.6922
-62.534
-61.9973
-61.4954
-61.2551
-60.5147
-59.5292
-58.9263
-59.8711
-60.2882
-60.1164
-58.6339
-57.5649
-58.8174
-60.9104
-61.9952
-62.6414
-64.3703
-63.511
-62.5659
-63.1992
-62.3005
-60.6174
-60.5917
-60.3828
-61.7166
-61.1675
-59.5334
-58.3165
-58.8135
-60.9417
-62.414
-63.4576
-63.3707
-65.1595
-64.9179
-64.6081
-65.1012
-63.2717
-62.0185
-61.2337
-60.205
-59.9973
-59.9127
-59.0974
-58.4809
-58.8616
-60.5009
-61.8946
-63.1265
-64.6808
-63.4491
-66.8804
-66.6556
-65.8365
-65.2834
-63.6031
-62.7325
-62.3725
-61.2241
-60.4331
-59.9528
-59.4601
-59.0182
-58.8806
-59.8103
-60.8071
-61.8556
-63.3619
-64.1887
-62.4615
-67.3827
-66.8995
-66.2416
-65.0985
-63.6794
-62.6944
-61.9552
-61.2207
-60.659
-60.0501
-59.6135
-59.2623
-58.9081
-59.6934
-60.2137
-61.0041
-61.9505
-62.5272
-63.0617
-61.5167
-67.4008
-67.0399
-65.9471
-64.8559
-63.6207
-62.5458
-61.7921
-61.2376
-60.7045
-60.2168
-59.8204
-59.5216
-59.4919
-59.7668
-59.9823
-60.2841
-60.8772
-61.6018
-61.6172
-61.5043
-52.8892
-52.9033
-52.9959
-52.9326
-52.9219
-53.0943
-53.0428
-52.8953
-53.0405
-53.2111
-53.1805
-53.1159
-52.9982
-53.0995
-53.3926
-53.3366
-53.3303
-53.2912
-53.1873
-53.3003
-53.588
-53.599
-53.5312
-53.5088
-53.3644
-53.3
-53.4766
-53.8358
-53.8232
-53.7646
-53.7323
-53.6056
-53.513
-53.4893
-53.7078
-54.1612
-54.0945
-54.0666
-53.9893
-53.8622
-53.7962
-53.6831
-53.756
-54.0236
-54.4932
-54.5154
-54.4163
-54.369
-54.2208
-54.1026
-54.022
-54.0666
-54.0875
-54.5316
-55.1002
-55.0078
-54.9234
-54.758
-54.632
-54.5348
-54.4434
-54.3938
-54.4485
-54.7748
-55.1676
-55.703
-55.6007
-55.5295
-55.2675
-55.2183
-54.7498
-54.8248
-54.7358
-54.8347
-55.1318
-55.3751
-56.0855
-56.8076
-56.425
-56.2362
-56.0131
-55.7438
-55.3391
-55.2139
-55.2619
-55.2197
-55.4984
-55.8795
-56.3749
-57.1068
-57.7057
-57.3639
-57.084
-56.9244
-56.6244
-56.3723
-55.9684
-55.7006
-55.9589
-55.9766
-56.2262
-56.7342
-57.6322
-58.6855
-59.0191
-58.9492
-58.784
-58.3251
-57.9212
-57.3107
-56.8936
-56.7767
-56.6655
-57.0068
-57.0071
-57.0021
-58.1287
-59.7602
-61.3863
-61.1162
-60.8633
-60.3042
-59.8286
-58.9851
-58.3186
-58.1663
-58.1303
-58.2143
-58.0336
-58.3227
-57.3518
-58.0385
-60.3223
-61.9577
-62.2481
-62.8637
-62.1185
-61.5954
-61.2501
-60.6308
-59.5006
-58.8986
-59.5445
-59.5872
-59.8896
-58.6699
-57.7295
-57.8399
-60.3237
-61.7509
-63.3582
-63.5729
-64.4091
-63.6989
-62.7162
-63.0755
-62.2329
-60.7174
-60.5688
-60.2293
-60.7263
-60.9065
-60.0059
-58.5038
-58.5597
-60.4436
-62.3218
-63.4441
-64.8632
-64.7015
-65.2108
-64.9567
-64.5747
-65.0226
-63.2278
-61.9477
-61.4861
-60.2976
-59.6383
-60.0092
-59.1281
-58.554
-58.7224
-60.0756
-61.7575
-62.9047
-64.5985
-65.0148
-64.1041
-66.9168
-66.5428
-65.6607
-65.2448
-63.7199
-62.6954
-62.4193
-61.2924
-60.4724
-59.9954
-59.5639
-59.0459
-58.723
-59.639
-60.5603
-61.7709
-63.3108
-64.2688
-64.1042
-62.9342
-67.3412
-66.8426
-66.194
-65.0654
-63.7769
-62.6666
-61.9754
-61.2607
-60.6954
-60.089
-59.6316
-59.2694
-58.8666
-59.6425
-60.1076
-60.9428
-61.8935
-62.5604
-63.1665
-63.453
-61.3939
-67.377
-67.0173
-65.9155
-64.8365
-63.629
-62.5762
-61.7982
-61.2547
-60.7227
-60.2323
-59.834
-59.5284
-59.4682
-59.7431
-59.9351
-60.2368
-60.875
-61.6218
-61.6841
-61.6389
-61.2218
-52.8086
-52.8115
-52.9435
-52.874
-52.9279
-53.0837
-53.0017
-52.8798
-52.8819
-53.1702
-53.101
-53.0396
-52.8525
-52.9954
-53.2119
-53.1798
-53.1429
-53.0381
-52.9198
-53.131
-53.3817
-53.3556
-53.43
-53.3075
-53.217
-53.0813
-53.2618
-53.6461
-53.6229
-53.5806
-53.5595
-53.4776
-53.3101
-53.2176
-53.4791
-53.9269
-53.8711
-53.826
-53.7718
-53.6454
-53.5548
-53.4355
-53.5598
-53.6881
-54.1644
-54.157
-54.0646
-54.0382
-53.9525
-53.8474
-53.7112
-53.7139
-53.8444
-54.1093
-54.606
-54.5351
-54.4687
-54.4136
-54.2821
-54.1363
-54.0532
-54.0624
-54.2448
-54.4672
-54.7666
-55.1117
-55.0432
-54.9191
-54.8584
-54.6047
-54.5769
-54.4557
-54.4556
-54.4542
-54.6806
-54.9496
-55.5874
-55.801
-55.713
-55.516
-55.3615
-55.2384
-55.1795
-54.6966
-54.8213
-54.8529
-55.013
-55.3187
-55.7405
-56.5733
-56.9051
-56.5663
-56.3032
-56.1075
-55.8356
-55.6963
-55.2051
-55.2742
-55.2187
-55.4288
-55.71
-56.166
-56.8952
-58.7833
-57.7148
-57.4323
-57.1465
-56.9137
-56.6932
-56.4228
-56.1383
-55.9042
-55.8964
-56.0411
-56.1684
-56.5786
-57.5928
-58.4332
-60.4792
-59.5326
-58.8131
-58.8233
-58.3996
-57.902
-57.3591
-56.8846
-56.9782
-56.7028
-57.0373
-57.0315
-56.921
-57.097
-59.2996
-61.1991
-62.3387
-61.2858
-60.8171
-60.2803
-59.7652
-59.2179
-58.3476
-58.2374
-57.8842
-58.2792
-57.8616
-58.5945
-57.5594
-56.9338
-59.6357
-61.4791
-63.4241
-63.5513
-63.1988
-62.2949
-61.7001
-61.3772
-60.5975
-59.4856
-58.8293
-58.5076
-58.8846
-59.459
-59.166
-58.0312
-57.8031
-59.7602
-61.4836
-63.1142
-64.6829
-64.9496
-64.516
-63.9032
-62.7728
-63.0154
-61.6402
-61.0157
-60.5943
-60.1889
-59.7709
-60.6879
-59.9384
-58.7471
-58.3406
-60.0313
-62.1339
-63.3788
-64.7365
-65.339
-64.901
-65.2673
-64.9764
-64.5683
-64.9832
-63.3072
-61.9476
-61.7296
-60.4013
-59.5384
-59.9847
-59.1608
-58.6501
-58.6002
-59.6143
-61.3061
-62.5899
-64.43
-65.0799
-64.6124
-63.9586
-66.8219
-66.1693
-65.5499
-65.2289
-63.8278
-62.6908
-62.4078
-61.346
-60.5351
-60.0247
-59.6325
-59.0827
-58.6212
-59.483
-60.2984
-61.649
-63.2592
-64.3288
-64.2422
-63.4695
-63.3643
-67.2627
-66.7869
-66.1602
-65.034
-63.8809
-62.6432
-61.9963
-61.2971
-60.7184
-60.1363
-59.6492
-59.2809
-58.845
-59.6073
-59.9936
-60.8993
-61.8093
-62.5833
-63.2682
-63.5308
-62.7447
-61.2065
-67.3527
-66.9909
-65.8874
-64.8165
-63.6256
-62.6026
-61.8059
-61.2718
-60.7407
-60.2475
-59.849
-59.5366
-59.4517
-59.7273
-59.8938
-60.1954
-60.8588
-61.6012
-61.7273
-61.7342
-61.2123
-61.4932
-52.7683
-52.8069
-52.9068
-52.8863
-52.8266
-53.0546
-52.9161
-52.7416
-52.8477
-53.1443
-53.1314
-52.9605
-52.8123
-52.88
-53.1806
-53.1754
-53.0131
-52.9328
-52.7457
-52.9119
-53.2891
-53.2364
-53.1784
-53.1029
-53.0114
-52.9134
-53.0626
-53.4461
-53.4418
-53.4117
-53.3639
-53.221
-53.1696
-52.9957
-53.2117
-53.7567
-53.6919
-53.6706
-53.5284
-53.5306
-53.4078
-53.286
-53.2118
-53.4793
-53.9483
-53.8948
-53.8423
-53.7508
-53.714
-53.5349
-53.464
-53.477
-53.5351
-53.7165
-54.215
-54.1887
-54.12
-54.0288
-54.0163
-53.869
-53.7991
-53.7547
-53.7504
-53.9481
-54.293
-54.6675
-54.6121
-54.5122
-54.4344
-54.3168
-54.1617
-54.1293
-54.096
-54.1229
-54.363
-54.2746
-55.2223
-55.2382
-55.0934
-55.0051
-54.8705
-54.5804
-54.6242
-54.5095
-54.469
-54.4507
-54.5935
-54.776
-55.0692
-55.8991
-55.9604
-55.7177
-55.5494
-55.3931
-55.2585
-55.1273
-54.9275
-54.7989
-54.7513
-55.0003
-55.2293
-55.7019
-55.9447
-57.2477
-56.9681
-56.6372
-56.1736
-56.1436
-55.8951
-55.7227
-55.5928
-55.295
-55.2048
-55.2975
-55.6789
-55.9286
-56.5607
-57.6193
-58.9186
-57.8259
-57.5073
-57.3791
-56.9585
-56.812
-56.4773
-56.2071
-55.9716
-55.7801
-56.0237
-56.1459
-56.3649
-57.2183
-58.6032
-59.4392
-61.9279
-59.3723
-59.0157
-58.7997
-58.5253
-57.945
-57.2821
-56.9748
-56.6689
-56.901
-56.8271
-57.0143
-57.0102
-57.1787
-58.7359
-60.4799
-61.9142
-63.5751
-61.4761
-60.9455
-60.2953
-59.798
-59.1915
-58.5823
-58.1656
-57.9576
-58.2039
-57.5875
-58.2252
-57.7116
-57.3844
-59.0114
-60.9312
-62.8381
-63.7456
-64.7425
-63.0853
-62.4211
-61.8287
-61.4087
-60.6634
-59.5211
-58.9014
-58.6697
-59.3851
-59.1973
-59.5442
-58.3928
-57.7103
-59.2932
-61.1103
-62.8005
-64.5316
-64.7294
-65.289
-64.5494
-63.9891
-62.8282
-63.0189
-61.92
-60.6013
-60.6521
-60.2023
-58.8641
-60.1683
-59.7794
-59.0034
-58.2481
-59.593
-61.8614
-63.2835
-64.5976
-65.2322
-64.7365
-64.6544
-65.1093
-65.0558
-64.5485
-64.9471
-63.4315
-61.9392
-61.9621
-60.5727
-59.6874
-59.8983
-59.2661
-58.7278
-58.4358
-59.2265
-60.8001
-62.3053
-64.199
-65.0568
-64.6798
-64.3197
-63.295
-66.6314
-66.1652
-65.6011
-65.1652
-63.9778
-62.6745
-62.3432
-61.3998
-60.6104
-60.0596
-59.6406
-59.1299
-58.5205
-59.234
-60.0251
-61.4669
-63.22
-64.3819
-64.3776
-63.6451
-63.0156
-62.6372
-67.2151
-66.7184
-66.1104
-65.0073
-63.981
-62.644
-62.018
-61.3358
-60.741
-60.1876
-59.6723
-59.2964
-58.8372
-59.5433
-59.8837
-60.8526
-61.7561
-62.6158
-63.3341
-63.6165
-62.8438
-62.5109
-61.4416
-67.3286
-66.9662
-65.8636
-64.7991
-63.6225
-62.5806
-61.8251
-61.2894
-60.7573
-60.264
-59.8647
-59.5429
-59.4378
-59.7165
-59.8604
-60.1588
-60.8192
-61.5362
-61.7712
-61.7047
-61.2527
-61.5383
-61.4035
-52.6584
-52.7546
-52.8623
-52.7624
-52.7968
-52.9716
-52.9207
-52.6428
-52.7527
-53.1225
-53.0188
-52.7989
-52.6856
-52.757
-53.1998
-53.1426
-52.9972
-52.8173
-52.6858
-52.6925
-53.3054
-53.2163
-53.0602
-52.9946
-52.8542
-52.6985
-52.8526
-53.3412
-53.3106
-53.2304
-53.2242
-53.045
-52.9434
-52.8169
-52.9757
-53.5057
-53.5156
-53.4503
-53.3586
-53.2974
-53.19
-53.0794
-52.9576
-53.2709
-53.7337
-53.6995
-53.7358
-53.5778
-53.505
-53.4388
-53.3362
-53.2513
-53.2251
-53.5518
-54.0032
-53.9205
-53.9105
-53.8193
-53.7496
-53.7149
-53.588
-53.4754
-53.4398
-53.5059
-53.9252
-54.2565
-54.2483
-54.1677
-54.0423
-54.0127
-53.963
-53.8398
-53.8139
-53.8108
-53.8202
-53.8572
-54.7023
-54.67
-54.7021
-54.5066
-54.4389
-54.3221
-54.2363
-54.1779
-54.0992
-54.1143
-54.1253
-54.2165
-54.3571
-55.4427
-55.3197
-55.1486
-54.9889
-54.9544
-54.7734
-54.499
-54.6044
-54.3785
-54.4679
-54.5407
-54.7551
-54.9904
-55.3058
-56.2954
-55.9628
-55.8408
-55.6879
-55.4551
-55.2869
-55.105
-54.9622
-54.7931
-54.7673
-54.9051
-55.2091
-55.4738
-55.7498
-56.4722
-57.8273
-56.8099
-56.7222
-56.3728
-56.2946
-55.9502
-55.7925
-55.594
-55.41
-55.1879
-55.3214
-55.575
-55.7961
-56.2351
-57.3516
-57.906
-60.0559
-57.9533
-57.7077
-57.5
-57.1002
-56.7436
-56.4997
-56.2882
-55.948
-55.7895
-55.9301
-56.2273
-56.3244
-57.0176
-57.8546
-58.9688
-59.6522
-62.3624
-59.5675
-59.1161
-58.6629
-58.4645
-57.9942
-57.2644
-56.9675
-56.5166
-56.8124
-56.908
-57.0956
-57.0655
-57.114
-58.126
-59.7979
-61.3658
-61.7376
-63.763
-61.4419
-61.0148
-60.4628
-59.8122
-59.2298
-58.4204
-58.2433
-57.9684
-58.2097
-57.7618
-58.0784
-57.9655
-57.4185
-58.76
-60.4246
-62.4043
-63.5355
-63.3308
-64.6397
-62.9348
-62.5115
-61.9175
-61.6273
-60.6855
-59.6185
-58.9755
-58.774
-58.8489
-59.2604
-59.4215
-58.602
-57.6675
-58.6774
-60.5933
-62.5522
-64.4088
-64.6743
-63.3552
-64.8316
-64.6393
-64.1287
-62.9565
-63.0325
-62.1221
-60.3528
-60.7771
-60.2796
-58.7388
-59.48
-59.593
-59.2682
-58.2076
-59.1468
-61.4144
-63.1549
-64.475
-65.1145
-64.8048
-64.0212
-64.2502
-65.2491
-65.1231
-64.5434
-64.8863
-63.5515
-61.9414
-62.0393
-60.8145
-59.9169
-59.8262
-59.4079
-58.7917
-58.332
-58.9682
-60.4816
-62.0775
-63.9435
-65.0167
-64.7077
-64.3511
-63.805
-62.9091
-66.692
-66.1398
-65.6789
-65.0805
-64.1193
-62.6184
-62.3033
-61.4499
-60.6773
-60.1211
-59.655
-59.1704
-58.4669
-59.0068
-59.775
-61.243
-63.1467
-64.4226
-64.4562
-63.7897
-63.1249
-63.0535
-62.3897
-67.1569
-66.6721
-66.0751
-64.9894
-64.0748
-62.6647
-62.0396
-61.3776
-60.7648
-60.2373
-59.6985
-59.315
-58.8366
-59.4624
-59.7877
-60.773
-61.6838
-62.633
-63.3935
-63.7195
-62.9376
-62.6291
-62.4996
-61.3614
-67.3028
-66.9374
-65.8411
-64.7838
-63.6342
-62.5682
-61.8487
-61.306
-60.7748
-60.2813
-59.8799
-59.5508
-59.4239
-59.7093
-59.8327
-60.1125
-60.7711
-61.554
-61.8273
-61.6411
-61.4117
-61.5741
-61.454
-61.0539
-52.3662
-52.5958
-52.7189
-52.674
-52.7461
-52.9483
-52.8747
-52.5749
-52.6616
-53.1114
-53.1083
-52.7774
-52.5659
-52.6378
-53.1562
-53.1614
-52.9234
-52.6325
-52.5421
-52.6136
-53.3135
-53.1867
-53.0352
-52.8584
-52.705
-52.5044
-52.6707
-53.2763
-53.2345
-53.1665
-53.0182
-52.8636
-52.7282
-52.6028
-52.7883
-53.3477
-53.3696
-53.2663
-53.2101
-53.1243
-52.9346
-52.8333
-52.7082
-52.9365
-53.5406
-53.5578
-53.4883
-53.3807
-53.3027
-53.2398
-53.1599
-53.0107
-52.942
-53.1886
-53.7768
-53.7391
-53.7027
-53.6221
-53.5286
-53.5193
-53.3678
-53.2658
-53.2152
-53.2114
-53.4889
-54.0221
-54.0042
-53.9974
-53.8745
-53.7661
-53.6983
-53.629
-53.5382
-53.4676
-53.5324
-53.4158
-53.8029
-54.3276
-54.2678
-54.2638
-54.1251
-54.0068
-53.9582
-53.8746
-53.8437
-53.8118
-53.8604
-54.002
-53.9767
-54.7431
-54.7923
-54.7695
-54.6136
-54.4129
-54.3783
-54.2685
-54.1816
-54.1291
-54.0926
-54.1437
-54.2498
-54.1692
-54.6671
-55.4933
-55.3708
-55.2329
-55.1138
-55.0431
-54.8499
-54.6644
-54.377
-54.4649
-54.3932
-54.5453
-54.6675
-54.8478
-55.2009
-55.3603
-56.5314
-55.9818
-55.9189
-55.7992
-55.6815
-55.364
-55.1872
-54.9401
-54.8707
-54.7881
-54.8329
-55.1207
-55.2713
-55.8094
-55.968
-56.4638
-58.4518
-56.9365
-56.7088
-56.5348
-56.3422
-56.0329
-55.7502
-55.6451
-55.3989
-55.235
-55.3098
-55.4965
-55.7851
-56.2427
-56.7461
-57.6489
-57.9116
-60.1519
-58.1228
-57.8219
-57.5848
-57.2563
-56.7905
-56.3931
-56.3423
-56.0057
-55.7907
-55.8924
-56.1175
-56.2757
-56.7661
-57.4843
-58.4352
-59.1769
-59.3806
-61.8413
-59.5375
-59.2757
-58.7246
-58.4721
-57.9524
-57.6296
-57.1781
-56.7294
-56.6143
-56.9898
-57.055
-56.8988
-57.0374
-57.6204
-59.3274
-60.7951
-61.4769
-60.8248
-63.3926
-61.6559
-61.0532
-60.5642
-59.9389
-59.3637
-58.5511
-58.1908
-57.9763
-58.6075
-57.8723
-57.7827
-58.1264
-57.4977
-58.3341
-59.9636
-61.854
-63.2584
-62.9925
-61.9543
-63.1954
-63.206
-62.7281
-62.0469
-61.6517
-60.9177
-59.7176
-59.1205
-58.9807
-57.6546
-58.9138
-59.442
-58.8546
-57.6708
-58.5641
-59.8918
-62.1834
-64.0334
-64.6453
-63.5027
-62.7356
-63.814
-64.7226
-64.3859
-63.1296
-63.0201
-62.3087
-60.5391
-60.6607
-60.2333
-59.1971
-58.762
-59.3384
-59.426
-58.2203
-58.7426
-60.7012
-62.7877
-64.4443
-65.0368
-64.8541
-64.1706
-62.9287
-63.5805
-65.3341
-65.1967
-64.6213
-64.8408
-63.7059
-61.9215
-62.0485
-61.0754
-60.0951
-59.863
-59.56
-58.8719
-58.2876
-58.7204
-60.0675
-61.9385
-63.7028
-64.9746
-64.6992
-64.3208
-63.969
-63.8527
-63.0021
-66.6328
-66.188
-65.7106
-65.0083
-64.2376
-62.5564
-62.2767
-61.5083
-60.7345
-60.1785
-59.649
-59.2274
-58.4611
-58.7935
-59.5868
-61.0177
-62.9645
-64.4106
-64.526
-64.0426
-63.2306
-63.1207
-62.9569
-62.3491
-67.0783
-66.635
-66.0274
-64.9749
-64.1567
-62.6927
-62.0602
-61.4096
-60.7904
-60.2973
-59.7308
-59.3329
-58.8448
-59.3816
-59.7136
-60.6944
-61.5875
-62.6695
-63.4529
-63.7869
-63.0292
-62.7319
-62.6279
-61.6771
-61.0065
-67.2765
-66.8989
-65.8175
-64.7621
-63.6483
-62.5877
-61.867
-61.3239
-60.7911
-60.2989
-59.8949
-59.5609
-59.4119
-59.7041
-59.8112
-60.0661
-60.7485
-61.5762
-61.8544
-61.673
-61.5913
-61.6091
-61.493
-61.1545
-61.2241
-52.4525
-52.4821
-52.3796
-52.5948
-52.7752
-52.7181
-52.5827
-52.5898
-53.192
-53.0561
-52.7319
-52.42
-52.519
-53.1794
-53.0983
-52.8566
-52.6822
-52.3422
-52.4975
-53.1374
-53.1742
-52.9537
-52.6818
-52.5179
-52.3674
-52.5305
-53.2437
-53.2804
-53.1695
-52.901
-52.7258
-52.6059
-52.4212
-52.6246
-53.3586
-53.2901
-53.1804
-53.0838
-52.9289
-52.7975
-52.695
-52.5427
-52.7103
-53.4449
-53.3981
-53.3424
-53.2448
-53.1512
-53.0399
-52.9128
-52.7879
-52.6829
-52.9383
-53.5384
-53.5816
-53.5332
-53.4375
-53.278
-53.2294
-53.0994
-53.067
-52.9576
-52.9135
-53.2077
-53.8018
-53.8062
-53.7345
-53.6574
-53.5632
-53.4991
-53.4379
-53.3103