/*--------------------------------*- C++ -*----------------------------------*\
  =========                 |
  \\      /  F ield         | OpenFOAM: The Open Source CFD Toolbox
   \\    /   O peration     | Website:  https://openfoam.org
    \\  /    A nd           | Version:  7
     \\/     M anipulation  |
\*---------------------------------------------------------------------------*/
FoamFile
{
    version     2.0;
    format      ascii;
    class       surfaceScalarField;
    location    "9";
    object      phi;
}
// * * * * * * * * * * * * * * * * * * * * * * * * * * * * * * * * * * * * * //

dimensions      [0 3 -1 0 0 0 0];

internalField   nonuniform List<scalar> 
54006
(
-2.42942e-05
1.6302e-05
9.98699e-06
-6.2606e-05
-4.75089e-05
0.00193879
-0.00189648
-0.000121197
-2.27494e-05
-6.2269e-05
-2.69415e-05
3.96108e-05
-6.95766e-05
-1.37457e-05
-0.00092008
0.000943654
-7.24335e-05
-8.82399e-05
0.00507483
-0.0049645
-0.000242724
-4.52939e-05
-0.00011753
-6.18796e-05
-0.00184569
-0.000138002
2.27083e-05
0.000981613
-0.000989611
-0.000149652
-2.16176e-05
-7.21328e-05
-2.68399e-05
6.97267e-05
-7.02647e-05
-8.26043e-06
0.000962854
-8.05183e-05
-7.91985e-05
-0.00175727
0.0018472
-8.31589e-05
-2.84314e-05
0.00591439
-0.00576217
-0.00039475
-0.000109304
-0.000206662
-0.000127648
-0.00481474
-0.000292004
3.62702e-05
0.00375639
-0.00384027
-0.000172403
2.47792e-05
-0.000142161
-7.13596e-05
-0.00178776
-0.000143799
2.66441e-05
-0.000987258
-0.00017526
-9.00892e-05
0.000141808
-0.000113388
-0.000167181
-8.88593e-05
-8.19908e-05
-2.66644e-05
0.000100322
-7.12025e-05
-4.75465e-06
0.000978818
-8.14748e-05
-7.84418e-05
0.00193707
-9.19468e-05
-0.000101253
-0.0019821
0.00207712
-7.6924e-05
0.000142057
0.00595248
-0.00588624
-0.000262685
6.0271e-05
-0.000389525
-9.64799e-05
-0.00560812
-0.000390209
0.000219914
0.00574808
-0.00591107
-0.000415408
3.85895e-05
-0.000160939
-0.000154295
-0.00469628
-0.000321111
8.32103e-05
-0.00396744
-0.000221398
-9.68979e-05
0.000649111
-0.000687806
-0.000126899
-0.000116415
-0.000156734
-4.54133e-05
-0.00175028
-0.000151257
1.1047e-05
-0.000962027
-0.000184831
-7.71411e-05
-9.21374e-05
-0.00019781
-0.000145733
-0.00115813
0.00119678
-0.000161352
-0.000113758
-7.55032e-05
-2.77868e-05
0.000132766
-7.2271e-05
-1.67032e-07
0.000990058
-8.22749e-05
-6.46185e-05
0.00201249
-9.22823e-05
-9.67326e-05
0.00216681
-8.48985e-05
-0.000164056
-0.00130454
0.0014491
-5.74295e-05
4.91964e-05
0.00640239
-0.00616344
0.000162366
0.000165459
-0.000296713
4.40897e-06
-0.00585669
-0.000241779
0.000340064
0.00614825
-0.00631178
-0.000219298
0.000148063
-0.000409064
-0.000124858
-0.00545702
-0.000429183
0.000384827
-0.00611812
-0.000484772
0.000109274
0.00577135
-0.00586454
-0.000528396
-8.91357e-05
-0.000107018
-8.99611e-05
-0.00452743
-0.000393557
1.57711e-05
-0.00404085
-0.000252431
2.47983e-05
-0.000844155
-0.000166988
-0.000145614
-0.00143024
0.00149254
-0.000189318
-0.000183095
-0.000154686
-6.30298e-05
-0.0016941
-0.000159725
4.91926e-05
-0.000963203
-0.000199441
-5.55695e-05
-7.88866e-05
-0.000207131
-0.000119631
0.00121012
-0.000188258
-0.000263649
-0.000802022
0.000863495
-0.000123232
-0.000175027
-5.76196e-05
-2.91007e-05
0.000167325
-7.3357e-05
8.94341e-06
0.000992321
-8.34773e-05
-4.97876e-05
0.00207191
-9.19075e-05
-8.45535e-05
0.00224372
-8.46433e-05
-0.0001666
0.00159522
-6.4424e-05
-0.00018305
-0.000256408
0.000437818
-5.57886e-05
-0.000128126
0.00577399
-0.005545
0.00119733
-5.05745e-05
0.000110068
-9.32775e-05
-0.00593702
0.000172335
0.000122644
0.00738173
-0.00716557
0.000163625
0.000335617
-0.000180845
-2.97467e-05
-0.00592492
-0.00032115
0.000479033
-0.00647386
-0.000173908
0.000278027
0.00720686
-0.0075369
-5.80087e-05
0.000138652
-0.000280623
-0.000135018
-0.0052579
-0.000385069
0.000224609
-0.00622424
-0.000531897
0.000205389
-0.00584637
-0.000683531
-0.000153554
0.00476476
-0.00507919
-0.000206021
-0.000299348
-0.000159743
0.000108929
-0.00460871
-0.000429753
8.58341e-05
-0.00415418
-0.000316871
0.000138393
-0.00110069
-0.000189857
-4.19985e-05
0.00148102
-0.000233099
-0.000459777
-0.000763089
0.000883711
-0.000113812
-0.000296065
-0.000121665
-5.82723e-05
-0.00164032
-0.000167568
5.88679e-05
-0.000959525
-0.000213326
-1.05849e-05
-9.55676e-05
-0.000221962
-8.64729e-05
0.00120104
-0.000196131
-0.000256642
0.000908245
-0.000142966
-0.000306271
-0.000230629
0.000338757
-0.000108139
-0.000187624
-5.59194e-05
-2.688e-05
0.000200537
-7.45526e-05
1.76495e-05
0.000985991
-8.46764e-05
-3.60533e-05
0.00211719
-9.26989e-05
-7.20983e-05
0.00230851
-8.45988e-05
-0.000160367
0.00173514
-6.41928e-05
-0.000195257
0.000630265
-6.16134e-05
-0.000145669
0.000757322
-0.000607546
-5.98955e-05
2.6721e-05
0.00646187
-0.00659847
0.00195081
-2.12415e-05
0.00109761
-0.000137652
-0.00556828
0.00142127
-7.57582e-05
0.00624325
-0.00596151
0.00111399
0.000157524
0.000153583
-0.000102039
-0.00578694
0.000230377
0.000162515
-0.0068933
0.000216581
8.69885e-05
0.00752618
-0.00733293
0.000161417
0.000276488
7.65738e-07
-0.000115997
-0.00591634
-0.000279741
0.000306441
-0.00665589
-0.000220955
0.000164336
-0.00756197
-0.000107785
-0.000128154
0.0074909
-0.00744038
-0.000133924
-0.000315333
4.99541e-05
0.000175499
-0.00530409
-0.000334347
0.000217675
-0.00628397
-0.000457179
0.000312136
-0.00589592
-0.000656088
4.14e-05
-0.00550801
-0.00033811
-9.00551e-06
0.00176437
-0.00253683
0.000115676
-0.000461235
-0.000111112
-0.000183513
-0.00437353
-0.000470768
6.034e-05
-0.00422694
-0.000358463
0.000161695
-0.00135499
-0.000234849
0.000104466
0.00136625
-0.00026603
-0.000470592
0.00099538
-0.000130818
-0.000385068
8.54643e-05
1.22712e-06
-0.000121706
-0.00032676
-0.000107943
-6.07588e-05
-0.00157652
-0.000176972
7.06215e-05
-0.000954827
-0.000225238
8.49402e-06
-0.000118674
-0.000234767
-6.01246e-05
0.00117239
-0.000205285
-0.000246591
0.00095781
-0.000159472
-0.000322171
0.000439995
-0.000117291
-0.000281792
0.000683543
-0.000521508
-0.00013405
-0.000150034
-5.93711e-05
-2.56874e-05
0.000233417
-7.58269e-05
2.61552e-05
0.000971035
-8.57523e-05
-2.45032e-05
0.00215042
-9.34046e-05
-6.08628e-05
0.00236258
-8.59029e-05
-0.000153969
0.00186824
-6.37307e-05
-0.000191706
0.000819632
-6.18539e-05
-0.000158549
-0.000444943
-6.56665e-05
-0.000128035
0.000946556
-0.000825604
-5.28124e-05
0.000329344
0.00717583
-0.00733755
0.00211769
0.000175591
0.00187182
9.90671e-05
-0.0066741
0.00201416
0.000138783
0.00642367
-0.00653622
0.00184882
-7.23653e-05
0.000970018
-3.8369e-05
-0.00567519
0.00143526
0.000110946
-0.00578882
0.00130015
3.00924e-05
0.00679694
-0.00656103
0.000934979
0.000152384
0.000131976
-0.000125021
-0.00574447
0.000356528
4.95128e-05
-0.0067317
0.000325707
0.000212664
-0.0073972
0.000232526
5.63703e-05
0.007426
-0.00754238
9.32762e-05
9.88189e-05
-9.04086e-05
-0.000176432
-0.00557951
-0.000243452
0.000130875
-0.00660126
-0.000247573
5.71198e-05
-0.00727358
-0.000254334
-7.68467e-05
-0.00725632
-0.000173601
0.00083221
0.00613988
-0.00680143
-0.000313583
-1.03867e-05
7.96782e-05
-0.000326765
-0.00513329
-0.000221959
0.000173913
-0.00635928
-0.000372614
0.000343928
-0.00590935
-0.000625981
0.000241886
-0.00578647
-0.000515045
-5.55684e-05
-0.00351472
0.000224755
-0.000338812
0.000237475
-0.000149347
-1.87068e-05
-0.000446423
-0.000124649
8.07858e-05
-0.00439775
-0.000509374
4.94855e-05
-0.00426553
-0.00041104
0.000127508
-0.00154684
-0.000285632
0.000257118
0.00111415
-0.000299988
-0.00028232
0.000995589
-0.00023051
-0.000312272
-4.75438e-05
-9.19464e-05
-0.00040919
0.00088645
-0.000703949
-0.000176809
-0.000303403
-0.00012381
-8.26125e-05
-0.00149072
-0.000183166
8.18389e-05
-0.000954587
-0.000232896
2.8814e-05
-0.000150774
-0.000246456
-4.13835e-05
0.00113586
-0.000217716
-0.000233426
0.00100718
-0.000175198
-0.000353196
0.000567809
-0.000125796
-0.000302119
-0.000340632
-0.000154597
-0.000290401
0.000931031
-0.000777281
-0.000125435
-0.000125236
-5.35352e-05
-2.48278e-05
0.000266211
-7.70514e-05
3.22576e-05
0.000949785
-8.68343e-05
-1.70923e-05
0.00217527
-9.35102e-05
-4.86919e-05
0.00240415
-8.62859e-05
-0.00014025
0.00198822
-6.56291e-05
-0.000187566
0.00100524
-6.17755e-05
-0.000155778
-0.000284617
-6.64022e-05
-0.00014471
-0.000688747
-5.78139e-05
-8.98271e-05
0.00131861
-0.00123032
-5.12743e-05
0.000505447
0.0065978
-0.00674657
0.0022439
0.00048696
0.00214027
0.000246743
-0.00733459
0.00235319
0.000445475
0.00713443
-0.00742874
0.00210531
0.000131315
0.00179795
0.000138762
-0.00683481
0.00206988
0.00041471
-0.00664606
0.00182023
0.000336527
0.00656455
-0.00668782
0.00166566
6.65841e-05
0.000793003
-7.40534e-06
-0.00588459
0.00155723
-0.0001274
-0.00566463
0.00148797
0.000474619
-0.00657732
0.00105449
0.000245094
0.00709112
-0.00690918
0.000564315
0.000291508
0.000102681
-0.000212809
-0.00570443
0.000572609
-7.09416e-05
-0.00660755
0.0004342
-3.17493e-05
-0.00738392
0.00040129
3.47715e-05
-0.00756682
0.000145344
0.00057039
0.00792919
-0.00777388
0.000199786
0.000685734
-0.000385876
-0.000267944
-0.00568552
-0.000160567
4.00936e-05
-0.0063167
-0.000394186
0.000104064
-0.00692938
-0.00035191
-1.97625e-05
-0.00702345
-0.000225553
0.000725175
-0.00752881
-0.00022696
4.86332e-05
0.00556057
-0.00580445
-0.000457148
-0.000529643
-5.55694e-05
6.73753e-05
-0.00500456
-0.000276426
0.000126135
-0.00630831
-0.000349584
0.000451177
-0.00596116
-0.000644481
0.000422736
-0.00577898
-0.00079909
4.43648e-05
-0.00455294
0.000196489
-0.000148816
-0.000245797
0.00015775
-0.000668378
0.000890198
-0.000833829
0.000184112
-0.000472658
-0.000133046
-6.59262e-05
-0.00429522
-0.000523827
1.31615e-05
-0.00424647
-0.000459757
0.000132251
-0.00172678
-0.000334534
0.000225019
0.000900209
-0.000338094
4.35247e-05
0.000681658
-0.000263008
-0.000270833
-0.000203422
-0.000156994
-0.000388881
-0.000532069
-0.000177065
-0.000430692
0.000950356
-0.000823158
-0.000163715
-0.000298182
-0.000120692
-6.52247e-05
-0.00142278
-0.000187678
8.74893e-05
-0.000958126
-0.000234859
3.81916e-05
-0.000182464
-0.000256489
-2.82363e-05
0.00109646
-0.000227505
-0.000188588
0.00101916
-0.000181359
-0.000329241
0.000676435
-0.00014215
-0.000284181
-0.000179014
-0.000159011
-0.000313003
-0.000622785
-0.000140799
-0.000193325
0.00153517
-0.00145022
-0.000106887
-8.47998e-05
-5.25849e-05
-2.14598e-05
0.000296489
-7.82336e-05
3.68395e-05
0.000923855
-8.79613e-05
-8.17285e-06
0.00218996
-9.33534e-05
-4.32528e-05
0.00244033
-8.64372e-05
-0.000127155
0.002096
-6.6912e-05
-0.000180068
0.00118206
-6.23754e-05
-0.000151142
-0.000128193
-6.70576e-05
-0.000140995
-0.000555167
-5.89876e-05
-0.000106919
-0.00112502
-5.61927e-05
-7.26654e-05
0.00133836
-0.00125826
-5.87069e-05
0.000500511
0.00622481
-0.00622014
0.00244633
0.000562321
0.00223691
0.000339019
-0.00681316
0.00248265
0.000508255
0.00664027
-0.00671638
0.00225723
0.000445114
0.00213302
0.000122138
-0.00728121
0.00237837
0.000335483
-0.00730597
0.00230964
0.000513578
0.00692875
-0.00710444
0.00210395
0.000206787
0.001675
0.000143218
-0.00687355
0.00199279
1.64698e-05
-0.00687736
0.00215732
0.000632691
-0.00673262
0.00170696
0.000435748
0.00670063
-0.00677094
0.00154532
0.000306669
0.000638841
-0.00019732
-0.00601637
0.00167255
-2.45938e-05
-0.00576
0.00160625
-6.61377e-05
-0.00638459
0.00132962
0.000360867
-0.0067887
0.000607912
0.00044454
0.00767953
-0.00741448
0.00042512
0.000357735
0.00018741
-0.000193099
-0.00570374
0.000734491
-0.000207005
-0.00629303
0.000505183
-0.000114001
-0.0071918
0.000460149
-2.36342e-05
-0.00744181
0.000280158
0.000521187
-0.00771581
0.000291265
0.000499737
0.00835733
-0.008866
0.000257349
5.67446e-05
-0.000400867
-0.000333508
-0.00532261
-8.4411e-05
-3.88449e-05
-0.00610054
-0.00021175
0.000376357
-0.00671908
-0.000529664
-0.000123027
-0.00657656
-0.000253045
0.000382321
-0.00807253
-1.97962e-05
0.000239798
-0.00599788
-0.00042214
-0.000132372
0.00333845
-0.00400228
-0.000329321
-0.000750318
0.000147833
-0.000138519
-0.00492103
-0.000228037
3.6011e-05
-0.00631919
-0.000288391
0.000258479
-0.00586704
-0.000569926
0.000405005
-0.00577324
-0.000830213
0.000390056
-0.00554969
-0.000148872
0.000539911
-0.00117847
0.00031842
-0.000650883
-0.000651182
0.000237104
-0.000569587
0.000877619
-0.000626217
7.16058e-05
-0.000466181
-0.000135296
-0.000184257
-0.00406234
-0.000554779
-1.6413e-05
-0.00415252
-0.000513876
0.000180055
-0.0019455
-0.000382898
0.000239799
0.000656425
-0.000358785
0.000173132
0.000235412
-0.000253567
-0.000318643
-0.000296641
-0.000180387
-0.000336456
-0.000471428
-0.000165359
-0.000437743
-0.000698679
-0.000176804
-0.000330123
0.00132779
-0.00119567
-0.000159042
-0.000199261
-0.000115158
-5.83718e-05
-0.00135883
-0.000192017
9.86582e-05
-0.000972691
-0.000234932
5.2574e-05
-0.000214711
-0.000263359
-1.29199e-05
0.0010471
-0.00023746
-0.000160988
0.00101029
-0.000184807
-0.000284878
0.000746191
-0.000146304
-0.000266303
-3.63782e-05
-0.000169625
-0.000298984
-0.000476276
-0.000147531
-0.000230917
-0.00135731
-0.000109718
-0.000133298
0.00186566
-0.00177938
-0.000132533
-6.35762e-05
-5.96349e-05
-1.7563e-05
0.000323775
-7.9426e-05
4.0447e-05
0.000894333
-8.91586e-05
-1.52161e-07
0.00219589
-9.37388e-05
-3.61782e-05
0.00247042
-8.72658e-05
-0.000118952
0.00219545
-6.69356e-05
-0.000168704
0.00134729
-6.3446e-05
-0.000145806
2.25636e-05
-6.73257e-05
-0.000135822
-0.000427158
-5.92452e-05
-0.000106166
-0.00102182
-5.60288e-05
-8.32064e-05
-0.00116691
-6.43423e-05
-2.6261e-05
0.000940672
-0.000905865
-6.72536e-05
0.000551371
0.00583668
-0.00584654
0.00267142
0.000457348
0.00242913
0.000389864
-0.00626731
0.00275337
0.000489904
0.00630662
-0.00624069
0.00239875
0.000517849
0.00225195
0.00015513
-0.00680745
0.00252007
0.000324534
-0.00671788
0.0024951
0.00053757
0.00667346
-0.0066323
0.00219208
0.000484482
0.00208607
3.56993e-05
-0.00714602
0.00235592
2.26577e-05
-0.00728592
0.00235214
0.000633119
-0.00714532
0.00235009
0.000705212
0.00669178
-0.00694328
0.00208599
0.00029665
0.00162157
-0.000135039
-0.00689992
0.00205436
0.000157288
-0.00703852
0.00197207
0.000173511
-0.00681964
0.00200468
0.000540779
-0.00684987
0.00160598
0.000461186
0.00707953
-0.00709019
0.00153933
0.000352271
0.000526863
-0.000268952
-0.0059214
0.00171864
-0.000147996
-0.00589763
0.00175117
3.8183e-05
-0.00631236
0.00138184
0.00016064
-0.00645532
0.000811969
0.000598895
-0.00725522
0.000370938
0.000623556
0.00782486
-0.00806642
0.000542859
0.000798896
0.000112745
-0.000452876
-0.00556236
0.000998623
-0.000299992
-0.00589531
0.000597919
-4.72383e-05
-0.00681143
0.000548405
-0.000236653
-0.00732973
0.000461686
0.000268859
-0.00759683
0.000274641
0.000657703
-0.00895697
-3.56646e-05
0.00046954
0.00602613
-0.0065999
0.000229206
-0.000184277
-0.000224653
-0.000438522
-0.00502456
-4.28246e-05
-3.95659e-05
-0.0059345
-0.000174872
-7.05832e-06
-0.00626505
-0.000400237
-1.94174e-05
-0.00635132
-0.000330481
0.000178207
-0.00812684
1.31157e-05
0.00108807
-0.00636258
-0.000203262
-2.25425e-05
-0.00457678
-0.00047598
-0.000475238
0.00280419
-0.00321155
-1.63071e-05
-0.000600398
5.65115e-05
-0.000354092
-0.00470846
-0.000265392
-8.69384e-05
-0.0062255
-0.0002512
0.000314161
-0.0058271
-0.000462441
0.000510509
-0.00595191
-0.000661966
0.000437459
-0.00637852
-0.000265714
0.000637186
-0.00257702
0.000293852
-0.000465854
-0.000382068
0.000178704
-0.000561661
-0.000406948
0.000141752
-0.000351929
0.00135581
-0.00106549
-0.000196904
-0.000401359
-0.000176719
2.31357e-05
-0.00402003
-0.000578393
-7.24845e-05
-0.00397184
-0.000564313
0.000111414
-0.0020796
-0.00043862
0.000245108
0.000400723
-0.000385223
0.000201546
-0.000240183
-0.000245724
-0.000380715
-0.00028724
-0.000167132
-0.000306146
-0.000367088
-0.000244884
-0.000390621
-0.000604606
-0.000167795
-0.000384818
-0.00107656
-0.000142013
-0.000192325
0.00195392
-0.00180378
-0.000250151
-9.91404e-05
-0.000141581
-4.18659e-05
-0.00130673
-0.000195668
0.000104095
-0.000993645
-0.000234711
6.57721e-05
-0.000246346
-0.000269222
-4.50474e-06
0.000999342
-0.000247278
-0.000138955
0.000981343
-0.000188505
-0.000258266
0.000799892
-0.000148947
-0.000243067
9.24328e-05
-0.000177854
-0.000281043
-0.000347822
-0.000152857
-0.00022424
-0.00128175
-0.000105009
-0.000163967
-0.00166895
-0.000139388
-2.10548e-06
0.00146736
-0.00144797
-0.000176075
-1.76356e-05
-6.78837e-05
-1.32515e-05
0.000347615
-8.06996e-05
4.24646e-05
0.000862788
-9.03456e-05
9.097e-06
0.00219191
-9.42783e-05
-2.90639e-05
0.00249302
-8.72711e-05
-0.000104854
0.00228062
-6.75803e-05
-0.000158926
0.00150317
-6.38823e-05
-0.000139875
0.00016648
-6.74871e-05
-0.000128171
-0.000307784
-5.85289e-05
-0.000110142
-0.00091533
-5.55878e-05
-8.99942e-05
-0.0010692
-6.37399e-05
-3.78508e-05
-0.0008588
-7.35562e-05
2.49314e-05
0.000768766
-0.000780795
-8.01557e-05
0.000435966
0.00534015
-0.00528677
0.00305666
0.000398525
0.00266727
0.000395469
-0.00581663
0.00296086
0.000429844
0.00595663
-0.00584634
0.00262118
0.00048171
0.00241722
8.89461e-05
-0.00623833
0.00277709
0.00043215
-0.00626178
0.00266684
0.000550174
0.00632713
-0.00629789
0.00235691
0.000589375
0.00218497
8.78873e-07
-0.00670305
0.00257375
5.37067e-05
-0.00674817
0.00251932
0.0006266
-0.00658052
0.00244984
0.000734659
0.00660178
-0.0065539
0.00211476
0.000488399
0.00207988
-0.000133517
-0.00710598
0.00235882
4.59888e-05
-0.00715188
0.00233317
0.000398652
-0.00730989
0.00229157
0.000666629
-0.00703122
0.00231217
0.000673588
0.00674972
-0.00683061
0.00195447
0.000439134
0.00159225
-0.000260576
-0.00685931
0.00207844
-6.74001e-07
-0.00724522
0.00211373
0.0002838
-0.00699414
0.00190096
0.000390192
-0.00679732
0.00172258
0.00062586
-0.00707767
0.00156649
0.000661811
0.00724115
-0.00735915
0.00161908
0.000489085
0.00064396
-0.000354851
-0.0058883
0.00174095
-0.000256784
-0.00603426
0.00181205
-7.0743e-05
-0.00614149
0.00160381
0.000187657
-0.00643755
0.000939756
0.00042092
-0.00703638
0.000441071
0.000672709
-0.00816438
0.000453888
0.000275534
0.0077803
-0.00781911
0.000775677
0.000378862
0.00014537
-0.000595418
-0.00527445
0.00103963
-0.000232565
-0.00552832
0.00082463
-0.000215319
-0.00657189
0.000566646
-0.000195507
-0.00702933
0.000424099
8.81859e-05
-0.00752368
0.000478556
0.000764255
-0.00856732
0.000208802
0.000750134
-0.00721761
-0.000190637
-3.407e-06
0.00531576
-0.00569353
0.000135151
-0.000477936
-4.07746e-05
-0.000435107
-0.00506763
6.12138e-05
-0.000250668
-0.00566652
-0.000147073
3.1219e-05
-0.00591012
-0.000246858
0.000198399
-0.00610598
-0.000333462
-1.00783e-06
-0.0080856
6.67499e-05
0.00136919
-0.00691713
-0.000164338
0.000268426
-0.00502846
-0.000485858
-0.000147536
-0.00391864
-0.000183016
-0.000384805
0.00253202
-0.00265607
0.00014062
-0.000420773
-0.000184431
-1.17857e-05
-0.0046786
-0.000276913
-0.000335777
-0.00593601
-0.000291592
0.00047348
-0.00604257
-0.000397797
0.00025941
-0.00595914
-0.000469513
0.000347539
-0.00696882
-0.000217654
0.000270719
-0.00363435
0.000140176
-0.000400896
-0.000270283
0.000276816
-0.000461681
-0.000283277
0.000126093
-0.00041166
-0.000753836
-0.000143064
-0.000351964
0.00144935
-0.00135884
-0.000127771
-0.000165643
-0.00027752
-2.61897e-05
-0.00391145
-0.000581006
-6.95546e-05
-0.00377119
-0.000605389
4.855e-05
-0.00213462
-0.000492071
0.000233265
0.00014063
-0.000416297
0.000236843
-0.000734104
-0.000267101
-0.000378479
-0.000237963
-0.000174787
-0.000273192
-0.000234585
-0.00026951
-0.000333885
-0.000578902
-0.000217746
-0.000351306
-0.000992275
-0.000125012
-0.000239092
-0.00163185
-0.000238822
5.00098e-05
0.0010331
-0.00102811
-0.000307257
3.23385e-05
-0.000189678
-7.53239e-05
-0.00121927
-0.000201508
9.0649e-05
-0.00100095
-0.000236551
7.43153e-05
-0.000271489
-0.000274786
3.57462e-06
0.000954497
-0.000257015
-0.000122066
0.000945358
-0.000194082
-0.000240667
0.000844679
-0.000151551
-0.000215776
0.000200983
-0.000181597
-0.000240368
-0.000261537
-0.000151942
-0.000228461
-0.00121576
-0.00010053
-0.000166286
-0.00156688
-0.000130782
-4.32122e-05
-0.0014045
-0.000177496
0.000190192
0.00131411
-0.00140643
-0.000249012
3.25831e-05
-8.00194e-05
-8.24438e-06
0.000367283
-8.1914e-05
4.48501e-05
0.000828709
-9.14709e-05
1.59495e-05
0.00217988
-9.4258e-05
-2.11603e-05
0.00250676
-8.68657e-05
-0.000100283
0.00236101
-6.73768e-05
-0.000151801
0.00165127
-6.38826e-05
-0.000134123
0.000304474
-6.77535e-05
-0.000123973
-0.000192476
-5.88224e-05
-0.000121214
-0.000798122
-5.45222e-05
-9.85689e-05
-0.000962876
-6.33446e-05
-4.19637e-05
-0.00080785
-7.27263e-05
1.83975e-05
-0.000783728
-8.90192e-05
6.941e-05
-0.000390933
0.000328792
-8.7425e-05
0.000208907
0.00532151
-0.00519074
0.00332004
0.00029976
0.00309737
0.000300087
-0.00520827
0.00334454
0.000324208
0.00541203
-0.00534427
0.00309454
0.000517305
0.00260775
0.000166518
-0.00584679
0.0029629
0.00048689
-0.00580469
0.00286447
0.000458663
0.00592662
-0.00585308
0.00263915
0.000602198
0.00233639
-5.51789e-05
-0.0062301
0.00278964
6.81913e-05
-0.00620122
0.00270204
0.000604555
-0.00622177
0.00261277
0.00063016
0.00613304
-0.00610186
0.00243022
0.000730096
0.00209466
-0.000119966
-0.00666329
0.00267587
-9.9441e-05
-0.0065977
0.00256872
0.000412078
-0.0065415
0.00246687
0.000772379
-0.00658599
0.00237618
0.000642073
0.00634709
-0.00630552
0.0021047
0.000469581
0.00195124
-0.00014904
-0.00715956
0.00237011
-2.71579e-05
-0.00716972
0.00240314
0.000208018
-0.00716891
0.00226797
0.00057347
-0.00722748
0.00230456
0.000766676
-0.00680798
0.00214873
0.000655991
0.00706338
-0.00699816
0.00189507
0.000451765
0.00163583
-0.000127428
-0.0070252
0.00205295
-0.000188228
-0.00730249
0.00206716
0.00014293
-0.00714718
0.0020531
0.000355108
-0.00685182
0.00178801
0.000419396
-0.00684718
0.00149361
0.000709315
-0.00747716
0.00164789
0.000207837
0.00728406
-0.0073018
0.00170451
0.00016503
0.000989767
-0.000565239
-0.00589762
0.0018426
-0.000188809
-0.00606502
0.00172796
-0.000159998
-0.00611229
0.00172752
0.000142961
-0.00632266
0.00115045
0.00021659
-0.00676693
0.000541907
0.000668723
-0.00797951
0.000351732
0.000539316
-0.00781751
0.000663106
0.000150695
0.0074847
-0.00787823
0.0010151
-8.65637e-05
0.000187383
-0.000375729
-0.0053522
0.00120395
-0.000490375
-0.00505096
0.00080198
-0.000118073
-0.00627017
0.0006722
-0.000213174
-0.00657558
0.000524465
-0.000246782
-0.00725334
0.000399535
0.000882892
-0.00821677
0.000614313
0.00105532
-0.00777403
-2.16685e-05
0.00050643
-0.00659867
6.05363e-05
-0.000200372
0.00576647
-0.00614541
0.000329662
-0.000369079
0.000110079
-0.000322312
-0.00479239
0.000131663
-0.000482475
-0.0055472
8.85907e-05
0.000529835
-0.00587288
-0.000240668
-0.000136913
-0.00593946
-1.70567e-05
-0.000173696
-0.00807752
0.00017969
0.00107742
-0.00764347
-1.3617e-05
0.000233113
-0.00522578
-0.000601036
-0.000171981
-0.00434434
-0.000349858
-0.00040168
-0.00299075
0.000141689
-0.000482996
0.00222956
-0.00200044
4.25335e-05
-0.000337303
-0.000168717
-0.000206422
-0.00458165
-0.000199803
-0.000244972
-0.00579944
-0.00023807
-1.7796e-05
-0.0059241
-0.000343714
0.00049138
-0.00619351
-0.00042154
0.000239924
-0.0070507
-0.000390713
5.53992e-05
-0.00434469
5.88136e-05
-0.000224571
-0.000388004
0.000209276
-9.99625e-05
-0.000477615
0.000237232
-0.000371528
-0.000480958
-0.000126563
-0.000403899
-0.00122478
-0.000112316
-2.11767e-05
0.00203414
-0.00195007
-0.00014066
0.000124606
-0.000346682
-0.000228093
-0.00364169
-0.000599639
-1.93812e-06
-0.0036524
-0.000607209
3.24154e-05
-0.00217012
-0.000527986
0.000160979
-5.98364e-05
-0.000449009
0.000190914
-0.00117146
-0.00029192
-0.000241247
-0.000309473
-0.00019501
-0.000238873
-0.000121119
-0.000265156
-0.000287068
-0.000580347
-0.000221366
-0.000330301
-0.00100266
-0.000105522
-0.000224773
-0.00148945
-0.000208925
-1.32238e-05
-0.000995586
-0.000301332
0.000450865
0.000859806
-0.00107715
-0.000350582
0.000191138
-0.000260785
-1.5827e-05
-0.00118606
-0.000204502
8.61328e-05
-0.00100501
-0.000238731
7.41264e-05
-0.000285505
-0.000280712
1.61739e-05
0.000909269
-0.000266893
-0.000110891
0.000896848
-0.000197897
-0.000227986
0.000885079
-0.000158297
-0.000194034
0.000294822
-0.000185478
-0.000215807
-0.00020182
-0.00014948
-0.000234384
-0.00115645
-9.80884e-05
-0.000202626
-0.00144001
-0.000123341
-7.54442e-05
-0.00133995
-0.000161852
0.000190676
-0.00150198
-0.000254228
0.000245344
0.000246479
-0.000385936
-0.000285489
6.80958e-05
-8.69024e-05
-1.91566e-06
0.00038149
-8.3021e-05
4.48841e-05
0.000794448
-9.2537e-05
2.02855e-05
0.00216249
-9.43695e-05
-1.30629e-05
0.00251415
-8.85768e-05
-9.9421e-05
0.00244047
-6.69074e-05
-0.000145122
0.00179305
-6.40367e-05
-0.000128062
0.000436784
-6.81309e-05
-0.00012036
-8.09092e-05
-5.89602e-05
-0.000123908
-0.000678233
-5.48043e-05
-0.000101525
-0.000852795
-6.30776e-05
-4.56041e-05
-0.000753794
-7.17959e-05
6.77726e-06
-0.000773551
-8.9681e-05
7.69589e-05
0.000260217
-9.74022e-05
4.20582e-05
-0.00180282
0.00175644
-8.31096e-05
7.14617e-05
0.00504652
-0.00506908
0.00358555
0.00023811
0.00329351
8.55906e-05
-0.00510245
0.00367511
0.000204049
0.00519387
-0.00508641
0.00333274
0.000471445
0.00309684
0.000220811
-0.00525414
0.00335772
0.000376322
-0.00523714
0.00334797
0.000505907
0.00538144
-0.00537325
0.0030391
0.000624197
0.00261426
-1.64444e-05
-0.00585155
0.00301077
0.000240831
-0.00587287
0.00285844
0.000534364
-0.00578165
0.00286323
0.000587451
0.0058506
-0.0057921
0.00262336
0.000731101
0.0023225
-0.000158685
-0.00619541
0.00282254
-0.000143673
-0.00610635
0.002739
0.000428638
-0.00616953
0.00263324
0.000722602
-0.00608149
0.00264218
0.000573362
0.00598949
-0.00589317
0.00240261
0.000478711
0.0021285
-0.000138751
-0.00663879
0.00270145
-0.000117776
-0.0064627
0.00263148
0.00023675
-0.00651652
0.00251501
0.000575184
-0.00652221
0.00240138
0.000697299
-0.00622122
0.00236126
0.000626127
0.00618387
-0.00626073
0.00221142
0.000611852
0.00188171
-0.000201301
-0.00705953
0.00242995
-0.000217671
-0.00713433
0.00236417
0.000181667
-0.00716521
0.0023607
0.000377689
-0.00723066
0.00224857
0.000501143
-0.006841
0.00225584
0.000788628
-0.00701492
0.00208617
0.000230357
0.00675995
-0.00675694
0.00186954
0.000272828
0.00161704
-0.000236344
-0.00726537
0.00202428
-0.000128477
-0.00736704
0.00205717
3.56655e-06
-0.00731554
0.00207195
0.00031624
-0.00694463
0.00197262
0.000260953
-0.00663751
0.00153399
0.000732521
-0.00747718
0.00142984
0.000415435
-0.00727811
0.00174808
0.000408709
0.00697981
-0.00729774
0.00176443
8.5193e-05
0.00109267
-0.000315528
-0.00591908
0.00183279
-0.000464153
-0.0060797
0.00183106
-0.000151667
-0.00607887
0.00172814
-4.26419e-05
-0.00608309
0.00131742
-0.000112278
-0.00641715
0.000666166
0.000862097
-0.00780313
0.000386321
0.000816758
-0.0077099
0.000482689
0.000315151
-0.00803326
0.00100942
1.67163e-06
0.00622356
-0.0065213
0.0011108
-9.47559e-05
0.000423618
-0.00055133
-0.00517211
0.00126231
-0.000398139
-0.00498081
0.00104945
-2.08854e-08
-0.00564849
0.000710152
-0.000256642
-0.00652969
0.000746038
-0.000354439
-0.00700555
0.000457413
0.000666585
-0.00794046
0.000534062
0.000902932
-0.00815134
0.000321798
0.000649271
-0.00734145
-0.000100141
-0.000191116
-0.00656582
0.000270374
-0.000219802
0.00415065
-0.00456789
0.000483702
-0.000457938
-1.6385e-05
-0.000426017
-0.00460638
3.3584e-05
-0.000386626
-0.0054473
0.00017341
-0.000436815
-0.00548988
0.000124602
0.000256065
-0.00597649
3.16738e-05
-0.000395767
-0.00778645
0.000327567
0.000759487
-0.00820896
4.10864e-05
0.000484646
-0.00533066
-0.000617952
0.00049832
-0.00488978
-0.000653877
-0.000437229
-0.00329798
2.30682e-05
-0.000526701
-0.0017689
3.29524e-05
-1.05016e-05
0.00263202
-0.00260858
8.42244e-06
8.45817e-05
-0.000187538
-0.000314858
-0.00448599
-0.000253271
-0.000220597
-0.00560737
-0.000173204
-3.84245e-05
-0.00576217
-0.000329159
0.000103221
-0.00607802
-0.000401441
6.29242e-05
-0.00677332
-0.000570932
0.000111564
-0.00485489
-0.000233328
0.000238261
-0.000939714
0.000133388
-0.00011857
-0.000656288
0.000219451
-0.000177503
-0.00028344
-0.000113084
-0.000414754
-0.00107823
-8.31272e-05
-8.36317e-05
-0.001877
-0.000114972
0.000704075
0.00194597
-0.00210855
-0.000231285
0.000451964
-0.000375234
3.28382e-05
-0.0035678
-0.000624317
-4.78909e-05
-0.00351198
-0.000606041
-5.78855e-05
-0.0021104
-0.000534918
0.000103938
-0.000199812
-0.000475773
9.67156e-05
-0.00150518
-0.000322895
-0.000201793
-0.000395519
-0.000232068
-0.000243044
-1.36368e-05
-0.000253482
-0.000258378
-0.000606368
-0.000196564
-0.000292425
-0.00105951
-0.000106474
-0.000271628
-0.00134281
-0.000183159
-0.000102147
-0.000888322
-0.000289485
0.000450237
-0.00127857
-0.00035948
0.000465569
4.41144e-05
-0.000238852
-0.00037607
0.000213745
-0.000288394
-7.49976e-05
-0.00108631
-0.000209221
8.85303e-05
-0.00101087
-0.00024229
7.13398e-05
-0.000288817
-0.000286473
2.53978e-05
0.000866398
-0.000276302
-0.000108531
0.000844942
-0.000205877
-0.000210449
0.000916793
-0.000164284
-0.000163301
0.000365009
-0.000193244
-0.000196218
-0.000164859
-0.000146581
-0.000239631
-0.00109252
-9.76851e-05
-0.000203792
-0.00131427
-0.000121562
-9.80004e-05
-0.00126028
-0.000150615
0.000134806
-0.00156184
-0.000230021
0.000312296
-0.000569169
-0.000306332
0.000174991
-0.000740999
0.000588755
-0.000266178
3.67705e-05
-8.34916e-05
5.24666e-06
0.00038914
-8.41345e-05
4.70745e-05
0.000757687
-9.33345e-05
2.44896e-05
0.0021402
-9.47372e-05
-6.54974e-06
0.00251511
-8.87825e-05
-8.48809e-05
0.00250576
-6.89838e-05
-0.000133865
0.00192475
-6.47374e-05
-0.000122242
0.000563291
-6.83011e-05
-0.000116087
2.70096e-05
-5.99625e-05
-0.000129053
-0.000553412
-5.47283e-05
-0.000104819
-0.000739985
-6.27956e-05
-5.05733e-05
-0.000695431
-7.08679e-05
-6.15345e-06
-0.000749065
-9.0129e-05
7.37588e-05
0.000195309
-9.85315e-05
5.01921e-05
0.00169981
-9.09581e-05
6.17629e-05
-0.00228356
0.00221772
-7.90344e-05
-2.56051e-05
0.00485714
-0.00483528
0.00377749
0.000180866
0.00350562
-0.000242511
-0.00499904
0.00396772
0.000144097
0.00492018
-0.00485946
0.00358477
0.000387923
0.00331179
5.8306e-05
-0.00501159
0.00367819
0.000206247
-0.00493993
0.00369871
0.000568882
0.00521359
-0.00521789
0.00327407
0.000643228
0.00302499
8.88543e-05
-0.00531783
0.00337812
0.000333575
-0.00529042
0.00331826
0.000496107
-0.00529067
0.00330365
0.00066629
0.00536495