/*--------------------------------*- C++ -*----------------------------------*\
  =========                 |
  \\      /  F ield         | OpenFOAM: The Open Source CFD Toolbox
   \\    /   O peration     | Website:  https://openfoam.org
    \\  /    A nd           | Version:  7
     \\/     M anipulation  |
\*---------------------------------------------------------------------------*/
FoamFile
{
    version     2.0;
    format      ascii;
    class       volVectorField;
    location    "9";
    object      U;
}
// * * * * * * * * * * * * * * * * * * * * * * * * * * * * * * * * * * * * * //

dimensions      [0 1 -1 0 0 0 0];

internalField   nonuniform List<vector> 
18720
(
(-0.232167 -0.00443141 -1.28265)
(-0.231566 0.964376 -0.804186)
(-0.238884 -0.00645065 -1.27469)
(-0.224169 -0.00422859 -1.29601)
(-0.266467 -0.481941 -1.64209)
(-0.325696 2.52506 -1.16244)
(-0.240598 0.977546 -0.755363)
(-0.189457 0.957669 -0.860051)
(0.107945 0.48947 -1.11627)
(-0.28756 -0.496171 -1.62767)
(-0.214097 -0.00551395 -1.31463)
(-0.248926 -0.471657 -1.6582)
(-0.876345 -0.947007 -1.67253)
(-0.262033 2.92298 -1.06976)
(-0.513553 2.56283 -0.8579)
(-0.229022 2.46422 -1.22824)
(-0.0436439 1.8969 -1.12541)
(-0.023095 0.485754 -1.09907)
(-0.148069 0.94115 -0.908656)
(0.209114 0.514515 -1.12535)
(-0.320785 0.063541 -1.13536)
(-0.877959 -0.961408 -1.6587)
(-0.203419 -0.00816457 -1.33567)
(-0.234559 -0.463063 -1.67942)
(-0.867417 -0.940207 -1.68873)
(-0.925805 -1.03802 -2.11634)
(-0.0308239 2.91372 -0.488931)
(-0.536457 2.97747 -0.998437)
(-0.179896 2.81234 -1.093)
(0.169998 2.8814 -1.39938)
(-0.0146617 1.87046 -1.07688)
(-0.13808 2.39918 -1.30134)
(0.00794596 1.94553 -1.26321)
(-0.54153 0.303893 -0.386369)
(-0.436937 0.0435924 -1.01973)
(-0.110327 0.920629 -0.955372)
(0.241272 0.475678 -1.16861)
(-0.255412 0.047885 -1.27674)
(-0.608167 -0.614619 -1.3607)
(-0.953552 -1.12297 -2.06205)
(-0.193815 -0.0132693 -1.35692)
(-0.214159 -0.457921 -1.70779)
(-0.847197 -0.922238 -1.71855)
(-0.900346 -1.095 -2.09722)
(-1.49192 -0.747536 -1.41413)
(0.313084 3.12645 0.497558)
(0.257469 3.03699 -0.762667)
(-0.0152569 2.91817 -0.434876)
(0.535581 3.13997 -0.879878)
(-0.135773 2.82105 -1.46017)
(-0.0668298 2.81302 -1.15224)
(0.69606 3.03129 -1.1427)
(-0.0985948 2.93856 -1.40717)
(-0.670615 0.24409 -0.331149)
(0.258007 2.32365 -1.62227)
(0.033825 2.02968 -1.44416)
(-0.404285 0.420937 -0.51205)
(-0.679488 -0.751119 -0.825878)
(-0.721404 -0.636278 -1.31156)
(-0.0987334 0.919093 -0.990202)
(0.296056 0.450477 -1.23555)
(-0.110725 0.0584717 -1.37401)
(-0.484797 -0.58756 -1.41109)
(-1.15284 -0.456789 -1.09791)
(-1.51924 -0.767211 -1.3908)
(-0.186268 -0.0196999 -1.3764)
(-0.185189 -0.455217 -1.74269)
(-0.840748 -0.90864 -1.74035)
(-0.902034 -1.03631 -2.09459)
(-1.45568 -0.741339 -1.4413)
(-1.56218 -0.228489 -1.20059)
(-0.35267 2.78352 2.27992)
(-0.319398 3.29588 0.296958)
(0.227823 2.99723 0.545842)
(0.380039 3.62099 0.142416)
(0.212456 3.01635 -0.764717)
(0.137961 3.00661 -0.730527)
(0.921303 3.12329 -0.708545)
(0.458471 3.70113 -0.178744)
(-0.0791486 2.8093 -1.26427)
(0.181436 2.79186 -1.17869)
(0.606847 3.02805 -1.33325)
(0.703823 2.90574 -1.80868)
(-0.244705 2.47331 -2.10988)
(-0.807207 -0.746607 -0.683697)
(0.309402 2.33267 -1.79821)
(0.430612 2.00067 -1.73487)
(-0.351221 0.491142 -0.603024)
(-0.566421 -0.720787 -0.933424)
(-1.00769 -0.443709 -0.793555)
(-1.23956 -0.499127 -1.03287)
(-0.0945519 0.924097 -1.02645)
(0.390217 0.411079 -1.32502)
(0.0740427 0.0328389 -1.52296)
(-0.402733 -0.571605 -1.45623)
(-1.03974 -0.40803 -1.19973)
(-1.40672 -0.186662 -0.744844)
(-1.56977 -0.230303 -1.2224)
(-0.176001 -0.0264596 -1.39869)
(-0.157938 -0.456816 -1.78012)
(-0.818659 -0.88232 -1.77256)
(-0.909604 -1.01192 -2.0949)
(-1.45999 -0.704416 -1.44485)
(-1.52948 -0.234821 -1.21832)
(-1.14834 0.294282 -1.39787)
(-0.163826 3.22904 2.89925)
(-0.369768 2.86163 2.00003)
(-0.273963 2.73649 2.30471)
(-0.228566 3.02166 1.79882)
(0.276397 3.74915 0.11839)
(0.368269 2.87323 0.649755)
(0.775629 3.43237 0.0973719)
(0.183023 3.6462 0.526182)
(0.180688 3.53369 -0.103335)
(0.21406 2.96352 -0.72929)
(0.839133 3.23725 -0.752305)
(0.372114 3.74821 -0.0490491)
(-0.469641 3.71666 -0.10245)
(-1.12742 2.23366 -0.59365)
(1.48422 2.21895 -1.22845)
(0.941687 3.01777 -1.01433)
(1.48921 2.80131 -1.89255)
(0.418559 2.61872 -2.3341)
(-1.71683 0.946466 0.871493)
(-1.11569 -0.462365 -0.667418)
(0.516699 2.14511 -1.97104)
(0.575622 2.04408 -1.86278)
(-0.0957956 0.65056 -0.871922)
(-0.46691 -0.668761 -1.03757)
(-0.955605 -0.441441 -0.891009)
(-1.15578 -0.0245883 -0.276389)
(-1.46086 -0.206978 -0.780981)
(-0.0358789 0.871261 -1.11223)
(0.487195 0.365657 -1.4024)
(0.218262 0.008246 -1.64176)
(-0.311985 -0.550897 -1.52119)
(-1.01828 -0.37213 -1.27682)
(-1.36261 -0.160729 -0.744101)
(-1.31547 0.250126 -0.94753)
(-1.18945 0.30175 -1.36877)
(-0.164005 -0.0406816 -1.4265)
(-0.129712 -0.459097 -1.8181)
(-0.794278 -0.866512 -1.80027)
(-0.905797 -1.00568 -2.11322)
(-1.43977 -0.69998 -1.46104)
(-1.51742 -0.225019 -1.22444)
(-1.1416 0.293073 -1.39388)
(-0.963668 0.401915 -1.35859)
(0.0326094 3.60943 2.77258)
(-0.225504 3.16159 2.73475)
(0.150284 3.23246 2.93675)
(-0.153785 3.02004 2.83369)
(-0.438102 3.13004 1.71466)
(-0.0693705 2.78959 2.33207)
(-0.174567 2.89389 2.10926)
(-0.134856 3.22377 1.95296)
(0.0175559 3.78886 0.514153)
(0.407165 2.8422 0.803191)
(0.79312 3.30227 0.233651)
(0.308164 3.62591 0.666971)
(-0.212616 3.68175 0.148844)
(-0.529964 3.64782 0.110749)
(0.31876 2.81903 -0.631544)
(0.885921 3.23898 -0.55105)
(0.416618 3.67559 -0.23671)
(-0.0307197 3.67703 -0.45365)
(1.72179 3.21072 -0.579229)
(-1.60396 0.567093 0.991141)
(0.0417215 2.77734 -0.641711)
(1.00745 3.0468 -0.669704)
(1.61127 2.68676 -1.78346)
(1.23445 2.75854 -2.11021)
(-1.53066 1.5199 0.483344)
(-0.922587 0.0649997 -0.126135)
(-1.27926 -0.0423385 -0.373958)
(0.612524 2.10972 -2.13369)
(0.722569 2.01254 -2.05308)
(-0.0300974 0.776385 -1.15713)
(-0.412181 -0.575779 -1.14179)
(-0.985586 -0.393012 -1.06972)
(-1.07975 0.0266664 -0.218995)
(-1.01223 0.354434 -0.822839)
(-1.39076 0.242063 -0.901419)
(-0.0023693 0.856364 -1.17861)
(0.576094 0.299886 -1.45359)
(0.313793 -0.0190845 -1.75254)
(-0.261149 -0.533117 -1.58803)
(-1.02482 -0.331609 -1.35272)
(-1.38614 -0.117744 -0.902565)
(-1.2521 0.269322 -0.926593)
(-1.20468 0.38211 -1.10286)
(-0.952544 0.399305 -1.35138)
(-0.151428 -0.0558312 -1.45331)
(-0.114503 -0.45922 -1.85493)
(-0.783664 -0.846502 -1.82408)
(-0.859876 -1.01524 -2.11769)
(-1.39649 -0.66512 -1.51336)
(-1.54366 -0.212506 -1.20985)
(-1.12778 0.287161 -1.39865)
(-0.993233 0.396599 -1.35312)
(-0.736888 0.596795 -1.07614)
(0.362199 3.27711 2.57124)
(0.0360657 3.46117 2.78351)
(0.288017 3.62956 2.86748)
(0.271498 3.59434 2.66261)
(-0.323959 3.15012 2.70852)
(0.591467 3.35719 2.73785)
(0.622426 3.36399 2.49977)
(0.0135251 3.15569 2.60472)
(-0.209175 3.41222 1.56076)
(0.21588 2.9126 2.43495)
(-0.0942498 2.84632 2.14541)
(0.505189 3.30162 1.88416)
(0.192656 3.44054 1.28157)
(0.170753 3.62225 0.041716)
(0.414138 2.78685 1.39761)
(0.626922 3.23531 0.574435)
(0.450165 3.66527 0.920319)
(0.00639021 3.72214 0.224664)
(0.885929 3.83363 0.239875)
(1.38613 3.0441 -0.586524)
(0.312782 2.93156 -0.308433)
(1.06133 3.03183 -0.502765)
(0.833596 3.58 -0.602705)
(0.386117 3.46657 -0.935284)
(1.64914 3.48518 -0.304753)
(-0.663753 2.83503 -1.06733)
(-1.10153 0.078892 -0.448753)
(1.55721 2.17492 -1.05714)
(1.10752 2.9374 -0.632365)
(1.62651 2.65148 -1.62093)
(2.09366 2.53848 -2.03626)
(-0.370416 2.13956 -0.794102)
(-0.465341 0.0862739 0.792824)
(-1.33385 0.444273 0.0121996)
(-1.17467 0.38052 -0.748012)
(0.615303 2.21718 -2.12975)
(0.86474 1.96748 -2.19323)
(0.0697151 0.806535 -1.44006)
(-0.351907 -0.469623 -1.26443)
(-0.928971 -0.313613 -1.26417)
(-1.32703 0.178621 -0.86797)
(-0.952902 0.3251 -0.539602)
(-1.2541 0.396555 -0.81988)
(-1.22383 0.382533 -0.980391)
(0.0114236 0.839127 -1.2272)
(0.646766 0.250581 -1.47566)
(0.346042 -0.0487179 -1.83294)
(-0.259628 -0.509488 -1.65015)
(-0.951525 -0.307465 -1.47407)
(-1.34359 -0.0737684 -1.05701)
(-1.20801 0.236092 -0.893505)
(-1.18393 0.38567 -1.22108)
(-0.745423 0.71372 -0.818476)
(-0.702247 0.595678 -1.10666)
(-0.14208 -0.0709623 -1.47702)
(-0.103272 -0.45865 -1.89196)
(-0.765242 -0.830678 -1.84911)
(-0.892831 -0.957442 -2.1247)
(-1.36986 -0.670089 -1.53853)
(-1.53378 -0.234666 -1.24522)
(-1.10816 0.281577 -1.41499)
(-0.950045 0.398895 -1.39068)
(-0.745067 0.590958 -1.06792)
(-0.578153 0.616517 -1.26868)
(0.285517 3.04237 2.54937)
(0.245864 3.24818 2.51468)
(0.355384 3.32408 2.59688)
(0.345138 3.27092 2.56697)
(0.0330654 3.46248 2.72701)
(0.382288 3.58793 2.81606)
(0.420724 3.60714 2.66634)
(0.493796 3.46741 2.75743)
(-0.256102 3.17608 2.56354)
(0.807451 3.29241 2.81582)
(0.418529 3.22251 2.85979)
(0.704491 3.40965 2.31639)
(0.154882 3.28927 2.29429)
(0.0377251 3.50043 1.16311)
(0.363498 2.92115 2.58337)
(0.154752 2.81118 2.45438)
(0.142733 3.11316 2.45386)
(0.339607 3.39943 1.42167)
(0.524208 3.70079 0.666011)
(0.299782 4.01276 0.36004)
(0.606445 2.83064 1.63375)
(0.520567 3.19052 0.805971)
(0.640509 3.59555 0.981111)
(0.240794 3.71696 0.611171)
(0.821591 3.73281 0.33873)
(0.68172 4.35328 0.524108)
(-1.4832 2.50662 -1.35625)
(0.498361 2.74442 -0.205814)
(1.13757 2.89064 -0.414617)
(1.58912 2.99127 -1.29928)
(0.603537 3.32422 -0.991816)
(1.20588 3.8098 -0.0677633)
(-0.0542117 2.92463 -0.822572)
(-1.53 1.81485 -1.08792)
(-1.50828 0.287452 0.0753869)
(1.0676 2.22088 -0.88057)
(1.07676 2.95795 -0.552813)
(1.78086 2.54628 -1.5091)
(2.00241 2.46345 -2.32269)
(1.58841 2.34804 -2.59244)
(0.0170351 0.225444 1.93801)
(-1.05725 0.392952 0.157159)
(-1.10366 0.323151 1.13238)
(-1.35986 0.376624 -0.489243)
(0.820857 1.88161 -2.29512)
(0.976341 1.8958 -2.30572)
(0.201546 0.913443 -1.73297)
(-0.248323 -0.311275 -1.37932)
(-0.631011 -0.0981331 -1.48293)
(-1.1773 0.340158 -0.927969)
(-0.823868 0.338796 -0.440427)
(-1.1508 0.418365 -0.955197)
(-0.955446 0.60977 -0.697073)
(-0.795381 0.691491 -0.865257)
(0.0667195 0.781794 -1.27693)
(0.686901 0.189283 -1.49091)
(0.411977 -0.0631856 -1.86381)
(-0.243893 -0.471533 -1.72543)
(-0.88816 -0.262589 -1.56498)
(-1.29891 -0.0736438 -1.03311)
(-1.14785 0.244008 -0.972101)
(-1.14215 0.381418 -1.31997)
(-0.784713 0.709767 -0.735226)
(-0.655994 0.867146 -0.793079)
(-0.553014 0.621559 -1.28953)
(-0.131907 -0.0859049 -1.4999)
(-0.0860527 -0.46299 -1.93085)
(-0.74287 -0.820794 -1.87408)
(-0.897886 -0.953749 -2.12706)
(-1.39414 -0.633388 -1.54357)
(-1.50526 -0.225021 -1.2832)
(-1.0918 0.279921 -1.42676)
(-0.905376 0.385835 -1.41577)
(-0.716598 0.595602 -1.08751)
(-0.573113 0.604156 -1.26662)
(-0.196668 0.441498 -1.4362)
(0.283916 2.85204 2.55439)
(0.113752 3.07287 2.50895)
(0.352902 3.04448 2.65969)
(0.30925 3.04583 2.50684)
(0.17666 3.26361 2.59399)
(0.503609 3.31929 2.64688)
(0.355009 3.27298 2.57414)
(0.262109 3.2577 2.60958)
(0.121842 3.36796 2.71399)
(0.612001 3.4708 2.74956)
(0.289887 3.58116 2.80089)
(0.721808 3.45547 2.72426)
(0.559281 3.39964 2.7055)
(0.0439732 3.24732 2.36789)
(0.639677 3.35998 2.8136)
(0.834267 3.36176 2.62351)
(0.333195 3.202 2.8949)
(0.631194 3.35716 2.26078)
(0.245474 3.45952 2.2853)
(0.0326214 3.82273 1.02263)
(0.606226 2.94668 2.66351)
(0.311397 2.91204 2.69629)
(0.200135 3.16888 2.53814)
(0.39151 3.17185 1.73539)
(0.787533 3.56873 0.496839)
(0.541392 3.91256 0.765849)
(1.22595 3.97852 0.384345)
(0.514793 2.83462 1.93811)
(0.541421 3.08566 1.19102)
(0.979138 3.24994 1.02318)
(0.116963 3.72315 0.761414)
(0.734537 3.78208 0.442458)
(1.11415 4.39276 0.669835)
(0.985979 3.11928 0.548524)
(-1.78769 1.30886 -0.522029)
(0.433134 2.58218 0.0711289)
(1.213 2.77121 -0.158522)
(1.00534 2.99995 -0.522133)
(1.00433 3.14611 -1.19722)
(1.02556 3.88765 -0.163642)
(2.38246 2.85015 -0.0526639)
(-1.2823 2.03725 -0.954343)
(-1.42903 1.46751 -0.638181)
(-1.24926 0.377107 0.84139)
(0.462844 2.48528 -0.77737)
(1.14533 3.01018 -0.461026)
(2.15508 2.29632 -1.21398)
(2.15731 2.40182 -2.02077)
(2.13983 2.51197 -2.54988)
(-0.25813 0.894331 1.77938)
(-0.889676 0.34482 -0.0333076)
(-0.978131 0.282775 1.18192)
(-0.796683 0.591076 -0.656004)
(-1.03156 0.598874 -0.761382)
(0.937261 1.76467 -2.32721)
(1.11508 1.73014 -2.41215)
(0.345233 0.962953 -2.09662)
(-0.135326 -0.226953 -1.49822)
(-0.408231 0.119017 -1.55641)
(-0.903033 0.367528 -0.627404)
(-0.72044 0.326431 -0.593619)
(-1.01702 0.405815 -0.955863)
(-0.973285 0.570877 -0.537515)
(-0.479932 0.909646 -0.707326)
(-0.613225 0.891706 -0.859745)
(0.132129 0.723834 -1.30663)
(0.707266 0.156455 -1.50331)
(0.450938 -0.104809 -1.87607)
(-0.261812 -0.448297 -1.80462)
(-0.837011 -0.216601 -1.64397)
(-1.21074 -0.0399051 -1.00173)
(-1.0808 0.237876 -1.05945)
(-1.07607 0.377689 -1.40063)
(-0.7334 0.720744 -0.734577)
(-0.6128 0.856849 -0.77045)
(-0.273986 0.712784 -1.23912)
(-0.188724 0.448602 -1.44617)
(-0.120388 -0.111687 -1.52829)
(-0.0704154 -0.469049 -1.97189)
(-0.722095 -0.810904 -1.89903)
(-0.891239 -0.940768 -2.12884)
(-1.32659 -0.644455 -1.59828)
(-1.49529 -0.226514 -1.28999)
(-1.07275 0.272534 -1.4428)
(-0.87499 0.382273 -1.42787)
(-0.719458 0.596113 -1.0836)
(-0.584882 0.603788 -1.25429)
(-0.20233 0.43144 -1.43127)
(0.0939381 0.3934 -1.64567)
(0.319211 2.581 2.62656)
(0.0456226 2.88892 2.54756)
(0.384 2.8048 2.55423)
(0.242129 2.87037 2.46402)
(0.107716 3.11855 2.49151)
(0.351072 3.03543 2.68404)
(0.342033 3.03942 2.52213)
(0.426527 3.08391 2.43365)
(0.173052 3.28497 2.55565)
(0.558124 3.26487 2.742)
(0.427655 3.28423 2.61846)
(0.553439 3.19263 2.62291)
(0.55439 3.21519 2.44342)
(0.00228779 3.20734 2.70107)
(0.695796 3.42611 2.78308)
(0.615767 3.47649 2.81751)
(0.692896 3.47619 2.71849)
(0.62996 3.34652 2.79366)
(0.531613 3.31177 2.67531)
(0.0935041 3.43989 2.41113)
(0.64881 3.29954 2.86455)
(0.84571 3.43042 2.78445)
(0.97451 3.37576 2.64316)
(0.561672 3.27105 2.51132)
(0.67194 3.47926 2.07367)
(0.632266 3.54818 2.24402)
(0.363246 3.8417 0.776761)
(0.372657 2.9676 2.93136)
(0.412434 2.88403 2.81078)
(0.359698 3.04938 2.78465)
(0.469354 3.13492 1.81551)
(0.72524 3.44679 0.814191)
(0.907635 3.94191 0.636022)
(0.174313 3.81544 1.10723)
(0.838727 2.90169 0.081607)
(0.474925 2.67691 2.34506)
(0.676985 2.64205 1.90456)
(0.840824 3.23895 0.987401)
(0.432982 3.48831 1.03039)
(0.739966 3.65769 0.992778)
(1.69561 4.14149 0.532347)
(1.46277 3.38075 -0.794496)
(-0.116269 2.63704 0.405074)
(-1.45967 1.04468 -0.659027)
(0.558999 2.58305 0.250589)
(1.04256 2.66851 -0.244919)
(1.15547 2.95427 -0.627905)
(1.55057 2.55658 -1.41155)
(1.11532 3.84537 -0.296231)
(3.39492 2.59543 0.230887)
(-0.561107 2.58274 -0.782045)
(-1.20048 1.80606 -1.32604)
(-0.836569 1.21607 0.556859)
(-1.20336 0.569159 -0.472739)
(1.49953 1.87613 -1.0119)
(0.934924 2.93074 -0.812996)
(1.91635 2.39642 -1.07147)
(2.23413 2.28663 -1.68352)
(2.37334 2.76962 -1.86795)
(-0.599797 1.77003 1.09372)
(-0.835472 0.28199 -0.0862916)
(-0.908886 0.267657 1.03422)
(-0.807672 0.459581 -0.321917)
(-0.615375 0.67183 -0.604064)
(-0.357947 0.973359 -0.80092)
(1.18259 1.71918 -2.32334)
(1.18859 1.49953 -2.57029)
(0.486937 0.958213 -2.44378)
(-0.0347318 -0.136106 -1.61518)
(-0.17612 0.328516 -1.65597)
(-0.818276 0.388143 -0.528391)
(-0.59776 0.293279 -0.786626)
(-0.88741 0.447653 -1.47566)
(-0.88605 0.599464 -0.468429)
(-0.537529 0.827292 -0.595417)
(0.270732 0.500796 -1.54644)
(-0.188997 0.709387 -1.30254)
(0.204684 0.687742 -1.37491)
(0.699482 0.133697 -1.52871)
(0.480237 -0.138654 -1.87978)
(-0.278036 -0.402511 -1.89049)
(-0.797055 -0.156059 -1.7192)
(-1.15087 -0.00936621 -0.986786)
(-1.01755 0.225614 -1.13512)
(-0.950213 0.375337 -1.43965)
(-0.713988 0.73826 -0.736554)
(-0.62437 0.863602 -0.716059)
(-0.34895 0.703426 -1.17051)
(0.367507 0.67439 -1.44795)
(0.12079 0.394502 -1.65487)
(-0.100814 -0.13995 -1.55656)
(-0.0566426 -0.478094 -2.01178)
(-0.703052 -0.804465 -1.92259)
(-0.88748 -0.916635 -2.13568)
(-1.34025 -0.606339 -1.60929)
(-1.50113 -0.210794 -1.28334)
(-1.05585 0.263676 -1.45771)
(-0.857457 0.38235 -1.43025)
(-0.77187 0.593523 -1.05135)
(-0.598664 0.596036 -1.2497)
(-0.201498 0.421589 -1.42941)
(0.0691129 0.392339 -1.63106)
(0.377852 -0.156024 -2.03733)
(0.078163 2.53553 2.59859)
(-0.0117641 2.61462 2.66186)
(0.284772 2.51659 2.61908)
(0.183983 2.60762 2.62908)
(0.0776703 2.93886 2.41824)
(0.35638 2.82192 2.56407)
(0.436172 2.7922 2.49368)
(0.231051 2.84302 2.45527)
(0.209465 3.10179 2.46481)
(0.479131 3.00056 2.6955)
(0.28088 3.01453 2.57486)
(0.589775 3.00453 2.47755)
(0.453802 2.95512 2.45877)
(0.310278 3.21448 2.43388)
(0.605052 3.18638 2.88671)
(0.565807 3.21038 2.67304)
(0.615959 3.14495 2.66006)
(0.690744 3.16903 2.50461)
(0.501384 3.0859 2.41846)
(0.225672 3.31303 2.62464)
(0.890497 3.41061 2.85718)
(0.754774 3.41252 2.80435)
(0.735823 3.50647 2.68797)
(0.872488 3.41313 2.67634)
(0.756201 3.30901 2.67133)
(0.543756 3.39732 2.38824)
(0.0564347 3.53525 2.25614)
(1.12759 3.25576 2.84268)
(0.910508 3.46159 2.8102)
(0.95569 3.26352 2.9107)
(0.969739 3.23351 2.50819)
(0.808856 3.31491 2.15885)
(0.695937 3.60438 2.11308)
(0.21662 3.58142 2.4829)
(-0.337973 3.74385 1.39993)
(0.338532 3.0189 2.94829)
(0.755153 2.99907 2.64552)
(0.489523 3.00766 2.8539)
(0.640919 3.08396 2.26696)
(0.684033 3.32398 1.14917)
(1.1104 3.90529 0.537957)
(0.746325 3.79845 0.786159)
(-0.0957099 3.76082 1.47755)
(-0.314522 2.46885 0.52376)
(0.731458 2.64576 2.37122)
(0.524788 2.68265 1.65602)
(1.18709 3.02394 1.13258)
(0.766134 3.25973 1.14599)
(0.585823 3.56465 0.587747)
(1.90964 3.86591 0.753243)
(2.01082 3.45578 0.236771)
(1.04975 2.95993 0.0683203)
(-0.409017 2.89403 0.185943)
(-0.792243 1.15199 0.438977)
(0.969895 2.31814 0.398578)
(0.59828 2.80138 0.0483491)
(2.27581 2.14486 -0.460373)
(0.840153 2.95968 -0.577125)
(1.07879 3.87503 -0.0992366)
(2.87167 3.01142 0.63945)
(-0.249223 2.56737 -0.948859)
(-0.726939 2.05337 -1.54602)
(-0.820121 1.37446 0.491438)
(-0.938912 0.99687 0.204476)
(-0.70141 0.677324 -0.679109)
(1.25467 1.94332 -0.956278)
(0.998486 2.75197 -0.638546)
(1.68177 2.48409 -0.942827)
(2.28239 2.27525 -1.44136)
(2.64442 2.81048 -1.05364)
(-0.388091 2.17744 0.695846)
(-0.776608 0.321613 -0.355319)
(-0.7457 0.258151 1.67627)
(-0.67797 0.371666 -0.254781)
(-0.600355 0.654688 -0.531703)
(-0.0480383 0.963704 -0.190254)
(0.402293 0.556802 -1.68485)
(0.894849 1.71459 -2.45067)
(1.21898 1.45264 -2.60717)
(0.585101 0.910285 -2.65204)
(0.0884884 -0.0592923 -1.73241)
(0.0271782 0.50275 -1.79916)
(-0.754325 0.411529 -0.66239)
(-0.46469 0.227095 -0.932803)
(-0.668125 0.444031 -1.49962)
(-0.855622 0.62324 -0.373996)
(-0.413311 0.836662 -0.53135)
(0.121314 0.497119 -1.36981)
(1.22459 0.517946 -1.26398)
(0.413026 0.656598 -1.58381)
(0.226229 0.59264 -1.39013)
(0.693177 0.100045 -1.54973)
(0.479111 -0.161132 -1.8961)
(-0.253087 -0.383298 -1.98353)
(-0.794803 -0.101055 -1.78532)
(-1.09117 0.0122491 -1.00248)
(-0.956138 0.224668 -1.19399)
(-0.883501 0.382999 -1.42664)
(-0.753769 0.767391 -0.694007)
(-0.682157 0.85146 -0.658718)
(-0.344201 0.710031 -1.10893)
(0.311545 0.705073 -1.29175)
(0.924423 0.181723 -2.32404)
(0.429182 -0.159337 -2.00764)
(-0.065283 -0.19085 -1.58788)
(-0.0531828 -0.480494 -2.05016)
(-0.697754 -0.791695 -1.94368)
(-0.878182 -0.917091 -2.14036)
(-1.39925 -0.589279 -1.59395)
(-1.50141 -0.198301 -1.28139)
(-1.04107 0.260054 -1.47209)
(-0.84138 0.381089 -1.43847)
(-0.768493 0.604196 -1.07082)
(-0.6081 0.595211 -1.24665)
(-0.201694 0.412609 -1.42839)
(0.0458626 0.388186 -1.61015)
(0.322738 -0.146267 -2.08765)
(0.310648 -0.84639 -1.99795)
(0.0135789 2.43223 2.59368)
(-0.0766218 2.57537 2.57835)
(0.217533 2.48497 2.5724)
(0.0617099 2.50152 2.63235)
(0.112623 2.64284 2.63507)
(0.381284 2.50752 2.6402)
(0.355351 2.53395 2.60574)
(0.221591 2.60776 2.65759)
(0.162234 2.89387 2.44164)
(0.408062 2.79776 2.63552)
(0.382815 2.79662 2.49763)
(0.432562 2.79309 2.40994)
(0.304923 2.82794 2.47735)
(0.337901 3.05563 2.37222)
(0.638658 2.97164 2.71588)
(0.292606 2.98593 2.6059)
(0.61241 2.97505 2.50225)
(0.66385 2.91822 2.44292)
(0.3536 2.84357 2.54245)
(0.0393465 3.09522 2.38416)
(0.825866 3.17229 2.90562)
(0.712933 3.09074 2.76826)
(0.696305 3.12149 2.71025)
(0.747892 3.11773 2.52853)
(0.708172 2.98797 2.47006)
(0.441299 3.03579 2.4568)
(0.250664 3.44852 2.3844)
(1.10457 3.31655 2.92726)
(0.829688 3.42715 2.79336)
(0.884962 3.33287 2.88907)
(0.847573 3.45674 2.66982)
(0.646742 3.20765 2.80771)
(0.896279 3.3809 2.37558)
(0.0134262 3.2801 2.47619)
(0.0507408 3.52319 2.50926)
(1.14518 3.34436 2.84016)
(1.20229 3.37967 2.79485)
(1.08708 3.40473 2.79183)
(1.11701 3.19064 2.64979)
(0.833953 3.20137 2.35527)
(1.0006 3.60911 1.81728)
(0.596724 3.47266 2.27819)
(0.272533 3.44837 2.57372)
(-0.476904 3.51861 1.92038)
(1.02483 2.83892 2.98117)
(0.556933 2.97913 2.94841)
(0.737396 2.95471 2.77784)
(0.595207 3.00248 2.61629)
(0.379826 3.19776 1.38309)
(1.6978 3.60071 0.532492)
(1.47592 3.62775 0.5978)
(0.447961 3.78245 1.22274)
(-0.356345 3.06201 2.06564)
(-0.643279 2.67343 0.272882)
(0.858679 2.51242 2.4904)
(0.548949 2.5112 2.28226)
(1.54922 2.43455 1.34445)
(0.94498 3.12508 1.36463)
(0.565751 3.50417 0.813974)
(2.03852 3.54744 0.9261)
(2.04046 3.6476 1.51207)
(0.86944 3.4438 -0.342348)
(-0.0813763 3.07931 0.188571)
(-0.689622 2.07939 1.13907)
(-0.881628 1.05614 0.156761)
(0.661959 2.35265 -0.0405572)
(1.13555 2.5602 0.255519)
(0.941161 2.66628 0.374751)
(2.0217 2.2765 -0.725456)
(0.846377 3.83192 0.515086)
(2.36928 3.38119 0.984607)
(0.580971 2.59834 -0.727235)
(0.758394 2.21154 -1.88972)
(-0.686798 1.62103 -0.0915181)
(-0.934779 0.944324 0.208969)
(-0.116221 1.28459 -0.00463754)
(0.133119 1.01448 -0.375839)
(0.837253 2.23634 -0.665424)
(1.55548 2.50676 -0.239372)
(1.68522 2.39123 -0.79328)
(2.05229 2.43998 -1.25398)
(2.44652 2.64861 -0.987735)
(0.550508 2.3202 -1.17862)
(-0.683854 0.490645 -0.413155)
(-0.64743 0.442442 1.61219)
(-0.563873 0.268704 -0.223139)
(-0.569762 0.607893 -0.507591)
(-0.152933 0.927178 -0.101072)
(1.15648 1.03353 -0.731353)
(1.09929 0.470529 -1.48263)
(1.24923 1.18286 -2.59904)
(1.24717 1.31746 -2.64414)
(0.63936 0.855392 -2.63275)
(0.181923 -0.025808 -1.84696)
(0.23017 0.65181 -1.96418)
(-0.691339 0.507888 -0.767483)
(-0.393512 0.190927 -0.948822)
(-0.507518 0.458493 -1.32638)
(-0.755607 0.696238 -0.384657)
(-0.544149 0.776933 -0.471961)
(-0.0603317 0.468562 -1.20149)
(1.22439 0.542483 -1.12857)
(1.01947 0.0988115 -1.93425)
(0.813999 0.16871 -2.35643)
(0.279359 0.557481 -1.42456)
(0.669529 0.0855604 -1.58109)
(0.457599 -0.17651 -1.92333)
(-0.241088 -0.370208 -2.07169)
(-0.811084 -0.017158 -1.83986)
(-1.05383 0.0527927 -1.00488)
(-0.892145 0.220691 -1.28129)
(-0.825495 0.403114 -1.43252)
(-0.743242 0.805666 -0.680557)
(-0.646327 0.84365 -0.672805)
(-0.337191 0.699938 -1.06842)
(0.206834 0.737051 -1.14851)
(1.02928 0.203945 -2.20132)
(0.477558 -0.307957 -2.07462)
(0.315589 -0.827565 -1.99478)
(-0.0421772 -0.235586 -1.62015)
(-0.0385437 -0.499527 -2.08239)
(-0.687829 -0.785076 -1.96381)
(-0.879549 -0.900972 -2.14981)
(-1.28775 -0.629086 -1.6786)
(-1.49376 -0.1913 -1.2891)
(-1.03397 0.254787 -1.48485)
(-0.820006 0.381302 -1.45388)
(-0.785535 0.607129 -1.0774)
(-0.610732 0.588007 -1.24636)
(-0.200587 0.402115 -1.42914)
(0.0226059 0.382305 -1.5834)
(0.27372 -0.131443 -2.15132)
(0.308773 -0.832925 -2.00093)
(0.568644 -1.04902 -1.81687)
(-0.076854 2.31052 2.54187)
(-0.0861502 2.42766 2.54329)
(0.0382247 2.43317 2.55544)
(0.0392798 2.34807 2.644)
(0.0219969 2.51466 2.61402)
(0.354431 2.41187 2.60992)
(0.227337 2.38836 2.6973)
(0.26284 2.50897 2.62136)
(0.187345 2.61313 2.64802)
(0.450439 2.50397 2.68194)
(0.451867 2.50578 2.61227)
(0.397299 2.54842 2.60188)
(0.344727 2.58075 2.57036)
(0.207913 2.85679 2.45008)
(0.487999 2.82876 2.62813)
(0.47443 2.82803 2.52125)
(0.554912 2.74893 2.42163)
(0.498813 2.73274 2.45908)
(0.343655 2.76001 2.45737)
(0.190424 2.96364 2.38667)
(0.793966 2.90791 2.72853)
(0.493787 2.92814 2.65584)
(0.675891 2.89326 2.55746)
(0.698349 2.89986 2.47011)
(0.508816 2.80464 2.50054)
(0.382967 2.81887 2.43626)
(0.297909 2.94844 2.49976)
(0.919057 3.13777 2.91109)
(0.736517 3.0804 2.81421)
(0.896345 3.00603 2.75613)
(0.866929 3.06835 2.60297)
(0.779913 2.97024 2.49785)
(0.605708 3.01306 2.47521)
(0.205074 2.91989 2.56877)
(-0.0870805 3.27102 2.47144)
(1.34042 3.19367 2.99075)
(1.0618 3.31342 2.87814)
(0.988749 3.40875 2.81835)
(1.05965 3.32394 2.7295)
(0.757274 3.29632 2.69218)
(1.10307 3.31836 2.49489)
(0.405087 3.1915 2.51943)
(0.343041 3.04589 2.38309)
(0.101616 3.37581 2.29453)
(1.46566 3.30436 2.73986)
(1.26493 3.47824 2.73805)
(1.27404 3.37163 2.79935)
(1.1956 3.23525 2.79192)
(0.827565 3.08188 2.74222)
(1.26362 3.36326 1.78498)
(0.892528 3.42393 2.05116)
(0.488964 3.61553 2.41228)
(0.197818 3.0467 2.63581)
(-0.127088 2.93718 1.88171)
(0.711704 2.93498 3.13216)
(1.09425 2.9026 2.92518)
(0.778432 2.81779 2.88462)
(0.641794 2.89222 2.71908)
(0.519485 3.00774 1.57656)
(1.40739 3.43648 0.721712)
(1.56353 3.54851 0.704673)
(1.55956 3.9515 0.843254)
(-0.229428 3.22168 1.96664)
(-0.0025462 2.83141 1.7286)
(-0.84715 1.85466 1.4306)
(1.13001 2.3836 2.50973)
(0.556628 2.50203 2.38644)
(0.41757 2.89169 1.6777)
(1.08275 2.89296 1.27075)
(0.517685 3.40682 1.47368)
(2.12684 3.25612 0.978079)
(2.4421 3.5988 0.994371)
(1.79457 3.34476 -0.326367)
(0.0188223 3.35954 -0.00151326)
(-0.452961 2.33907 0.778111)
(0.00898399 1.33491 0.838611)
(-0.0183392 1.30702 -0.244567)
(1.00652 2.19213 0.0276743)
(0.949603 2.59937 0.219367)
(1.09268 2.42722 0.568725)
(1.17856 2.69074 0.18288)
(0.680456 3.78393 0.883015)
(2.15954 3.57577 1.06337)
(2.51667 2.05024 -0.826228)
(0.825946 2.4202 -2.14773)
(0.12149 1.75756 -1.18336)
(-0.944217 0.90239 0.228585)
(-0.102194 1.28189 -0.0689157)
(1.7049 0.951242 0.0558082)
(1.23439 0.97162 -0.855288)
(1.56826 1.58675 -0.983478)
(1.38456 2.35214 -0.878899)
(1.335 2.47452 -0.788256)
(1.81563 2.35595 -1.31515)
(2.00775 2.54568 -1.0411)
(0.924553 2.33811 -2.36985)
(-0.606664 0.893281 -0.267628)
(-0.583736 0.583984 1.25693)
(-0.429496 0.225413 -0.28647)
(-0.577981 0.604016 -0.462498)
(-0.323682 0.951445 0.0363131)
(1.04057 0.995552 -0.5619)
(1.54489 0.482559 -0.780309)
(0.856277 0.0492348 -1.92159)
(1.0384 1.63137 -2.36447)
(1.30862 1.10372 -2.73838)
(0.684885 0.800314 -2.60361)
(0.24236 -0.00996938 -1.96384)
(0.384752 0.741017 -2.09126)
(-0.558652 0.553989 -0.893203)
(-0.293281 0.10297 -1.14453)
(-0.376207 0.46521 -1.21713)
(-0.69673 0.760737 -0.350345)
(-0.510582 0.749168 -0.475819)
(-0.181587 0.436733 -1.06044)
(0.995964 0.558817 -1.19832)
(1.25785 0.138605 -1.85797)
(0.969228 -0.71751 -1.54191)
(0.469929 -0.347864 -2.06111)
(0.311963 0.468019 -1.44143)
(0.65642 0.0630182 -1.61857)
(0.423486 -0.186942 -1.95653)
(-0.227351 -0.352558 -2.14919)
(-0.8093 0.069308 -1.88608)
(-0.956205 0.0387445 -1.08475)
(-0.831611 0.216114 -1.37122)
(-0.76346 0.423815 -1.46371)
(-0.768148 0.835126 -0.643838)
(-0.631773 0.82984 -0.686562)
(-0.366324 0.693246 -1.03619)
(0.0783726 0.76431 -1.04379)
(1.06478 0.218768 -2.01716)
(0.455891 -0.24624 -2.10028)
(0.471683 -0.924648 -1.97077)
(0.5297 -1.05218 -1.82119)
(-0.0213804 -0.281341 -1.6532)
(-0.0408195 -0.501928 -2.11472)
(-0.679816 -0.783511 -1.98161)
(-0.874478 -0.903755 -2.16388)
(-1.26984 -0.61239 -1.70068)
(-1.48326 -0.184495 -1.30522)
(-1.0028 0.244095 -1.5149)
(-0.80955 0.382453 -1.4638)
(-0.766426 0.602626 -1.11318)
(-0.630974 0.577975 -1.24594)
(-0.198356 0.391948 -1.43023)
(-0.000201602 0.374688 -1.55504)
(0.239661 -0.114136 -2.21172)
(0.301522 -0.823065 -2.002)
(0.641763 -1.04763 -1.79411)
(0.673025 -1.43388 -1.80783)
(-0.0864538 2.23197 2.43195)
(-0.147118 2.32283 2.52501)
(-0.133175 2.32565 2.51638)
(-0.0272641 2.26692 2.57408)
(-0.00639011 2.37524 2.55336)
(0.181534 2.36284 2.55899)
(0.153103 2.31225 2.70238)
(0.268113 2.33454 2.59638)
(0.158857 2.54299 2.58174)
(0.452243 2.35641 2.65989)
(0.407597 2.30604 2.70301)
(0.331224 2.47984 2.61895)
(0.334599 2.4969 2.55735)
(0.302909 2.59936 2.52344)
(0.615154 2.52451 2.69083)
(0.461954 2.4989 2.64218)
(0.487739 2.49617 2.58601)
(0.383727 2.58588 2.56236)
(0.260339 2.49676 2.52346)
(0.312816 2.71313 2.49168)
(0.658561 2.76839 2.67687)
(0.642846 2.80908 2.55914)
(0.545241 2.72857 2.46279)
(0.637165 2.67138 2.44692)
(0.458229 2.72259 2.4755)
(0.420744 2.65747 2.48047)
(0.0130572 2.86475 2.30023)
(0.933671 2.86307 2.73354)
(0.723023 2.82564 2.71736)
(0.674459 2.82955 2.61131)
(0.824663 2.83341 2.50596)
(0.758291 2.71213 2.53993)
(0.690296 2.71173 2.50985)
(0.569343 2.6362 2.40975)
(-0.00775991 2.85827 2.56696)
(1.0906 2.95214 2.98325)
(0.988394 2.97138 2.89597)
(1.12327 2.90919 2.77727)
(0.92508 3.01333 2.64967)
(0.880125 2.96153 2.49136)
(0.702474 2.9737 2.475)
(0.641753 2.96383 2.5369)
(0.595813 2.90671 2.21871)
(0.343036 3.15233 2.31316)
(1.39815 3.24617 2.9332)
(1.1265 3.29875 2.89276)
(1.07277 3.34803 2.87488)
(1.118 3.3094 2.73831)
(0.803891 3.31611 2.73319)
(0.989629 3.05132 2.71423)
(0.753184 3.21369 2.41261)
(0.54792 3.40742 1.97876)
(0.147654 3.04944 2.26308)
(0.16226 3.15945 2.11191)
(2.22467 2.84122 2.94911)
(1.46982 3.35273 2.74718)
(1.44104 3.39346 2.72872)
(1.2168 3.28404 2.90874)
(0.870884 3.07965 2.84302)
(1.24715 3.12009 1.99201)
(1.40584 3.36132 1.83684)
(0.702203 3.47914 2.26466)
(0.604074 3.39411 2.36507)
(0.797039 2.83257 2.42008)
(0.157489 2.6111 1.7711)
(1.54914 2.94328 2.96485)
(1.17384 2.875 3.04431)
(0.992477 2.77307 3.11542)
(0.859705 2.69964 2.74956)
(0.494854 3.01561 1.75893)
(1.33183 3.35816 0.925817)
(2.12067 3.48634 0.439084)
(1.56346 3.85756 1.02737)
(0.523338 3.46798 1.57007)
(0.0437618 3.05743 1.50016)
(0.127903 2.12832 1.70569)
(0.0736894 1.37535 0.876858)
(1.47867 2.34903 2.35507)
(0.697095 2.4809 2.65511)
(0.755443 2.71017 2.49501)
(1.10693 2.81745 2.02532)
(0.434082 3.37882 1.79361)
(1.97789 3.14806 1.15743)
(3.13141 3.3041 0.195333)
(2.8351 3.09963 -0.283313)
(0.0167775 3.51441 0.479033)
(0.00275585 2.5796 -0.163991)
(0.04691 1.35962 0.845364)
(0.629853 1.68933 0.734213)
(1.74697 1.1307 -0.362024)
(1.15709 2.0074 -0.121723)
(1.06088 2.53707 0.379129)
(1.11198 2.45814 0.733815)
(0.840918 2.93217 0.787562)
(0.503209 3.80213 1.55831)
(2.04941 3.63173 0.849416)
(3.40927 1.7642 -0.526965)