/*--------------------------------*- C++ -*----------------------------------*\
  =========                 |
  \\      /  F ield         | OpenFOAM: The Open Source CFD Toolbox
   \\    /   O peration     | Website:  https://openfoam.org
    \\  /    A nd           | Version:  7
     \\/     M anipulation  |
\*---------------------------------------------------------------------------*/
FoamFile
{
    version     2.0;
    format      ascii;
    class       volScalarField;
    location    "5";
    object      nut;
}
// * * * * * * * * * * * * * * * * * * * * * * * * * * * * * * * * * * * * * //

dimensions      [0 2 -1 0 0 0 0];

internalField   nonuniform List<scalar> 
18630
(
0.000190107
0.00115011
0.000251378
0.000438313
0.000802256
0.000968277
0.00111582
0.000641581
0.000793084
0.000522327
0.000976902
0.000933777
0.000478936
0.000855684
0.000743687
0.000590083
0.000125236
0.000892352
0.000421542
0.000160662
0.000523886
0.000689389
0.00052108
0.000946564
0.000472216
0.000726855
0.00101523
0.000371525
0.000272372
0.00060566
9.68778e-05
0.000628208
0.000419987
0.000313914
0.000700519
0.00104163
0.0005406
0.000748169
0.000521482
0.000596556
0.000508275
0.000817751
0.000511557
0.000498129
0.000468112
0.000824715
0.000428397
0.000461229
0.00081293
0.000733485
0.000247264
0.000644118
0.000288644
0.000402552
0.000454015
0.000413092
0.000697895
0.00108913
0.00112519
0.000662227
0.000758691
0.000625999
0.00048463
0.000813672
0.00134207
0.000718776
0.000615611
0.000492438
0.000736386
0.00109195
0.000150654
0.000283399
0.000262483
0.000509105
0.000426824
0.000609537
0.000296303
0.000224852
0.000581436
0.000531864
0.000224149
0.000401549
0.000421517
0.000421414
0.0005743
0.000487707
0.000594886
0.000920496
0.000769649
0.00110615
0.000705073
0.000948198
0.000655123
0.00088767
0.000571176
0.000593736
0.000493054
0.00047456
0.000776815
0.000689986
0.000434387
0.000724407
0.000730388
0.000401779
0.000216184
0.000221571
0.000372903
0.000474845
0.000736129
0.000557859
0.000456628
0.000899152
0.000202939
0.000370492
0.000913192
0.000322936
0.000348555
0.000494453
0.000318614
0.00015942
0.000723959
0.000773219
0.00030594
0.000813487
0.000721793
0.000735343
0.000758736
0.00152226
0.00101663
0.00103623
0.000843372
0.000653786
0.000625541
0.000697904
0.000612774
0.000609375
0.000742029
0.000564532
0.000582803
0.000426873
0.000906405
0.000598039
0.000400887
0.00048318
0.000877027
0.000433031
0.000297887
0.00020785
0.000137138
0.000581493
0.000569581
0.000994831
0.000260738
0.000483322
0.000504085
0.000513942
0.000293448
0.000416454
0.00100315
0.000371629
0.000193883
0.000275646
0.000219607
0.000119859
0.00024849
0.000714536
0.000591209
0.000504464
0.000560763
0.000555856
0.000744717
0.000567024
0.000777418
0.00116446
0.000623263
0.00106251
0.00180959
0.00136648
0.000959725
0.000865605
0.000882178
0.000626755
0.000751327
0.000204649
0.000506238
0.000402706
0.000809652
0.00119773
0.00114372
0.000932245
0.000372354
0.000743875
0.000657183
0.000596316
0.00027041
0.000508632
0.000599293
0.000304522
0.000445619
0.000447656
0.000118412
0.000141049
0.000416647
0.00115048
0.000483754
0.000364938
0.000237583
0.000285686
0.00046106
0.000367321
0.000345275
0.000636389
0.00093561
0.000552102
0.000245011
9.96342e-05
0.000168548
0.000145712
0.000201637
0.000139966
0.000660021
0.000897926
0.000521937
0.000514866
0.000396797
0.000674957
0.000288513
0.000532115
0.00103987
0.000951993
0.000835693
0.000964613
0.00113862
0.00201344
0.00227976
0.00131024
0.00136394
0.000809406
0.0005906
0.000262701
0.000510316
0.000862498
0.00081928
0.000675748
0.000962207
0.000546415
0.000493474
0.000690238
0.000542116
0.000487678
0.000556987
0.000663985
0.000280734
0.000383829
0.00101719
0.000344667
0.000592214
0.00052799
0.000987162
0.00052544
0.000233022
0.00037293
0.000508239
0.000358719
0.00026403
0.000198592
0.000513949
0.00117299
0.000756061
0.000363434
0.00015341
0.000276314
0.000312052
0.000258906
0.000267069
0.000507105
0.000751907
0.000835128
0.000552741
0.000224893
6.96314e-05
0.000165924
0.000174439
0.000192827
9.30261e-05
0.000129382
0.000637796
0.000514076
0.000748488
0.000239145
0.000467069
0.000597194
0.00105293
0.000586732
0.000610393
0.0008302
0.0006214
0.00073631
0.000770554
0.000921
0.00119587
0.00135273
0.00155468
0.00125038
0.00105214
0.00108274
0.00129888
0.00162981
0.000927953
0.000742954
0.000829914
0.000623575
0.000632776
0.000736035
0.000816315
0.00136105
0.000590117
0.000385675
0.000374383
0.000495792
0.000624445
0.000574214
0.000918719
0.000536681
0.000787075
0.00044143
0.000233086
0.000348837
0.000795716
0.000871807
0.000549682
0.000502935
0.000385636
0.00146248
0.000283638
0.000227938
0.000359644
0.000545205
0.000442228
0.000302186
0.000176489
0.000215019
0.000427672
0.00045024
0.000561936
0.000258476
0.000261658
0.000260002
0.000404625
0.000236405
0.000274088
0.000181645
0.000575784
0.000726171
0.000406246
0.000511131
0.00019095
9.38888e-05
0.00013014
8.84901e-05
0.000153139
0.000188346
7.58453e-05
0.00016824
0.000521629
0.000588561
0.000325317
0.000702633
0.000620576
0.000540089
0.000674518
0.000968696
0.000618341
0.00070199
0.000650019
0.00120634
0.000756872
0.00044942
0.00052325
0.000911793
0.00101938
0.000967047
0.0010659
0.00125237
0.0014042
0.00110169
0.00125498
0.00120017
0.00117639
0.000884466
0.00115155
0.00048303
0.00077711
0.00133247
0.00100417
0.000672809
0.00120295
0.000720877
0.000517511
0.000779912
0.000496239
0.000727493
0.000818739
0.000689075
0.000479391
0.000552438
0.000503494
0.00049132
0.000685712
0.000707009
0.000857581
0.000802012
0.000706222
0.00062926
0.00037423
0.000394198
0.000310245
0.000944318
0.000674304
0.000415959
0.000564528
0.000810962
0.000541436
0.000269354
0.000295443
0.000363077
0.000689108
0.000479744
0.000291715
0.000226005
0.000160921
0.000200671
0.000159181
0.000822846
0.000501482
0.000313385
0.000279055
0.000157483
0.000322752
0.000315765
0.000177824
0.000513813
0.000548944
0.000604398
0.000563897
9.57966e-05
0.000423014
0.000221551
0.000125444
0.000135236
0.000161319
0.000209773
0.00020719
7.69045e-05
8.62417e-05
0.000113625
0.000493416
0.000329984
0.000387125
0.000558711
0.000658479
0.000776919
0.00082602
0.00103182
0.00040921
0.00102766
0.000600237
0.000590597
0.000913653
0.000775551
0.000190872
0.000463156
0.00074478
0.000878484
0.000593596
0.000480456
0.000998199
0.00100851
0.00101671
0.000969284
0.000844257
0.000994278
0.00131557
0.00169175
0.00146373
0.00117881
0.00109291
0.0011578
0.0009263
0.0010898
0.000978637
0.00078106
0.000416916
0.00131304
0.00122867
0.00115162
0.000904077
0.000751853
0.000581811
0.000349771
0.000909517
0.00084707
0.000660879
0.00096298
0.000804683
0.000662344
0.00100449
0.000466351
0.000689086
0.000628201
0.000425266
0.00060651
0.000375493
0.000567593
0.000446254
0.000490791
0.000566766
0.000264375
0.000319297
0.000319163
0.00063533
0.000415274
0.000494551
0.000553426
0.000484918
0.000775424
0.000459367
0.000448564
0.000347628
0.000357082
0.000686287
0.000644933
0.000444846
0.000207562
0.000365108
0.000315864
0.00018433
0.00025722
0.00129938
0.000368736
0.00023793
0.000223566
0.000209618
0.000236611
0.000314082
0.000417774
0.000120453
0.000466873
0.000288924
0.000321147
0.000439035
0.000355607
0.000286369
0.000210423
0.000136945
0.000169825
0.000166913
0.000241065
0.000158409
0.000105014
7.23046e-05
0.000104745
0.000123795
0.000487983
0.000216525
0.000355774
0.000387476
0.000367876
0.000424015
0.000763308
0.000352862
0.00102433
0.000737206
0.000531839
0.000782958
0.000460035
0.000630037
0.000441987
0.00102074
0.000436708
0.000606404
0.000292378
0.00125471
0.00115901
0.000519264
0.000534743
0.000669393
0.00134318
0.000670078
0.000728749
0.000846121
0.000991389
0.00144641
0.00122519
0.00104534
0.000763189
0.000811505
0.00135532
0.00114333
0.000805856
0.000639542
0.00120663
0.00103697
0.00117982
0.000851099
0.000879875
0.000965405
0.000384303
0.000847113
0.00094201
0.00122118
0.00147477
0.00104204
0.0010483
0.000834969
0.00101868
0.00133758
0.000609078
0.000634639
0.00105464
0.000329484
0.000634335
0.00100248
0.000958112
0.000918174
0.000480686
0.000603156
0.000719575
0.000622182
0.000681424
0.00104541
0.000497365
0.000862098
0.000559986
0.000370115
0.00053913
0.000470275
0.000498707
0.000520651
9.46273e-05
0.000385482
0.000353889
0.000419134
0.000486489
0.00063669
0.000363497
0.000653097
0.000321216
0.000400372
0.000281829
0.000329619
0.000520937
0.000629662
0.000562034
0.00032929
0.000274497
0.000231909
0.000295046
0.00020204
0.000265088
0.000323254
0.000226006
0.000177992
0.000173979
0.000382998
0.000232157
0.000268447
0.000189882
0.000240163
0.000149315
0.000295403
0.000418432
0.000266782
0.000648676
0.000196842
0.000225801
0.000174639
0.000173284
9.95565e-05
0.0002133
0.000111991
0.000124045
6.54288e-05
8.78344e-05
0.00012613
0.000288012
0.000249305
0.000321994
0.00037272
0.000506965
0.000273129
0.000837611
0.000507568
0.000592442
0.000414604
0.000470391
0.000556242
0.000588316
0.000643772
0.000411239
0.000575321
0.000538352
0.000821782
0.000284217
0.00120833
0.000817109
0.000454405
0.000431759
0.000603071
0.00112225
0.000840223
0.000488049
0.000651676
0.000846445
0.000805006
0.000592418
0.00054947
0.000533706
0.00118803
0.000991266
0.00100361
0.00044666
0.000573404
0.00076457
0.00109597
0.00161984
0.00175848
0.00145987
0.00122722
0.000809069
0.000830649
0.000990682
0.00145143
0.00104848
0.00111504
0.000648896
0.000735726
0.000964306
0.00137988
0.000944216
0.00117071
0.00103267
0.0007088
0.000534437
0.000624117
0.000709353
0.00140677
0.000767677
0.00114139
0.000916625
0.000887389
0.000878011
0.00107772
0.000824835
0.000635442
0.000891541
0.000637924
0.00103656
0.000293228
0.00104388
0.00094897
0.000869249
0.000696691
0.00130235
0.00109375
0.000448816
0.000631429
0.00127261
0.00069443
0.000494105
0.000833773
0.000580762
0.00042634
0.000328539
0.0003133
0.000605116
0.000526685
0.000302709
0.000459194
0.000677527
0.000364488
0.000414141
0.000646947
0.000419127
0.000385977
0.000827996
0.000339666
0.000506057
0.000199596
0.000329544
0.000482477
0.000475308
0.00045226
0.00032729
0.000302576
0.000267681
0.000263593
0.000713368
0.000375623
0.000399202
0.000418965
0.000345877
0.000237842
0.000161486
0.000359604
0.00027272
0.000297702
0.00031301
0.000167214
0.000579749
0.000218318
0.000524029
0.00124554
0.000546866
0.000710958
0.000198902
0.000167651
0.000217188
0.000179538
6.66419e-05
0.000265308
0.000118505
0.000145581
7.22639e-05
0.000109887
0.000389433
0.000313225
0.000299367
0.000141675
0.000214495
0.000449416
0.000335739
0.000375443
0.000538331
0.000469172
0.000216414
0.000478491
0.000203764
0.000322899
0.000472566
0.000255304
0.000690832
0.000434675
0.000618073
0.000527197
0.000570144
0.000517512
0.000741423
0.000762681
0.00055093
0.000485359
0.000683872
0.000679786
0.000469671
0.00064814
0.000456486
0.000435271
0.000526566
0.000603288
0.00107924
0.000589237
0.000690163
0.00051285
0.00102032
0.000940163
0.000848354
0.000789586
0.000443363
0.000805001
0.000960463
0.00209471
0.00122087
0.00121749
0.000506559
0.000307747
0.0011286
0.00168065
0.00147151
0.00152008
0.000968432
0.00108924
0.00132227
0.00092474
0.000871603
0.00165524
0.0015162
0.000849021
0.00105135
0.000987677
0.000828239
0.000605991
0.00077874
0.00110814
0.00113375
0.00099922
0.000403205
0.000907588
0.000570297
0.000916783
0.000772513
0.00103138
0.000619438
0.000425804
0.00103388
0.00109593
0.00067005
0.000485221
0.000508116
0.000522192
0.00134236
0.00104405
0.000781499
0.00117825
0.000856757
0.000554746
0.00100067
0.000689773
0.000942069
0.000765523
0.00107074
0.000713392
0.000374942
0.000560277
0.00059383
0.000690668
0.000366789
0.000807676
0.00090916
0.000484513
0.000392679
0.000515879
0.000804006
0.000436172
0.000451573
0.000720344
0.000613213
0.00073024
0.000464603
0.000487014
0.000525723
0.000444777
0.000803064
0.000233464
0.000263726
0.00103092
0.000802692
0.000263422
0.000292249
0.000607845
0.000409811
0.00034801
0.000316929
0.000374674
0.000269944
0.000328682
0.000297718
0.00132634
0.000564653
0.000694895
0.000741537
0.000391891
0.000282911
0.000179152
0.000276932
0.000351712
0.000322597
0.000326022
0.000180345
0.000430859
0.000270409
0.000694829
0.00126838
0.000452703
0.000505293
0.000753209
0.000127295
0.000187131
0.000381566
0.000162063
8.70323e-05
0.000245731
9.58171e-05
0.000207012
0.000101288
0.000121113
0.000136489
0.00020526
0.000259
0.000118868
0.000224753
0.000383877
0.000337965
0.000399779
0.000187484
0.000274997
0.00066597
0.000343564
0.000424387
0.000518926
0.00058164
0.000359516
0.000422625
0.000482619
0.000861974
0.000531179
0.000288351
0.000461849
0.00049747
0.000590534
0.0009406
0.000436187
0.00049647
0.000562843
0.000677511
0.00043351
0.00100571
0.0006829
0.000563942
0.000518109
0.000337931
0.000721662
0.00102648
0.000847141
0.000486558
0.000466658
0.000618096
0.000425158
0.000674289
0.00115987
0.000551477
0.000436725
0.000297788
0.000602242
0.00130074
0.00111062
0.00164966
0.000610332
0.000556255
0.000603992
0.00113076
0.00141038
0.00217439
0.00171406
0.0015613
0.00128363
0.000429818
0.000574282
0.00142427
0.00181102
0.00137621
0.00147786
0.000824737
0.00108001
0.00132057
0.00112009
0.000747569
0.000825317
0.00101617
0.000738507
0.000554723
0.000799064
0.000662738
0.00119271
0.000617635
0.000408298
0.000661584
0.00128602
0.00129926
0.00111773
0.00137185
0.00106401
0.000954254
0.000810916
0.000780518
0.000632337
0.000595915
0.000531778
0.000741325
0.00065405
0.000727185
0.000588227
0.000394393
0.000550405
0.000427492
0.000889427
0.0013528
0.000820389
0.000226307
0.00122545
0.000781521
0.000664603
0.00143093
0.000969447
0.00070157
0.00019025
0.000628037
0.000687965
0.000537157
0.000468206
0.000581441
0.000452926
0.000497323
0.00101412
0.00109494
0.000718917
0.000527037
0.000756385
0.000593777
0.000616494
0.000419581
0.000590012
0.000455029
0.000769748
0.000527859
0.000504984
0.000670367
0.000472709
0.000525316
0.000740079
0.00148423
0.000119364
0.000351324
0.00145061
0.000639712
0.000318987
0.000231243
0.000369432
0.00039223
0.000287223
0.000356913
0.000236302
0.000153632
0.000241384
0.000325711
0.00122517
0.000837322
0.000494684
0.000493713
0.00107725
0.00026868
0.000271492
0.000221452
0.000221378
0.000272655
0.000280381
0.000257786
0.00030942
0.000537133
0.000221057
0.000542981
0.0009404
0.000557193
0.000333226
0.000300999
0.000732893
0.000146487
0.000226766
0.000319049
0.000197878
5.55931e-05
5.10044e-05
0.000109743
0.000166958
0.000141947
6.91201e-05
0.000151947
0.00024463
0.000277394
0.000180592
0.000169198
0.000384526
0.000482394
0.000472229
0.00063421
0.000215844
0.000323235
0.000520473
0.000292814
0.000281201
0.000489465
0.000375366
0.000477977
0.00029373
0.000612276
0.000398445
0.000615083
0.000395919
0.000294008
0.000455119
0.00081017
0.000342885
0.000668841
0.00020482
0.000339844
0.000542341
0.000432047
0.000609177
0.00089454
0.000490647
0.000453723
0.000580349
0.000609968
0.000267885
0.000355386
0.000916752
0.000586284
0.000450448
0.000591621
0.000321794
0.000436329
0.000721671
0.00100802
0.000466792
0.000516775
0.000726082
0.000294985
0.000750466
0.00081755
0.00127463
0.00127033
0.000550842
0.000334129
0.000823696
0.000677091
0.00144862
0.00169389
0.00253836
0.00293856
0.000795395
0.000364987
0.000941042
0.00144542
0.00149172
0.00187603
0.00188216
0.00106503
0.00129974
0.00111021
0.000661691
0.000906464
0.00132665
0.00228189
0.00152466
0.000504375
0.000761817
0.000597099
0.000789696
0.00112048
0.000917744
0.00128301
0.00082159
0.000939696
0.00151293
0.000602694
0.000129109
0.000806803
0.00178257
0.000900511
0.000606755
0.000755007
0.000338315
0.00109537
0.00118803
0.00125756
0.000633457
0.000712212
0.000863768
0.000882713
0.000629211
0.000952878
0.00095785
0.00048542
0.000847936
0.000690805
0.00125349
0.000660143
0.000673578
0.000851729
0.000715319
0.000568642
0.000394745
0.000947915
0.000939214
0.00059467
0.000792768
0.00083027
0.00082139
0.000702363
0.000671401
0.000528284
0.000278765
0.000446913
0.000314284
0.000402413
0.000449027
0.000512629
0.000773382
0.000370476
0.000336715
0.000836804
0.00108789
0.000483621
0.000524045
0.000655659
0.00081802
0.000540784
0.000469195
0.000393439
0.000668648
0.0004093
0.000962982
0.000389954
0.000572632
0.000649344
0.000464009
0.000403261
0.000850345
0.000980302
0.000521964
0.000254969
0.000739209
0.00077679
0.000533093
0.000408999
0.000357139
0.000357676
0.00051876
0.000327666
0.000455957
0.000222262
0.000320089
0.00025241
0.000481955
0.00111633
0.000748953
0.000418
0.000880461
0.000354075
0.000955848
0.000348393
0.000216897
0.000264943
0.00034099
0.000281769
0.000278176
0.000408661
0.000183257
0.000265625
0.000135149
0.000599411
0.000932085
0.000695767
0.000287142
0.000410145
0.000230174
0.000572236
0.000192887
0.000232215
0.000289162
0.000216394
0.000172242
0.000171716
0.000209078
9.23411e-05
0.000115858
0.000103707
0.000176973
0.000187812
0.00026864
8.60112e-05
0.000141079
0.000238389
8.64292e-05
0.000684993
0.000495221
0.000671343
0.000342883
0.000586898
0.000466099
0.000262609
0.000384434
0.000500023
0.000478364
0.000458422
0.000434621
0.000630089
0.000421713
0.000410333
0.0004468
0.000285213
0.000331914
0.000682843
0.000337544
0.000557354
0.000556115
0.000427788
0.000278019
0.0004005
0.000310027
0.000288315
0.000781206
0.000372563
0.00044151
0.000395314
0.000481028
0.000395296
0.000431459
0.000867227
0.000430502
0.000278762
0.000559478
0.000444015
0.000329901
0.000688229
0.000943726
0.000705276
0.000462538
0.000443631
0.000220049
0.000256528
0.000563762
0.00039405
0.000559138
0.00070769
0.000766387
0.000432072
0.000349088
0.000877096
0.000818718
0.0011786
0.000855168
0.00289223
0.00100948
0.000592707
0.000543923
0.00102733
0.00104809
0.00192225
0.00146634
0.00209982
0.00200319
0.0016488
0.00111327
0.000257499
0.00103379
0.00166919
0.00115097
0.00213617
0.00141056
0.00181642
0.000938359
0.000867373
0.0006236
0.000690617
0.000853327
0.00126047
0.00162341
0.00114546
0.00142159
0.000895678
0.000563051
0.000742324
0.000677444
0.000466859
0.000689771
0.00118162
0.00142508
0.00141019
0.000999851
0.000811771
0.000713754
0.000346882
0.00057417
0.000640645
0.000864216
0.000852613
0.000704499
0.000179287
0.00120774
0.000724319
0.000534187
0.000503097
0.00114481
0.000855397
0.000860814
0.000938226
0.00126819
0.000762593
0.000862573
0.00106361
0.000982776
0.000386218
0.000896269
0.000889963
0.000601429
0.000673736
0.00065592
0.000698063
0.000639344
0.000846616
0.000796771
0.00108857
0.000856556
0.000803117
0.00122705
0.000542999
0.000633085
0.000690311
0.000535089
0.000324716
0.000740815
0.000397233
0.000453243
0.000479848
0.00076142
0.000903106
0.000425498
0.000365331
0.000753536
0.000975679
0.000705958
0.000562837
0.000672173
0.000710342
0.000749953
0.000788379
0.000701328
0.000323262
0.000647337
0.000572295
0.000752905
0.000650228
0.000512038
0.000591533
0.000555909
0.000356384
0.000645388
0.000722591
0.000629004
0.00051148
0.000420343
0.000476437
0.00118388
0.000653307
0.000369348
0.000293107
0.000270358
0.000666109
0.00030292
0.000531496
0.000363221
0.000344308
0.00046462
0.00047092
0.000825081
0.000720622
0.000360942
0.000677974
0.000911384
0.000366933
0.000411602
0.000459197
0.000268666
0.000248478
0.000349129
0.000286993
0.000320988
0.000271548
0.000178528
0.000252166
0.000180295
0.00060532
0.000677998
0.000819326
0.00024884
0.000419768
0.000464129
0.000275437
0.000405873
0.00018128
0.000381214
0.000209361
0.000190602
0.000196281
0.000332351
0.000155438
0.000117229
0.000123305
8.75612e-05
0.000169872
0.000198654
0.000257339
0.000131647
0.000222318
0.000212483
0.000143209
0.000117206
0.00114851
0.000528385
0.000711018
0.000438974
0.00046119
0.000486685
0.000720886
0.000368355
0.000374069
0.000399455
0.000552841
0.00033019
0.000630186
0.00066245
0.000450178
0.000647916
0.000101812
0.000289873
0.000423379
0.000244265
0.000557984
0.000977826
0.000408724
0.00030926
0.000587308
0.000228631
0.000629247
0.00144489
0.000334137
0.000597791
0.00031137
0.000322984
0.000553696
0.000580149
0.000832521
0.000861831
0.000875951
0.000339849
0.000614519
0.000473856
0.000594054
0.000561843
0.001085
0.000605449
0.000684097
0.000370677
0.000580807
0.000578638
0.000238691
0.000344027
0.000404552
0.00143238
0.000560571
0.000483891
0.000444941
0.000793305
0.000516276
0.000252778
0.000698087
0.00101241
0.00173447
0.000732489
0.000544749
0.000456154
0.000601121
0.000865075
0.000997769
0.00112101
0.00196504
0.00256374
0.00158671
0.000904403
0.000248252
0.000766864
0.00104508
0.00079447
0.00174055
0.00237801
0.00223481
0.0015417
0.00095138
0.00115503
0.000450008
0.000669734
0.00128306
0.00142847
0.00171812
0.00144651
0.000900672
0.000678384
0.000581749
0.000720835
0.00086343
0.000828418
0.000949679
0.0013476
0.00135576
0.00163773
0.00103905
0.000505306
0.000761399
0.000557368
0.000925544
0.000595165
0.000436986
0.00055419
0.000548435
0.000779851
0.00144888
0.00201343
0.00136563
0.000568007
0.000929103
0.000780094
0.00132669
0.000948692
0.000431477
0.000663431
0.000612951
0.000743723
0.000487446
0.00109184
0.00107151
0.000314325
0.000938087
0.00145091
0.000972661
0.000838972
0.000710446
0.00115914
0.000765627
0.000998774
0.000901626
0.000745425
0.000364803
0.000566638
0.000788288
0.000402572
0.000331162
0.000799975
0.00082166
0.000480889
0.00040226
0.000577759
0.000801601
0.00136168
0.0011229
0.000842342
0.0009011
0.000507598
0.000474736
0.00100145
0.00100604
0.000958418
0.000812274
0.000616538
0.00057107
0.000577029
0.000565392
0.000827047
0.0010018
0.000647406
0.000772834
0.0010004
0.00079949
0.000720747
0.00030417
0.00106459
0.000837388
0.000636567
0.00119601
0.00113123
0.000970272
0.000404739
0.000398121
0.000694844
0.000463792
0.00071157
0.000398334
0.000776633
0.000612694
0.000284597
0.00046837
0.000738502
0.000635247
0.000543837
0.000780565
0.000102648
0.000692151
0.000492047
0.000488278
0.000293829
0.000317625
0.00024386
0.000542138
0.000392431
0.000437294
0.000467528
0.000345572
0.000201962
0.000499898
0.000582603
0.000767132
0.000386841
0.00057088
0.00058796
0.000269232
0.000581459
0.00102025
0.000630323
0.000298875
0.000163186
0.000237597
0.000200239
0.000223354
0.0002051
0.000230594
0.000325745
0.00013457
0.00059931
0.000743294
0.000872777
0.000289637
0.00037621
0.00050328
0.00024378
0.000171215
0.000277085
0.000233754
0.000363008
0.000264331
9.58616e-05
0.000197952
0.000120806
8.30091e-05
0.000136039
7.75174e-05
6.64227e-05
0.000140122
0.000181412
0.000254778
0.000180775
0.000228093
0.000147071
0.000131345
0.000106215
0.000116983
0.00108345
0.00103944
0.00102112
0.000549742
0.000500966
0.000702057
0.000698468
0.000629734
0.000443093
0.000421796
0.000275722
0.00065129
0.000344417
0.000405823
0.000345613
0.000302037
0.000333359
0.000602591
0.00042399
0.000452921
0.000508532
0.000578284
0.000321959
0.000882574
0.000186534
0.000678468
0.000289796
0.000491524
0.000683283
0.000450276
0.000527878
0.000549078
0.000815012
0.000483676
0.00112098
0.00079841
0.000635613
0.000649118
0.000267617
0.000206265
0.000385612
0.000963482
0.00108285
0.00124842
0.000517613
0.000554744
0.000495136
0.00046918
0.000722289
0.000612516
0.000632293
0.00125008
0.00128741
0.000482075
0.00033219
0.000282782
0.000578762
0.000422034
0.000601452
0.000364507
0.000772283
0.00133684
0.00161267
0.000471478
0.000290191
0.000497929
0.000621367
0.000647447
0.000760642
0.000654881
0.00108438
0.00175957
0.00220206
0.000627875
0.000467939
0.000511075
0.000371908
0.00119013
0.00104468
0.00227687
0.00113404
0.00237486
0.00225414
0.00109981
0.00055248
0.000481349
0.000939153
0.00116611
0.00156371
0.00136977
0.00237902
0.00134371
0.00164014
0.000494701
0.000867475
0.00083337
0.000320412
0.00119371
0.00100423
0.00108731
0.00157953
0.00147021
0.00189948
0.00126555
0.00101883
0.000953979
0.000849245
0.00101319
0.000976496
0.00104501
0.00192077
0.00174353
0.00163592
0.000661642
0.000744491
0.000743584
0.000778019
0.00168313
0.00109116
0.000361082
0.000746335
0.000742699
0.000699996
0.00135251
0.00139381
0.000727417
0.0011647
0.000870243
0.00113581
0.000567817
0.00113649
0.000446327
0.00108678
0.0010985
0.000324539
0.0005937
0.000518499
0.000705408
0.00117365
0.000803396
0.000580773
0.00115015
0.00116859
0.0013482
0.00101957
0.00100774
0.000902921
0.00127086
0.000922958
0.000699757
0.000840157
0.000718622
0.000567871
0.00113955
0.000764185
0.000602995
0.000455949
0.00105977
0.000561087
0.000525774
0.00101955
0.000615079
0.000794523
0.000785871
0.00113202
0.000734317
0.000811535
0.000616513
0.000423576
0.000680646
0.000538072
0.000652175
0.00101666
0.000331063
0.000938452
0.000842311
0.000654918
0.00078465
0.00101224
0.000427948
0.000651971
0.000892889
0.000724685
0.000790805
0.000656494
0.000510094
0.000794599
0.000714161
0.000496515
0.00125584
0.00133124
0.000730304
0.000473488
0.00048493
0.000212634
0.000594264
0.000435682
0.000545498
0.000485912
0.000939629
0.000576999
0.000403243
0.000711271
0.000579799
0.000518293
0.000552784
0.00080221
0.000522856
0.000534163
0.00143102
0.000716193
0.000269314
0.000313583
0.000381421
0.000212784
0.000268912
0.000527909
0.000289199
0.000536731
0.000377932
0.000294494
0.000592173
0.000551478
0.000668432
0.000408087
0.000441867
0.000549831
0.000420561
0.000473784
0.000959821
0.000703592
0.000359747
0.000245568
0.000164905
0.00018775
0.000353159
0.000236711
0.000304108
0.000201382
0.000263459
0.000130651
0.000557155
0.000616134
0.000627294
0.000269911
0.000271204
0.000509754
0.000225818
0.000322511
0.000234126
0.000383697
0.000164826
0.000244359
0.000436731
0.000235389
0.000241267
8.66007e-05
0.000160111
0.000119309
9.44637e-05
0.000160477
0.000130762
0.000191414
0.000274431
0.00017761
0.000273099
0.000160359
8.42446e-05
0.000100478
0.000124513
0.000220013
0.00025758
0.00304973
0.00131632
0.000945381
0.00109471
0.000946969
0.000905423
0.000687684
0.000683213
0.000690338
0.00055224
0.000307201
0.000496405
0.000698574
0.000586807
0.00039858
0.000358354
0.00046975
0.000501561
0.000501526
0.000416086
0.000294081
0.000219702
0.000504605
0.000505056
0.000344792
0.00043137
0.00028099
0.000730345
0.000644531
0.000514797
0.000498099
0.000779933
0.000477703
0.000359453
0.000883397
0.00175206
0.000829296
0.000345249
0.000513108
0.000231658
0.00111543
0.00133089
0.00124736
0.00160658
0.000242029
0.00149258
0.000670024
0.000387725
0.000724788
0.000755725
0.00130405
0.00116689
0.000957564
0.00126308
0.000444365
0.000727714
0.000497972
0.000810806
0.000660681
0.0006246
0.00074241
0.000947199
0.00126894
0.0010303
0.000544867
0.00031669
0.000588907
0.000639406
0.000682597
0.00044906
0.000544309
0.000587706
0.00110692
0.000982183
0.00142423
0.000604635
0.00054588
0.000452392
0.000668887
0.000278128
0.000892496
0.0012615
0.00123483
0.00181091
0.00136224
0.00184831
0.000498401
0.000641723
0.000427064
0.000879558
0.00115217
0.000861988
0.00192716
0.00197183
0.00201734
0.00121042
0.0017513
0.00133021
0.000506851
0.000802094
0.00104064
0.00118157
0.00143591
0.00144805
0.00241734
0.00154527
0.00095789
0.000786742
0.00108891
0.000889191
0.000602179
0.000742352
0.00150891
0.0013127
0.00166429
0.00152369
0.00146164
0.000902375
0.00102365
0.00092514
0.00128611
0.00124593
0.000833952
0.000836213
0.000634765
0.00120193
0.00174595
0.00125815
0.000937687
0.000851555
0.00062492
0.000645842
0.00120561
0.00139984
0.00164833
0.000733297
0.000668519
0.00110742
0.00109431
0.000617184
0.00171198
0.00124429
0.000795511
0.00114756
0.000664277
0.000813984
0.000683803
0.000505422
0.00103717
0.00150377
0.0010695
0.000543147
0.000722968
0.000735571
0.000800975
0.000963607
0.00129638
0.000628177
0.000615129
0.000898503
0.000929278
0.00140931
0.00126319
0.000637504
0.00139246
0.000994795
0.000947441
0.000679136
0.000689842
0.000979485
0.000690448
0.00100876
0.00070317
0.000826004
0.000424928
0.00111017
0.00117134
0.000945284
0.00113271
0.00100179
0.000623323
0.000472076
0.000271263
0.00087963
0.000667872
0.000708427
0.000631475
0.000638379
0.000494265
0.000745786
0.000716169
0.000731248
0.000360054
0.00102817
0.00125778
0.000352985
0.000941287
0.000620156
0.000636368
0.000314848
0.000934993
0.000898998
0.000710724
0.000895501
0.000626101
0.000677315
0.000676947
0.000476482
0.000882208
0.000453693
0.00052926
0.000705549
0.000426046
0.00103824
0.000488749
0.000346883
0.000612739
0.000427516
0.000526352
0.000618092
0.00062928
0.000538503
0.000504047
0.000438024
0.000349514
0.000494845
0.000553565
0.000527675
0.000365528
0.000445462
0.00113457
0.00107016
0.000398115
0.000307791
0.000265107
0.000360736
0.000159322
0.000167547
0.00037945
0.00057628
0.000399478
0.000389562
0.000345188
0.000885543
0.000641222
0.000355897
0.000409366
0.000367576
0.000440177
0.000350692
0.000360854
0.000484785
0.000858794
0.000349613
0.000371587
0.000257737
0.00016277
0.00022688
0.000303691
0.000434875
0.000279739
0.000142876
0.000178277
0.000146663
0.00060185
0.000446762
0.000670094
0.000328597
0.000216254
0.000488699
0.000201034
0.000354838
0.000161666
0.000930342
0.000282794
0.000164282
0.000249168
0.000326605
0.000379224
0.000278526
9.08447e-05
0.000119724
0.000173617
0.000116682
0.000148075
0.000239484
0.000141819
0.000189096
0.000228083
0.000138649
0.000306924
0.000129662
8.86982e-05
0.00010595
0.000130843
0.000179841
0.000457127
0.000463266
0.00300031
0.00312939
0.00121999
0.0011791
0.00119502
0.00112259
0.000931777
0.00104997
0.000880159
0.000535289
0.000502466
0.000764469
0.00060457
0.000422196
0.000656331
0.000536226
0.000532318
0.000596194
0.000466883
0.000503964
0.000492939
0.000696281
0.000592256
0.00040353
0.000338551
0.000300334
0.000354558
0.000450616
0.00101543
0.000560635
0.000874827
0.000415719
0.000292169
0.000536444
0.000478972
0.000515378
0.000526007
0.000486344
0.000887793
0.000628455
0.000527891
0.000348833
0.000985271
0.00136424
0.000383628
0.000634964
0.000350595
0.000620892
0.000731766
0.00148215
0.00134373
0.00161765
0.00107064
0.00105533
0.000833337
0.000789524
0.000559018
0.000791168
0.00108669
0.00106437
0.000759823
0.000950251
0.00129716
0.00125632
0.000755876
0.000558735
0.000703515
0.000381011
0.000837791
0.000499491
0.0006604
0.000635844
0.00137458
0.00120149
0.00176271
0.000517287
0.000179904
0.000624291
0.000273167
0.00056741
0.000581473
0.000714759
0.000910552
0.00147159
0.00140841
0.00124194