/*--------------------------------*- C++ -*----------------------------------*\
  =========                 |
  \\      /  F ield         | OpenFOAM: The Open Source CFD Toolbox
   \\    /   O peration     | Website:  https://openfoam.org
    \\  /    A nd           | Version:  7
     \\/     M anipulation  |
\*---------------------------------------------------------------------------*/
FoamFile
{
    version     2.0;
    format      ascii;
    class       volVectorField;
    location    "5";
    object      U_0;
}
// * * * * * * * * * * * * * * * * * * * * * * * * * * * * * * * * * * * * * //

dimensions      [0 1 -1 0 0 0 0];

internalField   nonuniform List<vector> 
18630
(
(-1.54981 0.397411 -1.06583)
(-2.12804 0.649592 -0.93171)
(-1.61021 0.395053 -1.07037)
(-1.51772 1.16481 -0.257236)
(-1.99187 0.938486 -2.14072)
(-2.15219 0.61731 -1.27828)
(-2.35226 1.04556 -1.57798)
(-1.53173 0.347683 -1.21013)
(-1.49396 1.05663 -0.373523)
(-1.6032 1.69472 0.516215)
(-2.08537 -0.0554579 -1.00703)
(-2.07565 0.600225 -2.19319)
(-2.09774 0.292081 -1.99896)
(-2.24825 0.63464 -1.5201)
(-2.31206 0.767905 -1.81971)
(-1.95765 1.66054 -0.846784)
(-1.49298 0.334084 -1.24949)
(-1.42109 0.94664 -0.614771)
(-1.59183 1.67183 0.596807)
(-1.35665 1.27008 -0.018246)
(-2.72275 -0.0889067 0.0267579)
(-1.98019 -0.508064 -0.960176)
(-2.09027 -0.216812 -0.911861)
(-2.05346 0.333717 -2.32119)
(-2.15188 0.292129 -1.93999)
(-1.74805 0.527229 -1.67727)
(-2.28561 0.608538 -1.7975)
(-2.29532 0.713709 -1.87959)
(-2.01042 1.72125 -0.760825)
(-1.57141 1.48292 -0.893538)
(-1.51038 0.333383 -1.25903)
(-1.38803 0.917308 -0.725658)
(-1.57029 1.63878 0.675914)
(-1.39796 1.3007 -0.0413314)
(-1.01692 1.6555 -0.874386)
(-3.23402 0.823628 0.989758)
(-2.5968 -0.0607372 0.0669124)
(-2.25575 -0.0257573 -0.533257)
(-1.93137 -0.686726 -0.974569)
(-2.17941 -0.411582 -0.870242)
(-2.01684 0.56518 -1.40586)
(-2.15261 0.0778609 -2.29794)
(-2.1846 0.130197 -1.89883)
(-1.71 1.15397 -1.56456)
(-1.61686 1.31272 -1.24693)
(-2.22223 0.206972 -2.10713)
(-2.24764 0.56613 -1.94098)
(-1.98368 1.70285 -0.733957)
(-1.61293 1.6548 -0.693237)
(-1.12916 1.74561 -1.12106)
(-1.50414 0.339881 -1.28745)
(-1.3731 0.906126 -0.862214)
(-1.53647 1.57614 0.758277)
(-1.4023 1.32652 -0.14503)
(-1.02262 1.66753 -1.00506)
(-0.831938 2.05754 -0.0642523)
(-3.43752 0.33699 1.69212)
(-3.07999 -0.0214447 0.885582)
(-2.77592 0.184052 1.07762)
(-2.50097 -0.347922 -0.0986908)
(-2.31165 -0.0170923 -0.496124)
(-2.10132 0.124431 -1.09407)
(-1.88966 -0.93686 -0.973114)
(-2.13706 -0.345543 -1.21124)
(-2.29031 0.101457 -1.33864)
(-1.96287 0.459194 -1.35031)
(-2.2418 -0.1323 -2.22644)
(-2.13507 -0.0736344 -1.92736)
(-1.95367 0.564426 -1.64204)
(-1.77772 0.777869 -1.52535)
(-1.60907 1.20993 -1.36359)
(-2.22845 0.20034 -2.13707)
(-2.18626 0.430588 -1.94689)
(-1.93383 1.57414 -0.819077)
(-1.72614 1.72984 -0.490404)
(-1.15757 1.61542 -1.28462)
(-0.922823 1.7031 -0.824009)
(-1.4731 0.344614 -1.33247)
(-1.33808 0.897465 -1.02853)
(-1.49981 1.52944 0.690154)
(-1.40458 1.3407 -0.158784)
(-1.04443 1.74654 -1.01538)
(-0.827176 2.04631 -0.137116)
(-0.448348 1.68744 -0.550082)
(-3.40127 0.585797 1.55535)
(-3.50902 0.434756 1.33182)
(-3.18086 0.85898 1.76577)
(-2.69903 -0.370631 1.32657)
(-2.70177 0.0136162 1.23968)
(-2.5358 0.34823 0.0705766)
(-2.41514 -0.550391 -0.0235959)
(-2.29552 -0.256224 -0.641946)
(-2.25196 0.209911 -0.999372)
(-2.08982 0.196696 -1.22839)
(-1.88122 -1.06965 -0.990646)
(-2.32037 -0.430596 -1.14949)
(-1.93147 0.449561 -2.07965)
(-1.90315 0.820311 -1.38337)
(-1.40899 1.32869 -1.45112)
(-2.25963 -0.182224 -2.18454)
(-2.11962 -0.184256 -1.93051)
(-1.85947 0.558322 -1.7159)
(-1.5295 0.787756 -1.86839)
(-1.51999 1.17297 -1.35244)
(-0.886034 1.73273 -0.897436)
(-2.22655 0.1742 -2.13342)
(-2.26546 0.550184 -1.74346)
(-1.92409 1.51511 -0.883735)
(-1.71604 1.59631 -0.599555)
(-1.11777 1.45204 -1.43071)
(-0.949425 1.76034 -0.744081)
(-0.583439 1.34054 -1.23291)
(-1.46052 0.321863 -1.36305)
(-1.3119 0.883432 -1.10287)
(-1.47809 1.52741 0.497174)
(-1.43891 1.37317 -0.114707)
(-1.08685 1.83157 -0.992422)
(-0.796264 1.9763 -0.221262)
(-0.45478 1.66984 -0.619672)
(0.144013 1.47141 -0.628655)
(-3.1091 0.502487 1.93939)
(-3.31247 0.247018 1.70359)
(-3.50243 0.772406 1.67142)
(-3.32236 0.0535166 1.51175)
(-3.15836 0.454518 1.73723)
(-2.76194 0.449481 1.26662)
(-2.62523 -0.464167 1.42297)
(-2.70522 -0.129111 1.07126)
(-2.59749 0.218706 0.121497)
(-2.36633 0.511047 -0.174617)
(-2.26806 -0.806442 -0.00212786)
(-2.26818 -0.480407 -0.66266)
(-2.28976 0.19094 -1.20534)
(-2.11388 0.645717 -1.33574)
(-2.01011 0.771472 -1.24199)
(-1.81374 -1.24022 -1.11556)
(-2.32165 -0.479249 -1.33306)
(-2.49486 0.189436 -1.57957)
(-1.9957 0.434338 -1.61758)
(-1.45308 1.50232 -1.27644)
(-1.06871 1.65456 -0.808452)
(-2.26234 -0.495576 -2.09516)
(-2.0641 -0.278988 -2.02114)
(-1.77837 0.368246 -1.86208)
(-1.88004 1.01127 -1.38445)
(-1.45291 0.961897 -1.38273)
(-0.878276 1.65463 -0.861751)
(-0.512832 1.5956 -1.11483)
(-2.22862 0.111796 -2.13944)
(-2.22728 0.508321 -1.80822)
(-1.94408 1.54924 -0.90807)
(-1.64656 1.35222 -0.814497)
(-1.10527 1.30704 -1.48242)
(-0.985583 1.85066 -0.542553)
(-0.624799 1.47628 -1.07287)
(0.0294637 1.57447 -1.02942)
(-1.43325 0.328401 -1.40298)
(-1.29241 0.911202 -1.11958)
(-1.48066 1.56603 0.262718)
(-1.49151 1.42525 -0.0959525)
(-1.1173 1.86508 -1.02176)
(-0.757368 1.88865 -0.277341)
(-0.467195 1.66523 -0.672271)
(0.155495 1.48299 -0.618851)
(0.58247 1.66601 -0.543865)
(-3.07378 0.464087 2.09149)
(-3.15814 0.453742 1.9635)
(-3.27645 0.795348 1.84749)
(-3.25022 0.141236 1.98455)
(-3.26469 0.713593 1.89292)
(-2.91118 1.00862 1.71681)
(-3.16073 -0.216525 1.79392)
(-2.97097 0.773741 1.33207)
(-2.71418 0.480828 1.06311)
(-2.30196 0.676862 0.979314)
(-2.65744 -0.63218 1.36562)
(-2.65232 -0.223297 0.0875375)
(-2.79413 0.248404 -0.314365)
(-2.44145 -0.149779 -0.391977)
(-2.09511 0.145969 -1.05483)
(-2.10253 -1.00723 -0.216822)
(-2.37138 -0.435981 -0.602422)
(-2.32439 -0.021578 -1.24141)
(-2.40187 0.26189 -1.19641)
(-2.01578 0.513286 -1.30965)
(-1.58084 1.56852 -0.572501)
(-2.0134 -1.20367 -1.22606)
(-2.40465 -0.47738 -1.50112)
(-2.35378 0.156174 -1.66674)
(-1.87264 0.723429 -1.73918)
(-1.47509 1.40449 -1.34401)
(-0.902481 1.44698 -1.21659)
(-1.16624 1.4873 -0.871717)
(-2.26385 -0.592788 -2.06874)
(-2.07921 -0.535112 -2.01931)
(-1.82981 0.267095 -1.92371)
(-1.87963 1.1313 -1.29546)
(-1.33229 0.889768 -1.40066)
(-0.868588 1.57807 -0.931605)
(-0.454145 1.4825 -1.16449)
(0.106193 0.735051 -1.74644)
(-2.19358 0.00660198 -2.15218)
(-2.3544 0.699931 -1.62327)
(-1.90904 1.39085 -1.10437)
(-1.54979 1.12371 -1.05927)
(-1.12825 1.27698 -1.3868)
(-0.997617 1.87099 -0.428315)
(-0.665056 1.55599 -0.990648)
(0.00414504 1.3935 -1.19663)
(0.326026 1.38635 -1.04851)
(-1.42272 0.33595 -1.46036)
(-1.32704 0.999443 -1.13807)
(-1.50659 1.61828 0.0496107)
(-1.53036 1.45481 -0.187934)
(-1.09845 1.82756 -1.03738)
(-0.756411 1.88067 -0.292606)
(-0.467937 1.65601 -0.701288)
(0.127802 1.50186 -0.58292)
(0.579073 1.68024 -0.583224)
(0.924756 1.13337 -0.710422)
(-2.9729 0.241192 2.30747)
(-2.91808 0.38649 2.53977)
(-3.11278 0.911616 1.91539)
(-3.04532 0.307921 2.35992)
(-3.22011 0.725368 1.87295)
(-2.93545 1.24002 1.89237)
(-3.35983 0.0889443 1.96615)
(-3.39361 0.552161 1.37913)
(-2.95394 0.815909 1.40515)
(-2.44803 1.04855 0.801855)
(-3.02336 -0.359442 1.9359)
(-2.86874 0.32026 1.31631)
(-2.75811 0.316777 1.15967)
(-2.52993 0.578509 -0.0908994)
(-2.34735 0.618133 0.289326)
(-2.75703 -0.625927 1.0358)
(-2.6356 -0.363981 -0.423313)
(-2.75745 -0.505665 -0.395156)
(-2.51596 0.537256 -0.68857)
(-2.22846 0.222974 -1.00377)
(-1.93692 0.811913 -0.899709)
(-1.96154 -1.18408 -0.375363)
(-2.47646 -0.507735 -0.666244)
(-2.50864 -0.0133333 -1.2162)
(-2.19431 0.349308 -1.40893)
(-2.10395 0.468457 -1.16772)
(-1.76342 1.14866 -0.672564)
(-1.60679 1.29657 -0.952576)
(-1.91774 -1.46158 -1.44585)
(-2.41746 -0.425357 -2.06478)
(-2.09722 -0.135142 -2.01899)
(-2.02672 0.856678 -1.59732)
(-1.44569 1.31196 -1.40213)
(-1.00022 1.22149 -1.37299)
(-1.09626 1.25266 -1.24313)
(-1.07007 1.39945 -0.814263)
(-2.26952 -0.790105 -2.02205)
(-2.11305 -0.332837 -2.04306)
(-1.87122 0.224974 -1.97954)
(-1.82941 1.2302 -1.38219)
(-1.36122 1.03885 -1.19327)
(-0.8817 1.48101 -1.00686)
(-0.526 1.36162 -1.26295)
(0.090078 0.743187 -1.64616)
(0.390845 0.957251 -1.33022)
(-2.18481 0.00261544 -2.15635)
(-2.36688 0.580653 -1.74843)
(-1.7258 1.07969 -1.51921)
(-1.59626 1.21346 -0.998896)
(-1.15684 1.36076 -1.23462)
(-0.985645 1.84288 -0.393161)
(-0.70565 1.53484 -0.982824)
(-0.0273113 1.39356 -1.17829)
(0.326248 1.36256 -1.06018)
(0.674156 1.06379 -1.2089)
(-1.45631 0.395378 -1.51217)
(-1.40038 1.11612 -1.17703)
(-1.53779 1.66915 -0.150459)
(-1.55267 1.47234 -0.320332)
(-1.06994 1.76365 -1.02743)
(-0.767904 1.91193 -0.307032)
(-0.470372 1.62691 -0.735218)
(0.124224 1.52444 -0.554574)
(0.580979 1.6701 -0.609953)
(0.919945 1.12996 -0.71055)
(1.16012 0.800717 -0.84976)
(-2.63069 0.362346 2.42081)
(-2.84382 -0.00956197 2.41665)
(-2.90455 0.656484 2.15034)
(-3.4318 -0.0635259 1.85527)
(-3.17171 0.832277 1.92581)
(-2.92344 1.2237 2.11205)
(-3.09921 -0.216535 2.32267)
(-3.32743 0.926041 1.67517)
(-2.96586 1.18681 1.74341)
(-2.28909 1.3792 1.4927)
(-3.31573 0.0131205 1.9174)
(-3.19578 0.280186 1.61454)
(-2.73754 0.639972 1.59995)
(-2.50719 0.873432 0.565092)
(-2.20708 0.525214 0.390279)
(-3.06251 -0.260501 1.48242)
(-2.99188 0.177416 0.71548)
(-2.82656 -0.0490214 0.637956)
(-2.67439 0.293057 -0.260239)
(-1.90154 0.50614 -1.98067)
(-2.14084 0.906921 -1.43322)
(-2.57893 -1.16149 0.756088)
(-2.76442 -0.365564 -0.877635)
(-2.77595 -0.33665 -0.526918)
(-2.54499 -0.371853 -0.749731)
(-2.21422 0.172027 -1.08229)
(-2.09797 0.608442 -0.784068)
(-2.04506 0.968007 -1.60092)
(-2.18277 -1.06093 -0.567429)
(-2.37197 -0.696551 -1.18458)
(-2.55221 -0.192162 -1.38741)
(-2.20491 0.139188 -1.5202)
(-2.20093 0.404477 -0.925301)
(-1.65289 0.95028 -0.793468)
(-1.64167 1.09796 -1.25715)
(-1.54107 0.855742 -1.2014)
(-2.0053 -1.56048 -1.40669)
(-2.69907 -0.703404 -1.64691)
(-2.29132 -0.0658156 -1.96879)
(-2.24131 0.970145 -1.38521)
(-1.37746 1.16702 -1.39064)
(-1.02709 1.12506 -1.42692)
(-1.00039 0.968774 -1.73344)
(-0.928561 1.13419 -1.11125)
(-0.417464 1.1756 -1.01159)
(-2.21069 -1.02723 -1.9851)
(-2.0334 -0.56522 -2.15028)
(-2.11681 0.697668 -1.64901)
(-1.81119 1.27841 -1.46032)
(-1.32881 0.996668 -1.20346)
(-0.915949 1.47617 -0.992877)
(-0.563376 1.34296 -1.33185)
(0.0701686 0.841532 -1.58495)
(0.377046 1.02397 -1.27744)
(0.638324 0.815366 -1.27117)
(-2.16391 -0.0939803 -2.17564)
(-2.28814 0.460574 -1.89279)
(-1.62858 1.01333 -1.73464)
(-1.75174 1.46984 -0.783748)
(-1.19558 1.38317 -1.21419)
(-0.979571 1.79186 -0.426032)
(-0.706608 1.4683 -1.01436)
(-0.0658166 1.42148 -1.12881)
(0.311491 1.31951 -1.10252)
(0.756291 1.13712 -1.03115)
(0.960392 0.647272 -1.32509)
(-1.53252 0.474813 -1.54781)
(-1.47311 1.21605 -1.24952)
(-1.57338 1.70113 -0.312783)
(-1.59539 1.5089 -0.419517)
(-1.05513 1.70771 -1.01085)
(-0.764984 1.89926 -0.307282)
(-0.456398 1.61967 -0.749974)
(0.14421 1.5306 -0.556975)
(0.582393 1.658 -0.648618)
(0.921311 1.1406 -0.69946)
(1.1627 0.788261 -0.857092)
(1.39974 0.490515 -0.899611)
(-2.52378 0.167008 2.5192)
(-2.50761 -0.155395 2.5351)
(-2.85869 0.302413 2.36287)
(-2.7274 0.685463 2.40118)
(-3.08157 0.345398 2.12905)
(-2.86688 1.1639 2.08458)
(-3.03573 0.732795 2.19676)
(-2.73266 0.202332 2.87141)
(-3.36756 1.05985 1.54775)
(-2.99687 1.09407 2.09408)
(-2.58439 1.2732 1.8395)
(-3.18866 -0.0274492 2.17504)
(-3.42302 1.00301 1.4015)
(-2.9222 1.04414 1.83994)
(-2.4417 1.13381 1.34605)
(-2.1038 0.634329 0.948988)
(-3.32054 0.0169211 1.51848)
(-3.03163 0.241543 1.47716)
(-2.76582 0.489206 1.27482)
(-2.55293 0.543286 0.565556)
(-2.2261 0.326135 0.176128)
(-2.13243 0.748333 -0.744808)
(-3.10269 -0.489511 0.989016)
(-3.02183 0.00682188 0.0699908)
(-2.77129 -0.19953 0.293345)
(-2.87954 0.0806827 -0.28448)
(-2.78929 0.181246 -0.556765)
(-2.38525 0.317325 -1.40633)
(-2.24382 0.806089 -1.57629)
(-2.52414 -1.26 0.150267)
(-2.76551 -0.548206 -1.01621)
(-2.91072 -0.400816 -0.556967)
(-2.43583 -0.0465591 -0.998466)
(-2.16866 0.46081 -0.932336)
(-2.16345 0.54027 -0.55337)
(-2.13694 0.910921 -1.47543)
(-1.84628 1.06065 -2.13338)
(-2.01032 -1.56029 -0.753756)
(-2.32114 -0.918721 -1.72728)
(-2.50205 -0.400725 -1.42466)
(-2.23947 -0.0963094 -1.45211)
(-2.1196 0.377927 -0.813298)
(-1.66238 0.833769 -0.738869)
(-1.70027 1.06204 -1.32516)
(-1.47814 0.719748 -1.53424)
(-1.14936 1.07237 -1.00969)
(-2.09148 -1.38791 -1.84123)
(-2.59162 -0.455489 -1.90011)
(-2.42049 0.311819 -1.843)
(-2.09935 0.708932 -1.56619)
(-1.36522 0.889728 -1.34124)
(-1.0979 1.08661 -1.45379)
(-0.966801 0.854061 -1.93948)
(-0.814936 0.897344 -1.38706)
(-0.322153 0.933512 -1.22666)
(-0.105996 0.982668 -1.2227)
(-2.15877 -1.17923 -1.95958)
(-2.05771 -0.587716 -2.18237)
(-2.24483 0.974847 -1.68223)
(-1.75977 1.05353 -1.56389)
(-1.31535 1.01765 -1.21271)
(-1.00891 1.4971 -0.927573)
(-0.695405 1.43788 -1.26915)
(-0.010477 0.929513 -1.54771)
(0.353051 1.07652 -1.24689)
(0.63495 0.861971 -1.23885)
(0.742009 0.534033 -1.28309)
(-2.06759 -0.224974 -2.19051)
(-2.29296 0.424913 -1.8597)
(-1.71107 1.14579 -1.66067)
(-1.79204 1.46947 -0.973284)
(-1.23918 1.43834 -1.19521)
(-0.956875 1.73375 -0.521644)
(-0.70503 1.42063 -1.01944)
(-0.135063 1.49621 -1.01878)
(0.276985 1.35841 -1.08709)
(0.737114 0.947979 -1.17815)
(0.99325 0.862669 -1.09751)
(1.18738 0.320014 -1.33349)
(-1.63073 0.544249 -1.56899)
(-1.54157 1.30196 -1.31681)
(-1.57129 1.68945 -0.317353)
(-1.63098 1.56127 -0.496656)
(-1.0304 1.68704 -0.951233)
(-0.740616 1.88011 -0.31254)
(-0.460453 1.60659 -0.76371)
(0.122724 1.54162 -0.532808)
(0.577962 1.6569 -0.652368)
(0.909592 1.16028 -0.690145)
(1.16304 0.778297 -0.861203)
(1.40744 0.465215 -0.894901)
(1.38755 0.316307 -1.3066)
(-2.36483 0.22716 2.53266)
(-2.48249 -0.081719 2.55719)
(-2.59536 0.36302 2.47263)
(-2.73023 0.0267227 2.2826)
(-2.51862 0.174366 2.59869)
(-2.66735 -0.00104062 2.60327)
(-2.91284 0.726575 2.32434)
(-2.95722 0.644335 2.48902)
(-3.0767 0.179745 2.4933)
(-3.22268 0.501222 1.95379)
(-3.16308 0.590219 2.12937)
(-2.85542 0.764109 2.25697)
(-3.32693 0.0135807 2.34907)
(-3.26858 0.787706 1.73278)
(-3.1833 0.622291 1.9817)
(-2.73198 1.12541 1.75919)
(-2.17779 0.864419 2.08983)
(-3.53589 0.107628 1.66085)
(-3.42238 0.92001 1.12011)
(-2.94787 0.729382 1.68867)
(-2.4469 0.879905 1.2248)
(-2.02439 0.597741 1.31015)
(-1.98385 0.660956 0.34672)
(-3.34817 -0.203955 1.09491)
(-2.88701 0.194481 1.29315)
(-2.77005 0.152733 1.04307)
(-2.59519 0.211031 0.21115)
(-2.29758 0.058875 -0.0966429)
(-2.48334 0.165119 -0.584928)
(-2.69349 0.373835 -0.783027)
(-3.07467 -0.430461 0.586962)
(-2.81159 -0.381035 0.301032)
(-2.75872 -0.499389 0.193573)
(-2.86667 0.0624067 -0.784688)
(-2.67575 0.276224 -0.643725)
(-2.40982 0.382297 -1.04068)
(-2.22575 0.669497 -1.84004)
(-2.38774 0.821004 -1.59752)
(-2.50866 -1.34969 0.0207378)
(-2.64273 -0.85146 -0.588157)
(-2.79354 -0.721699 -0.779196)
(-2.62448 0.225189 -1.08542)
(-2.16557 0.549528 -0.815118)
(-2.14796 0.61273 -0.427681)
(-2.32489 0.813149 -1.05438)
(-1.8434 1.12414 -1.875)
(-1.33652 1.35469 -2.23819)
(-2.12858 -1.40767 -0.66256)
(-2.58332 -1.02964 -1.66505)
(-2.36126 -0.551592 -1.63858)
(-2.21378 0.271309 -1.16374)
(-1.95183 0.354726 -0.655187)
(-1.7353 0.885708 -0.621317)
(-1.714 1.02794 -1.33505)
(-1.37518 0.654354 -1.686)
(-1.07276 1.14437 -0.988549)
(-0.867533 1.29905 -1.1882)
(-2.31193 -1.52776 -1.90589)
(-2.57347 -0.804515 -2.03507)
(-2.47342 0.0695407 -1.7163)
(-1.99263 0.593142 -1.5421)
(-1.26829 0.734886 -1.41106)
(-1.04411 1.00348 -1.63662)
(-0.985391 0.872538 -1.90596)
(-0.596351 0.575744 -1.72031)
(-0.186618 0.699641 -1.39688)
(-0.0519784 0.862572 -1.30507)
(0.0360986 0.71388 -1.69052)
(-2.37953 -0.957973 -1.96921)
(-2.20497 -0.315373 -2.16401)
(-2.21401 0.761501 -1.8786)
(-1.73082 1.04578 -1.43059)
(-1.37549 1.05471 -1.21039)
(-1.05496 1.48705 -0.944202)
(-0.829219 1.58639 -1.17497)
(-0.108039 0.99021 -1.54621)
(0.319726 1.08673 -1.26683)
(0.632065 0.83249 -1.26572)
(0.762249 0.55994 -1.27055)
(0.623071 0.491203 -1.32826)
(-1.96126 -0.314642 -2.19232)
(-2.24485 0.350827 -1.8656)
(-1.8834 1.30087 -1.34199)
(-1.76408 1.47583 -1.08182)
(-1.28319 1.48487 -1.1587)
(-0.939582 1.70342 -0.566114)
(-0.711147 1.42776 -0.984241)
(-0.136584 1.48033 -1.0004)
(0.243436 1.42583 -1.09197)
(0.687629 1.11792 -0.991594)
(0.96264 0.771786 -1.14404)
(1.14603 0.38314 -1.36512)
(1.1254 0.526076 -1.45355)
(-1.72404 0.607648 -1.59089)
(-1.60536 1.3579 -1.31834)
(-1.54267 1.66909 -0.256367)
(-1.63087 1.5548 -0.571429)
(-0.996007 1.64245 -0.917077)
(-0.731591 1.85802 -0.334875)
(-0.476526 1.60793 -0.803309)
(0.0980111 1.5697 -0.49314)
(0.547534 1.6911 -0.683689)
(0.888195 1.20457 -0.667815)
(1.16993 0.763183 -0.86694)
(1.39181 0.481471 -0.896517)
(1.38699 0.318881 -1.3139)
(0.938522 -0.0396911 -2.06646)
(-2.30345 0.238155 2.3658)
(-2.23383 0.203508 2.45299)
(-2.31254 0.0569848 2.57177)
(-2.56713 0.552703 2.34087)
(-2.44748 -0.0403233 2.45837)
(-2.51605 0.102354 2.49863)
(-2.64212 0.711498 2.31997)
(-2.7854 -0.0247529 2.25656)
(-2.88618 0.329994 2.32454)
(-2.79969 -0.0525589 2.67175)
(-2.9485 -0.1062 2.47005)
(-2.96874 0.305035 2.48797)
(-3.06575 0.525437 2.50799)
(-2.88575 0.667492 2.4381)
(-3.18356 -0.0521444 2.43594)
(-3.33677 1.10144 2.04533)
(-3.2239 0.71586 2.27916)
(-3.06013 0.517278 2.11003)
(-2.82826 0.685712 2.38388)
(-3.49156 0.108841 2.03904)
(-3.37597 0.59117 1.80174)
(-2.94599 0.76528 2.27919)
(-2.62857 0.848636 2.08889)
(-2.32405 0.696259 2.04628)
(-1.99906 0.571904 0.966981)
(-3.5683 0.114388 1.6859)
(-3.01593 0.415484 1.72468)
(-2.56 0.63244 1.97945)
(-2.26621 0.555013 1.62292)
(-2.33727 0.288708 0.819305)
(-2.24694 0.630919 0.0128921)
(-2.52479 0.830488 0.600673)
(-3.19633 -0.0699872 1.11237)
(-2.7977 0.0376929 1.18726)
(-2.58737 -0.0835521 1.18607)
(-2.74084 0.0561939 0.598372)
(-2.55956 -0.151795 -0.433496)
(-2.29407 0.90946 -1.49611)
(-2.65899 0.542512 -1.4605)
(-2.85113 0.470107 -0.992125)
(-2.92244 -0.415407 0.68133)
(-2.67851 -0.636197 0.636918)
(-2.76027 -0.752489 0.229323)
(-2.88007 -0.204168 -0.880457)
(-2.74604 0.260037 -0.662834)
(-2.42208 0.654298 -0.77058)
(-2.309 0.803166 -1.25309)
(-2.43808 1.2216 -1.32112)
(-2.75368 0.521204 -1.15705)
(-2.66711 -1.1215 -0.162548)
(-2.59278 -1.07224 -0.640789)
(-2.79715 -0.715662 -0.958947)
(-2.78477 0.0638457 -1.31938)
(-2.05936 0.603525 -1.13756)
(-2.0552 0.595595 -0.822339)
(-2.43238 0.7827 -0.402852)
(-1.79412 1.22379 -1.2202)
(-1.29632 1.33708 -2.04844)
(-1.70619 1.36928 -1.30752)
(-1.81724 -1.75931 -1.12688)
(-2.5457 -1.06709 -1.73546)
(-2.56515 -0.373952 -1.47479)
(-2.22521 0.405133 -1.07489)
(-1.85993 0.344173 -0.519506)
(-1.83624 1.04924 -0.474381)
(-1.69791 1.06194 -1.17686)
(-1.29757 0.777919 -1.40582)
(-0.884733 0.995619 -1.2154)
(-0.764555 1.17664 -1.18748)
(-0.978413 1.42567 -1.45622)
(-2.27549 -1.75296 -1.79882)
(-2.48792 -0.949045 -2.09251)
(-2.22524 -0.0798776 -1.93342)
(-1.721 0.187292 -1.63931)
(-1.34275 0.741311 -1.33313)
(-1.16351 0.983198 -1.62143)
(-0.993725 0.870945 -1.82177)
(-0.502597 0.486615 -1.76197)
(-0.140685 0.652398 -1.41168)
(0.0823047 0.668563 -1.47198)
(0.143704 0.663835 -1.6983)
(-0.371461 0.732662 -1.84963)
(-2.2958 -1.24573 -2.09681)
(-2.2984 -0.407581 -2.18962)
(-2.16942 0.923709 -1.79866)
(-1.68499 0.89174 -1.38023)
(-1.42186 1.14239 -1.14362)
(-1.11992 1.52854 -0.92662)
(-0.952247 1.69209 -1.10997)
(-0.248189 1.15475 -1.46292)
(0.201972 1.2481 -1.21401)
(0.597624 0.857673 -1.28402)
(0.730888 0.619756 -1.28413)
(0.72219 0.301045 -1.34864)
(0.64381 0.741572 -1.65861)
(-1.89913 -0.358482 -2.18418)
(-2.08989 0.274493 -1.88221)
(-2.00391 1.52211 -0.965891)
(-1.77168 1.45592 -1.11925)
(-1.29307 1.51041 -1.13684)
(-0.911814 1.67912 -0.628289)
(-0.730932 1.46775 -0.914122)
(-0.177879 1.52068 -0.917216)
(0.205182 1.46638 -1.1173)
(0.703876 1.07668 -0.997539)
(0.977964 0.75689 -1.08722)
(1.07682 0.566232 -1.37466)
(1.15463 0.452274 -1.39999)
(0.866154 0.731484 -2.09474)
(-1.70084 0.591139 -1.57672)
(-1.63033 1.38211 -1.18479)
(-1.53054 1.67582 -0.137917)
(-1.59701 1.50025 -0.610727)
(-0.947103 1.61106 -0.922634)
(-0.709145 1.83724 -0.353849)
(-0.479019 1.63698 -0.804908)
(0.0996638 1.58829 -0.496252)
(0.539806 1.73078 -0.683241)
(0.888587 1.2086 -0.673091)
(1.18511 0.745011 -0.868964)
(1.39061 0.468113 -0.895612)
(1.36064 0.32009 -1.32387)
(0.895763 -0.0328243 -2.0568)
(-0.0681554 -0.653069 -2.14479)
(-2.14623 0.0690105 2.4264)
(-2.35202 0.185182 2.31151)
(-2.06082 0.569829 2.46543)
(-2.28049 0.0282903 2.47378)
(-2.23756 0.300581 2.48023)
(-2.30847 -0.0616059 2.60528)
(-2.48646 0.116326 2.49798)
(-2.31361 0.396847 2.46357)
(-2.49908 -0.184867 2.52728)
(-2.54073 -0.188879 2.52129)
(-2.4254 0.347864 2.56854)
(-2.40915 0.65272 2.5478)
(-2.73767 -0.119903 2.43437)
(-2.94809 0.108744 2.41867)
(-2.90228 0.354391 2.60758)
(-2.7237 0.279416 2.64814)
(-3.11076 -0.0935398 2.42957)
(-3.14611 0.0833253 2.51555)
(-3.13006 0.158466 2.61722)
(-2.92418 0.497039 2.50715)
(-2.404 0.844488 2.85376)
(-3.24882 -0.0728725 2.25475)
(-3.35153 -0.214405 2.35185)
(-3.29649 0.186619 2.30951)
(-2.91962 0.403894 2.3703)
(-2.65514 0.747158 2.49827)
(-2.13354 0.533283 2.34208)
(-3.63046 0.180742 1.75791)
(-3.66113 0.211502 1.62905)
(-2.96555 -0.0356116 2.26301)
(-2.8556 0.43409 1.83719)
(-2.42766 0.488455 1.94784)
(-2.05167 0.536207 0.790726)
(-2.22896 0.195069 1.09042)
(-3.6838 0.151754 1.26349)
(-2.70051 -0.108362 1.96596)
(-2.40271 -0.112206 1.95503)
(-2.51371 0.0567329 1.2802)
(-2.54663 0.0848939 0.421545)
(-2.43164 0.699009 -0.591827)
(-2.97555 0.553604 -0.20941)
(-3.02906 0.128269 -0.165992)
(-2.98703 -0.41496 1.26356)
(-2.58511 -0.445852 1.30291)
(-2.56177 -0.565802 0.745015)
(-2.79723 -0.377897 0.0153656)
(-2.87132 0.0303538 0.0438388)
(-2.8369 0.0754811 -0.732068)
(-2.77847 0.615257 -1.21531)
(-2.97735 0.374271 -1.41527)
(-3.09323 0.0755237 -1.13668)
(-2.61878 -0.946249 0.233065)
(-2.68777 -0.784899 0.691379)
(-2.79846 -0.971704 -0.104874)
(-2.91135 -0.834062 -0.762419)
(-2.84468 0.0653163 -0.595994)
(-2.61439 0.686028 -0.629926)
(-2.29869 1.01629 -1.00059)
(-2.47079 1.28643 -0.990819)
(-2.7685 0.818555 -1.02349)
(-2.27354 1.29296 -1.42086)
(-2.38446 -1.60894 -0.364009)
(-2.97353 -0.800567 -0.257014)
(-2.76583 -1.1684 -1.10987)
(-2.80404 -0.105835 -1.26654)
(-2.03107 0.710619 -1.78449)
(-2.11834 0.722073 -1.0484)
(-2.35319 0.835832 -0.393078)
(-1.83458 1.2104 -0.789022)
(-1.23762 1.18255 -2.18164)
(-1.59325 1.31072 -1.44495)
(-1.66051 1.70612 -1.58328)
(-2.33184 -1.59445 -0.901082)
(-2.65224 -0.954797 -1.70989)
(-2.70158 -0.291079 -1.52228)
(-2.15706 0.308769 -1.31023)
(-1.66948 0.215743 -0.995323)
(-1.71309 0.806142 -1.14609)
(-1.70167 1.00291 -1.08063)
(-1.07948 0.671513 -1.46876)
(-0.649125 0.803918 -1.63842)
(-0.676262 1.10725 -1.34414)
(-0.883372 1.30448 -1.52075)
(-1.16803 1.24225 -1.99028)
(-2.20064 -1.75438 -1.8659)
(-2.50075 -0.835133 -2.00514)
(-2.21024 -0.218185 -1.93898)
(-1.63278 0.144969 -1.50149)
(-1.50477 0.834 -1.22284)
(-1.16948 1.10429 -1.60384)
(-0.92451 0.648417 -1.92414)
(-0.386176 0.489148 -1.79061)
(-0.124073 0.745629 -1.39407)
(0.140995 0.646006 -1.47342)
(0.243954 0.566135 -1.73402)
(-0.248789 0.686137 -1.7744)
(-0.0686248 0.97683 -1.93182)
(-2.27075 -1.31558 -2.09028)
(-2.39806 -0.199346 -2.22852)
(-2.0932 0.632676 -1.79573)
(-1.70707 0.839137 -1.19928)
(-1.45368 1.13894 -1.14419)
(-1.16344 1.50752 -0.996876)
(-1.00671 1.58038 -1.2292)
(-0.36256 1.1873 -1.47019)
(0.123749 1.35853 -1.19402)
(0.543805 0.904959 -1.3147)
(0.730276 0.612452 -1.30737)
(0.739181 0.323136 -1.34028)
(0.69305 0.673012 -1.59233)
(0.669491 1.21193 -1.8521)
(-1.88077 -0.380721 -2.14324)
(-2.03111 0.281599 -1.77435)
(-1.7738 1.23883 -1.0752)
(-1.81416 1.46215 -1.09772)
(-1.28439 1.51259 -1.16545)
(-0.897711 1.67542 -0.632893)
(-0.788494 1.54772 -0.806476)
(-0.166158 1.50213 -0.933608)
(0.178188 1.51554 -1.08545)
(0.699579 1.07284 -1.00268)
(0.930623 0.802353 -1.05615)
(1.1316 0.422094 -1.33813)
(1.18266 0.371371 -1.33915)
(0.810696 0.685561 -2.00386)
(0.0831409 -0.49496 -2.32332)
(-1.59187 0.556718 -1.49535)
(-1.59288 1.38955 -1.02289)
(-1.50136 1.64802 -0.159238)
(-1.56374 1.46547 -0.604183)
(-0.925503 1.60132 -0.928313)
(-0.676447 1.81856 -0.358447)
(-0.47647 1.63557 -0.800698)
(0.0409909 1.63721 -0.44654)
(0.540958 1.72139 -0.670369)
(0.880115 1.22518 -0.657112)
(1.17929 0.746787 -0.868365)
(1.40005 0.459265 -0.89494)
(1.37346 0.332412 -1.32632)
(0.933859 0.0451477 -2.02404)
(-0.0538176 -0.588442 -2.15481)
(-0.579433 -0.139471 -1.7268)
(-2.06928 0.118968 2.34729)
(-2.12686 0.0590048 2.4104)
(-1.99886 0.435066 2.50079)
(-2.28935 -0.0336996 2.37285)
(-1.95973 0.361258 2.66021)
(-2.3011 0.536844 2.38421)
(-2.24337 -0.214611 2.54055)
(-2.31488 0.145251 2.53333)
(-2.40771 0.556923 2.25949)
(-2.34973 -0.228903 2.56758)
(-2.48838 -0.0226419 2.52629)
(-2.39131 0.164904 2.48128)
(-2.30644 0.378747 2.42905)
(-2.61386 -0.306028 2.46591)
(-2.63786 -0.0406691 2.61563)
(-2.43064 0.201412 2.75407)
(-2.23685 0.488759 2.76292)
(-2.36272 0.445195 2.72027)
(-2.92785 0.116391 2.4824)
(-2.94591 0.0463735 2.63061)
(-2.93656 0.181804 2.66218)
(-2.75166 0.384548 2.61408)
(-2.60016 0.473873 2.64148)
(-3.06534 0.028677 2.42037)
(-3.34646 0.0195925 2.48278)
(-3.1358 -0.11302 2.64678)
(-2.82756 0.344122 2.60183)
(-2.67276 0.384137 2.76186)
(-2.39992 0.913955 2.74411)
(-3.43039 0.0505295 2.10599)
(-3.29687 -0.411389 2.41098)
(-3.23519 -0.362647 2.34858)
(-2.9628 0.169476 2.3058)
(-2.72247 0.662539 2.48719)
(-2.22969 0.629049 2.15379)
(-2.20994 0.282802 1.71772)
(-3.8334 0.0327066 1.44107)
(-3.27873 -0.351137 1.95247)
(-2.79115 -0.277559 2.32011)
(-2.48803 0.318798 2.38865)
(-2.60824 0.335359 1.78481)
(-2.33777 0.291551 0.42557)
(-2.45153 0.554541 1.54301)
(-3.04494 0.072111 0.557399)
(-3.33586 -0.203756 1.55701)
(-2.44488 -0.268881 2.23914)
(-2.41929 -0.141676 1.87912)
(-2.62044 0.102582 1.10269)
(-2.75002 -0.0998803 0.605429)
(-2.73612 -0.223593 -0.70886)
(-2.94519 0.404769 -0.78845)
(-3.21686 0.135324 -0.636573)
(-3.40937 0.202379 -0.491039)
(-2.91626 -0.584413 1.00967)
(-2.49627 -0.500688 1.2283)
(-2.60572 -0.678906 0.69165)
(-2.76454 -0.922052 0.0140108)
(-2.78213 -0.602586 -0.384339)
(-2.80409 -0.0213948 -0.629226)
(-2.85481 0.441214 -0.914128)
(-3.07387 0.363029 -1.30295)
(-3.30527 0.272106 -1.07745)
(-2.70203 1.10055 -1.59628)
(-2.43883 -1.26699 0.402807)
(-2.6976 -0.995416 0.220352)
(-2.87785 -1.16157 -0.654264)
(-3.04419 -0.828623 -0.457349)
(-2.93678 -0.153956 -0.0369437)
(-2.65527 0.496923 -0.657502)
(-2.453 1.05657 -1.14772)
(-2.56432 1.13663 -1.039)
(-2.99727 0.892357 -1.08634)
(-2.33021 1.39206 -1.58836)
(-1.99858 1.37524 -1.81263)
(-2.30618 -1.72136 -0.458579)
(-2.93119 -1.19814 -0.687446)
(-3.07118 -0.870186 -1.36244)
(-2.7218 -0.3795 -1.29849)
(-2.17505 0.755362 -1.78176)
(-1.91578 0.419751 -1.67183)
(-2.20604 0.650421 -0.92724)
(-1.89703 1.17549 -0.724363)
(-1.24037 1.04595 -2.19423)
(-1.25231 0.990098 -2.24048)
(-1.6152 1.33753 -1.72095)
(-1.79129 1.98172 -1.44084)
(-2.52868 -1.8002 -0.751289)
(-2.65047 -1.02288 -1.8046)
(-2.79002 -0.139076 -1.76488)
(-2.0991 0.231124 -1.56057)
(-1.55567 0.0830638 -1.6534)
(-1.74234 0.520157 -1.3989)
(-1.59821 0.693265 -1.31858)
(-1.08593 0.660188 -1.48546)
(-0.449245 0.534825 -2.05663)
(-0.598212 1.02286 -1.6477)
(-0.770232 0.971212 -1.76246)
(-0.985017 1.10764 -1.90944)
(-1.1884 1.13666 -2.15482)
(-2.11049 -1.86765 -1.94756)
(-2.51921 -0.923264 -1.9923)
(-2.21477 -0.0719849 -1.91328)
(-1.69204 0.280117 -1.38964)
(-1.56709 0.851665 -1.27143)
(-1.29256 0.980367 -1.55185)
(-0.993431 0.737342 -1.83177)
(-0.471212 0.646559 -1.65877)
(-0.247795 0.933486 -1.35457)
(0.139917 0.707636 -1.4198)
(0.369102 0.467346 -1.67928)
(-0.0669178 0.583487 -1.75266)
(0.0294578 0.598099 -1.90069)
(-0.207823 1.23136 -1.96376)
(-2.22151 -1.31679 -2.09636)
(-2.29549 -0.208532 -2.27495)
(-2.00816 0.732498 -1.50118)
(-1.83771 0.914867 -1.06805)
(-1.42302 1.12742 -1.17104)
(-1.16513 1.49731 -1.01768)
(-1.11031 1.58016 -1.22448)
(-0.431443 1.21493 -1.47955)
(0.0825978 1.43489 -1.1876)
(0.533835 0.93382 -1.33261)
(0.706179 0.662985 -1.32169)
(0.824188 0.230076 -1.33205)
(0.744547 0.488148 -1.51636)
(0.725608 1.22129 -1.748)
(-0.479889 0.511364 -1.84162)
(-1.92152 -0.346659 -2.03728)
(-2.09141 0.308219 -1.55034)
(-1.66391 1.25316 -0.957871)
(-1.90681 1.5066 -1.00565)
(-1.26377 1.52233 -1.2179)
(-0.901162 1.70064 -0.58546)
(-0.824048 1.60611 -0.803823)
(-0.2118 1.55906 -0.859372)
(0.144582 1.56449 -1.04347)
(0.663709 1.1605 -0.946328)
(0.99982 0.684989 -1.06)
(1.23382 0.20076 -1.26784)
(1.19269 0.334602 -1.28745)
(0.871271 0.805344 -1.83963)
(0.126523 -0.0774811 -2.27394)
(-0.737971 -0.0137407 -1.46788)
(-1.46835 0.518678 -1.41094)
(-1.53962 1.37726 -0.844622)
(-1.45659 1.65943 -0.13366)
(-1.5425 1.45682 -0.616669)
(-0.91831 1.60019 -0.992384)
(-0.643348 1.79786 -0.375341)
(-0.459904 1.64103 -0.793087)
(0.0770435 1.66612 -0.452636)
(0.565821 1.71057 -0.651119)
(0.873483 1.23466 -0.649615)
(1.17937 0.747915 -0.866415)
(1.39765 0.445419 -0.886229)
(1.38082 0.382548 -1.30049)
(0.909822 0.0383967 -2.00703)
(-0.0700003 -0.518687 -2.15971)
(-0.604112 -0.128681 -1.72244)
(-0.0755747 -0.0130133 -1.8292)
(-2.01076 0.0396645 2.17787)
(-2.07146 0.0404702 2.34406)
(-2.01625 0.461068 2.39308)
(-2.09008 -0.0550258 2.44033)
(-2.002 0.173689 2.53447)
(-2.01799 0.317931 2.57353)
(-2.22647 0.0456811 2.44238)
(-2.18948 0.0883087 2.58369)
(-2.4553 0.500548 2.30952)
(-2.25452 0.137361 2.63313)
(-2.19118 -0.251253 2.55114)
(-2.31414 0.0102784 2.53459)
(-2.40538 0.231337 2.33441)
(-2.11759 0.308152 2.45517)
(-2.34012 -0.266295 2.5488)
(-2.3607 -0.165314 2.68189)
(-2.44894 0.0663921 2.46351)
(-2.26338 0.113638 2.5804)
(-2.11031 0.299228 2.79744)
(-2.58796 -0.421792 2.50122)
(-2.70696 -0.371119 2.56103)
(-2.57 0.060264 2.77187)
(-2.33647 0.402027 2.84002)
(-2.20443 0.315838 2.9179)
(-2.40702 0.377209 2.82412)
(-2.91313 -0.503067 2.56711)
(-3.02265 -0.144845 2.74459)
(-2.93754 0.032471 2.7673)