/*--------------------------------*- C++ -*----------------------------------*\
  =========                 |
  \\      /  F ield         | OpenFOAM: The Open Source CFD Toolbox
   \\    /   O peration     | Website:  https://openfoam.org
    \\  /    A nd           | Version:  7
     \\/     M anipulation  |
\*---------------------------------------------------------------------------*/
FoamFile
{
    version     2.0;
    format      ascii;
    class       volScalarField;
    location    "9.5";
    object      nut;
}
// * * * * * * * * * * * * * * * * * * * * * * * * * * * * * * * * * * * * * //

dimensions      [0 2 -1 0 0 0 0];

internalField   nonuniform List<scalar> 
150000
(
0.00029564
0.000320001
0.000239903
0.000405202
0.000384814
0.000953364
0.000379257
0.000878861
0.000398905
0.00035062
0.00046903
0.000367753
0.000383193
0.000334274
0.00111078
0.00103146
0.00309017
0.00122555
0.000437151
0.000838429
0.000533199
0.00103771
0.000794992
0.000470737
0.0005688
0.000435269
0.000216791
0.000348558
0.000361767
0.000353227
0.00244983
0.00117138
0.000966891
0.0011709
0.0011115
0.000446639
0.000452174
0.000347551
0.000788123
0.000514453
0.000700753
0.000958412
0.000593197
0.00107192
0.000796113
0.00117033
0.000383866
0.000656193
0.000493036
0.000267433
0.000182882
0.000202226
0.00027928
0.000314634
0.000396561
0.00256157
0.00296843
0.00212827
0.00257442
0.00138708
0.000649487
0.00107762
0.000972724
0.0017982
0.000989648
0.00122784
0.000661167
0.000921101
0.000603821
0.00194068
0.00109962
0.000604377
0.000884257
0.00133373
0.000540515
0.000283925
0.000473158
0.000896761
0.000532185
0.00151946
0.000299281
0.000738732
0.000552848
0.000310299
0.000206491
0.000439881
0.00019992
0.000183141
0.000289803
0.000331686
0.000400269
0.00260118
0.00325417
0.00219641
0.00233414
0.00291008
0.0020019
0.000838368
0.00157834
0.0026098
0.00118795
0.00115558
0.000760069
0.00072005
0.00127817
0.00087364
0.0013094
0.0010698
0.00113811
0.000974267
0.000648704
0.000365546
0.000884738
0.000738765
0.000142731
0.00137345
0.000671544
0.000907113
0.000775228
0.000644179
0.000243435
0.000309165
0.000547251
0.000388427
0.000588234
0.000746025
0.00150395
0.000342162
0.000791298
0.000611892
0.00034981
0.000239823
0.000504862
0.000437028
0.000443051
0.000146384
0.000149199
0.000345994
0.000372702
0.000330309
0.00253344
0.00252699
0.00158592
0.00275907
0.00268346
0.00092563
0.00135017
0.00177716
0.00237717
0.00267152
0.000911431
0.000866202
0.000943882
0.00117046
0.00226841
0.00238296
0.00191597
0.00142613
0.000659691
0.000557354
0.000667048
0.00104303
0.00091069
0.00115042
0.00213323
0.000871683
0.000917012
0.00083932
0.000511966
0.000481165
0.000229567
0.000425151
0.000802301
0.0015675
0.00378075
0.00152301
0.000734807
0.000799834
0.000458002
0.000520498
0.000193721
0.000520671
0.000319121
0.00047401
0.000583364
0.000345295
0.000555238
0.000263736
0.00102998
0.000369776
0.000796071
0.000640778
0.000404424
0.000280654
0.000565557
0.000451698
0.000343274
0.000371198
0.000360629
0.000153811
0.000119371
0.000293831
0.000370749
0.000205422
0.00242401
0.00242453
0.000802517
0.00276635
0.00249012
0.000993953
0.00117556
0.00192421
0.00299693
0.00254625
0.0016121
0.000709834
0.000871433
0.00122191
0.00179553
0.00232399
0.00258608
0.00112248
0.00104343
0.000695879
0.00118473
0.000731234
0.00128151
0.00166787
0.00277991
0.00150795
0.00154368
0.000860274
0.000559124
0.000611482
0.000251814
0.00061784
0.000854629
0.000485635
0.00122164
0.00222119
0.00089663
0.000880517
0.000780502
0.000534058
0.000493496
0.000133098
0.00025268
0.000349286
0.000418325
0.000509883
0.000946829
0.00041913
0.0015488
0.000793168
0.000688163
0.000568235
0.000305793
0.000198488
0.00069265
0.000499677
0.000382387
0.000353977
0.000401584
0.000348223
0.000460757
0.000583781
0.000755325
0.000646531
0.00041004
0.000772572
0.000632684
0.000458088
0.000326936
0.000572266
0.000442532
0.000349357
0.000569168
0.000289237
0.00022275
0.000346263
8.49995e-05
0.000108088
0.000400248
0.000372721
0.000317251
0.00254094
0.00242481
0.000834791
0.0026529
0.00237318
0.000717718
0.00130143
0.000985036
0.00260426
0.00257516
0.000968128
0.00139917
0.00079324
0.000499496
0.000953413
0.0029015
0.00260299
0.00201071
0.000917373
0.00100551
0.00160504
0.00141493
0.00125679
0.00153241
0.00203148
0.0027546
0.00131107
0.000465443
0.000688133
0.000819716
0.000671249
0.000886087
0.00209307
0.00152853
0.00186993
0.00300401
0.000905904
0.0016077
0.00099096
0.000894927
0.00058791
0.000396322
0.000372098
0.000319898
0.000498853
0.000721114
0.000544123
0.00217815
0.00293265
0.000872088
0.000840456
0.000766851
0.00055514
0.000568746
0.000336979
0.000206554
0.000350238
0.000341542
0.000262608
0.000317001
0.000413326
0.000489278
0.00110158
0.00145825
0.000838999
0.00068545
0.000837289
0.000332619
0.000227453
0.000280449
0.000260306
0.000317795
0.000320593
0.000386576
0.00035874
0.000380319
0.000252411
0.000420762
0.000787153
0.000407174
0.000591835
0.000454137
0.00081722
0.000585488
0.000445519
0.000306865
0.000592424
0.000409044
0.000315916
0.00046155
0.000188158
0.000720231
0.00016373
0.000252176
0.000311993
3.82731e-05
5.77125e-05
0.000227055
0.000384227
0.000403422
0.00215874
0.00239746
0.000438955
0.00266261
0.00246373
0.000808964
0.000560667
0.00126771
0.00243169
0.00237553
0.000843387
0.000601449
0.000504907
0.00068101
0.000670129
0.00267494
0.00282468
0.000920291
0.00130894
0.00120902
0.00077645
0.00138441
0.000657205
0.000840964
0.00257822
0.00262767
0.00114107
0.00102725
0.00126786
0.00194371
0.000383581
0.000446173
0.00189739
0.00119726
0.00137689
0.00227908
0.00243198
0.00146006
0.000460329
0.000800176
0.000960949
0.00026778
0.000354958
0.000589436
0.000606994
0.00123685
0.00107026
0.00196895
0.00259279
0.00100022
0.0017808
0.00120194
0.000912151
0.000665192
0.000423912
0.000277087
0.000795847
0.000383981
0.000357893
0.000550443
0.000503807
0.00100521
0.00184698
0.0025644
0.00089313
0.000729572
0.000800742
0.000729129
0.0004829
0.000262085
0.000229513
0.000360124
0.000500373
0.000468456
0.000320645
0.000172011
0.000341653
0.000382311
0.000356565
0.00123829
0.00134374
0.000870156
0.000744663
0.00121298
0.000121876
0.000179081
0.000546303
0.00031119
0.000299282
0.00030137
0.000237697
0.000371059
0.000373057
0.000390633
0.000337827
0.000365429
0.000361445
0.00055422
0.000378774
0.000511895
0.000488898
0.000925655
0.000526239
0.000440729
0.000229997
0.000507306
0.000285945
0.000272605
0.000370884
0.000181768
0.000135499
0.000218146
0.000760759
0.000336819
0.00035503
0.000291923
0.000113073
0.000109497
0.000376216
0.00039773
0.00038162
0.00235356
0.00214992
0.000544016
0.00227715
0.00239436
0.000739242
0.000774596
0.000603332
0.00251981
0.00238997
0.000975869
0.000520712
0.000550496
0.000857552
0.000764127
0.00257697
0.00242633
0.00115962
0.000663139
0.000699244
0.000874839
0.00106731
0.000485377
0.000774898
0.00267348
0.00279277
0.00185661
0.00131584
0.00130581
0.00107915
0.0013266
0.00215851
0.000746205
0.000877747
0.00159285
0.00250145
0.00228857
0.000897896
0.000734444
0.000863354
0.00072908
0.000679922
0.00016892
0.000927624
0.001804
0.00073293
0.000974937
0.000989855
0.00260695
0.00231299
0.00148637
0.000658224
0.000813245
0.00111273
0.000353007
0.000462653
0.00039703
0.000980284
0.000614519
0.000569341
0.00101517
0.000775771
0.00177963
0.00233411
0.00102666
0.00171862
0.00115738
0.000987116
0.000659804
0.00050981
0.000315693
0.00101061
0.000791047
0.000573711
9.84468e-05
0.000260984
0.000621695
0.00052462
0.000980844
0.00133335
0.00140464
0.000887235
0.000613407
0.000677562
0.000813262
0.000420009
0.000178689
0.000270885
0.000468237
0.000494067
0.000379891
0.000623125
0.000594071
0.000765626
0.000452057
0.000388066
0.000400295
0.000620378
0.000698674
0.00116907
0.000893345
0.0006267
0.00139708
0.00059861
0.000272892
0.000382799
0.000370559
0.000254161
0.000277364
0.000241193
0.000323839
0.000272416
0.000348003
0.000372901
0.000263527
0.000374482
0.000432752
0.000458934
0.000680411
0.000501619
0.000803842
0.000518682
0.00100932
0.000456629
0.000363301
0.000267544
0.000400148
0.000159626
0.000241202
0.000263133
0.000192074
0.000122976
0.000350787
0.000149119
0.000225728
0.000856093
0.000452708
0.000386892
0.000259563
0.000290298
0.000119431
0.000239258
0.000419543
0.000370406
0.0022971
0.00229115
0.000483231
0.00241798
0.0020685
0.000572344
0.000582344
0.000674989
0.00223793
0.00249275
0.000551733
0.000748957
0.0006053
0.000497751
0.000980354
0.00241853
0.00219135
0.000601873
0.000684702
0.000490922
0.000663012
0.000356682
0.000357844
0.000735918
0.00267261
0.00250552
0.000875603
0.000994393
0.0006982
0.000614251
0.000883539
0.000646946
0.000794475
0.00105847
0.000783114
0.00259768
0.00289586
0.00151437
0.00105792
0.000866159
0.0014969
0.000899695
0.0012222
0.000862381
0.000832928
0.000830433
0.000948293
0.00199248
0.00250432
0.00226296
0.000582665
0.0012553
0.000822724
0.0016095
0.000680725
0.000188285
0.000375319
0.000459667
0.000625973
0.000591269
0.000910819
0.00184958
0.00181569
0.00303721
0.00247393
0.00169696
0.000873457
0.000865115
0.000495578
0.00068222
0.0004951
0.000404318
0.000498769
0.000598401
0.000450641
0.000415527
0.000992543
0.00121438
0.000790216
0.00150947
0.00252397
0.00118079
0.00192722
0.00109969
0.00098563
0.000693158
0.000456995
0.00031985
0.000209782
0.000452696
0.000671758
0.000736771
0.000702875
0.000376475
0.000339758
0.000703503
0.000340908
0.000879233
0.000977069
0.00149782
0.000872154
0.000763619
0.000478388
0.000548992
0.000449171
0.000251783
0.000292387
0.000334459
0.000530857
0.000373607
0.000357694
0.000498974
0.000395924
0.000667169
0.000259558
0.000267788
0.000362587
0.000458228
0.000774975
0.00104091
0.00127912
0.000896205
0.00052584
0.00144791
0.000532258
0.000120734
0.000221188
0.000239485
0.000255343
0.000259951
0.000250393
0.000277581
0.000267921
0.000435437
0.00028247
0.000393921
0.000392528
0.000354604
0.000737298
0.000550528
0.00032867
0.000668149
0.000458078
0.000837138
0.000565842
0.00105368
0.000421742
0.000382282
0.000251156
0.000346092
0.000177357
0.000229156
0.000179819
0.000169651
0.000150739
0.000115996
0.000133287
0.000262977
0.000165141
0.000275854
0.000891279
0.000476681
0.000419716
0.000212779
0.00017399
0.000120241
0.000289176
0.000423183
0.000331696
0.00222845
0.00212164
0.000534915
0.00245362
0.00227634
0.000502529
0.00043778
0.000589518
0.00251571
0.00208451
0.000367924
0.000486252
0.000605762
0.000567739
0.000652144
0.00214165
0.00235342
0.000597952
0.000822154
0.000624697
0.000537837
0.000574816
0.000693014
0.000849115
0.00224991
0.00220409
0.000632853
0.00114767
0.000743863
0.000806044
0.000803242
0.000597625
0.000573348
0.00055386
0.000465753
0.00244634
0.00254929
0.000988328
0.000617674
0.00100361
0.000791746
0.000504661
0.000561697
0.000873178
0.000714046
0.000409884
0.00114626
0.00116874
0.0028534
0.00268867
0.00112035
0.000915485
0.000976045
0.000627685
0.000814491
0.000624422
0.000522389
0.000855776
0.00035166
0.00087907
0.00120916
0.000714095
0.0011017
0.00215784
0.00237405
0.000843458
0.00127354
0.000906135
0.000794493
0.000211464
0.000362792
4.96026e-05
0.000518607
0.000323352
0.000429938
0.000555221
0.00164603
0.00109272
0.00159871
0.00260267
0.00281777
0.00244253
0.00153888
0.00103245
0.000981505
0.000486719
0.000845994
0.00043314
0.000287475
0.00021735
0.00102896
0.000753652
0.000380631
0.00100615
0.000542926
0.000932664
0.000598385
0.000992286
0.00139884
0.00247559
0.00139145
0.0016294
0.000750789
0.000835575
0.000754875
0.000360269
0.000329457
0.000424398
0.000778203
0.000400937
0.000250949
0.000739388
0.000414153
0.000635039
0.000349451
0.000455872
0.000451561
0.000515994
0.000863397
0.000938279
0.00151503
0.000782471
0.000511359
0.000672582
0.000311251
0.000444774
0.000237543
0.00028693
0.000307365
0.000338214
0.00048325
0.000483306
0.000396435
0.000404391
0.000576738
0.000490205
0.000480895
0.00060157
0.000298209
0.000331339
0.000597564
0.0008759
0.00122269
0.00194754
0.000857811
0.000631968
0.00152634
0.000403867
0.000218076
0.000189409
0.000291523
0.0002326
0.000247704
0.000270423
0.000314392
0.000338541
0.000436998
0.000474137
0.00044428
0.00023084
0.000420975
0.000351495
0.000307026
0.000710381
0.000356425
0.000470288
0.0006793
0.000615186
0.000904381
0.000595282
0.000982405
0.000318779
0.000550772
0.000245581
0.000361361
0.000207019
0.000225681
0.000133611
0.000197266
0.000245473
0.000276722
0.000149842
0.000115153
0.000151322
8.86946e-05
0.000106208
0.000329467
0.000765083
0.000478398
0.00042589
0.000179312
0.000109233
0.000141858
0.000275022
0.00035225
0.000270723
0.00224987
0.00222449
0.000353293
0.00244588
0.00224904
0.00037129
0.000427421
0.000729038
0.00233932
0.00234029
0.000675726
0.000469377
0.000419737
0.000503662
0.00057874
0.00246544
0.00218201
0.000537016
0.000641838
0.00054088
0.000424721
0.000615247
0.000596895
0.00063897
0.00223785
0.00247096
0.00121565
0.000563742
0.000564294
0.000513353
0.000714442
0.000777934
0.0005388
0.000742291
0.00101385
0.00231758
0.00225913
0.000832417
0.000546959
0.000854207
0.000743028
0.000534594
0.000641636
0.000779832
0.000490962
0.000489914
0.000849405
0.000317703
0.00240786
0.00262487
0.000997565
0.000767856
0.00079884
0.00086679
0.000848517
0.000677439
0.000682829
0.000850824
0.000957266
0.00107892
0.000883429
0.000875411
0.000710945
0.00316028
0.00242162
0.000935817
0.000878962
0.000647024
0.000532221
0.000760244
0.000728415
0.000480216
0.000574029
0.000716319
0.000894652
0.00123551
0.00113226
0.00100014
0.00132568
0.00120615
0.00246832
0.00259843
0.00131961
0.000712258
0.000396382
0.000393272
0.000166359
0.000219172
0.000247728
0.000647806
0.000203565
0.000530396
0.000418452
0.00071103
0.000633768
0.000612901
0.00172663
0.00140575
0.00215475
0.00265331
0.00254818
0.00160213
0.00117117
0.000946578
0.000738893
0.000800226
0.00049624
0.000501963
0.000532389
0.000757148
4.67292e-05
0.0009114
0.00071322
0.00057656
0.00070625
0.000969683
0.00124653
0.000473663
0.00126815
0.00126626
0.00240011
0.00142823
0.00112333
0.000495402
0.00091069
0.00100952
0.000350282
0.000350568
0.000268324
0.000609909
0.000413253
0.0001548
0.000490308
0.000332074
0.000936666
0.000804647
0.000647175
0.000241181
0.000445578
0.000626409
0.000396107
0.000620018
0.000593172
0.00112219
0.00077874
0.0004284
0.000628167
0.000484683
0.00049337
0.000235425
0.000260465
0.00025406
0.000522776
0.000449826
0.000472246
0.000397929
0.000401643
0.000452227
0.000373487
0.000485577
0.000553164
0.000621283
0.000407138
0.000549742
0.000294428
0.000457377
0.000698022
0.00141483
0.0018459
0.000727372
0.000646039
0.00149817
0.000776639
0.000238981
0.000201552
0.000307555
0.000245552
0.000273562
0.00026869
0.000354337
0.000374984
0.000436483
0.000378797
0.000400569
0.00037022
0.000425039
0.000345464
0.000384297
0.000367933
0.000294352
0.000545116
0.000789071
0.000269594
0.000711163
0.00073873
0.00113687
0.000532302
0.000846755
0.000374173
0.000585782
0.00050164
0.000391677
0.000200471
0.000227758
0.000150698
0.000282415
0.000220438
0.000149392
0.000229386
0.000368749
0.000186576
0.000129296
0.000197532
7.73888e-05
0.000264206
0.000356613
0.000603452
0.000470321
0.000427688
0.000143944
0.000137431
0.000190972
0.000220132
0.000295975
0.000270337
0.00221358
0.00222082
0.000449659
0.00233478
0.00222463
0.000479748
0.000416509
0.000346567
0.00245175
0.00216542
0.000342826
0.000437696
0.000421673
0.000337614
0.000642047
0.00237718
0.00221001
0.000455818
0.000548885
0.000481181
0.000438906
0.000622677
0.000558455
0.000524534
0.0025448
0.00222575
0.000537147
0.000518793
0.000474795
0.000498378
0.000505995
0.000356011
0.000622845
0.000617312
0.000787585
0.00236127
0.00244274
0.00100512
0.000436153
0.000513414
0.000442128
0.000221692
0.000362202
0.000664968
0.000548779
0.000572109
0.000631987
0.000762691
0.00220333
0.00231162
0.000754573
0.000608
0.000577977
0.000567128
0.000530916
0.00061641
0.000761738
0.000763351
0.000548875
0.000684514
0.000540969
0.000686471
0.000542465
0.00238506
0.002544
0.000944076
0.00110917
0.000688162
0.00077811
0.000782577
0.000774555
0.000924088
0.000679187
0.000592962
0.00112487
0.000870411
0.00090506
0.00101667
0.0011612
0.000687721
0.00307798
0.00233463
0.000655659
0.000697048
0.00100785
0.000694741
0.00107571
0.000725876
0.00061342
0.000670923
0.000494656
0.000705935
0.000935031
0.000574154
0.000760365
0.000937307
0.000939476
0.00148996
0.00194258
0.00275869
0.00282381
0.00108479
0.000761431
0.000601631
0.000248423
0.000508124
0.000359724
0.00028188
0.000351844
0.000313638
0.000446432
0.000847155
0.000659797
0.000300687
0.00120861
0.00109304
0.000902695
0.00156657
0.00103116
0.00164209
0.0024856
0.00263528
0.00128484
0.000700243
0.000910465
0.00080754
0.000223438
0.000638158
0.000532324
0.000784439
0.000428757
0.000270838
0.000320234
0.00125297
0.00105459
0.000774594
0.000805226
0.000402286
0.000735152
0.000793023
0.000894775
0.000721886
0.000940834
0.00244514
0.00144463
0.000613013
0.00061035
0.00102792
0.000836142
0.00032488
0.000470618
0.000333355
0.000583066
0.000596817
0.000376355
0.000202414
0.0011577
0.000578701
0.000439498
0.000502395
0.000483508
0.000650722
0.00036588
0.000363604
0.000455726
0.000335831
0.000664241
0.000627091
0.0010982
0.000774324
0.000485841
0.000404295
0.000932592
0.000491582
0.000395482
0.000337481
0.000189029
0.000337898
0.000454846
0.000387683
0.000369423
0.000503949
0.000459338
0.000268776
0.000414054
0.000561833
0.000550943
0.000528241
0.000406945
0.000415343
0.000629731
0.000353887
0.000424651
0.000836675
0.00148527
0.00102655
0.000528103
0.000587801
0.00147354
0.000701399
0.000353937
0.000281057
0.000259825
0.000244001
0.000266709
0.000201877
0.000308699
0.000383229
0.000476935
0.000567975
0.000320032
0.000454558
0.000440849
0.000391935
0.000340535
0.0002417
0.000436206
0.00032883
0.00055575
0.000446759
0.000678231
0.000305256
0.000795011
0.000790842
0.000979644
0.000364599
0.000797805
0.000605888
0.000492603
0.000685968
0.000400535
0.000165422
0.000215242
0.000185269
0.000164417
0.000104635
0.000131643
0.000215735
0.000360991
0.000196691
0.000235824
0.000170333
0.000227542
0.000229217
0.000198976
0.000261968
0.000359282
0.000361513
0.000427069
0.000422258
9.05013e-05
9.93663e-05
0.000147502
0.000138794
0.000285174
0.000204458
0.0020772
0.00227488
0.000376161
0.002442
0.00219641
0.000485264
0.000287866
0.00053298
0.00236126
0.00222941
0.000538058
0.000259437
0.000408826
0.000525195
0.00040856
0.00245619
0.00219094
0.000582659
0.000419424
0.000458813
0.000331481
0.000507628
0.000513409
0.000453478
0.00237028
0.00229838
0.00051238
0.000640655
0.000383145
0.000486093
0.000402811
0.00048134
0.000553342
0.000587297
0.000480034
0.00241457
0.00210611
0.000487482
0.000368078
0.000532329
0.000469524
0.0004624
0.000440645
0.000554859
0.000520117
0.000467996
0.000529268
0.000453556
0.00235439
0.00241553
0.000667181
0.000923054
0.000564709
0.000595479
0.000356884
0.000351806
0.000629647
0.00056938
0.000450301
0.00063441
0.000760901
0.000759059
0.00100632
0.00225102
0.00232384
0.000784491
0.000672249
0.000660522
0.000554215
0.000607979
0.00063384
0.000577453
0.000579647
0.000659831
0.000731249
0.000565342
0.000549976
0.000563595
0.000301652
0.000592025
0.00235463
0.00261907
0.000915933
0.000950878
0.000875272
0.000672305
0.000703149
0.000637292
0.000536559
0.000495259
0.000587809
0.00080299
0.000776144
0.000715116
0.00102553
0.00101784
0.000859477
0.00125946
0.00114525
0.0027596
0.00251539
0.00042438
0.00089815
0.0011915
0.000819604
0.000627367
0.000539389
0.000465395
0.000393003
0.000416402
0.000730286
0.000758142
0.0007017
0.000379253
0.000408033
0.000765579
0.00067132
0.00136765
0.00173844
0.00130168
0.00305167
0.00285651
0.000881431
0.000805994
0.000618575
0.000482416
0.000418209
0.000147886
0.000127278
0.000417079
0.000772457
0.000664536
0.000497016
0.000146831
0.000203999
0.00150335
0.00121421
0.00135507
0.000910567
0.000927253
0.00103805
0.00109619
0.00149655
0.00266059
0.00277242
0.0013125
0.000473264
0.000988631
0.00101873
0.000295851
0.000375584
0.000211843
0.000597788
0.000162238
0.000273119
0.000576787
0.000318122
0.000352294
0.00130715
0.00074624
0.000713482
0.0004582
0.000892349
0.000705487
0.0010472
0.00101381
0.00066067
0.00113994
0.00251217
0.00156888
0.00062045
0.000686702
0.00136125
0.00089914
0.000314413
0.000519498
0.000490821
0.00132476
0.000805879
0.000244619
0.000283285
0.000514815
0.000250667
0.000212793
0.000335954
0.00112784
0.000798732
0.00100612
0.000463447
0.0003903
0.000370265
0.000731527
0.000396933
0.00065884
0.000961267
0.00107561
0.000734017
0.000525591
0.000434736
0.00117076
0.000715801
0.000351338
0.000420138
0.000170338
0.000244515
0.000312211
0.000502103
0.000396359
0.000521365
0.000477692
0.000397396
0.000433121
0.000727871
0.000400823
0.000513432
0.000603036
0.000717886
0.000452305
0.000519002
0.000696367
0.000433508
0.000465518
0.00153227
0.00179606
0.000687769
0.000584299
0.000532234
0.00103305
0.000701119
0.000433985
0.000259981
0.000274007
0.000238811
0.000278933
0.000252407
0.000377466
0.000403606
0.000465521
0.000547159
0.000320465
0.000202655
0.000354304
0.000286283
0.000506143
0.000385239
0.000369776
0.000259503
0.000399484
0.000414969
0.00067722
0.000414866
0.000474969
0.000244733
0.000798284
0.000816937
0.000787701
0.000544257
0.000771952
0.000633274
0.000286643
0.000797062
0.000394683
0.000140084
0.000198864
0.000180714
9.75068e-05
0.000267003
0.000156998
0.000153973
0.000193879
0.000176906
0.000251767
0.00027815
0.000249787
0.000178671
0.000136098
0.000139505
0.000200608
0.000134821
0.000325982
0.000228253
0.000433332
0.000359475
0.00020872
0.000181032
0.000159512
0.000135967
0.000259484
0.000138451
0.00197728
0.00213575
0.000369625
0.00219822
0.00221995
0.000440416
0.000327448
0.000391551
0.00244196
0.00222862
0.00042071
0.000551795
0.000375288
0.000271736
0.000461187
0.00234554
0.00223801
0.000487404
0.000434592
0.00040866
0.000509621
0.000224463
0.00068405
0.000559611
0.00250438
0.00217538
0.000578277
0.000394993
0.000224914
0.000459469
0.000466174
0.00027068
0.000585867
0.000296941
0.000608689
0.00246574
0.00215088
0.00061159
0.000549968
0.000264544
0.000442728
0.000546951
0.000332099
0.00041138
0.000412882
0.000433303
0.000731109
0.000680679
0.00231113
0.0023597
0.000682778
0.00033657
0.000492289
0.000519203
0.00046964
0.000457376
0.0004211
0.00056611
0.000416647
0.000367374
0.000427749
0.000516153
0.000713078
0.0022148
0.00240812
0.000825026
0.000664717
0.000591841
0.000756056
0.000707374
0.000681791
0.000402546
0.000357951
0.000588314
0.000674105
0.000562168
0.000802423
0.000437334
0.000517662
0.000735856
0.00216366
0.00224394
0.000705296
0.000413782
0.000663528
0.000624681
0.000627547
0.000632171
0.000584102
0.000496709
0.000557779
0.000533824
0.000821348
0.00069772
0.000622166
0.000519968
0.000616441
0.000499858
0.000484415
0.00222633
0.00251463
0.000683144
0.00073055
0.000663747
0.000808894
0.000776316
0.000584218
0.000622321
0.000525235
0.000533777
0.000606612
0.000654467
0.00061688
0.000798475
0.00151593
0.000809758
0.000979005
0.00129952
0.000968901
0.001181
0.00283961
0.00242553
0.000394745
0.000592987
0.000733789
0.000620327
0.000493128
0.000575864
0.000493737
0.000763298
0.0005327
0.000514657
0.000612206
0.000455625
0.000878608
0.000330914
0.000789138
0.00124432
0.00073612
0.000699419
0.0012091
0.00208379
0.00118721
0.00393304
0.00272472
0.000974683
0.000835544
0.00073559
0.000506983
0.000145578
0.000298176
0.000286227
0.000254361
0.000547579
0.000345315
0.000384016
0.000494382
0.000147541
0.000972433
0.000561478
0.000496945
0.000886459
0.000720812
0.00125135
0.00162611
0.000346836
0.000545362
0.00140584
0.00273453
0.00222969
0.00103501
0.000749085
0.000772764
0.00134411
0.000660232
0.000428834
0.000440758
0.000571396
0.000635091
0.000307729
0.000247787
0.000445616
0.000312685
0.000667351
0.00093339
0.0011182
0.00063618
0.00102496
0.000796596
0.000237857
0.00062441
0.00105415
0.00115488
0.000579291
0.00121808
0.00240617
0.00179011
0.000650673
0.000679552
0.000869194
0.000956487
0.000547836
0.000526818
0.000455915
0.000599474
0.000496822
0.00037466
0.000250562
0.000390569
0.000356907
0.000501104
0.000694677
0.00154422
0.000705937
0.000457585
0.000945948
0.000962138
0.00061119
0.00049238
0.000599366
0.000790599
0.000419947
0.000940322
0.00173441
0.000962644
0.000613046
0.00047757
0.00065074
0.000922097
0.000831288
0.000442991
0.000427555
0.000185396
0.000315653
0.00052973
0.000400253
0.000393896
0.00061433
0.000522865
0.000430661
0.000356939
0.000370528
0.000573471
0.000527801
0.000488573
0.000624839
0.000463321
0.000518471
0.000359674
0.000579861
0.00058198
0.000491686
0.000458565
0.0015233
0.00151213
0.000494486
0.000687154
0.000574198
0.000714015
0.000904765
0.000516418
0.000227518
0.000297945
0.000240018
0.000280045
0.000337579
0.000373008
0.000415761
0.000415301
0.000572758
0.000277412
0.000241134
0.000273058
0.00025982
0.00040965
0.000413375
0.000422287
0.000216879
0.000278676
0.000386394
0.000485364
0.000665042
0.00058011
0.000519591
0.000397229
0.000153107
0.000618385
0.000783796
0.000874653
0.000664676
0.000794734
0.000615504
0.000196122
0.000821429
0.000379003
0.000131326
0.00018519
0.00015954
0.000189888
0.000136181
0.000152414
0.000233378
0.000142422
0.000190587
0.000258481
0.00027924
0.000323724
0.000301441
0.000247488
0.000190852
0.000173728
8.36275e-05
5.85197e-05
0.000101667
0.000113081
9.59622e-05
0.000538328
0.000477046
0.000175805
9.52535e-05
0.000163513
0.000148398
0.000260649
0.000130603
0.00206022
0.00205437
0.000488275
0.00208462
0.00208538
0.000291777
0.000354778
0.000434044
0.00218803
0.0021503
0.000483602
0.000490712
0.000493354
0.000367655
0.000463928
0.00243956
0.00218649
0.000330351
0.000560669
0.00023897
0.000258656
0.000330182
0.000396434
0.000426904
0.00235099
0.00224333
0.000517494
0.000211878
0.000264938
0.000351582
0.000392067
0.000219496
0.000404587
0.000771424
0.00089657
0.0023441
0.00226862
0.000373477
0.00038875
0.000212965
0.000412104
0.000543822
0.000524006
0.000345869
0.000617152
0.000489431
0.000300795
0.000746151
0.00241724
0.00242412
0.000517964
0.000586356
0.00044123
0.000284381
0.000561765
0.000447064
0.00026001
0.000528021
0.000329326
0.000360424
0.000273314
0.000457225
0.000914792
0.00244076
0.0024494
0.000449616
0.000482762
0.000413025
0.00036458
0.000571422
0.000351072
0.000393077
0.000411174
0.000629741
0.000543513
0.000346796
0.000511072
0.000306328
0.000597449
0.000851419
0.00236586
0.00240204
0.000787126
0.000594544
0.000482287
0.000594987
0.000611866
0.000449358
0.000535013
0.000464907
0.00039434
0.00065124
0.000366639
0.00048025
0.000607362
0.000432378
0.000504127
0.000518694
0.000611238
0.00220994
0.00215128
0.000661998
0.000494002
0.000719596
0.000664313
0.000778413
0.000552183
0.000594414
0.000662148
0.000280515
0.000494303
0.000724873
0.000647632
0.000780745
0.00074478
0.000504734
0.000606124
0.000621227
0.000578705
0.000773639
0.00200222
0.00243044
0.000822072
0.000469131
0.000719519
0.000586641
0.000831891
0.000814811
0.000735173
0.000839469
0.000869916
0.000760511
0.000690318
0.000527232
0.000667659
0.000534744
0.000820233
0.000682715
0.00101966
0.000648089
0.00151037
0.00129307
0.00100713
0.00200856
0.00229834
0.000961894
0.00060593
0.000502347
0.000412179
0.000612502
0.000638484
0.000644595
0.000423482
0.000713104
0.000417952
0.000513807
0.000554385
0.000735462
0.000476043
0.000449849
0.0010605
0.000562296
0.000756385
0.000730381
0.000823413
0.00158869
0.00237751
0.00184331
0.00333334
0.00297608
0.00113411
0.000858749
0.000696629
0.000331066
0.00039217
0.000211823
0.000333645
0.000343192
0.000440995
0.000739526
0.000381104
0.000421793
0.0002554
0.000342176
0.000430811
0.000569395
0.000952218
0.00167919
0.000674403
0.000641455
0.00128758
0.00124159
0.000406528
0.000477302
0.00172932
0.00267303
0.00208743
0.00164521
0.000625826
0.000482834
0.00114079
0.00105085
0.000760952
0.000517132
0.00038197
0.000535688
0.000303663
0.000395425
0.000516943
0.000395838
0.000349899
0.000218103
0.000388543
0.00035963
0.00121221
0.00121192
0.00113214
0.00072529
0.000451548
0.000774703
0.000772309
0.000832763
0.000815113
0.000850353
0.00216636
0.00139477
0.000438287
0.000656458
0.00102222
0.00116564
0.000687446
0.000468259
0.000300797
0.000399067
0.000382107
0.000366775
0.000346787
0.000349387
0.000354693
0.000525808
0.000477497
0.000488518
0.000607848
0.000202402
0.000679421
0.000493792
0.000303943
0.000499016
0.000845046
0.000493318
0.000483814
0.000239841
0.000421652
0.00110112
0.0015268
0.00124016
0.000488476
0.000592407
0.000778519
0.000752203
0.000762519
0.00043444
0.000397801
0.000203887
0.000280689
0.000327776
0.000495584
0.000350423
0.000684746
0.000623028
0.000315446
0.00050094
0.000152005
0.000248561
0.000344816
0.000665973
0.000401061
0.000506034
0.000453426
0.000542281
0.000508269
0.000501213
0.000533696
0.000529871
0.000534526
0.000558244
0.00109969
0.000794325
0.00078824
0.000705219
0.000506824
0.000440584
0.000802232
0.000701969
0.000318914
0.000238825
0.000255071
0.000279265
0.000297842
0.00034594
0.000435488
0.000476882
0.000545739
0.000333097
0.000248898
0.000270683
0.00033082
0.000307052
0.000300951
0.000346509
0.000424809
0.000556387
0.000194792
0.000340791
0.000201264
0.00047704
0.000768762
0.000343907
0.000558676
0.000344325
0.000492552
0.000585596
0.000738746
0.000596844
0.000658194
0.000811175
0.000510427
0.000314795
0.000784902
0.000342098
0.000124011
0.000180541
0.000157322
0.000203703
0.000104149
0.000134772
0.000297596
0.000357555
0.000191206
0.000262731
0.000271923
0.000319722
0.000357575
0.000318795
0.000296664
0.000256682
0.000171074
6.29125e-05
0.000221076
4.9414e-05
9.90198e-05
0.000328398
0.00020978
0.000400199
0.000448854
0.000120903
7.00959e-05
0.000160233
6.0242e-05
0.000255852
0.000159137
0.00219934
0.00207017
0.000430163
0.00220317
0.00203848
0.000247737
0.000291883
0.000491054
0.00211289
0.00209878
0.000470706
0.000384062
0.000450219
0.000364122
0.000411196
0.00216689
0.0021041
0.000441242
0.000354458
0.000511387
0.000435053
0.000576859
0.000426865
0.000544847
0.00241953
0.00213652
0.000361166
0.000274339
0.000386003
0.000401462
0.000444396
0.000424449
0.000238779
0.000359212
0.000383875
0.00228171
0.00221666
0.000523796
0.000344649