/*--------------------------------*- C++ -*----------------------------------*\
  =========                 |
  \\      /  F ield         | OpenFOAM: The Open Source CFD Toolbox
   \\    /   O peration     | Website:  https://openfoam.org
    \\  /    A nd           | Version:  7
     \\/     M anipulation  |
\*---------------------------------------------------------------------------*/
FoamFile
{
    version     2.0;
    format      ascii;
    class       volScalarField;
    location    "9.5";
    object      p;
}
// * * * * * * * * * * * * * * * * * * * * * * * * * * * * * * * * * * * * * //

dimensions      [0 2 -2 0 0 0 0];

internalField   nonuniform List<scalar> 
150000
(
-59.9278
-59.9394
-59.874
-60.1875
-59.9866
-57.9916
-59.9176
-59.8286
-59.9637
-59.8355
-60.188
-60.4492
-60.1906
-60.0393
-57.9578
-57.7731
-55.8476
-58.1862
-59.8915
-59.9469
-60.726
-59.7513
-59.9597
-59.7738
-60.1972
-60.4708
-61.4086
-60.4428
-60.1964
-60.0855
-54.6478
-57.5786
-58.9591
-58.3639
-57.5068
-57.7069
-60.0884
-56.7419
-58.3926
-59.8563
-60.0879
-60.8284
-61.2215
-60.5893
-59.6994
-59.9948
-59.7154
-60.2236
-60.5119
-61.4317
-61.8327
-61.394
-60.4525
-60.2011
-60.1261
-53.889
-54.5376
-59.9453
-54.8057
-56.9798
-59.0804
-59.7499
-58.4036
-58.5499
-57.4063
-57.9607
-60.3226
-60.2293
-59.9324
-51.644
-58.0578
-59.8029
-60.2008
-60.8943
-61.252
-61.7537
-61.1869
-60.4779
-59.7718
-60.0559
-59.7138
-60.2702
-60.5697
-61.4615
-61.8839
-62.2696
-61.7731
-61.3893
-60.4749
-60.2006
-60.1682
-51.6909
-53.8083
-55.7833
-53.6061
-54.5988
-60.3898
-59.4996
-58.8788
-54.8356
-56.6288
-58.3676
-59.7301
-60.1803
-59.6139
-57.8061
-58.4891
-57.3474
-58.053
-60.3439
-60.4795
-60.5395
-60.0331
-59.9369
-57.5281
-57.3127
-59.7585
-60.2897
-60.983
-61.2754
-61.8007
-62.3171
-61.7028
-61.1972
-60.3918
-59.8511
-60.1074
-59.7384
-60.3382
-60.6439
-61.5006
-61.9223
-62.3263
-62.2821
-62.2146
-61.7373
-61.3914
-60.4851
-60.2047
-60.2117
-49.8143
-51.5116
-51.5963
-51.4941
-53.9306
-56.2935
-55.2486
-55.1132
-53.8604
-55.0702
-60.0906
-59.796
-59.4955
-59.3938
-57.8676
-55.2935
-56.505
-57.5378
-59.4528
-60.2634
-59.9927
-59.9996
-59.4501
-57.5509
-57.9711
-57.6743
-58.32
-60.3251
-60.6606
-60.6617
-61.0515
-60.4663
-59.8784
-59.9088
-56.8394
-56.9472
-59.7029
-60.3943
-61.1144
-61.2859
-61.8363
-62.4053
-62.1631
-62.2059
-61.6535
-61.1721
-60.3387
-59.8381
-60.1361
-59.7756
-60.4254
-60.7302
-61.551
-61.9673
-62.3975
-62.3232
-62.325
-62.2457
-62.1508
-61.7222
-61.3992
-60.5166
-60.229
-60.2584
-48.8938
-49.7242
-50.1963
-49.857
-51.7663
-52.3227
-53.0728
-50.9787
-51.2243
-54.2358
-56.4046
-55.3057
-56.7835
-55.0476
-54.7588
-53.3464
-55.0619
-59.2211
-59.8068
-59.6765
-59.1504
-59.1095
-59.3328
-56.8966
-55.3986
-56.6143
-57.0086
-59.2996
-60.3164
-60.1122
-60.3975
-59.9292
-59.8466
-59.3959
-57.4028
-57.7638
-58.0373
-58.5153
-60.3582
-60.7489
-60.8767
-61.1219
-61.523
-60.9834
-60.378
-59.8064
-59.9337
-58.6789
-56.897
-59.6492
-60.5034
-61.1858
-61.3519
-61.885
-62.4214
-62.1935
-62.3822
-62.1256
-62.1297
-61.6031
-61.1586
-60.271
-59.8355
-60.1589
-59.8334
-60.5293
-60.8232
-61.608
-62.0165
-62.4754
-62.3631
-62.3664
-62.3356
-62.2784
-62.2044
-62.0733
-61.7162
-61.4144
-60.5888
-60.2717
-60.2968
-48.0471
-48.9405
-49.2297
-48.9482
-49.8814
-50.3827
-50.3564
-50.3527
-49.953
-51.9333
-52.4241
-53.006
-53.2988
-53.1128
-51.2709
-51.0907
-53.8439
-55.9363
-55.6988
-56.7338
-57.7635
-56.3373
-55.0159
-54.6384
-53.5313
-54.7895
-57.9475
-60.0716
-60.1312
-59.3771
-59.1368
-59.603
-58.6467
-59.3259
-56.4194
-55.3001
-57.1101
-56.7581
-59.2185
-60.1938
-60.268
-60.4487
-60.7266
-60.3604
-59.9415
-59.8131
-59.5346
-57.3426
-57.4028
-58.3691
-58.6961
-60.4483
-60.8348
-61.0329
-61.193
-61.5813
-62.0239
-61.4611
-60.928
-60.2835
-59.7575
-59.9806
-59.0001
-57.0468
-59.6372
-60.5748
-61.2145
-61.4302
-61.9405
-62.5397
-62.2386
-62.4381
-62.9402
-62.3319
-62.0719
-62.0363
-61.537
-61.1156
-60.221
-60.0194
-60.2783
-59.915
-60.6438
-60.9166
-61.6751
-62.0711
-62.5398
-62.392
-62.4023
-62.3792
-63.2494
-62.2853
-62.2337
-62.1647
-61.9992
-61.7125
-61.4392
-60.6455
-60.3203
-60.3381
-47.5813
-48.1916
-48.3675
-48.0699
-48.9417
-49.3355
-49.6731
-49.1491
-49.065
-50.0935
-50.4303
-50.6081
-50.9034
-50.5771
-50.5586
-50.0066
-51.6792
-52.3392
-52.8922
-53.2789
-54.4252
-53.1328
-52.9003
-51.5108
-51.1509
-53.6462
-55.6634
-56.0305
-56.7098
-55.9719
-56.9888
-57.5094
-56.0765
-55.1921
-54.6991
-53.7118
-55.0216
-57.1349
-59.9961
-60.0261
-59.9131
-59.147
-59.4379
-59.2602
-59.4124
-58.9859
-59.7735
-56.5093
-55.4536
-57.6259
-56.6021
-59.1307
-60.0868
-60.3939
-60.5141
-60.7478
-60.971
-60.7542
-60.3305
-59.9709
-59.7256
-59.62
-57.8164
-57.5613
-58.542
-59.07
-60.5839
-60.8556
-61.087
-61.2645
-61.6352
-62.1037
-63.2203
-61.932
-61.4266
-60.8795
-60.2113
-59.7188
-59.8694
-58.9319
-57.432
-59.6659
-60.5978
-61.2668
-61.4872
-61.9984
-62.6259
-62.2784
-62.4919
-62.9628
-63.99
-62.9188
-62.2769
-62.0251
-61.9536
-61.4598
-61.0966
-60.1916
-60.1985
-60.4417
-60.022
-60.777
-61.004
-61.7442
-62.1231
-62.6058
-62.4109
-62.4308
-62.4139
-63.27
-63.8296
-63.2291
-62.2243
-62.2
-62.1347
-61.9297
-61.7027
-61.4641
-60.6947
-60.3718
-60.4138
-47.0066
-47.754
-47.7054
-47.5083
-48.2828
-48.3153
-48.1996
-48.2643
-48.0632
-49.0187
-49.3086
-49.5968
-49.59
-49.5284
-49.2835
-49.1065
-50.2288
-50.1888
-50.5462
-50.8457
-50.7624
-50.8909
-50.5974
-50.588
-49.9907
-52.0588
-52.3474
-52.6594
-53.0915
-54.4229
-54.1665
-53.441
-53.448
-52.9662
-51.2423
-51.5064
-53.8026
-55.5814
-56.2973
-56.4948
-57.0093
-56.8661
-57.2333
-56.922
-56.6017
-56.0168
-55.7105
-54.9853
-53.7143
-55.2909
-56.6806
-59.7536
-59.553
-59.4976
-59.2603
-59.4125
-59.3974
-59.4654
-59.1693
-59.6501
-59.1958
-60.2894
-57.045
-55.3612
-57.7628
-56.8428
-59.1992
-60.0024
-60.4806
-60.5834
-60.7621
-60.9029
-62.1779
-61.0589
-60.9841
-60.2784
-59.9571
-59.6362
-59.7004
-58.627
-58.3848
-58.7222
-59.4042
-60.6974
-60.8237
-61.2189
-61.3571
-61.7068
-62.1786
-63.263
-64.4473
-63.201
-61.8474
-61.4059
-60.827
-60.1452
-59.7119
-59.7329
-59.1016
-57.8051
-59.7279
-60.6303
-61.3447
-61.5562
-62.0709
-62.6217
-62.3046
-62.5458
-62.9884
-64.0014
-64.6111
-63.9652
-62.8968
-62.2154
-61.986
-61.8827
-61.3579
-61.1539
-60.1458
-60.299
-60.5935
-60.1528
-60.9165
-61.083
-61.8159
-62.1797
-62.6667
-62.4263
-62.4532
-62.4489
-63.2913
-63.8165
-64.1212
-63.8271
-63.2091
-62.1653
-62.1716
-62.1096
-61.8647
-61.7043
-61.4978
-60.7455
-60.4457
-60.5022
-46.5794
-46.9898
-47.0686
-47.0249
-47.7363
-47.7193
-47.8348
-47.7307
-47.5082
-48.3301
-48.4397
-48.0937
-48.4271
-48.3774
-48.0778
-47.9851
-49.1348
-49.351
-49.6483
-49.616
-49.7782
-49.6416
-49.5302
-49.3975
-49.1046
-50.1802
-50.0847
-50.3826
-50.8255
-51.175
-50.9511
-51.0103
-51.1228
-50.4004
-50.5097
-50.009
-52.2269
-52.4985
-52.8917
-53.4202
-53.7276
-54.1482
-54.4637
-54.0178
-53.8911
-53.4096
-53.2599
-51.4514
-51.9123
-53.6386
-55.592
-55.9313
-56.1711
-57.6948
-57.0028
-57.0348
-56.9586
-57.2709
-56.8183
-56.8017
-56.383
-56.1785
-55.3495
-53.5926
-55.2783
-56.1087
-59.4114
-59.3739
-59.4589
-59.157
-59.3089
-59.416
-60.1548
-59.4946
-59.4631
-59.1702
-59.8943
-59.7568
-60.3924
-57.654
-54.9975
-57.9909
-57.3122
-59.3625
-59.9863
-60.4296
-60.6495
-60.7864
-61.0789
-62.1942
-62.8956
-62.3666
-61.2882
-60.86
-60.2352
-59.9057
-59.7487
-59.7179
-59.1601
-59.084
-58.884
-59.6259
-60.7991
-60.7727
-61.3059
-61.4205
-61.7593
-62.2469
-63.3072
-64.4883
-65.5452
-64.3765
-63.1951
-61.8254
-61.369
-60.7689
-60.0717
-59.7431
-59.627
-59.1036
-58.189
-59.8241
-60.673
-61.4322
-61.5929
-62.1619
-62.6771
-62.3491
-62.6051
-63.014
-64.0005
-64.5971
-65.4326
-64.6088
-63.928
-62.8681
-62.1531
-61.9284
-61.8122
-61.2571
-61.1513
-60.1046
-60.3003
-60.8079
-60.3036
-61.1367
-61.1495
-61.9015
-62.2436
-62.7106
-62.4435
-62.4722
-62.4806
-63.3057
-63.7938
-64.1151
-64.638
-64.0912
-63.8249
-63.19
-62.1181
-62.1456
-62.0849
-61.8091
-61.7218
-61.5498
-60.8035
-60.5232
-60.5969
-46.2308
-46.6244
-46.4759
-46.5309
-46.9751
-47.0815
-46.9635
-47.1764
-46.9903
-47.6854
-47.7068
-47.8284
-47.7013
-47.8346
-47.7294
-47.4854
-48.3516
-48.541
-48.1721
-48.4305
-48.4049
-48.4669
-48.3276
-48.1571
-47.9831
-49.1517
-49.2968
-49.6384
-49.6587
-49.7968
-49.9511
-49.7499
-49.6085
-49.4618
-49.5077
-49.2826
-50.2341
-50.4672
-50.5947
-50.7379
-51.0473
-51.2103
-51.3738
-51.3031
-51.2604
-51.3587
-50.4004
-50.1289
-49.8872
-52.0061
-52.731
-52.5844
-53.5306
-54.3474
-54.104
-54.3851
-54.566
-54.4195
-54.1376
-53.7533
-53.511
-52.873
-51.9115
-52.3282
-53.5821
-55.0352
-55.6948
-55.7681
-56.7656
-57.3238
-57.0397
-56.9244
-57.2353
-57.1077
-56.7256
-56.9479
-56.9468
-56.8784
-56.3399
-56.2899
-53.2222
-55.5118
-55.8561
-59.5408
-59.4361
-59.3836
-59.1329
-59.2771
-59.4048
-59.961
-60.5811
-60.3776
-59.6369
-59.4668
-59.2647
-59.3701
-60.21
-59.9035
-58.2267
-54.9091
-58.347
-58.0924
-59.6869
-60.1014
-60.3816
-60.6916
-60.8378
-61.1213
-62.2517
-62.8872
-63.9696
-62.8676
-62.368
-61.4191
-60.8085
-60.2111
-59.9136
-59.7501
-59.6057
-59.5294
-59.4842
-59.06
-60.0184
-60.9348
-60.738
-61.3206
-61.4699
-61.8044
-62.3175
-63.3547
-64.4724
-65.4533
-66.2521
-65.5479
-64.3172
-63.0446
-61.7792
-61.3201
-60.6817
-60.0152
-59.7846
-59.5759
-59.1942
-58.6688
-59.9425
-60.7095
-61.5079
-61.5871
-62.2527
-62.7411
-62.3926
-62.6498
-63.0389
-63.9892
-64.5703
-65.3903
-65.4869
-65.4487
-64.6044
-63.8901
-62.8496
-62.0796
-61.8783
-61.7263
-61.1303
-61.15
-60.0816
-60.3214
-61.0023
-60.4692
-61.366
-61.1945
-61.9918
-62.3021
-62.7435
-62.459
-62.4895
-62.5085
-63.3138
-63.798
-64.0827
-64.6193
-63.9538
-64.6626
-64.1231
-63.8213
-63.1726
-62.0902
-62.1248
-62.0612
-61.7652
-61.731
-61.6037
-60.8725
-60.5417
-60.6576
-45.9127
-46.2247
-46.2625
-46.1424
-46.6022
-46.5971
-46.7308
-46.3806
-46.5649
-46.9767
-47.1084
-46.9781
-47.3011
-46.9214
-47.2319
-46.9874
-47.6971
-47.6832
-47.82
-47.784
-47.9344
-47.6735
-47.8179
-47.6194
-47.4639
-48.3105
-48.3606
-47.9819
-48.5122
-48.3956
-48.6708
-48.4308
-48.5481
-48.3671
-48.1276
-48.0117
-49.2833
-49.0979
-49.6626
-49.5978
-49.8285
-50.0168
-50.1553
-50.0033
-49.9114
-49.6102
-49.4527
-49.4232
-49.0797
-50.3998
-50.3987
-50.6136
-50.8241
-50.9181
-51.108
-51.5953
-51.9775
-51.4053
-51.5747
-51.1812
-51.0159
-50.4418
-50.5133
-49.7961
-51.9409
-52.4912
-53.202
-53.5058
-54.369
-54.2575
-54.2094
-54.5072
-54.5603
-54.5869
-54.3917
-53.9689
-53.731
-53.7937
-52.9479
-51.5973
-51.9343
-53.622
-54.8232
-56.018
-55.479
-56.615
-57.1062
-57.0749
-56.922
-56.9812
-57.303
-57.314
-57.0889
-57.0021
-56.8983
-57.0384
-57.5548
-55.6512
-56.4687
-52.976
-55.941
-56.2801
-59.5477
-59.8569
-59.1737
-59.3124
-59.3347
-59.3876
-59.9283
-60.4916
-61.1072
-60.5852
-59.9547
-59.7488
-59.5521
-59.0217
-59.0699
-60.1847
-59.4653
-58.5984
-55.0314
-58.7201
-59.0632
-60.1106
-60.1206
-60.3903
-60.7358
-60.878
-61.1055
-61.8863
-62.8553
-63.8022
-64.0004
-64.1706
-62.7105
-62.1393
-61.4112
-60.6741
-60.1526
-59.85
-59.6603
-59.5671
-59.8344
-59.7065
-59.2499
-60.3932
-61.0671
-60.7181
-61.3141
-61.5361
-61.8654
-62.3818
-63.2658
-64.4263
-65.2899
-66.0594
-66.201
-66.415
-65.4753
-64.2563
-62.9013
-61.7272
-61.287
-60.6273
-59.9796
-59.8598
-59.6167
-59.3247
-59.3826
-60.0671
-60.7519
-61.5526
-61.5885
-62.3264
-62.7816
-62.4292
-62.6857
-63.0581
-63.9742
-64.5403
-65.3325
-65.3828
-65.8208
-65.5402
-65.5209
-64.5772
-63.8328
-62.7914
-62.004
-61.8205
-61.6301
-61.0293
-61.1541
-60.1179
-60.4259
-61.1454
-60.6232
-61.5732
-61.2505
-62.0787
-62.3632
-62.7703
-62.4727
-62.5057
-62.5324
-63.3242
-63.7991
-64.0498
-64.5948
-63.9515
-63.493
-64.0841
-64.69
-64.1434
-63.8067
-63.1619
-62.0756
-62.1063
-62.0371
-61.7335
-61.7305
-61.6404
-60.9488
-60.5621
-60.7453
-45.6181
-45.8969
-45.9785
-45.9226
-46.2152
-46.2199
-46.2658
-46.1314
-46.128
-46.6388
-46.628
-46.6993
-46.6557
-46.7433
-46.398
-46.5219
-47.0583
-47.1153
-46.9964
-47.3014
-47.1739
-47.3262
-46.8982
-47.284
-46.9683
-47.7751
-47.6317
-47.7666
-47.8084
-47.9274
-47.9446
-47.9666
-47.6728
-47.7736
-47.5333
-47.4893
-48.3169
-48.4049
-48.2012
-48.5804
-48.6144
-48.7265
-48.8778
-48.6767
-48.5429
-48.5566
-48.2811
-48.1928
-48.0568
-49.3561
-49.2054
-49.6582
-49.6889
-49.9617
-50.0352
-50.1839
-50.2703
-50.1685
-50.0014
-49.8315
-49.6181
-49.4278
-49.2163
-48.9639
-50.5026
-50.6288
-50.6418
-50.9696
-51.232
-51.0241
-51.5011
-51.8828
-52.1178
-51.792
-51.8157
-51.5565
-51.2101
-51.1341
-50.1926
-50.4846
-49.9176
-51.9613
-52.6492
-53.3587
-53.8241
-54.2364
-54.3269
-54.1427
-54.3568
-54.6144
-54.4643
-54.4646
-54.6965
-54.7407
-54.3673
-54.0771
-53.7204
-53.0435
-51.1902
-51.8942
-53.6862
-54.5667
-55.7799
-55.5224
-56.5875
-57.0063
-57.03
-56.9528
-57.0193
-57.3628
-57.478
-57.2583
-57.0846
-57.096
-57.2646
-57.0182
-57.0478
-57.9918
-55.836
-56.2435
-52.5237
-56.3696
-56.8213
-60.0204
-60.1412
-59.0714
-59.3668
-59.3359
-59.375
-59.8216
-60.278
-60.8494
-61.1403
-61.1321
-60.4695
-59.8673
-59.8104
-59.448
-59.0381
-59.1001
-59.9713
-59.4817
-58.7718
-55.0534
-59.1101
-59.9773
-60.4066
-60.1543
-60.4316
-60.7033
-60.903
-61.1329
-61.7387
-62.7457
-63.5941
-63.7778
-64.4676
-64.2226
-63.8946
-62.8618
-62.0344
-61.3733
-60.5521
-60.0138
-59.7874
-59.5717
-59.4849
-59.889
-59.9515
-59.4317
-60.6695
-61.1517
-60.7098
-61.3199
-61.5872
-61.9222
-62.4479
-63.247
-64.376
-65.1388
-65.8226
-65.8648
-65.8664
-66.5484
-66.5642
-65.414
-64.1359
-62.7154
-61.6957
-61.2714
-60.5593
-59.9033
-59.9661
-59.7017
-59.4524
-60.1481
-60.1756
-60.8048
-61.5739
-61.6124
-62.4135
-62.8108
-62.4703
-62.7106
-63.071
-63.9637
-64.5098
-65.261
-65.2299
-65.6204
-64.6668
-65.9727
-65.6081
-65.5405
-64.5151
-63.8051
-62.6633
-61.9229
-61.7625
-61.5154
-60.9601
-61.1601
-60.2263
-60.5598
-61.2967
-60.7488
-61.744
-61.3389
-62.152
-62.4337
-62.7931
-62.4861
-62.5216
-62.5513
-63.3294
-63.7935
-64.0007
-64.5366
-63.9876
-63.4585
-62.6545
-63.533
-64.2569
-64.7106
-64.1381
-63.7977
-63.1561
-62.0727
-62.0916
-62.0123
-61.7195
-61.7267
-61.6737
-61.0246
-60.665
-60.8082
-45.3709
-45.5848
-45.5832
-45.5878
-45.9084
-45.9439
-45.9837
-46.0003
-45.9129
-46.2304
-46.1895
-46.267
-46.2915
-46.2687
-46.0575
-46.1039
-46.6645
-46.6418
-46.6437
-46.6258
-46.748
-46.6632
-46.6837
-46.4288
-46.5366
-47.1475
-47.0466
-47.0622
-47.2283
-47.2611
-47.2929
-47.1251
-47.3507
-46.9152
-47.2773
-46.9699
-47.8716
-47.777
-47.8289
-47.8127
-47.9131
-48.0018
-48.094
-47.8969
-47.7878
-47.668
-47.799
-47.4834
-47.4267
-48.4228
-48.6119
-48.2661
-48.628
-48.6104
-48.8104
-48.9474
-49.0771
-48.8919
-48.7279
-48.6507
-48.5805
-48.219
-48.0747
-47.9508
-49.4167
-49.3415
-49.485
-49.7143
-49.9583
-50.0006
-50.2045
-50.2102
-50.4243
-50.284
-50.1822
-49.9354
-49.6995
-49.6442
-49.4031
-49.1721
-49.0312
-50.5681
-50.9613
-50.5772
-50.9465
-51.221
-51.3928
-51.4911
-51.8221
-52.192
-52.1954
-52.057
-51.9745
-52.1546
-51.7067
-51.1398
-51.4407
-50.2043
-50.355
-49.6571
-52.0738
-52.7386
-53.3091
-53.7557
-54.1116
-54.0737
-54.304
-54.3521
-54.5613
-54.4665
-54.6778
-54.5874
-54.6596
-54.9263
-54.3504
-54.528
-54.2359
-53.7067
-53.1244
-51.2338
-52.4211
-53.67
-54.5017
-55.3986
-55.5968
-56.4965
-56.962
-57.0043
-57.0482
-57.0362
-57.1246
-57.1974
-57.3845
-57.5024
-57.717
-57.2926
-57.0691
-56.8334
-57.0784
-57.3176
-58.4908
-56.765
-56.1426
-52.81
-56.7652
-57.3909
-60.615
-60.2596
-59.1147
-59.2946
-59.3327
-59.4601
-59.8897
-60.1418
-60.672
-60.9441
-61.0335
-61.2442
-61.2213
-60.6859
-60.3089
-59.7587
-59.1756
-58.9209
-59.0202
-59.7186
-59.5133
-58.689
-55.0624
-59.3275
-60.6291
-60.6112
-60.2549
-60.5435
-60.7348
-60.9463
-61.1258
-61.8233
-62.5817
-63.3703
-63.4729
-64.0445
-63.5976
-64.8172
-64.3668
-64.18
-62.897
-61.8098
-61.2599
-60.4361
-59.8997
-59.685
-59.4608
-59.5201
-59.8685
-60.3607
-59.6238
-60.8349
-61.2543
-60.7262
-61.3357
-61.6286
-61.9741
-62.506
-63.298
-64.3515
-64.9586
-65.5861
-65.5476
-65.5154
-64.6935
-66.2097
-66.6491
-66.6697
-65.3295
-64.0044
-62.5393
-61.6153
-61.224
-60.4505
-59.8036
-60.0826
-59.7583
-59.6918
-60.8134
-60.281
-60.8665
-61.5557
-61.6558
-62.491
-62.8306
-62.5101
-62.7282
-63.0749
-63.9437
-64.4769
-65.1807
-65.1005
-65.4165
-64.5569
-63.8711
-64.7808
-66.0655
-65.6504
-65.4691
-64.4583
-63.7159
-62.5934
-61.8431
-61.6977
-61.3938
-60.9149
-61.1915
-60.2961
-60.7006
-61.4729
-60.8834
-61.9061
-61.4488
-62.2099
-62.5121
-62.8135
-62.4992
-62.5349
-62.5652
-63.3307
-63.7788
-63.9366
-64.4393
-64.0299
-63.418
-62.588
-62.5511
-62.7209
-63.5893
-64.3977
-64.7074
-64.1267
-63.7868
-63.1538
-62.0847
-62.0755
-61.9884
-61.7143
-61.7295
-61.7151
-61.0811
-60.8261
-60.8793
-45.1919
-45.3884
-45.3643
-45.3758
-45.6235
-45.592
-45.6211
-45.5693
-45.5841
-45.9153
-45.9937
-45.8918
-45.9575
-45.9806
-46.0544
-45.8815
-46.2577
-46.2498
-46.2181
-46.3323
-46.3248
-46.3314
-46.2479
-46.0112
-46.0315
-46.7364
-46.6925
-46.7174
-46.7493
-46.7085
-46.8115
-46.7544
-46.5908
-46.636
-46.3968
-46.5269
-47.2211
-47.09
-47.1414
-47.2524
-47.1687
-47.3113
-47.3965
-47.2543
-47.2069
-47.3103
-47.0123
-47.3198
-47.0156
-47.7483
-47.7892
-47.7918
-47.8223
-47.8424
-47.995
-48.1376
-48.1882
-47.9667
-47.9706
-47.8088
-47.7256
-47.6252
-47.4043
-47.365
-48.4674
-48.5741
-48.3985
-48.5518
-48.573
-48.747
-48.8854
-49.0988
-49.2443
-49.0716
-48.8599
-48.7988
-48.6087
-48.5346
-48.3045
-48.1089
-47.9801
-49.54
-49.4002
-49.6328
-49.6431
-49.8378
-49.9687
-50.0598
-50.3522
-50.3969
-50.5607
-50.4446
-50.3534
-50.1697
-49.9922
-49.7658
-49.6973
-49.287
-49.1036
-49.0603
-50.7391
-51.0231
-50.7294
-51.0639
-51.2596
-51.4154
-51.6798
-51.8381
-52.1024
-52.2749
-52.4004
-52.272
-52.174
-52.1177
-51.5609
-51.7968
-51.319
-51.3531
-50.2897
-50.3754
-49.5353
-52.2136
-52.7848
-53.3843
-53.8288
-54.0363
-54.0871
-54.2403
-54.2945
-54.4051
-54.3641
-54.5597
-54.6804
-54.8134
-54.7593
-54.9814
-54.6645
-54.2317
-54.4757
-54.5933
-54.1148
-53.2866
-51.1177
-52.3435
-53.5423
-54.6432
-55.3532
-55.7539
-56.4139
-56.9279
-57.0254
-56.9685
-56.9656
-56.9834
-57.2036
-57.3073
-57.4276
-57.6928
-58.0331
-57.6994
-57.3614
-57.0865
-57.2273
-56.8782
-57.2573
-58.4286
-57.3925
-55.99
-52.9088
-57.0709
-57.9607
-60.6022
-60.5865
-59.3465
-59.1253
-59.3672
-59.475
-59.8681
-59.9526
-60.3842
-60.7988
-60.6164
-60.3755
-60.8244
-61.407
-61.5248
-60.9529
-60.1497
-59.654
-59.2005
-58.7858
-58.8319
-59.3734
-59.1475
-58.5671
-55.4754
-59.5018
-60.989
-60.7484
-60.1999
-60.8279
-60.7768
-60.9881
-61.117
-61.7547
-62.2965
-63.0853
-63.186
-63.676
-63.2349
-62.3246
-63.8133
-65.0618
-64.5541
-64.3131
-63.0399
-61.7813
-61.1321
-60.3276
-59.8245
-59.5784
-59.3562
-59.2808
-59.6625
-60.7703
-59.8756
-60.9976
-61.3444
-60.7835
-61.3826
-61.6745
-62.0193
-62.547
-63.2634
-64.1457
-64.7629
-65.3537
-65.2375
-65.1761
-64.4672
-63.7859
-64.9444
-66.4866
-66.9312
-66.7253
-65.2187
-63.9068
-62.4064
-61.5343
-61.1629
-60.3436
-59.7123
-60.1883
-59.8568
-59.999
-61.3024
-60.3966
-60.9299
-61.5016
-61.7143
-62.5537
-62.8366
-62.5418
-62.7449
-63.0775
-63.9181
-64.4406
-65.0997
-64.9916
-65.2015
-64.46
-63.7473
-63.2873
-63.9902
-64.8647
-66.0114
-65.6418
-65.4524
-64.4278
-63.5599
-62.5155
-61.7735
-61.618
-61.2881
-60.8855
-61.2147
-60.3484
-60.8865
-61.6726
-61.0659
-62.0569
-61.5642
-62.2555
-62.5932
-62.8309
-62.5114
-62.5461
-62.576
-63.3269
-63.7454
-63.8963
-64.3163
-64.0515
-63.3697
-62.51
-62.4982
-62.5788
-62.6048
-62.7923
-63.647
-64.5098
-64.6866
-64.1182
-63.786
-63.1498
-62.1067
-62.0643
-61.9567
-61.7229
-61.7495
-61.7498
-61.1566
-60.9373
-60.9665
-45.0486
-45.2221
-45.1546
-45.1898
-45.4276
-45.4244
-45.3926
-45.4427
-45.3869
-45.6369
-45.6155
-45.5774
-45.6708
-45.6136
-45.5219
-45.5429
-45.9371
-46.0134
-45.8913
-46.0119
-46.022
-45.9632
-46.0015
-45.9982
-45.8729
-46.3092
-46.2763
-46.3326
-46.378
-46.3105
-46.3351
-46.34
-46.2255
-46.1341
-45.8882
-46.1382
-46.68
-46.7671
-46.7421
-46.7885
-46.7438
-46.7959
-46.9819
-46.8337
-46.6923
-46.6184
-46.6358
-46.5667
-46.4339
-46.9961
-47.1385
-47.1622
-47.2332
-47.2607
-47.3324
-47.4262
-47.5538
-47.3241
-47.3424
-47.2467
-47.3049
-47.0451
-47.262
-46.9846
-47.7378
-47.8546
-47.829
-47.7904
-47.9308
-47.9717
-48.0441
-48.2386
-48.2932
-48.1787
-48.1376
-47.9972
-47.9039
-47.7814
-47.5389
-47.3888
-47.3572
-48.5159
-48.606
-48.5632
-48.6876
-48.6778
-48.7882
-48.881
-49.0674
-49.2466
-49.4224
-49.1794
-49.0563
-48.9101
-48.7106
-48.636
-48.4768
-48.3257
-48.0954
-48.0737
-49.7383
-49.5308
-49.7317
-49.7014
-49.8232
-49.9602
-50.141
-50.2596
-50.3355
-50.6412
-50.6604
-50.5797
-50.4968
-50.3206
-50.1896
-50.031
-49.8102
-49.6709
-49.1782
-48.9838
-49.152
-50.9509
-51.1705
-51.03
-51.143
-51.3873
-51.4943
-51.6746
-51.8146
-51.9763
-52.3015
-52.3391
-52.4447
-52.4535
-52.2673
-52.2343
-52.1851
-52.4532
-51.7719
-51.6319
-51.4737
-50.0804
-50.5672
-49.6203
-52.5143
-52.9021
-53.6239
-53.8191
-54.0759
-54.1278
-54.1077
-54.2927
-54.1634
-54.3834
-54.4765
-54.5281
-54.5487
-54.8046
-54.8241
-54.903
-54.2253
-54.5836
-54.5908
-54.659
-54.8219
-54.5766
-53.2294
-51.1182
-51.9766
-53.9055
-54.872
-55.3903
-55.8371
-56.2805
-56.8322
-57.0041
-56.9241
-57.1116
-56.9965
-57.0296
-57.3076
-57.2892
-57.2511
-57.7496
-57.7858
-57.8207
-57.8844
-57.5437
-57.1924
-56.9791
-56.8835
-57.2443
-58.5393
-56.7956
-55.5413
-52.7763
-57.1719
-58.3925
-60.6717
-60.4778
-59.7243
-59.2405
-59.3263
-59.4534
-59.8014
-59.8422
-60.1202
-60.5144
-60.3306
-60.03
-59.8129
-60.5908
-61.2631
-61.62
-61.7267
-61.0688
-60.2064
-59.6511
-59.0278
-58.7186
-58.662
-59.1199
-58.6145
-58.1142
-55.7671
-59.7634
-61.3585
-60.9108
-59.9501
-61.1083
-60.9129
-60.9671
-61.1505
-61.6691
-62.1306
-62.8765
-62.8886
-63.3235
-62.7991
-62.0283
-61.6975
-62.6589
-64.2004
-65.3431
-64.8163
-64.3262
-63.1629
-61.74
-61.0679
-60.2392
-59.7489
-59.4569
-59.2339
-58.9931
-59.661
-61.1235
-60.1387
-61.0594
-61.4076
-60.8358
-61.4413
-61.7282
-62.0615
-62.5791
-63.2345
-64.0211
-64.5841
-65.1113
-64.9239
-64.8481
-64.2394
-63.5167
-63.0609
-64.0474
-65.1782
-66.7654
-67.1642
-66.7297
-65.096
-63.8052
-62.2802
-61.4509
-61.0718
-60.2678
-59.6433
-60.2433
-59.952
-60.4073
-61.4659
-60.5113
-60.9833
-61.44
-61.7748
-62.6096
-62.8326
-62.5753
-62.7573
-63.0781
-63.8902
-64.3928
-65.0082
-64.8689
-64.9845
-64.3639
-63.6209
-63.1855
-63.2358
-63.3915
-64.108
-65.0221
-65.8927
-65.6174
-65.3842
-64.3373
-63.4811
-62.453
-61.6973
-61.5379
-61.2078
-60.8556
-61.2153
-60.4318
-61.1004
-61.9122
-61.2459
-62.2045
-61.6788
-62.3073
-62.6674
-62.8451
-62.5232
-62.5548
-62.5842
-63.3139
-63.7297
-63.8364
-64.211
-63.9959
-63.3155
-62.4328
-62.4468
-62.5399
-62.7938
-62.6183
-62.6595
-62.8558
-63.7203
-64.5738
-64.6386
-64.1004
-63.7998
-63.1397
-62.1173
-62.0541
-61.9264
-61.7403
-61.7768
-61.7712
-61.2661
-60.9916
-61.0336
-44.9101
-45.068
-45.1318
-45.0049
-45.244
-45.2889
-45.2273
-45.1811
-45.1781
-45.4282
-45.4415
-45.3751
-45.3869
-45.3868
-45.4519
-45.3589
-45.6653
-45.6369
-45.6734
-45.6358
-45.6746
-45.606
-45.6022
-45.5061
-45.5171
-45.9842
-46.0297
-46.0002
-45.9985
-45.9972
-45.9976
-45.9781
-45.935
-45.9367
-45.9332
-45.8782
-46.2957
-46.2781
-46.3171
-46.3511
-46.4014
-46.4047
-46.4645
-46.4032
-46.2513
-46.2524
-46.1857
-45.8276
-45.9944
-46.6607
-46.7815
-46.7778
-46.7948
-46.8141
-46.8189
-46.8624
-46.9764
-46.9411
-46.7303
-46.7159
-46.6087
-46.6488
-46.6834
-46.4188
-47.1708
-47.187
-47.1835
-47.2525
-47.2907
-47.3137
-47.4353
-47.4661
-47.6068
-47.5367
-47.4022
-47.327
-47.1989
-47.2785
-46.9047
-47.0516
-46.9386
-47.9132
-47.7607
-47.7921
-47.9009
-47.9645
-47.997
-48.1437
-48.202
-48.3066
-48.5218
-48.293
-48.2199
-48.1319
-47.9859
-47.8656
-47.6986
-47.5474
-47.3785
-47.433
-48.5844
-48.6381
-48.6611
-48.7224
-48.725
-48.7766
-48.9702
-49.0973
-49.1807
-49.4359
-49.5926
-49.3133
-49.2779
-49.0378
-48.875
-48.8706
-48.6629
-48.449
-48.2761
-48.0465
-47.9963
-49.9029
-49.696
-49.8336
-49.8232
-49.9832
-50.0227
-50.1384
-50.3428
-50.3151
-50.4527
-50.6695
-50.7497
-50.7187
-50.6406
-50.4018
-50.3423
-50.1987
-49.9233
-49.8706
-49.3724
-49.1084
-49.0067
-49.1639
-51.1696
-51.2892
-51.0831
-51.4052
-51.523
-51.6342
-51.7502
-52.0247
-51.9872
-52.091
-52.327
-52.4398
-52.5326
-52.4756
-52.4775
-52.3794
-52.1646
-52.3042
-51.6186
-51.929
-51.3809
-51.7452
-50.1508
-50.6269
-49.7062
-52.9935
-53.0749
-53.5577
-53.7854
-54.0668
-54.2376
-54.1955
-54.3236
-54.2751
-54.4176
-54.4585
-54.4566
-54.657
-54.714
-54.7498
-54.9176
-54.809
-54.8589
-54.8446
-54.659
-54.7613
-54.9521
-54.8843
-54.4448
-53.0809
-51.381
-51.2536
-54.1323
-55.0855
-55.3959
-55.9085
-56.3326
-56.7233
-56.9787
-56.9635
-57.0386
-56.7692
-56.9918
-57.0555
-57.1057
-57.1865
-57.055
-57.5422
-57.9864
-58.1429
-58.0366
-57.9055
-57.4948
-57.0903
-56.9815
-57.0013
-57.3543
-57.9622
-56.6761
-55.6848
-52.8893
-56.7473
-58.8097
-60.5757
-59.5983
-60.158
-59.4982
-59.342
-59.5174
-59.7402
-60.0851
-59.8984
-60.1659
-60.1152
-59.9106
-59.534
-59.376
-60.1189
-60.9039
-61.5418
-62.0788
-61.9694
-61.2256
-60.683
-59.5401
-58.8505
-58.7132
-58.4937
-58.8513
-58.2095
-57.6728
-55.7442
-60.0375
-61.6321
-61.1903
-59.9267
-61.2741
-61.0774
-61.0119
-61.16
-61.5555
-62.1625
-62.6878
-62.6232
-62.9897
-62.395
-61.7576
-61.4137
-61.3453
-62.0532
-63.0413
-64.53
-65.6907
-65.0156
-64.2999
-63.0173
-61.5718
-61.0694
-60.1618
-59.6993
-59.3269
-59.0977
-58.8061
-59.8945
-61.1735
-60.2035
-61.0393
-61.4517
-60.9162
-61.4967
-61.8171
-62.1131
-62.5973
-63.2215
-63.9643
-64.4405
-64.8653
-64.658
-64.5664
-63.9432
-63.29
-62.8267
-62.2851
-63.2714
-64.3126
-65.4183
-67.0751
-67.3125
-66.6651
-64.8834
-63.6499
-62.1299
-61.3933
-60.9644
-60.2045
-59.6129
-60.2731
-60.0023
-60.7992
-61.6618
-60.6266
-61.0249
-61.3833
-61.8313
-62.6566
-62.8377
-62.5994
-62.7693
-63.0718
-63.8547
-64.3387
-64.9089
-64.7239
-64.7516
-64.2725
-63.5014
-63.0918
-63.1087
-62.7831
-63.3086
-63.495
-64.2135
-65.2016
-65.8476
-65.5935
-65.2596
-64.2035
-63.4058
-62.3816
-61.6235
-61.4626
-61.1664
-60.8613
-61.2426
-60.5247
-61.2939
-62.0559
-61.4232
-62.3669
-61.7777
-62.3653
-62.7271
-62.8546
-62.533
-62.5625
-62.5897
-63.3007
-63.7062
-63.7544
-64.0925
-63.9605
-63.2639
-62.3575
-62.3955
-62.5055
-62.7416
-62.1272
-62.8388
-62.6565
-62.7119
-62.9361
-63.7872
-64.5767
-64.5837
-64.0671
-63.7947
-63.1269
-62.1505
-62.0351
-61.9007
-61.7561
-61.8238
-61.8042
-61.3216
-61.0449
-61.0948
-44.7722
-44.9206
-44.9375
-44.9006
-45.0722
-45.1634
-45.2348
-45.1062
-45.0327
-45.2402
-45.2912
-45.2523
-45.1037
-45.2024
-45.2305
-45.1599
-45.4194
-45.428
-45.4423
-45.4527
-45.4155
-45.4147
-45.3986
-45.3825
-45.3333
-45.6566
-45.6543
-45.7259
-45.6359
-45.6928
-45.7645
-45.6556
-45.578
-45.5777
-45.475
-45.5168
-45.9938
-46.055
-46.0001
-46.0012
-46.0039
-46.0369
-46.0667
-46.0146
-45.9893
-45.8865
-45.9054
-45.7217
-45.8291
-46.3303
-46.3045
-46.3399
-46.3183
-46.3736
-46.3824
-46.4528
-46.5002
-46.4736
-46.3407
-46.292
-46.1691
-46.048
-45.9852
-45.9858
-46.8437
-46.7195
-46.7965
-46.8259
-46.7688
-46.8401
-46.8692
-46.969
-47.0817
-47.0452
-46.7952
-46.802
-46.6479
-46.6914
-46.6314
-46.5898
-46.3919
-47.3183
-47.1202
-47.2704
-47.2849
-47.2483
-47.355
-47.4741
-47.4787
-47.6117
-47.7919
-47.5957
-47.551
-47.4607
-47.311
-47.2056
-47.2501
-46.9608
-47.0255
-46.9583
-47.9699
-47.8996
-47.9157
-47.9422
-47.9388
-48.0359
-48.1731
-48.2374
-48.3004
-48.5028
-48.6216
-48.4106
-48.3791
-48.252
-48.0636
-47.9594
-47.8676
-47.6476
-47.572
-47.4154
-47.488
-48.6842
-48.7023
-48.7805
-48.8
-48.8175
-48.9009
-49.0307
-49.1826
-49.2058
-49.3416
-49.5188
-49.6495
-49.5537
-49.4075
-49.2389
-49.0643
-48.9334
-48.8391
-48.5553
-48.4674
-48.2706
-48.1795
-47.9722
-49.9328
-49.6837
-49.9016
-49.8696
-50.0358
-50.1339
-50.2512
-50.3631
-50.4812
-50.4534
-50.5966
-50.7655
-50.9442
-50.8756
-50.8045
-50.6083
-50.5291
-50.3994
-50.2072
-49.9924
-49.8865
-49.4154
-49.1687
-48.9547
-49.0144
-51.1747
-51.1445
-51.2435
-51.4014
-51.4515
-51.7336
-51.8744
-51.9894
-52.0764
-52.1097
-52.1981
-52.4036
-52.4985
-52.5408
-52.461
-52.4911
-52.4845
-52.4387
-52.3451
-52.2543
-52.1393
-51.7752
-51.298
-51.2426
-50.7259
-50.6006
-49.9081
-53.0883
-52.9468
-53.4443
-53.7746
-54.0989
-54.2177
-54.2624
-54.2763
-54.2482
-54.4045
-54.4447
-54.3898
-54.4637
-54.598
-54.5767
-54.74
-55.0043
-54.8809
-54.952
-54.8494
-55.0035
-54.7305
-54.7661
-55.244
-54.9406
-53.9706
-53.076
-51.7069
-50.7748
-54.4599
-55.4189
-55.5455
-55.9627
-56.5957
-56.7806
-56.9705
-56.9381
-56.9541
-56.7702
-56.9578
-56.8806
-56.9084
-56.8813
-56.9226
-56.931
-57.2621
-57.8568
-58.1725
-58.3903
-58.0694
-57.6439
-57.5543
-57.1171
-56.9091
-57.051
-57.3584
-57.5137
-56.521
-55.4018
-53.063
-56.8597
-59.4041
-60.5249
-58.7419
-60.3548
-59.875
-59.4689
-59.5232
-59.6884
-60.0511
-59.6908
-59.9259
-59.9696
-59.5632
-59.2142
-59.1539
-59.0663
-59.665
-60.5798
-61.3073
-61.8775
-62.3718
-61.9417
-61.3697
-60.3787
-59.5139
-58.7281
-58.5458
-58.3051
-58.6425
-58.0603
-57.269
-55.9272
-59.8664
-61.5375
-61.3452
-60.3806
-61.5243
-61.2762
-61.1436
-61.1746
-61.4466
-61.9776
-62.4943
-62.444
-62.7424
-61.9567
-61.5051
-61.1412
-61.205
-60.791
-61.6078
-62.3698
-63.4203
-64.9747
-65.9588
-64.9936
-64.1118
-63.066
-61.4588
-60.9984
-60.2014
-59.6457
-59.1945
-58.9851
-58.792
-60.3264
-60.8657
-60.1522
-61.0162
-61.4602
-61.025
-61.5715
-61.9481
-62.1589
-62.6163
-63.2052
-63.8733
-64.3337
-64.6549
-64.4078
-64.3125
-63.7019
-63.0379
-62.5918
-62.1486
-62.0303
-62.4851
-63.5109
-64.5639
-65.7072
-67.338
-67.3474
-66.5319
-64.6677
-63.4626
-62.0012
-61.3404
-60.8704
-60.1382
-59.5944
-60.3073
-60.0974
-61.1498
-61.8336
-60.7436
-61.0565
-61.3413
-61.8932
-62.6912
-62.8543
-62.6243
-62.7823
-63.0606
-63.8127
-64.2808
-64.8019
-64.5568
-64.4974
-64.1932
-63.3662
-62.9912
-62.988
-62.7207
-61.9393
-62.8788
-63.3741
-63.5959
-64.3054
-65.3187
-65.7543
-65.5599
-65.1224
-64.085
-63.3291
-62.3035
-61.5629
-61.4062
-61.1475
-60.8782
-61.2936
-60.6334
-61.4786
-62.1293
-61.5883
-62.5406
-61.8691
-62.4244
-62.774
-62.8574
-62.5412
-62.5682
-62.5929
-63.2853
-63.6685
-63.6834
-63.956
-63.9892
-63.2116
-62.2836
-62.3443
-62.4692
-62.6818
-62.081
-61.3438
-62.1872
-62.8804
-62.6978
-62.7621