/*--------------------------------*- C++ -*----------------------------------*\
  =========                 |
  \\      /  F ield         | OpenFOAM: The Open Source CFD Toolbox
   \\    /   O peration     | Website:  https://openfoam.org
    \\  /    A nd           | Version:  7
     \\/     M anipulation  |
\*---------------------------------------------------------------------------*/
FoamFile
{
    version     2.0;
    format      ascii;
    class       volScalarField;
    location    "2.5";
    object      nut;
}
// * * * * * * * * * * * * * * * * * * * * * * * * * * * * * * * * * * * * * //

dimensions      [0 2 -1 0 0 0 0];

internalField   nonuniform List<scalar> 
18750
(
0.000379865
0.000693948
0.000187883
0.000214573
0.000941871
0.000478855
0.000662456
0.000114431
0.000186911
0.000219629
0.00189318
0.000301891
0.000805649
0.000495302
0.000447529
0.000653901
0.000121078
0.000106499
0.000188253
0.000287991
0.00251718
0.00114665
0.00157836
0.000578353
0.000319665
0.000807721
0.000360094
0.000439166
0.000431794
0.000663222
6.14348e-05
9.91887e-05
0.000126429
0.000188895
0.000229113
0.00224794
0.00213657
0.00223354
0.00100222
0.000941316
0.00138229
0.000851638
0.000570916
0.000392709
0.000846932
0.000351591
0.000298128
0.000430732
0.0004114
0.00065198
6.38627e-05
8.1128e-05
0.000109461
0.000119578
0.000198885
0.00023063
0.00258203
0.00140098
0.00196578
0.00100721
0.00142028
0.00216499
0.00123611
0.000961008
0.000824493
0.00137874
0.000491156
0.000829937
0.000581381
0.000573727
0.000923737
0.000217318
0.00031194
0.000310689
0.000362619
0.000401445
0.000623252
0.000213823
0.000142718
9.28364e-05
0.000112265
0.000102125
0.000205563
0.00023377
0.00254252
0.001276
0.00212226
0.00104318
0.0017017
0.00227916
0.000916145
0.0011689
0.000878686
0.00232045
0.000981827
0.000662048
0.000848054
0.000968036
0.00133496
0.000388962
0.000466967
0.000831704
0.000637345
0.000731559
0.00101656
0.000152602
0.000181884
0.000269379
0.000183394
0.000306687
0.000398391
0.000580149
0.000203514
0.000154766
0.000222085
6.97315e-05
0.00010496
0.000116516
0.000204623
0.000232777
0.00251693
0.000893755
0.00246938
0.000549811
0.000992068
0.00222839
0.000909347
0.000671386
0.00181149
0.00232464
0.0005992
0.000529507
0.00120522
0.000582074
0.00197965
0.00105266
0.00110421
0.000676915
0.00104217
0.00128062
0.00148099
0.000325167
0.000355973
0.000511925
0.000817715
0.000723528
0.000923435
0.000975096
0.000161218
0.00012407
0.000170638
0.00027029
0.000254033
0.000293288
0.00033874
0.000548067
0.000167282
0.000253789
0.000167437
0.000155879
9.45202e-05
9.69412e-05
0.000146012
0.000204662
0.000234168
0.00220081
0.000950088
0.00237936
0.000619626
0.00128453
0.00245483
0.000680772
0.00100922
0.000744518
0.00221501
0.001109
0.000828901
0.00110247
0.00153986
0.00209544
0.000753568
0.000793174
0.000430845
0.00123444
0.00109294
0.00201083
0.000856944
0.000909581
0.00100394
0.000973045
0.00107408
0.00110507
0.00173435
0.00033027
0.000298561
0.0003866
0.000554774
0.000788583
0.000881546
0.000985188
0.00082321
0.000213144
0.000150738
0.000148419
0.000175887
0.000294598
0.000255976
0.000364365
0.000237047
0.000530072
0.000160523
0.00014624
0.000200708
0.000185935
0.000163392
0.000138248
8.45647e-05
0.000133081
0.000203883
0.000232979
0.00240628
0.000966123
0.00216599
0.00074619
0.000852402
0.00219034
0.000762613
0.00105669
0.00100108
0.00235259
0.000566773
0.000624887
0.000904469
0.00109971
0.00225428
0.000561408
0.000721996
0.000985654
0.000559184
0.00138286
0.00203898
0.00107764
0.000934902
0.0011159
0.00089347
0.00173506
0.00135234
0.00195858
0.000902122
0.000788592
0.000840381
0.000874232
0.00100042
0.00121701
0.00131495
0.00208927
0.000259087
0.000274764
0.000272081
0.000445057
0.00066623
0.000713853
0.00115956
0.000685652
0.000749143
9.06439e-05
0.000180768
0.000134856
0.000113403
0.000162897
0.000350076
0.00021414
0.000344807
0.000208814
0.000506853
0.000131064
0.000143922
0.000158916
0.000185614
0.000174323
0.000179966
0.00010921
0.000115817
0.000113163
0.000198795
0.000228818
0.00250067
0.000529845
0.0021851
0.000415072
0.000934574
0.0023688
0.000587462
0.000553227
0.000889812
0.00231784
0.000999496
0.000712309
0.000559572
0.000936175
0.00248092
0.000705084
0.000493787
0.000604384
0.000472253
0.000970729
0.00244075
0.000587153
0.000375204
0.000538826
0.000489168
0.000950122
0.00088064
0.00185364
0.00133641
0.000901441
0.000755126
0.00157343
0.00111048
0.00105667
0.0015584
0.0023576
0.000961265
0.000904185
0.000769168
0.0007482
0.000865447
0.000905509
0.000963598
0.00112869
0.00221995
0.000201447
0.000176337
0.000263866
0.000399676
0.000453919
0.000724479
0.000598363
0.00112589
0.00080277
0.00072887
0.000162281
9.0501e-05
0.000162253
0.000191109
0.000129891
0.000200439
0.000332742
0.000347703
0.00040311
0.000193465
0.000484844
0.000158605
0.000126263
0.000140116
0.000165852
0.000185937
0.000242763
0.000184482
7.22064e-05
8.63432e-05
0.000104832
0.000194423
0.000226743
0.00230658
0.000640253
0.00234305
0.000219437
0.000766879
0.00217265
0.000614613
0.000356727
0.000830101
0.00237067
0.000784377
0.00065522
0.000363467
0.000969042
0.00243185
0.000976978
0.000586323
0.000442455
0.000619542
0.00124394
0.00255622
0.000461649
0.000409651
0.000303145
0.000525365
0.000756731
0.00086134
0.00227234
0.000315857
0.000458086
0.000354185
0.000653634
0.000489768
0.0009222
0.00081675
0.00219493
0.00146515
0.00147111
0.000753005
0.000593203
0.000988729
0.0013716
0.0011347
0.00237781
0.00229351
0.0010293
0.00104931
0.00092395
0.000718649
0.000753767
0.000724769
0.000783463
0.000806792
0.00139131
0.00129109
0.000310768
0.000304363
0.000257781
0.000241975
0.000485952
0.000481737
0.000667523
0.000558548
0.000766327
0.000862485
0.000612429
9.087e-05
0.000133777
0.000102937
0.000149919
0.000235473
0.000227548
0.000209452
0.000338894
0.000184216
0.000298144
0.000237992
0.000484121
0.000114362
0.000153579
0.00012984
0.000138606
0.000174058
9.9177e-05
0.000328326
0.000175486
0.000137219
9.86024e-05
0.000110539
0.000196371
0.000225766
0.00212965
0.000606568
0.00223875
0.000340144
0.000686314
0.00257971
0.000533223
0.000337231
0.000752328
0.00227715
0.000590922
0.000527342
0.000490761
0.000485908
0.00203496
0.000636165
0.000288773
0.000447476
0.000713676
0.000893205
0.00230262
0.000742394
0.000485788
0.000528229
0.000303544
0.000691118
0.000867629
0.00261932
0.000389603
0.000488965
0.000481404
0.000512646
0.0006299
0.000850205
0.000698574
0.00201701
0.000246102
0.000264253
0.000297763
0.000445668
0.000734357
0.000685024
0.00117496
0.00109068
0.00214014
0.00114563
0.00126798
0.001022
0.00116727
0.0009956
0.00110845
0.000728176
0.00107093
0.00132274
0.00238268
0.00104147
0.000974386
0.00104872
0.000974531
0.000675185
0.00080145
0.000761853
0.000803836
0.000879194
0.00122056
0.00189086
0.000513736
0.00034861
0.0003132
0.000279596
0.000259296
0.000561165
0.000525977
0.00051845
0.000618407
0.000339061
0.000548988
0.000659461
0.000335134
0.000169388
0.000119713
0.000115268
0.00016444
0.000199363
7.9153e-05
0.000189068
0.00035213
0.000211374
0.000267777
0.000249849
0.000487317
6.54071e-05
0.000100965
0.000157813
0.000135472
0.000154064
0.000177848
0.000102
0.000310015
0.000147274
0.000187173
0.00011978
0.000135113
0.000188904
0.000217849
0.00203706
0.000495371
0.00209454
0.000380121
0.000608735
0.00222647
0.000447926
0.000441985
0.000620042
0.00250569
0.000624964
0.000315206
0.000531671
0.000728214
0.00227042
0.000626799
0.000685406
0.000372891
0.000436763
0.000624968
0.00218032
0.000427219
0.000466108
0.000619037
0.000422544
0.000762534
0.000729538
0.00238609
0.000740377
0.00071945
0.000515938
0.000682063
0.000728208
0.000532177
0.00100489
0.0024666
0.000551937
0.000706229
0.000689112
0.000566277
0.000921566
0.000746591
0.000890613
0.000451448
0.00203418
0.000245643
0.000409384
0.000387574
0.000468439
0.000163458
0.000500933
0.000878498
0.00131999
0.00186986
0.00234707
0.00088725
0.00098357
0.00101422
0.00110629
0.000873814
0.000853926
0.000781441
0.000436321
0.000300037
0.00197963
0.00324876
0.00135737
0.00118253
0.00106427
0.00111166
0.000952432
0.000609821
0.000699605
0.000771087
0.000976407
0.000511924
0.000663261
0.00190438
0.000681956
0.000204371
0.000246538
0.000262172
0.000186911
0.00032684
0.000509769
0.000512588
0.000328448
0.000491163
0.000752034
0.000511494
0.00060644
0.000398699
0.000276464
0.000192113
0.000135751
0.000131383
0.000201527
0.000154554
0.000113549
0.000202159
0.000399766
0.000172153
0.000330727
0.000305605
0.000484544
3.94259e-05
4.34028e-05
0.00011354
0.000161187
0.000155515
0.000144458
0.000219257
0.000168042
0.000292815
0.000128764
0.000210101
0.000137185
0.000179249
0.000176739
0.000214337
0.00224317
0.000410846
0.00200008
0.000349897
0.000660073
0.00215185
0.000250189
0.000336516
0.000578717
0.00226925
0.000565283
0.000227847
0.000330421
0.000698495
0.00230893
0.000696867
0.000675402
0.00035832
0.000398047
0.000740751
0.00210919
0.000833585
0.000599631
0.00053375
0.000443835
0.000538517
0.000848109
0.00223472
0.000382164
0.000635334
0.000664125
0.000407215
0.000560534
0.000715379
0.000751698
0.00253237
0.000683561
0.000298312
0.000453792
0.000499259
0.000806678
0.000647098
0.000717792
0.000561358
0.00219138
0.000494302
0.000765337
0.000429001
0.000340687
0.000974332
0.000682879
0.000516899
0.000934162
0.000912913
0.00180226
0.000647955
0.000368352
0.000234026
0.000360849
0.000303171
0.000587129
0.000125789
0.000842586
0.00139825
0.00156769
0.00246663
0.000998922
0.000720347
0.000860986
0.000942631
0.0010165
0.000924593
0.00106022
0.000651079
0.00060805
0.000945602
0.00117778
0.0025848
0.0015005
0.00118107
0.00132246
0.00115429
0.00107321
0.000840777
0.000628582
0.000656495
0.000822036
0.00113119
0.000275088
0.000508132
0.00129505
0.000602877
0.000337131
0.000181284
0.000172497
0.000243603
0.000192624
0.000427488
0.000482114
0.000428099
0.000341716
0.000535291
0.000626509
0.000626446
0.000665403
0.000415793
0.000393526
0.000285554
0.000221943
0.000191454
0.0001452
0.000235012
0.00012411
0.000115506
0.000231613
0.000297389
0.000220574
0.000382889
0.000375864
0.000473586
0.000119097
2.58934e-05
4.45611e-05
0.000117812
0.000159748
0.000153203
0.000125527
0.00019899
0.000219461
0.000261686
0.000150452
0.000225485
0.000155203
0.000231555
0.000170502
0.000211649
0.00220833
0.000605255
0.00207121
0.000509823
0.000439498
0.00198518
0.0003368
0.000509473
0.000677414
0.00217091
0.000301249
0.000466964
0.000451377
0.000554919
0.0025026
0.00049257
0.000395669
0.000500358
0.000336583
0.000867572
0.00232968
0.000596203
0.000640842
0.000581529
0.000448581
0.000748341
0.000644498
0.00208199
0.000501229
0.00076962
0.000905552
0.000740993
0.000535407
0.0009422
0.000802086
0.00215502
0.000356893
0.000308055
0.000806714
0.000826522
0.000830616
0.000288448
0.00070389
0.000559686
0.00266553
0.000299353
0.000163962
0.000311084
0.000551778
0.000591156
0.000510755
0.000607787
0.000774161
0.000634752
0.0022787
7.88815e-05
0.000207218
0.00038237
0.000333639
0.000508219
0.000218309
0.00078807
0.000828431
0.000858282
0.000971821
0.00261571
0.000819046
0.00103307
0.000540494
0.000423508
0.000218614
0.000213035
0.000527746
0.000641671
0.000848886
0.000802335
0.000994783
0.00255793
0.00139317
0.00128526
0.00137311
0.0010957
0.00117581
0.000929032
0.000832613
0.00113454
0.00123617
0.00132107
0.000860371
0.00110786
0.00268227
0.0015192
0.00127793
0.00114514
0.00107278
0.00109363
0.00093555
0.000777698
0.000596868
0.000601849
0.000898818
0.00136264
0.00072336
0.000767329
0.00166915
0.00090389
0.000540089
0.000403382
0.000283479
0.000178002
0.00020314
0.000248095
0.000481697
0.000464689
0.000376384
0.00027601
0.000655232
0.00091778
0.000489701
0.000825323
0.000350375
0.000372981
0.000301145
0.000280121
0.000242405
0.000206881
0.000174504
0.000279381
8.87848e-05
0.000107602
0.000229026
0.000236944
0.000230521
0.000433147
0.000420759
0.000429536
0.000198562
0.00014482
3.0893e-05
3.78048e-05
0.000113999
0.000157995
0.000135482
0.000119702
0.000160408
0.000238596
0.000338907
0.000165317
0.00023776
0.000174462
0.000243795
0.000162931
0.000204995
0.00220835
0.000532914
0.00203828
0.000355736
0.000489398
0.00208733
0.000344073
0.000528527
0.000352119
0.00194205
0.000423294
0.000371853
0.000810219
0.000613827
0.00216721
0.000305124
0.000512424
0.000469942
0.000506063
0.000635698
0.00258549
0.000612202
0.000572941
0.000486824
0.000309796
0.000349985
0.000871628
0.00233832
0.000370002
0.000352183
0.000580557
0.00082008
0.000324986
0.000830884
0.000695828
0.00203092
0.000340126
0.00050107
0.000694999
0.000637565
0.000986839
0.000555371
0.000985943
0.000770777
0.00212337
0.00035166
0.000302454
0.000707408
0.000900518
0.000667045
0.000645699
0.000761756
0.000492478
0.000791274
0.00251961
0.000462536
0.000200573
0.00030111
0.000671822
0.000756015
0.000669211
0.000726015
0.000732882
0.000552204
0.000971574
0.00228221
0.000319266
0.000318588
0.000311643
0.000285751
0.000467439
0.000311145
0.0012501
0.001036
0.000836784
0.000932471
0.000636088
0.00216308
0.000864657
0.000805503
0.000844735
0.000978072
0.000651484
0.000483473
0.000379396
0.000743797
0.000490092
0.000644925
0.000748493
0.00169414
0.00269972
0.00149058
0.00140853
0.00195907
0.00213207
0.00190998
0.00172321
0.000877176
0.000800321
0.00137612
0.00151295
0.00108889
0.000819989
0.00105637
0.00317151
0.00151981
0.00123494
0.000926695
0.000833104
0.000836955
0.000879865
0.000854873
0.000780723
0.000648527
0.000594819
0.00112029
0.00136995
0.000937563
0.000520138
0.00156229
0.000453368
0.000884288
0.000417718
0.000267271
0.000304258
0.000247674
0.000228289
0.000438567
0.00048968
0.000469183
0.000398558
0.000115725
0.000689256
0.00119989
0.000473145
0.000938026
0.00016783
0.000475107
0.000442553
0.000380868
0.000304099
0.000222294
0.000188093
0.00015573
0.0002082
8.71491e-05
0.000150213
0.000238566
0.000241893
0.000204388
0.000429315
0.000360565
0.000362244
0.000188806
0.000206176
9.60639e-05
7.77846e-05
0.000100145
0.000111935
0.00015808
0.000134567
0.000114293
0.000160195
0.000247156
0.000523339
0.00020476
0.00023938
0.000173292
0.00024646
0.000144221
0.000197891
0.00213857
0.000455356
0.00206821
0.000220637
0.000478395
0.00207311
0.000599943
0.0004119
0.000294353
0.00208977
0.000311649
0.000320041
0.000480273
0.00032698
0.00193916
0.000505745
0.000377595
0.000276335
0.000608232
0.000469353
0.00219349
0.000410471
0.000443034
0.000450434
0.000293677
0.000485708
0.000368201
0.00248013
0.000600901
0.000782949
0.000505269
0.000371422
0.000251203
0.000578226
0.000657375
0.00227163
0.000303229
0.000725873
0.000769809
0.000552897
0.000262278
0.000437969
0.000677157
0.000632565
0.00198793
0.000419713
0.000538018
0.000799716
0.000460275
0.000466706
0.000406373
0.000661354
0.000589769
0.000790263
0.00222316
0.000356493
0.000401401
0.000639077
0.000918841
0.000423933
0.000899815
0.000677344
0.000693104
0.000513435
0.00072701
0.00246497
0.000172259
0.000179267
0.000237207
0.00055801
0.000748575
0.000683585
0.00124813
0.000643628
0.000435867
0.0010084
0.00104955
0.00235776
0.000682166
0.000622674
0.000414147
0.000193993
0.000448604
0.000519404
0.000505298
0.000673036
0.000593978
0.000658979
0.00119079
0.00226268
0.0023924
0.00102036
0.00122321
0.000859774
0.000763996
0.000927854
0.000876946
0.000540505
0.000377845
0.000137918
0.000556902
0.000882898
0.000620398
0.00136664
0.00285912
0.00154353
0.0010357
0.00171689
0.00177909
0.00187654
0.00181005
0.0012644
0.00105828
0.00105959
0.00125007
0.00100843
0.000608003
0.00122509
0.00111227
0.00226935
0.00117111
0.00133805
0.000718438
0.000546574
0.000654856
0.000709763
0.000764343
0.000863515
0.000673812
0.000634477
0.000595247
0.00146579
0.000860213
0.00104417
0.000793078
0.00134897
0.000652116
0.00051761
0.000627874
0.00055714
0.000328278
0.000387321
0.000299785
0.000294657
0.00059332
0.000480423
0.000358932
0.000419814
0.000181135
0.000648805
0.000895763
0.000708155
0.00103814
0.000316396
0.000184669
0.000455727
0.000524392
0.000307874
0.000295492
0.000212619
0.000180632
0.000143591
0.000110847
0.000104493
0.000176403
0.000255582
0.000256617
0.000234206
0.000404402
0.000296525
0.000317496
0.000244893
0.000220202
0.000284233
0.00010777
0.000168996
0.000147433
0.000101938
0.000153841
0.00013619
0.000109646
0.000150606
0.000250361
0.000413632
0.000175181
0.000235825
0.000164914
0.000208912
0.000135507
0.000201593
0.00215426
0.000572261
0.00208026
0.000566762
0.000357197
0.0021014
0.000524436
0.000392417
0.000294028
0.00203183
0.000315437
0.000369787
0.000575305
0.000421365
0.00200007
0.000394765
0.000326528
0.000319574
0.000325466
0.000342512
0.00195724
0.0004471
0.00041065
0.000433259
0.000623475
0.000451065
0.000382187
0.00220112
0.000592639
0.000384789
0.000233351
0.000368822
0.000635388
0.000582418
0.000479087
0.0026032
0.000319691
0.000455632
0.000486256
4.15646e-05
0.0004351
0.000388493
0.00032759
0.000739722
0.0023091
0.000630868
0.000481455
0.000454658
0.000424541
0.000455237
0.000494705
0.000517813
0.000396158
0.000572806
0.00187534
0.00048655
0.000668721
0.000665166
0.000583906
0.000539652
0.000685944
0.000423506
0.000537505
0.000613247
0.000783837
0.00229775
0.000642466
0.00025962
0.000479622
0.000688722
0.000557048
0.000533272
0.000626104
0.000543917
0.0005587
0.000636187
0.000696383
0.00224347
0.000405493
0.000361923
0.000256505
0.000350757
0.000621892
0.000175668
0.000373543
0.000331476
0.000693142
0.000747588
0.000953907
0.000111138
0.00248767
0.0007537
0.000542817
0.000426844
0.000290037
0.000454206
0.000339114
0.000610371
0.000415838
0.000514797
0.000892235
0.00111933
0.00124286
0.000493628
0.00236388
0.00152772
0.00123442
0.000999031
0.00107864
0.000794972
0.000838313
0.000844427
0.0003972
0.00024277
0.00073613
0.000772962
0.000863558
0.000615807
0.00131172
0.00271823
0.00134921
0.00143119
0.00123177
0.00157613
0.00178211
0.00166902
0.00173706
0.00139598
0.00128416
0.000937773
0.00103427
0.000943308
0.000245755
0.00238969
0.00130159
0.00160275
0.000745229
0.00150162
0.00102417
0.000462191
0.000566625
0.000590479
0.000525221
0.000594982
0.000689839
0.000550469
0.000667515
0.000592718
0.00148218
0.000972186
0.00178384
0.00135026
0.00172615
0.00049122
0.000501729
0.000524853
0.000247402
0.000551482
0.000384346
0.000442312
0.000339805
0.000389891
0.000565616
0.000482528
0.000303359
0.000423098
0.000354724
0.000695068
0.00126812
0.000397491
0.000975476
0.00028272
0.000351361
0.000354937
0.000590071
0.00058214
0.000254377
0.000299408
0.000213618
0.000173129
0.000147523
9.78338e-05
9.8228e-05
0.000188792
0.000258477
0.000204173
0.000249252
0.000357144
0.000280282
0.000303428
0.000357171
0.000257324
0.000260728
0.000303571
0.000126353
0.000122647
8.36761e-05
9.12098e-05
0.000151562
0.000134942
0.000104513
0.000142489
0.000274373
0.000113426
0.000143096
0.000224472
0.000156182
0.000175135
0.000142473
0.000200786
0.00208284
0.000407279
0.00207085
0.000588906
0.00048029
0.00206293
0.000502233
0.000256276
0.000380078
0.00207259
0.000351655
0.000356791
0.00031195
0.000292991
0.0020676
0.000338898
0.000255792
0.000339694
0.000431361
0.000350964
0.00199159
0.000599961
0.000393226
0.000284739
0.000268096
0.00051059
0.000483179
0.00199625
0.00043265
0.000534087
0.000225908
0.00052421
0.000461003
0.000699395
0.000516686
0.00221875
0.000535985
0.000526577
0.000450932
0.000241958
0.000515497
0.00039945
0.00045666
0.000438923
0.00238614
0.000443365
0.000566643
0.000422794
0.000378205
0.000514032
0.000491229
0.000354728
0.000383215
0.000507861
0.00213209
0.000541955
0.000276583
0.000400003
0.000454914
0.000505653
0.00040181
0.000407223
0.000698022
0.000730388
0.000413955
0.0019165
0.000553883
0.000383077
0.000336572
0.000451888
0.000337341
0.000642488
0.000635739
0.00049717
0.00063027
0.000912547
0.000621235
0.00252737
0.000708628
0.000444586
0.000339484
0.000478376
0.000588603
0.000323852
0.00102855
0.00073751
0.000707458
0.000643917
0.000392771
0.0006998
0.00205044
0.00095909
0.000830916
0.000604303
0.000531996
0.000336121
0.000535618
0.000770532
0.000748178
0.000911139
0.000455095
0.000767655
0.000651847
0.000441738
0.00217947
0.0009655
0.000892377
0.000829482
0.000514586
0.000425602
0.000387621
0.000523704
0.000508102
0.000530715
0.00018637
0.000689127
0.000474807
0.00136242
0.000470633
0.00212628
0.00125995
0.00120467
0.00110586
0.00125017
0.00121714
0.00105977
0.000971854
0.000884421
0.000661418
0.000283079
0.000721793
0.00068834
0.000440719
0.00115179
0.00127907
0.00248972
0.000671686
0.000697406
0.0014812
0.0010295
0.00128656
0.00157016
0.00155966
0.00166213
0.00143803
0.00142061
0.001359
0.000881475
0.000871869
0.000544881
0.00125252
0.0015759
0.0028368
0.000912962
0.000553323
0.000919322
0.000746263
0.000466713
0.000734486
0.000591781
0.000591345
0.000572031
0.000661559
0.000547272
0.000690129
0.00067681
0.00126716
0.00131173
0.00167493
0.00161586
0.00163727
0.000307955
0.000232039
0.000326678
0.000539625
0.000228514
0.000128635
0.000232599
0.000346869
0.000365063
0.000550506
0.000517332
0.000485469
0.000332898
0.000354767
0.00059672
0.000514252
0.000986108
0.000712008
0.000780824
0.000350899
0.000323587
0.000426408
0.000578544
0.000744767
0.000506411
0.000257822
0.000295824
0.000220724
0.000131194
0.000121944
0.000106793
0.000111887
0.000191133
0.000272649
0.000260299
0.00035984
0.000361768
0.00030914
0.000302041
0.000262476
0.000370944
0.000302219
0.000290621
0.000304315
0.000110232
3.9012e-05
3.72847e-05
8.76933e-05
0.000151656
0.00013447
0.000105385
0.000134421
0.000255551
0.00024075
0.000148649
0.000217758
0.000132491
0.000173774
0.000161336
0.000194618
0.0022115
0.000565635
0.00195609
0.000464296
0.00054209
0.0021014
0.000373568
0.000583141
0.000385148
0.00208508
0.000515551
0.000271904
0.000320699
0.000311563
0.00210087
0.000356894
0.000141642
0.00041408
0.000345105
0.000369493
0.00203294
0.000443711
0.000300695
0.000228623
0.000429704
0.000391274
0.000433458
0.00199576
0.000623494
0.000214429
0.000243671
0.000333894
0.000258433
0.000656225
0.00062042
0.00201781
0.00039648
0.000470034
0.000351172
0.000444028
0.000401839
0.000340565
0.000538632
0.000731635
0.0023191
0.000623683
0.000568335
0.000669117
0.000514538
0.000555418
0.000375927
0.000546497
0.000496408
0.000566677
0.00237023
0.000546003
0.000467057
0.000647263
0.000763058
0.000536782
0.000556851
0.000355072
0.000577427
0.000699365
0.000776453
0.00216584
0.000424347
0.000438894
0.000468224
0.000603514
0.000494869
0.000550616
0.000496283
0.000545714
0.000685923
0.000657562
0.000635682
0.00195227
0.000661145
0.000551398
0.000625508
0.00048999
0.000505611
0.000971669
0.000657651
0.000535105
0.000705698
0.000867666
0.000680294
0.000774471
0.0023928
0.00028679
0.000207414
0.000587996
0.00102772
0.000402686
0.000491111
0.00114425
0.000926171
0.000559932
0.000589911
0.000475338
0.000587169
0.000611961
0.00200407
0.000504682
0.000440372
0.000698987
0.000667261
0.000158297
0.000496897
0.000663068
0.000244727
0.000571677
0.00059356
0.000510744
0.000480344
0.000624155
0.000553006
0.00228744
0.00140033
0.00104678
0.00116456
0.000574592
0.000624485
0.000706661
0.000366758
9.20294e-05
0.000114701
0.000407116
0.000659385
0.00028566
0.000848348
0.000946651
0.00074144
0.00248366
0.000471113
0.000581402
0.000922438
0.00143022
0.00130997
0.00124696
0.00146287
0.00146625
0.000763023
0.000731873
0.000538105
0.00101311
0.000921134
0.000428049
0.00133604
0.00128654
0.0019115
0.00037477
0.000524578
0.000527675
0.00108979
0.000965742
0.00129912
0.000951147
0.00169803
0.00146486
0.0017865
0.00153851
0.00111145
0.00128512
0.000899417
0.000850309
0.0012766
0.00166863
0.00344473
0.000551211
0.000408231
0.000578083
0.000568913
0.000883559
0.000691025
0.000751504
0.000687074
0.000742925
0.000564411
0.000638693
0.000529715
0.000564191
0.00083082
0.00100183
0.0014104
0.00107841
0.0012928
0.00165944
0.000286714
0.000201184
0.000222897
0.000281604
0.000352617
0.000124564
0.000150858
0.000329418
0.000443506
0.000311891
0.000672813
0.000459846
0.000365436
0.000280467
0.000239861
0.000522773
0.00047829
0.000826459
0.00057675
0.000974967
0.000526416
0.000325702
0.000432674
0.000578094
0.00068375
0.000823076
0.000240874
0.000233995
0.000259979
0.000212354
0.000108506
0.000115899
0.00011319
0.000136657
0.000190284
0.000270515
0.000292361
0.0002244
0.000337457
0.000297689
0.00028601
0.000117774
0.000276946
0.000367317
0.000303964
0.000308182
0.000289562
0.000118347
0.000213768
5.03096e-05
8.73372e-05
0.000154936
0.000130776
0.000104146
0.00012738
0.000188652
0.000226051
0.000192532
0.000217704
0.000153394
0.000148027
0.000160047
0.000196644
0.00206644
0.000556016
0.00207552
0.000499871
0.000409559
0.00189191
0.000293844
0.000563916
0.000486445
0.00209953
0.000613706
0.000370871
0.000486085
0.000404351
0.00204975
0.000365903
0.000288819
0.000245194
0.000308866
0.000323149
0.00208348
0.000388039
0.000270157
0.000369247
0.000350595
0.000278167
0.000430504
0.00196971
0.000398386
0.000376894
0.000218231
0.00043805
0.000320499
0.000379122
0.00040128
0.00192364
0.000286036
0.00033575
0.000270884
0.000250116
0.000500402
0.000337034
0.000501842
0.000418541
0.00213946
0.000390153
0.000450782
0.000264715
0.000517048
0.000322545
0.000417927
0.000585705
0.000505182
0.000454825
0.00238535
0.000660479
0.000578223
0.000390574
0.000223374
0.000410296
0.000264195
0.000407904
0.000500805
0.000377737
0.000713012
0.00234081
0.000534873
0.00054001
0.000608192
0.0005135
0.000226398
0.000369272
0.000352454
0.000529062
0.000519773
0.000274187
0.000759376
0.00233809
0.000296344
0.000301505
0.000771064
0.000608502
0.000523818
0.000411735
0.000520787
0.000466286
0.000539415
0.000682305
0.00053174
0.000589485
0.0019374
0.000250359
0.000261471
0.000375707
0.000787549
0.000776426
0.000424079
0.000468579
0.00034679
0.000456171
0.000465017
0.000606715
0.000586111
0.000661612
0.00230411
0.000222079
0.00100574
0.000371179
0.00025299
0.000434897
0.00115136
0.000343624
0.00046106
0.000462608
0.000603398
0.000404106
0.000410845
0.000457582
0.000654676
0.00209105
0.000981934
0.000743049
0.00111175
0.000639783
0.000351311
0.000237543
0.00136813
0.000316203
0.000827125
0.00090117
0.00101752
0.00069376
0.000641797
0.000666544
0.000514112
0.0023172
0.00131115
0.00139622
0.00120379
0.00111118
0.00131062
0.000790011
0.000661275
0.000778679
0.000302494
0.000611668
0.00108645
0.00160334
0.000942939
0.000962733
0.00113749
0.000988041
0.00251249
0.000968092
0.000421144
0.00052655
0.000899959
0.000842058
0.00122539
0.0013966
0.00139001
0.00131824
0.00118832
0.000555101
0.000784921
0.000470876
0.000604379
0.000418691
0.00105598
0.00113431
0.00210244
0.000648844
0.000282692
0.000233135
0.000194998
0.000835692
0.000528769
0.00100901
0.000659402
0.000741974
0.00111485
0.00157369
0.00207519
0.00142069
0.00115519
0.00108273
0.000687301
0.00162102
0.00125252
0.00263803
0.000891544
0.000379209
0.000428121
0.000471638
0.000877054
0.000834713
0.000835621
0.00066557
0.000553485
0.000699187
0.00063774
0.000600508
0.000615006
0.000583771
0.000733586
0.000759527
0.00139692
0.00121808
0.000941968
0.00186233
0.000384443
0.000207553
0.000147972
0.000306385
0.000378602
0.000270391
0.000267368
0.000186749
0.000296539
0.000413492
0.000400452
0.000565224
0.000390667
0.000255837
0.000283172
0.00020281
0.000226399
0.000522423
0.000726268
0.000633174
0.000849545
0.000308748
0.000330372
0.000428719
0.000507822
0.000612013
0.000726656
0.000735242
0.000122201
0.000169072
0.000217294
0.000187644
0.000126953
0.000161106
0.00015879
0.000136045
0.000188328
0.000358488
0.000251193
0.000243364
0.000295575
0.000334214
0.000294679
0.000148529
0.00011619
0.000279539
0.000363976
0.000326771
0.000296321
0.000237703
0.00013914
0.000175409
9.71347e-05
0.000106961
0.000157517
0.0001179
0.000100179
0.000121334
0.000205768
0.000233736
0.000226036
0.000220772
0.000162431
0.000147543
0.000157289
0.000196866
0.00204049
0.00051434
0.00195544
0.000391834
0.000639388
0.00208636
0.00044286
0.000368327
0.000355749
0.00191167
0.000744786
0.000342525
0.000491642
0.00043403
0.00213201
0.000482603
0.0009948
0.000287757
0.000404645
0.000285403
0.00212505
0.000437269
0.000185594
0.000420565
0.000424666
0.000366219
0.000288535
0.00217638
0.000162537
0.000243191
0.000256474
0.000292495
0.000298099
0.000399136
0.000380043
0.00203912
0.000202725
0.000224467
0.000444749
0.000296205
0.000306117
0.000298396
0.000337962
0.000331457
0.0019422
0.000365445
0.000588456
0.000379046
0.000253007
0.000485724
0.000348224
0.000386321
0.000702578
0.000505869
0.00215413
0.000514987
0.000333977
0.000475224
0.000257315
0.000441334
0.000515338
0.000454383
0.000612913
0.000659562
0.000593841
0.00225179
0.00054535
0.000571936
0.00042676
0.000355539
0.000565321
0.000410455
0.000500301
0.000384031
0.000471301
0.000390373
0.00059547
0.00223949
0.000468675
0.00036221
0.000541266
0.000412275
0.000285079
0.000459298
0.000263326
0.000389876
0.000461487
0.000286388
0.000542072
0.000524066
0.00220589
0.000388854
0.000738827
0.000441083
0.000235599
0.000478138
0.000407389
0.000487371
0.000502422
0.000484215
0.000415653
0.000481163
0.000541488
0.00036742
0.00204568
0.00116631
0.000636604
0.000576721
0.000308729
0.000613084
0.000567113
0.000601009
0.00058739
0.000443533
0.00053433
0.00048481
0.000496461
0.000611622
0.000693647
0.00250212
0.000513516
0.00111644
0.000147724
0.000948314
0.000527586
0.000876986
0.000776729
0.000854371
0.000757657
0.000433896
0.000448783
0.000797834
0.000632917
0.000622691
0.000576918
0.00208239
0.000878409
0.00121744
0.000814925
0.000228195
0.000911473
0.000499656
0.000862103
0.000197703
0.000635737
0.000702948
0.000819736
0.000535794
0.00110745
0.00094978
0.000724763
0.000720684
0.00216523
0.00133693
0.00109209
0.00144161
0.000946122
0.00127082
0.00108526
0.00112025
0.000870887
0.000752672
0.000480787
0.000534067
0.000524109
0.000251812
0.000641421
0.00117265
0.00112656
0.000877744
0.00219825
0.000307935
0.000520769
0.000477788
0.00107082
0.00100476
0.00098517
0.0011852
0.00135931
0.00141028
0.00149998
0.00147773
0.000759638
0.000224659
0.00151211
0.000743993
0.000765586
0.000515106
0.000956444
0.00202594
0.000560844
0.000434884
0.000294715
0.000265466
0.000598832
0.000707889
0.000828404
0.000355554
0.000402848
0.00106735
0.000824094
0.00141013
0.00174789
0.00156965
0.00108527
0.00101367
0.00095712