/*--------------------------------*- C++ -*----------------------------------*\
  =========                 |
  \\      /  F ield         | OpenFOAM: The Open Source CFD Toolbox
   \\    /   O peration     | Website:  https://openfoam.org
    \\  /    A nd           | Version:  7
     \\/     M anipulation  |
\*---------------------------------------------------------------------------*/
FoamFile
{
    version     2.0;
    format      ascii;
    class       surfaceScalarField;
    location    "2.5";
    object      phi_0;
}
// * * * * * * * * * * * * * * * * * * * * * * * * * * * * * * * * * * * * * //

dimensions      [0 3 -1 0 0 0 0];

internalField   nonuniform List<scalar> 
54125
(
4.28226e-05
-5.60443e-05
-0.00162504
5.11365e-05
-8.26327e-05
-0.000991675
1.75945e-05
-7.85449e-05
-0.00106783
3.85744e-05
-4.97511e-05
-0.00161386
-0.000293288
0.000184277
0.00189943
-2.41986e-05
-0.000130497
-0.000403582
3.44009e-05
-7.45215e-05
-0.000912979
-4.34478e-05
-8.38022e-05
-3.05982e-05
1.3464e-05
-7.05818e-05
-0.00106046
2.89155e-05
-4.92884e-05
-0.00159349
-0.000794009
0.000157797
0.00588861
-0.000213607
0.00021164
0.000997024
-0.000211118
0.000184395
0.00196056
-0.000145887
-0.000166672
0.000875734
-2.57969e-05
-0.000115719
-0.000323124
2.53802e-05
-7.4267e-05
-0.000835177
-3.18956e-05
-7.79278e-05
0.000566105
-4.05623e-05
-7.59879e-05
1.53706e-05
1.12985e-05
-7.00466e-05
-0.001051
2.69825e-05
-4.85921e-05
-0.00157188
-0.00136651
0.000377125
0.00554928
-0.000107379
-0.000102871
0.00351267
-0.000553769
0.000134398
0.00609687
-7.84819e-05
2.65885e-05
0.00147446
-0.000184405
0.000203475
0.00113655
-0.000195792
0.000193623
0.0019881
-4.22175e-05
-0.000199384
0.00121612
-0.000131023
-0.000150998
0.00100147
-2.68633e-05
-0.000109571
-0.000249658
1.83974e-05
-7.42396e-05
-0.000752353
-2.85238e-05
-7.90472e-05
0.000501211
-2.86099e-05
-7.1048e-05
0.000589775
-4.29525e-05
-7.5958e-05
6.42344e-05
8.85825e-06
-6.96407e-05
-0.00103881
2.33864e-05
-4.80837e-05
-0.00154718
-0.00155945
0.000147841
0.00386492
-0.000207068
0.000654315
0.00577316
-0.00113521
0.000303903
0.00582682
0.000306182
-0.000348177
0.00321073
-0.000259577
-8.11293e-05
0.00380337
-0.000424215
0.000156739
0.00616855
0.000140283
-0.000280377
0.000917176
-4.59652e-05
2.9152e-05
0.00156372
-0.000188724
0.000216402
0.00127563
-0.000193562
0.000192149
0.00200791
2.3742e-05
-0.000262352
0.00144317
-3.79092e-05
-0.000182294
0.00125671
-0.000131535
-0.000144192
0.00112468
-2.55547e-05
-0.000106337
-0.000183148
1.8983e-05
-7.4033e-05
-0.000673917
1.56338e-05
-7.75727e-05
0.0005146
-2.70515e-05
-7.12761e-05
0.000528491
-3.04841e-05
-7.05689e-05
0.00061487
-4.29745e-05
-7.5956e-05
0.000113524
6.72402e-06
-6.96107e-05
-0.00102401
1.95632e-05
-4.77322e-05
-0.00151901
-0.0015241
0.000285861
0.00406763
-0.0002775
0.000473545
0.00639999
-0.00145769
0.000222893
0.00396451
0.000189074
0.000783123
0.00611938
-0.000410338
0.000570777
0.00565705
-0.00087201
0.000295048
0.00597956
0.000441044
-0.000446107
0.000808941
0.000236145
-0.000242033
0.00308952
-0.000286186
-6.88857e-05
0.00412646
-0.000387322
0.000181495
0.00618082
0.000102069
-0.000423191
0.00100272
8.01268e-05
-0.000239962
0.00106825
-3.88258e-05
4.49435e-05
0.00164247
-0.000208565
0.000229612
0.00142118
-0.000193194
0.000188199
0.00203189
7.14429e-05
-0.000312338
0.00127005
1.33709e-05
-0.000237601
0.00145805
-4.9419e-05
-0.00018114
0.00131259
-0.000126111
-0.000140204
0.00124168
-2.06443e-05
-0.000107027
-0.000122786
2.71023e-05
-7.30723e-05
-0.000608383
4.81989e-05
-7.18289e-05
-0.000212693
1.55107e-05
-6.94496e-05
0.000497263
-2.56094e-05
-7.03478e-05
0.000553879
-3.02545e-05
-7.0545e-05
0.000639714
-4.22278e-05
-7.62024e-05
0.000162344
5.52996e-06
-6.9902e-05
-0.00100737
1.65453e-05
-4.72584e-05
-0.0014883
-0.00131099
-4.55231e-05
0.00389361
-0.000504636
0.000532232
0.00549916
-0.00153473
0.00024835
0.00389632
-1.42365e-05
0.00068722
0.00619154
-0.000313835
0.00053843
0.00598795
-0.00120807
0.000162765
0.0041378
0.000472638
0.000614052
0.00555067
3.08617e-05
0.000722336
0.0061731
-0.000629498
0.000609605
0.0056858
-0.000758596
0.000303879
0.00604696
0.000426576
-0.00070979
0.000719276
0.000259593
-0.000316931
0.000704373
0.000326556
-0.000268756
0.00292401
-0.000323134
-2.38397e-05
0.00444636
-0.000386228
0.000152295
0.00622156
0.000114376
-0.000506716
0.000622274
0.000107189
-0.000370243
0.00103919
6.02834e-05
-0.000220333
0.00122383
-1.3871e-05
6.97807e-05
0.00169006
-0.000136067
0.000242305
0.0014825
-0.000179357
0.000182652
0.0020557
4.6831e-05
-0.000307695
0.000681029
6.91431e-05
-0.000282497
0.00126131
1.01107e-05
-0.000236586
0.00147778
-5.10012e-05
-0.000180893
0.00137403
-0.000116065
-0.000142321
0.00135081
-4.79463e-06
-0.000113025
-7.25091e-05
3.75295e-05
-7.21101e-05
-0.000557257
2.7782e-05
-6.99587e-05
-0.000444674
4.31352e-05
-6.57528e-05
-0.000259525
2.03406e-05
-6.91031e-05
0.000475678
-2.27427e-05
-7.0276e-05
0.000576353
-2.86427e-05
-7.08285e-05
0.000662983
-4.25828e-05
-7.65973e-05
0.000211622
4.57186e-06
-6.98374e-05
-0.00098936
1.2856e-05
-4.67229e-05
-0.00145443
-0.0012542
4.64112e-06
0.00392126
-0.000713769
0.000170492
0.00527659
-0.00136704
-9.23595e-06
0.00373515
-4.83502e-05
0.000671626
0.00566483
-0.000640084
0.00044359
0.00563017
-0.0014855
0.000232249
0.00394151
0.000241153
0.000860629
0.00598287
-9.91848e-05
0.000617667
0.00624235
-0.000530464
0.000486134
0.00556555
-0.00112295
0.000178947
0.00432321
0.000655547
0.000631974
0.00447242
0.000307617
0.000708861
0.00551612
0.000124329
0.000764119
0.00622081
-0.000717114
0.000581707
0.00580195
-0.000579722
0.000269215
0.00597124
0.000192673
-0.000876052
0.00150401
0.000258309
-0.00060343
0.000854655
0.000241519
-0.000331513
0.000585895
0.000152233
-0.00028372
0.00301779
-0.000198162
-6.20474e-05
0.0047228
-0.000415037
0.000143765
0.00631347
5.41535e-05
-0.000549672
0.000603613
0.000110191
-0.000453945
0.000664927
9.31894e-05
-0.000356168
0.00109194
5.74806e-05
-0.000196221
0.00138135
2.07068e-05
0.000104303
0.00169129
-6.44705e-05
0.000240657
0.00148417
-0.00014169
0.000177437
0.00205748
-2.24844e-06
-0.000310488
0.00022672
3.89453e-05
-0.000279836
0.000682558
6.79873e-05
-0.000278638
0.00125572
7.90469e-06
-0.000233793
0.00150003
-4.58245e-05
-0.00017907
0.00142796
-9.74916e-05
-0.000151514
0.00144421
2.17795e-05
-0.000108565
-5.32619e-05
3.81826e-05
-7.34371e-05
-0.000509147
5.79348e-06
-7.62006e-05
-0.000508523
2.04524e-05
-6.48673e-05
-0.000466012
4.13897e-05
-6.67722e-05
-0.000303245
2.3536e-05
-6.93418e-05
0.000451207
-1.9889e-05
-7.03173e-05
0.00059573
-2.70044e-05
-7.04913e-05
0.000683881
-4.08246e-05
-7.68838e-05
0.000259493
3.36498e-06
-6.95825e-05
-0.000969865
9.00928e-06
-4.61489e-05
-0.00141729
-0.00139582
-6.56078e-05
0.00380903
-0.000840991
0.000145548
0.00464201
-0.00114605
-2.57051e-05
0.00372598
-0.000342313
0.000518925
0.0057178
-0.000762405
0.000231392
0.00515828
-0.00147453
4.71508e-05
0.00367703
1.6424e-05
0.000864719
0.00584116
-0.000118287
0.000598657
0.00552887
-0.000633067
0.000427609
0.00553742
-0.00148584
0.000290402
0.004014
0.000306249
0.00101038
0.00600095
0.00015656
0.000760894
0.0059907
-0.000234792
0.000668425
0.00641918
-0.000744187
0.000463762
0.00530781
-0.000804797
0.000158619
0.00438966
0.00039257
0.000523573
0.00405784
0.000328022
0.00065284
0.00445873
0.000281621
0.000749906
0.00549023
-0.000182324
0.000748459
0.00638862
-0.000796322
0.00060121
0.00606812
-0.000610694
0.000275143
0.00589175
5.6481e-05
-0.000859646
0.00143501
0.000170034
-0.000726029
0.00156677
0.000215632
-0.000586231
0.00098693
0.000162164
-0.000385389
0.00058288
0.000328296
-0.000356156
0.00300431
-7.49244e-05
-3.01097e-05
0.00490713
-0.00040323
0.000160301
0.00641471
-8.73606e-05
-0.000533244
0.000657594
4.49834e-05
-0.00049798
0.00064161
0.000111126
-0.000445736
0.000711357
7.37248e-05
-0.000329852
0.00115975
5.26593e-05
-0.00016213
0.0015493
0.000108798
0.000111365
0.0016143
1.31895e-05
0.000206955
0.00146324
-8.66129e-05
0.000167933
0.00201434
-1.81476e-05
-0.000323868
-0.000193821
-5.29426e-06
-0.00028707
0.000259701
3.30638e-05
-0.000279516
0.000691761
7.59429e-05
-0.000273866
0.00124338
3.83914e-06
-0.000226812
0.00152405
-3.79041e-05
-0.000176285
0.00146363
-6.95795e-05
-0.000150955
0.00151535
4.10716e-05
-0.00010674
-5.76652e-05
3.06815e-05
-7.51172e-05
-0.000455702
-6.0863e-07
-8.53758e-05
-0.000387459
-4.62159e-07
-6.9463e-05
-0.000503465
1.54231e-05
-6.63014e-05
-0.000481906
4.31954e-05
-6.73841e-05
-0.000348398
2.80422e-05
-6.95513e-05
0.000422399
-1.48786e-05
-6.98568e-05
0.000609975
-2.08735e-05
-6.99068e-05
0.000697777
-3.7225e-05
-7.70705e-05
0.000304206
4.36582e-07
-6.92431e-05
-0.000947207
4.90262e-06
-4.5545e-05
-0.00137665
-0.00170024
0.000312218
0.00282009
-0.00100777
0.000228228
0.00432576
-0.00120177
-1.38914e-05
0.00387865
-0.000599671
0.000312359
0.00504139
-0.000907492
0.000162938
0.00459846
-0.00121718
-1.56953e-05
0.00348433
-0.000118598
0.000691621
0.00540054
-0.000337473
0.000492556
0.00567582
-0.000862805
0.00022089
0.00521428
-0.00152604
7.06909e-05
0.00364654
0.000222093
0.00100987
0.00566761
-5.48863e-05
0.000786913
0.00586435
-0.000403728
0.000589878
0.00553554
-0.000690718
0.000475165
0.00529918
-0.00130078
0.000300629
0.00420936
0.000320635
0.000940867
0.00604738
0.000136715
0.000906575
0.00604658
0.000111914
0.000771794
0.00605704
-0.000264344
0.000648001
0.00631696
-0.0010094
0.000432535
0.00524697
-0.000729889
0.000148837
0.00436002
0.000268754
0.000326716
0.00379154
0.000302421
0.000594578
0.00398372
0.000291434
0.000670898
0.00446194
0.000109971
0.000687664
0.00560322
0.000110316
0.000872028
0.00633578
-0.000685087
0.000725122
0.0062283
-0.0006156
0.000324262
0.00577986
9.89271e-06
-0.000816996
0.00123747
6.57723e-05
-0.000722938
0.00141113
0.000179854
-0.000666264
0.00157807
0.000303688
-0.000616508
0.000988085
0.000159972
-0.000457635
0.000577047
0.000506028
-0.0003631
0.00294007
-4.22047e-05
-8.97007e-06
0.00513179
-0.00014333
0.000173233
0.0062982
-6.36199e-05
-0.000534291
0.000780852
-7.72856e-05
-0.000487052
0.000718657
6.14471e-05
-0.000494443
0.000661933
0.000125866
-0.000423937
0.000755519
6.26942e-05
-0.000299094
0.00123786
5.23767e-05
-0.000135728
0.00170611
0.000194047
7.49443e-05
0.00148268
8.09551e-05
0.000157563
0.00143373
7.85952e-07
0.000163604
0.00188064
-1.89887e-05
-0.000339467
8.27202e-05
-2.96026e-05
-0.000301297
-0.000150453
-1.11912e-05
-0.000291231
0.000298031
3.77758e-05
-0.000278705
0.000702019
8.20394e-05
-0.000264894
0.00122747
-6.17527e-06
-0.000213876
0.00155294
-1.62647e-05
-0.000172403
0.00148047
-3.1432e-05
-0.000145416
0.00154824
3.29253e-05
-0.000105515
-5.97563e-05
1.67233e-05
-7.63993e-05
-0.000391123
-8.89671e-06
-8.92702e-05
-0.000355108
-1.17212e-06
-7.73663e-05
-0.000378384
-1.80407e-06
-6.99593e-05
-0.000498003
1.09481e-05
-6.71429e-05
-0.000493095
4.58738e-05
-6.79084e-05
-0.000395915
3.25917e-05
-7.01542e-05
0.000390105
-1.06889e-05
-6.90616e-05
0.000619818
-2.55739e-05
-7.01219e-05
0.000716402
-3.94074e-05
-7.7157e-05
0.000351527
-3.07624e-06
-6.90051e-05
-0.000920671
5.42157e-07
-4.49165e-05
-0.00133228
-0.00153393
-4.29681e-05
0.00280595
-0.00109387
0.000227171
0.00374081
-0.001588
0.000287996
0.00291832
-0.000676618
0.000234341
0.0045104
-0.000918779
0.00022061
0.00410254
-0.00115082
1.46658e-05
0.00379762
-0.000232222
0.000498709
0.0050643
-0.0005391
0.000286691
0.00511926
-0.00107158
0.000214151
0.00457738
-0.00132018
-2.70935e-05
0.00330555
-0.000103958
0.000830945
0.00538077
-0.000216518
0.000608419
0.0054463
-0.000448107
0.000421083
0.00552001
-0.000773045
0.000242391
0.00512491
-0.00148751
0.000120422
0.00371285
0.000129823
0.00115638
0.00553346
7.00648e-05
0.000947217
0.00557396
-2.13403e-05
0.000814601
0.00577288
-0.000298562
0.000630466
0.00541445
-0.000861173
0.000444257
0.00500733
-0.00121902
0.000279335
0.00441916
0.000383286
0.000953415
0.00574221
0.000247526
0.000938936
0.00606992
0.000221187
0.000908601
0.00598002
-4.03738e-05
0.000754035
0.00610135
-0.00017173
0.000743996
0.00628754
-0.00104821
0.000441671
0.00531725
-0.000645388
8.39463e-05
0.00430586
0.000289707
0.000468625
0.00384737
0.000242345
0.00061609
0.00359346
0.000341582
0.000582421
0.00391046
0.000385537
0.000556385
0.00451137
0.000222781
0.000636734
0.0057757
0.00031676
0.000825449
0.00642472
-0.000738264
0.000734368
0.00651425
-0.000447409
0.000406718
0.00567722
-2.61754e-05
-0.000689817
0.00137627
-7.31398e-05
-0.000719506
0.00122989
2.82915e-06
-0.000673613
0.0014771
0.000127162
-0.000646005
0.00160627
0.000294666
-0.000652411
0.000950889
0.000222328
-0.000529026
0.000573022
0.000553868
-0.000343515
0.00291479
0.000209873
9.70167e-06
0.0051664
1.17775e-05
0.000236861
0.00605034
-5.08929e-05
-0.00054027
0.0010167
-5.64523e-05
-0.00049465
0.000815299
-7.4916e-05
-0.000490189
0.000778128
4.42707e-05
-0.000486025
0.000717526
0.000131971
-0.000395267
0.00080176
3.95137e-05
-0.000259192
0.00131564
6.33189e-05
-0.00012422
0.00182569
0.000225566
2.65804e-05
0.00135666
0.00010108
0.000112172
0.001417
5.66764e-05
0.00016089
0.00167979
-9.04392e-05
-0.000326818
0.000258578
-3.14379e-05
-0.000312238
0.000123926
-4.08322e-05
-0.000308835
-9.38205e-05
-1.34076e-05
-0.000294501
0.000338182
4.77481e-05
-0.000275549
0.0007108
8.80645e-05
-0.000254449
0.00121257
-1.41626e-05
-0.000201181
0.00158519
-1.92769e-05
-0.000162149
0.0014909
-1.96102e-05
-0.000140726
0.00156365
5.04058e-05
-0.000109105
-8.05326e-05
-2.06922e-06
-7.54123e-05
-0.000313099
-4.26843e-05
-9.21628e-05
-0.000416757
-1.03156e-05
-8.0822e-05
-0.000341336
-2.47333e-06
-7.73707e-05
-0.000368499
-2.54759e-06
-7.04792e-05
-0.000492119
6.80274e-06
-6.76815e-05
-0.000500125
4.40143e-05
-6.86833e-05
-0.0004414
3.79124e-05
-7.13932e-05
0.000354524
-9.962e-06
-6.9038e-05
0.000628696
-2.46501e-05
-7.08363e-05
0.000734732
-4.13317e-05
-7.74599e-05
0.000401313
-9.69253e-06
-6.87467e-05
-0.000887148
-6.42121e-06
-4.42796e-05
-0.00128157
-0.00144094
-0.000127914
0.0031809
-0.00102118
-9.66218e-05
0.00369606
-0.00145253
-1.61095e-05
0.0026866
-0.000673536
0.000231127
0.00423255
-0.000780179
0.000122814
0.00376739
-0.00155111
0.000222881
0.00309572
-0.000455953
0.00037363
0.00469832
-0.000527545
0.000169261
0.00455019
-0.00110667
0.000192765
0.00395953
-0.00117064
7.7143e-05
0.00357094
-0.000309161
0.000674935
0.00511102
-0.000360873
0.000464341
0.005031
-0.000424832
0.000253393
0.00505675
-0.0010591
0.000223496
0.00461285
-0.00147842
-6.31353e-06
0.00330278
-0.000126811
0.000974877
0.00548342
-9.38562e-05
0.000749715
0.0054034
-0.000221735
0.000601724
0.00546606
-0.000317834
0.000386028
0.00539565
-0.000864689
0.000263518
0.00498533
-0.00150889
0.000105545
0.00389717
0.000383937
0.00120472
0.00521039
0.000193533
0.00106766
0.00546701
0.000171052
0.000990584
0.00544811
2.36132e-05
0.000861844
0.00547752
-0.000406998
0.000646256
0.00544772
-0.00100663
0.000352245
0.00489284
-0.00101888
0.000296147
0.00449651
0.000262169
0.0010155
0.00587806
0.000314789
0.000941897
0.0056668
0.000283335
0.000958773
0.00607799
0.000234443
0.000898434
0.00598671
0.000244129
0.000834674
0.00598932
-5.00608e-05
0.000780405
0.00631563
-0.00107668
0.000351751
0.00538786
-0.000731466
9.8432e-05
0.00449149
0.000283975
0.000703921
0.00393825
0.000225291
0.0007059
0.00345913
0.00015978
0.000661025
0.0033579
0.00032079
0.000621687
0.00365153
0.000417342
0.000488879
0.00453655
0.000370945
0.00061027
0.00584226
0.000355548
0.000743792
0.00661362
-0.000488629
0.000758867
0.00686061
-0.000515772
0.000334699
0.00587007
-0.000159063
-0.000568181
0.00158289
-0.000161263
-0.000635112
0.00139669
-0.000134204
-0.000696689
0.00131225
5.67457e-06
-0.000652093
0.00152178
6.34389e-05
-0.000635427
0.00165782
0.000156483
-0.000681897
0.000986791
0.000281596
-0.000564657
0.000575887
0.000524281
-0.000293958
0.00291974
0.000551395
4.1924e-06
0.00494876
0.00024149
0.000204501
0.00566103
-0.000172511
-0.000556148
0.00149388
-5.91195e-05
-0.000508965
0.0010587
-6.34485e-05
-0.000508844
0.00085657
-5.62117e-05
-0.0004949
0.000829808
5.71596e-05
-0.000467837
0.000780685
0.000138179
-0.000359369
0.000851822
1.09072e-05
-0.000216816
0.00138317
8.19376e-05
-0.000123895
0.00187495
0.000146892
-2.93597e-05
0.00133169
0.000198998
0.000108648
0.00132065
-1.61032e-05
0.000168295
0.00152553
-0.000119581
-0.000315275
0.00063877
-7.46572e-05
-0.000300239
0.000310921
-4.49912e-05
-0.000316886
0.000174495
-5.76676e-05
-0.000313815
-1.93856e-05
-1.40449e-05
-0.000298973
0.000382454
5.22975e-05
-0.000272007
0.000720075
9.33505e-05
-0.000246297
0.00120225
-3.12739e-05
-0.000191063
0.00163541
-3.20893e-05
-0.000156593
0.00151421
-1.14558e-05
-0.000140915
0.00156559
4.77752e-05
-0.000108446
-0.000104967
-1.84061e-05
-7.56918e-05
-0.000225423
-6.3409e-05
-8.77918e-05
-4.97435e-05
-3.84721e-05
-8.35504e-05
-0.000375557
-1.19357e-05
-8.07459e-05
-0.000326026
-3.95661e-06
-7.7384e-05
-0.000357638
-4.17039e-06
-7.09188e-05
-0.000484712
4.36674e-06
-6.79629e-05
-0.000505212
3.73874e-05
-6.99698e-05
-0.000480211
4.09713e-05
-7.29516e-05
0.000317466
-7.3406e-06
-6.94901e-05
0.000634691
-2.33889e-05
-7.17078e-05
0.000752369
-4.03176e-05
-7.78704e-05
0.000450755
-1.69897e-05
-6.825e-05
-0.000846188
-1.22595e-05
-4.36518e-05
-0.00122566
-0.00152857
3.62623e-05
0.00251443
-0.00130994
0.000137497
0.00358346
-0.00127758
-0.000119842
0.00312578
-0.000711077
-6.09106e-05
0.00402063
-0.000869469
8.25289e-05
0.00368672
-0.00157261
2.85762e-05
0.00267952
-0.000644605
0.000279146
0.00432766
-0.000485993
8.62065e-05
0.00422761
-0.000959638
0.000171383
0.00367186
-0.0015214
0.000213257
0.00323323
-0.000346599
0.000548124
0.00460319
-0.00051428
0.00028938
0.0047316
-0.000479864
0.000162553
0.00463544
-0.00115775
0.000122729
0.0040126
-0.00121022
0.000114505
0.00318823
-0.000216572
0.000856604
0.00522878
-0.000188223
0.000625492
0.00504424
-0.000346671
0.000431698
0.00497763
-0.000313248
0.000259501
0.00501615
-0.000996508
0.000248483
0.00448987
-0.00154845
8.36962e-05
0.00325865
0.000162864
0.00108274
0.00545429
-2.58698e-05
0.00090642
0.00554612
-1.06601e-05
0.000757365
0.00542947
-5.90164e-05
0.000573665
0.00536105
-0.000468396
0.000455372
0.00526519
-0.00100508
0.000289011
0.00480032
-0.00146036
0.000212005
0.00412664
0.000273362
0.00122715
0.00523243
0.000281122
0.0011278
0.00518392
0.000200161
0.00109678
0.00544399
0.000238777
0.00103175
0.00527387
0.000201349
0.000875957
0.0052906
-0.000326485
0.000627297
0.00544909
-0.000987597
0.000285826
0.00481408
-0.00100015
0.000246712
0.00451848
0.000278887
0.00108794
0.00575888
0.000330785
0.000954916
0.00575954
0.000279218
0.00100435
0.00550179
0.00037559
0.000923424
0.00599821
0.00021899
0.000890268
0.00612947
0.000224273
0.000887376
0.00602902
-7.11511e-05
0.000760756
0.00633333
-0.00110263
0.000462727
0.00563757
-0.000869238
0.000168459
0.00467649
3.0684e-05
0.000874859
0.00367977
5.75922e-05
0.000817716
0.00360758
8.21943e-05
0.000795998
0.00310776
0.00024753
0.000752684
0.00298505
0.000311018
0.000623642
0.00326919
0.000269086
0.000600138
0.00443407
0.000455395
0.000718944
0.00569331
0.00040483
0.000684279
0.00680766
1.98896e-05
0.000586312
0.0071405
-0.000429773
0.000484744
0.00605659
-0.000286519
-0.000537317
0.00204712
-0.000176925
-0.000556856
0.00162244
-0.000152556
-0.000650815
0.00143992
-9.7966e-05
-0.000687983
0.0013899
2.76989e-05
-0.000611385
0.0015272
3.55298e-05
-0.000630186
0.00170876
5.16899e-05
-0.000694058
0.00107541
0.000219885
-0.000564981
0.000708962
0.000380536
-0.000243808
0.00293409
0.000460519
-2.75069e-05
0.00491925
2.40488e-05
0.000175418
0.00544546
-0.000144022
-0.000591551
0.00180104
-0.000124088
-0.000525754
0.0015601
-6.0054e-05
-0.000530679
0.0010956
-7.27773e-05
-0.000526074
0.000902854
-4.83524e-05
-0.000494876
0.000891154
7.46377e-05
-0.000442855
0.000841831
0.000141968
-0.000317868
0.000904256
-1.37666e-05
-0.000185165
0.00142693
3.59333e-05
-0.000138162
0.00191573
0.00016324
-3.01599e-05
0.00129581
0.000193484
0.000102133
0.00124111
-0.000194361
0.00019225
0.00150924
-0.000131091
-0.000288522
0.000827956
-0.000102953
-0.00028754
0.000690553
-6.72462e-05
-0.000304214
0.00035356
-5.99247e-05
-0.000321474
0.000238122
-7.2839e-05
-0.000316758
6.70684e-05
-8.52426e-06
-0.000302567
0.000425905
5.19579e-05
-0.00027164
0.000730847
9.93989e-05
-0.000243415
0.00119617
-3.23249e-05
-0.000184919
0.00168872
-3.67657e-05
-0.0001472
0.00153387
-2.3709e-05
-0.00014203
0.00158256
1.45655e-05
-0.000112995
-9.92191e-05
-3.45358e-05
-7.61985e-05
-0.000126948
-6.5436e-05
-7.71279e-05
0.00061406
-5.41401e-05
-7.96427e-05
4.88905e-07
-3.82637e-05
-8.35728e-05
-0.000334466
-1.32841e-05
-8.06084e-05
-0.000309517
-5.68718e-06
-7.74094e-05
-0.00034546
-4.42244e-06
-7.14753e-05
-0.000476777
2.79075e-06
-6.80958e-05
-0.000509877
3.24713e-05
-7.1586e-05
-0.000514048
4.38772e-05
-7.46287e-05
0.000278728
-5.43635e-06
-7.01889e-05
0.000638608
-2.18972e-05
-7.25666e-05
0.000768962
-4.03293e-05
-7.81315e-05
0.000500966
-2.38345e-05
-6.73256e-05
-0.00079868
-1.78582e-05
-4.31212e-05
-0.00116468
-0.0015753
4.48116e-05
0.00225592
-0.00153935
0.00016106
0.00297966
-0.00134853
-2.10227e-05
0.0026064
-0.000897611
0.000254673
0.00374799
-0.00114706
0.00015648
0.00358472
-0.00146218
-0.000159565
0.00317493
-0.000929079
0.000254654
0.00403957
-0.000501502
0.000122418
0.00399625
-0.00104554
7.44883e-05
0.00372671
-0.00157455
0.000163206
0.00256947
-0.000656529
0.000508801
0.00430824
-0.000571643
0.000168996
0.00430223
-0.000469268
0.000197112
0.00419128
-0.000980442
0.000192645
0.00351516
-0.00143919
0.000223196
0.00323901
-0.000447666
0.000733505
0.00469739
-0.000351644
0.000472597
0.0045834
-0.000410676
0.000246229
0.00471193
-0.000362394
0.000123814
0.0046835
-0.00120124
0.000160269
0.00417156
-0.00130851
-9.87279e-05
0.00304701
8.55701e-05
0.00101645
0.00524995
8.51209e-06
0.000818697
0.0050012
-0.000212609
0.000616444
0.00506144
-0.000273838
0.000425947
0.00502601
-0.000295964
0.000291852
0.00480035
-0.00104181
0.000225599
0.0043847
-0.0016582
7.39119e-05
0.00338258
4.84929e-05
0.0011629
0.00554241
0.000128131
0.00101647
0.00549723
-2.00633e-05
0.000924335
0.00559937
2.1409e-05
0.000802408
0.00541809
5.69627e-05
0.000609454
0.00535135
-0.000487288
0.00047565
0.00523935
-0.000993644
0.000318314
0.00470005
-0.00130394
0.000220423
0.00421
0.000236151
0.00121138
0.00520874
0.000262772
0.00117389
0.00525436
0.000139457
0.00118026
0.00524019
0.000328669
0.00112525
0.0053974
0.000116887
0.00101255
0.00523938
-3.40264e-05
0.000850033
0.00532616
-0.000429823
0.000634245
0.00545935
-0.00111993
0.000240936
0.00483715
-0.00105825
0.000186524
0.00452098
5.7604e-05
0.00106843
0.00559672
0.000194753
0.000991119
0.00558552
0.000191829
0.00105189
0.00560237
0.000330978
0.00104703
0.00529473
0.000396288
0.000948047
0.00585516
0.000159792
0.000931492
0.00619465
0.000288123
0.0009115
0.00604555
4.57319e-05
0.000868632
0.00628652
-0.000883993
0.000546426
0.00616349
-0.000985627
0.000249939
0.00498241
-0.00013749
0.000941196
0.00338762
1.65938e-05
0.000944919
0.00335905
3.52729e-05
0.000869391
0.00334636
9.37856e-05
0.000886851
0.00278184
0.000229942
0.000636886
0.00276956
0.000181764
0.000640689
0.00308241
0.000203437
0.000645381
0.00435589
0.00033484
0.000707824
0.00555481
0.000423158
0.000749076
0.00660227
-9.41513e-05
0.000837953
0.00734196
-0.000669116
0.000550055
0.0061997
-0.000320511
-0.000497916
0.00258992
-0.000281804
-0.000564074
0.00221205
-0.000177409
-0.000639548
0.00172853
-0.000159208
-0.000676498
0.00151487
-0.000125576
-0.000661675
0.00151741
2.14191e-05
-0.000571124
0.00152136
3.51407e-05
-0.00063521
0.00175674
2.56904e-05
-0.000705483
0.00117645
0.000172141
-0.000531826
0.000860773
0.000263683
-0.000176977
0.00298312
0.000385122
2.10931e-06
0.00490092
-0.00029564
0.000155526
0.00539121
-7.57126e-05
-0.000582478
0.0016145
-0.000103159
-0.000550434
0.00182593
-8.43016e-05
-0.000538329
0.0015848
-5.67769e-05
-0.000553664
0.00112004
-7.52695e-05
-0.000545362
0.000955771
-4.09565e-05
-0.000489704
0.000970434
9.29642e-05
-0.000413146
0.000896102
0.000159286
-0.000281869
0.000941072
-3.33602e-05
-0.000161751
0.00145155
1.73574e-05
-0.000143326
0.00197477
0.000105799
-3.4819e-05
0.00130325
0.00016165
0.000131451
0.00115482
-0.000225869
0.000199111
0.00150146
-0.000103256
-0.000255877
0.00080919
-0.000101627
-0.000265359
0.000853262
-9.66269e-05
-0.000287963
0.000732666
-6.50707e-05
-0.0003077
0.000391573
-6.98138e-05
-0.000325503
0.000310993
-7.90157e-05
-0.0003188
0.000157895
2.83046e-10
-0.000304695
0.00046175
4.95419e-05
-0.000274934
0.000745296
0.000104637
-0.000242945
0.00119344
-4.06265e-05
-0.000174492
0.0017512
-4.42956e-05
-0.000142347
0.00155659
2.85134e-05
-0.000146634
0.00154736
-1.28806e-05
-0.000114602
-7.17693e-05
-4.93509e-05
-7.62053e-05
-1.92498e-05
-3.3406e-05
-7.27457e-05
0.000898857
-5.30886e-05
-7.01632e-05
0.000657669
-5.11034e-05
-7.99721e-05
4.79915e-05
-3.67194e-05
-8.3548e-05
-0.000294807
-1.35059e-05
-8.03739e-05
-0.000293047
-9.33159e-06
-7.74147e-05
-0.000330189
-4.45014e-06
-7.16357e-05
-0.000468787
-2.82782e-07
-6.85092e-05
-0.000512671
2.84153e-05
-7.30611e-05
-0.000544031
4.79735e-05
-7.631e-05
0.000236875
-2.93951e-06
-7.106e-05
0.000640041
-1.73917e-05
-7.34087e-05
0.000781631
-3.97077e-05
-7.80138e-05
0.000551362
-3.19967e-05
-6.63401e-05
-0.000743465
-2.3604e-05
-4.26987e-05
-0.00109838
-0.00167298
0.000134908
0.00212721
-0.00161534
0.000171989
0.00254251
-0.00144941
3.76111e-05
0.00231919
-0.00113458
0.000281047
0.00329132
-0.00132123
6.68907e-05
0.00306591
-0.00141566
8.38253e-06
0.00255149
-0.00108555
0.000376647
0.00369747
-0.000557721
0.000222484
0.00373821
-0.0013034
4.64583e-05
0.00363656
-0.00143353
-0.000294371
0.00332828
-0.000881932
0.000447081
0.00401687
-0.000630649
0.000232159
0.00398883
-0.000527325
0.000176237
0.00395256
-0.000972661
0.000100875
0.00378126
-0.0015302
0.000165782
0.00249469
-0.000703869
0.0006891
0.00426331
-0.000622543
0.000404698
0.00434343
-0.00039859
0.000208504
0.00427875
-0.000393222
0.000246417
0.00416834
-0.00112518
0.000157755
0.00350455
-0.00151999
0.000201913
0.00324858
-0.000223873
0.000913033
0.0048101
-0.00012935
0.000661288
0.00464656
-0.000529556
0.000467516
0.00467906
-0.00039348
0.000252404
0.00470299
-0.00017493
9.46167e-05
0.00462812
-0.00122637
-8.3082e-06
0.0042657
-0.00130052
-6.02396e-05
0.00274957
-6.22408e-05
0.00115602
0.0050857
7.67832e-05
0.000993803
0.00512619
-0.000247549
0.000813063
0.00503206
-3.28399e-05
0.000612859
0.00492878
-0.000211052
0.000447826
0.00513805
-0.000441924
0.00026954
0.00471105
-0.001156
0.000205554
0.00441541
-0.00166728
0.00012615
0.00361977
0.00011127
0.00122869
0.00541795
0.000203568
0.00111296
0.00550512
-4.64414e-05
0.00104742
0.00556005
0.000149846
0.00101794
0.00556266
-3.21463e-05
0.00077677
0.00539981
-9.53148e-05
0.000621716
0.00526658
-0.000465222
0.000482461
0.00511061
-0.00109812
0.000267525
0.00463114
-0.00124665
0.000193832
0.00420457
7.70202e-05
0.00115791
0.00509938
0.000165231
0.00118194
0.00523021
0.000206531
0.00122391
0.005196
0.000350725
0.00118584
0.00515986
0.000192698
0.00111937
0.00549417
-3.19587e-05
0.000998828
0.00528234
3.64499e-05
0.000894558
0.00531752
-0.000395944
0.000635548
0.00550641
-0.000913438
0.000245979
0.00480714
-0.00110331
0.000364039
0.00427462
0.000136888
0.000905931
0.00537169
0.00010828
0.000912918
0.00558323
0.000121009
0.00101546
0.00553621
0.000271141
0.00107406
0.00539799
0.000231799
0.00110558
0.00513534
0.00021401
0.00100466
0.00574975
0.000281061
0.000941755
0.00608677
0.000239415
0.000950352
0.00605925
4.15697e-05
0.000907768
0.00630676
-0.000789263
0.0006656
0.00644294
-0.00103704
0.000193296
0.00515703
-0.000150057
0.000662041
0.00343794
-0.000131964
0.000893422
0.00328927
-4.09905e-05
0.000944666
0.00314736
4.23304e-06
0.000908686
0.00316109
7.67717e-05
0.000813109
0.00240327
0.000215756
0.000550473
0.00266544
0.000105308
0.000585955
0.00307167
0.000162615
0.000652962
0.00427383
0.000330386
0.000851365
0.00529428
0.00028009
0.000799744
0.00662407
-1.8773e-05
0.000920521
0.00737539
-0.00081055
0.000530684
0.00618393
-0.000165102
-0.000458249
0.00328639
-0.000258651
-0.000620894
0.00280224
-0.000245895
-0.00065455
0.00238864
-0.000210527
-0.000721346
0.00192713
-0.00016874
-0.000684617
0.00163128
-0.000161567
-0.000602197
0.00166909
1.28484e-05
-0.000595817
0.00156208
8.72542e-07
-0.000642512
0.00185218
6.02306e-06
-0.000713046
0.00131829
0.000186912
-0.000459115
0.000973355
0.00019172
-3.20812e-05
0.00293139
0.000390206
-5.50641e-07
0.00482844
-0.000381887
0.000202912
0.00534432
-6.99038e-05
-0.000567709
0.00135572
-3.50676e-05
-0.000536144
0.00153365
-8.16332e-05
-0.000548064
0.00182067
-5.11113e-05
-0.000546048
0.00156323
-5.21141e-05
-0.000576617
0.0011336
-7.28079e-05
-0.0005586
0.00101846
-1.97561e-05
-0.000476946
0.00105399
9.28025e-05
-0.000382352
0.000953324
0.000161831
-0.000249038
0.000971164
-5.76e-05
-0.000149609
0.00147481
2.72637e-06
-0.000143949
0.00203688
0.000113809
-1.97166e-05
0.00136912
4.18481e-05
0.000148591
0.00115061
-0.000293074
0.000236692
0.00150849
-5.17312e-05
-0.000217515
0.00119624
-6.96786e-05
-0.000237468
0.000797888
-9.36991e-05
-0.000267357
0.000875251
-9.3214e-05
-0.000287783
0.000769243
-6.88973e-05
-0.000310607
0.000432068
-7.60124e-05
-0.000328261
0.000387134
-8.48817e-05
-0.0003194
0.000253032
-2.00745e-06
-0.000306993
0.000495533
4.65441e-05
-0.000278437
0.000762658
0.000114137
-0.000240355
0.00119314
-4.58663e-05
-0.000166203
0.00181799
-4.79285e-05
-0.00014058
0.00158107
-2.28467e-06
-0.000148743
0.00154408
-2.49715e-05
-0.000110581
-4.44184e-05
-6.35341e-05
-7.43301e-05
9.50104e-05
-1.93631e-05
-7.02439e-05
0.000907334
-2.28453e-05
-6.61087e-05
0.000917648
-4.75601e-05
-7.09126e-05
0.00069617
-4.72388e-05
-8.02001e-05
9.18824e-05
-3.43572e-05
-8.34431e-05
-0.000257381
-1.22432e-05
-8.00388e-05
-0.000278179
-1.0555e-05
-7.72783e-05
-0.000313991
-1.20068e-06
-7.1712e-05
-0.000464384
1.53686e-07
-6.91311e-05
-0.000516755
2.27521e-05
-7.43775e-05
-0.000568716
5.05446e-05
-7.75425e-05
0.000192813
2.18788e-06
-7.21705e-05
0.000636615
-9.91726e-06
-7.42483e-05