/*--------------------------------*- C++ -*----------------------------------*\
  =========                 |
  \\      /  F ield         | OpenFOAM: The Open Source CFD Toolbox
   \\    /   O peration     | Website:  https://openfoam.org
    \\  /    A nd           | Version:  7
     \\/     M anipulation  |
\*---------------------------------------------------------------------------*/
FoamFile
{
    version     2.0;
    format      ascii;
    class       volVectorField;
    location    "2.5";
    object      U;
}
// * * * * * * * * * * * * * * * * * * * * * * * * * * * * * * * * * * * * * //

dimensions      [0 1 -1 0 0 0 0];

internalField   nonuniform List<vector> 
18750
(
(1.13274 0.125542 -0.83573)
(0.741752 0.997576 -0.548951)
(0.743114 -0.027094 -1.54911)
(1.1157 0.193345 -0.804959)
(-1.27932 -0.677607 0.650475)
(0.331078 0.520912 -0.641244)
(0.629222 0.978247 -0.532228)
(0.024733 -0.44171 -1.74028)
(0.74072 -0.0146356 -1.5218)
(1.10088 0.114228 -0.805302)
(-3.94514 -1.21976 0.327905)
(-0.6591 -0.957109 0.754686)
(-1.31773 -0.818286 0.732232)
(-0.573861 -0.431745 -1.16557)
(0.239111 0.514182 -0.642124)
(0.517355 0.961062 -0.515057)
(-0.381835 -0.220206 -1.69975)
(0.0214453 -0.45498 -1.72938)
(0.736789 -0.00144014 -1.49892)
(1.08406 0.179062 -0.788525)
(-3.66027 -2.73282 0.00124613)
(-2.2948 -0.289247 0.576433)
(-4.02928 -0.963406 0.343631)
(-0.991228 -1.14714 1.08367)
(-0.698865 -1.02933 0.836846)
(-1.29464 -0.94586 0.792375)
(-0.82498 -0.511107 -1.11169)
(-0.610285 -0.486765 -1.13049)
(0.157211 0.503487 -0.647582)
(0.410596 0.941625 -0.496523)
(-0.332451 -0.187063 -1.57993)
(-0.382349 -0.212216 -1.7146)
(0.0158481 -0.466825 -1.71467)
(0.737296 0.00718779 -1.47673)
(1.07467 0.184968 -0.774918)
(-2.66992 -2.76384 -0.0796475)
(-4.05255 0.106502 1.61073)
(-3.68759 -2.55222 0.176097)
(-2.1995 0.777434 -1.1749)
(-2.44423 -0.317537 0.543331)
(-4.12393 -0.943382 0.347799)
(-0.548929 0.269161 -0.841294)
(-0.989158 -1.15903 1.08356)
(-0.725208 -1.07016 0.875211)
(-1.23464 -1.05979 0.820305)
(-0.984967 -0.431125 -1.60209)
(-0.822484 -0.594671 -1.13644)
(-0.67819 -0.587105 -1.03663)
(0.0808778 0.485262 -0.659278)
(0.305431 0.923044 -0.480315)
(-0.331946 0.257148 -1.73198)
(-0.334956 -0.206707 -1.57447)
(-0.389258 -0.209799 -1.71049)
(0.0155765 -0.466603 -1.70358)
(0.73187 0.024867 -1.4588)
(1.05757 0.190718 -0.767086)
(-2.97916 -2.46413 0.122338)
(-4.42486 -0.260725 0.602727)
(-2.46826 -2.92971 -0.0841896)
(-4.03909 1.0282 1.6382)
(-3.77798 -1.49383 1.30982)
(-3.88062 -2.21467 0.259819)
(-0.666651 0.674532 -0.992291)
(-2.18198 0.815347 -1.08537)
(-2.65408 -0.493833 0.696732)
(-4.09315 -1.1671 0.348835)
(-0.615374 0.908049 -1.58618)
(-0.676936 0.275817 -0.794444)
(-0.987142 -1.14522 1.13591)
(-0.775888 -1.08811 0.853655)
(-1.19375 -1.09952 0.824938)
(-0.858756 0.0312984 -2.1142)
(-0.96179 -0.524911 -1.59906)
(-0.800893 -0.743673 -1.11017)
(-0.721728 -0.646015 -0.97359)
(0.00785836 0.455729 -0.665638)
(0.208974 0.90497 -0.463481)
(0.147901 0.807668 -1.52766)
(-0.343811 0.247263 -1.7116)
(-0.343096 -0.211835 -1.54455)
(-0.401235 -0.212513 -1.69735)
(0.00363158 -0.462403 -1.70453)
(0.724339 0.0493327 -1.44168)
(1.03795 0.207504 -0.75572)
(-2.78206 -1.69568 0.166847)
(-3.72053 -0.437108 0.760546)
(-2.53914 -2.85759 0.203397)
(-4.12894 0.0595775 1.07545)
(-4.27998 -0.4476 1.01462)
(-2.56753 -2.50636 -0.0247392)
(-3.53971 1.61676 1.68819)
(-4.19525 0.250748 1.60141)
(-3.67502 -1.76837 1.23884)
(-3.76897 -2.2033 0.301874)
(-0.469262 -0.318587 -1.64142)
(-0.475831 0.239692 -0.513023)
(-2.0599 0.688705 -1.19978)
(-2.77352 -0.911623 0.888336)
(-3.998 -1.43253 0.286539)
(-0.378611 0.897475 -1.9553)
(-0.70383 0.802005 -1.49325)
(-0.785242 0.219238 -0.705948)
(-0.978235 -1.1162 1.2493)
(-0.783005 -1.05337 0.815344)
(-1.16529 -1.06898 0.811979)
(-0.450324 -0.0490815 -2.2051)
(-0.847426 -0.00788976 -2.10414)
(-0.942159 -0.568543 -1.60333)
(-0.796524 -0.828901 -1.09725)
(-0.750388 -0.698519 -0.968582)
(-0.0561328 0.435586 -0.662544)
(0.124306 0.880513 -0.44758)
(0.304384 0.463011 -1.4646)
(0.133383 0.819547 -1.50244)
(-0.348852 0.307496 -1.68599)
(-0.345975 -0.217018 -1.53262)
(-0.401315 -0.232944 -1.69486)
(0.00296083 -0.462264 -1.72112)
(0.717414 0.0662306 -1.42213)
(1.02334 0.215674 -0.743872)
(-2.8118 -1.54269 -0.160212)
(-3.63644 -0.68724 -0.269719)
(-2.49801 -2.1213 0.0705268)
(-3.88389 0.163645 0.897176)
(-3.70874 -1.02547 0.650468)
(-2.47453 -2.70231 0.129838)
(-3.95003 0.730981 1.438)
(-4.14393 -0.332201 1.08336)
(-3.69469 -1.59408 0.710807)
(-2.42277 -2.34501 0.244782)
(-2.78921 2.56406 1.15206)
(-3.78192 1.02696 1.80545)
(-4.14468 0.547107 1.75964)
(-3.5692 -1.98286 1.24454)
(-3.6659 -2.33482 0.378669)
(-0.973699 -0.23008 -2.61557)
(-0.538958 -0.141836 -1.52456)
(-0.423327 0.0649903 -0.557075)
(-2.0993 0.64665 -1.06641)
(-3.00281 -0.73037 0.777786)
(-3.92738 -1.71797 0.203884)
(-0.364061 0.669366 -2.26825)
(-0.44563 0.911266 -1.9153)
(-0.770628 0.68903 -1.39228)
(-0.901591 0.167926 -0.589447)
(-0.955645 -1.03092 1.3925)
(-0.811431 -0.883566 0.765872)
(-1.15376 -0.998473 0.795143)
(-0.121455 -0.084502 -2.05653)
(-0.448158 -0.106419 -2.19169)
(-0.845235 -0.0558583 -2.06973)
(-0.929115 -0.567884 -1.59732)
(-0.806244 -0.848561 -1.10456)
(-0.771642 -0.785373 -1.06076)
(-0.104128 0.434665 -0.661143)
(0.050968 0.843399 -0.432432)
(0.356541 0.263826 -1.45672)
(0.288962 0.396559 -1.51175)
(0.115024 0.814093 -1.49622)
(-0.353516 0.335699 -1.67961)
(-0.349648 -0.21574 -1.53491)
(-0.409914 -0.252852 -1.69115)
(-0.00246946 -0.45608 -1.72471)
(0.710338 0.0828015 -1.40071)
(1.00849 0.2272 -0.734162)
(-2.45817 -1.14812 -0.329548)
(-3.09998 -1.00659 0.166549)
(-2.44929 -1.90498 -0.287265)
(-3.87432 -0.0770832 0.684301)
(-3.42051 -1.17827 -0.109743)
(-2.25005 -2.46155 0.0946444)
(-3.88813 0.30416 1.17216)
(-3.73738 -0.18836 0.873485)
(-3.68504 -1.05739 0.63035)
(-2.15601 -2.79015 0.216765)
(-3.85948 0.584796 1.81614)
(-4.0135 0.287738 1.43798)
(-4.17474 -0.687878 1.20212)
(-3.43656 -2.22022 0.505322)
(-2.70878 -1.75261 0.421795)
(-2.61784 1.32976 1.77708)
(-3.08218 1.5046 1.73404)
(-3.74842 0.859823 1.90297)
(-4.25709 -0.76493 1.58578)
(-3.64872 -1.97865 1.0454)
(-3.46121 -2.66188 0.165957)
(-0.962609 -0.395783 -2.56773)
(-1.00072 -0.291181 -2.4461)
(-0.604187 -0.205278 -1.55224)
(-0.403212 0.00356288 -0.72866)
(-2.14991 0.582939 -1.21919)
(-3.15713 -0.687047 0.793355)
(-3.93299 -1.88983 0.306814)
(-0.404679 0.105757 -2.22462)
(-0.425851 0.633517 -2.24574)
(-0.535572 0.859686 -1.87831)
(-0.837365 0.532854 -1.2762)
(-1.03823 0.0951386 -0.409429)
(-0.934332 -0.822583 1.43519)
(-0.832605 -0.670669 0.72464)
(-1.0974 -1.00728 0.771115)
(0.11951 -0.333858 -2.20923)
(-0.163701 -0.100549 -2.07345)
(-0.438504 -0.174967 -2.15345)
(-0.83182 -0.0917631 -2.02497)
(-0.915507 -0.58036 -1.54673)
(-0.75292 -0.86801 -1.14328)
(-0.780718 -0.819157 -1.01182)
(-0.141925 0.424487 -0.693845)
(-0.0133952 0.79151 -0.416992)
(0.276842 0.22696 -1.74785)
(0.338603 0.248118 -1.46938)
(0.285605 0.342241 -1.55179)
(0.0891593 0.826439 -1.49845)
(-0.373809 0.364277 -1.67037)
(-0.36143 -0.202464 -1.51245)
(-0.410638 -0.273289 -1.68919)
(-0.0181319 -0.442312 -1.71813)
(0.705839 0.0916298 -1.37652)
(0.99428 0.235516 -0.724163)
(-1.90388 -1.56774 0.489219)
(-2.95211 -0.646428 0.213582)
(-2.54009 -1.1326 -0.271587)
(-3.30859 -0.546389 0.178024)
(-3.01972 -1.2131 0.211566)
(-2.23008 -2.15282 -0.355118)
(-3.59592 -0.0105614 0.763466)
(-3.75851 -0.313648 0.757921)
(-3.28195 -1.53147 0.0409301)
(-2.05639 -2.62992 0.0480615)
(-3.77747 0.671199 1.47741)
(-3.86487 0.0278745 1.15643)
(-3.59228 -0.888412 0.842474)
(-3.45893 -1.56352 0.72218)
(-2.28836 -2.57138 0.249468)
(-3.93174 0.631355 1.83974)
(-4.03866 -0.0211586 1.69994)
(-3.97934 -0.138546 1.52362)
(-4.16866 -1.17942 1.31731)
(-2.91955 -3.10552 0.228656)
(-2.49765 -1.89093 0.426443)
(-2.63312 0.818975 0.579171)
(-2.7289 1.13089 1.57671)
(-3.10417 0.992423 1.87114)
(-3.79031 0.256968 2.03117)
(-4.1994 -0.351055 1.75131)
(-3.76914 -1.78101 1.22467)
(-3.11877 -2.92741 -0.0890933)
(-0.90211 -0.795853 -2.47858)
(-0.902271 -0.480534 -2.30523)
(-1.02136 -0.328025 -2.27118)
(-0.621002 -0.286671 -1.74159)
(-0.356931 -0.0618352 -0.988422)
(-2.29119 0.750827 -1.0541)
(-3.34878 -0.650564 0.774775)
(-3.97317 -1.83944 0.381807)
(-0.502514 0.248478 -2.21485)
(-0.450375 0.0510782 -2.22975)
(-0.489269 0.57434 -2.19147)
(-0.62526 0.898115 -1.75059)
(-0.893603 0.358874 -1.13365)
(-1.14166 0.055818 -0.37087)
(-0.926736 -0.554038 1.19328)
(-0.8461 -0.499781 0.652423)
(-0.975199 -1.0861 0.773346)
(-0.0462091 -0.41457 -2.33328)
(0.145564 -0.413746 -2.26896)
(-0.155253 -0.132805 -2.08629)
(-0.40499 -0.168075 -2.11839)
(-0.814591 -0.103747 -1.96705)
(-0.919966 -0.560708 -1.44925)
(-0.835335 -0.752802 -1.18536)
(-0.806723 -0.819936 -0.941199)
(-0.142404 0.373493 -0.73123)
(-0.0703689 0.727814 -0.396133)
(0.257397 0.104361 -1.82229)
(0.254969 0.235838 -1.74532)
(0.319525 0.255448 -1.48305)
(0.282006 0.295732 -1.56279)
(0.0797997 0.832019 -1.50913)
(-0.385414 0.394985 -1.6638)
(-0.367931 -0.198665 -1.46728)
(-0.400485 -0.305467 -1.6909)
(-0.0151478 -0.455641 -1.71256)
(0.702592 0.0978757 -1.35037)
(0.979571 0.245961 -0.713842)
(-1.95621 -1.52428 -0.175892)
(-2.43206 -1.26459 0.106798)
(-1.80842 -1.68394 0.48025)
(-2.95169 -0.658383 0.231272)
(-2.76246 -1.13513 0.256207)
(-2.48283 -1.25958 -0.16347)
(-3.36845 -0.051962 0.541667)
(-3.33068 -0.761516 0.221586)
(-2.91443 -1.53262 0.318814)
(-1.9867 -2.33437 -0.451322)
(-3.46114 0.248323 1.07788)
(-3.54655 -0.419971 0.764473)
(-3.63806 -1.12748 0.545231)
(-3.34424 -1.57506 0.164521)
(-2.01779 -2.57562 0.16262)
(-3.60861 0.684219 1.69528)
(-3.71519 0.258197 1.52462)
(-3.90514 -0.162872 1.12368)
(-3.57424 -1.00477 0.911267)
(-3.13241 -2.02854 0.71892)
(-2.35219 -2.36214 0.448042)
(-3.85461 0.615504 1.64517)
(-4.03495 0.128606 1.91033)
(-4.02054 -0.197259 1.64246)
(-4.0193 -0.860505 1.34177)
(-4.1034 -1.0623 1.43987)
(-2.73918 -3.3118 0.162393)
(-2.40881 -2.0089 0.403932)
(-2.82124 1.08246 0.766801)
(-2.351 0.848133 1.30129)
(-2.66971 1.02383 1.57173)
(-3.07152 1.34772 1.46598)
(-3.78024 -0.0299845 2.52555)
(-4.33759 0.0920904 2.10807)
(-3.6929 -2.22756 1.64991)
(-3.29849 -2.2034 -0.0157007)
(-0.984087 -0.753376 -2.26308)
(-0.775239 -0.797709 -2.35588)
(-0.932293 -0.379551 -2.07466)
(-1.00937 -0.370691 -2.21079)
(-0.622851 -0.283221 -1.92955)
(-0.344756 -0.152464 -1.20072)
(-2.33861 0.925218 -0.864668)
(-3.54951 -0.606335 0.745667)
(-4.01142 -1.40624 0.738032)
(-0.635128 0.333903 -2.22617)
(-0.52035 0.17246 -2.22577)
(-0.501256 -0.0157766 -2.23526)
(-0.541526 0.565401 -2.10771)
(-0.714893 0.876795 -1.60793)
(-0.904897 0.102919 -0.920198)
(-1.25678 -0.0111725 -0.445861)
(-0.943813 -0.206497 0.824715)
(-0.836148 -0.584176 0.610092)
(-0.761554 -1.1604 0.789454)
(-0.16195 -0.454898 -2.32894)
(-0.0638772 -0.426971 -2.36892)
(0.114932 -0.431778 -2.31348)
(-0.21373 -0.17287 -2.09419)
(-0.502662 -0.13528 -2.03854)
(-0.836288 -0.114151 -1.86717)
(-0.926122 -0.537433 -1.33382)
(-0.701988 -0.912051 -1.15818)
(-0.73818 -0.912433 -0.869794)
(-0.144903 0.335583 -0.768742)
(-0.112605 0.628874 -0.394108)
(0.297644 -0.298273 -1.90689)
(0.240713 0.0944774 -1.81359)
(0.234125 0.23602 -1.74282)
(0.301016 0.270899 -1.4956)
(0.283529 0.222152 -1.56238)
(0.0630604 0.803391 -1.5397)
(-0.411683 0.427764 -1.65715)
(-0.366939 -0.209947 -1.45217)
(-0.39361 -0.331789 -1.69641)
(-0.0182564 -0.468594 -1.71583)
(0.700255 0.0951823 -1.32175)
(0.963979 0.250762 -0.705633)
(-2.10745 -0.952136 -0.246184)
(-2.44901 -0.651792 0.0858849)
(-1.74598 -1.75857 -0.197101)
(-2.80506 -0.550957 0.290808)
(-2.53065 -1.07029 0.130166)
(-1.84059 -1.70628 0.403918)
(-3.06221 -0.263247 0.283227)
(-2.96384 -0.786558 0.215489)
(-2.53099 -1.54939 0.204265)
(-2.27755 -1.5731 0.0663473)
(-3.34175 -0.292917 0.652681)
(-3.30988 -0.410269 0.521633)
(-3.34856 -0.753294 0.227281)
(-2.86244 -1.65049 0.380029)
(-1.64271 -2.5458 -0.427843)
(-3.59355 -0.120343 1.16568)
(-3.56567 -0.23712 1.01064)
(-3.58683 -0.600239 0.744225)
(-3.57052 -1.04463 0.494213)
(-3.03242 -1.91037 0.174395)
(-1.75318 -2.79789 0.0603189)
(-3.40143 0.895222 1.84444)
(-3.63788 0.52877 1.72298)
(-3.70256 0.233882 1.64668)
(-3.76454 -0.523113 1.18069)
(-3.40983 -1.27548 0.850397)
(-2.78415 -2.34372 0.464382)
(-2.41876 -2.24048 0.618091)
(-3.87035 0.408257 1.82658)
(-3.73827 0.165821 1.92494)
(-4.00802 -0.0128939 1.96891)
(-3.8804 -0.519055 1.69437)
(-3.99328 -0.507261 1.61216)
(-4.02936 -0.938508 1.55145)
(-2.56227 -3.49855 -0.0805594)
(-2.1731 -2.39276 0.315277)
(-2.79993 0.939977 1.37232)
(-2.36748 0.398589 1.60086)
(-2.48532 0.103361 1.33293)
(-2.73605 0.560246 1.47693)
(-3.44317 1.04239 0.656498)
(-4.1343 0.0716264 2.06272)
(-4.65815 -0.269947 1.68163)
(-4.09993 -1.65173 1.93637)
(-3.12532 -2.20753 0.208167)
(-1.06145 -0.748798 -1.78831)
(-0.887245 -0.747996 -2.22822)
(-0.764493 -0.785011 -2.24882)
(-0.904479 -0.593187 -1.98259)
(-1.0202 -0.41108 -2.22643)
(-0.573339 -0.249989 -2.13319)
(-0.335704 -0.148009 -1.24622)
(-2.37014 0.597633 -0.72108)
(-3.57132 -0.67249 0.734756)
(-4.06097 -0.987507 0.684122)
(-0.971877 -0.410115 -2.22349)
(-0.697489 0.141502 -2.29717)
(-0.561259 0.0342803 -2.24132)
(-0.513989 -0.0511088 -2.23069)
(-0.618314 0.555951 -1.98157)
(-0.794078 0.842238 -1.45992)
(-0.922843 -0.155574 -0.720521)
(-1.3678 0.0143468 -0.526473)
(-0.996348 -0.0414293 0.439414)
(-0.824145 -0.391414 0.561893)
(-0.526316 -1.23406 0.795518)
(-0.418734 -0.695012 -2.24158)
(-0.169827 -0.486514 -2.36139)
(-0.0537637 -0.449765 -2.40513)
(0.119531 -0.446418 -2.3404)
(-0.162416 -0.150059 -2.11677)
(-0.428538 -0.150634 -1.9833)
(-0.815977 -0.0985444 -1.78004)
(-0.919313 -0.605062 -1.21457)
(-0.674948 -0.94101 -1.17276)
(-0.647574 -1.00686 -0.86997)
(-0.0899039 0.2533 -0.755009)
(-0.142091 0.513403 -0.399532)
(0.0401288 -0.483335 -1.94975)
(0.285448 -0.280191 -1.89926)
(0.227841 0.0860215 -1.80271)
(0.215121 0.229957 -1.74099)
(0.275273 0.286434 -1.50525)
(0.292653 0.17647 -1.55858)
(0.0757837 0.743271 -1.59506)
(-0.434705 0.457984 -1.65253)
(-0.374416 -0.207611 -1.46315)
(-0.399267 -0.340132 -1.69989)
(-0.0185901 -0.489131 -1.72017)
(0.698692 0.0886934 -1.29233)
(0.94705 0.25796 -0.699586)
(-1.64568 -1.13768 -0.0160947)
(-2.36585 -0.918051 0.0552141)
(-2.08228 -1.06157 -0.2789)
(-2.65537 -0.518616 -0.253212)
(-2.4102 -0.714113 0.155767)
(-1.63086 -1.86665 -0.019189)
(-2.79298 -0.457131 0.168125)
(-2.77101 -0.578874 0.106875)
(-2.28457 -1.36657 0.0541147)
(-1.86576 -1.66853 0.419145)
(-3.05112 -0.190468 0.486483)
(-3.07563 -0.678404 0.197858)
(-2.95459 -0.891805 0.213363)
(-2.35272 -1.74521 0.118523)
(-1.88442 -1.89307 0.0633943)
(-3.43983 0.0171044 0.911743)
(-3.33774 -0.242717 0.680681)
(-3.24342 -0.666033 0.427201)
(-3.23769 -0.855169 0.213836)
(-2.69976 -1.85441 0.407236)
(-1.57578 -2.60056 -0.217268)
(-3.51869 0.446809 1.40778)
(-3.58525 -0.151332 1.19886)
(-3.55813 -0.350936 1.03459)
(-3.57703 -0.530261 0.665725)
(-3.24827 -1.47502 0.553778)
(-2.7038 -2.34683 0.211627)
(-1.91876 -2.73237 0.298331)
(-3.40651 0.711565 1.92649)
(-3.42824 0.740624 1.8887)
(-3.64959 0.316164 1.72903)
(-3.62797 0.170538 1.72541)
(-3.56238 -0.333 1.29228)
(-3.39475 -1.36561 0.809138)
(-2.55094 -2.59235 0.305631)
(-2.27197 -2.41835 0.635927)
(-3.84465 0.534976 1.89898)
(-3.86117 0.483089 1.84105)
(-3.75059 0.0923608 1.95307)
(-4.04353 -0.0427915 1.84975)
(-3.95101 -0.566122 1.71277)
(-3.99792 -0.482647 1.66686)
(-4.19413 -0.999437 1.4054)
(-2.44713 -3.73028 0.0357091)
(-2.00835 -2.94271 0.282552)
(-2.54125 0.191524 1.69049)
(-2.40073 -0.153775 1.95363)
(-2.21484 -0.128123 1.86018)
(-2.03334 0.209781 1.61338)
(-2.37305 0.0786485 1.79461)
(-3.22917 0.211156 0.912097)
(-4.07991 0.205586 2.08053)
(-4.64245 -0.38417 1.68193)
(-5.0663 -0.314378 1.30116)
(-3.64337 -1.82108 0.041605)
(-1.31743 -0.798962 -1.4902)
(-1.00406 -0.74422 -1.88519)
(-0.865517 -0.73959 -2.16287)
(-0.781023 -0.676246 -2.1822)
(-0.904429 -0.603031 -1.88593)
(-1.04042 -0.454646 -2.21471)
(-0.663812 -0.303839 -2.28038)
(-0.383602 -0.186956 -1.05872)
(-2.07875 -0.287937 -0.700131)
(-3.53541 -0.249968 0.597614)
(-3.73662 -1.28115 0.448346)
(-1.16241 -0.398396 -2.353)
(-0.983741 -0.352607 -2.30791)
(-0.702481 -0.0371612 -2.39986)
(-0.560593 -0.179852 -2.27238)
(-0.557805 -0.139925 -2.1826)
(-0.720518 0.561991 -1.8011)
(-0.904993 0.759289 -1.27351)
(-0.845244 -0.416983 -0.608017)
(-1.31244 -0.246191 -0.666809)
(-1.02255 0.0639211 0.438191)
(-0.832631 -0.340524 0.596059)
(-0.326105 -1.33079 0.815976)
(-0.540396 -0.877921 -2.07783)
(-0.411833 -0.710944 -2.24484)
(-0.168366 -0.51119 -2.38941)
(-0.063421 -0.474252 -2.43664)
(0.084455 -0.502744 -2.34854)
(-0.24894 -0.136389 -2.13157)
(-0.415247 -0.252295 -1.93817)
(-0.806815 -0.146991 -1.71967)
(-0.921388 -0.654938 -1.12225)
(-0.628846 -0.994564 -1.16903)
(-0.613645 -1.02969 -0.862916)
(-0.0317925 0.151743 -0.752232)
(-0.166842 0.395377 -0.41041)
(-0.390623 -0.553882 -1.71012)
(0.0283936 -0.472071 -1.94776)
(0.272952 -0.263959 -1.89041)
(0.213841 0.0792375 -1.79042)
(0.204081 0.211823 -1.74033)
(0.25085 0.301695 -1.51082)
(0.293852 0.164149 -1.55218)
(0.085813 0.673161 -1.65559)
(-0.459046 0.474792 -1.65203)
(-0.390925 -0.187691 -1.48057)
(-0.40805 -0.340048 -1.70457)
(-0.0194311 -0.505954 -1.71814)
(0.698528 0.0801954 -1.26238)
(0.931037 0.259694 -0.694502)
(-1.49662 -1.01856 0.105443)
(-1.92311 -0.970738 0.0698538)
(-1.65152 -1.19159 -0.0337216)
(-2.42129 -0.540209 0.161417)
(-2.31224 -1.03878 0.0803584)
(-1.89106 -1.40557 -0.281525)
(-2.69249 -0.590539 0.144171)
(-2.59108 -0.579426 0.00610353)
(-2.31711 -1.03653 0.0584946)
(-1.42004 -2.0608 0.222609)
(-2.77291 -0.311058 0.348188)
(-2.81007 -0.637861 0.0857515)
(-2.69006 -0.711554 0.280523)
(-2.21779 -1.54693 0.0118729)
(-1.88188 -1.59837 0.499886)
(-2.97703 -0.281556 0.672964)
(-2.99927 -0.42602 0.476146)
(-3.06203 -0.768229 0.173046)
(-2.95826 -0.881031 0.151807)
(-2.41749 -1.68884 0.227959)
(-1.55455 -2.14616 -0.074392)
(-3.47054 0.194516 1.09741)
(-3.38522 -0.143002 0.922389)
(-3.29186 -0.312658 0.689171)
(-3.20602 -0.710707 0.434618)
(-3.0964 -1.206 0.245763)
(-2.51766 -2.03895 0.413139)
(-1.31668 -2.7629 -0.203014)
(-3.54099 0.250623 1.50614)
(-3.60241 -0.0410243 1.45696)
(-3.65036 -0.352113 1.1469)
(-3.53901 -0.460114 1.0374)
(-3.49818 -0.44426 0.80902)
(-3.20967 -1.53529 0.632231)
(-2.6159 -2.3881 0.273928)
(-1.90461 -2.72902 0.397219)
(-3.32977 0.672953 1.87401)
(-3.4321 0.554024 1.98424)
(-3.45392 0.260996 1.9568)
(-3.63275 0.205657 1.78619)
(-3.47892 -0.263775 1.65336)
(-3.38803 -0.86224 1.28974)
(-3.1876 -1.91381 0.716695)
(-2.29363 -2.80069 0.145488)
(-2.09677 -2.6875 0.456342)
(-3.65375 0.158018 2.17918)
(-3.73872 0.296361 2.00196)
(-3.75092 0.0643595 2.02807)
(-3.62608 0.112075 1.95182)
(-4.03423 0.107984 1.78772)
(-4.06557 -0.74839 1.81428)
(-4.03156 -0.6641 1.73644)
(-4.12131 -1.18395 1.71073)
(-2.59057 -3.59456 0.300489)
(-1.79656 -3.46958 0.0124466)
(-2.30403 -0.394117 2.22996)
(-2.30001 -0.235407 2.06026)
(-2.30215 -0.320692 2.07837)
(-1.91384 -0.211253 2.04061)
(-2.02575 0.183258 1.29112)
(-2.05188 -0.207705 1.94821)
(-2.83275 -0.628229 1.50055)
(-4.09047 -0.345374 1.7394)
(-4.76743 -0.62007 1.50808)
(-4.82037 -1.55736 2.02969)
(-3.21346 -2.74432 0.049671)
(-1.63767 -0.57584 -1.58939)
(-1.35432 -0.747801 -1.61682)
(-1.03315 -0.661135 -2.04716)
(-0.865905 -0.670199 -2.15819)
(-0.83397 -0.61987 -2.01003)
(-0.867055 -0.604455 -1.85445)
(-1.01838 -0.473407 -2.17126)
(-0.655755 -0.324163 -2.45363)
(-0.39763 -0.364906 -0.747338)
(-1.95851 -0.51483 -0.811902)
(-3.46574 -0.71623 0.575704)
(-2.72736 -2.4641 0.514857)
(-1.06495 -0.32173 -2.46196)
(-1.17142 -0.428764 -2.46536)
(-1.01238 -0.307404 -2.38765)
(-0.709601 -0.239255 -2.50826)
(-0.548132 -0.336503 -2.30447)
(-0.577835 -0.184282 -2.12703)
(-0.797873 0.580856 -1.61231)
(-0.941963 0.777409 -1.0897)
(-0.814376 -0.51634 -0.578998)
(-1.28179 -0.371513 -0.705128)
(-1.00229 -0.179312 0.349047)
(-0.657519 -0.521495 0.747906)
(-0.146131 -1.42027 0.817126)
(-0.560255 -0.735962 -1.89452)
(-0.52187 -0.810137 -2.08661)
(-0.39646 -0.72284 -2.24364)
(-0.170704 -0.534384 -2.41403)
(-0.0736316 -0.491123 -2.46121)
(0.0773436 -0.517818 -2.35554)
(-0.270499 -0.135611 -2.14977)
(-0.415968 -0.278371 -1.94293)
(-0.793824 -0.179888 -1.69723)
(-0.903438 -0.748796 -0.987738)
(-0.564949 -1.04147 -1.18431)
(-0.544129 -1.05967 -0.927706)
(0.0225311 0.0591608 -0.746934)
(-0.183299 0.277005 -0.428328)
(-0.581448 -0.286159 -1.5539)
(-0.393297 -0.556303 -1.70481)
(0.0227138 -0.460476 -1.94431)
(0.25962 -0.245749 -1.88075)
(0.197277 0.0808747 -1.77593)
(0.194049 0.160036 -1.74416)
(0.23425 0.313003 -1.50911)
(0.286266 0.185929 -1.5518)
(0.101788 0.611161 -1.71187)
(-0.47816 0.476799 -1.65819)
(-0.414312 -0.165848 -1.49834)
(-0.416953 -0.337811 -1.71216)
(-0.016559 -0.530165 -1.69818)
(0.693474 0.0702183 -1.23475)
(0.914457 0.258755 -0.691005)
(-1.43158 -1.04127 0.13523)
(-1.66405 -1.15633 -0.0499516)
(-1.46092 -1.09407 0.0812018)
(-2.08675 -0.710389 0.15681)
(-1.95625 -1.02519 0.00201998)
(-1.58442 -1.3476 -0.0487024)
(-2.3872 -0.794231 0.239395)
(-2.44782 -0.527864 0.182545)
(-2.23507 -1.30174 0.0139967)
(-1.94994 -1.39103 -0.435977)
(-2.60251 -0.729774 0.307966)
(-2.5892 -0.713382 0.197487)
(-2.53746 -0.740857 0.0875417)
(-2.35091 -1.17714 0.075275)
(-1.23879 -2.17021 0.24384)
(-2.69729 -0.443285 0.602033)
(-2.81751 -0.525401 0.274806)
(-2.76791 -0.685393 0.130587)
(-2.65192 -0.803275 0.374883)
(-1.89354 -1.97009 -0.0472902)
(-1.67134 -1.78754 0.436762)
(-3.02891 0.188826 0.852347)
(-3.09722 -0.0496277 0.617818)
(-2.91457 -0.787972 0.402933)
(-2.97358 -0.914603 0.151086)
(-3.01156 -0.840038 0.111612)
(-2.36868 -1.93848 -0.128638)
(-1.28061 -2.33889 -0.131944)
(-3.29469 0.0848418 1.29349)
(-3.39799 0.200983 1.19685)
(-3.2136 -0.340193 0.911652)
(-3.23474 -0.537143 0.654739)
(-3.24592 -0.810923 0.480018)
(-2.80725 -1.54391 0.18303)
(-2.27815 -2.24367 0.386969)
(-1.43371 -2.64404 -0.00936831)
(-3.48952 0.208235 1.5891)
(-3.60607 0.0545324 1.51085)
(-3.56561 -0.432792 1.55673)
(-3.67851 -0.288084 1.25728)
(-3.48645 -0.761812 0.990395)
(-3.33816 -1.14665 0.755387)
(-3.08502 -1.67454 0.645998)
(-2.11109 -2.73516 0.208532)
(-1.73941 -2.85336 0.336698)
(-3.28286 0.244808 1.87266)
(-3.4369 0.312791 2.01322)
(-3.44362 0.0291351 2.06243)
(-3.46481 0.00464253 1.98272)
(-3.6126 -0.254465 1.78312)
(-3.37493 -0.832414 1.54952)
(-3.43286 -0.893708 1.38199)
(-3.22594 -1.80413 0.724347)
(-2.34255 -2.69805 0.0993785)
(-1.76788 -2.82092 0.323335)
(-3.60848 0.0673772 1.75965)
(-3.66168 0.169216 2.05705)
(-3.61523 -0.0262916 2.2182)
(-3.65105 -0.169592 2.16162)
(-3.42555 -0.265918 2.05979)
(-3.89798 -0.482589 1.88041)
(-4.10396 -0.68896 1.81442)
(-3.92198 -1.14861 1.8124)
(-3.98742 -1.37922 1.74099)
(-2.97035 -3.28208 0.892997)
(-1.4976 -3.8368 -0.370752)
(-2.18316 -0.824021 2.085)
(-2.13766 -0.835244 2.61859)
(-2.10173 -0.504301 2.22734)
(-2.04916 -0.595656 2.34557)
(-1.65302 -0.535423 1.8125)
(-1.8585 0.0352084 1.25749)
(-2.05001 -0.38111 1.67227)
(-2.75776 -0.934914 1.73112)
(-3.66074 -0.586696 2.15563)
(-4.35093 -1.2683 1.9763)
(-4.56052 -2.09415 2.35816)
(-2.68363 -3.35433 0.102189)
(-2.12081 -0.14222 -1.23745)
(-1.71585 -0.478924 -1.97064)
(-1.45402 -0.627415 -1.95286)
(-1.11589 -0.530306 -2.19104)
(-0.904456 -0.613914 -2.17906)
(-0.913135 -0.630874 -1.74468)
(-0.868664 -0.61483 -1.91458)
(-1.07156 -0.519425 -2.09148)
(-0.672828 -0.494245 -2.55524)
(-0.420109 -0.501495 -0.250162)
(-1.88847 -0.837554 -0.594654)
(-3.51492 -0.967832 0.355782)
(-2.47827 -2.73965 0.466044)
(-0.907117 -0.215974 -2.37843)
(-1.02758 -0.301323 -2.50705)
(-1.16275 -0.443507 -2.47416)
(-1.00499 -0.330176 -2.47775)
(-0.692593 -0.401854 -2.62391)
(-0.551863 -0.451772 -2.29871)
(-0.639844 -0.183717 -2.03671)
(-0.867398 0.473218 -1.46544)
(-1.06926 0.708509 -0.901747)
(-0.773834 -0.631766 -0.561408)
(-1.26129 -0.548434 -0.675881)
(-1.17828 0.349607 0.470577)
(-0.452046 -0.681902 0.792246)
(0.00415178 -1.50306 0.860747)
(-0.801122 -0.351511 -1.71258)
(-0.486448 -0.617834 -1.93911)
(-0.493798 -0.758728 -2.08539)
(-0.386958 -0.707086 -2.2414)
(-0.165787 -0.537171 -2.43705)
(-0.095977 -0.51537 -2.47179)
(0.0379719 -0.531433 -2.34875)
(-0.239886 -0.226824 -2.16974)
(-0.417517 -0.294642 -1.95746)
(-0.81615 -0.16113 -1.66603)
(-0.873485 -0.85612 -0.882922)
(-0.551206 -1.04211 -1.16947)
(-0.489651 -1.05324 -0.948207)
(0.115179 -0.0656867 -0.727323)
(-0.184244 0.143704 -0.450772)
(-0.589067 -0.0393046 -1.44595)
(-0.571072 -0.295143 -1.54954)
(-0.38508 -0.550294 -1.70929)
(0.0218537 -0.446784 -1.9395)
(0.246243 -0.22781 -1.86946)
(0.180887 0.0962479 -1.75901)
(0.183314 0.145576 -1.74028)
(0.187185 0.356577 -1.51057)
(0.273419 0.213084 -1.55152)
(0.129564 0.543714 -1.75856)
(-0.488506 0.468648 -1.67239)
(-0.440067 -0.143386 -1.51471)
(-0.433546 -0.327977 -1.71866)
(0.00435773 -0.559357 -1.67065)
(0.686106 0.0572161 -1.21004)
(0.898808 0.254541 -0.688523)
(-1.37705 -0.985315 -0.111884)
(-1.78799 -0.938467 0.0224446)
(-1.32701 -1.1784 0.0693151)
(-1.90672 -0.806955 0.280629)
(-1.64172 -1.20803 -0.0270905)
(-1.39757 -1.22683 0.0793801)
(-2.17806 -0.751941 0.245229)
(-2.17718 -0.553524 0.101671)
(-1.89082 -1.26181 0.063472)
(-1.41976 -1.53184 -0.0464908)
(-2.51232 -0.607163 0.344819)
(-2.4276 -0.59529 0.209342)
(-2.37564 -0.682714 0.0723005)
(-2.23481 -1.33078 -0.0798696)
(-2.01071 -1.36223 -0.472005)
(-2.68148 -0.706902 0.429206)
(-2.59757 -0.900446 0.254207)
(-2.57611 -0.619159 0.245793)
(-2.49564 -0.80962 0.108972)
(-2.26355 -1.27334 0.0646252)
(-1.08481 -2.24119 0.131043)
(-2.65345 -0.450685 0.724234)
(-2.80483 -0.457233 0.550947)
(-2.74593 -0.924718 0.305387)
(-2.69562 -0.81874 0.147969)
(-2.65609 -0.768344 0.363828)
(-1.86252 -2.02627 -0.0266424)
(-1.71538 -1.77574 0.397109)
(-3.10571 -0.00625099 1.03828)
(-3.12982 -0.192696 0.880574)
(-2.95013 -0.814315 0.663048)
(-3.10364 -0.482284 0.429055)
(-2.93296 -1.03872 0.124335)
(-2.7914 -1.10885 0.112121)
(-2.15443 -2.30425 -0.0184933)
(-0.754286 -2.62486 -0.296211)
(-3.28703 0.275408 1.39079)
(-3.28741 0.280233 1.33685)
(-3.273 -0.326918 1.16101)
(-3.27139 -0.362655 0.923009)
(-3.18577 -0.747484 0.692586)
(-3.23416 -0.98959 0.477579)
(-2.7171 -1.67495 0.157683)
(-2.20028 -2.33111 0.304764)
(-1.49112 -2.59387 0.195726)
(-3.37952 0.168964 1.66812)
(-3.49413 -0.00514255 1.77432)
(-3.60883 -0.0348362 1.51412)
(-3.65298 0.0523976 1.6898)
(-3.58651 -0.633531 1.23762)
(-3.344 -1.14187 1.07639)
(-3.23362 -1.28925 0.762221)
(-2.77989 -2.06488 0.578724)
(-2.28521 -2.64478 0.22068)
(-1.5848 -2.9868 0.145015)
(-3.27781 0.576028 1.73055)
(-3.3054 -0.00780413 1.99627)
(-3.4156 -0.162439 2.13627)
(-3.43782 0.120175 2.05471)
(-3.41883 -0.308535 1.98394)
(-3.53301 -0.767386 1.78995)
(-3.42977 -0.896145 1.6148)
(-3.39385 -1.0342 1.3669)
(-3.09116 -1.95844 0.756173)
(-1.85329 -3.09353 0.879126)
(-1.73528 -2.84768 0.299907)
(-3.29085 0.421576 1.59211)
(-3.44218 0.142806 1.65837)
(-3.6007 -0.11697 1.95954)
(-3.64006 -0.220805 2.20417)
(-3.52433 -0.15596 2.28317)
(-3.38085 -0.478188 2.11154)
(-3.65699 -0.994142 1.94464)
(-3.98057 -0.888583 1.86662)
(-3.85852 -1.24842 1.92002)
(-3.81126 -1.77959 1.64618)
(-3.15235 -3.1419 1.05613)
(-1.29614 -4.10092 -0.0443379)
(-2.24725 -0.530823 1.02358)
(-2.23749 -1.03693 1.88876)
(-2.03472 -1.02811 2.51088)
(-1.89595 -1.04289 2.22277)
(-1.89314 -0.89155 2.26296)
(-1.32793 -0.846652 1.41629)
(-1.75519 -0.171274 1.22499)
(-1.95393 -0.739968 1.4694)
(-2.64228 -1.09634 2.01908)
(-3.63476 -0.696321 1.85162)
(-4.1652 -1.68796 2.18372)
(-4.46355 -2.32425 2.29363)
(-2.31843 -3.80831 -0.138217)
(-2.34055 -0.18181 -1.34035)
(-2.14017 -0.0718264 -1.95361)
(-1.86835 -0.470535 -2.19831)
(-1.53404 -0.489388 -2.3418)
(-1.28431 -0.449455 -2.20051)
(-1.01657 -0.598152 -2.05805)
(-0.988305 -0.610123 -1.78384)
(-0.852665 -0.629209 -2.02949)
(-1.09439 -0.623436 -2.03267)
(-0.659837 -0.668874 -2.59616)
(-0.434267 -0.554332 0.328645)
(-1.3872 -1.42045 -0.365783)
(-2.96751 -1.54248 0.616945)
(-2.07284 -3.15456 0.427429)
(-0.841532 -0.137119 -2.26961)
(-0.869465 -0.162686 -2.40708)
(-0.941527 -0.36414 -2.47661)
(-1.12109 -0.50825 -2.41259)
(-0.93465 -0.445296 -2.56506)
(-0.630626 -0.512715 -2.72986)
(-0.536554 -0.571092 -2.26162)
(-0.707901 -0.178702 -1.89438)
(-0.899881 0.347175 -1.34889)
(-1.12488 0.642501 -0.806716)
(-0.71889 -0.72064 -0.572044)
(-1.18556 -0.744603 -0.671888)
(-1.18902 -0.200076 0.58915)
(-0.408596 -0.671923 1.03795)
(0.139285 -1.5664 0.926917)
(-1.14922 -0.377771 -1.25588)
(-0.762452 -0.216648 -1.72867)
(-0.464496 -0.531787 -1.96781)
(-0.474522 -0.692322 -2.07308)
(-0.38097 -0.675524 -2.2341)
(-0.161853 -0.52302 -2.45373)
(-0.111688 -0.528498 -2.4695)
(-0.00018424 -0.518112 -2.33759)
(-0.257769 -0.248842 -2.18747)
(-0.403464 -0.333066 -1.95079)
(-0.838588 -0.168923 -1.62033)
(-0.878628 -0.895099 -0.865207)
(-0.589787 -0.979388 -1.15552)
(-0.398354 -1.11368 -0.892927)
(0.229473 -0.200025 -0.674733)
(-0.163071 0.00872887 -0.470421)
(-0.248073 0.103657 -1.50491)
(-0.584682 -0.0188882 -1.4609)
(-0.574332 -0.296956 -1.54945)
(-0.387153 -0.538608 -1.71369)
(0.0189336 -0.432798 -1.93286)
(0.232914 -0.211057 -1.85648)
(0.165728 0.0979688 -1.74433)
(0.177254 0.121563 -1.73418)
(0.18028 0.350285 -1.52623)
(0.24372 0.263562 -1.55573)
(0.163941 0.468372 -1.77703)
(-0.473953 0.455251 -1.69554)
(-0.467188 -0.11962 -1.53195)
(-0.45778 -0.312326 -1.72439)
(0.0282046 -0.600157 -1.62828)
(0.680301 0.0439476 -1.18977)
(0.885217 0.247775 -0.686505)
(-1.29216 -0.947666 0.0298657)
(-1.86953 -0.531363 0.0996365)
(-1.3473 -1.03887 -0.0905513)
(-1.85082 -0.938179 -0.0429843)
(-1.5792 -1.20632 0.0447928)
(-1.27586 -1.22308 0.0746388)
(-2.06697 -0.647535 0.249529)
(-1.88878 -0.8962 0.237049)
(-1.6334 -1.29227 -0.0157154)
(-1.35587 -1.24411 0.055602)
(-2.22935 -0.708648 0.171099)
(-2.11647 -0.897188 0.276413)
(-2.13455 -0.894406 0.149646)
(-1.7749 -1.46977 -0.0168335)
(-1.45743 -1.51425 0.000562481)
(-2.51389 -0.631384 0.388577)
(-2.44132 -0.725533 0.360429)
(-2.30685 -1.05562 0.317062)
(-2.33353 -0.795095 0.0593111)
(-2.15478 -1.41677 -0.0458015)