# Probe 0 (0 0 0)
# Probe 1 (1 0 0)
# Probe 2 (-1 0 0)
# Probe 3 (0 1 0)
#       Probe             0             1             2             3
#        Time
   0.00119904      -326.981       115.466       113.369       114.173
   0.00195025      -40.3194        -125.2      -123.755      -124.314
   0.00280748      -133.856      -139.564      -140.038      -139.848
   0.00376731      -123.043      -125.785      -125.998      -125.907
   0.00469658      -101.965      -99.3705      -99.3113      -99.3388
   0.00562936      -105.698      -104.822      -104.853      -104.848
   0.00656566      -106.425      -105.976      -106.016      -105.999
    0.0075002      -106.559      -106.029      -106.054      -106.048
   0.00843651       -107.01      -106.722      -106.753      -106.746
   0.00937282      -106.999      -106.734      -106.761      -106.756
    0.0103091      -108.324      -108.157      -108.188      -108.179
    0.0112454      -108.044      -107.906      -107.936      -107.924
    0.0121836       -108.61      -108.572      -108.606      -108.593
    0.0131199        -108.1      -107.956      -107.985      -107.974
     0.014058       -109.25      -109.345      -109.383      -109.368
    0.0149943      -109.197      -109.296      -109.332      -109.319
     0.015927       -107.66      -107.544      -107.568       -107.56
    0.0168633      -109.142      -109.417      -109.458      -109.443
    0.0177978      -108.269      -108.374      -108.405      -108.394
    0.0187323      -108.307      -108.506       -108.54      -108.528
    0.0196686      -108.778      -109.137      -109.178      -109.162
    0.0206049      -108.407      -108.759      -108.798      -108.782
    0.0215412      -107.898      -108.252       -108.29      -108.274
    0.0224794      -108.781      -109.391      -109.441      -109.421
    0.0234157      -108.716      -109.289      -109.333      -109.317
     0.024352      -109.677      -110.417      -110.466      -110.447
    0.0252865      -109.895      -110.649      -110.694      -110.677
     0.026221      -110.109      -111.056      -111.103      -111.084
    0.0271555      -110.415      -111.447      -111.495      -111.476
    0.0280683      -106.283      -106.813      -106.834      -106.827
    0.0289248      -95.9246      -95.3187      -95.2672      -95.2881
    0.0297342      -91.8408      -91.9676      -91.9332      -91.9469
    0.0305077      -89.3348        -90.12      -90.1102      -90.1137
    0.0312529      -87.2278       -88.321      -88.3211      -88.3199
    0.0319763      -84.6968      -86.1674      -86.1774       -86.174
    0.0326822      -85.8368      -87.5565      -87.5684      -87.5667
    0.0333725      -84.9336      -86.8699      -86.8858      -86.8805
    0.0340507      -85.1724      -87.4507       -87.474      -87.4662
    0.0347192      -83.8292      -86.3608      -86.3885      -86.3763
     0.035381      -83.8759      -86.7013      -86.7341      -86.7202
    0.0360382      -84.1658      -87.2283      -87.2861        -87.27
    0.0366926      -83.8225      -87.2188      -87.2617      -87.2428
    0.0373442      -83.3824      -87.1427      -87.1829       -87.167
    0.0379949      -83.8964      -88.0082      -88.0552      -88.0344
    0.0386457      -84.0934      -88.6212      -88.6713      -88.6496
    0.0392982      -83.4646      -88.2696      -88.3268      -88.3017
    0.0399535      -82.8844        -88.13       -88.185      -88.1623
    0.0406126      -82.8246      -88.5066      -88.5613      -88.5392
    0.0412775       -82.303      -88.4761       -88.538       -88.513
    0.0419481      -81.9705      -88.6385      -88.6988      -88.6747
    0.0426257      -82.1171      -89.4151      -89.4791      -89.4532
    0.0433104      -82.6646      -90.4983      -90.5631      -90.5363
    0.0440034      -82.7487      -91.1752      -91.2435      -91.2158
    0.0447049      -83.0174      -92.1371      -92.2066      -92.1781
    0.0454163      -84.1159      -94.0773      -94.1519       -94.121
    0.0461379      -85.1715      -96.0088      -96.0862      -96.0537
    0.0468687      -85.6906      -97.4283      -97.5056      -97.4732
    0.0476128       -87.431      -100.045      -100.132      -100.097
    0.0483693      -87.9692      -101.506      -101.592      -101.557
     0.049144      -89.8364       -104.73      -104.827      -104.788
    0.0499349      -90.0128      -105.998       -106.09      -106.052
    0.0507231      -85.4396      -101.792      -101.846      -101.824
    0.0514859      -82.2117      -98.4976      -98.5134      -98.5153
    0.0522285      -80.0507      -97.0753      -97.1102       -97.102
    0.0529542      -81.2878      -98.4241      -98.4684        -98.45
    0.0536672      -81.8468      -98.8603       -98.908      -98.8873
    0.0543701      -81.1523      -97.8746      -97.9242      -97.9034
    0.0550653      -80.0292      -96.1911      -96.2429      -96.2197
     0.055753      -81.8529      -97.3394      -97.3915      -97.3709
    0.0564365      -82.5235      -97.6216      -97.6789      -97.6566
    0.0571178      -83.6217      -98.0082      -98.0685      -98.0458
    0.0578002      -85.1362      -98.9291      -98.9972      -98.9717
    0.0584847       -86.454      -99.4068      -99.4736       -99.449
    0.0591735      -87.9097      -100.712      -100.788       -100.76
    0.0598656      -88.3827      -100.642      -100.712      -100.686
    0.0605609      -90.6135      -102.265      -102.332      -102.307
    0.0612595      -91.6787      -102.445      -102.511      -102.487
    0.0619626      -92.2048      -102.536      -102.605       -102.58
    0.0626703      -92.2098      -102.342      -102.415      -102.388
    0.0633837      -92.8493      -102.203      -102.275      -102.249
     0.064103      -93.3713      -102.783       -102.86      -102.834
    0.0648307      -94.2867      -103.402      -103.476      -103.451
    0.0655646       -95.955      -104.538      -104.613      -104.587
    0.0663059        -96.66      -105.634      -105.717      -105.688
    0.0670511      -96.9814      -105.311      -105.381      -105.356
    0.0678014      -98.6176      -106.547      -106.622      -106.596
     0.068557      -99.9501      -107.833      -107.909      -107.884
    0.0693113       -99.818      -107.257      -107.322        -107.3
    0.0700656       -99.811      -106.753      -106.817      -106.796
    0.0708212      -101.227      -108.018      -108.091      -108.066
    0.0715808      -102.314      -109.253      -109.333      -109.305
    0.0723472      -102.586      -109.273      -109.349      -109.322
    0.0731108      -101.247      -107.501      -107.563      -107.542
    0.0738691      -99.3049      -105.309      -105.366      -105.348
    0.0746273      -101.317      -107.859      -107.937      -107.912
    0.0753775      -99.3485      -104.639       -104.69      -104.677
    0.0761264      -100.922      -106.519      -106.589      -106.568
     0.076874      -100.205      -106.334      -106.408      -106.385
    0.0776124        -98.18      -102.844      -102.893      -102.879
     0.078347      -98.8399      -104.023      -104.088      -104.068
    0.0790753      -97.8277      -101.851      -101.902      -101.887
    0.0798086      -100.361      -104.972      -105.056      -105.027
     0.080551       -101.89      -106.589      -106.675      -106.646
    0.0812947      -100.397      -104.646       -104.71      -104.689
    0.0820424      -101.272      -106.153      -106.232      -106.204
    0.0827927      -101.986      -106.094      -106.164      -106.141
    0.0835486      -102.247      -106.941      -107.018      -106.993
     0.084303       -100.51      -105.637      -105.698      -105.679
    0.0850547      -100.278      -105.507      -105.576      -105.554
    0.0857983      -98.8751      -103.421      -103.474      -103.458
    0.0865354      -97.8186      -102.524      -102.575      -102.561
    0.0872711      -99.5632      -104.215      -104.283      -104.261
    0.0880081      -99.1649       -104.61      -104.681      -104.657
    0.0887451      -98.3922      -104.221      -104.291      -104.269
    0.0894808       -98.613      -104.102      -104.158      -104.141
    0.0902218      -100.542      -106.601      -106.679      -106.657
    0.0909588       -97.928      -104.139      -104.203      -104.185
    0.0916945      -97.8148      -104.327      -104.384      -104.367
    0.0924223      -95.9713      -102.003      -102.054      -102.042
    0.0931411      -95.4619      -101.156      -101.201      -101.191
    0.0938574      -96.5079       -102.09      -102.155      -102.136
    0.0945763       -96.811      -103.513      -103.587      -103.563
    0.0952913      -95.9811      -101.733      -101.786      -101.771
    0.0960026      -94.9832      -101.251      -101.306      -101.291
    0.0967151      -96.5477      -102.415      -102.485      -102.464
    0.0974264      -97.0426      -102.346      -102.407      -102.392
    0.0981389      -97.7544      -103.194      -103.259       -103.24
    0.0988402      -95.1633       -99.712      -99.7494      -99.7413
    0.0995283      -93.5327      -98.0584      -98.0836      -98.0835
     0.100209      -94.1093      -98.7044      -98.7519      -98.7402
     0.100887      -94.3594      -99.2293      -99.2885      -99.2721
     0.101558      -92.9028      -97.4633      -97.5047      -97.4948
     0.102224      -92.1403      -96.5881      -96.6423      -96.6289
     0.102887      -92.0398      -96.5084      -96.5565      -96.5479
      0.10355      -92.7204      -97.1349      -97.1883       -97.174
     0.104211      -92.4329      -95.9941      -96.0451      -96.0349
     0.104878      -93.4956      -98.4918      -98.5616       -98.543
     0.105547      -93.2152      -96.8881      -96.9477      -96.9318
     0.106227      -95.9169      -100.618      -100.703      -100.681
     0.106909       -93.844      -98.4316      -98.4928      -98.4779
     0.107592       -94.208       -98.004      -98.0592       -98.047
      0.10828      -96.3476      -100.673      -100.749      -100.727
     0.108969      -94.8103      -98.5423      -98.5927      -98.5842
     0.109659      -95.4024      -99.4693      -99.5428      -99.5246
     0.110349      -94.1564      -98.2155      -98.2663      -98.2546
     0.111036      -94.2172      -98.0908      -98.1486      -98.1346
     0.111728      -95.3461      -100.332      -100.411      -100.394
     0.112421      -95.4642      -98.7809      -98.8363      -98.8256
     0.113121      -96.8491      -101.909      -101.991      -101.967
     0.113817       -93.734      -98.0684      -98.1151      -98.1077
     0.114509      -94.4728      -98.7294      -98.7948      -98.7776
     0.115203        -95.87      -100.182      -100.235      -100.231
     0.115898      -95.8248      -100.638      -100.718      -100.695
     0.116594      -95.1535      -99.8522      -99.9174      -99.8987
     0.117283      -93.7077      -96.7894      -96.8284      -96.8248
     0.117972      -95.0072      -99.0136      -99.0801       -99.065
     0.118664      -95.0754      -99.3408      -99.4104        -99.39
     0.119363      -96.6149      -100.653      -100.727      -100.708
     0.120072      -97.4919      -102.583      -102.663      -102.638
     0.120779      -94.8866      -98.8072      -98.8636       -98.857
     0.121491      -96.6886      -101.124      -101.199      -101.179
     0.122197      -94.2601      -98.2884      -98.3407      -98.3318
       0.1229      -94.6438      -99.2891      -99.3496       -99.336
     0.123601       -94.375      -98.2899      -98.3473      -98.3336
     0.124306      -95.4561      -100.842      -100.926      -100.904
     0.125008      -93.2611      -97.6626      -97.7139       -97.706
     0.125713      -96.2843      -100.573      -100.659      -100.637
     0.126415      -93.5655      -97.9344      -97.9926      -97.9827
     0.127105      -91.4713       -95.003      -95.0373      -95.0366
     0.127789      -92.5212      -96.3231      -96.3741      -96.3694
     0.128474      -93.7827      -98.1741      -98.2524       -98.233
     0.129154      -91.2032       -94.858      -94.9036      -94.9023
     0.129829      -91.1495      -95.9673      -96.0274       -96.017
     0.130498      -90.5301      -93.9203      -93.9721      -93.9664
     0.131165      -91.8654      -94.3483      -94.3994      -94.3899
      0.13184      -93.5183      -97.5043      -97.5871      -97.5683
     0.132521       -93.326      -97.7675      -97.8527      -97.8322
     0.133202      -92.1077      -95.3849      -95.4407      -95.4341
      0.13388      -91.4042      -95.6055      -95.6626      -95.6529
     0.134551      -90.8858      -93.7935      -93.8412      -93.8353
     0.135226      -93.6559      -97.4707      -97.5539      -97.5315
      0.13591      -94.2993      -99.1493      -99.2417      -99.2216
     0.136597      -93.7774      -98.0505       -98.121      -98.1129
     0.137287      -93.9586      -97.5949      -97.6564      -97.6474
     0.137978      -94.1199      -97.5341       -97.598      -97.5867
     0.138677      -95.1312      -100.098      -100.191      -100.161
     0.139376      -93.9256      -98.4031      -98.4668      -98.4546
     0.140069      -92.8925      -96.7909      -96.8428      -96.8383
     0.140761      -93.0675       -97.711       -97.778      -97.7604
     0.141447      -90.7889      -95.6582      -95.7193      -95.7071
     0.142128      -91.6976      -96.3597      -96.4177       -96.407
     0.142799      -89.2757      -93.0828      -93.1257      -93.1234
     0.143458      -88.5903      -92.1091      -92.1527        -92.15
     0.144118      -91.0226      -95.3302      -95.4098      -95.3933
     0.144776      -89.5209      -93.5517      -93.6035      -93.5997
     0.145432      -90.2304      -93.7214      -93.7923      -93.7772
     0.146088        -90.06      -93.6136      -93.6699      -93.6624
     0.146744      -90.4002      -94.0196      -94.0776      -94.0602
       0.1474      -89.9369      -93.4447      -93.4999      -93.4919
     0.148058      -91.5844      -94.7078      -94.7689      -94.7521
     0.148723      -92.5634      -96.6294       -96.704      -96.6885
     0.149395       -92.661      -96.9507      -97.0203      -97.0031
     0.150061      -89.8011      -93.4092      -93.4311      -93.4358
     0.150725      -90.3368      -94.5842      -94.6352      -94.6257
     0.151388      -90.9451      -94.6017      -94.6456      -94.6387
     0.152051       -91.668      -94.6847      -94.7364      -94.7273
     0.152717      -92.4128      -96.1718      -96.2308      -96.2198
     0.153388      -92.9343      -96.3659      -96.4184      -96.4112
     0.154063      -93.5535      -97.1432      -97.2022      -97.1917
     0.154742        -92.33      -96.9345      -96.9857      -96.9767
     0.155417      -91.9018      -95.7517      -95.8019      -95.7948
     0.156096       -94.656      -97.5259      -97.5783      -97.5693
     0.156778      -94.0786      -98.3164      -98.3834      -98.3676
     0.157463      -94.1507       -98.048      -98.1118      -98.0992
     0.158149      -94.2632      -98.2522      -98.3011      -98.2939
     0.158833      -93.3233      -96.8349      -96.8801      -96.8767
     0.159514      -92.4492      -96.7328      -96.7747       -96.767
     0.160187      -91.3877      -95.0533      -95.1007      -95.0939
     0.160856      -91.7529      -95.6208      -95.6578      -95.6563
      0.16152      -91.7604      -94.7545      -94.8032      -94.7943
     0.162179      -91.7777      -94.5963      -94.6377      -94.6323
     0.162848      -94.0522      -98.6807      -98.7536      -98.7412
     0.163515      -91.9452      -95.3811      -95.4177      -95.4205
     0.164181      -93.3578      -96.5499      -96.5952      -96.6031
      0.16485        -93.93      -97.2344      -97.2868      -97.2984
     0.165524      -95.1939       -98.485      -98.5398      -98.5551
     0.166208      -96.5016      -100.347      -100.425      -100.424
     0.166894      -95.8425      -98.9364      -98.9932      -98.9928
     0.167586      -97.5573      -101.228      -101.312        -101.3
      0.16828      -95.8893      -100.008      -100.071      -100.074
     0.168971      -95.6376      -98.9738      -99.0316        -99.03
     0.169664      -96.5908       -100.52      -100.583      -100.586
     0.170353      -94.9933      -98.6896      -98.7495      -98.7545
     0.171037      -93.9385      -97.9072      -97.9525       -97.963
     0.171717      -94.3079      -97.7877      -97.8482      -97.8513
     0.172397      -95.0816      -98.6234      -98.6877       -98.694
     0.173074      -94.4242       -97.611       -97.661      -97.6759
     0.173749      -94.0204      -97.8568      -97.9162      -97.9325
     0.174422       -93.289      -97.4745      -97.5336      -97.5484
     0.175096      -94.3164       -98.748      -98.8154      -98.8258
     0.175763       -92.004      -96.0106      -96.0578      -96.0755
     0.176425      -93.6627      -95.8595      -95.9023      -95.9221
     0.177095      -95.5831      -100.031      -100.115      -100.115
      0.17776      -92.8312      -96.0426      -96.0932      -96.1108
     0.178423      -93.9389      -96.4391      -96.4915      -96.5082
     0.179095      -96.9089      -100.331      -100.411      -100.416
     0.179769      -95.8959      -99.0551      -99.1211       -99.134
     0.180445      -95.8506      -98.7113      -98.7723      -98.7869
     0.181123      -96.3597       -99.487      -99.5553      -99.5696
       0.1818      -95.1479      -98.6172      -98.6802      -98.6987
      0.18248      -96.8467      -100.111      -100.181      -100.194
     0.183161      -96.5103      -99.9002      -99.9675      -99.9819
     0.183841      -95.7415      -98.9103        -98.97       -98.987
     0.184524      -97.1132      -100.252      -100.319      -100.333
     0.185208      -96.6891      -99.9146      -99.9819      -99.9946
     0.185896       -97.229      -100.882      -100.953      -100.965
     0.186586      -97.2842      -101.294      -101.368      -101.379
     0.187279       -97.413      -101.688      -101.766      -101.773
     0.187968      -96.3406        -99.34      -99.3957      -99.4131
     0.188653      -95.7541      -98.2403       -98.296      -98.3152
     0.189335      -94.8371       -98.649      -98.7193      -98.7319
     0.190014      -94.2041      -97.7753      -97.8366       -97.851
     0.190683      -91.6894      -95.7846      -95.8386       -95.856
      0.19134      -90.2828      -93.3459       -93.387      -93.4095
      0.19199       -90.906      -94.1453      -94.2018      -94.2172
     0.192631      -89.9219      -92.8004      -92.8538       -92.871
     0.193266      -90.0482      -92.3081      -92.3613      -92.3778
     0.193899      -89.6901       -93.107      -93.1715       -93.182
     0.194525      -89.0948      -91.2573      -91.3061      -91.3245
     0.195153      -91.7539      -93.9873      -94.0569       -94.066
     0.195791      -93.5152      -96.6832      -96.7742      -96.7737
     0.196433      -92.3154      -95.4705       -95.544      -95.5507
     0.197075      -91.4022      -94.5325      -94.6031      -94.6105
     0.197719      -92.3373      -95.6266      -95.7022      -95.7078
      0.19836      -90.8887      -93.3859      -93.4411      -93.4519
     0.199003      -93.2597      -95.4489      -95.5258      -95.5288
     0.199656      -94.5892      -98.1466      -98.2437      -98.2366
     0.200309      -91.9411      -95.5094      -95.5811      -95.5895
      0.20096      -92.7721      -95.4597      -95.5274      -95.5338
     0.201617      -94.4613      -98.1913      -98.2836       -98.282
     0.202282      -95.4587      -99.2074      -99.3023      -99.2951
     0.202947      -94.1314      -97.7564      -97.8391      -97.8395
     0.203613      -95.5391      -98.5855      -98.6718      -98.6722
     0.204285      -96.4814      -100.023       -100.12      -100.115
     0.204958      -95.4303      -98.8266      -98.9148      -98.9151
     0.205627      -94.0681      -97.0869      -97.1599      -97.1646
     0.206293      -93.3328      -97.1262      -97.2128      -97.2088
     0.206953      -92.8091      -95.9821      -96.0611      -96.0655
     0.207605       -91.214      -94.1349      -94.2017      -94.2086
      0.20825       -91.107      -94.3265      -94.4076      -94.4127
     0.208888      -89.8567      -93.0589      -93.1361      -93.1348
     0.209523      -90.0423      -93.0118      -93.0974      -93.0972
     0.210157      -91.5811      -94.3321      -94.4223       -94.417
     0.210794       -91.698      -95.2811      -95.3834      -95.3802
     0.211428      -90.8837      -93.3976      -93.4727      -93.4781
     0.212064      -91.6078      -95.0702      -95.1698      -95.1624
     0.212699      -91.3626      -94.6878      -94.7812      -94.7798
     0.213335      -91.7976      -94.3703      -94.4587      -94.4606
     0.213971      -91.1155      -94.3378       -94.431      -94.4304
     0.214602      -90.0868       -92.717      -92.8009      -92.8005
     0.215236      -92.0712      -95.1099      -95.2138      -95.2109
      0.21587      -91.8274      -94.4227      -94.5218      -94.5192
     0.216509      -92.5696      -95.7379      -95.8445      -95.8348
     0.217149      -92.2753      -95.1032      -95.2034      -95.1986
     0.217796      -94.4416      -97.5906      -97.7058      -97.6931
     0.218448      -93.2326       -96.461      -96.5651      -96.5587
       0.2191      -91.8027      -95.4217      -95.5227      -95.5169
     0.219747      -91.9427      -94.1087      -94.1922      -94.1921
     0.220397       -93.311      -96.5516      -96.6615      -96.6557
     0.221049      -93.2551       -96.203       -96.304      -96.3066
     0.221705       -94.674      -97.1187      -97.2231       -97.221
     0.222369      -95.5694       -98.691      -98.8062      -98.7957
     0.223038      -94.5334      -98.3299      -98.4433      -98.4325
     0.223709      -95.3638      -97.5931      -97.6917      -97.6908
     0.224386      -96.4831      -99.5539       -99.671      -99.6628
     0.225065      -96.1829      -98.6673      -98.7705      -98.7695
     0.225747      -95.9946      -99.7214      -99.8372      -99.8285
     0.226426      -94.1242      -97.6378      -97.7342      -97.7356
     0.227093      -91.2566      -94.6579      -94.7347      -94.7439
     0.227749        -90.64      -93.6807      -93.7599       -93.768
     0.228396      -89.8429       -93.153      -93.2358      -93.2429
     0.229035      -89.3381       -92.855      -92.9375      -92.9453
     0.229667      -88.7903      -91.9456      -92.0247       -92.042
     0.230295       -90.278      -92.8051      -92.8922      -92.9036
     0.230926      -90.9658      -93.7283      -93.8275      -93.8321
     0.231554      -89.5099      -92.7547      -92.8467      -92.8546
     0.232181      -90.0817      -92.5721      -92.6598      -92.6691
     0.232807      -89.4962      -92.4053      -92.4842      -92.4948
     0.233431      -89.2681      -92.5629      -92.6551      -92.6599
     0.234056      -91.0273      -93.4428      -93.5349       -93.541
     0.234684      -91.7326      -94.7853      -94.8725      -94.8879
     0.235315       -91.877      -94.1795      -94.2553      -94.2774
     0.235954      -94.0852       -96.943      -97.0396      -97.0495
     0.236601      -93.9096      -97.2638      -97.3671      -97.3741
     0.237252      -92.9765      -96.4241      -96.5114      -96.5298
     0.237907      -94.2684      -97.5024      -97.5916      -97.6084
     0.238567      -94.8405      -98.2421      -98.3335      -98.3494
      0.23923      -95.1819       -98.309      -98.3989      -98.4191
     0.239901      -96.3652      -99.8833      -99.9843          -100
     0.240575       -96.336       -99.155      -99.2429      -99.2632
      0.24125      -95.1665       -98.932      -99.0268      -99.0449
     0.241924      -94.6667      -97.9183      -98.0154      -98.0242
       0.2426      -95.8887       -99.157      -99.2488      -99.2696
      0.24327      -94.1684      -96.8539      -96.9302      -96.9559
     0.243942      -95.4744      -98.7967      -98.8894      -98.9083
     0.244618      -95.7773      -99.6231      -99.7336      -99.7382
     0.245292       -95.016         -97.7      -97.7807      -97.8042
     0.245967      -94.8658       -98.854       -98.952      -98.9698
     0.246639      -94.1791      -97.0506      -97.1296      -97.1551
     0.247309      -94.6674      -97.5005      -97.5868      -97.6086
     0.247983      -95.6036      -99.3277      -99.4308      -99.4478
     0.248663      -96.0712      -99.9444      -100.061      -100.067
      0.24934      -95.3585       -98.225      -98.3063      -98.3326
     0.250021      -97.1927      -99.7169      -99.8085      -99.8302
     0.250714      -99.0715      -102.681      -102.799      -102.808
     0.251408      -97.6027      -100.268      -100.357      -100.378
     0.252106      -98.0939      -101.812      -101.915       -101.93
     0.252807      -97.7355      -101.765      -101.866      -101.883
     0.253507      -97.5852      -101.379      -101.475      -101.492
     0.254201      -95.5049      -99.4728      -99.5562      -99.5794
     0.254888      -94.6692      -98.0744      -98.1483       -98.174
     0.255576      -96.8641      -100.507      -100.605       -100.62
     0.256263      -95.6183      -99.4683      -99.5573      -99.5767
     0.256951      -96.9779       -100.59      -100.686      -100.703
     0.257642      -97.2479      -100.736      -100.829      -100.846
      0.25833      -95.8963      -99.4801      -99.5693      -99.5879
     0.259013      -94.4951      -97.8783      -97.9484      -97.9774
     0.259688      -93.6572      -96.9435      -97.0172      -97.0441
     0.260363      -95.6937      -98.8789      -98.9696      -98.9898
     0.261036      -95.2649      -98.0239      -98.1089      -98.1316
     0.261713      -95.9955      -99.9217      -100.021      -100.038
     0.262388      -95.0065      -98.2406      -98.3211      -98.3479
     0.263061      -94.7069      -98.1993      -98.2787      -98.3054
     0.263736      -95.3443      -99.5995      -99.6988      -99.7168
     0.264408      -94.6992      -97.5533      -97.6296      -97.6594
     0.265077      -95.0734      -98.4257      -98.5186      -98.5443
      0.26575      -96.6314      -100.111      -100.214      -100.236
     0.266427      -95.5634      -100.218      -100.319      -100.342
     0.267098      -93.4016      -96.8618      -96.9385      -96.9739
     0.267766       -94.403      -97.5124      -97.5964      -97.6276
     0.268433       -95.131      -98.4835      -98.5766      -98.6003
       0.2691      -94.7286      -98.5032      -98.5976      -98.6171
      0.26977      -95.6586      -98.7777      -98.8647      -98.8902
     0.270441      -95.1646      -99.2379      -99.3287      -99.3514
     0.271108        -93.51      -97.4165      -97.4896      -97.5174
     0.271772      -94.0912         -96.8        -96.87      -96.9018
     0.272439      -95.1381      -99.1078      -99.2026      -99.2318
     0.273104      -93.7216      -97.3935      -97.4685      -97.5016
     0.273766      -93.7941      -96.6298      -96.7036      -96.7298
     0.274423      -93.1199      -96.3187      -96.3963      -96.4282
     0.275085      -94.6421      -98.7566      -98.8571      -98.8805
     0.275745      -93.6085      -96.9272      -97.0052      -97.0426
      0.27641      -95.1533      -99.4036      -99.5037      -99.5242
     0.277077      -94.9763       -98.603      -98.6927      -98.7236
     0.277747      -93.9513      -98.2894      -98.3787      -98.4073
     0.278412      -93.2721      -96.2782      -96.3473      -96.3813
     0.279074      -93.0041      -96.5625      -96.6388      -96.6743
     0.279735      -93.5329      -97.5758      -97.6663      -97.7011
     0.280395      -93.3465      -96.8245      -96.9052      -96.9412
      0.28105      -92.0496      -96.0176      -96.1033      -96.1276
     0.281702      -92.4744      -95.5225      -95.5952      -95.6344
     0.282357      -94.2769      -98.4468      -98.5445      -98.5738
     0.283015       -94.297      -97.9882      -98.0781      -98.1097
     0.283669      -92.4236       -95.329      -95.4084      -95.4394
      0.28432      -91.6599      -95.7091      -95.7941      -95.8294
     0.284966      -91.1412      -94.7401        -94.81      -94.8551
     0.285612      -93.1101      -96.1648      -96.2497      -96.2826
     0.286261      -94.7009      -97.5981      -97.6868      -97.7254
     0.286921      -94.9478      -99.8916      -99.9997      -100.028
     0.287581      -93.1912      -96.5975      -96.6746      -96.7158
      0.28824      -93.9418      -96.9441      -97.0224      -97.0673
     0.288906      -95.5751      -99.4024      -99.5089      -99.5334
     0.289572      -93.6499      -97.0976      -97.1773      -97.2148
      0.29024      -94.2476      -98.0578      -98.1412      -98.1911
      0.29091      -94.6673      -98.3604      -98.4437      -98.4899
     0.291587      -95.8155      -99.8377      -99.9306      -99.9795
     0.292261      -94.0713      -97.6951      -97.7748      -97.8234
     0.292938      -95.3908      -99.0891      -99.2043      -99.2252
     0.293619      -95.5207      -99.7334      -99.8461      -99.8722
     0.294303      -95.3173      -99.2809       -99.381      -99.4156
     0.294984      -94.6127      -98.2907      -98.3788      -98.4206
     0.295665      -94.8711       -98.964      -99.0774      -99.0927
     0.296346      -95.3994      -98.8756      -98.9813      -99.0014
     0.297032      -96.1235       -100.54      -100.673      -100.674
     0.297715      -94.4654      -98.2323      -98.3424      -98.3559
     0.298401      -95.2784      -99.6152      -99.7425      -99.7529