# Probe 0 (0 0 0)
# Probe 1 (1 0 0)
# Probe 2 (-1 0 0)
# Probe 3 (0 1 0)
#       Probe             0             1             2             3
#        Time
   0.00119904             (-0.270831 0.0423835 0.0240437)             (-0.332193 0.00274424 -0.0106442)             (0.331756 -0.0235854 -0.010713)             (-0.0243703 -0.331687 -0.0106812)
   0.00195025             (-0.135004 0.0178544 -0.0104833)             (-0.359053 0.0130823 -0.0169927)             (0.357747 -0.0357159 -0.0169937)             (-0.0361326 -0.357693 -0.0169863)
   0.00280748             (-0.130347 0.0148624 -0.0239357)             (-0.386281 0.025183 -0.020638)             (0.384117 -0.0495961 -0.02063)             (-0.0500961 -0.384054 -0.0206236)
   0.00376731             (-0.147304 0.0164397 -0.0278776)             (-0.409197 0.0389574 -0.0223699)             (0.406114 -0.0648732 -0.0223637)             (-0.0654763 -0.406042 -0.0223541)
   0.00469658             (-0.138166 0.017144 -0.0282735)             (-0.426018 0.0522907 -0.0230084)             (0.422058 -0.0793443 -0.0229968)             (-0.0799492 -0.421987 -0.0229862)
   0.00562936             (-0.128635 0.0195814 -0.0266534)             (-0.439339 0.0656038 -0.0231898)             (0.434564 -0.0935597 -0.0231747)             (-0.0941615 -0.434495 -0.0231644)
   0.00656566             (-0.120213 0.0197323 -0.024403)             (-0.450328 0.0788276 -0.023169)             (0.444765 -0.107544 -0.0231508)             (-0.108143 -0.444699 -0.0231411)
    0.0075002             (-0.111832 0.0207645 -0.0220208)             (-0.459683 0.0918661 -0.0230584)             (0.453352 -0.121236 -0.02304)             (-0.121803 -0.453251 -0.0230291)
   0.00843651             (-0.102839 0.0227792 -0.0201284)             (-0.467899 0.104759 -0.0229014)             (0.460813 -0.13471 -0.0228862)             (-0.135234 -0.460667 -0.0228715)
   0.00937282             (-0.0925805 0.0247886 -0.0191881)             (-0.475252 0.117477 -0.02272)             (0.467383 -0.147914 -0.0227101)             (-0.148425 -0.467231 -0.0226933)
    0.0103091             (-0.0822399 0.0254591 -0.0188744)             (-0.481996 0.129969 -0.0225268)             (0.473283 -0.160885 -0.0225227)             (-0.161393 -0.473131 -0.0225046)
    0.0112454             (-0.0698175 0.0249841 -0.0197567)             (-0.488219 0.14226 -0.0223255)             (0.478645 -0.173641 -0.0223272)             (-0.174149 -0.4785 -0.0223087)
    0.0121836             (-0.0555043 0.0245712 -0.0228027)             (-0.494005 0.154383 -0.0221176)             (0.483573 -0.186212 -0.022126)             (-0.18672 -0.483435 -0.0221068)
    0.0131199             (-0.0382416 0.0238488 -0.0275546)             (-0.499402 0.166296 -0.0219078)             (0.488156 -0.198609 -0.0219262)             (-0.199064 -0.487987 -0.0219024)
     0.014058             (-0.0191634 0.0232804 -0.0339142)             (-0.504474 0.178051 -0.0216937)             (0.492432 -0.210849 -0.0217243)             (-0.21129 -0.492258 -0.0216991)
    0.0149943             (0.0034445 0.0226986 -0.0420182)             (-0.509247 0.189594 -0.0214791)             (0.496419 -0.222874 -0.0215216)             (-0.223319 -0.496247 -0.0214957)
     0.015927             (0.0310266 0.0215864 -0.0527303)             (-0.51375 0.200909 -0.0212658)             (0.500145 -0.234667 -0.0213195)             (-0.235119 -0.499974 -0.0212919)
    0.0168633             (0.0611194 0.0206889 -0.0656378)             (-0.518034 0.212089 -0.021049)             (0.503653 -0.246321 -0.0211138)             (-0.246786 -0.503486 -0.0210854)
    0.0177978             (0.0959729 0.0195155 -0.0809813)             (-0.522099 0.22307 -0.0208324)             (0.506951 -0.257769 -0.0209038)             (-0.25825 -0.506784 -0.0208799)
    0.0187323             (0.135407 0.0179462 -0.0990963)             (-0.525972 0.233877 -0.020615)             (0.510062 -0.269044 -0.0206904)             (-0.269535 -0.509894 -0.0206746)
    0.0196686             (0.179437 0.0163532 -0.120881)             (-0.529673 0.244531 -0.0203953)             (0.513003 -0.280168 -0.0204748)             (-0.280668 -0.512837 -0.0204637)
    0.0206049             (0.229696 0.0140736 -0.146974)             (-0.533208 0.255016 -0.0201753)             (0.515778 -0.291125 -0.0202629)             (-0.291627 -0.51562 -0.0202516)
    0.0215412             (0.286588 0.0115295 -0.177733)             (-0.536593 0.265336 -0.0199561)             (0.518401 -0.301916 -0.0200523)             (-0.302422 -0.518254 -0.0200379)
    0.0224794             (0.349972 0.00799377 -0.212816)             (-0.53984 0.275515 -0.019735)             (0.520887 -0.312565 -0.0198413)             (-0.313078 -0.52075 -0.0198222)
    0.0234157             (0.42205 0.00283602 -0.253426)             (-0.542947 0.285515 -0.0195142)             (0.523238 -0.323036 -0.0196318)             (-0.323553 -0.523107 -0.0196115)
     0.024352             (0.503985 -0.00257715 -0.299516)             (-0.545939 0.295357 -0.0193052)             (0.52548 -0.333339 -0.0194371)             (-0.333865 -0.525354 -0.0194191)
    0.0252865             (0.597547 -0.00926448 -0.35126)             (-0.548807 0.305026 -0.0190921)             (0.527601 -0.343473 -0.0192376)             (-0.344006 -0.527477 -0.0192199)
     0.026221             (0.703136 -0.0179041 -0.410643)             (-0.551576 0.314543 -0.0188869)             (0.529624 -0.353458 -0.0190463)             (-0.354 -0.529503 -0.0190278)
    0.0271555             (0.821875 -0.0260427 -0.47802)             (-0.55425 0.323913 -0.0186907)             (0.531554 -0.363293 -0.018864)             (-0.363846 -0.531434 -0.0188446)
    0.0280683             (0.953609 -0.0374329 -0.552279)             (-0.556861 0.332943 -0.0186125)             (0.533409 -0.372695 -0.0186527)             (-0.373286 -0.533311 -0.0186388)
    0.0289248             (1.09674 -0.0488219 -0.628507)             (-0.559261 0.341277 -0.018448)             (0.535116 -0.381443 -0.0184393)             (-0.382024 -0.53503 -0.0184307)
    0.0297342             (1.24268 -0.0589866 -0.703468)             (-0.561498 0.349041 -0.0182692)             (0.536705 -0.389619 -0.0182382)             (-0.390183 -0.536628 -0.0182349)
    0.0305077             (1.38574 -0.0700641 -0.776037)             (-0.563609 0.356366 -0.0180933)             (0.538206 -0.397343 -0.0180497)             (-0.397896 -0.538135 -0.0180515)
    0.0312529             (1.52742 -0.082202 -0.844734)             (-0.565622 0.363337 -0.0179242)             (0.53963 -0.404703 -0.0178737)             (-0.405249 -0.539565 -0.0178802)
    0.0319763             (1.66853 -0.0942007 -0.908893)             (-0.567549 0.370026 -0.0177625)             (0.540987 -0.411769 -0.0177083)             (-0.412314 -0.540929 -0.0177192)
    0.0326822             (1.80951 -0.106419 -0.968355)             (-0.569402 0.376481 -0.0176077)             (0.542286 -0.418591 -0.0175522)             (-0.419136 -0.542233 -0.0175676)
    0.0333725             (1.95107 -0.119367 -1.02178)             (-0.571187 0.382723 -0.0174597)             (0.543529 -0.425193 -0.0174048)             (-0.425741 -0.543482 -0.0174245)
    0.0340507             (2.09286 -0.131598 -1.06841)             (-0.572911 0.38879 -0.0173173)             (0.544723 -0.431615 -0.0172647)             (-0.432167 -0.544682 -0.0172883)
    0.0347192             (2.23475 -0.144989 -1.10857)             (-0.574581 0.394706 -0.0171797)             (0.545871 -0.437882 -0.017131)             (-0.43844 -0.545835 -0.0171583)
     0.035381             (2.37638 -0.158663 -1.14186)             (-0.576205 0.400503 -0.017046)             (0.546979 -0.444027 -0.0170028)             (-0.444593 -0.546947 -0.0170334)
    0.0360382             (2.51724 -0.173532 -1.16888)             (-0.577973 0.40618 -0.0168365)             (0.547062 -0.45208 -0.0169828)             (-0.452662 -0.547033 -0.0170167)
    0.0366926             (2.65725 -0.189261 -1.18939)             (-0.578728 0.413898 -0.0167985)             (0.546756 -0.46081 -0.0170205)             (-0.461412 -0.54673 -0.0170573)
    0.0373442             (2.79718 -0.204349 -1.20211)             (-0.579146 0.422261 -0.0168162)             (0.54632 -0.469732 -0.0170837)             (-0.470355 -0.546295 -0.0171198)
    0.0379949             (2.93594 -0.219718 -1.20835)             (-0.579448 0.430827 -0.0168516)             (0.545824 -0.478711 -0.0171423)             (-0.479357 -0.545806 -0.017187)
    0.0386457             (3.07389 -0.235551 -1.20811)             (-0.579709 0.439445 -0.0168938)             (0.545299 -0.487705 -0.017198)             (-0.488376 -0.545286 -0.0172485)
    0.0392982             (3.20916 -0.252412 -1.20112)             (-0.579953 0.4481 -0.0169431)             (0.544751 -0.496727 -0.0172518)             (-0.497424 -0.544743 -0.0173065)
    0.0399535             (3.34203 -0.268567 -1.18663)             (-0.580183 0.456792 -0.0169819)             (0.544182 -0.505785 -0.0173042)             (-0.506506 -0.544177 -0.0173637)
    0.0406126             (3.47302 -0.284697 -1.16516)             (-0.580403 0.465523 -0.0170154)             (0.543591 -0.514886 -0.0173546)             (-0.515631 -0.543589 -0.0174193)
    0.0412775             (3.60121 -0.303188 -1.13715)             (-0.580613 0.474316 -0.0170444)             (0.542975 -0.524057 -0.0174017)             (-0.524827 -0.542974 -0.017471)
    0.0419481             (3.72658 -0.320732 -1.10205)             (-0.580813 0.48317 -0.0170694)             (0.542332 -0.533297 -0.0174451)             (-0.534093 -0.542333 -0.0175188)
    0.0426257             (3.84906 -0.336879 -1.05965)             (-0.581003 0.492101 -0.0170903)             (0.54166 -0.542622 -0.0174842)             (-0.543445 -0.541662 -0.0175621)
    0.0433104             (3.96861 -0.353269 -1.01081)             (-0.581182 0.501107 -0.0171072)             (0.540957 -0.552033 -0.017519)             (-0.552883 -0.54096 -0.0176007)
    0.0440034             (4.08282 -0.370535 -0.956543)             (-0.581349 0.510206 -0.017119)             (0.540221 -0.561546 -0.017549)             (-0.562424 -0.540225 -0.0176344)
    0.0447049             (4.19232 -0.386099 -0.896957)             (-0.581503 0.519397 -0.0171259)             (0.539447 -0.571164 -0.0175754)             (-0.572071 -0.539452 -0.017664)
    0.0454163             (4.29649 -0.399336 -0.833514)             (-0.581641 0.528698 -0.01713)             (0.538633 -0.580904 -0.0176001)             (-0.58184 -0.538638 -0.0176918)
    0.0461379             (4.39502 -0.412377 -0.766391)             (-0.581762 0.538113 -0.0171326)             (0.537778 -0.590767 -0.0176236)             (-0.591733 -0.537783 -0.0177186)
    0.0468687             (4.48951 -0.429408 -0.695141)             (-0.581865 0.547633 -0.0171347)             (0.536888 -0.600732 -0.0176471)             (-0.601728 -0.536895 -0.0177457)
    0.0476128             (4.5773 -0.449578 -0.620693)             (-0.581943 0.557314 -0.0171355)             (0.535962 -0.610847 -0.0176703)             (-0.611875 -0.535971 -0.017773)
    0.0483693             (4.65755 -0.468379 -0.542803)             (-0.581996 0.567147 -0.0171359)             (0.535007 -0.621097 -0.0176974)             (-0.622157 -0.535018 -0.0178048)
     0.049144             (4.72969 -0.483409 -0.463811)             (-0.582017 0.577205 -0.0171368)             (0.534008 -0.631558 -0.0177269)             (-0.632648 -0.534025 -0.0178395)
    0.0499349             (4.7961 -0.498228 -0.382743)             (-0.582006 0.58746 -0.0171387)             (0.532967 -0.6422 -0.0177576)             (-0.643323 -0.532987 -0.0178762)
    0.0507231             (4.85963 -0.508702 -0.302427)             (-0.581984 0.597665 -0.0171489)             (0.531919 -0.652766 -0.0177908)             (-0.653912 -0.531943 -0.0179168)
    0.0514859             (4.91953 -0.515954 -0.227201)             (-0.58196 0.607532 -0.0171658)             (0.530908 -0.66295 -0.0178267)             (-0.664108 -0.530938 -0.0179612)
    0.0522285             (4.96862 -0.52407 -0.155689)             (-0.581933 0.617122 -0.0171829)             (0.52993 -0.672828 -0.0178617)             (-0.673998 -0.529965 -0.0180046)
    0.0529542             (5.0023 -0.531598 -0.0894708)             (-0.581899 0.626478 -0.0171996)             (0.528985 -0.682427 -0.0178944)             (-0.683592 -0.52903 -0.0180449)
    0.0536672             (5.02229 -0.539566 -0.0285096)             (-0.581855 0.635648 -0.0172162)             (0.528113 -0.691652 -0.0179199)             (-0.692807 -0.528169 -0.0180793)
    0.0543701             (5.02908 -0.545547 0.0258189)             (-0.581846 0.644507 -0.0172261)             (0.52732 -0.700507 -0.0179367)             (-0.70165 -0.527388 -0.0181052)
    0.0550653             (5.02382 -0.551137 0.0735841)             (-0.581879 0.653051 -0.017228)             (0.5266 -0.709027 -0.0179449)             (-0.710159 -0.52668 -0.0181224)
     0.055753             (5.00798 -0.553077 0.114099)             (-0.581953 0.661283 -0.0172226)             (0.525946 -0.717228 -0.0179457)             (-0.71835 -0.526037 -0.0181321)
    0.0564365             (4.98011 -0.554722 0.150812)             (-0.582062 0.669253 -0.0172101)             (0.525348 -0.725163 -0.0179396)             (-0.726276 -0.52545 -0.0181346)
    0.0571178             (4.93969 -0.551375 0.182073)             (-0.582202 0.676997 -0.0171911)             (0.524797 -0.73287 -0.017927)             (-0.733977 -0.524909 -0.0181307)
    0.0578002             (4.89227 -0.545707 0.206387)             (-0.582367 0.684561 -0.0171659)             (0.524283 -0.740394 -0.0179085)             (-0.741497 -0.524406 -0.0181206)
    0.0584847             (4.83848 -0.541696 0.224373)             (-0.582554 0.691962 -0.0171353)             (0.523802 -0.747755 -0.0178847)             (-0.748854 -0.523935 -0.0181053)
    0.0591735             (4.78329 -0.537348 0.23642)             (-0.582759 0.699229 -0.0170995)             (0.523348 -0.754981 -0.0178559)             (-0.756078 -0.523491 -0.0180848)
    0.0598656             (4.72641 -0.530311 0.243051)             (-0.58298 0.706355 -0.0170597)             (0.52292 -0.762066 -0.017823)             (-0.76316 -0.523073 -0.0180603)
    0.0605609             (4.66694 -0.525676 0.244671)             (-0.583217 0.713344 -0.0170162)             (0.522517 -0.769014 -0.0177862)             (-0.770103 -0.522679 -0.018032)
    0.0612595             (4.60376 -0.515882 0.241331)             (-0.583467 0.720201 -0.0169691)             (0.522135 -0.775829 -0.0177458)             (-0.776912 -0.522307 -0.0179999)
    0.0619626             (4.54177 -0.508907 0.233935)             (-0.583729 0.726942 -0.0169185)             (0.521772 -0.782524 -0.0177018)             (-0.783603 -0.521953 -0.0179643)
    0.0626703             (4.48448 -0.500059 0.224429)             (-0.584001 0.733568 -0.0168647)             (0.521427 -0.789102 -0.0176547)             (-0.790178 -0.521618 -0.0179255)
    0.0633837             (4.42915 -0.494692 0.211803)             (-0.584282 0.740094 -0.0168081)             (0.521097 -0.795578 -0.0176039)             (-0.796652 -0.521298 -0.0178838)
     0.064103             (4.37821 -0.486561 0.196023)             (-0.584571 0.746522 -0.0167484)             (0.520782 -0.801953 -0.0175514)             (-0.803026 -0.520992 -0.0178389)
    0.0648307             (4.32987 -0.480829 0.178483)             (-0.584868 0.752876 -0.0166858)             (0.520479 -0.808251 -0.0174967)             (-0.809323 -0.520698 -0.0177908)
    0.0655646             (4.28271 -0.470099 0.156624)             (-0.585171 0.759133 -0.0166209)             (0.520189 -0.814452 -0.0174398)             (-0.815522 -0.520416 -0.0177404)
    0.0663059             (4.23975 -0.468871 0.134504)             (-0.585479 0.765307 -0.0165535)             (0.519909 -0.820568 -0.0173806)             (-0.821639 -0.520146 -0.0176885)
    0.0670511             (4.19728 -0.462023 0.110067)             (-0.585794 0.771369 -0.0164851)             (0.519644 -0.826568 -0.0173203)             (-0.827638 -0.51989 -0.0176357)
    0.0678014             (4.15426 -0.459291 0.0827365)             (-0.586115 0.777329 -0.0164146)             (0.519392 -0.832465 -0.0172579)             (-0.833536 -0.519646 -0.0175809)
     0.068557             (4.11383 -0.468559 0.0555412)             (-0.58644 0.783191 -0.0163425)             (0.519152 -0.838261 -0.0171939)             (-0.839332 -0.519415 -0.0175247)
    0.0693113             (4.0752 -0.466616 0.0273047)             (-0.58677 0.788904 -0.0162702)             (0.518928 -0.843909 -0.0171298)             (-0.844977 -0.519201 -0.0174684)
    0.0700656             (4.03852 -0.461169 -0.000918716)             (-0.587106 0.794484 -0.0161995)             (0.518721 -0.849424 -0.0170651)             (-0.850487 -0.519003 -0.0174116)
    0.0708212             (4.00136 -0.457455 -0.0297326)             (-0.587446 0.799943 -0.0161278)             (0.518527 -0.854817 -0.0169991)             (-0.855878 -0.518819 -0.0173534)
    0.0715808             (3.96659 -0.449076 -0.0574748)             (-0.58779 0.805303 -0.0160547)             (0.518345 -0.86011 -0.016932)             (-0.861172 -0.518646 -0.0172937)
    0.0723472             (3.93631 -0.457693 -0.0819946)             (-0.588138 0.810584 -0.0159803)             (0.518172 -0.865322 -0.0168634)             (-0.866385 -0.518483 -0.0172326)
    0.0731108             (3.9089 -0.46582 -0.102766)             (-0.588489 0.815721 -0.0159075)             (0.518014 -0.87039 -0.0167957)             (-0.871453 -0.518335 -0.0171724)
    0.0738691             (3.88579 -0.4638 -0.120896)             (-0.588843 0.820703 -0.0158359)             (0.517874 -0.875302 -0.016729)             (-0.876361 -0.518204 -0.0171131)
    0.0746273             (3.86392 -0.467749 -0.136605)             (-0.5892 0.825572 -0.0157627)             (0.517746 -0.880096 -0.0166614)             (-0.881158 -0.518086 -0.0170525)
    0.0753775             (3.84108 -0.46493 -0.155897)             (-0.58956 0.830276 -0.0156919)             (0.517636 -0.884729 -0.0165964)             (-0.885787 -0.517986 -0.0169937)
    0.0761264             (3.81846 -0.460787 -0.17989)             (-0.589921 0.834864 -0.0156203)             (0.51754 -0.889245 -0.0165312)             (-0.890301 -0.517898 -0.0169341)
     0.076874             (3.80212 -0.46542 -0.204113)             (-0.590285 0.839339 -0.0155482)             (0.517457 -0.893648 -0.0164659)             (-0.894704 -0.517823 -0.016874)
    0.0776124             (3.78969 -0.467763 -0.232176)             (-0.590651 0.843656 -0.015479)             (0.51739 -0.897896 -0.0164027)             (-0.898947 -0.517764 -0.0168161)
     0.078347             (3.78283 -0.4696 -0.256496)             (-0.591017 0.847853 -0.0154092)             (0.517337 -0.902025 -0.0163394)             (-0.903072 -0.517718 -0.0167578)
    0.0790753             (3.77964 -0.458731 -0.282199)             (-0.591386 0.851918 -0.015341)             (0.517297 -0.906024 -0.0162774)             (-0.907064 -0.517686 -0.0167006)
    0.0798086             (3.78122 -0.444358 -0.308456)             (-0.591755 0.85592 -0.0152703)             (0.517265 -0.909958 -0.0162135)             (-0.910998 -0.51766 -0.0166413)
     0.080551             (3.78818 -0.450123 -0.337777)             (-0.592125 0.859879 -0.0151976)             (0.517238 -0.913847 -0.0161483)             (-0.91489 -0.51764 -0.01658)
    0.0812947             (3.80443 -0.444518 -0.368295)             (-0.592497 0.863752 -0.0151266)             (0.517221 -0.917653 -0.0160843)             (-0.918694 -0.517629 -0.01652)
    0.0820424             (3.83131 -0.438419 -0.400321)             (-0.59287 0.867555 -0.0150553)             (0.517211 -0.921388 -0.0160202)             (-0.922429 -0.517625 -0.0164597)
    0.0827927             (3.86499 -0.43251 -0.439504)             (-0.593244 0.871283 -0.0149845)             (0.517209 -0.925047 -0.0159563)             (-0.926086 -0.517628 -0.0163995)
    0.0835486             (3.90579 -0.438146 -0.482225)             (-0.59362 0.874949 -0.0149133)             (0.517214 -0.928642 -0.0158922)             (-0.929683 -0.517639 -0.0163388)
     0.084303             (3.95368 -0.432461 -0.516817)             (-0.593996 0.878521 -0.0148438)             (0.517229 -0.932145 -0.0158297)             (-0.933181 -0.51766 -0.0162795)
    0.0850547             (4.00393 -0.438974 -0.54865)             (-0.594373 0.881995 -0.0147755)             (0.517255 -0.93555 -0.0157684)             (-0.936583 -0.517692 -0.0162211)
    0.0857983             (4.05275 -0.445147 -0.574344)             (-0.59475 0.885349 -0.0147097)             (0.517293 -0.938836 -0.0157091)             (-0.939864 -0.517736 -0.0161648)
    0.0865354             (4.09924 -0.443214 -0.59707)             (-0.595129 0.888593 -0.0146454)             (0.517344 -0.942015 -0.0156513)             (-0.943035 -0.517792 -0.0161097)
    0.0872711             (4.13909 -0.442318 -0.618552)             (-0.595507 0.891756 -0.0145806)             (0.517405 -0.945111 -0.0155933)             (-0.946126 -0.517857 -0.0160542)
    0.0880081             (4.17622 -0.439508 -0.635277)             (-0.595886 0.894848 -0.0145157)             (0.517473 -0.948137 -0.0155354)             (-0.94915 -0.51793 -0.0159984)
    0.0887451             (4.2119 -0.435937 -0.647198)             (-0.596266 0.897868 -0.0144516)             (0.517551 -0.951088 -0.0154782)             (-0.952101 -0.518012 -0.0159433)
    0.0894808             (4.24256 -0.42834 -0.655197)             (-0.596646 0.900809 -0.0143884)             (0.517637 -0.953961 -0.0154219)             (-0.95497 -0.518102 -0.0158888)
    0.0902218             (4.26724 -0.4357 -0.661233)             (-0.597026 0.903701 -0.0143243)             (0.517729 -0.956782 -0.0153648)             (-0.957792 -0.518199 -0.0158333)
    0.0909588             (4.29164 -0.43101 -0.663868)             (-0.597407 0.906508 -0.014263)             (0.517831 -0.959517 -0.01531)             (-0.960527 -0.518305 -0.0157801)
    0.0916945             (4.31234 -0.431844 -0.662192)             (-0.597788 0.909239 -0.0142026)             (0.517942 -0.96218 -0.0152562)             (-0.963186 -0.518419 -0.0157277)
    0.0924223             (4.32958 -0.433897 -0.657662)             (-0.598169 0.911876 -0.014145)             (0.518063 -0.964747 -0.0152045)             (-0.965749 -0.518544 -0.0156775)
    0.0931411             (4.3409 -0.430595 -0.653278)             (-0.598549 0.914416 -0.0140891)             (0.518194 -0.967221 -0.0151544)             (-0.968214 -0.518679 -0.0156287)
    0.0938574             (4.34572 -0.425931 -0.650872)             (-0.598929 0.916886 -0.0140331)             (0.518333 -0.969624 -0.0151044)             (-0.970614 -0.518822 -0.0155798)
    0.0945763             (4.34854 -0.424935 -0.64704)             (-0.599309 0.919304 -0.0139763)             (0.518479 -0.971975 -0.0150541)             (-0.972965 -0.518971 -0.0155301)
    0.0952913             (4.34766 -0.42731 -0.63905)             (-0.599688 0.921649 -0.0139215)             (0.518634 -0.974256 -0.0150053)             (-0.97524 -0.519128 -0.015482)
    0.0960026             (4.34653 -0.413993 -0.625364)             (-0.600067 0.923925 -0.0138683)             (0.518796 -0.976466 -0.014958)             (-0.977446 -0.519293 -0.0154351)
    0.0967151             (4.34177 -0.411198 -0.608499)             (-0.600445 0.926149 -0.0138149)             (0.518965 -0.978624 -0.0149106)             (-0.979601 -0.519465 -0.0153877)
    0.0974264             (4.33391 -0.405201 -0.589117)             (-0.600823 0.928315 -0.0137625)             (0.51914 -0.980722 -0.0148636)             (-0.981696 -0.519643 -0.0153408)
    0.0981389             (4.32503 -0.38942 -0.569236)             (-0.6012 0.93043 -0.0137104)             (0.519322 -0.98277 -0.014817)             (-0.983741 -0.519826 -0.0152939)
    0.0988402             (4.31791 -0.368432 -0.550485)             (-0.601577 0.932457 -0.0136625)             (0.519512 -0.984734 -0.0147738)             (-0.985695 -0.520019 -0.0152504)
    0.0995283             (4.3115 -0.362554 -0.534343)             (-0.601952 0.934397 -0.0136171)             (0.519712 -0.98661 -0.014733)             (-0.987558 -0.520221 -0.015209)
     0.100209             (4.302 -0.361623 -0.517418)             (-0.602325 0.93627 -0.013572)             (0.519918 -0.988421 -0.0146931)             (-0.989358 -0.520429 -0.0151679)
     0.100887             (4.28974 -0.355206 -0.500235)             (-0.602696 0.938087 -0.0135267)             (0.520131 -0.990175 -0.0146532)             (-0.991107 -0.520644 -0.0151265)
     0.101558             (4.27715 -0.352851 -0.482799)             (-0.603066 0.939841 -0.0134832)             (0.520351 -0.991868 -0.0146148)             (-0.99279 -0.520866 -0.0150865)
     0.102224             (4.26335 -0.352764 -0.465396)             (-0.603435 0.941541 -0.0134409)             (0.520577 -0.993505 -0.0145768)             (-0.994422 -0.521093 -0.0150474)
     0.102887             (4.24812 -0.35187 -0.450181)             (-0.603803 0.943194 -0.0133992)             (0.520808 -0.99509 -0.0145391)             (-0.996002 -0.521326 -0.0150089)
      0.10355             (4.23167 -0.344995 -0.435885)             (-0.604168 0.944805 -0.0133576)             (0.521044 -0.996636 -0.0145012)             (-0.997541 -0.521563 -0.0149701)
     0.104211             (4.21275 -0.347479 -0.425874)             (-0.604533 0.946371 -0.0133172)             (0.521284 -0.998134 -0.0144638)             (-0.999034 -0.521804 -0.0149318)
     0.104878             (4.19517 -0.35034 -0.41676)             (-0.604896 0.947913 -0.0132755)             (0.521529 -0.999606 -0.014425)             (-1.0005 -0.522049 -0.014892)
     0.105547             (4.17391 -0.360413 -0.413676)             (-0.605258 0.949417 -0.0132353)             (0.521777 -1.00104 -0.0143865)             (-1.00194 -0.522298 -0.0148527)
     0.106227             (4.15174 -0.355753 -0.41184)             (-0.605618 0.95091 -0.0131929)             (0.522028 -1.00246 -0.014346)             (-1.00336 -0.52255 -0.0148109)
     0.106909             (4.13312 -0.356019 -0.413071)             (-0.605975 0.952368 -0.0131525)             (0.522283 -1.00384 -0.0143062)             (-1.00474 -0.522805 -0.0147699)
     0.107592             (4.11925 -0.362192 -0.428806)             (-0.60633 0.953787 -0.0131135)             (0.522541 -1.00519 -0.0142672)             (-1.00608 -0.523064 -0.0147298)
      0.10828             (4.10552 -0.361607 -0.445601)             (-0.606681 0.95518 -0.0130735)             (0.522804 -1.0065 -0.0142268)             (-1.0074 -0.523326 -0.0146881)
     0.108969             (4.09286 -0.361643 -0.463094)             (-0.607029 0.956535 -0.0130356)             (0.52307 -1.00778 -0.0141876)             (-1.00867 -0.523592 -0.0146474)
     0.109659             (4.08089 -0.358962 -0.479116)             (-0.607374 0.957858 -0.0129979)             (0.523341 -1.00902 -0.0141486)             (-1.00991 -0.523862 -0.0146059)
     0.110349             (4.07271 -0.358594 -0.49513)             (-0.607716 0.95914 -0.0129613)             (0.523616 -1.01022 -0.0141108)             (-1.01111 -0.524136 -0.0145651)
     0.111036             (4.06566 -0.369535 -0.512596)             (-0.608054 0.960382 -0.0129259)             (0.523895 -1.01138 -0.0140735)             (-1.01226 -0.524415 -0.0145249)
     0.111728             (4.06073 -0.373628 -0.530547)             (-0.608389 0.961602 -0.0128893)             (0.524178 -1.01251 -0.0140348)             (-1.0134 -0.524697 -0.014483)
     0.112421             (4.04599 -0.384406 -0.544087)             (-0.608721 0.962787 -0.0128541)             (0.524466 -1.0136 -0.0139964)             (-1.01449 -0.524982 -0.0144416)
     0.113121             (4.03423 -0.375715 -0.554237)             (-0.609049 0.96395 -0.0128175)             (0.524756 -1.01467 -0.013956)             (-1.01556 -0.525271 -0.0143979)
     0.113817             (4.02893 -0.376774 -0.566056)             (-0.609374 0.965071 -0.0127838)             (0.525051 -1.0157 -0.0139177)             (-1.01659 -0.525565 -0.0143565)
     0.114509             (4.02459 -0.389235 -0.580042)             (-0.609696 0.966152 -0.0127514)             (0.525349 -1.01669 -0.0138796)             (-1.01757 -0.525862 -0.0143155)
     0.115203             (4.01811 -0.393871 -0.592728)             (-0.610014 0.967206 -0.0127185)             (0.525652 -1.01764 -0.0138411)             (-1.01853 -0.526163 -0.0142737)
     0.115898             (4.0124 -0.395566 -0.60368)             (-0.610329 0.96823 -0.012686)             (0.525958 -1.01857 -0.0138017)             (-1.01945 -0.526467 -0.0142316)
     0.116594             (4.00652 -0.388857 -0.613917)             (-0.61064 0.969223 -0.0126546)             (0.526266 -1.01946 -0.0137617)             (-1.02035 -0.526776 -0.0141905)
     0.117283             (3.99796 -0.386204 -0.627125)             (-0.610949 0.970175 -0.0126259)             (0.526579 -1.02031 -0.0137231)             (-1.02119 -0.527089 -0.0141513)
     0.117972             (3.98771 -0.390016 -0.640081)             (-0.611249 0.971106 -0.0125934)             (0.526896 -1.02113 -0.0136829)             (-1.02201 -0.527406 -0.0141107)
     0.118664             (3.97855 -0.396383 -0.649448)             (-0.61155 0.972008 -0.0125613)             (0.527217 -1.02192 -0.013642)             (-1.02279 -0.527719 -0.0140639)
     0.119363             (3.96748 -0.403148 -0.65807)             (-0.61185 0.972888 -0.0125298)             (0.527533 -1.02269 -0.0135942)             (-1.02356 -0.528031 -0.0140152)