/*--------------------------------*- C++ -*----------------------------------*\
  =========                 |
  \\      /  F ield         | OpenFOAM: The Open Source CFD Toolbox
   \\    /   O peration     | Website:  https://openfoam.org
    \\  /    A nd           | Version:  7
     \\/     M anipulation  |
\*---------------------------------------------------------------------------*/
FoamFile
{
    version     2.0;
    format      ascii;
    class       volScalarField;
    location    "4";
    object      p;
}
// * * * * * * * * * * * * * * * * * * * * * * * * * * * * * * * * * * * * * //

dimensions      [0 2 -2 0 0 0 0];

internalField   nonuniform List<scalar> 
18780
(
-74.303
-76.3139
-74.303
-73.393
-77.7411
-76.4079
-74.7648
-74.2412
-73.4183
-72.1477
-78.0796
-77.9074
-76.4068
-76.4756
-74.9642
-73.3991
-74.2805
-73.5237
-72.1749
-70.3852
-77.2454
-78.3253
-77.2298
-78.0863
-76.8502
-74.8263
-76.5407
-75.1138
-73.5878
-71.161
-74.546
-73.5993
-72.1769
-70.4534
-69.3775
-76.0251
-77.388
-76.5079
-78.5605
-77.4913
-75.5107
-78.2947
-77.0021
-75.1967
-72.7741
-76.5886
-75.1478
-73.7358
-71.6636
-70.4556
-74.6847
-73.6251
-72.1822
-70.5124
-69.4747
-68.3122
-74.3947
-76.0762
-75.1327
-77.4315
-76.9106
-75.0923
-78.7882
-77.8758
-75.9657
-73.8741
-78.474
-76.9266
-75.3013
-73.0139
-71.4239
-76.5831
-75.1679
-73.8161
-71.9658
-70.6188
-69.1469
-74.6849
-73.6524
-72.1917
-70.5393
-69.5434
-68.4091
-66.4741
-70.5579
-74.0483
-73.6629
-76.0213
-75.4519
-74.0756
-77.5222
-77.2554
-75.5929
-73.9067
-79.0059
-78.2815
-76.5387
-74.4666
-72.1851
-78.6075
-76.9964
-75.4149
-73.2345
-71.668
-70.2256
-76.5557
-75.176
-73.8962
-71.9124
-70.8014
-69.2719
-68.1097
-74.7227
-73.6694
-72.2016
-70.5982
-69.5849
-68.4731
-66.4763
-65.638
-68.1418
-70.8527
-71.6557
-73.556
-73.7547
-72.7067
-75.7912
-75.7633
-74.6814
-72.557
-77.7345
-77.6795
-76.0564
-74.601
-71.9937
-79.2907
-78.5112
-76.9047
-74.6045
-72.855
-69.9324
-78.691
-77.1018
-75.7197
-73.4557
-71.9278
-70.5135
-68.2466
-76.4979
-75.1469
-73.9516
-71.9631
-70.9333
-69.3997
-68.2449
-66.6822
-74.7754
-73.6456
-72.2057
-70.6413
-69.6303
-68.531
-66.6449
-65.7181
-64.91
-63.3046
-65.354
-68.3057
-68.135
-70.8882
-71.8845
-71.1521
-73.2714
-73.8789
-73.1778
-70.9445
-75.8677
-76.1183
-75.1772
-73.3086
-70.7491
-78.1859
-78.1369
-76.4872
-75.2457
-72.8179
-70.3307
-79.573
-78.6672
-77.0372
-75.5194
-73.4692
-70.436
-68.0056
-78.6539
-77.1447
-75.8134
-73.6228
-72.1133
-70.7961
-68.5066
-66.962
-76.3965
-75.1273
-73.9635
-72.085
-71.0222
-69.6351
-68.2742
-66.8146
-65.6217
-74.8269
-73.6182
-72.2011
-70.6564
-69.6955
-68.5791
-66.7914
-65.7982
-64.9983
-63.7973
-61.5833
-63.2881
-63.1776
-65.4378
-65.8813
-68.2774
-68.584
-67.6817
-70.9435
-72.1721
-71.9585
-69.5469
-73.5631
-73.9957
-73.4743
-71.7493
-69.5601
-75.9152
-76.4996
-75.6351
-74.0826
-71.5981
-69.3226
-78.5922
-78.5665
-76.9047
-75.9801
-73.7094
-71.036
-67.5026
-79.6865
-78.8016
-77.2664
-75.2255
-74.2759
-70.8319
-68.3806
-66.8766
-78.5089
-77.128
-75.8622
-73.8161
-72.3928
-70.9382
-68.7725
-67.2348
-65.7846
-76.2657
-75.111
-73.9489
-72.1808
-71.1074
-69.8265
-68.3583
-66.974
-65.758
-64.2931
-74.8597
-73.6016
-72.1977
-70.6816
-69.7591
-68.6316
-66.8797
-65.8876
-65.0686
-63.8551
-63.0844
-60.4907
-61.7281
-61.5065
-63.5773
-63.6754
-63.1466
-65.5281
-66.3095
-65.6083
-68.1766
-69.0161
-68.0813
-67.0358
-70.8524
-72.3719
-72.4864
-70.4693
-67.9994
-73.4704
-74.0791
-73.8638
-72.4763
-70.091
-67.8945
-76.3341
-76.9219
-76.0313
-74.8732
-72.5133
-70.073
-67.4787
-78.981
-78.975
-77.2907
-76.6415
-74.6621
-71.9087
-68.003
-65.9409
-79.6599
-78.7806
-77.3184
-75.5154
-74.7965
-71.4264
-68.7331
-67.2304
-65.7419
-78.2647
-77.0019
-75.9154
-74.0145
-72.7293
-71.1036
-69.0432
-67.4585
-66.1142
-64.6651
-76.0556
-75.0213
-73.9183
-72.2068
-71.1706
-69.9748
-68.4384
-67.1294
-65.9181
-64.3058
-63.3077
-74.8272
-73.5912
-72.1937
-70.7003
-69.7979
-68.6832
-66.9854
-66.0003
-65.1432
-63.9046
-63.1034
-62.6735
-58.8666
-59.4796
-60.5258
-60.4704
-61.9487
-61.7039
-61.6105
-63.8014
-64.0913
-63.4765
-63.0215
-66.055
-66.587
-66.0922
-65.1016
-68.3997
-69.2735
-68.8697
-67.6191
-66.0577
-70.7464
-72.4184
-72.7485
-71.3061
-68.7507
-66.2983
-73.5658
-74.2916
-74.2916
-73.133
-70.9533
-68.6103
-66.3959
-76.7885
-77.4343
-76.5597
-75.5109
-73.5336
-71.5051
-68.3291
-65.9139
-79.1805
-79.2694
-77.7019
-77.1582
-75.4168
-72.7083
-68.6145
-66.2561
-65.9794
-79.4567
-78.734
-77.4601
-76.0541
-74.999
-71.9051
-69.0759
-67.6395
-65.9353
-64.34
-78.0462
-76.7896
-75.8473
-73.9497
-72.935
-71.2846
-69.3048
-67.7593
-66.674
-64.9462
-63.3722
-75.8702
-74.9056
-73.8661
-72.2123
-71.2098
-70.0993
-68.5151
-67.315
-66.0462
-64.3578
-63.4625
-62.3897
-74.7491
-73.5754
-72.1749
-70.7077
-69.8092
-68.7401
-67.1342
-66.0973
-65.2609
-63.9492
-63.1607
-62.7059
-61.9742
-58.4947
-58.9222
-59.1909
-59.5935
-59.6893
-60.476
-60.6541
-60.5157
-62.2163
-61.9284
-61.766
-61.2053
-63.9228
-64.1934
-63.9692
-63.3442
-62.7998
-66.5932
-66.771
-66.5691
-65.6867
-64.383
-68.2707
-69.5871
-69.4486
-68.3776
-66.7547
-64.9634
-70.8757
-72.4575
-72.8645
-71.9572
-69.5115
-66.9547
-65.2433
-73.8028
-74.584
-74.8407
-73.7791
-71.8146
-69.1189
-66.9099
-65.4396
-76.9465
-77.8559
-77.0629
-76.0741
-74.531
-72.1848
-69.2921
-66.3452
-64.9618
-79.3604
-79.3512
-78.1101
-77.1736
-76.247
-73.4526
-69.2441
-66.5605
-66.5411
-64.2731
-79.2136
-78.5906
-77.3665
-76.1494
-75.2376
-72.3928
-69.5214
-68.0452
-66.0843
-64.7497
-63.2657
-77.7816
-76.5817
-75.6589
-74.0106
-73.043
-71.4642
-69.5474
-68.0027
-67.008
-65.1901
-63.6128
-62.2441
-75.6802
-74.7813
-73.7922
-72.1991
-71.2403
-70.1989
-68.5918
-67.4761
-66.1787
-64.44
-63.6074
-62.4787
-61.7412
-74.7135
-73.5408
-72.1517
-70.7234
-69.8123
-68.7966
-67.2422
-66.1711
-65.355
-63.9964
-63.2267
-62.7383
-62.0072
-61.4517
-58.2271
-58.5978
-58.6908
-59.0341
-59.1576
-59.221
-59.7137
-59.6796
-59.8222
-60.5361
-60.7833
-60.629
-60.6997
-62.1302
-62.2274
-62.0465
-61.9253
-61.5256
-64.0283
-64.3535
-64.211
-63.6912
-63.0136
-62.239
-66.3898
-67.2296
-67.1024
-66.1371
-65.0461
-63.9674
-68.27
-69.7636
-69.9039
-69.1443
-67.467
-65.5349
-64.2318
-70.7617
-72.3081
-72.9913
-72.579
-70.3291
-67.6072
-65.5182
-64.3813
-73.8399
-74.8287
-75.3624
-74.4003
-72.6957
-70.4023
-67.6935
-66.0325
-64.3048
-77.4782
-78.3618
-77.5752
-76.644
-75.4494
-72.7463
-69.9271
-66.8582
-65.2803
-63.8149
-79.1273
-79.1989
-78.2118
-77.381
-76.8042
-74.4093
-69.9621
-66.9904
-66.8581
-64.8387
-62.9729
-78.7409
-78.3122
-77.2089
-76.3473
-75.5084
-72.8119
-70.026
-68.4773
-66.4501
-65.1094
-63.6066
-62.0936
-77.4322
-76.3858
-75.4226
-74.0624
-73.1051
-71.6551
-69.7767
-68.2274
-67.0988
-65.4111
-63.8564
-62.4453
-61.3948
-75.3652
-74.6318
-73.6901
-72.1535
-71.2402
-70.2599
-68.6708
-67.5833
-66.3165
-64.5141
-63.7183
-62.6022
-61.8232
-61.2183
-74.7044
-73.5071
-72.1358
-70.7402
-69.8353
-68.8698
-67.2967
-66.2473
-65.4144
-64.0547
-63.2735
-62.7744
-62.0504
-61.4848
-61.3144
-57.9112
-58.1776
-58.4162
-58.6062
-58.6789
-58.8944
-58.9874
-59.128
-59.2046
-59.336
-59.6529
-59.7974
-59.9381
-59.9029
-60.67
-60.9456
-60.7896
-60.6749
-60.6506
-61.792
-62.5647
-62.2589
-62.3407
-61.7217
-61.2946
-64.0868
-64.4883
-64.4222
-64.0703
-63.3515
-62.5316
-61.8701
-66.1755
-67.3413
-67.5161
-66.6832
-65.6374
-64.2438
-62.9858
-68.2754
-69.8299
-70.2816
-69.7965
-68.2433
-66.272
-64.6496
-63.652
-70.7866
-72.3178
-73.2337
-72.9738
-71.1545
-68.4126
-66.2562
-64.8324
-63.6872
-73.4335
-74.9241
-75.961
-74.9925
-73.5779
-71.7394
-68.9154
-66.6149
-64.6862
-63.2826
-77.4484
-78.929
-77.9892
-77.0931
-76.3815
-73.8118
-70.5808
-67.4731
-65.7029
-64.2096
-62.2763
-78.6365
-79.0207
-78.0818
-77.4795
-77.1858
-75.3116
-70.6564
-67.6668
-67.1345
-65.167
-63.2769
-61.8158
-78.1979
-77.87
-77.0872
-76.108
-75.7066
-73.1632
-70.5524
-68.6378
-67.0059
-65.4757
-63.9617
-62.3934
-61.091
-77.2227
-76.112
-75.2039
-73.9874
-73.1726
-71.8059
-69.9876
-68.5125
-67.1794
-65.6377
-64.0945
-62.6638
-61.5465
-60.6999
-75.166
-74.4581
-73.5758
-72.1043
-71.2255
-70.2797
-68.7578
-67.6663
-66.4557
-64.5666
-63.8437
-62.7263
-61.9172
-61.2865
-60.9818
-74.6363
-73.5443
-72.1367
-70.7557
-69.849
-68.9748
-67.322
-66.2992
-65.4643
-64.1404
-63.3145
-62.8031
-62.0946
-61.5234
-61.3614
-61.1685
-57.6164
-57.8568
-58.0894
-58.2002
-58.3672
-58.5179
-58.5048
-58.8287
-58.8169
-58.8968
-59.0479
-59.2685
-59.3805
-59.452
-59.3533
-59.6384
-60.027
-59.9956
-59.9969
-59.8522
-60.5123
-60.9672
-61.0831
-60.935
-60.7762
-60.5172
-62.285
-62.3231
-62.5045
-62.4438
-61.9621
-61.4325
-60.8996
-64.3019
-64.6337
-64.9552
-64.439
-63.7548
-62.8613
-62.0438
-61.4618
-66.1147
-67.3427
-67.8758
-67.2391
-66.0427
-64.79
-63.4337
-62.4588
-68.1417
-69.8836
-70.6825
-70.4504
-68.9249
-66.9456
-65.2208
-63.9969
-62.5913
-70.5842
-72.3323
-73.4477
-73.2868
-71.9503
-69.361
-66.8512
-65.4768
-64.1409
-62.5226
-73.4866
-75.1454
-76.2591
-75.5578
-74.4699
-72.6747
-70.0296
-67.1945
-65.1215
-63.6756
-62.2885
-76.6988
-78.8926
-78.2733
-77.3622
-77.2275
-74.7622
-71.4676
-68.1981
-66.1537
-64.5484
-62.6313
-61.2336
-77.846
-78.7498
-77.9099
-77.3463
-77.3004
-76.2498
-71.3841
-68.4201
-67.4636
-65.5538
-63.6339
-62.0641
-60.9621
-77.6485
-77.4075
-76.8761
-75.9204
-75.697
-73.454
-71.0204
-68.9774
-67.5218
-65.8293
-64.2762
-62.6687
-61.2914
-60.351
-76.92
-75.8261
-75.0223
-73.8469
-73.1807
-71.9183
-70.1517
-68.7792
-67.3005
-65.8742
-64.3376
-62.8741
-61.7076
-60.8192
-60.2254
-75.0692
-74.2753
-73.4517
-72.051
-71.2053
-70.2999
-68.817
-67.7017
-66.5849
-64.6152
-63.9556
-62.8534
-62.0083
-61.3544
-61.0519
-60.6346
-74.5674
-73.5916
-72.0889
-70.7614
-69.8425
-69.0125
-67.3001
-66.3442
-65.4302
-64.2246
-63.3633
-62.8393
-62.1429
-61.563
-61.4127
-61.1825
-60.9497
-57.4445
-57.6079
-57.8619
-57.8352
-58.0988
-58.2039
-58.2002
-58.3116
-58.5247
-58.5676
-58.6885
-58.8582
-58.9116
-58.9542
-58.9936
-59.0335
-59.4076
-59.5
-59.4192
-59.4181
-59.2688
-59.6395
-59.9498
-60.1394
-60.213
-60.0525
-59.9738
-60.751
-61.0626
-61.1979
-61.1914
-60.9979
-60.7639
-60.2039
-62.2733
-62.5623
-62.7793
-62.7212
-62.3191
-61.723
-61.1104
-60.5543
-64.3334
-64.8107
-65.3594
-64.8879
-64.2232
-63.1357
-62.2579
-61.5419
-60.7036
-65.9355
-67.3244
-68.2536
-67.7792
-66.5661
-65.2716
-63.889
-62.9827
-61.6217
-67.9374
-69.7416
-70.7287
-70.9054
-69.6632
-67.5386
-65.8386
-64.4611
-63.0031
-61.6968
-70.5238
-72.243
-73.4939
-73.6365
-72.7462
-70.4946
-67.7916
-65.9239
-64.5523
-62.9047
-61.4502
-73.1632
-75.4862
-76.6364
-76.0299
-75.2468
-73.8985
-71.1376
-67.6249
-65.5264
-63.9409
-62.5617
-60.9679
-75.9234
-78.4315
-78.3365
-77.4526
-77.7797
-75.7936
-72.2401
-68.8826
-66.6788
-64.9901
-63.0384
-61.5351
-60.2636
-77.1474
-78.1041
-77.6231
-77.0669
-77.3389
-76.6561
-72.0137
-69.3582
-67.7912
-65.9012
-63.9953
-62.3708
-61.0875
-60.0245
-77.101
-76.9437
-76.5448
-75.7091
-75.6421
-73.7332
-71.3743
-69.4252
-67.9475
-66.1911
-64.6029
-62.8988
-61.5216
-60.5068
-59.7424
-76.4457
-75.5432
-74.8308
-73.7166
-73.152
-72.0057
-70.2594
-68.9877
-67.4679
-66.2252
-64.5634
-63.0965
-61.8613
-60.944
-60.3255
-59.993
-74.8081
-74.0777
-73.3017
-71.9815
-71.1458
-70.3276
-68.8756
-67.7661
-66.6771
-64.7577
-64.0794
-62.9749
-62.1014
-61.4265
-61.1279
-60.6735
-60.5245
-74.4571
-73.5227
-72.0206
-70.7485
-69.835
-68.9987
-67.301
-66.4133
-65.3951
-64.3107
-63.4265
-62.87
-62.185
-61.6052
-61.4527
-61.1979
-60.9549
-60.9339
-57.3053
-57.3596
-57.6235
-57.6078
-57.8166
-58.0409
-57.837
-57.9913
-58.1604
-58.3134
-58.1113
-58.3674
-58.4471
-58.608
-58.6689
-58.5821
-58.8608
-58.9907
-58.9641
-59.0522
-58.9195
-59.0407
-59.41
-59.3686
-59.5033
-59.5137
-59.378
-59.1936
-59.6308
-60.0234
-60.2053
-60.2054
-60.2469
-60.1295
-59.7158
-60.7162
-61.0354
-61.3801
-61.355
-61.1299
-60.9841
-60.4234
-59.8524
-62.4296
-62.8008
-63.1446
-62.9529
-62.6797
-62.1421
-61.4729
-60.824
-60.0771
-64.1115
-64.9847
-65.5476
-65.3299
-64.6573
-63.4865
-62.6827
-61.7607
-61.1291
-60.1378
-65.6886
-67.2744
-68.5452
-68.2787
-67.1768
-65.9132
-64.4207
-63.3236
-62.0604
-60.9051
-67.8425
-69.5279
-70.8936
-71.3379
-70.4665
-68.2851
-66.4523
-64.8021
-63.4432
-62.1441
-60.683
-70.5705
-72.1275
-73.6023
-74.0203
-73.6373
-71.602
-68.5841
-66.4859
-64.7023
-63.2659
-61.921
-60.3996
-72.8263
-75.1484
-76.8902
-76.4838
-75.9992
-75.1595
-72.3866
-68.5635
-65.9482
-64.4185
-62.8082
-61.3012
-60.0534
-75.4015
-77.5431
-78.2627
-77.3203
-78.0797
-77.6021
-72.472
-69.5077
-67.1822
-65.4153
-63.5085
-61.8913
-60.5213
-59.5143
-76.5329
-77.4279
-77.4173
-76.7076
-77.467
-76.7982
-72.4653
-70.0199
-68.2049
-66.3259
-64.4211
-62.7154
-61.3223
-60.0765
-59.3444
-76.6183
-76.4472
-76.194
-75.4748
-75.5669
-73.946
-71.7614
-69.8691
-68.3377
-66.5588
-64.9152
-63.1648
-61.7568
-60.6887
-59.8619
-59.1453
-76.0917
-75.2148
-74.6287
-73.576
-73.1156
-72.0289
-70.3519
-69.244
-67.6039
-66.3558
-64.798
-63.3224
-62.0178
-61.0702
-60.412
-60.0314
-59.7934
-74.517
-73.8577
-73.1417
-71.9099
-71.1053
-70.3123
-68.9162
-67.7581
-66.743
-64.9931
-64.1971
-63.0932
-62.2009
-61.4996
-61.193
-60.723
-60.5396
-60.6897
-74.2551
-73.4049
-71.9518
-70.704
-69.8322
-68.9844
-67.3061
-66.5034
-65.3859
-64.4073
-63.4916
-62.8992
-62.223
-61.6497
-61.4876
-61.2101
-60.9614
-60.9202
-60.2585
-57.0826
-57.2237
-57.4162
-57.3976
-57.5638
-57.7849
-57.6264
-57.7575
-57.9399
-58.1599
-57.7304
-57.9438
-58.116
-58.3251
-58.4554
-58.1328
-58.3924
-58.5613
-58.6774
-58.7431
-58.6698
-58.5517
-58.8534
-58.9236
-59.0517
-59.0419
-59.0603
-58.7836
-58.945
-59.2311
-59.4937
-59.5027
-59.5225
-59.5296
-59.2758
-59.0719
-59.7491
-60.0405
-60.2394
-60.3582
-60.3936
-60.1776
-59.8644
-59.5402
-60.7018
-61.2564
-61.4776
-61.5986
-61.4353
-61.1519
-60.6048
-60.1879
-59.5819
-62.213
-62.9718
-63.3726
-63.2074
-63.0411
-62.3644
-61.7948
-60.9074
-60.3629
-59.5345
-64.0181
-65.0035
-65.6734
-65.8177
-64.9218
-64.1045
-62.9805
-62.0381
-61.3647
-60.3627
-59.576
-65.6524
-67.0589
-68.9386
-68.714
-67.8379
-66.6519
-64.9127
-63.571
-62.3818
-61.1764
-60.2804
-67.8478
-69.4332
-70.9454
-71.6634
-71.2663
-69.2546
-67.2709
-65.531
-63.8111
-62.6099
-61.0275
-59.7482
-70.2041
-71.9332
-73.5841
-74.3366
-74.1858
-72.6345
-69.4857
-67.0095
-65.2245
-63.5394
-62.3765
-60.6975
-59.7242
-72.5316
-74.5559
-77.0625
-76.6209
-76.7614
-76.3269
-73.4933
-69.6149
-66.5904
-64.8542
-63.264
-61.6719
-60.3068
-59.2709
-74.9948
-76.7202
-77.9321
-77.0532
-78.1438
-78.737
-74.1439
-70.3703
-67.62
-65.8879
-64.0105
-62.2474
-60.7711
-59.481
-58.9883
-75.8852
-76.812
-76.9074
-76.5127
-77.3493
-77.0577
-72.8246
-70.7332
-68.7089
-66.7042
-64.8478
-63.0411
-61.5592
-60.3167
-59.4672
-58.7886
-76.0971
-75.9843
-75.8255
-75.2273
-75.4077
-74.0775
-72.0587
-70.3124
-68.6897
-66.8593
-65.2086
-63.5118
-61.9667
-60.8567
-60.0067
-59.1863
-58.9957
-75.8073
-74.9057
-74.3924
-73.3644
-73.0867
-72.0497
-70.4323
-69.2002
-67.7078
-66.4716
-65.0279
-63.5021
-62.211
-61.2203
-60.4764
-60.0902
-59.7792
-60.014
-74.2931
-73.6097
-72.9884
-71.8369
-71.0474
-70.3088
-68.9602
-67.7408
-66.8079
-65.2191
-64.304
-63.2144
-62.3007
-61.5778
-61.2664
-60.7733
-60.5581
-60.6922
-60.235
-74.0443
-73.3103
-71.8677
-70.6257
-69.8453
-68.9788
-67.2659
-66.561
-65.3789
-64.4943
-63.544
-62.9263
-62.2636
-61.6917
-61.5241
-61.2219
-60.9671
-60.9592
-60.2607
-60.2757
-56.9158
-57.0471
-57.2642
-57.187
-57.3805
-57.65
-57.3834
-57.4907
-57.7091
-58.0605
-57.549
-57.7365
-57.9257
-58.1432
-58.3402
-57.7945
-57.9697
-58.2078
-58.3654
-58.4974
-58.5399
-58.1532
-58.3707
-58.5409
-58.6735
-58.7283
-58.7718
-58.6552
-58.5746
-58.7821
-58.964
-59.0788
-59.0737
-59.1459
-58.9485
-58.8223
-59.0169
-59.4338
-59.5676
-59.5283
-59.6775
-59.6144
-59.3089
-59.2556
-58.8142
-59.609
-60.0985
-60.4291
-60.4446
-60.472
-60.3051
-60.0165
-59.749
-59.156
-60.7105
-61.3583
-61.5917
-61.7243
-61.6797
-61.3243
-60.8515
-60.2063
-59.8293
-59.405
-62.1378
-62.8471
-63.2926
-63.6323
-63.4213
-62.6827
-62.0697
-61.2156
-60.5448
-59.6972
-59.1658
-63.8124
-65.0179
-65.9942
-66.1944
-65.406
-64.3777
-63.426
-62.4095
-61.6825
-60.4766
-59.7419
-58.8874
-65.6764
-67.127
-68.8287
-69.0858
-68.5722
-67.7996
-65.4948
-63.9389
-62.8361
-61.646
-60.6053
-59.5173
-67.6216
-69.1452
-71.0388
-71.7169
-71.781
-69.8823
-68.2369
-66.3164
-64.3646
-63.0139
-61.4153
-59.9826
-59.2422
-69.9333
-71.5934
-73.513
-74.559
-74.6218
-73.8852
-70.4864
-67.9706
-65.8562
-64.0597
-62.6927
-61.1529
-60.0507
-59.039
-71.9199
-74.1337
-76.8686
-76.5419
-76.9157
-77.1253
-74.3359
-70.5627
-67.2721
-65.3366
-63.753
-61.9909
-60.5896
-59.4112
-58.7028
-74.3772
-75.9745
-77.2331
-76.8583
-78.0485
-78.7535
-75.455
-71.1778
-68.1769
-66.3678
-64.4988
-62.5839
-61.0431
-59.7321
-59.1344
-58.4601
-75.2541
-76.1956
-76.2854
-76.188
-77.1684
-76.9359
-73.7478
-71.1693
-69.1699
-67.0293
-65.2552
-63.36
-61.7074
-60.5588
-59.6109
-58.9052
-58.2715
-75.57
-75.5393
-75.415
-74.9689
-75.138
-74.2182
-72.3229
-70.5601
-68.8536
-67.1673
-65.5691
-63.7999
-62.2586
-61.0374
-60.1371
-59.2398
-58.989
-59.0126
-75.4099
-74.6806
-74.1523
-73.1557
-73.0322
-72.0701
-70.51
-69.4347
-67.8382
-66.6233
-65.2545
-63.7151
-62.4056
-61.372
-60.6143
-60.1341
-59.772
-59.9879
-59.8117
-74.0823
-73.3448
-72.8366
-71.7685
-70.9613
-70.2884
-69.0146
-67.8734
-66.8693
-65.4176
-64.4149
-63.3348
-62.3966
-61.6519
-61.3305
-60.823
-60.574
-60.693
-60.2183
-60.59
-73.9072
-73.185
-71.7852
-70.5456
-69.8456
-68.982
-67.2657
-66.5681
-65.3936
-64.5538
-63.5922
-62.9475
-62.3069
-61.7347
-61.5601
-61.237
-60.9711
-61.0039
-60.2704
-60.2512
-60.9641
-56.8701
-56.8954
-57.151
-57.0082
-57.1973
-57.5701
-57.2415
-57.3698
-57.5971
-57.9069
-57.3549
-57.4649
-57.7117
-58.0061
-58.2373
-57.6031
-57.7448
-57.9092
-58.1014
-58.3173
-58.4288
-57.8026
-58.046
-58.2029
-58.3583
-58.5167
-58.5407
-58.5262
-58.1284
-58.3693
-58.5142
-58.6897
-58.6816
-58.8536
-58.7568
-58.6713
-58.6218
-58.7774
-58.9507
-59.079
-59.1411
-59.2204
-59.0897
-58.9196
-58.7398
-59.0941
-59.4179
-59.6111
-59.7733
-59.7953
-59.7571
-59.3541
-59.3459
-58.8906
-58.6382
-59.702
-59.871
-60.5422
-60.5773
-60.5526
-60.4328
-60.1881
-59.9257
-59.2736
-58.8571
-60.7535
-61.1359
-61.6936
-61.7975
-61.9345
-61.4079
-61.111
-60.5087
-60.0305
-59.4084
-58.864
-62.0262
-62.9953
-63.2894
-63.7258
-63.4168
-63.1827
-62.236
-61.5713
-60.9183
-60.0559
-59.2844
-58.6549
-63.6846
-65.0221
-66.1434
-66.824
-66.1714
-64.8845
-63.8808
-62.5661
-61.9927
-60.8972
-59.6751
-59.0781
-58.5177
-65.549
-66.8996
-68.5433
-69.5912
-69.0657
-68.3987
-66.2825
-64.6016
-63.2742
-62.0378
-60.8777
-59.7854
-59.0188
-67.3882
-68.9081
-70.7444
-71.796
-71.94
-70.0768
-69.0319
-66.988
-64.9664
-63.2692
-61.6343
-60.388
-59.5257
-58.8775
-69.4303
-71.1613
-73.4301
-74.6393
-74.838
-75.3082
-71.7089
-69.015
-66.3749
-64.5722
-63.1948
-61.4083
-60.3783
-59.1686
-58.6048
-71.0821
-73.8361
-76.4146
-76.4954
-76.8536
-77.6405
-75.3033
-71.6291
-68.0296
-65.8526
-64.232
-62.4186
-60.8019
-59.5458
-58.8409
-58.2939
-73.6826
-75.284
-76.3495
-76.52
-77.6815
-78.8325
-76.1487
-72.0181
-68.7033
-66.99
-65.0325
-63.0043
-61.3138
-60.089
-59.3074
-58.5574
-58.1714
-74.6834
-75.6152
-75.7408
-75.7363
-76.8616
-76.6584
-74.3694
-71.5966
-69.4044
-67.4754
-65.6984
-63.7539
-61.9904
-60.7338
-59.8245
-59.0329
-58.3634
-58.2954
-75.0199
-75.0424
-74.9776
-74.7058
-74.8355
-74.2819
-72.4289
-70.9349
-69.294
-67.4831
-65.926
-64.1048
-62.5486
-61.2485
-60.3262
-59.3417
-59.018
-58.9744
-59.1208
-75.0142
-74.5376
-73.8959
-72.9914
-72.9464
-72.0431
-70.5877
-69.8022
-67.99
-66.7479
-65.4852
-63.9312
-62.5737
-61.4969
-60.7123
-60.1595
-59.7837
-59.9751
-59.7087
-59.8355
-73.8372
-73.1622
-72.6826
-71.6933
-70.8639
-70.2526
-69.037
-67.9275
-66.9229
-65.577
-64.5204
-63.4578
-62.5004
-61.7274
-61.3946
-60.8724
-60.5916
-60.6874
-60.1994
-60.5674
-60.7041
-73.8125
-73.025
-71.6921
-70.4611
-69.7891
-68.9761
-67.2731
-66.5952
-65.4054
-64.5884
-63.6469
-62.9558
-62.3415
-61.7811
-61.5935
-61.2569
-60.9766
-61.0058
-60.3093
-60.2356
-60.9556
-60.7388
-56.8652
-56.8432
-57.108
-56.9348
-57.0946
-57.4132
-57.033
-57.2142
-57.5282
-57.8414
-57.2098
-57.3488
-57.536
-57.8596
-58.1128
-57.3111
-57.4794
-57.6691
-57.9374
-58.2291
-58.3827
-57.5569
-57.7444
-57.8879
-58.0854
-58.3187
-58.3672
-58.5007
-57.8193
-57.9709
-58.1233
-58.2989
-58.4533
-58.5552
-58.5776
-58.5814
-58.078
-58.3276
-58.5486
-58.6782
-58.74
-58.8024
-58.8312
-58.6714
-58.2978
-58.6646
-58.8364
-58.937
-59.1554
-59.2651
-59.2869
-59.0376
-59.0385
-58.7819
-58.4709
-59.1559
-59.3751
-59.7097
-59.853
-59.8863
-59.9028
-59.591
-59.4419
-59.0203
-58.7042
-58.3492
-59.9833
-60.0599
-60.5898
-60.6847
-60.8077
-60.6261
-60.3596
-59.9775
-59.445
-58.8812
-58.7825
-60.6536
-61.2302
-61.6799
-62.0182
-62.0075
-61.712
-61.3685
-60.7961
-60.2702
-59.6823
-58.9628
-58.5821
-61.9363
-62.8758
-63.5507
-63.9335
-63.689
-63.149
-62.6429
-61.9188
-61.1568
-60.2285
-59.4328
-58.8268
-58.4423
-63.5469
-64.7802
-66.2757
-67.0821
-66.5891
-65.596
-64.24
-63.1716
-62.4944
-61.3877
-60.0192
-59.2407
-58.5822
-58.1797
-65.2734
-66.5235
-68.3809
-69.6035
-69.7696
-69.0943
-67.0026
-65.1182
-63.6452
-62.4235
-61.2015
-59.9419
-59.1483
-58.6216
-67.2051
-68.7036
-70.6444
-71.9269
-72.4689
-71.2811
-69.8718
-67.6778
-65.3326
-63.6389
-62.1346
-60.7481
-59.8069
-58.9427
-58.333
-69.4349
-70.6736
-72.9376
-74.8668
-75.3934
-76.0952
-73.0853
-70.0614
-67.1567
-65.1603
-63.5914
-61.9108
-60.544
-59.3611
-58.5771
-58.2031
-70.8295
-72.8914
-75.5561
-76.2994
-76.5834
-77.7532
-76.2304
-72.5538
-68.8967
-66.5099
-64.7242
-62.8522
-61.1182
-59.7727
-59.1235
-58.4174
-57.9319
-72.998
-74.4954
-75.5516
-76.013
-77.3437
-78.7552
-76.8566
-73.0653
-69.3299
-67.4201
-65.6021
-63.5113
-61.6646
-60.2443
-59.4393
-58.7202
-58.2256
-58.0026
-74.0655
-75.0823
-75.2134
-75.3364
-76.5292
-76.5823
-74.6618
-72.0023
-69.8772
-67.9366
-66.1595
-64.2519
-62.5302
-61.0919
-60.0518
-59.1821
-58.4552
-58.3299
-58.2554
-74.4744
-74.5549
-74.5399
-74.3928
-74.5733
-74.2012
-72.4931
-71.1327
-69.4428
-67.7837
-66.2637
-64.4491
-62.8467
-61.4682
-60.4807
-59.4957
-59.0861
-58.9669
-59.0429
-59.5633
-74.6866
-74.2298
-73.6235
-72.8495
-72.8329
-71.9822
-70.6302
-69.7729
-68.1751
-66.8944
-65.6783
-64.1443
-62.7544
-61.6484
-60.8256
-60.1987
-59.7816
-59.9668
-59.6408
-59.7511
-60.4003
-73.645
-73.0533
-72.5166
-71.6086
-70.7737
-70.2131
-69.031
-67.9411
-66.968
-65.6982
-64.6252
-63.5742
-62.5981
-61.7958
-61.4585
-60.9113
-60.6114
-60.68
-60.1977
-60.5276
-60.6418
-60.4119
-73.7091
-72.9144
-71.5784
-70.358
-69.709
-68.9419
-67.2604
-66.6182
-65.4079
-64.6084
-63.687
-62.9639
-62.3747
-61.8301
-61.6274
-61.2772
-60.9893
-61.0173
-60.36
-60.2321
-60.9094
-60.7117
-60.5199
-56.7731
-57.0608
-56.8184
-57.0734
-57.3627
-56.8667
-57.0965
-57.3751
-57.7113
-57.0457
-57.2044
-57.4028
-57.7968
-58.1042
-57.226
-57.3353
-57.5266
-57.7752
-58.0761
-58.3023
-57.3315
-57.4447
-57.6519
-57.8644
-58.142
-58.3287
-58.5439
-57.5869
-57.7144
-57.8041
-58.0603
-58.2911
-58.3558
-58.4937
-58.4112
-57.7537
-57.9636
-58.1875
-58.3003
-58.4754
-58.6219
-58.7118
-58.5977
-58.365
-58.1194
-58.34
-58.5175
-58.6249
-58.806
-58.8313
-58.9263
-58.7547
-58.3932
-58.3423
-58.6864
-58.8997
-59.0338
-59.2499
-59.2717
-59.348
-59.2318
-59.0906
-58.6793
-58.4118
-58.1924
-59.2947
-59.4595
-59.7516
-59.9091
-60.0324
-59.8756
-59.6928
-59.5419
-59.2163
-58.7887
-58.3858
-58.1382
-59.7893
-60.1793
-60.641
-60.8362
-60.9432
-60.7174
-60.5222
-60.1579
-59.6514
-59.0942
-58.7058
-58.2795
-60.6144
-61.1349
-61.9194
-61.8824
-62.2242
-61.8965
-61.4746
-61.0173
-60.3789
-59.6887
-59.1782
-58.618
-58.2594
-61.894
-62.825
-63.7527
-64.2349
-64.0774
-63.6624
-62.8556
-62.1458
-61.4229
-60.5839
-59.7852
-59.0677
-58.3995
-58.1445
-63.5467
-64.4959
-66.2649
-67.431
-67.1298
-65.8865
-64.8874
-63.6484
-62.9997
-61.7188
-60.5673
-59.498
-58.6954
-58.23
-57.8472
-65.1857
-66.3042
-68.164
-69.8062
-70.2554
-69.7034
-67.9174
-65.7445
-63.9518
-62.8033
-61.3729
-60.2896
-59.3551
-58.74
-58.0295
-66.8044
-68.3856
-70.4661
-72.1046
-72.7652
-72.3932
-70.9283
-68.6194
-65.9791
-64.2815
-62.8049
-61.0886
-59.8981
-59.0559
-58.4285
-57.9243
-69.0304
-69.9861
-71.6397
-74.7756
-75.2471
-76.6292
-74.3675
-71.1958
-68.0171
-65.8061
-64.1099
-62.1924
-60.8237
-59.4954
-58.6729
-58.2514
-57.8449
-70.5527
-71.8427
-74.7807
-76.0367
-76.3958
-77.6307
-76.7507
-73.4214
-69.7888
-67.1958
-65.2474
-63.2894
-61.4662
-60.0488
-59.2315
-58.4582
-58.0431
-57.7259
-72.384
-73.8215
-74.83
-75.3705
-76.9366
-78.569
-77.0746
-74.0398
-69.7582
-67.7958
-66.1115
-63.9742
-62.0324
-60.5289
-59.596
-58.8138
-58.2533
-57.9613
-57.9756
-73.3967
-74.474
-74.7118
-74.9519
-76.107
-76.6219
-74.8922
-72.4473
-70.2947
-68.3876
-66.557
-64.64
-62.9477
-61.3974
-60.2905
-59.367
-58.5034
-58.268
-58.2353
-58.2914
-73.9834
-74.0965
-74.0736
-74.0425
-74.3685
-74.0349
-72.5177
-71.2994
-69.615
-68.0475
-66.6451
-64.802
-63.1524
-61.6753
-60.6269
-59.6949
-59.1587
-58.9961
-58.9679
-59.5662
-60.1004
-74.3554
-73.8779
-73.3419
-72.6999
-72.6847
-71.899
-70.6366
-69.7901
-68.3385
-67.0202
-65.8543
-64.3454
-62.9433
-61.8257
-60.975
-60.258
-59.8048
-59.9768
-59.6372
-59.656
-60.281
-60.2726
-73.5244
-72.9127
-72.3585
-71.521
-70.6929
-70.1599
-69.0137
-67.9576
-67.0099
-65.7908
-64.7285
-63.6802
-62.6996
-61.8554
-61.5166
-60.9486
-60.6388
-60.6789
-60.1773
-60.5036
-60.6025
-60.32
-60.3141
-73.6017
-72.8564
-71.4631
-70.2503
-69.639
-68.8769
-67.2272
-66.6086
-65.4749
-64.6283
-63.7209
-62.9841
-62.4198
-61.877
-61.6603
-61.2965
-61.0058
-61.0144
-60.4125
-60.2317
-60.888
-60.6857
-60.4728
-60.5594
-56.7825
-56.9534
-57.2519
-56.8742
-57.053
-57.3386
-57.6718
-56.9025
-57.0833
-57.2905
-57.6502
-57.9483
-57.0192
-57.167
-57.3704
-57.7132
-58.031
-58.3602
-57.1615
-57.3069
-57.5026
-57.721
-58.0046
-58.2229
-58.5397
-57.3539
-57.4488
-57.5924
-57.8343
-58.0981
-58.2919
-58.4343
-58.3561
-57.5026
-57.6915
-57.8127
-58.0013
-58.2019
-58.3578
-58.5055
-58.3715
-58.2842
-57.8097
-57.935
-58.187
-58.2919
-58.4998
-58.5288
-58.7487
-58.8037
-58.4331
-58.141
-58.1868
-58.3489
-58.5607
-58.7148
-58.8946
-58.9522
-58.8922
-58.7743
-58.5157
-58.2836
-58.1086
-58.6377
-58.9413
-59.0922
-59.2265
-59.2629
-59.4171
-59.2912
-59.1602
-58.9093
-58.7744
-58.1936
-57.9582
-59.2564
-59.4972
-59.7642
-59.9167
-60.0945
-60.0163
-59.7028
-59.6702
-59.2368
-58.8722
-58.5182
-58.0247
-57.8754
-59.7855
-60.1484
-60.6499
-61.0654
-60.9583
-60.8348
-60.7478
-60.3114
-59.8649
-59.3514
-58.8991
-58.439
-58.0086
-60.5658
-61.149
-61.9035
-62.3734
-62.3884
-62.1052
-61.7823
-61.2443
-60.5812
-59.977
-59.3047
-58.7689
-58.2789
-57.9428
-61.8572
-62.7074
-63.8852
-64.2713
-64.4105
-63.9266
-63.3842
-62.5079
-61.6572
-60.9029
-60.039
-59.193
-58.6167
-58.1731
-57.6728
-63.1848
-64.5399
-66.061
-67.4613
-67.5236
-66.5325
-65.3871
-64.1583
-63.2743
-62.0337
-60.8037
-59.6633
-58.9322
-58.3414
-57.8781
-57.5946
-64.6941
-66.1923
-68.0084
-69.6331
-69.9936
-70.1678
-68.5192
-66.3699
-64.2734
-62.9175
-61.9009
-60.6306
-59.5648
-58.8512
-58.0899
-57.8446
-66.4702
-67.9485
-70.1009
-72.1062
-72.911
-73.2256
-71.907
-69.5275
-67.0179
-65.1381
-63.0999
-61.4209
-60.1495
-59.2592
-58.5095
-57.9857
-57.6053
-68.6868
-69.8596
-71.434
-74.1862
-74.9296
-76.8851
-75.4517
-72.3925
-68.8827
-66.4157
-64.6006
-62.6848
-61.119
-59.732
-58.8798
-58.3111
-57.849
-57.6192
-70.2019
-71.355
-74.0081
-75.3508
-76.163
-77.6314
-77.3771
-74.3452
-70.7177
-67.9277
-65.7725
-63.7385
-61.8428
-60.3084
-59.3151
-58.5674
-58.0492
-57.7352
-57.8544
-71.9374
-73.268
-74.1148
-74.8023
-76.3005
-78.3195
-77.1258
-74.5439
-70.713
-68.2746
-66.6073
-64.4543
-62.3815
-60.7891
-59.8137
-58.9698
-58.3351
-57.969
-57.8703
-58.4831
-72.7904
-73.6977
-74.2671
-74.5759
-75.6935
-76.419
-74.8859
-73.0044
-70.578
-68.8032
-67.0712
-64.9804
-63.129
-61.6066
-60.4425
-59.5226
-58.6439
-58.3029
-58.2483
-58.3177
-59.7946
-73.5346
-73.6275
-73.6457
-73.6789
-74.1105
-73.8597
-72.4703
-71.4713
-69.7944
-68.2623
-66.9547
-65.1232
-63.4384
-61.8779
-60.822
-59.8415
-59.2424
-59.0642
-58.936
-59.449
-59.9388
-60.2272
-74.0099
-73.5494
-73.0541
-72.533
-72.4974
-71.7803
-70.6168
-69.8854
-68.4519
-67.0945
-66.0161
-64.5219
-63.12
-61.9877
-61.1127
-60.3234
-59.842
-59.9958
-59.6485
-59.6199
-60.1505
-60.176
-60.0566
-73.4002
-72.7612
-72.2358
-71.4166
-70.606
-70.0786
-68.9728
-67.9535
-67.0403
-65.8751
-64.8165
-63.7853
-62.804
-61.9167
-61.5757
-60.9872
-60.6742
-60.6839
-60.1519
-60.4615
-60.5766
-60.2494
-60.252
-60.2019
-72.7661
-71.3566
-70.1042
-69.574
-68.7766
-67.1377
-66.5918
-65.5346
-64.6561
-63.793
-63.0091
-62.462
-61.921
-61.6901
-61.3128
-61.0214
-61.0209
-60.4674
-60.2311
-60.8909
-60.6632
-60.438
-60.5342
-60.6518
-56.7425
-56.9363
-57.2046
-57.5459
-56.8406
-57.0625
-57.286
-57.6037
-57.9543
-56.8393
-57.0673
-57.2528
-57.5542
-57.9117
-58.1908
-56.9834
-57.1352
-57.3505
-57.5933
-57.9963
-58.2771
-58.5901
-57.2026
-57.2677
-57.4425
-57.651
-57.9654
-58.2213
-58.5035
-58.3921
-57.3178
-57.4489
-57.5905
-57.7727
-58.0437
-58.3345
-58.4708
-58.4645
-58.2312
-57.4252
-57.7018
-57.7971
-58.0105
-58.15
-58.3373
-58.5088
-58.4487
-58.3583
-58.1253
-57.7547
-57.9366
-58.1379
-58.2278
-58.4855
-58.5595
-58.6508
-58.7182
-58.5413
-58.3646
-58.0044
-58.1001
-58.3235
-58.5218
-58.6734
-58.8258
-59.0244
-58.9589
-58.7871
-58.6288
-58.5064
-58.1362
-57.8043
-58.6147
-58.9121
-59.0715
-59.2034
-59.3776
-59.4474
-59.29
-59.2648
-58.9791
-58.8185
-58.3816
-58.0128
-57.6881
-59.086
-59.477
-59.8221
-59.9307
-60.1018
-60.1645
-59.971
-59.8716
-59.4001
-58.9985
-58.6507
-58.2659
-57.8986
-57.4809
-59.9571
-59.9786
-60.6183
-60.8742
-61.1006
-61.0508
-60.8622
-60.5792
-60.1098
-59.5551
-59.0504
-58.5741
-58.0975
-57.7254
-60.3951
-61.1963
-61.9908
-62.6006
-62.2975
-62.4024
-61.9942
-61.5748
-60.8564
-60.3891
-59.5013
-58.7863
-58.4023
-57.9353
-57.6424
-61.6709
-62.8484
-63.7765
-64.5737
-64.7127
-64.2406
-63.8428
-62.8316
-61.9378
-61.1648
-60.2485
-59.2912
-58.8747
-58.215
-57.7873
-57.4818
-62.8369
-64.0922
-65.7478
-67.5827
-67.9385
-67.2226