/*--------------------------------*- C++ -*----------------------------------*\
  =========                 |
  \\      /  F ield         | OpenFOAM: The Open Source CFD Toolbox
   \\    /   O peration     | Website:  https://openfoam.org
    \\  /    A nd           | Version:  7
     \\/     M anipulation  |
\*---------------------------------------------------------------------------*/
FoamFile
{
    version     2.0;
    format      ascii;
    class       surfaceScalarField;
    location    "4";
    object      phi;
}
// * * * * * * * * * * * * * * * * * * * * * * * * * * * * * * * * * * * * * //

dimensions      [0 3 -1 0 0 0 0];

internalField   nonuniform List<scalar> 
54184
(
-5.29158e-05
0.00448915
4.76554e-06
-0.000237924
0.0025537
9.4943e-05
-3.26154e-05
0.00452669
2.88983e-06
-9.76069e-05
0.00435457
1.07774e-05
-0.000378832
0.00105284
0.000104491
-0.000225341
0.00274254
0.000107667
-0.000314366
0.00294685
9.76889e-05
-1.49844e-05
0.004547
2.98447e-06
-0.000100706
0.00445008
8.08528e-06
-0.000132432
0.00351185
1.27298e-05
-0.000350643
-0.00130707
0.000337517
-0.000390468
0.00128061
0.000114939
-0.000661698
0.00137615
0.000117691
-0.000171253
0.0028865
0.000102511
-0.000315974
0.00316294
0.000106849
-0.000339889
0.00342913
4.28526e-05
3.7687e-06
0.00454764
2.96715e-06
-7.44958e-05
0.00451959
7.96627e-06
-0.000131571
0.00364159
9.91065e-06
-0.000195095
0.00321011
-4.45839e-06
-0.000347799
-0.00293476
0.000525786
-0.000410895
-0.00126404
0.000365445
-0.00076892
-0.00130595
0.000159479
-0.000333427
0.00148884
0.000137427
-0.000628223
0.00165948
0.000143857
-0.000787345
0.000918499
0.000164735
-0.000153105
0.00305015
8.4805e-05
-0.00022755
0.00331475
0.000103754
-0.000340769
0.00364721
9.79686e-05
-0.000390886
0.00304835
-2.18289e-05
2.87181e-05
0.00452256
3.69184e-06
-4.73592e-05
0.00456209
7.82971e-06
-9.77743e-05
0.00373575
1.15874e-05
-0.000208019
0.00343351
-5.46984e-06
-0.000226547
0.00295707
-2.20614e-05
-0.000199913
-0.00447694
0.000408857
-0.000209091
-0.00306964
0.000682223
-0.000693403
-0.00274542
0.000430152
-0.000346939
-0.00129153
0.000393627
-0.000770253
-0.00100652
0.000208036
-0.00110586
-0.000912794
0.000270515
-0.00032813
0.00167775
0.000141221
-0.000468058
0.001875
0.000162415
-0.000787482
0.00132354
0.000185527
-0.000741313
0.00146191
4.09337e-05
-7.00409e-05
0.00313419
9.51383e-05
-0.000108851
0.00337451
8.65355e-05
-0.000216554
0.00382968
4.00682e-05
-0.000440066
0.00334839
2.99686e-05
-0.000447435
0.00223807
-6.31277e-05
4.37123e-05
0.00448473
2.07103e-06
-3.2429e-05
0.00459235
5.8595e-06
-7.8103e-05
0.00380972
1.19531e-05
-0.000183529
0.0036341
-5.48051e-06
-0.000234928
0.00320912
-2.25911e-05
-0.000239256
0.00312558
-2.60656e-05
-0.00011785
-0.00726699
0.000673172
2.21251e-05
-0.00436251
0.00061244
-0.000742336
-0.00431927
0.000539936
2.95475e-05
-0.00340819
0.000601566
-0.000624886
-0.00271619
0.000507634
-0.00113625
-0.00241388
0.000458229
-0.000314919
-0.00137292
0.000342719
-0.000650402
-0.000694069
0.000263525
-0.00109781
-0.00070936
0.000314933
-0.0011255
-0.000244458
0.000385268
-0.000222325
0.00183225
0.000139251
-0.00029438
0.00198612
0.000215624
-0.000584896
0.00167745
0.000176854
-0.00071323
0.00188446
3.61423e-05
-0.000714197
0.00179316
-2.12719e-05
-4.57104e-05
0.00322025
8.39445e-05
-9.12155e-05
0.00342888
9.95579e-05
-0.000158106
0.003916
8.02112e-05
-0.00036743
0.00360448
-3.21154e-05
-0.000458476
0.00256136
-6.97775e-05
-0.000458637
0.00177056
-3.3822e-05
7.17774e-05
0.00441945
6.68716e-07
-3.93907e-06
0.00459231
6.04619e-06
-6.27339e-05
0.00386928
9.03624e-06
-0.0001685
0.00382005
-5.49822e-06
-0.000217854
0.00344403
-2.25365e-05
-0.000248695
0.00337925
-2.75623e-05
-0.000259161
0.00201379
-7.24407e-06
-0.000393427
-0.00698104
0.00194388
-8.03172e-05
-0.00663246
0.000836153
-0.00103147
-0.00592342
0.001021
0.000318693
-0.00435219
0.000766159
-0.000677961
-0.00432919
0.000675433
-0.00146641
-0.00389226
0.000727352
7.06604e-05
-0.00374302
0.000526901
-0.000599894
-0.00267702
0.000511889
-0.00107959
-0.00237564
0.000451162
-0.00133047
-0.0026119
0.00050818
-0.0004001
-0.00135442
0.000311558
-0.000597317
-0.000304321
0.000255908
-0.000903924
-0.000416179
0.000289372
-0.00111458
8.08204e-05
0.000391009
-0.00117822
-0.0007505
0.000367771
-0.000129484
0.0019073
0.000125727
-0.000223869
0.00204117
0.000216859
-0.000439386
0.00200426
0.000170091
-0.000641183
0.00228784
4.72334e-05
-0.000726571
0.00214812
-5.07203e-05
-0.000892055
-0.000208498
1.00098e-05
4.54355e-05
0.00325618
8.13105e-05
3.93112e-05
0.00338926
8.03134e-05
-8.39339e-05
0.00399043
4.63357e-05
-0.000310611
0.00381942
7.38191e-06
-0.00040943
0.00278847
-6.76498e-05
-0.000497952
0.00199567
-4.56299e-05
-0.000629901
0.000155057
-2.15695e-05
9.81054e-05
0.00432939
-7.03196e-07
1.68873e-05
0.00457376
2.3324e-06
-4.32921e-05
0.00390776
1.08579e-05
-0.000150455
0.00398487
-5.32636e-06
-0.000194316
0.00365672
-2.38758e-05
-0.000233524
0.00361662
-2.63795e-05
-0.000273339
0.00226803
-8.4563e-06
-0.000296859
0.00201216
2.03349e-06
-0.000322198
-0.00694425
0.00296809
-9.75624e-05
-0.00715963
0.00177588
-0.00111728
-0.00655687
0.00212123
0.00014946
-0.00620381
0.000921494
-0.00077898
-0.00590719
0.000920937
-0.00151164
-0.00416872
0.00130402
0.00045007
-0.00449887
0.000825742
-0.000547219
-0.00429716
0.000681457
-0.00130491
-0.00374421
0.000752706
-0.00154998
-0.00415632
0.000975529
-0.000258673
-0.00395761
0.00045178
-0.000517214
-0.0026874
0.000457177
-0.000880575
-0.00233237
0.000445273
-0.00143742
-0.00232712
0.000489219
-0.00164265
-0.00248554
0.000858479
-0.0004131
-0.00126436
0.000273324
-0.000505173
3.26744e-05
0.000255868
-0.000779657
-6.05433e-05
0.000240544
-0.000994462
0.000419466
0.000304005
-0.00124601
-0.000163127
0.000323076
-0.00129682
-0.0008253
0.000178372
2.43261e-05
0.00188107
0.000142062
-9.02729e-05
0.00211187
0.00018461
-0.000322267
0.00229306
0.000166392
-0.000554505
0.00268726
1.45602e-05
-0.000654648
0.0024712
-3.06309e-05
-0.00100123
0.000247426
-3.36385e-06
-0.00103755
-0.000772208
4.12496e-06
0.000135065
0.00321114
6.72709e-05
-1.08544e-05
0.00342775
7.05623e-05
-1.39666e-05
0.0040054
3.60114e-05
-0.000251282
0.00398342
-1.68399e-05
-0.000339515
0.00300988
-6.88292e-05
-0.000454888
0.00219578
-4.6402e-05
-0.000670266
0.00054107
-3.47148e-05
-0.00067561
0.000560906
2.37913e-06
0.000121505
0.00421768
-1.33275e-06
3.74997e-05
0.00453343
2.13283e-06
-2.3308e-05
0.00392505
8.35291e-06
-0.000136556
0.00413764
-5.35107e-06
-0.000177723
0.00385345
-2.43338e-05
-0.000211525
0.00383163
-2.73653e-05
-0.000263273
0.00251317
-8.2476e-06
-0.000314895
0.00231637
2.23119e-06
-0.000302946
0.00143164
-5.67764e-06
-0.000340593
-0.00699446
0.00411494
-0.000329643
-0.00705763
0.00374129
5.14691e-05
-0.00723528
0.00296205
-0.00102665
-0.00713085
0.00295349
0.000202871
-0.00721177
0.00142912
-0.000678202
-0.00685541
0.00197365
-0.00143739
-0.00591679
0.00225934
0.000471294
-0.00589269
0.00113077
-0.000443877
-0.0059119
0.000822863
-0.00125322
-0.00444685
0.00114738
-0.00180326
-0.00389678
0.00152987
5.26694e-05
-0.00477317
0.000959888
-0.000446624
-0.00433056
0.00078855
-0.00111686
-0.00349064
0.000664176
-0.00178992
-0.00401564
0.000964526
-0.00192546
-0.00330732
0.00133433
-0.000557
-0.00393001
0.00038913
-0.000528837
-0.00267437
0.000462407
-0.000874232
-0.00215726
0.000376646
-0.00131647
-0.00195449
0.000394659
-0.00176072
-0.00238343
0.000901814
-0.00163627
-0.00125642
0.000931537
-0.000244892
-0.00119147
0.000258524
-0.00042187
0.000393204
0.000244391
-0.000681215
0.000330925
0.000223348
-0.000940933
0.000930415
0.000116023
-0.00121072
0.000403484
0.000293467
-0.00141143
-0.00029613
0.000204103
-0.00132311
-0.000649775
3.51333e-05
0.000168381
0.0017727
0.000136142
-0.000144734
0.00219121
0.000196598
-0.000159314
0.00247137
0.000151644
-0.000383737
0.00296954
1.6567e-05
-0.000536343
0.00273331
-5.07267e-05
-0.000894621
0.000685786
-2.92577e-05
-0.00112274
-0.000312093
-1.1009e-05
-0.000938673
-0.000215021
-5.213e-06
0.000184245
0.00313898
7.4509e-05
7.73378e-05
0.00339166
6.3525e-05
1.91452e-05
0.00400104
3.24662e-05
-0.000241096
0.00414935
-2.53743e-05
-0.000303083
0.00317637
-5.7963e-05
-0.000422596
0.0023915
-5.34768e-05
-0.000651045
0.000913127
-3.06867e-05
-0.000721122
0.000938119
-5.70089e-06
-0.000634134
0.000894391
6.91328e-07
0.000137666
0.00408931
-1.88769e-06
5.71812e-05
0.00447571
-7.9124e-07
-8.46202e-06
0.00392588
9.76725e-06
-0.000116114
0.0042677
-5.59623e-06
-0.000161546
0.00403272
-2.30676e-05
-0.000195649
0.00403053
-2.75859e-05
-0.000253137
0.0027476
-8.65667e-06
-0.000303074
0.0026078
3.39369e-06
-0.000325101
0.00176712
-8.15282e-06
-0.000265071
0.0010033
-1.76228e-05
-0.000224831
-0.00670893
0.00375934
-0.00028493
-0.00704466
0.00410827
-0.000858855
-0.00660851
0.0040996
-0.000322258
-0.00680102
0.00402812
-0.000773118
-0.00706231
0.00365174
5.37728e-05
-0.00711006
0.00267198
-0.000970569
-0.00692468
0.00304824
-0.00151676
-0.00668399
0.00298978
0.000322295
-0.00694108
0.00128326
-0.000373787
-0.0070618
0.00156542
-0.00134317
-0.00612132
0.00226813
-0.00205372
-0.00460859
0.00236483
0.000401692
-0.00611387
0.00117772
-0.000352927
-0.00567767
0.000802849
-0.000996741
-0.00470165
0.000957551
-0.00185195
-0.0041295
0.00144213
-0.00199334
-0.00393272
0.00153756
-0.000105655
-0.00527984
0.000930818
-0.000404264
-0.00435109
0.000855847
-0.000994513
-0.00330973
0.000727918
-0.00153894
-0.00385928
0.000730275
-0.00213877
-0.00336123
0.00139648
-0.00173251
-0.00333414
0.0013717
-0.000472825
-0.00385885
0.000386767
-0.000496885
-0.00269697
0.000486752
-0.000834577
-0.00199798
0.000456483
-0.00114726
-0.00165777
0.000286247
-0.00179798
-0.00216113
0.00075962
-0.00180631
-0.000968385
0.00100866
-0.00134978
-0.00157276
0.000479092
-7.41615e-05
-0.00111006
0.00022417
-0.000147023
0.000475734
0.000178284
-0.000481649
0.000643784
0.000253868
-0.000599598
0.00126306
0.000106562
-0.00110083
0.000922181
0.000161809
-0.00134103
0.000258343
0.000185401
-0.0014157
-0.000204263
5.1559e-05
-0.0011192
-0.00152038
3.51557e-05
0.000332273
0.00151744
0.000122372
3.58401e-05
0.00221539
0.000153463
-0.000138587
0.00267398
0.000151722
-0.000413146
0.00328847
4.76119e-06
-0.000399063
0.00287817
-3.23147e-05
-0.00082758
0.0010686
-2.85548e-05
-0.00112274
0.000166314
-3.59721e-05
-0.00101428
8.41497e-05
-1.70169e-05
-0.000926868
-0.000343413
3.93877e-05
0.000253144
0.00302583
6.0058e-05
0.000155253
0.00331828
4.98154e-05
4.72445e-05
0.00398202
2.6848e-05
-0.000156829
0.00424153
-1.89977e-05
-0.000238678
0.00329648
-6.83543e-05
-0.000386984
0.00257647
-5.15988e-05
-0.000628596
0.00127527
-4.01587e-05
-0.000702661
0.00131566
-8.63639e-06
-0.000678872
0.00125467
-1.22067e-05
-0.000489922
0.000939377
9.31678e-06
0.000148929
0.00394982
-2.43406e-06
6.94711e-05
0.00440419
1.53673e-07
6.23466e-06
0.00391142
7.435e-06
-9.77874e-05
0.00438097
-5.71711e-06
-0.000140608
0.00419094
-2.32156e-05
-0.000175732
0.00420978
-2.65834e-05
-0.000240793
0.00296931
-8.50312e-06
-0.000289299
0.00288609
2.3564e-06
-0.000312103
0.00208888
-6.25635e-06
-0.000284579
0.0012997
-1.99782e-05
-0.000228947
9.36292e-05
-2.07975e-05
-0.000275614
-0.00666323
0.00382453
7.98521e-05
-0.00701861
0.00392947
-0.000842441
-0.00657847
0.00381685
-0.000415384
-0.00698469
0.00453836
-0.000525173
-0.0068555
0.00410732
-0.000886754
-0.00613931
0.00387505
-0.000538607
-0.00639897
0.00400992
-0.00102701
-0.00696749
0.00398974
-0.00141447
-0.00627545
0.00356373
8.09401e-06
-0.00678688
0.00248637
-0.000601984
-0.00687693
0.00285242
-0.00156485
-0.00654822
0.00313415
-0.00167509
-0.00616287
0.00278189
0.000431159
-0.00684464
0.00132018
-0.000293508
-0.00715026
0.0013123
-0.00111592
-0.00637178
0.00193506
-0.00196758
-0.00475571
0.00253088
-0.00210138
-0.00370065
0.00223866
0.000236679
-0.00645177
0.00131072
-0.00028713
-0.00556631
0.000949219
-0.000819691
-0.00487804
0.000804416
-0.00151949
-0.00437812
0.00118673
-0.00230838
-0.00394417
0.00162318
-0.00155954
-0.00487306
0.00131066
-0.000330425
-0.00560964
0.000867585
-0.000379607
-0.00443386
0.000896308
-0.000859637
-0.00317104
0.000742214
-0.00136158
-0.00365634
0.000739306
-0.00229636
-0.00325694
0.00112437
-0.00212436
-0.00303585
0.00141623
-0.00151866
-0.0028431
0.00113442
-0.000377969
-0.00378251
0.000249503
-0.000287326
-0.0026389
0.000468998
-0.000704217
-0.00172822
0.000439569
-0.000966467
-0.00118199
0.00034757
-0.00161962
-0.00197039
0.000614309
-0.00187824
-0.000566746
0.000895194
-0.00150728
-0.0010052
0.000532666
-0.000950999
-0.00321864
3.81257e-05
0.000120631
-0.00106735
0.00017803
-4.59776e-05
0.000575765
0.000205956
-0.000411687
0.000913452
0.000181716
-0.000541982
0.00149448
0.000151288
-0.000845789
0.00130923
0.000166244
-0.00129785
0.00069508
0.000195339
-0.00141371
0.00027772
-5.61348e-06
-0.00126818
-0.00121755
2.62057e-06
-0.00102148
-0.0019201
7.00161e-05
0.000437452
0.00119876
0.000107191
0.000222437
0.00215857
0.000112013
-7.08558e-05
0.00281855
0.000126996
-0.000105252
0.00337542
1.3203e-05
-0.000280883
0.00300064
-7.5497e-05
-0.000743917
0.00140979
-1.65758e-05
-0.00107635
0.000634112
-4.85963e-05
-0.00100448
0.000365138
-1.51423e-05
-0.000982204
-8.61065e-05
2.90078e-05
-0.000798876
-0.00185796
5.15588e-05
0.000297953
0.00286556
6.19036e-05
0.000194429
0.00321518
3.82026e-05
0.000101028
0.00392443
1.26122e-05
-0.00014083
0.00434382
-3.24049e-05
-0.00018045
0.00338178
-6.44565e-05
-0.000342624
0.00274465
-6.96367e-05
-0.000602426
0.00163171
-4.6411e-05
-0.000677427
0.00167926
-1.56353e-05
-0.000629998
0.00158237
-1.84387e-05
-0.000525759
0.00117282
-4.46878e-06
-0.000487386
-0.000509225
1.09676e-05
0.000167568
0.0037926
-4.11461e-06
8.8673e-05
0.00431755
-4.46186e-06
2.17217e-05
0.00388188
7.97031e-06
-8.14709e-05
0.00447571
-5.8327e-06
-0.000122313
0.00433127
-2.37298e-05
-0.000155606
0.00436917
-2.70012e-05
-0.00022559
0.00317799
-9.68096e-06
-0.000276752
0.00315407
2.7282e-07
-0.000300509
0.00239802
-6.27801e-06
-0.000274849
0.00158464
-1.6341e-05
-0.000248975
0.000344007
-2.13807e-05
-0.000221206
-0.000749537
-7.49149e-06
-0.000798602
-0.00487732
0.00455595
-0.000441576
-0.00562438
0.0042195
7.22533e-06
-0.00673445
0.00384024
-0.000772433
-0.00612039
0.00412706
-0.000332337
-0.00716388
0.00445515
-0.000698667
-0.0064655
0.00398999
-0.00088348
-0.00622517
0.00370158
-0.000406653
-0.0071728
0.00447865
-0.000745958
-0.00710098
0.00450279
-0.00120042
-0.0062112
0.00396516
-0.00157759
-0.00608834
0.00375146
-0.000491846
-0.00625005
0.003904
-0.000804338
-0.00670198
0.00394677
-0.00129797
-0.00647707
0.00392447
-0.00117896
-0.00633817
0.00344048
0.000355004
-0.00684591
0.0023449
-0.000516275
-0.00681208
0.0026443
-0.00136962
-0.00640289
0.0029608
-0.00187255
-0.00621239
0.00308864
-0.00197975
-0.0053654
0.00245873
0.000256482
-0.00675845
0.00145295
-0.000305599
-0.00696499
0.00115338
-0.000951701
-0.00656151
0.00163405
-0.0018065
-0.00485491
0.00232126
-0.00227978
-0.00369662
0.00249825
-0.00159124
-0.00476378
0.00206233
-8.05476e-05
-0.0067502
0.00129619
-0.000197947
-0.00549838
0.00106114
-0.000722214
-0.00489035
0.000824108
-0.00146916
-0.00453395
0.00106783
-0.00229579
-0.00400513
0.00124712
-0.00209151
-0.00481982
0.00153708
-0.00162061
-0.00565416
0.00125007
-0.000218362
-0.00613108
0.000695855
-0.000226162
-0.00445602
0.000828582
-0.00073791
-0.00303093
0.000789897
-0.00116114
-0.00341543
0.000695973
-0.00205484
-0.00321543
0.00113301
-0.00232645
-0.00266952
0.00120625
-0.00162549
-0.00249685
0.0011882
-0.00124644
-0.00445481
0.000957523
-0.000306963
-0.00368467
0.000205542
-0.000417348
-0.00234553
0.000327501
-0.000688472
-0.00135604
0.000373601
-0.000763982
-0.000812131
0.000291713
-0.00140911
-0.00151051
0.00045101
-0.00177747
-0.000150607
0.000677787
-0.00157054
-0.000423157
0.000469987
-0.00117918
-0.00286052
8.55545e-05
-0.00107328
-0.0049493
0.000105573
0.000270891
-0.00105729
0.000126136
0.000248086
0.000572224
0.000155923
-0.00024534
0.00106717
0.000226719
-0.000229108
0.00162757
0.000172478
-0.000622889
0.0017043
9.82154e-05
-0.00125361
0.00115187
0.000219156
-0.00136904
0.000752013
1.37319e-05
-0.00131518
-0.00091121
-1.24822e-06
-0.00110829
-0.00187456
8.31678e-05
-0.00107545
-0.0027177
0.000265701
0.000522927
0.000830828
0.000104004
0.000365683
0.00200226
9.2238e-05
0.000173515
0.00276381
9.42656e-05
-0.000183965
0.00354007
5.47321e-06
-0.000123706
0.00303709
-7.99947e-05
-0.000679307
0.00174243
-7.14539e-05
-0.00102175
0.00111298
-7.61158e-05
-0.000978352
0.000655263
-3.77961e-05
-0.000926523
0.000179949
1.53275e-05
-0.000890397
-0.00149183
2.75183e-05
-0.000810878
-0.00171187
7.67694e-05
0.000356487
0.00266609
4.98035e-05
0.000245492
0.00309316
2.70988e-05
0.000125249
0.00385567
3.42659e-06
-7.2831e-05
0.00437685
-2.90541e-05
-0.000114319
0.00341971
-7.83289e-05
-0.000302657
0.00290513
-7.78852e-05
-0.000574483
0.00196268
-5.17073e-05
-0.000659158
0.00204441
-2.91503e-05
-0.000594033
0.00187971
-1.94548e-05
-0.000512983
0.0014151
-2.25848e-05
-0.000539983
-0.000243307
2.06224e-05
-0.000474157
-0.00169115
1.5695e-05
0.000184513
0.00361882
-3.59748e-06
0.00010225
0.00421547
-4.29055e-06
3.91057e-05
0.00383432
3.98776e-06
-6.15838e-05
0.00455215
-6.88737e-06
-9.7832e-05
0.00444999
-2.67186e-05
-0.000136425
0.00450915
-2.72777e-05
-0.000208624
0.00337025
-1.06317e-05
-0.000259826
0.00340178
2.42645e-06
-0.000285874
0.00269252
-8.35055e-06
-0.000264603
0.00185625
-1.32869e-05
-0.000245734
0.000591395
-1.7996e-05
-0.00024506
-0.000517491
-8.3665e-06
-0.000204406
-0.00127295
2.7171e-06
-0.000932539
-0.00457404
0.0048147
-0.000694955
-0.00485368
0.00459374
-0.000889891
-0.004809
0.00452175
-0.00032316
-0.00547621
0.00420224
-0.000992824
-0.00524773
0.00433254
-0.000391716
-0.00676317
0.00438504
-0.000834285
-0.00624552
0.00410099
-0.00107638
-0.0056549
0.00436947
-0.00052754
-0.00708497
0.00452792
-0.000488937
-0.00676666
0.00449928
-0.00108458
-0.00612933
0.00377831
-0.00149377
-0.00634447
0.00376721
-0.000352174
-0.00727946
0.00434618
-0.000535786
-0.00729576
0.00440488
-0.000880708
-0.00656635
0.00444067
-0.000973022
-0.00620207
0.00387296
-0.00140148
-0.00618355
0.00353596
0.000774889
-0.00676497
0.00353845
-0.000553499
-0.00661207
0.00385132
-0.00117003
-0.00661905
0.00388916
-0.00161937
-0.00639681
0.00372994
-0.00140437
-0.00604487
0.00337399
0.00061696
-0.00709835
0.002055
-0.000316033
-0.00687618
0.00241943
-0.00111299
-0.00642483
0.00282754
-0.00188783
-0.00608912
0.00291885
-0.00188964
-0.00551292
0.00284603
-0.00177222
-0.00519688
0.00235038
0.000240278
-0.0069321
0.00141055
-6.6562e-05
-0.00675438
0.00111095
-0.000925421
-0.00655839
0.00135346
-0.0016614
-0.00507597
0.00204735
-0.00217475
-0.00388892
0.00239253
-0.0021739
-0.00446616
0.00228302
-0.00164792
-0.00424335
0.00209017
7.40105e-06
-0.00706491
0.00126232
0.000114425
-0.00566434
0.00112156
-0.000551937
-0.00481643
0.000801236
-0.0012844
-0.00451794
0.000931357
-0.00198687
-0.00413303
0.00112776
-0.00220157
-0.00494265
0.00124508
-0.00160997
-0.00562502
0.00149242
-0.00167322
-0.00356408
0.00136781
-0.000257235
-0.00652174
0.000418656
-0.000279723
-0.00457408
0.000676283
-0.000766241
-0.00293136
0.000806779
-0.00105475
-0.00304546
0.000710692
-0.00190788
-0.002908
0.000887314
-0.00206269
-0.00252488
0.00127359
-0.00177518
-0.00218569
0.00109973
-0.00155682
-0.00395041
0.00106146
-0.00155814
-0.00413881
0.00100809
-1.46183e-05
-0.00363154
9.23745e-05
-0.000125677
-0.00199984
0.000233617
-0.000533688
-0.00104075
0.00030056
-0.000545551
-0.000343029
0.000220942
-0.0012403
-0.00103092
0.000429537
-0.00184216
0.000444336
0.000444618
-0.00154591
0.00013905
0.000292451
-0.00128016
-0.00253456
0.000109008
-0.00139373
-0.00475762
0.000179311
-0.00147844
-0.00394092
0.000288059
0.000480494
-0.00113929
5.22072e-05
0.000384932
0.000552862
0.00012625
0.000136624
0.00114221
0.000117777
-0.00030326
0.0017926
0.000180985
-0.000457788
0.00208288
0.000127984
-0.00110914
0.00154452
0.000135397
-0.00130156
0.00126614
-1.51621e-05
-0.00133557
-0.000465844
-7.44145e-05
-0.00111533
-0.00173579
4.87865e-05
-0.00125178
-0.00256309
0.000289934
-0.00115274
-0.0024945
0.000312658
0.000602104
0.000428562
9.14276e-05
0.000474033
0.00184249
3.52381e-05
0.000248121
0.00264961
8.35674e-05
-5.1465e-06
0.00354538
2.12767e-05
-1.48041e-05
0.00307183
-0.000128784
-0.000571237
0.00202117
-9.01509e-05
-0.000965898
0.00152819
-9.52491e-05
-0.000964308
0.000965786
-8.14896e-05
-0.000923851
0.000494238
-2.22675e-05
-0.000923079
-0.00110663
4.02253e-05
-0.000913629
-0.00137874
6.80327e-05
-0.000799839
-0.00174584
0.000146936
0.000391022
0.00245064
4.28923e-05
0.000296156
0.00293163
1.74247e-05
0.00017296
0.00375209
-3.17255e-06
-2.26294e-05
0.00437551
-3.41864e-05
-6.23756e-05
0.00343488
-7.96828e-05
-0.000254741
0.00302555
-8.04346e-05
-0.000543958
0.00228366
-6.35366e-05
-0.000625558
0.0023853
-2.68738e-05
-0.000562316
0.00215196
-2.4955e-05
-0.000488505
0.00164341
-2.38621e-05
-0.000535839
2.43206e-05
-1.07301e-07
-0.000527252
-0.00142329
3.4957e-05
-0.000443848
-0.00220102
5.61222e-05
0.000203434
0.0034254
-3.43104e-06
0.000119621
0.0040969
-4.64763e-06
4.96206e-05
0.00377472
5.6973e-06
-4.6758e-05
0.00460964
-6.73814e-06
-7.88994e-05
0.00454828
-2.62786e-05
-0.00010484
0.00461788
-3.06127e-05
-0.000196412
0.00355072
-1.13331e-05
-0.000248443
0.0036374
2.19348e-06
-0.000269161
0.00297035
-6.24533e-06
-0.000249186
0.00210957
-1.24874e-05
-0.00024014
0.000833779
-1.55307e-05
-0.000247742
-0.000279251
-8.49461e-06
-0.000229747
-0.00105483
3.25882e-06
-0.000186718
-0.0015211
3.97376e-06
-0.000825922
-0.00473359
0.00470823
-0.000656939
-0.00473683
0.00474244
-0.000858521
-0.00454949
0.00479601
-0.000577676
-0.00477671
0.0045997
-0.000989359
-0.00476679
0.00454806
-0.000899688
-0.00465391
0.00446448
-0.000298397
-0.00557421
0.00452989
-0.000867404
-0.00536325
0.00435088
-0.00111072
-0.00524447
0.00430439
-0.000666132
-0.00672447
0.00437116
-0.000568367
-0.00635059
0.00456955
-0.00101132
-0.00581309
0.00418592
-0.00111564
-0.00585532
0.00422624
-0.000306383
-0.00723758
0.00460834
-0.000553579
-0.00693707
0.00471612
-0.000955302
-0.00629597
0.00474052
-0.000931378
-0.00626149
0.00365368
-0.00135504
-0.00589425
0.00375442
0.00073616
-0.00711761
0.00394358
-0.000329913
-0.00742498
0.00425181
-0.000767263
-0.00688942
0.00432518
-0.00140286
-0.00628832
0.0043104
-0.00131368
-0.00606484
0.00366356
-0.00133586
-0.00602826
0.00346464
0.000421318
-0.00656691
0.00311693
-3.11214e-05
-0.00696554
0.003607
-0.000951681
-0.00667851
0.00374947
-0.00161628
-0.00651018
0.00373098
-0.00152209
-0.00634765
0.00366518
-0.00152298
-0.00561185
0.00312584
0.000736702
-0.00746729
0.00181617
0.000408571
-0.00733945
0.00204314
-0.00107471
-0.00650071
0.00264459
-0.00158733
-0.00608664
0.00275098
-0.00187216
-0.00573554
0.00283887
-0.00219518
-0.00495051
0.00262093
-0.00153563
-0.00520872
0.00229721
0.000272594
-0.00710175
0.00140952
0.000200274
-0.00659541
0.00116573
-0.000682016
-0.00653181
0.00121444
-0.00146937
-0.00527422
0.00173668
-0.00194351
-0.00414772
0.00226278
-0.00232765
-0.00429092
0.00234338
-0.00179977
-0.00409987
0.00232934
-0.00158596
-0.00429907
0.00203118
6.92669e-05
-0.00744298
0.00104875
0.000200023
-0.0059805
0.00109875
-0.000415252
-0.00483591
0.000790046
-0.00126015
-0.00433946
0.00082815
-0.00184924
-0.00434153
0.00108122
-0.00199333
-0.00486985
0.000985584
-0.0017709
-0.00573818
0.00135396
-0.00176066
-0.00336261
0.00149479
-0.00181935
-0.00340508
0.00147386
2.58913e-05
-0.00676678
3.23417e-05
-0.000317103
-0.00451421
0.000550216
-0.000687399
-0.00276842
0.000667048
-0.000817797
-0.00270593
0.000739493
-0.00171552
-0.002558
0.000835907
-0.00199225
-0.00252866
0.00104118
-0.00169296
-0.00186761
0.00110256
-0.00166764
-0.00351259
0.00104939
-0.00179981
-0.00380507
0.00113379
-0.00165653
-0.00340142
0.00104209
0.000267538
-0.00359048
-4.24172e-06
8.20147e-06
-0.0016206
8.98639e-05
-0.000139308
-0.000748912
0.00021771
-0.00041837
-6.73621e-05
0.000140003
-0.00108588
-0.000475286
0.000293395
-0.00168873
0.00103768
0.000415786
-0.00150519
0.000585494
0.000201802
-0.00134055
-0.00224922
1.20944e-05
-0.00150119
-0.00446546
0.000202708
-0.00178307
-0.00359444
0.000364126
-0.0014735
-0.00404627
0.00042659
0.000786776
-0.00142931
-7.70202e-06
0.000549151
0.000452372
7.75785e-05
0.000291924
0.00114761
7.70497e-05
-5.66642e-05
0.00189179
7.01051e-05
-0.000232821
0.00230234
0.000179538
-0.000986113
0.00195371
0.000133673
-0.00121632
0.00169278
-4.08194e-05
-0.00135787
5.18171e-05
-0.000139258
-0.001096
-0.00160931
-2.87478e-05
-0.00129981
-0.00235773
0.000220162
-0.00129223
-0.00216907
0.000343104
-0.00106813
-0.00275541
0.000330667
0.000617554
5.05598e-05
4.10112e-05
0.000575254
0.00162715
2.76735e-05
0.00036908
0.00246567
2.30541e-05
0.000130111
0.0034344
4.18056e-05
8.51259e-05
0.00307627
-0.000130661
-0.000455909
0.00221427
-0.000120719
-0.000910317
0.0019132
-0.000108808
-0.000961317
0.00128045
-7.41512e-05
-0.000890858
0.000783919
-4.26288e-05
-0.000893408
-0.000761153
3.71549e-05
-0.000923553
-0.001051
0.000100199
-0.000904683
-0.00145118
0.000150802
-0.000697179
-0.00233827
0.000162804
0.000431308
0.00222485
4.48538e-05
0.000345946
0.00274952
-1.3155e-06
0.000194787
0.00363563
-1.12792e-05
1.76033e-05
0.00434312
-3.51449e-05
-3.51546e-05
0.0034451
-8.81444e-05
-0.000199111
0.00313839
-9.8253e-05
-0.000516688
0.0025871
-6.35998e-05
-0.00059978
0.00271308
-3.99816e-05
-0.000527203
0.00241468
-3.15611e-05
-0.000455656
0.00185416
-2.92372e-05
-0.000520016
0.00028397
-3.63638e-06
-0.00053648
-0.00116479
3.01364e-05
-0.000505255
-0.00191923
2.86766e-05
-0.000372971
-0.00267376
6.02781e-05
0.000222336
0.00321061
-1.32366e-06
0.000133154
0.00396825
-7.93745e-06
5.94738e-05
0.00370545
5.14266e-06
-2.01318e-05
0.00464139
-5.91932e-06
-6.04461e-05
0.0046262
-2.42079e-05
-8.8301e-05
0.00470884
-2.89387e-05
-0.000173164
0.00370461
-1.13458e-05
-0.000226296
0.00385203
3.38029e-07
-0.000249685
0.00322857
-6.33873e-06
-0.000231693
0.00234873
-1.37162e-05
-0.000232946
0.00106892
-1.46817e-05
-0.000248259
-3.76434e-05
-8.87861e-06
-0.000235535
-0.000831657
3.87053e-06
-0.000218365
-0.00130325
3.77221e-06
-0.000160165
-0.00128983
-4.33999e-06
-0.000666699
-0.00491543
0.00454089
-0.00054732
-0.00488347
0.00470849
-0.000710009
-0.0047434
0.0046693
-0.000565956
-0.00495541
0.0047745
-0.000887339
-0.00460895
0.00469987
-0.000676011
-0.00461692
0.00462088
-0.000472869
-0.00480288
0.00519241
-0.000802319
-0.00477056
0.00453839
-0.000877151
-0.0048502
0.00451079
-0.000834556
-0.00510254
0.00433027
-0.000715063
-0.00557396
0.00465389
-0.000851051
-0.00531666
0.00476598
-0.000961257
-0.00529622
0.00435256
-0.000945352
-0.00537273
0.0042365
-0.000584092
-0.00648958
0.0045972
-0.000871926
-0.00631342
0.00465234
-0.00106569
-0.00578035
0.0046472
-0.00114578
-0.00575473
0.00429973
-0.00123218
-0.00555449
0.00395155
-0.000118298
-0.00671805
0.00467405
-0.000477123
-0.00695861
0.00477709
-0.000774871
-0.00631188
0.00473963
-0.00149242
-0.00605242
0.00462101
-0.00140894
-0.00585571
0.0037104
-0.00115767
-0.00581158
0.00368174
0.000205762
-0.00695878
0.00392437
-5.2367e-05
-0.0075227
0.00406254
-0.00083225
-0.00698713
0.00423009
-0.00124335
-0.00657195
0.00423589
-0.00142532
-0.00603736
0.00418616
-0.00149034
-0.00589764
0.0035003
-0.00129295
-0.00600375
0.0034097
0.000897026
-0.00694563
0.00291488
0.000437563
-0.00708083
0.00320324
-0.000773722
-0.00692268
0.00355019
-0.00131308
-0.00667082
0.00363585
-0.0016136
-0.00646132
0.00358609
-0.00180931
-0.00571373
0.00338118
-0.00142833
-0.0056034
0.00301665
0.000877732
-0.00784849
0.00167041
0.000407745
-0.00742422
0.00169346
-0.000490711
-0.00688569
0.00223682
-0.00136919
-0.00615985
0.00261762
-0.0018943
-0.00574356
0.00270979
-0.00228487
-0.00489316
0.00273874
-0.00146785
-0.00541212
0.00249241
-0.00142271
-0.00528778
0.00236136
0.000375493
-0.00733883
0.00140549
0.00030673
-0.00648429
0.0011917
-0.000412789
-0.00649704
0.00112851
-0.00122734
-0.00551538
0.0014228
-0.00166436
-0.00463547
0.00203955
-0.00218576
-0.00419788
0.00236217
-0.00170124
-0.00422232
0.00239617
-0.00142983
-0.00457017
0.00226961
-0.00146005
-0.00436896
0.00180884
0.000250463
-0.00764821
0.000809978
0.000138344
-0.00641307
0.00102587
-0.000283341
-0.00492645
0.000785233
-0.000964896
-0.0042299
0.000827585
-0.0017347
-0.00444111
0.000946904
-0.00201028
-0.00465135
0.000880752
-0.00176061
-0.00588768
0.00120273
-0.00180786
-0.00333052
0.00146208
-0.0018509
-0.00351416
0.00165496
-0.00179241
-0.00375217
0.00152236
0.000114901
-0.00676204
-8.36657e-05
-7.32152e-05
-0.00474923
0.000348778
-0.000411747
-0.00254567
0.000599912
-0.000550295
-0.00260474
0.000697792
-0.00133001
-0.00228178
0.000707409
-0.0020077
-0.00236636
0.00099257
-0.00171158
-0.00159795
0.000977918
-0.00166664
-0.00302067
0.000936725
-0.00176437
-0.00359977
0.00110727
-0.00192735
-0.00329782
0.00117448
-0.00159949
-0.00313108
0.00103826
0.000684585
-0.00362551
-0.000114296
0.000205753
-0.00127972
-1.72831e-06
-4.9875e-05
-0.000461469
0.00014422
-0.000137721
6.21903e-05
0.000169214
-0.000642228
-0.000170012
0.000244137
-0.00165777
0.00169079
0.00031194
-0.00141453
0.00108837
0.00011111
-0.00143934
-0.00193294
-3.30162e-05
-0.00154036
-0.00406895
5.99434e-05
-0.00175442
-0.00327512
0.000337994
-0.00169394
-0.00374548
0.000465038
-0.00136762
-0.00436198
0.000473552
0.000801758
-0.00173269
-6.02345e-05
0.000697893
0.000263479
5.85524e-05
0.000457303
0.00110085
3.61074e-05
0.000213835
0.00184592
3.9195e-05
3.6026e-05
0.0023354
8.61447e-05
-0.000804246
0.00229129
0.000190295
-0.00115497
0.00215437
-8.32615e-05
-0.00130553
0.000519888
-0.000164677
-0.0010965
-0.00148609
-5.68376e-05
-0.00125151
-0.00216868
0.000140307
-0.00133233
-0.00186795
0.000327823
-0.00121852
-0.00244359
0.000345118
-0.000911624
-0.00283788
0.000338497
0.000599912
-0.000266897
-2.65533e-05
0.000642529
0.00135484
1.67376e-05
0.000437084
0.00223611
1.49374e-05
0.000212292
0.00322525
3.75111e-05
0.000137844
0.00304773
-0.000102658
-0.000403354
0.00246465
-0.000176798
-0.000834735
0.00221853
-0.000107995
-0.000924641
0.00159738
-0.000100877
-0.000855858