/*--------------------------------*- C++ -*----------------------------------*\
  =========                 |
  \\      /  F ield         | OpenFOAM: The Open Source CFD Toolbox
   \\    /   O peration     | Website:  https://openfoam.org
    \\  /    A nd           | Version:  7
     \\/     M anipulation  |
\*---------------------------------------------------------------------------*/
FoamFile
{
    version     2.0;
    format      ascii;
    class       surfaceScalarField;
    location    "4";
    object      phi_0;
}
// * * * * * * * * * * * * * * * * * * * * * * * * * * * * * * * * * * * * * //

dimensions      [0 3 -1 0 0 0 0];

internalField   nonuniform List<scalar> 
54184
(
-5.33068e-05
0.00449246
4.57303e-06
-0.000239512
0.00256363
9.64555e-05
-3.27105e-05
0.00453045
2.51079e-06
-9.82096e-05
0.00433642
9.77251e-06
-0.000381444
0.00105376
0.000105731
-0.000226942
0.0027538
0.000108738
-0.00031331
0.00295956
9.89891e-05
-1.62333e-05
0.00455224
2.67226e-06
-0.000101797
0.00443315
7.57462e-06
-0.000133292
0.00349836
1.21058e-05
-0.000355106
-0.00130675
0.000337627
-0.000392917
0.00128209
0.00011635
-0.000665684
0.00138544
0.000120414
-0.000173657
0.00289912
0.000102872
-0.00031594
0.0031742
0.000108244
-0.000337919
0.00343702
4.49856e-05
2.2513e-06
0.0045538
3.56276e-06
-7.55033e-05
0.00450342
7.90244e-06
-0.000130583
0.00362644
1.00835e-05
-0.00019639
0.00319387
-4.26038e-06
-0.000349031
-0.00293208
0.000525685
-0.000413405
-0.00125983
0.000364716
-0.000772812
-0.00131292
0.000160778
-0.000335838
0.00148877
0.000139729
-0.000629716
0.00166838
0.00014718
-0.000786934
0.000927836
0.00016633
-0.000154572
0.00306308
8.51558e-05
-0.00022603
0.00332373
0.000103869
-0.000335359
0.0036537
9.63349e-05
-0.000392223
0.00304209
-2.03838e-05
2.71887e-05
0.00453101
3.55744e-06
-4.80757e-05
0.00454743
7.62977e-06
-9.82108e-05
0.00372015
1.24001e-05
-0.000209609
0.00341863
-5.06799e-06
-0.000227364
0.00295224
-2.17439e-05
-0.000196509
-0.00447209
0.000406207
-0.000224801
-0.00305175
0.000681612
-0.000699492
-0.00274909
0.00043327
-0.000350438
-0.00128306
0.000393455
-0.000776888
-0.00100911
0.000208085
-0.00111051
-0.000917418
0.000273932
-0.000329784
0.00167641
0.000143091
-0.000465802
0.00188054
0.000167339
-0.000787107
0.00133897
0.000187793
-0.000741777
0.00146901
3.9862e-05
-7.21682e-05
0.00314735
9.60639e-05
-0.000108928
0.00338317
8.65726e-05
-0.00021617
0.00383338
4.215e-05
-0.000441489
0.00334301
2.72981e-05
-0.00044848
0.00222758
-6.31362e-05
4.19649e-05
0.00449538
1.87153e-06
-3.34851e-05
0.00457902
5.45537e-06
-7.94528e-05
0.00379557
1.16677e-05
-0.00018526
0.0036215
-5.21478e-06
-0.000236039
0.00320504
-2.1825e-05
-0.000239599
0.00311811
-2.6054e-05
-0.000113102
-0.00728488
0.000666963
3.44993e-06
-0.00435638
0.000599805
-0.000749614
-0.00431074
0.000542614
2.53381e-05
-0.00338894
0.000606047
-0.000629247
-0.00272124
0.00050612
-0.00114634
-0.002419
0.000463199
-0.00031387
-0.00136407
0.000343725
-0.000654277
-0.000690971
0.000263788
-0.00110372
-0.00071083
0.000318112
-0.00112819
-0.000248916
0.00038631
-0.000223191
0.00182932
0.000140952
-0.000292941
0.00198747
0.000220174
-0.000584113
0.00169532
0.000178937
-0.00071448
0.00189292
3.68752e-05
-0.000713144
0.00178535
-2.21942e-05
-4.73475e-05
0.00323434
8.49128e-05
-8.82674e-05
0.00343437
9.96384e-05
-0.000157776
0.0039173
8.09805e-05
-0.000368817
0.00359879
-3.00711e-05
-0.000459837
0.00254763
-6.89544e-05
-0.000457599
0.00176907
-3.37976e-05
7.12204e-05
0.00443147
1.67189e-07
-6.00588e-06
0.00458122
5.67571e-06
-6.41541e-05
0.00385589
9.2847e-06
-0.000170416
0.00380866
-5.07118e-06
-0.000218675
0.00344133
-2.28343e-05
-0.000249934
0.00337331
-2.70846e-05
-0.000258765
0.0020296
-7.19777e-06
-0.000397961
-0.00698027
0.00195532
-8.95581e-05
-0.00665729
0.000821281
-0.00104753
-0.00589191
0.00103383
0.000313159
-0.00434149
0.000759598
-0.000689449
-0.00432694
0.000676204
-0.00148121
-0.00389743
0.000735153
7.82814e-05
-0.00372676
0.00052725
-0.000603261
-0.00267921
0.000513003
-0.00109169
-0.00237965
0.000454736
-0.00133377
-0.00261688
0.000515353
-0.000389314
-0.00135281
0.00031286
-0.000598554
-0.000299
0.000257367
-0.000908284
-0.000414629
0.000291758
-0.00111613
7.91944e-05
0.000391655
-0.00117627
-0.00076175
0.000366423
-0.00013038
0.00190377
0.000127039
-0.000225914
0.00204717
0.000218899
-0.00043841
0.00202413
0.000171993
-0.000642322
0.00229727
4.80967e-05
-0.000725587
0.00213911
-5.11326e-05
-0.000889643
-0.000212407
1.08218e-05
4.78629e-05
0.00326595
8.13546e-05
3.94201e-05
0.00339394
7.99175e-05
-8.5057e-05
0.00399181
4.60268e-05
-0.000312049
0.00381276
8.63797e-06
-0.000409923
0.00277615
-6.73453e-05
-0.000498212
0.00199339
-4.50001e-05
-0.000628459
0.000161143
-2.09754e-05
9.63888e-05
0.00434418
-1.00539e-06
1.49195e-05
0.00456496
1.51271e-06
-4.37744e-05
0.00389421
1.11354e-05
-0.000152696
0.0039756
-4.95747e-06
-0.000195172
0.00365539
-2.39566e-05
-0.000233044
0.00360993
-2.64181e-05
-0.000272955
0.00228374
-8.26003e-06
-0.00029618
0.00201921
2.0614e-06
-0.000344585
-0.00693766
0.00297937
-0.000126136
-0.00715152
0.0017949
-0.00114308
-0.00653163
0.00213242
0.000132803
-0.0062102
0.000903931
-0.000802073
-0.00588543
0.000927423
-0.00153131
-0.00413828
0.00131509
0.000470935
-0.00449244
0.00082072
-0.000556989
-0.00429378
0.000680165
-0.00131913
-0.00375285
0.000759079
-0.00155059
-0.00416943
0.000984632
-0.000226666
-0.00395811
0.000458282
-0.00052057
-0.00268789
0.000457937
-0.000886746
-0.00233689
0.000448698
-0.00143999
-0.0023341
0.000495813
-0.00164068
-0.00249294
0.00086093
-0.000413308
-0.0012651
0.000275291
-0.000505413
3.53147e-05
0.000258046
-0.000781205
-5.66035e-05
0.000242137
-0.00099753
0.00042127
0.00030489
-0.00124402
-0.000170413
0.000318746
-0.00129574
-0.000860199
0.000174509
2.23485e-05
0.00188067
0.000144874
-8.92009e-05
0.00211642
0.000186407
-0.000321487
0.00231106
0.000168405
-0.000554231
0.00269617
1.52739e-05
-0.000652486
0.00245982
-3.00454e-05
-0.000999736
0.000241147
-3.16296e-06
-0.00103684
-0.000798513
5.61593e-06
0.000134554
0.00321981
6.79839e-05
-1.87909e-05
0.00343847
7.05357e-05
-1.67867e-05
0.00400882
3.59205e-05
-0.000256239
0.00397882
-1.64896e-05
-0.000341371
0.00299885
-6.78555e-05
-0.000454682
0.00219396
-4.6282e-05
-0.000668898
0.00054596
-3.38735e-05
-0.000676617
0.000554875
3.33222e-06
0.000119865
0.00423416
-1.32813e-06
3.59695e-05
0.0045266
1.3764e-06
-2.43788e-05
0.00391169
8.40742e-06
-0.000138243
0.00413009
-5.11185e-06
-0.000178768
0.00385306
-2.38578e-05
-0.000212051
0.00382543
-2.74068e-05
-0.000262466
0.00252754
-7.75538e-06
-0.000314784
0.00232302
2.71145e-06
-0.000303435
0.00141353
-5.79542e-06
-0.00034971
-0.00698643
0.00411334
-0.000343913
-0.00706
0.00374321
2.51902e-05
-0.00723082
0.00297821
-0.00103878
-0.00713905
0.00296216
0.000187291
-0.00721918
0.00143745
-0.000697609
-0.00683471
0.00199353
-0.0014473
-0.00588753
0.00226949
0.000480288
-0.00588349
0.00111945
-0.00045729
-0.00590493
0.000823739
-0.00126919
-0.00441916
0.00115836
-0.00180429
-0.00390815
0.00153336
7.91081e-05
-0.00475128
0.000953492
-0.000453096
-0.00432549
0.000784961
-0.00112501
-0.00350091
0.000666488
-0.00179553
-0.00403085
0.000976038
-0.00192345
-0.00331278
0.00134233
-0.00054854
-0.00393937
0.000388867
-0.000527384
-0.00266966
0.000462026
-0.000874457
-0.00216273
0.000377031
-0.00132307
-0.00196088
0.000401021
-0.00175668
-0.00238961
0.000905149
-0.00163276
-0.00125656
0.000924405
-0.00025016
-0.00119203
0.000260676
-0.000426795
0.000401769
0.000246431
-0.000683203
0.000336445
0.000226712
-0.000944403
0.000937477
0.000116102
-0.00120882
0.000399756
0.000291056
-0.00141232
-0.000326889
0.000198016
-0.00132573
-0.000672178
3.46342e-05
0.000166938
0.00177352
0.000137137
-0.000157783
0.00220219
0.000198099
-0.000160848
0.0024884
0.000153126
-0.000388216
0.00297885
1.77042e-05
-0.000536392
0.00272013
-5.00159e-05
-0.000893579
0.000678408
-2.841e-05
-0.00112245
-0.00033869
-9.43201e-06
-0.000941802
-0.000213739
-3.99401e-06
0.000183351
0.00314718
7.49736e-05
8.04182e-05
0.00339919
6.28232e-05
1.49092e-05
0.00400713
3.29365e-05
-0.00024303
0.00414424
-2.47094e-05
-0.000304027
0.00316506
-5.7446e-05
-0.000422992
0.00239015
-5.30983e-05
-0.000649957
0.000916896
-2.97269e-05
-0.000722138
0.000932997
-4.64118e-06
-0.00063424
0.000891578
1.23709e-06
0.000135796
0.00410755
-1.90513e-06
5.48486e-05
0.0044712
-7.731e-07
-1.01747e-05
0.00391349
9.75283e-06
-0.000118274
0.00426218
-5.41263e-06
-0.000163432
0.00403386
-2.2479e-05
-0.000197061
0.00402582
-2.71781e-05
-0.000252492
0.00276094
-8.31132e-06
-0.000303076
0.00261445
3.89415e-06
-0.000325363
0.00174956
-7.95497e-06
-0.000265793
0.000979657
-1.742e-05
-0.000246987
-0.00669515
0.0037513
-0.00028031
-0.00705198
0.00410579
-0.000862855
-0.00659789
0.00409521
-0.000320378
-0.0068248
0.00402618
-0.000770849
-0.00706316
0.00365108
5.51791e-05
-0.00712613
0.00268324
-0.000979834
-0.00693529
0.00305668
-0.0015154
-0.00668221
0.00299213
0.000322444
-0.00694762
0.00127908
-0.000381525
-0.00705214
0.00157912
-0.00135789
-0.00608982
0.00228452
-0.00205892
-0.00457872
0.00236627
0.000415047
-0.00607655
0.00116573
-0.000358468
-0.00567712
0.000797012
-0.00100728
-0.00467927
0.000966114
-0.00187026
-0.00412904
0.00145399
-0.00198264
-0.00395806
0.00153969
-8.74961e-05
-0.00525812
0.000931779
-0.000406491
-0.00434412
0.000851229
-0.00100015
-0.00331797
0.000727709
-0.00155094
-0.00387481
0.000738312
-0.00213165
-0.00337081
0.00140904
-0.00172687
-0.00332986
0.00138035
-0.000477554
-0.00387114
0.000389476
-0.000499693
-0.00269464
0.000486745
-0.000837071
-0.00200245
0.000455617
-0.00115361
-0.00166068
0.000286033
-0.00179503
-0.0021682
0.000765817
-0.00179977
-0.000969142
0.00100518
-0.0013439
-0.00159413
0.000467277
-7.80465e-05
-0.00111057
0.000226147
-0.000150271
0.000474485
0.000180448
-0.000483685
0.000649367
0.000256347
-0.000603447
0.00126981
0.000109615
-0.00109988
0.000919116
0.000160233
-0.00133999
0.000228795
0.000181782
-0.00141719
-0.00022848
4.90517e-05
-0.00112237
-0.00149797
3.81191e-05
0.000329258
0.00151965
0.000123685
4.06881e-05
0.00222588
0.00015318
-0.000141075
0.00269021
0.000152272
-0.000414544
0.00329687
6.62134e-06
-0.000398177
0.00286468
-3.27005e-05
-0.000826047
0.00105967
-2.82193e-05
-0.0011226
0.0001401
-3.45592e-05
-0.00101613
8.62714e-05
-1.5454e-05
-0.000928412
-0.000344489
4.0439e-05
0.000251255
0.00303275
6.05867e-05
0.000151493
0.00332888
4.86364e-05
4.30074e-05
0.00399067
2.61048e-05
-0.000160473
0.0042378
-1.84269e-05
-0.00024126
0.0032862
-6.80158e-05
-0.000386945
0.00257454
-5.19529e-05
-0.000627777
0.00127869
-3.96059e-05
-0.00070347
0.00131142
-7.75174e-06
-0.000680252
0.00125316
-1.13324e-05
-0.000489924
0.000933903
9.48208e-06
0.000147874
0.00396934
-2.45751e-06
6.67244e-05
0.00440285
-2.8279e-07
3.55156e-06
0.00390169
7.47501e-06
-0.000100106
0.00437756
-5.51637e-06
-0.00014185
0.00419355
-2.32501e-05
-0.000176609
0.00420591
-2.59685e-05
-0.000239843
0.00298179
-8.18933e-06
-0.000289296
0.00289278
2.65169e-06
-0.00031237
0.00207145
-5.63093e-06
-0.00028541
0.00127695
-1.98386e-05
-0.000229215
8.00091e-05
-2.06159e-05
-0.000287998
-0.00665907
0.0038319
8.84746e-05
-0.00700543
0.00392222
-0.000849026
-0.00658093
0.00381207
-0.000414007
-0.00698618
0.004536
-0.000528543
-0.00684176
0.00410735
-0.000882281
-0.00613336
0.00386453
-0.000532251
-0.00641029
0.00400854
-0.00102494
-0.00697941
0.00398753
-0.00141563
-0.00626682
0.00356401
-3.1937e-06
-0.00679947
0.0024922
-0.000609073
-0.00688251
0.00285801
-0.00156691
-0.00655792
0.0031414
-0.00167594
-0.00614288
0.0027757
0.00043699
-0.00684513
0.00130679
-0.000299357
-0.00715052
0.00131836
-0.00112679
-0.00634379
0.00195258
-0.00198333
-0.00471809
0.00253696
-0.0020916
-0.00371024
0.00223571
0.000259125
-0.00641034
0.00130392
-0.000291391
-0.00556801
0.000941518
-0.000825852
-0.00486447
0.000807921
-0.00153118
-0.0043765
0.00119381
-0.00230348
-0.00397011
0.00163787
-0.00155141
-0.00488016
0.00131445
-0.000323044
-0.00558631
0.000875638
-0.000378328
-0.00442977
0.000896059
-0.000860503
-0.00318405
0.000740747
-0.00137075
-0.00367233
0.000742367
-0.00229874
-0.00326893
0.00114014
-0.00211238
-0.00303241
0.00142421
-0.00150614
-0.00286177
0.00113431
-0.000376196
-0.00378988
0.00025246
-0.000284098
-0.00264374
0.0004724
-0.000704723
-0.00173433
0.000439658
-0.000970472
-0.00118431
0.000346275
-0.00162147
-0.00197724
0.000616671
-0.00187371
-0.000564479
0.000894871
-0.00150501
-0.00102589
0.00052477
-0.000946901
-0.0032379
2.25218e-05
0.000113545
-0.00106587
0.000180343
-4.94298e-05
0.000582687
0.000208063
-0.000413713
0.000917894
0.000184559
-0.000543777
0.00150123
0.000154158
-0.000846724
0.00130941
0.000167873
-0.00129899
0.000666064
0.000195903
-0.00141492
0.000251387
-5.75718e-06
-0.00126937
-0.00120017
4.49246e-06
-0.0010249
-0.00189447
7.16746e-05
0.000434401
0.00120109
0.000108388
0.000219532
0.00216959
0.000111937
-7.19977e-05
0.00283017
0.000128228
-0.000106119
0.00337983
1.49511e-05
-0.000282752
0.00298761
-7.4819e-05
-0.000742697
0.00139963
-1.69142e-05
-0.00107582
0.000608372
-4.84495e-05
-0.00100551
0.000367715
-1.39672e-05
-0.000986042
-8.5086e-05
3.09329e-05
-0.000798732
-0.00184486
5.14963e-05
0.000297147
0.00287173
6.23064e-05
0.000192297
0.00322639
3.75041e-05
9.7731e-05
0.00393379
1.13311e-05
-0.000147605
0.0043439
-3.24953e-05
-0.00018171
0.00337183
-6.41994e-05
-0.00034241
0.00274255
-7.02274e-05
-0.000601909
0.00163429
-4.54835e-05
-0.000678389
0.00167593
-1.50233e-05
-0.000631868
0.00158242
-1.75144e-05
-0.000525782
0.00116698
-4.04081e-06
-0.00048694
-0.000524433
1.11477e-05
0.00016586
0.00381408
-3.88527e-06
8.67652e-05
0.00431901
-5.37589e-06
1.93707e-05
0.00387464
7.39843e-06
-8.36931e-05
0.0044745
-5.77818e-06
-0.000122845
0.00433522
-2.43416e-05
-0.000155889
0.00436567
-2.71138e-05
-0.000224988
0.00319025
-9.43727e-06
-0.000276729
0.00316104
2.78476e-07
-0.000301108
0.0023812
-5.985e-06
-0.000275764
0.00156306
-1.59756e-05
-0.000249256
0.000330653
-2.12262e-05
-0.000220835
-0.000760313
-7.45876e-06
-0.000802327
-0.00487308
0.00455322
-0.000452588
-0.00562722
0.00422268
1.54625e-05
-0.00673695
0.00383972
-0.000775658
-0.00610364
0.0041329
-0.00031794
-0.00716044
0.00445162
-0.00071437
-0.00645771
0.00398484
-0.000880423
-0.00622535
0.00369895
-0.000406411
-0.00716798
0.0044788
-0.000744026
-0.00709087
0.00450419
-0.00120769
-0.00619543
0.00396149
-0.00159887
-0.00609631
0.00374225
-0.000534096
-0.0062338
0.003916
-0.000810797
-0.00671495
0.0039458
-0.00130118
-0.00646689
0.00392187
-0.00117106
-0.0063323
0.0034437
0.000337253
-0.00683583
0.00235307
-0.000526083
-0.00681561
0.00265202
-0.00138592
-0.00640527
0.00296449
-0.00187074
-0.00620567
0.00309161
-0.00198631
-0.00535049
0.00244997
0.000269933
-0.00675117
0.00144327
-0.00031297
-0.00697458
0.00115243
-0.000954629
-0.00654487
0.00164822
-0.00181124
-0.00481798
0.00233254
-0.00227684
-0.0036966
0.00249667
-0.00157265
-0.00479284
0.00205603
-6.03515e-05
-0.00671584
0.00129262
-0.000204454
-0.0054893
0.00105134
-0.000720737
-0.00488906
0.000826342
-0.00147844
-0.00453548
0.0010746
-0.00230983
-0.0040224
0.0012572
-0.00207357
-0.00482677
0.00154567
-0.00161733
-0.005652
0.00125164
-0.000211352
-0.00610307
0.000706432
-0.000223111
-0.0044472
0.000832087
-0.000739835
-0.00304104
0.000788157
-0.00116683
-0.00343401
0.000698783
-0.00206019
-0.00322974
0.0011419
-0.00232345
-0.00266093
0.0012184
-0.0016217
-0.00251009
0.00118922
-0.00123784
-0.00451133
0.000949247
-0.000310016
-0.00369793
0.00020863
-0.000416512
-0.00235587
0.000331672
-0.000687922
-0.00136151
0.000373795
-0.000767807
-0.000812075
0.000291455
-0.00141014
-0.00151996
0.000452405
-0.00177545
-0.000144707
0.000673364
-0.00156859
-0.000440748
0.000463395
-0.00117424
-0.00288208
7.38177e-05
-0.00106417
-0.00494575
0.000100984
0.000267477
-0.00105808
0.000128067
0.000243158
0.000581467
0.000157937
-0.000245486
0.00107204
0.000227402
-0.000229726
0.00163355
0.000175839
-0.000621323
0.00170295
9.91876e-05
-0.00125413
0.00112659
0.000218784
-0.00137093
0.000725672
1.67231e-05
-0.00131682
-0.000895336
7.22586e-07
-0.00111091
-0.00184983
8.47137e-05
-0.00107428
-0.00271643
0.000267763
0.000518849
0.000835279
0.000105087
0.000363679
0.00201493
9.16643e-05
0.000170842
0.00277469
9.42993e-05
-0.000192199
0.00354477
7.88434e-06
-0.000125057
0.00302525
-7.9334e-05
-0.000678892
0.00173328
-7.19845e-05
-0.00102271
0.00108774
-7.54774e-05
-0.000978164
0.000656411
-3.73697e-05
-0.000926423
0.000177581
1.792e-05
-0.000889493
-0.00147763
2.7409e-05
-0.000809026
-0.00172031
7.69343e-05
0.000354336
0.00267185
5.00653e-05
0.000244001
0.00310485
2.66041e-05
0.000121705
0.00386546
3.50041e-06
-7.30599e-05
0.00437274
-2.81394e-05
-0.000116637
0.00341126
-7.81368e-05
-0.000303219
0.00290354
-7.78533e-05
-0.000574242
0.00196455
-5.1241e-05
-0.00066008
0.00204157
-2.77776e-05
-0.000595072
0.00187987
-1.85081e-05
-0.000512907
0.00140863
-2.20153e-05
-0.00053954
-0.000258447
2.02569e-05
-0.000473143
-0.00170769
1.61322e-05
0.000184638
0.00363966
-2.74435e-06
0.000100373
0.00421877
-4.0231e-06
3.68284e-05
0.00382882
3.61211e-06
-6.31252e-05
0.00455186
-6.83332e-06
-9.83734e-05
0.00445502
-2.72032e-05
-0.000135321
0.00450443
-2.77848e-05
-0.000207636
0.00338125
-1.04828e-05
-0.000259827
0.00340786
3.56933e-06
-0.000286107
0.0026761
-8.52037e-06
-0.000265474
0.00183552
-1.2974e-05
-0.000246059
0.000578531
-1.77952e-05
-0.000244698
-0.000528496
-8.34524e-06
-0.000203897
-0.00128168
2.67287e-06
-0.000935326
-0.00457025
0.00481592
-0.000703802
-0.0048493
0.00459396
-0.000888838
-0.00480774
0.00451734
-0.000324978
-0.00547625
0.00420758
-0.000994158
-0.00524354
0.00433301
-0.000381064
-0.00676435
0.00438405
-0.000854187
-0.00623131
0.00410721
-0.00107892
-0.00564944
0.00437117
-0.000524858
-0.00708194
0.00452603
-0.000495774
-0.00675012
0.00449576
-0.00108895
-0.0061238
0.00376454
-0.00150897
-0.00634911
0.00377029
-0.000374451
-0.00728989
0.00435041
-0.000543763
-0.00728595
0.00440685
-0.000892562
-0.00654259
0.00444273
-0.000975328
-0.00619963
0.00386907
-0.00140078
-0.00618367
0.00353501
0.000761105
-0.00676285
0.00355669
-0.000558281
-0.00662217
0.00385542
-0.00118279
-0.00661243
0.00388821
-0.00161295
-0.00639739
0.00372917
-0.00141151
-0.00602416
0.00337235
0.000618336
-0.00708404
0.00206147
-0.000344873
-0.00686132
0.00243068
-0.00111941
-0.00641977
0.0028313
-0.00188766
-0.00609003
0.00292527
-0.00189615
-0.00547925
0.00283968
-0.00175491
-0.00520637
0.00234889
0.000247632
-0.00691156
0.00140153
-8.10316e-05
-0.00676036
0.00110562
-0.000928951
-0.00654628
0.00136206
-0.00166924
-0.00504088
0.00206191
-0.00218703
-0.00388158
0.00239472
-0.00215584
-0.00449484
0.00228093
-0.00164893
-0.00425586
0.00208697
1.28267e-05
-0.00702371
0.00126821
0.000106379
-0.00564003
0.00111385
-0.000566319
-0.00481176
0.000800522
-0.00129122
-0.00452519
0.00094045
-0.00199756
-0.00414683
0.00113639
-0.00219981
-0.0049529
0.00125969
-0.00160418
-0.00561282
0.00148898
-0.00166668
-0.0035731
0.00136843
-0.00024802
-0.00651013
0.000430898
-0.000270499
-0.00456955
0.000682769
-0.000767293
-0.00293904
0.000809455
-0.00105707
-0.00306698
0.000710387
-0.00191167
-0.00292558
0.000896144
-0.00206427
-0.00251105
0.00128083
-0.00176902
-0.00219358
0.00110232
-0.00155206
-0.00400047
0.00105619
-0.0015511
-0.0041751
0.00100327
-3.28905e-05
-0.00363637
9.48109e-05
-0.000131588
-0.00201087
0.000238375
-0.000538935
-0.00103915
0.000302757
-0.000547986
-0.000340999
0.000220979
-0.00124051
-0.00103978
0.000430465
-0.00184154
0.000448964
0.000446142
-0.00154805
0.000125421
0.000284323
-0.00127702
-0.00256315
0.000104668
-0.00138746
-0.00476487
0.000169488
-0.00147583
-0.00395327
0.000290187
0.000456181
-0.00112246
5.43162e-05
0.000379522
0.000565922
0.000127769
0.000132888
0.00114957
0.000118367
-0.000307993
0.00179539
0.000181363
-0.000461114
0.00208284
0.000131998
-0.00111011
0.00152301
0.000133984
-0.00130448
0.00124314
-1.69198e-05
-0.00133761
-0.000448424
-7.07389e-05
-0.00111842
-0.00170951
5.23999e-05
-0.00124839
-0.00256459
0.000291767
-0.0011507
-0.00249636
0.000313763
0.00059968
0.000432781
9.28697e-05
0.000471577
0.00185741
3.50323e-05
0.00024558
0.00265965
8.28372e-05
8.62151e-07
0.00354129
2.38604e-05
-1.73784e-05
0.00306299
-0.000129116
-0.000570554
0.00201128
-8.99938e-05
-0.000967738
0.00150389
-9.46366e-05
-0.000964912
0.00096579
-8.00242e-05
-0.000923845
0.000489097
-2.01117e-05
-0.000922148
-0.00109029
3.98286e-05
-0.000912008
-0.00138789
6.74573e-05
-0.000797902
-0.00175916
0.000146972
0.000390252
0.00245774
4.33874e-05
0.000295954
0.00294341
1.59306e-05
0.000169581
0.00376263
-3.31835e-06
-2.64008e-05
0.00437304
-3.35262e-05
-6.5357e-05
0.00342913
-7.90228e-05
-0.000254751
0.00302543
-8.05975e-05
-0.000544126
0.00228638
-6.31864e-05
-0.000626513
0.00238285
-2.58316e-05
-0.00056279
0.00215294
-2.41698e-05
-0.00048848
0.00163631
-2.31891e-05
-0.0005357
9.31476e-06
-1.35991e-07
-0.000526214
-0.00144038
3.44572e-05
-0.000442557
-0.00221206
5.62856e-05
0.000204835
0.00344397
-2.20686e-06
0.000118515
0.00410291
-5.39707e-06
4.59135e-05
0.00377262
6.26308e-06
-4.79731e-05
0.00460936
-5.91752e-06
-7.99658e-05
0.0045535
-2.53475e-05
-0.000102772
0.00461088
-3.088e-05
-0.0001965
0.00356095
-1.09858e-05
-0.000248662
0.00364373
2.30768e-06
-0.000269368
0.00295418
-5.1379e-06
-0.000250129
0.00208955
-1.24135e-05
-0.000240543
0.000821458
-1.53577e-05
-0.000247492
-0.000290355
-8.4441e-06
-0.000229219
-0.00106405
3.24845e-06
-0.000186282
-0.00152743
4.11853e-06
-0.000829926
-0.00472994
0.00470707
-0.000666552
-0.00472816
0.00474122
-0.000853558
-0.0045484
0.00479387
-0.000583092
-0.00476946
0.00459971
-0.00098888
-0.00476597
0.00454692
-0.000896801
-0.00465699
0.00445837
-0.000296884
-0.00557121
0.00453077
-0.000880248
-0.00536194
0.00435205
-0.00111008
-0.00524696
0.00430282
-0.000661769
-0.00672987
0.0043678
-0.000570681
-0.00634365
0.0045713
-0.00101537
-0.00580674
0.00419093
-0.00111513
-0.0058544
0.00421734
-0.000308075
-0.00724994
0.00460582
-0.000550804
-0.00693075
0.00471371
-0.000965822
-0.00629106
0.00473629
-0.000935362
-0.0062663
0.00364177
-0.00134972
-0.00589025
0.00375584
0.000730847
-0.00713823
0.0039518
-0.000326657
-0.00741929
0.00425212
-0.000767488
-0.00687818
0.00432714
-0.00140073
-0.00627948
0.00431037
-0.00131698
-0.00606706
0.00365792
-0.00133218
-0.00602728
0.0034651
0.000413813
-0.00655423
0.00313277
-6.78768e-05
-0.00696143
0.00361895
-0.000954559
-0.00667604
0.00375418
-0.00161611
-0.0065098
0.00372908
-0.00151998
-0.00633633
0.00366517
-0.00152309
-0.00560345
0.00312406
0.000728613
-0.00744126
0.00182111
0.000387978
-0.00732733
0.00205846
-0.00109042
-0.00648361
0.002656
-0.00159931
-0.00608352
0.00275486
-0.00187601
-0.00570696
0.00284196
-0.00218465
-0.00495267
0.00261479
-0.00154334
-0.00520081
0.00230181
0.000277351
-0.00707819
0.00140101
0.000190535
-0.00660179
0.00115881
-0.000700023
-0.00652358
0.00121662
-0.00147517
-0.00524637
0.0017515
-0.00195609
-0.0041316
0.00227046
-0.00232323
-0.00431851
0.0023418
-0.00179108
-0.00411543
0.0023274
-0.00158542
-0.00429322
0.00202966
7.29023e-05
-0.00739191
0.00105393
0.000211501
-0.00594977
0.00109595
-0.000418032
-0.00483522
0.000788049
-0.0012638
-0.00435108
0.000833145
-0.00185738
-0.00434777
0.0010871
-0.00199561
-0.00488768
0.00100251
-0.00176379
-0.00571888
0.00136051
-0.00176912
-0.00336208
0.00149502
-0.00182577
-0.00341096
0.00147405
-4.46057e-06
-0.00675354
6.16815e-05
-0.000313595
-0.00451521
0.000558558
-0.000689466
-0.00277638
0.000670645
-0.000823076
-0.00272078
0.00073835
-0.00172567
-0.0025732
0.000843175
-0.00199198
-0.00251465
0.00105019
-0.00169192
-0.00187111
0.00110222
-0.00166692
-0.00355562
0.00104738
-0.00180273
-0.0038318
0.00112816
-0.00165528
-0.00340771
0.00103979
0.000236742
-0.003592
3.55362e-07
-8.24125e-07
-0.00162959
9.38814e-05
-0.000143391
-0.000745026
0.00022053
-0.000421307
-6.44047e-05
0.000139476
-0.00109266
-0.000482992
0.000295731
-0.0016866
0.00103896
0.000416959
-0.00150625
0.000571115
0.000202217
-0.00133979
-0.00228834
1.16899e-05
-0.00150242
-0.00447687
0.000200672
-0.00178142
-0.00361075
0.000359998
-0.00147087
-0.00405955
0.000424794
0.000778471
-0.00140816
-7.12911e-06
0.000545115
0.000467459
7.92414e-05
0.000289005
0.00115527
7.86393e-05
-5.67439e-05
0.0019015
6.98571e-05
-0.000237188
0.00230355
0.000180469
-0.000985249
0.00193391
0.00013579
-0.00122001
0.00166999
-4.05876e-05
-0.00135951
6.70445e-05
-0.000137795
-0.0011002
-0.00157975
-2.41548e-05
-0.00129996
-0.0023601
0.000225726
-0.00129082
-0.00216995
0.000344169
-0.00106517
-0.00274996
0.000332585
0.000613712
5.6622e-05
4.01825e-05
0.00057331
0.00164388
2.90453e-05
0.00036716
0.0024748
2.22939e-05
0.000124909
0.0034276
4.52141e-05
7.99347e-05
0.00306939
-0.000127836
-0.000457349
0.00220746
-0.000122706
-0.00091216
0.00188977
-0.000107844
-0.000962463
0.00127952
-7.24171e-05
-0.000892765
0.000780117
-4.10695e-05
-0.000894343
-0.000742846
3.83039e-05
-0.000922458
-0.00105946
9.81599e-05
-0.000902999
-0.00146572
0.0001508
-0.000695078
-0.00235563
0.000163256
0.000430799
0.00223363
4.50027e-05
0.000345135
0.00276145
-1.27326e-06
0.000191125
0.00364498
-1.16313e-05
1.47241e-05
0.00434041
-3.33808e-05
-3.95503e-05
0.0034435
-8.83176e-05
-0.000200486
0.00314264
-9.85212e-05
-0.000516791
0.00258892
-6.28505e-05
-0.000600463
0.00271065
-3.91835e-05
-0.000527004
0.00241589
-3.1145e-05
-0.000455273
0.00184602
-2.8734e-05
-0.000520123
0.000269462
-3.75584e-06
-0.000535765
-0.00118222
2.99791e-05
-0.000503992
-0.00193322
3.03882e-05
-0.000371964
-0.00268059
6.07105e-05
0.00022133
0.00322867
3.19954e-07
0.000131773
0.00397631
-7.37878e-06
5.71412e-05
0.00370624
3.84323e-06
-2.237e-05
0.00464344
-5.44432e-06
-6.09299e-05
0.00463152
-2.30083e-05
-9.0065e-05
0.00470348
-2.78785e-05
-0.000173161
0.00371391
-1.06716e-05
-0.000226518
0.00385897
2.93537e-07
-0.000249537
0.00321223
-6.20728e-06
-0.000232787
0.00233083
-1.3633e-05
-0.000233361
0.00105706
-1.4649e-05
-0.000248053
-4.88235e-05
-8.83658e-06
-0.00023497
-0.000841315
3.7909e-06
-0.000217802
-0.00131014
3.75497e-06
-0.000159467
-0.00128914
-4.12952e-06
-0.000667569
-0.00491464
0.00454158
-0.000555599
-0.00487912
0.00470782
-0.000706016
-0.00473866
0.00466698
-0.000564056
-0.00495008
0.00477567
-0.000891201
-0.00460308
0.00469822
-0.000672173
-0.00461598
0.00461699
-0.000472978
-0.00479116
0.00519136
-0.000807435
-0.0047742
0.00453513
-0.000875149
-0.00485154
0.00450653
-0.000833073
-0.00510933
0.00432699
-0.000711557
-0.00557001
0.00465073
-0.000856199
-0.00531434
0.00476868
-0.000963865
-0.00529645
0.00435003
-0.000941486
-0.00537358
0.00423396
-0.000588394
-0.00648922
0.00458863
-0.000866486
-0.00631155
0.00465138
-0.00107232
-0.00577593
0.00464699
-0.00114523
-0.00575626
0.00430265
-0.00122566
-0.00555704
0.00393897
-0.000136478
-0.00672134
0.00467927
-0.000474515
-0.00695253
0.00477545
-0.000778063
-0.00630124
0.00473446
-0.00148885
-0.00605183
0.00460995
-0.00141353
-0.00586091
0.00370899
-0.00115194
-0.00581112
0.00368227
0.000196561
-0.00696945
0.00393068
-6.79794e-05
-0.0075325
0.00406511
-0.000834602
-0.00697985
0.00423384
-0.0012489
-0.00655708
0.00423754
-0.00142552
-0.00603522
0.00418407
-0.001494
-0.00589528
0.00349684
-0.00128267
-0.00600068
0.00340679
0.00088379
-0.00692954
0.00292405
0.000423443
-0.00708099
0.00321687
-0.000785361
-0.00691946
0.00355731
-0.00132412
-0.00666955
0.00363873
-0.00161044
-0.00645655
0.00358373
-0.00180421
-0.00569904
0.00338032
-0.00143562
-0.00560233
0.00301745
0.000887091
-0.00783146
0.00166578
0.000400378
-0.00742031
0.00170425
-0.000507554
-0.0068714
0.00225378
-0.00137871
-0.00614974
0.00262575
-0.00189729
-0.0057249
0.002714
-0.00228258
-0.00488819
0.00273683
-0.00146217
-0.00540894
0.00249401
-0.00142685
-0.00527948
0.00237118
0.000373042
-0.00730165
0.00139587
0.000317713
-0.00648698
0.00117999
-0.000417039
-0.0064949
0.00112913
-0.00123254
-0.00549638
0.00143536
-0.00167619
-0.00461361
0.00205233
-0.00218454
-0.00422186
0.00236275
-0.00169068
-0.00424148
0.00239474
-0.00143817
-0.00456371
0.00226694
-0.00147692
-0.00435856
0.00180869
0.000248158
-0.00762286
0.000823734
0.000140343
-0.00637707
0.0010273
-0.000297358
-0.00491609
0.000784711
-0.00097768
-0.00423954
0.00083111
-0.00174317
-0.00444826
0.000951136
-0.00200479
-0.00467967
0.000891908
-0.00175235
-0.00587138
0.00121543
-0.00180671
-0.00332367
0.00146189
-0.00186394
-0.00351401
0.00165927
-0.00179451
-0.00374745
0.00152324
0.000106984
-0.00677612
-8.07797e-05
-6.863e-05
-0.00474472
0.000359001
-0.000413614
-0.0025529
0.000605296
-0.000554269
-0.00261701
0.000699832
-0.00134251
-0.00229559
0.00071059
-0.00200484
-0.00235503
0.00100179
-0.00171029
-0.00159892
0.00098204
-0.0016685
-0.00305792
0.000933235
-0.00176707
-0.00362681
0.00110703
-0.00192765
-0.00330294
0.00116961
-0.00159588
-0.00315343
0.00103584
0.000664739
-0.00361973
-0.000112857
0.000198825
-0.00128322
2.71752e-07
-5.01953e-05
-0.000458433
0.000146489
-0.000142274
7.13596e-05
0.000170296
-0.000650306
-0.000173201
0.000242802
-0.0016576
0.00169292
0.00031412
-0.00141606
0.00107346
0.000110669
-0.00143564
-0.00197624
-3.37431e-05
-0.00154081
-0.00408508
6.05158e-05
-0.00175854
-0.00328756
0.000336062
-0.00169176
-0.00376186
0.000463251
-0.00136386
-0.0043762
0.000473061
0.00080234
-0.00171381
-5.86251e-05
0.000692347
0.000281374
5.99181e-05
0.000452986
0.00111095
3.77432e-05
0.000208814
0.00185489
4.13456e-05
3.23906e-05
0.00233721
8.37371e-05
-0.000807928
0.00227438
0.000190586
-0.00115827
0.00213474
-8.28541e-05
-0.00130479
0.000528712
-0.000159927
-0.00109766
-0.00146068
-5.19656e-05
-0.00125165
-0.00217033
0.000143379
-0.00133074
-0.00186509
0.000329148
-0.00121662
-0.0024382
0.00034603
-0.000908369
-0.00283664
0.000340289
0.000596583
-0.000258989
-2.51908e-05
0.000640151
0.00137091
1.81347e-05
0.000434466
0.00224457
1.59343e-05
0.000208862
0.00321813
3.76269e-05
0.000129494
0.0030453
-9.97359e-05
-0.000406047
0.00246045
-0.000175262
-0.00083723
0.002196
-0.000108493
-0.000926154
0.00159637
-9.90049e-05
-0.000857998
0.00109183