/*--------------------------------*- C++ -*----------------------------------*\
  =========                 |
  \\      /  F ield         | OpenFOAM: The Open Source CFD Toolbox
   \\    /   O peration     | Website:  https://openfoam.org
    \\  /    A nd           | Version:  7
     \\/     M anipulation  |
\*---------------------------------------------------------------------------*/
FoamFile
{
    version     2.0;
    format      ascii;
    class       volVectorField;
    location    "4";
    object      U_0;
}
// * * * * * * * * * * * * * * * * * * * * * * * * * * * * * * * * * * * * * //

dimensions      [0 1 -1 0 0 0 0];

internalField   nonuniform List<vector> 
18780
(
(-2.20578 0.108967 0.17222)
(-1.2832 0.935033 0.575315)
(-2.41962 0.0740936 0.102625)
(-2.26987 0.789328 0.0285148)
(-0.543454 1.10938 0.763596)
(-1.34236 0.831947 0.594741)
(-1.56293 0.820681 0.913084)
(-2.41317 0.122302 0.160934)
(-2.19018 0.785367 -0.00603325)
(-1.79367 1.19604 0.425475)
(0.584164 1.08129 1.63025)
(-0.545272 1.06155 0.713222)
(-0.606198 1.95687 0.191415)
(-1.3728 0.740732 0.592039)
(-1.40529 0.975286 0.939344)
(-1.68556 0.935265 0.568738)
(-2.3008 0.0810256 0.160786)
(-2.2039 0.791102 -0.0633564)
(-1.80809 1.19125 0.322412)
(-1.60394 1.71047 0.148527)
(1.56163 0.382568 1.60327)
(0.717958 0.994393 1.45668)
(0.680297 1.83098 0.549726)
(-0.616929 0.870028 0.805742)
(-0.748631 1.69136 0.255185)
(-0.452018 2.00407 0.914725)
(-1.40129 0.700676 0.581206)
(-1.56729 0.804608 0.849902)
(-1.75836 0.925947 0.533083)
(-1.55358 1.43214 0.161124)
(-2.35571 0.0973798 0.169343)
(-2.23386 0.78805 -0.0237176)
(-1.77529 1.16204 0.40166)
(-1.65887 1.72131 0.127454)
(-1.48857 1.91794 -0.351731)
(2.20622 0.932875 0.86303)
(1.38656 0.419404 1.83495)
(1.42194 1.47568 0.959743)
(0.686632 0.928312 1.41666)
(0.674822 1.59757 0.664734)
(0.464121 2.51315 0.530102)
(-0.653316 0.939856 0.592783)
(-0.802062 1.28583 0.389748)
(-0.403056 1.88446 0.951391)
(-0.730065 1.88733 0.646898)
(-1.49381 0.574472 0.545888)
(-1.72338 0.659555 0.621175)
(-1.85146 0.674922 0.591559)
(-1.34068 1.66527 0.870664)
(-1.1222 1.80845 -0.501007)
(-2.41987 0.0840689 0.169324)
(-2.2186 0.768187 -0.0246772)
(-1.75706 1.15783 0.358844)
(-1.64405 1.74191 0.140982)
(-1.49658 1.91431 -0.350969)
(-1.61138 2.04299 -0.654911)
(3.69086 -0.185222 0.876924)
(2.24708 0.164148 1.27459)
(2.1021 0.852107 0.875295)
(1.63095 0.0801854 1.57312)
(1.34795 1.27427 1.19107)
(1.21401 2.09193 1.29313)
(0.862945 0.818541 1.30112)
(0.554948 1.25299 0.891241)
(0.41515 2.21583 0.609402)
(0.10833 2.35005 1.25898)
(-0.763957 0.591466 0.621293)
(-0.908949 0.664709 0.658457)
(-0.805723 1.38383 0.962954)
(-0.735843 1.74989 0.662497)
(-0.902902 1.84748 -0.299649)
(-1.48796 0.660581 0.571012)
(-1.52955 0.708424 0.841412)
(-1.86835 0.620802 0.572272)
(-1.84615 1.46403 0.0380066)
(-1.13718 1.76195 -0.521671)
(-0.941237 1.85903 -0.422139)
(-2.40478 0.0521306 0.16152)
(-2.18789 0.836685 -0.0936194)
(-1.72791 1.17615 0.263369)
(-1.60861 1.73115 0.143334)
(-1.50377 1.90377 -0.371401)
(-1.62192 2.06126 -0.568196)
(-1.09305 2.06977 -0.502023)
(3.37859 0.637364 2.48853)
(3.42841 -0.365609 1.46864)
(2.87509 1.48601 1.52758)
(2.08657 -0.539161 1.76261)
(2.20734 0.427743 1.02579)
(2.00941 1.74767 1.2789)
(1.78937 -0.13607 1.22745)
(1.46593 0.988214 1.11844)
(1.20966 1.85928 1.1937)
(1.35999 2.42333 0.935693)
(0.800602 0.657661 1.16419)
(0.451808 1.08382 0.741564)
(0.609863 1.77787 0.705402)
(0.186861 2.02058 1.28293)
(0.434733 2.22762 1.17714)
(-0.84569 0.474536 0.624652)
(-0.804218 0.571371 0.615691)
(-0.645119 1.13023 1.10597)
(-0.922908 1.62342 0.583587)
(-0.876691 1.7317 -0.377052)
(0.0989219 2.07757 0.0765002)
(-1.58863 0.458997 0.570785)
(-1.70988 0.392102 0.662863)
(-1.90748 0.603545 0.522458)
(-1.63074 1.4189 0.612106)
(-1.16379 1.72527 -0.48216)
(-0.910163 1.83315 -0.399116)
(0.0106497 2.46428 -0.120574)
(-2.40599 0.100714 0.17757)
(-2.18593 0.828953 -0.157265)
(-1.70719 1.12997 0.340547)
(-1.6198 1.74522 0.144152)
(-1.52307 1.8971 -0.364905)
(-1.58862 2.06195 -0.592479)
(-0.987308 2.07307 -0.521314)
(-1.0116 2.2544 0.159024)
(3.34159 0.455776 3.7972)
(3.55431 0.314324 2.08283)
(3.11965 1.24836 3.13128)
(3.15498 -0.787817 1.65143)
(2.92296 1.20994 1.18596)
(1.90446 2.43831 2.02819)
(2.14208 -0.754316 1.7104)
(2.14876 0.436176 1.11552)
(1.91759 1.28217 1.42219)
(2.06861 1.98556 1.68305)
(2.02033 0.158999 0.831133)
(1.46226 0.860603 1.11996)
(1.35202 1.39773 1.30819)
(1.25165 2.25268 0.791041)
(1.21432 2.67589 1.69935)
(0.835334 0.292691 0.966937)
(0.233522 0.879704 0.711149)
(0.212954 1.35461 0.8402)
(-0.0454052 1.86128 1.08808)
(0.345016 2.10857 0.947672)
(0.530885 2.7439 1.25498)
(-0.962236 0.137683 0.692809)
(-1.1823 0.174117 0.50044)
(-0.902514 0.808623 1.14254)
(-1.05199 1.38317 0.393626)
(-1.01598 1.53055 -0.20502)
(0.136437 2.13406 -0.0779618)
(0.41731 2.72428 0.0413397)
(-1.67998 0.256233 0.466963)
(-1.71887 0.325498 0.600573)
(-1.93626 0.588225 0.433229)
(-1.68862 1.43153 0.162916)
(-1.23431 1.62085 -0.513004)
(-0.858845 1.76821 -0.431025)
(-0.183207 2.30748 -0.253348)
(-0.272852 2.80095 -0.17915)
(-2.43657 0.0625559 0.170756)
(-2.15654 0.863955 -0.222271)
(-1.70335 1.09666 0.224302)
(-1.62522 1.75378 0.145053)
(-1.52633 1.89815 -0.363942)
(-1.60619 2.02299 -0.651846)
(-1.02258 2.074 -0.473153)
(-1.03404 2.24714 0.159914)
(-0.707549 2.51359 -0.0687868)
(3.30255 0.636522 4.29081)
(3.46263 0.337525 4.2956)
(3.54845 -0.285503 3.46061)
(3.44221 1.19307 3.85411)
(3.55707 -0.166946 1.77414)
(3.31237 0.396159 2.61125)
(2.82023 1.45702 3.25716)
(2.68725 -1.29681 2.10734)
(3.01703 0.469285 1.24124)
(2.2056 1.83328 1.69269)
(1.91525 2.33816 2.53548)
(2.11057 -0.425154 1.90173)
(2.20646 0.0729766 1.38121)
(1.91496 0.953215 1.37046)
(2.02541 1.86193 1.36384)
(1.50653 2.75916 2.37835)
(2.2149 0.430126 0.5151)
(1.55627 0.693134 1.20777)
(1.36866 1.35052 1.06888)
(1.27138 1.97616 0.658746)
(1.28507 2.51718 1.51473)
(0.577305 2.79423 2.52728)
(0.623319 -0.0974342 0.784442)
(0.152713 0.728397 0.711441)
(0.325382 1.13442 0.858728)
(0.211018 1.78916 0.618669)
(0.0739509 2.06956 0.609917)
(0.356116 2.76471 0.991331)
(0.329498 3.00716 -0.0968186)
(-1.05149 -0.117126 0.742853)
(-0.659583 0.829715 0.5948)
(-1.20768 0.536945 1.00698)
(-1.16484 1.25993 0.341581)
(-1.16087 1.29537 -0.281352)
(-0.098546 1.93563 -0.0680678)
(0.363363 2.71407 0.0613929)
(0.0930028 2.72358 -0.00118991)
(-1.65942 0.265537 0.565335)
(-1.77422 0.20028 0.514178)
(-1.94281 0.581512 0.375244)
(-1.69081 1.46184 0.102374)
(-1.21373 1.59414 -0.418338)
(-0.89279 1.71195 -0.430353)
(-0.112417 2.26079 -0.213846)
(-0.300792 2.73037 -0.192687)
(-0.45323 2.5364 0.219784)
(-2.44775 0.100987 0.155872)
(-2.15728 0.832825 -0.226675)
(-1.66241 1.08848 0.28669)
(-1.60382 1.74367 0.14438)
(-1.49344 1.90378 -0.371383)
(-1.56598 2.03689 -0.654677)
(-1.05593 2.06597 -0.466977)
(-1.0486 2.25882 0.128731)
(-0.741579 2.50489 -0.0510907)
(-0.50298 2.20468 -0.183377)
(3.22051 0.446493 3.52112)
(3.44681 0.469972 4.29005)
(3.05412 0.787226 4.25169)
(3.46866 0.0111033 4.1205)
(3.41418 0.990501 4.26276)
(3.5106 -0.908894 2.98818)
(3.46062 0.596918 3.56868)
(3.2413 1.57984 3.88944)
(3.43914 -0.790778 1.66856)
(3.45809 -0.0510336 2.00679)
(2.97344 0.867319 2.78682)
(2.14309 2.1911 3.44535)
(2.84097 -0.96628 1.96862)
(2.92997 0.200883 1.43611)
(2.36439 1.40329 1.31236)
(1.99286 2.45181 1.93079)
(1.93696 2.67435 2.62074)
(2.56375 -0.159222 1.7449)
(2.17693 0.0250664 1.59093)
(1.82015 0.798986 1.5243)
(2.13476 1.58626 1.07498)
(1.74255 2.57951 2.3119)
(1.50826 2.61365 3.01347)
(2.15585 0.0889347 0.484815)
(1.57354 0.524246 1.20998)
(1.3017 1.14975 1.02588)
(1.21394 1.69265 0.578733)
(1.35226 2.37659 1.21459)
(0.682244 2.67649 2.52512)
(0.798698 2.35459 2.21784)
(0.43421 -0.497849 0.661994)
(-0.144887 0.408326 0.816857)
(-0.112621 0.820049 0.78405)
(-0.699502 1.27445 0.557196)
(0.0925979 1.8554 0.0156849)
(0.264942 2.46083 1.19505)
(0.344442 2.84986 0.203408)
(0.65227 2.52399 0.301273)
(-1.15237 -0.358232 0.703385)
(-1.08684 0.493016 0.474385)
(-1.13156 0.472883 1.03015)
(-1.14131 1.37897 0.348083)
(-1.06954 1.20118 -0.214681)
(-0.111094 1.79958 -0.162975)
(0.310291 2.71652 -0.140336)
(0.146396 2.64384 -0.148027)
(0.167888 2.64806 -0.0340946)
(-1.73338 0.133479 0.376598)
(-1.81099 0.24159 0.509188)
(-1.9285 0.593776 0.357506)
(-1.73277 1.40959 0.119882)
(-1.21728 1.53108 -0.474614)
(-0.890608 1.66466 -0.400659)
(-0.180335 2.22776 -0.294266)
(-0.282498 2.67441 -0.190129)
(-0.446234 2.51658 0.123451)
(-0.466664 2.11329 -0.193438)
(-2.44492 0.0950741 0.150826)
(-2.10887 0.880112 -0.235307)
(-1.65322 1.09094 0.19889)
(-1.6022 1.74816 0.147001)
(-1.50534 1.8999 -0.384478)
(-1.55869 2.04819 -0.590471)
(-1.04508 2.0448 -0.464587)
(-1.03661 2.23713 0.10346)
(-0.759878 2.49471 0.0321204)
(-0.508772 2.18976 -0.265807)
(-0.0399111 1.8573 -0.628278)
(3.11594 0.491297 3.17999)
(3.27923 0.141206 3.78508)
(3.05179 1.05901 3.46536)
(3.40748 0.285801 4.30628)
(3.28327 0.445568 4.26022)
(2.92142 0.942684 4.10689)
(3.18416 0.15516 4.10962)
(3.46648 0.906577 4.23736)
(2.94908 1.47445 4.17639)
(3.24688 -0.979024 2.76352)
(3.43936 0.0255577 3.35033)
(3.25955 1.32729 3.6815)
(2.89617 2.09351 3.78768)
(3.19154 -1.39838 1.82009)
(3.5065 -0.41653 1.68934)
(3.12252 0.371668 2.27157)
(2.35851 1.55358 3.38243)
(1.74973 2.08747 3.54276)
(2.75364 -1.24636 2.27452)
(2.80952 -0.183223 1.7134)
(2.56812 0.958767 1.05378)
(2.37322 1.81178 1.69)
(1.93417 2.67199 2.54289)
(2.43202 2.26255 2.60038)
(2.75276 -0.408784 1.6247)
(2.22597 -0.140203 1.63238)
(1.81917 0.737188 1.61881)
(2.15158 1.20397 1.13569)
(1.95073 2.67812 1.74428)
(1.70608 2.61672 2.81163)
(1.42031 2.25183 2.67045)
(2.00754 -0.241351 0.393548)
(1.34488 -0.21839 1.25734)
(1.23203 0.763249 1.15896)
(1.0826 1.16582 0.968502)
(1.4629 2.08518 0.75977)
(0.645061 2.73185 2.21062)
(0.766632 2.30249 2.17978)
(1.63499 2.04342 0.0835791)
(0.0816644 -0.965144 0.428118)
(-0.28708 -0.0934648 0.760411)
(-0.0539108 0.847731 0.318947)
(0.131573 1.20171 0.813515)
(-0.349776 1.38709 0.0161268)
(0.177729 2.4027 0.997576)
(0.236754 2.82192 -0.0926618)
(0.784617 2.47362 0.0595459)
(0.840626 2.58204 -0.07911)
(-1.221 -0.605868 0.636925)
(-1.22835 0.0656258 0.403496)
(-1.27571 0.526229 0.784541)
(-1.49699 1.10863 0.312325)
(-1.18841 1.0239 -0.308768)
(-0.262649 1.66535 -0.0769474)
(0.26607 2.67988 -0.0469578)
(0.0971966 2.60508 -0.159773)
(0.174307 2.60241 0.0241096)
(0.891685 2.03499 0.379716)
(-1.72953 0.134061 0.467688)
(-1.79951 0.252836 0.490451)
(-1.94097 0.596387 0.166104)
(-1.71204 1.41948 0.0354975)
(-1.26916 1.45799 -0.400557)
(-0.946371 1.54789 -0.507314)
(-0.238604 2.20972 -0.29837)
(-0.361634 2.62047 -0.266585)
(-0.478189 2.46207 0.071438)
(-0.466453 2.04373 -0.263152)
(0.257129 1.95818 0.324933)
(-2.43282 0.102885 0.145097)
(-2.10023 0.85849 -0.259428)
(-1.61937 1.09681 0.227662)
(-1.59746 1.77278 0.134091)
(-1.52441 1.88423 -0.395039)
(-1.55722 2.02432 -0.612643)
(-1.00483 1.99764 -0.490533)
(-1.03783 2.2417 0.102519)
(-0.721957 2.48242 0.00769956)
(-0.530964 2.17895 -0.256034)
(-0.058735 1.85343 -0.572395)
(0.351548 1.7688 -0.33327)
(2.23353 0.788462 3.30488)
(2.68286 0.384287 3.18423)
(3.33725 -0.0641621 3.14583)
(2.941 0.6874 3.40608)
(3.50734 0.0441178 3.79125)
(3.17757 0.514786 3.60142)
(3.00993 0.893949 3.61722)
(3.47387 0.0432524 4.28529)
(3.44869 0.382983 4.22896)
(2.92053 1.03207 4.17286)
(2.88639 1.17826 3.90323)
(3.10286 -0.0431408 4.02918)
(3.42098 0.387325 4.20009)
(3.16271 1.18666 4.15769)
(3.01503 1.17327 3.99909)
(3.1864 -0.990141 2.68428)
(3.38043 -0.203604 3.05169)
(3.30955 0.990924 3.46565)
(3.10603 1.85972 3.6413)
(2.58257 2.2928 3.41213)
(3.06726 -1.11354 2.15087)
(3.42695 -0.559683 1.6119)
(3.20968 0.0087879 1.90645)
(2.4714 1.15793 3.0449)
(1.85111 2.1282 3.455)
(2.38609 1.43411 3.02998)
(3.21447 -0.964905 2.1385)
(2.69985 -0.40521 1.81189)
(2.59402 0.394458 1.22823)
(2.42037 1.4556 1.46081)
(2.25125 2.63501 2.01164)
(2.30397 2.46701 2.53711)
(2.79564 1.9375 1.94846)
(2.86249 -0.719189 1.28186)
(2.28899 -0.2263 1.54951)
(1.79162 0.599622 1.78123)
(2.02437 1.03778 1.09764)
(1.978 2.28282 1.69046)
(1.81213 2.82072 2.35219)
(1.37752 2.29453 2.52734)
(2.24117 1.24532 1.8887)
(1.85599 -0.498873 0.200656)
(1.39357 -0.134452 0.74388)
(1.05267 0.524781 1.04168)
(0.734086 0.85162 0.773009)
(1.22071 1.71673 0.661972)
(0.612686 2.63533 2.00856)
(0.574469 2.33985 2.00471)
(1.53787 2.07661 0.199471)
(2.39072 1.62985 0.0202151)
(-0.119981 -1.18241 0.164581)
(-0.541337 -0.368604 0.71425)
(-0.253934 0.636985 0.524605)
(-1.03461 0.444704 0.809634)
(-0.406476 1.09746 0.0204158)
(0.0341239 2.23058 1.06401)
(0.227088 2.65445 0.217454)
(0.729265 2.50406 0.0480032)
(1.00663 2.2964 -0.0349244)
(1.2541 2.26848 0.582057)
(-1.2415 -0.896838 0.621355)
(-1.29059 -0.112531 0.338168)
(-1.44055 0.373726 0.509105)
(-1.3036 1.18149 0.359292)
(-1.27403 0.912397 -0.207117)
(-0.324707 1.56586 -0.334769)
(0.166744 2.62132 -0.0465021)
(0.217779 2.52811 -0.351842)
(0.255764 2.37332 0.031838)
(0.904915 2.01568 0.213802)
(0.862939 2.10206 0.115948)
(-1.76575 0.021385 0.34412)
(-1.80903 0.17216 0.422382)
(-1.94121 0.589445 0.0298019)
(-1.72058 1.42717 0.0114208)
(-1.20988 1.41341 -0.519177)
(-0.938942 1.51535 -0.538237)
(-0.288231 2.17184 -0.439542)
(-0.262127 2.60127 -0.360577)
(-0.485474 2.39755 0.0412609)
(-0.43941 1.97214 -0.28957)
(0.264031 1.91781 0.197367)
(0.79629 1.8567 -0.143436)
(-2.42737 0.074615 0.154125)
(-2.0632 0.889835 -0.315512)
(-1.60959 1.05663 0.0380008)
(-1.59622 1.76683 0.103135)
(-1.52894 1.86805 -0.396543)
(-1.55698 2.03378 -0.650944)
(-1.04589 1.97711 -0.517631)
(-1.06926 2.24371 0.0770729)
(-0.748312 2.47789 -0.0897992)
(-0.518582 2.17515 -0.24579)
(-0.040021 1.85618 -0.423241)
(0.355446 1.76898 -0.332667)
(0.569785 1.6137 0.00451542)
(2.04288 0.753364 3.22206)
(2.29458 0.609957 3.29557)
(2.23059 0.857784 3.27307)
(2.66525 0.225307 3.16567)
(2.48315 0.796425 3.43259)
(3.18206 0.126816 3.37756)
(2.90974 0.711805 3.48059)
(2.57214 0.842804 3.68231)
(3.48577 -0.180635 3.94833)
(3.1419 0.369435 3.83423)
(2.86383 0.920453 3.83189)
(2.69063 1.61985 3.40147)
(3.53512 -0.212149 4.22892)
(3.48942 0.152509 4.17437)
(3.125 0.528371 4.2211)
(2.97625 0.953428 4.02746)
(2.95133 1.2237 3.71724)
(3.08605 -1.02499 3.69566)
(3.2733 0.0511751 4.10226)
(3.28565 0.790969 4.14827)
(3.151 1.07569 3.99035)
(2.69461 1.52523 3.91861)
(3.16986 -1.35186 2.43337)
(3.26121 -0.441359 2.81699)
(3.29685 0.63815 3.31051)
(3.14845 1.59581 3.47238)
(2.60296 1.97041 3.66424)
(2.52744 1.94692 2.96833)
(3.13077 -1.28422 1.95143)
(3.27129 -0.890045 1.66292)
(3.27698 -0.0606662 1.55746)
(2.59153 1.09611 2.59456)
(2.05954 1.95151 3.27705)
(2.28415 1.76385 3.1819)
(1.86834 1.93861 3.04701)
(3.05236 -1.39159 2.19302)
(2.55402 -1.05619 1.87131)
(2.50228 -0.0102689 1.46966)
(2.52887 0.836301 1.36985)
(2.39963 2.15964 1.93306)
(2.58844 2.38704 1.96864)
(2.72197 1.48222 2.33098)
(1.74762 2.25384 2.29243)
(3.02425 -1.04547 0.725798)
(2.36668 -0.165953 1.2688)
(1.82075 0.668478 1.66656)
(1.88456 0.708883 1.13071)
(2.11132 1.91243 1.54071)
(1.40115 2.52716 2.47857)
(1.44209 2.39503 2.2862)
(2.09409 1.37122 1.86716)
(2.05929 1.93772 1.98117)
(1.61672 -0.878745 0.106785)
(0.783679 -0.789944 0.755209)
(0.77162 0.217687 0.883589)
(0.582138 0.76457 0.637768)
(1.19857 1.27613 0.595251)
(0.589775 2.75823 1.36696)
(0.458869 2.41264 1.19004)
(1.53603 2.08028 0.142635)
(2.49681 1.80455 0.0944136)
(1.99921 2.36549 0.525104)
(-0.268392 -1.30815 -0.193698)
(-0.782818 -0.783316 0.652928)
(-0.783187 -0.20255 0.285215)
(-0.341125 0.723692 0.883983)
(-0.829673 0.611259 0.177107)
(0.015227 2.11111 0.628373)
(0.0971172 2.54454 0.283325)
(0.858825 2.44143 -0.145072)
(1.08372 2.07361 -0.0398132)
(1.41873 2.18951 0.559949)
(1.20548 2.35211 1.09884)
(-1.33067 -1.12483 0.486789)
(-1.36961 -0.274126 0.322959)
(-1.40059 0.388005 0.410467)
(-1.52285 0.884413 0.339817)
(-1.39208 0.645777 -0.311401)
(-0.450114 1.46113 -0.461847)
(0.0979272 2.57774 -0.240549)
(0.117293 2.48308 -0.567661)
(0.205121 2.3089 0.0131521)
(0.78499 2.0318 0.112118)
(0.831162 2.10713 0.029927)
(0.842674 2.11535 0.573356)
(-1.81614 -0.0818411 0.334735)
(-1.85296 0.116416 0.369711)
(-1.91536 0.601427 -0.0575247)
(-1.73466 1.39663 0.0310604)
(-1.27457 1.31449 -0.429884)
(-0.989953 1.43939 -0.621517)
(-0.334042 2.13726 -0.514153)
(-0.442418 2.58218 -0.308411)
(-0.483305 2.33625 -0.0482454)
(-0.442742 1.90003 -0.272525)
(0.236641 1.87048 -0.0443116)
(0.82896 1.80934 0.100229)
(1.06637 1.76293 0.381086)
(-2.49339 0.0774542 0.169026)
(-2.04086 0.874437 -0.274595)
(-1.54137 1.06509 0.151328)
(-1.57261 1.78996 0.130348)
(-1.52573 1.85475 -0.414435)
(-1.6181 1.92064 -0.773776)
(-1.02153 2.00163 -0.50824)
(-1.048 2.23304 0.059228)
(-0.74051 2.48481 0.0738031)
(-0.543325 2.15857 -0.257747)
(-0.074283 1.8653 -0.315976)
(0.358562 1.77273 -0.339095)
(0.611667 1.60855 -0.00126134)
(0.696515 1.54537 0.126116)
(2.1331 0.863614 2.94851)
(2.18669 0.590636 3.21178)
(2.06674 0.777102 3.24546)
(2.3357 0.333475 3.3313)
(2.18813 0.802657 3.35389)
(2.06162 0.929874 3.31258)
(2.68008 0.138748 3.18038)
(2.52988 0.544875 3.42004)
(2.45114 0.99732 3.39891)
(3.36124 0.140528 3.27316)
(3.08454 0.0803261 3.47281)
(2.7797 0.774466 3.57257)
(2.62186 1.02008 3.68961)
(3.47216 -0.410944 3.92494)
(3.36328 -0.122631 3.8988)
(3.12323 0.464066 3.80956)
(3.44576 0.654914 3.24883)
(2.7052 1.37413 3.52187)
(3.38244 -1.74948 3.68905)
(3.57618 -0.366944 4.0498)
(3.30926 0.301356 4.13655)
(2.97206 1.08653 4.11273)
(2.90546 0.951929 3.93198)
(2.78623 1.42302 3.62542)
(2.90541 -1.56456 3.26934)
(3.2757 -0.448606 3.8025)
(3.34891 0.245655 4.07597)
(3.19602 0.971625 3.99758)
(3.10099 0.964109 3.8522)
(2.62761 1.46504 3.76485)
(3.15792 -1.61953 2.29606)
(3.3725 -0.990916 2.39733)
(3.23792 0.263925 3.03666)
(3.23089 1.02986 3.3437)
(2.95986 1.62665 3.47171)
(2.51266 2.08608 3.05779)
(2.49554 1.63789 3.02363)
(3.12822 -1.42799 2.02431)
(3.00727 -1.26271 1.77159)
(3.24246 -0.366763 1.39479)
(2.83216 0.937026 2.15216)
(2.20443 1.46082 3.01685)
(2.31263 1.9513 3.15604)
(2.15529 1.71123 3.0079)
(1.90979 1.73082 3.05446)
(3.26365 -1.60497 1.75512)
(2.53297 -1.37079 1.76902)
(2.43012 -0.248295 1.60438)
(2.52464 0.691431 1.07162)
(2.58635 1.84459 1.59447)
(2.9731 1.86735 1.64005)
(2.90657 1.4377 1.96949)
(1.73498 2.38194 2.22853)
(1.61506 2.44029 2.38014)
(2.82377 -1.76279 -0.241897)
(2.37119 -0.345574 0.795621)
(1.79348 0.480026 1.40402)
(1.60702 0.215287 1.34082)
(1.80353 1.74934 1.52781)
(1.96739 2.28643 1.82262)
(1.27644 2.21925 2.37763)
(1.94699 1.50521 1.85449)
(2.0272 2.0619 2.00186)
(1.68539 2.46413 2.04861)
(1.20718 -1.48546 -0.141818)
(0.571354 -0.791283 0.351451)
(0.427047 -0.135029 0.424115)
(0.394602 0.631462 0.49993)
(0.778378 1.46444 0.335888)
(0.377543 2.44058 1.33031)
(0.384502 2.39008 0.782494)
(1.4632 2.0848 0.155392)
(2.39631 1.94879 0.274373)
(1.91411 2.49695 0.72623)
(1.90724 2.49125 0.958671)
(-0.379168 -1.49107 -0.548092)
(-1.05518 -0.987782 0.558354)
(-0.940844 -0.455973 0.161895)
(-0.958037 0.42983 0.410308)
(-0.910636 0.521063 0.138614)
(-0.237836 1.87044 0.669849)
(-0.0326524 2.46177 0.201715)
(0.595121 2.53375 -0.406733)
(1.15857 2.0136 -0.238429)
(1.37645 2.24776 0.358092)
(1.22029 2.33759 1.10916)
(1.30875 2.2622 0.951186)
(-1.27812 -1.24821 0.0779021)
(-1.47413 -0.431384 0.349018)
(-1.44498 0.148986 -0.0409805)
(-1.56907 0.845093 0.332236)
(-1.39168 0.583654 -0.161885)
(-0.535707 1.38632 -0.77987)
(0.067802 2.51516 -0.268899)
(0.183542 2.46613 -0.533505)
(0.202134 2.24019 -0.143041)
(0.811889 1.9477 -0.167614)
(0.787672 2.07699 0.234966)
(0.860639 2.11205 0.517827)
(1.12527 1.89842 0.763957)
(-1.89231 -0.220571 0.339777)
(-1.90809 0.0428213 0.28345)
(-1.85946 0.655995 -0.154111)
(-1.68642 1.39992 0.021023)
(-1.21386 1.2695 -0.532027)
(-1.04488 1.32908 -0.720048)
(-0.344035 2.1364 -0.47909)
(-0.325135 2.56991 -0.401971)
(-0.500687 2.2646 -0.0755427)
(-0.491426 1.80978 -0.256631)
(0.239082 1.83214 -0.0803322)
(0.809476 1.81608 0.0443075)
(1.05833 1.75632 0.366507)
(1.29381 1.51789 0.494846)
(-2.50267 0.0516846 0.184842)
(-2.00648 0.84623 -0.269398)
(-1.52436 1.08798 0.0475249)
(-1.60463 1.74124 0.137699)
(-1.53021 1.83243 -0.39929)
(-1.56652 1.96399 -0.67701)
(-1.03641 1.98138 -0.522261)
(-1.05708 2.25197 0.0219171)
(-0.778824 2.47196 0.0416791)
(-0.503156 2.13849 -0.284882)
(-0.0714257 1.86945 -0.285694)
(0.368448 1.77068 -0.34943)
(0.604681 1.62303 -0.000762258)
(0.706937 1.55465 0.142943)
(0.602891 1.24496 0.054164)
(2.27816 0.605968 2.65402)
(2.23351 0.490476 2.9734)
(2.14823 0.753556 2.96623)
(2.32564 0.469646 3.23877)
(2.0976 0.654888 3.1942)
(2.08647 0.708449 3.21258)
(2.21668 0.00704242 3.43605)
(2.28895 0.617565 3.35409)
(2.23069 0.720827 3.28413)
(2.36377 0.924029 3.09852)
(2.70347 0.0616982 3.26589)
(2.569 0.389149 3.34718)
(2.49286 0.690597 3.48504)
(2.50606 0.780704 3.35241)
(3.2367 -0.325328 3.52491)
(3.08433 0.221522 3.57425)
(2.78805 0.544573 3.66051)
(2.77125 0.8348 3.60362)
(2.66604 0.948437 3.57833)
(3.27177 -0.874109 3.83561)
(3.40882 -0.3301 4.07504)
(2.97181 0.115175 4.09396)
(2.68709 0.69692 4.15481)
(2.79288 1.15136 3.49586)
(2.66714 1.06989 3.54651)
(3.12035 -0.941704 3.77262)
(3.58069 -1.08072 3.85379)
(3.36327 0.0401404 4.02259)
(3.21438 0.797778 4.01044)
(2.8972 1.13354 4.00323)
(2.86264 1.12188 3.68873)
(2.74696 1.57447 3.47182)
(2.76855 -1.90574 3.04473)
(3.17658 -1.68488 3.2832)
(3.393 0.14755 3.85655)
(3.3671 0.553207 3.85359)
(3.21735 0.905759 3.83895)
(2.74858 1.40628 3.74718)
(2.61696 1.23813 3.49803)
(3.25104 -2.06945 2.12725)
(3.31249 -1.52332 1.98266)
(3.31999 -0.296061 2.59506)
(3.09125 0.455691 3.21166)
(3.0625 1.38395 3.23669)
(2.55053 1.92899 3.28282)
(2.50018 1.56557 2.99622)
(2.44603 1.69893 2.93921)
(3.03017 -1.94501 1.9214)
(2.84446 -1.53909 1.71802)
(3.10985 -0.817466 1.41539)
(2.90274 0.662107 1.92338)
(2.39699 1.12107 2.6519)
(2.34987 1.55595 3.11261)
(2.17088 1.83143 3.16761)
(2.26183 1.18145 3.11039)
(2.02931 1.94669 2.86982)
(3.17241 -1.94272 1.54502)
(2.57662 -1.47491 1.58232)
(2.43748 -0.516632 1.65615)
(2.38481 0.465447 0.941363)
(2.65974 1.35418 1.55647)
(2.7344 1.80307 1.77197)
(3.10295 1.22194 1.54812)
(1.83481 2.34288 2.2277)
(1.6933 2.31993 2.43688)
(1.78073 2.181 2.64734)
(2.70864 -2.18013 -0.557455)
(2.21539 -0.871053 0.420842)
(1.38489 -0.283575 1.40847)
(1.43682 -0.00959624 1.11884)
(1.85352 1.14726 1.37281)
(1.86078 2.12277 1.67391)
(1.41334 2.02543 2.13238)
(1.91788 1.57982 1.80909)
(1.97524 1.97425 1.94264)
(1.6741 2.57298 2.12582)
(1.51274 2.29026 2.2565)
(0.348462 -2.426 -0.575154)
(0.183307 -0.991028 0.15155)
(0.133075 -0.314217 0.128459)
(0.130268 0.278499 0.62632)
(0.64609 0.700488 0.107683)
(0.191055 2.45775 0.972671)
(0.276247 2.27805 0.708315)
(1.71557 2.006 0.162555)
(2.41571 1.75979 -0.124388)
(1.87576 2.44511 0.70558)
(1.99845 2.4 0.943788)
(2.09183 2.23169 1.14295)
(-0.446677 -1.55752 -0.746296)
(-1.24074 -1.22832 0.518366)
(-1.14085 -0.655708 -0.0499573)
(-1.08339 0.0313623 0.321087)
(-1.15928 0.33632 -0.0356604)
(-0.456473 1.5589 1.00797)
(-0.0288089 2.37821 0.175951)
(0.631361 2.38342 -0.46282)
(1.19918 1.89683 -0.369658)
(1.50395 2.08693 0.0837928)
(1.21071 2.352 0.938839)
(1.34407 2.25174 0.937219)
(1.34109 1.91662 1.18947)
(-1.28922 -1.32056 -0.413947)
(-1.55633 -0.575076 0.295318)
(-1.46655 0.0686748 -0.114608)
(-1.56144 0.701741 0.250153)
(-1.39799 0.625881 0.0257465)
(-0.61202 1.31237 -0.923798)
(-0.0125377 2.46874 -0.221785)
(0.194785 2.42423 -0.630648)
(0.19854 2.15544 -0.109579)
(0.70144 1.87575 -0.178035)
(0.768759 1.98271 0.500994)
(0.856817 2.09893 0.569894)
(1.13423 1.88367 0.732688)
(1.47211 1.51548 0.721801)
(-2.01002 -0.252561 0.352928)
(-1.90221 0.0198177 0.302694)
(-1.8375 0.627746 -0.304849)
(-1.70851 1.32659 0.00614344)
(-1.23726 1.23126 -0.520507)
(-1.05999 1.2968 -0.759003)
(-0.500633 2.03388 -0.654981)
(-0.553912 2.485 -0.429409)
(-0.518909 2.19316 -0.178054)
(-0.489068 1.73377 -0.319983)
(0.224959 1.79885 -0.182423)
(0.813281 1.80833 0.0359571)
(1.0444 1.75922 0.362499)
(1.27573 1.60503 0.0726277)
(1.46336 1.45091 0.399313)
(-2.47257 0.069554 0.170015)
(-1.99517 0.849373 -0.17913)
(-1.53294 1.09017 -0.0459761)
(-1.53488 1.78879 0.126754)
(-1.53553 1.8281 -0.389297)
(-1.46317 2.062 -0.596171)
(-0.988507 2.05716 -0.485069)
(-1.10157 2.24763 0.0431538)
(-0.735468 2.45061 -0.00403185)
(-0.502912 2.14299 -0.298142)
(-0.082235 1.86486 -0.303147)
(0.371016 1.76901 -0.355969)
(0.601693 1.63415 -0.00811813)
(0.714854 1.55879 0.166102)
(0.599195 1.2479 0.00575161)
(0.152466 0.897522 -0.249935)
(1.98637 0.639348 2.50418)
(2.29107 0.454141 2.68644)
(2.16194 0.563908 2.70939)
(2.36582 0.233988 2.96436)
(2.2101 0.666765 2.97759)
(2.12683 0.602843 2.91815)
(2.35104 0.33417 3.15344)
(2.26838 0.435442 3.26357)
(2.13839 0.632681 3.1623)
(2.15756 0.640763 3.03506)
(2.42412 0.20666 3.31695)
(2.29044 0.391963 3.40878)
(2.32525 0.584409 3.28815)
(2.30603 0.791176 3.2417)
(2.13146 0.911375 3.1909)
(2.67627 0.0535017 3.37191)
(2.63845 0.218547 3.41612)
(2.58198 0.547182 3.48538)
(2.51573 0.779971 3.36676)
(2.36063 1.03659 3.32179)
(2.98793 -0.381661 3.793)
(3.07058 -0.128369 3.72821)
(2.86385 0.321051 3.70085)
(2.84909 0.900197 3.5387)
(2.55711 0.949011 3.76152)
(2.73411 0.962152 3.16456)
(3.0992 -1.24222 3.89728)
(3.30826 -0.433101 4.14622)
(3.20069 0.0662606 4.08076)
(3.08248 0.321284 3.96151)
(2.76329 0.566792 3.83494)
(2.72506 1.272 3.50873)
(2.80636 0.806524 3.33131)
(3.02012 -1.76957 3.49676)
(3.36129 -1.00069 3.77727)
(3.51105 -0.599569 3.91032)
(3.349 0.341854 3.93326)
(3.08247 0.871963 3.97722)
(2.8091 1.04459 3.85206)
(2.8493 1.32083 3.5019)
(2.74124 1.18111 3.51369)
(2.82024 -2.35613 2.82373)
(3.05622 -1.58263 3.11232)
(3.35627 -0.810294 3.58901)
(3.38286 0.376318 3.71009)
(3.28138 0.757084 3.82004)
(2.93687 1.37799 3.65641)
(2.83398 0.607075 3.37519)
(2.80471 0.952822 3.3341)
(3.24951 -2.22353 2.06914)
(3.15919 -1.85877 1.80103)
(3.38137 -0.809297 2.15423)
(3.21292 -0.119403 2.71248)
(3.01361 0.846352 3.10394)
(2.69594 1.81472 3.24497)
(2.85254 0.888194 3.08947)
(2.57949 1.37342 2.88496)
(2.40917 1.12989 3.20516)
(2.8506 -2.41458 1.93223)
(2.73417 -1.66673 1.82782)
(2.9596 -1.20013 1.50519)
(2.96271 -0.114342 1.68198)
(2.84027 0.954456 2.02601)
(2.41863 1.28518 2.90824)
(2.33616 1.60001 3.28956)
(2.37226 1.04778 3.17562)
(2.19565 1.53974 2.91696)
(2.30498 2.11053 2.50633)
(3.06637 -2.29578 1.08949)
(2.66356 -1.99898 1.06629)
(2.42488 -0.569218 1.60629)
(2.22676 -0.142301 0.912646)
(2.62459 0.695517 1.68111)
(2.83287 1.79346 1.39459)
(3.17628 1.23084 1.10533)
(1.99009 2.04539 2.22235)
(1.99287 2.10197 2.3428)
(1.86458 2.0979 2.69136)
(1.50994 2.234 2.56913)
(2.34452 -2.40713 -0.526282)
(2.01343 -1.21773 0.212228)
(1.19554 -0.264711 1.02483)
(1.15207 -0.446216 0.936149)
(1.39978 0.652023 1.42779)
(1.93135 1.99539 1.3678)
(1.30021 1.90114 2.10614)
(1.88872 1.77775 1.612)
(2.05269 2.04391 1.58208)
(1.79336 2.35027 2.16304)
(1.55639 2.38056 2.26353)
(1.82156 2.23636 1.9234)
(0.211975 -2.49974 -0.732998)
(-0.116916 -1.10484 0.0571918)
(-0.199393 -0.578395 -0.146303)
(-0.166045 -0.182797 0.582809)
(-0.0342962 0.181414 0.12261)
(0.0800342 2.32044 0.946042)
(0.142796 2.25503 0.598356)
(1.43679 2.20996 -0.219184)
(2.30381 1.69762 -0.351405)
(1.96038 2.21477 0.437068)
(1.98234 2.36496 0.843423)
(2.10176 2.1933 1.12239)
(2.03318 1.91814 1.2126)
(-0.312068 -1.61789 -0.96577)
(-1.354 -1.33864 0.420269)
(-1.28492 -0.761778 -0.141396)
(-1.14089 -0.107755 0.300913)
(-1.21615 0.225062 -0.110223)
(-0.493775 1.57783 0.585069)
(-0.298118 2.33213 0.155892)
(0.454677 2.2983 -0.684544)
(1.24694 1.79884 -0.510544)
(1.4801 2.02232 0.0476083)
(1.21557 2.29027 0.740693)
(1.35404 2.19047 1.03246)
(1.38431 1.92437 1.09212)
(1.57547 1.588 0.993419)
(-1.28085 -1.37703 -0.860534)
(-1.56543 -0.63869 0.217675)
(-1.49449 -0.044553 -0.152763)
(-1.4702 0.617428 0.269464)
(-1.44102 0.634904 0.0457112)
(-0.607855 1.36659 -0.876494)
(-0.0600189 2.39608 -0.524106)
(0.135769 2.40141 -0.726204)
(0.072849 2.07785 -0.235908)
(0.676465 1.80609 -0.314475)
(0.799572 1.92992 0.261904)
(0.792854 2.06007 0.668934)
(1.1219 1.89164 0.730471)
(1.53515 1.5092 0.480084)
(1.64817 1.347 0.866814)
(-1.99612 -0.423789 0.0809424)
(-1.86804 0.0302432 0.231739)
(-1.8346 0.612944 -0.271713)
(-1.57915 1.40198 0.0905993)
(-1.27143 1.21434 -0.317624)
(-1.13795 1.20526 -0.844528)
(-0.363583 2.12205 -0.468327)
(-0.372995 2.46917 -0.283433)
(-0.549882 2.13374 -0.171107)
(-0.462458 1.71913 -0.354505)
(0.179327 1.78475 -0.210118)
(0.81491 1.81303 -0.0144319)
(1.0345 1.75773 0.351494)
(1.27646 1.50882 0.425211)
(1.48323 1.40897 0.320982)
(0.931071 0.882732 0.251087)
(-2.4247 0.0752229 0.26606)
(-2.00721 0.849607 -0.143378)
(-1.5121 1.05442 -0.040132)
(-1.54727 1.74624 0.0850517)
(-1.53251 1.83499 -0.388907)
(-1.62966 1.88108 -0.710314)
(-1.01795 2.03844 -0.499258)
(-1.08165 2.22343 0.0366066)
(-0.758434 2.44433 0.00770688)
(-0.511049 2.15965 -0.290447)
(-0.0681258 1.86286 -0.302744)
(0.361041 1.76664 -0.376923)
(0.614664 1.63128 -0.0233424)
(0.710162 1.57741 0.152761)
(0.594283 1.2543 -0.0148493)
(0.13934 0.900295 -0.263076)
(0.798364 0.517979 -1.01172)
(1.79505 0.590831 2.21265)
(1.99567 0.482297 2.52545)
(2.05914 0.709478 2.476)
(2.27871 0.315497 2.70001)
(2.2658 0.42154 2.7109)
(2.00508 0.528174 2.81171)
(2.48661 0.221028 2.9279)
(2.37769 0.183571 2.9498)
(2.21648 0.602593 2.96808)
(2.08461 0.652141 2.87816)
(2.40897 -0.0179232 3.18101)
(2.39731 0.262946 3.21587)
(2.20135 0.487551 3.1764)
(2.21445 0.665695 3.09777)
(2.12138 0.605921 3.02703)
(2.49956 -0.152301 3.33519)
(2.23682 0.178662 3.47567)
(2.42155 0.398207 3.29941)
(2.34015 0.592933 3.31768)
(2.3521 0.746942 3.18899)
(2.39356 0.647719 3.05319)
(2.7884 -0.481022 3.42316)
(2.76138 0.0577406 3.43047)
(2.59963 0.038966 3.5451)
(2.66304 0.501697 3.425)
(2.48451 0.857828 3.38023)
(2.64237 0.384305 3.16403)
(3.08415 -1.05757 3.69181)
(2.97922 -0.598835 3.91104)
(2.89572 -0.0444839 3.84845)
(2.82169 0.537782 3.71184)
(2.73528 0.876729 3.60517)
(2.7996 0.868982 3.42797)
(2.45778 1.03985 3.15242)
(3.08354 -1.59882 3.72457)