/*--------------------------------*- C++ -*----------------------------------*\
  =========                 |
  \\      /  F ield         | OpenFOAM: The Open Source CFD Toolbox
   \\    /   O peration     | Website:  https://openfoam.org
    \\  /    A nd           | Version:  7
     \\/     M anipulation  |
\*---------------------------------------------------------------------------*/
FoamFile
{
    version     2.0;
    format      ascii;
    class       volScalarField;
    location    "3.5";
    object      nut;
}
// * * * * * * * * * * * * * * * * * * * * * * * * * * * * * * * * * * * * * //

dimensions      [0 2 -1 0 0 0 0];

internalField   nonuniform List<scalar> 
18870
(
0.000183799
0.000525978
0.000182547
0.000190042
0.000731296
0.000718189
0.000736573
0.000165925
0.000264189
0.000531418
0.00105823
0.00117578
0.000270275
0.000765037
0.000550788
0.000577845
0.000215004
0.000354641
0.000572711
0.000589188
0.000658527
0.00107154
0.000862152
0.000680091
0.000573582
0.000345881
0.000676651
0.000556402
0.000510405
0.000354425
0.000206299
0.000438964
0.000548286
0.000279997
0.000509428
0.00113885
0.000559067
0.000622971
0.00102649
0.000453583
0.000217199
0.000624635
0.000606634
0.00053552
0.000517602
0.000626235
0.000436402
0.000352119
0.000415994
0.000480152
0.000161494
0.000337783
0.000401278
0.000142471
0.000519214
9.79141e-05
0.00113691
0.00116362
0.000656551
0.000423811
0.00048712
0.00059333
0.000565526
0.000236101
0.000141054
0.000427634
0.000555873
0.000484803
0.000571668
0.000577511
0.000747515
0.000481947
0.000404803
0.000331866
0.00048822
0.000350068
0.000209067
0.000197596
0.000162954
0.000437759
0.00033299
0.000421429
0.000275129
0.000379336
0.000936176
0.00137156
0.000937101
0.00088123
0.000385781
0.000406353
0.00036406
0.00043491
0.000472655
0.000492477
0.000594163
0.000291812
0.000217044
0.000702359
0.00125678
0.000737385
0.000614281
0.000665486
0.000673689
0.000479355
0.000284711
0.000400881
0.000310789
0.000357957
0.000436717
0.000383537
0.000223995
0.000403254
0.000219154
0.00024307
0.000571543
0.000229223
0.000268851
0.000244476
0.000381399
6.98689e-05
0.000480098
0.000876
0.000891731
0.00107892
0.000933832
0.00116795
0.000652776
0.00105374
0.00122867
0.000552862
0.000354543
0.000862935
0.000498466
0.000408217
0.000348837
0.000478265
0.000199477
0.000190624
0.000733249
0.000256874
0.00053585
0.000550519
0.000731497
0.000839706
0.00082367
0.000314901
0.000324709
0.000433935
0.000292465
0.000279765
0.000414017
0.000456161
0.000577833
0.000435839
0.000412779
0.000381463
0.000249991
0.000248532
0.000541098
0.000118872
0.000195821
0.000301854
0.00032862
0.00014379
0.000165778
0.000477393
0.000525771
0.000923364
0.000907805
0.00108311
0.000919078
0.00101222
0.00103835
0.000977607
0.000918998
0.000667684
0.00105135
0.000567417
0.000618778
0.000516788
0.000534672
0.000817063
0.000981121
0.000635651
0.000520144
0.000371144
0.000298195
0.00010347
7.10614e-05
0.000182488
0.000767894
0.000496891
0.00097624
0.000663526
0.000824882
0.00116636
0.00103119
0.000759476
0.000420717
0.00071048
0.000306139
0.000226047
0.000152487
0.000519309
0.000770991
0.000647245
0.00035077
0.000343797
0.000413711
0.000325472
0.00020516
0.000235197
0.000534065
0.00020904
0.000169679
0.000313136
0.000339339
0.000140065
0.000187245
0.000142192
0.000817096
0.00054933
0.000483104
0.000777431
0.00063271
0.000775585
0.000750433
0.000801401
0.00084155
0.00149765
0.000885635
0.00106056
0.0015682
0.00131866
0.000854545
0.000705753
0.000932699
0.0010995
0.000670199
0.000264773
0.00036544
0.000511721
0.000455697
0.000428382
0.000490206
0.00022989
0.000379321
0.000557151
0.000436044
0.000293888
0.000383554
0.000369386
0.000508422
0.000336933
0.000550648
0.000626189
0.000567366
0.00102793
0.00112172
0.000946367
0.000645456
0.000903011
0.000945024
0.000369677
0.000280191
0.00029048
0.000294774
0.000623796
0.000837094
0.000604443
0.000446588
0.000203664
0.000716564
0.000450005
0.000294886
0.000213011
0.000236164
0.00045928
0.000241257
0.000250435
0.000206617
0.000331358
0.000143114
0.000150495
0.000154936
0.000203534
0.00084449
0.000770082
0.000625938
0.000680919
0.000653635
0.000790722
0.000591837
0.000553555
0.000786768
0.00106354
0.000638246
0.00117148
0.00123536
0.00161716
0.00105564
0.000934963
0.00094496
0.00123997
0.00122581
0.000902851
0.00121748
0.00118502
0.00106972
0.00131894
0.000545307
0.000318542
0.000262579
0.000861268
0.00107911
0.00123291
0.000402346
0.000248911
0.000157447
0.000416266
0.000727606
0.000751529
0.000477589
0.000171386
0.000345153
0.00032511
0.000442566
0.000664762
0.000859761
0.000521454
0.000418576
0.00069104
0.000751928
0.00144192
0.00169321
0.000679201
0.000804994
0.00065068
0.000359306
0.000416958
0.000296923
0.000229975
0.000604265
0.000586157
0.000403961
0.00084155
0.000378257
0.000167201
0.000288987
0.000494397
0.000210942
0.000203768
0.000299607
0.00023575
0.000333449
0.000101815
0.000208719
0.000258721
0.00016851
0.000191855
0.000117952
0.000188547
0.000152421
0.00017649
0.000749444
0.000511633
0.000553629
0.000720545
0.000758643
0.000435469
0.000723335
0.000709876
0.000505873
0.00111201
0.000627299
0.000651823
0.000765624
0.00116953
0.00157325
0.000726327
0.000939894
0.00130135
0.00151062
0.00132696
0.00073831
0.0011203
0.00119261
0.00150553
0.00105355
0.000765715
0.00054666
0.000690941
0.00117817
0.000902268
0.000629605
0.000415917
0.000402145
0.000399588
0.000744257
0.00104743
0.000532881
0.000718084
0.00094405
0.000624446
0.000194968
0.000560098
0.000746097
0.000590808
0.000742598
0.000401907
0.000627041
0.000684109
0.000109624
0.000705883
0.000578603
0.000381755
0.000399237
0.000425597
0.000429406
0.000868933
0.000797572
0.00135425
0.00148161
0.0010913
0.000561149
0.000564647
0.000553942
0.000605402
0.000352217
0.000367094
0.000318631
0.0004495
0.000832889
0.000275919
0.000736985
0.000650078
0.000304254
0.000588456
0.000218173
0.000203168
0.000223591
0.000296611
0.00014533
0.000302996
0.000217906
0.000133737
0.000170352
0.000293023
0.00012698
0.000195289
0.000138067
0.000217785
0.000142901
0.000152619
5.02592e-05
0.000546533
0.000846662
0.000583619
0.000677009
0.00034184
0.000864328
0.000672288
0.000948603
0.000909047
0.00109535
0.000605425
0.000771741
0.000513308
0.00091866
0.00170323
0.000628803
0.0010344
0.000704143
0.00168738
0.00152011
0.00073855
0.000644149
0.000729109
0.00134474
0.00175989
0.000883943
0.000897771
0.000949317
0.00071538
0.00137098
0.0014495
0.000848485
0.000552999
0.000650217
0.000720104
0.00075284
0.00043143
0.00193734
0.00069216
0.000403493
0.000437891
0.000512245
0.000880757
0.000661171
0.000865461
0.000894182
0.00103724
0.000795794
0.000474707
0.000444432
0.000556138
0.000822494
0.00054145
0.00036056
0.000539592
0.000616824
0.000448268
0.000211199
0.000315301
0.00013833
0.000397583
0.0010753
0.000582132
0.000405427
0.000417808
0.000339041
0.000507488
0.000525301
0.000699302
0.000290171
0.000751512
0.000757868
0.000382273
0.000304864
0.00041564
0.00034513
0.000488399
0.000365326
0.00040153
0.000653595
0.000737704
0.000157788
0.000506137
0.000591413
0.000564616
0.000427658
0.000242613
0.000159682
0.000214135
0.000304549
0.000220887
0.000100858
0.00041345
6.52877e-05
0.000162384
0.000177432
0.000265074
3.66657e-05
0.000116369
0.000173273
0.000210126
0.000148977
0.000136931
9.67839e-05
0.000115537
0.00035953
0.000601751
0.000629573
0.000492142
0.000305378
0.00128945
0.000584947
0.00104467
0.00144987
0.00117005
0.000820231
0.000981281
0.000939794
0.000983674
0.00133492
0.000812566
0.00135782
0.000718601
0.00125012
0.00132212
0.00068776
0.000747364
0.000847472
0.00134805
0.00155996
0.0012805
0.00107756
0.000799635
0.00117456
0.00122757
0.00187444
0.00121618
0.000933039
0.00022148
0.000959218
0.000981779
0.0012852
0.00155458
0.00113573
0.000502524
0.000538732
0.000905097
0.000861182
0.000989834
0.00091852
0.00119658
0.000678399
0.000580636
0.000339969
0.000487247
0.000555935
0.000709673
0.000794399
0.000997444
0.000959386
0.00100533
0.000933179
0.000810758
0.000295221
0.00033056
0.000584419
0.00102177
0.00166507
0.000544813
0.00111066
0.00070099
0.00034416
0.000337913
0.000609053
0.000642553
0.000693115
0.000656898
0.00148025
0.000842606
0.000436323
0.000712491
0.000289795
0.000658973
0.000277555
0.000612891
0.000783812
0.000465995
0.000813234
0.000374106
0.000433707
0.000124521
0.000263631
0.000357894
0.000371041
0.00035179
0.000416569
0.000411884
0.00072702
0.000468136
0.000253169
0.000332213
0.000402442
0.000546267
0.000292336
0.000339328
0.00020625
0.000221222
0.000221832
0.000212973
0.000376056
0.000148869
0.000427413
8.67497e-05
0.000145825
0.000202104
0.000142837
2.98381e-05
0.0001482
0.000159486
0.000178817
0.000104862
0.000146027
8.42047e-05
0.000256682
0.000283141
0.000499494
0.000624216
0.000581955
0.00061398
0.000483992
0.000473339
0.000747626
0.000990496
0.000951993
0.00168338
0.000810409
0.00133009
0.00126816
0.00149901
0.00167355
0.00132862
0.00119427
0.000772394
0.000933354
0.000995086
0.0013501
0.000598192
0.00146746
0.00141667
0.00110541
0.000801399
0.000537468
0.000477633
0.00118558
0.0017798
0.00174492
0.00209501
0.00158415
0.000752619
0.00103978
0.00084367
0.00150023
0.00136872
0.00121076
0.00102322
0.000742013
0.000430698
0.000905785
0.000632159
0.000852421
0.00094918
0.00128222
0.0015916
0.000557766
0.00059373
0.000794169
0.000752896
0.000737729
0.000865604
0.0017046
0.000956651
0.00169155
0.000858301
0.000689129
0.000585126
0.000532021
0.000613925
0.000659459
0.00158502
0.00167207
0.000763244
0.00113249
0.000720786
0.000326316
0.000229254
0.000362999
0.000589087
0.00040406
0.000592537
0.00111305
0.000988956
0.000610654
0.000450453
0.000412417
0.000330775
0.000458612
0.000608635
0.000489981
0.00086019
0.000162276
0.000391853
0.000773004
0.000817744
0.000272451
0.000358507
0.000240244
0.000134614
0.000744692
0.00088848
0.00029201
0.00107588
0.000413476
0.00106403
0.000478705
0.000370191
0.000410053
0.000414565
0.00013718
0.000391612
0.000739593
0.00043721
0.000730691
0.000407212
3.63689e-05
0.000262567
0.000326188
0.000367094
0.000212823
0.000434781
0.000250858
0.00024249
0.000252365
0.000162101
0.000428927
0.000409395
0.000206682
0.000370691
0.000190185
9.28321e-05
0.000191676
0.000117285
0.000215234
0.000183393
0.000123801
0.000122512
0.000150178
0.000126853
0.00012659
0.000154785
0.000280251
0.000211533
0.000547512
0.000698514
0.000373856
0.000715752
0.000853284
0.000855715
0.000645801
0.000267731
0.000360576
0.00222714
0.00146611
0.00113017
0.00196928
0.00212839
0.000970197
0.000424815
0.00103727
0.00110787
0.00098222
0.000907547
0.000450714
0.000763579
0.000728674
0.000791194
0.000758505
0.000600375
0.000954416
0.000842935
0.00120938
0.00221032
0.00154477
0.00155668
0.000986204
0.000545812
0.000477207
0.000889457
0.00120909
0.00147335
0.00168261
0.00160329
0.000815164
0.000527941
0.000545458
0.00127898
0.00125413
0.00104711
0.000918213
0.00090308
0.00101402
0.00046865
0.000787506
0.00131909
0.000808592
0.000643427
0.00102084
0.00178565
0.00124659
0.000787037
0.000649227
0.000563648
0.000710473
0.000665528
0.000432737
0.000642263
0.000839058
0.000626923
0.000636125
0.000948673
0.000683516
0.000427753
0.000564274
0.000573575
0.00044746
0.00098751
0.000745061
0.000951081
0.000815621
0.000329855
0.000622897
0.000524117
0.000364674
0.000555268
0.00148402
0.000497072
0.000662684
0.00160999
0.000636918
0.000614703
0.000778532
0.000442798
0.000353819
0.000426839
0.000395754
0.000596364
0.00120512
0.000565558
0.000661964
0.00060057
0.000848079
0.000415682
0.000677224
0.000411172
0.000343126
0.000318263
0.000499523
0.000154501
0.00116887
0.000303696
0.000449846
0.000265083
0.000639582
0.000283305
0.000618781
0.000367968
0.000327252
0.00047717
0.000464932
0.000306906
0.000347191
0.000443821
0.000516035
0.000794214
0.000147485
8.90402e-05
0.000300487
0.000356909
0.000194244
0.000322897
0.00024177
0.00021838
0.000243027
0.000326822
0.000209313
0.000363458
0.000394491
0.000314363
0.000263324
0.000241702
9.41421e-05
0.000148746
0.000230557
0.000125849
0.00024688
9.45731e-05
0.000161518
0.000127595
0.000171458
0.000140392
0.000147433
8.83499e-05
0.000268748
0.000193264
0.000120188
0.000257273
0.000644597
0.000257067
0.000586567
0.000707329
0.000469581
0.000352878
0.000557386
0.000757498
0.00131348
0.00123375
0.00132748
0.000988703
0.00146155
0.00154955
0.00100116
0.000752373
0.00177815
0.00147086
0.000672363
0.000668665
0.00254656
0.0021694
0.000686583
0.000248931
0.000800547
0.000594798
0.000791673
0.000929944
0.000821134
0.000127517
0.000860786
0.000973513
0.000593399
0.000740799
0.00136211
0.00104825
0.00136753
0.00139272
0.00169847
0.000551994
0.000682034
0.000823279
0.000801288
0.000482425
0.00115751
0.00107585
0.0010452
0.000609326
0.000538132
0.000681611
0.000671616
0.00128617
0.00197028
0.000905194
0.00153984
0.00117505
0.000905726
0.000734327
0.00055752
0.000710296
0.00102002
0.00119349
0.00113063
0.00088427
0.000751634
0.00113141
0.00110394
0.00078337
0.00122346
0.000630512
0.00059626
0.000684933
0.000601914
0.00141295
0.000211863
0.000768685
0.000475798
0.000907754
0.000548309
0.00130224
0.000707591
0.00049813
0.00041183
0.000321496
0.000932587
0.00059107
0.000833241
0.000634399
0.000522578
0.000599412
0.000935942
0.000551237
0.000414959
0.000296528
0.000875234
0.000383238
0.000706279
0.000606065
0.000788178
0.000624136
0.000974617
0.000378565
0.00035066
0.000536042
0.000250837
0.000472927
0.000778045
0.000784582
0.000473519
0.00052314
0.000298438
0.000744836
0.000341898
0.000635734
0.000765412
0.000451543
0.000333911
0.000814747
0.000452302
0.00033418
0.000974983
0.000399918
0.000649812
0.000280362
0.000867657
0.00028557
0.00030839
0.000369598
0.000256069
0.000385812
0.000649645
0.000294171
0.000362994
0.000441394
0.000509068
0.000651873
0.000890007
0.000238481
0.000252497
0.000282485
0.000348656
0.000269974
0.00021891
0.000279319
0.000116563
0.000230956
0.000284475
0.000211475
0.000479694
0.000326669
0.000330115
0.000233204
0.00023651
0.000303559
0.000256552
0.000234767
0.000223806
7.48822e-05
0.000189953
0.000102131
0.000224872
0.000130412
7.68256e-05
0.000199879
0.00016974
0.000132235
0.000248516
0.000171151
0.00012118
0.000131156
0.000549152
0.000950265
0.000327107
0.000559426
0.000402716
0.000410733
0.000615152
0.000692758
0.000782446
0.00148638
0.000714848
0.000397279
0.0012857
0.000937574
0.00139071
0.000948709
0.0013891
0.00151849
0.00179592
0.00107447
0.00071932
0.00107339
0.0010779
0.00122065
0.000965124
0.000652822
0.00081172
0.000488493
0.000962894
0.00131547
0.00077892
0.000789098
0.00142678
0.00101784
0.00111097
0.00118699
0.00144275
0.00140013
0.00130062
0.00163948
0.00177248
0.000731869
0.00123453
0.000813879
0.000699899
0.000703983
0.00127603
0.00165293
0.000567179
0.000650139
0.000310381
0.000880887
0.0010966
0.000986534
0.00117245
0.00110845
0.00184427
0.000932629
0.000295366
0.00041502
0.000640907
0.000900767
0.00100976
0.000812037
0.00031645
0.000418812
0.00204509
0.00130568
0.000771118
0.000882892
0.000440764
0.000825773
0.000928425
0.00126902
0.000730186
0.000480292
0.000627487
0.000610615
0.00125461
0.000910297
0.000942031
0.00028749
0.000379456
0.000676816
0.0010905
0.000463973
0.000795726
0.000266947
0.000814369
0.000320433
0.000834629
0.000590381
0.000810104
0.000569715
0.00150125
0.000686657
0.000267786
0.000167069
0.000345936
0.000374056
0.000403226
0.000468829
0.000498164
0.000524183
0.000577708
0.000781053
0.000600906
0.000335917
0.000357872
0.000417563
0.000340931
0.000284324
9.51647e-05
0.000502683
0.000386657
0.000631543
0.000397709
0.000298636
0.000563242
0.00049957
0.000377284
0.000454286
0.000790761
0.000711473
0.000736053
0.000208526
0.000142138
0.000582632
0.000355229
0.000585617
0.000942566
0.000524137
0.000294948
0.00049335
0.000358538
0.00050987
0.00020983
0.000287136
0.00059895
0.000373084
0.000334975
0.000726106
0.000445952
0.000239762
0.000295265
0.000361325
0.00040834
0.000573668
0.000271473
0.000363171
0.000428048
0.000502035
0.000423929
0.000814414
0.000629935
0.000342693
0.000157096
0.000248322
0.00023506
0.00031397
0.000216276
0.000280023
0.000258109
0.000220708
0.000321725
0.000191718
0.000295347
0.000325843
0.000352958
0.000258819
0.000289148
0.000216632
0.000232114
0.000243441
0.000259056
0.000263041
0.000130889
0.000120568
0.000149187
0.000262647
0.000116372
0.00015184
9.84872e-05
0.000227469
7.41332e-05
0.000235177
0.00013622
0.000110449
0.000107926
0.000488454
0.000665243
0.000763587
0.000319814
0.000591067
0.00054499
0.000125052
0.000842579
0.000698764
0.000423516
0.00090154
0.000795615
0.000608814
0.00133135
0.00073563
0.000928977
0.000672915
0.00120604
0.00163315
0.000807461
0.0013965
0.00165535
0.000715811
0.00108283
0.00103134
0.00136945
0.00111282
0.000873961
0.000505627
0.00111651
0.0027574
0.00127433
0.00136799
0.000640395
0.00117431
0.0013674
0.00124237
0.0013447
0.0021486
0.000570089
0.000666304
0.00145984
0.000788024
0.000908945
0.00104957
0.00179877
0.000392948
0.000997862
0.00100617
0.00119964
0.000980548
0.000746209
0.000927668
0.000907605
0.00090525
0.000696141
0.00174862
0.0022804
0.00122146
0.00108144
0.000542559
0.00135586
0.000988814
0.000905949
0.00150875
0.000794814
0.000555405
0.00163215
0.000979099
0.00051222
0.000882671
0.000674798
0.000792699
0.000636096
0.000876877
0.000699144
0.000322928
0.000413555
0.000475967
0.0013697
0.000752575
0.000828041
0.000696465
0.000657007
0.000896349
0.00080944
0.00100798
0.000353267
0.000842231
0.000500102
0.000568518
0.000573119
0.000895331
0.00143717
0.00133073
0.000585366
0.000322718
0.000654427
0.00107216
0.000171092
0.000497244
0.00030284
0.000567088
0.000515527
0.000817547
0.000601524
0.00132254
0.000811724
0.000507491
0.000695619
0.001211
0.000465791
0.000565015
0.000408802
0.0003747
0.000454908
0.000763276
0.000510778
0.000478955
0.000658817
0.000633542
0.000544889
0.000379492
0.000470352
0.000477003
0.00052915
0.000331647
0.000560224
0.000568811
0.000602792
0.000661306
0.000700947
0.00038043
0.000323705
0.000655564
0.000493492
0.000546658
0.000601833
0.000414853
0.000642492
0.000551467
0.000451616
0.000281696
0.000157109
0.000995619
0.000521299
0.000500238
0.000667021
0.000306454
0.000357881
0.00040979
0.000372531
0.000465845
0.000499608
0.000164492
0.000533568
0.000189188
0.000476569
0.000149557
0.000464871
0.000560029
0.000751096
0.000381112
0.000234702
0.000389523
0.000547983
0.000382222
0.000435967
0.000468021
0.000501652
0.000414683
0.000624599
0.000506051
0.000531454
0.000289687
0.000301927
0.000256789
0.000273047
0.000338875
0.000357469
0.000436205
0.000307403
0.000234399
0.000305831
0.000210645
0.000401002
0.000383068
0.000356307
0.000270858
0.000247583
0.000562919
0.000202426
0.000263093
0.000278044
0.000163273
0.000275331
0.000171215
0.000140372
0.000103492
0.00020671
0.000144663
0.000132065
7.44381e-05
5.33098e-05
0.000148097
0.000221258
0.000156942
0.000108645
0.000104241
0.000436329
0.000215831
0.00046507
0.000380722
0.000524874
0.000353277
0.000520106
0.00026057
0.000586406
0.000263483
0.000874732
0.000899098
0.00109664
0.000908354
0.000538866
0.000773941
0.00130917
0.000814571
0.000903444
0.000873811
0.000808205
0.00134893
0.00109737
0.000789101
0.000725304
0.00119093
0.00127453
0.00184873
0.00158416
0.000709146
0.00102313
0.000932776
0.00120975
0.00180132
0.00102616
0.000890441
0.00101332
0.00188715
0.000624837
0.000806276
0.001118
0.00074938
0.000793434
0.000863877
0.000817927
0.0016571
0.00165632
0.000812768
0.00168496
0.00124129
0.000885751
0.00111012
0.00110695
0.000900443
0.00147215
0.00152492
0.00138922
0.00113055
0.00123098
0.000673663
0.00149568
0.000900694
0.00134806
0.000824423
0.00132993
0.00112891
0.000942813
0.000500776
0.00071683
0.00102326
0.00161121
0.0010224
0.000909591
0.000932518
0.0013398
0.00136724
0.00125912
0.000794618
0.000729807
0.000967876
0.00101851
0.00178761
0.00124883
0.000325672
0.000789164
0.000390371
0.0011453
0.000947232
0.000322106
0.000375811
0.000574939
0.000810488
0.000860807
0.00191444
0.00199117
0.000420848
0.000689113
0.000621639
0.000905517
0.000814108
0.000557303
0.000412958
0.000576445
0.000393076
0.000675575
0.000649186
0.000920867
0.00117427
0.000381779
0.000815762
0.000750608
0.000541287
0.000444202
0.000426793
0.000676019
0.000864541
0.000600658
0.000656723
0.00044361
0.000806169
0.00058816
0.000635485
0.00127088
0.00107335
0.000847852
0.00064032
0.000747292
0.000189679
0.000525885
0.000377008
0.000389612
0.000575501
0.000597307
0.000527679
0.000608323
0.000755463
0.00063703
0.000673832
0.000541437
0.000468034
0.000700359
0.000406001
0.000204465
0.000857935
0.000140618
0.000348532
0.000496169
0.000584114
0.000524345
0.000397414
0.000424706
0.000759597
0.000538287
0.00050418
0.00127794
0.000398877
0.000246244
0.000642852
0.000664679
0.000540694
0.000612531
0.000486946
0.000513632
0.000520348
0.000364888
0.000380198
0.000667192
0.000488507
0.00052726
0.000395532
0.000452848
0.000378923
0.00143741
0.000418192
0.00038971
0.000334735
0.000910466
0.000289083
0.000155028
0.000739503
0.000358212
0.000381809
0.000233283
0.000408432
0.000454939
0.000369753
0.000354767
0.000396391
0.000476151
0.000400285
0.000544739
0.000608828
0.000312747
0.000328735
0.000392213
0.000204888
0.000256827
0.000232773
0.000295109
0.000246827
0.000583211
0.000250777
0.000266849
0.000309794
0.000247325
0.000287516
0.00057829
0.000352179
0.000303826
0.000254763
0.000494339
0.000506974
0.000134457
0.000266674
0.000290533
0.000154027
8.87927e-05
0.000178132
0.000134982
0.000138173
0.000197943
0.000155144
5.46943e-05
0.000459667
0.000147634
0.000210503
0.000232623
0.000172288
0.000172873
0.000109648
0.000366796
0.000286116
0.000163965
0.000644684
0.000482208
0.000340273
0.000454214
0.000608842
0.000523205
0.000601325
0.000413343
0.00081008
0.000756099
0.000756621
0.000391613
0.00072456
0.00111645
0.00115906
0.000559712
0.000932201
0.0008769
0.00137418
0.00104148
0.00147739
0.000387822
0.000861532
0.00137109
0.00152926
0.00113588
0.00126587
0.00134379
0.00065546
0.00135027
0.00115117
0.00138852
0.00119008
0.00117683
0.0012417
0.0014492
0.000892857
0.00128947
0.000900608
0.00111911
0.000769023
0.00135796
0.00123437
0.00191769
0.00194378
0.0016874
0.00100262
0.000914341
0.0010166
0.00085555
0.0015745
0.00135851
0.00198568
0.000941393
0.00115328
0.00128847
0.000735583
0.000967561
0.000978171
0.00132304
0.00127315
0.00141228
0.00193415
0.000700742
0.000965888
0.000864811
0.00098048
0.00186025
0.00128497
0.00151808
0.00118795
0.00119638
0.00169426
0.0013689
0.00154933
0.000802633
0.000261647
0.000991493
0.00142784
0.00159859
0.00134761
0.00105566
0.000787719
0.000687112
0.00139944
0.00131914
0.000468856
0.000683922
0.000350698
0.000637483
0.00109898
0.0015638
0.000978672
0.000824436
0.000783362
0.000608822
0.00090902
0.00116056
0.000850975
0.000489343
0.000315164
0.000547862
0.000542992
0.00100189
0.00110787
0.00118737
0.000757175
0.00125963
0.000461762
0.000675752
0.000847495
0.00078733
0.000358286
0.000520784
0.000362184
0.000394292
0.00069894
0.000563166
0.000952426
0.00120128
0.00105834
0.00101265
0.000654808
0.000473464
0.000505547
9.11326e-05
0.000596999
0.00101701
0.000644166
0.00057973
0.00055049
0.000480857
0.000916432
0.000794818
0.000546243
0.000732226
0.000878892
0.000692793
0.000625469
0.000627601
0.000478326
0.00019675
0.000612037
0.000501499
0.00046936
0.000925397
0.000709345
0.000700254
0.000527462
0.000791653
0.000732134
0.000524247
0.00140331
0.000692675
0.000569676
0.000760468
0.000425408
0.000336924
0.000529689
0.00050536
0.000445419
0.000679727
0.000678752
0.000673107
0.000495459
0.000580942
0.000734244
0.000619716
0.000550823
0.00106854
0.00122255
0.000260783
0.000261861
0.000336375
0.000648812
0.000335673
0.000744203
0.000219971
0.000451638
0.000487726
0.000321344
0.000369997
0.000499942
0.00040863
0.000365288
0.000340569
0.000459429
0.000427842
0.00140026
0.00081201
0.000208819
0.000407009
0.000330187
0.000426982
0.000237278
0.000265428
0.000296407
0.000175276
0.000692077
0.000315032
0.000332517
0.000536237
0.000379181
0.000278291
0.000361195
0.000444593
0.000421178
0.00043642
0.000632066
0.00047509
0.000395712
0.000472174
0.000518265
0.000315927
0.000355482
0.000166896
0.000247656
0.000166724
0.000452983
0.000306014
0.000205326
0.000492968
0.000196309
0.000326172
0.000495698
0.000414086
0.000319932
0.000264136
0.000496259
0.000457784
0.000382549
0.000254632
0.000251865
9.79142e-06
0.000161261
0.000126534
0.000279704
0.000151988
0.000157944
0.000248947
0.000154923
0.000214275
0.000158883
0.000204882
0.000116353
0.000224902
0.000132863
0.000142222
0.000114873
0.00030382
0.000316958
0.000159974
0.000205661
0.00122211
0.000693015
0.000675853
0.000391618
0.000456194
0.000620087
0.000433573
0.000709938
0.000559631
0.000357885
0.000432832
0.000598416
0.000525208
0.000935204
0.000409818
0.000664353
0.000707122
0.000865022
0.00120407
0.000762361
0.000952965
0.000448362
0.000680429
0.000914112
0.00157897
0.000821879
0.000620139
0.000938137
0.000478373
0.00108533
0.000575713
0.00110221
0.00101
0.000907165
0.00138297
0.000252614
0.000818703
0.00174139
0.000289203
0.000719111
0.00102484
0.00163867
0.00107157
0.00118729
0.00205432
0.00120976
0.000662207
0.000931557
0.000601375
0.000873843
0.00142684
0.0010904
0.00094265
0.00128541
0.00131816
0.00117152
0.000319361
0.000980323
0.000620061
0.00129748
0.00114694
0.00139559
0.00187746
0.00128089
0.0020969
0.00114171
0.00121478
0.00113536
0.00121127
0.00158003
0.00125901
0.000980291
0.00151105
0.00176154
0.00145956
0.00172736
0.00041091
0.000346203
0.00107939
0.00108787
0.000960639
0.00160364
0.00126577
0.00192345
0.0016576
0.00152079
0.00142969
0.000454327
0.000344758
0.00119598
0.00113369
0.00101557
0.00104675
0.00140778
0.00115196
0.000935422
0.000904867
0.000757596
0.000693033
0.000687371
0.000468754
0.000494209
0.000615047
0.00127338
0.00109683
0.00120667
0.00151432
0.000854014
0.000411992
0.00125296
0.00103776
0.000879825
0.00109971
0.000753658
0.000329929
0.000828522
0.00049121
0.00132144
0.000906212
0.00125277
0.000996408
0.000932337
0.000792847
0.000829426
0.000903732
0.000869723
0.00117291
0.000454835
0.000514465
0.000343952
0.000519377
0.000606508
0.000468111
0.000716653
0.00129117
0.00101285
0.00105394
0.00096376
0.000855215
0.000413326
0.000691851
0.000613665
0.000652503
0.000909131
0.000665944
0.000531413
0.000587736
0.000655797
0.000852055
0.000726102
0.000601973
0.000525244
0.000897937
0.000974478
0.000502705
0.000700838
0.000617292
0.000343606
0.000846472
0.000458848
0.000874984
0.000687965
0.000897698
0.000751588
0.000758737
0.000977553
0.000787207
0.000567649
0.000599635
0.00112571
0.0016977
0.00063647
0.000793284
0.000581215
0.000663285
0.000365159
0.000292922
0.000428495
0.000503996
0.00069659
0.000654521
0.000763882
0.000555017
0.000647639
0.000549884
0.000749516
0.000547186
0.000741307
0.00133928
0.00123405
0.000369242
0.000307957
0.000255633
0.000597293
0.000236273
0.000220936
0.000217503
0.00114401
0.000352109
0.000358005
0.000284974
0.000386693
0.000438179
0.000342342
0.000368408
0.000353014
0.000480037
0.00130106
0.00151866
0.000944857
0.000196391
0.00035459
0.000320926
0.000215287
0.000472492
0.000335416
0.000404343
0.000848947
0.000481565
0.000236261
0.00031434
0.000499954
0.00037519
0.000261905
0.000301153
0.000449561
0.000421614
0.000384447
0.000553718
0.000484761
0.000541237
0.000271137
0.000213771
0.000348749
0.000340158
0.00032152
0.000201436
0.000189493
0.000240973
0.000342454
0.000202749
0.000183643
0.000311708
0.00023556
0.000266056
0.000341447
0.000508698
0.000299411
0.000277086
0.00065135
0.000415883
0.000342163
0.000358312
0.000327943
0.000390956
0.000179286
8.60415e-05
0.000425339
0.000159
0.000130045
7.126e-05
0.000103887
0.000140538
0.000132771
0.000196654
0.000101739
8.17503e-05
0.000221025
0.000164569
6.88798e-05
0.000146182
0.000226079
0.000323584
0.000151665
0.000210585
0.000218984
0.00129031
0.00101396
0.000898591
0.000392135
0.000522765
0.000661529
0.000336301
0.000382909
0.000745891
0.000522539
0.000458668
0.000684316
0.000787861
0.000511663
0.000839334
0.000656557
0.000450976
0.000875375
0.00106886
0.00063407
0.00113665
0.000518076
0.000644449
0.000840683
0.000947393
0.000642476
0.000850907
0.000970685
0.00055021
0.000534091
0.000505831
0.000458114
0.000668603
0.000951771
0.000661788
0.000962269
0.000508354
0.000606895
0.000507379
0.000702899
0.000720414
0.000715668
0.000870333
0.000645641
0.00153792
0.00100753
0.000983277
0.000635423
0.000298782
0.000732841
0.000851388
0.00136095
0.00113562
0.00117305
0.00128758
0.000832365
0.000888654
0.000856258
0.000873553
0.000672581
0.00115872
0.00121567
0.00184894
0.00221139
0.00156895
0.00113247
0.000948051
0.000715933
0.00110186
0.00130728
0.000847727
0.000982561
0.00194543
0.00235176
0.00103584
0.00164686
0.00088582
0.000836395
0.00123504
0.00119889
0.00115059
0.00102263
0.00139053
0.00130764
0.00179208
0.0013473
0.000893766
0.0015283
0.000625707
0.00054919
0.00116767
0.00122072
0.00181798
0.00108328
0.00130164
0.00171165
0.00129741
0.00179809
0.00188362
0.00147808
0.000117205
0.000445745
0.00127258
0.00116886
0.00122386
0.00122688
0.00158188
0.000916914
0.0011912
0.00139742
0.00119766
0.00145918
0.000932336
0.000203042
0.000331042
0.00069034
0.000927293
0.000939348
0.000931717
0.000806634
0.00125212
0.00127255
0.00056663
0.000619015
0.00120821
0.00103521
0.000818295
0.0008115
0.000547886
0.000543133
0.000705939
0.000646448
0.00102266
0.00122702
0.00102588
0.000736839
0.000891453
0.000725755
0.000619379
0.000741142
0.000859246
0.000836841
0.000954774
0.000508869
0.000148007
0.000641215
0.000477302
0.000566492
0.000614002
0.000962484
0.00117813
0.00118967
0.00145221
0.0010564
0.000799181
0.000955184
0.000701775
0.000557406
0.000564817
0.00055486
0.000542188
0.000503955
0.000379506
0.000654554
0.000754322
0.000590936
0.000867537
0.000597262
0.000822049
0.000852856
0.000954356
0.000916385
0.000734732
0.000866094
0.000528959
0.000512628
0.000842218
0.000271038
0.000615668
0.000721137
0.000613888
0.000777156
0.000832333
0.00107023
0.000622575
0.000584644
0.00068072
0.000827275
0.00152643
0.00104812
0.000889602
0.00071731
0.000592912
0.000619276
0.000461289
0.000537565
0.000456583
0.000565327
0.000768695
0.000667127
0.000771286
0.000717861
0.000611012
0.000542122