/*--------------------------------*- C++ -*----------------------------------*\
  =========                 |
  \\      /  F ield         | OpenFOAM: The Open Source CFD Toolbox
   \\    /   O peration     | Website:  https://openfoam.org
    \\  /    A nd           | Version:  7
     \\/     M anipulation  |
\*---------------------------------------------------------------------------*/
FoamFile
{
    version     2.0;
    format      ascii;
    class       volScalarField;
    location    "3.5";
    object      p;
}
// * * * * * * * * * * * * * * * * * * * * * * * * * * * * * * * * * * * * * //

dimensions      [0 2 -2 0 0 0 0];

internalField   nonuniform List<scalar> 
18870
(
-68.9881
-67.3579
-69.0151
-68.1651
-66.1928
-67.4489
-66.8523
-69.0434
-68.2323
-66.5586
-64.0573
-66.2354
-65.203
-67.4033
-67.0055
-65.9494
-69.0731
-68.3085
-66.6457
-65.6304
-62.619
-64.1889
-63.9331
-66.2512
-65.2439
-64.6816
-67.5135
-67.1098
-66.1089
-65.8601
-69.1164
-68.402
-66.7182
-65.7391
-65.5408
-60.7533
-62.7722
-62.4715
-64.3064
-64.175
-63.9089
-66.2913
-65.3243
-64.7146
-64.8574
-67.6617
-67.1525
-66.2826
-65.9559
-65.5445
-69.188
-68.4907
-66.7913
-65.8403
-65.6285
-65.0811
-60.2546
-60.9706
-61.1743
-63.0135
-62.6686
-62.6753
-64.5386
-64.4269
-64.1357
-64.1411
-66.3204
-65.3837
-64.7629
-64.9954
-64.8586
-67.7649
-67.2762
-66.4515
-66.0125
-65.6141
-64.7956
-69.2585
-68.5478
-66.8639
-65.9112
-65.6953
-65.1197
-64.3166
-59.6069
-60.2258
-60.5527
-61.2812
-61.388
-61.6746
-63.171
-62.8569
-63.0678
-63.2383
-64.7901
-64.6749
-64.4752
-64.3969
-64.2549
-66.3571
-65.4422
-64.849
-65.1593
-65.1153
-64.5876
-67.8789
-67.4077
-66.5404
-66.0732
-65.6805
-64.9151
-64.1464
-69.3226
-68.5861
-66.9496
-65.9976
-65.7682
-65.177
-64.3896
-63.716
-58.8664
-59.8067
-59.8365
-60.5578
-60.6863
-60.8291
-61.62
-61.6876
-61.7281
-62.1842
-63.2929
-63.0803
-63.3812
-63.5813
-63.681
-65.0381
-64.934
-64.8819
-64.8198
-64.6492
-64.2158
-66.4572
-65.5169
-64.9119
-65.3653
-65.3904
-64.8142
-64.4944
-67.9804
-67.5126
-66.6608
-66.1751
-65.7519
-65.0336
-64.2889
-63.8313
-69.389
-68.6253
-67.0367
-66.0921
-65.8344
-65.2296
-64.4611
-63.762
-62.7162
-58.121
-59.0223
-59.1188
-59.8922
-59.9766
-60.5747
-60.8417
-60.8624
-60.9526
-61.2619
-61.9416
-61.9686
-62.4217
-62.6773
-62.7613
-63.4889
-63.2787
-63.3637
-63.7938
-64.0298
-64.052
-65.2748
-65.2429
-65.2775
-65.2527
-64.9199
-64.621
-64.501
-66.5808
-65.6272
-64.9875
-65.5845
-65.6445
-65.0726
-64.6985
-64.3279
-68.0855
-67.6264
-66.7877
-66.2729
-65.8181
-65.1544
-64.4424
-63.9714
-63.284
-69.4586
-68.6627
-67.1148
-66.163
-65.879
-65.2606
-64.531
-63.806
-62.7452
-62.1001
-57.4965
-58.1932
-58.4935
-59.0442
-59.2672
-59.8013
-60.201
-60.1383
-60.6358
-60.6767
-61.1298
-61.0186
-61.0422
-61.3302
-61.9219
-62.2649
-62.2401
-62.9062
-62.9295
-63.1527
-63.496
-63.6954
-63.3841
-63.6157
-64.0902
-64.3838
-64.3049
-64.5668
-65.5328
-65.5186
-65.6006
-65.6171
-65.2072
-64.9387
-64.8784
-64.8342
-66.7349
-65.7268
-65.1673
-65.8647
-65.9032
-65.34
-64.9036
-64.5679
-64.0705
-68.1642
-67.7428
-66.8731
-66.4117
-65.9215
-65.2818
-64.5895
-64.1124
-63.4019
-62.8031
-69.4828
-68.6962
-67.1939
-66.2303
-65.9138
-65.2976
-64.6074
-63.8508
-62.7798
-62.1208
-61.6561
-56.9257
-57.4953
-57.7569
-58.2782
-58.5475
-58.8787
-59.1806
-59.4394
-59.8865
-60.0022
-60.3245
-60.1644
-60.6818
-60.7549
-60.8762
-61.3664
-61.1742
-61.1679
-61.45
-62.1573
-62.8303
-62.5046
-62.4465
-62.5554
-63.2031
-63.5485
-63.9783
-64.5404
-63.9637
-63.5976
-63.8742
-64.4624
-64.7603
-64.633
-65.0871
-64.8909
-65.7511
-65.7558
-65.8875
-65.9633
-65.5655
-65.1728
-65.3775
-65.1666
-64.5383
-66.9226
-65.9235
-65.5247
-66.1319
-66.1646
-65.6714
-65.1171
-64.793
-64.2588
-63.5662
-68.2564
-67.8527
-66.9711
-66.5584
-66.0798
-65.4144
-64.7169
-64.2644
-63.5266
-62.8927
-62.4414
-69.4875
-68.7509
-67.2754
-66.2965
-65.9582
-65.3563
-64.6876
-63.9068
-62.8182
-62.1396
-61.6858
-61.3028
-56.337
-56.9839
-57.1337
-57.529
-57.9398
-58.1835
-58.3302
-58.6549
-59.1139
-59.3782
-59.3694
-59.5166
-60.0371
-60.0945
-60.3176
-60.4556
-60.3131
-60.6913
-60.9549
-61.198
-61.8917
-61.5199
-61.2757
-61.3375
-61.9105
-62.6092
-63.365
-63.9283
-62.6014
-62.6308
-62.964
-63.6636
-64.0766
-64.4231
-64.9666
-65.3705
-64.2258
-64.0802
-64.0835
-64.8692
-65.1879
-65.0971
-65.5406
-65.244
-65.4697
-66.016
-65.9285
-66.2057
-66.2908
-65.8802
-65.5593
-65.8439
-65.4771
-64.8185
-64.3246
-67.0805
-66.2279
-66.039
-66.4535
-66.4101
-65.8341
-65.2875
-64.9757
-64.4426
-63.7069
-63.1403
-68.3668
-67.9679
-67.0738
-66.6855
-66.239
-65.5193
-64.8357
-64.4222
-63.6503
-62.983
-62.4891
-61.8502
-69.5394
-68.8126
-67.3552
-66.3441
-65.9996
-65.3981
-64.7498
-63.9838
-62.856
-62.16
-61.704
-61.3134
-60.7812
-56.0551
-56.4903
-56.9218
-56.9772
-57.456
-57.5046
-57.589
-57.96
-58.3315
-58.8913
-58.4406
-58.8319
-59.4009
-59.5161
-59.7045
-59.404
-59.5892
-60.015
-60.2226
-60.6023
-61.453
-60.4852
-60.5418
-60.8487
-61.3827
-61.5726
-62.4357
-63.1908
-61.4776
-61.458
-61.749
-62.4785
-63.2154
-63.9156
-64.527
-65.2814
-63.1224
-62.9157
-63.5407
-64.2339
-64.6073
-65.0003
-65.4981
-66.0253
-65.609
-64.329
-64.5405
-64.4395
-65.4028
-65.6759
-65.6732
-65.9698
-65.638
-65.8388
-65.119
-66.2735
-66.1301
-66.472
-66.5913
-66.278
-66.0719
-66.1691
-65.7826
-65.0709
-64.5431
-64.0664
-67.2838
-66.6036
-66.5571
-66.7932
-66.6076
-66.011
-65.6166
-65.2008
-64.6079
-63.8464
-63.2162
-62.644
-68.4908
-68.0868
-67.2111
-66.8246
-66.3695
-65.6266
-65.0038
-64.5688
-63.7729
-63.0702
-62.5343
-61.8889
-61.5682
-69.5961
-68.8913
-67.431
-66.4384
-66.0314
-65.4298
-64.8064
-64.0636
-62.8961
-62.1819
-61.7184
-61.3193
-60.7822
-60.3135
-55.7944
-56.086
-56.5026
-56.4357
-57.1798
-56.5023
-56.9093
-57.5537
-57.4258
-58.4845
-57.69
-58.1233
-58.5325
-58.993
-59.4393
-58.5157
-58.7959
-59.6773
-59.8405
-60.1536
-61.0763
-59.4499
-59.7703
-60.4193
-60.6913
-61.0629
-61.9604
-62.7569
-60.6972
-60.6666
-61.1987
-61.6055
-62.1721
-63.2875
-63.8673
-64.8224
-61.4632
-61.5446
-62.2737
-63.0685
-63.8644
-64.4391
-65.112
-65.6742
-66.4094
-63.3851
-63.4628
-64.0746
-64.8189
-65.1373
-65.5791
-66.2177
-66.5438
-66.0492
-65.9311
-64.592
-64.725
-65.0518
-65.9772
-66.1337
-66.246
-66.4204
-65.8524
-66.0248
-65.1466
-65.0024
-66.5408
-66.4579
-66.7603
-66.7574
-66.6733
-66.5934
-66.5945
-66.0349
-65.4103
-64.7204
-64.1734
-63.4526
-67.5309
-66.992
-67.043
-67.0452
-66.7714
-66.4098
-65.9686
-65.4691
-64.7664
-63.9804
-63.3043
-62.697
-62.3254
-68.6379
-68.2047
-67.3321
-66.9616
-66.4895
-65.7807
-65.1901
-64.6942
-63.8856
-63.138
-62.578
-61.9216
-61.574
-61.1085
-69.6189
-68.9829
-67.4702
-66.5344
-66.0632
-65.465
-64.846
-64.1028
-62.9514
-62.2044
-61.7389
-61.317
-60.7833
-60.3138
-60.2321
-55.577
-55.7884
-56.1367
-56.143
-56.5993
-56.7938
-56.3719
-57.0464
-56.8741
-57.9166
-57.0007
-57.611
-57.8836
-58.4679
-59.0132
-57.5149
-58.3818
-58.8815
-59.4078
-60.0452
-60.4475
-58.5762
-59.0937
-59.675
-60.2017
-60.7699
-61.6493
-62.4376
-59.5504
-60.1453
-60.6799
-61.2689
-61.7627
-62.5893
-63.5015
-64.565
-60.6737
-61.0367
-61.7286
-62.1675
-62.872
-64.0193
-64.6565
-65.6464
-66.6519
-61.9201
-62.0079
-62.7852
-63.7855
-64.4178
-65.1685
-65.8861
-66.6405
-67.1181
-66.7557
-63.446
-63.707
-64.529
-65.2281
-65.6677
-66.2449
-66.8619
-67.2504
-66.5
-66.3794
-65.7808
-64.9568
-65.0125
-66.0443
-66.5013
-66.5367
-66.7349
-67.071
-66.8567
-66.282
-65.8734
-65.1659
-64.5651
-66.7826
-66.8703
-67.1527
-67.0078
-67.0415
-67.0478
-66.9554
-66.3344
-65.7582
-64.9314
-64.2797
-63.5744
-63.0453
-67.7754
-67.4129
-67.5135
-67.2867
-66.9869
-66.6613
-65.99
-65.6629
-64.9343
-64.1178
-63.3811
-62.7625
-62.345
-61.8525
-68.7825
-68.3411
-67.4836
-67.1134
-66.6207
-65.9282
-65.3474
-64.7993
-63.9787
-63.2151
-62.615
-61.9323
-61.5797
-61.1054
-60.8673
-69.6568
-69.0825
-67.5022
-66.5696
-66.0922
-65.4868
-64.8733
-64.1284
-63.0038
-62.2297
-61.7578
-61.3095
-60.773
-60.3133
-60.2371
-60.5909
-55.4095
-55.6477
-55.7702
-55.9465
-56.1718
-56.486
-56.0225
-56.5859
-57.1294
-56.702
-56.3382
-57.342
-57.2207
-57.6024
-59.1275
-57.2386
-57.8494
-58.3377
-58.7597
-59.5473
-60.118
-57.8814
-58.5592
-59.2232
-59.9268
-60.5426
-61.009
-61.8478
-58.7561
-59.2387
-59.8806
-60.8234
-61.3312
-62.1234
-62.9719
-64.4698
-59.7142
-60.1918
-61.3467
-61.8123
-62.2225
-63.4688
-64.3679
-65.2399
-66.6892
-60.9603
-61.3413
-62.4037
-62.8144
-63.7582
-64.5099
-65.3574
-66.5238
-67.4268
-67.6934
-62.2672
-62.4322
-63.4708
-64.498
-65.0794
-65.8063
-66.6881
-67.5394
-67.828
-67.6672
-67.1928
-63.7413
-64.1206
-64.8856
-65.761
-66.3263
-66.9132
-67.3449
-67.7008
-67.4166
-67.0179
-66.1633
-65.7117
-65.5426
-65.5975
-66.7623
-66.903
-66.8675
-67.3086
-67.7119
-67.6615
-66.8639
-66.2543
-65.2927
-64.7361
-63.9766
-67.0862
-67.3172
-67.5424
-67.3493
-67.3893
-67.5428
-67.2452
-66.5847
-66.0545
-65.1454
-64.3607
-63.6574
-63.0849
-62.5078
-68.0483
-67.8838
-68.0182
-67.507
-67.2883
-66.8251
-66.3344
-65.8462
-65.125
-64.2196
-63.4448
-62.7315
-62.3669
-61.8404
-61.5466
-68.9148
-68.5004
-67.7017
-67.248
-66.7549
-66.0661
-65.488
-64.887
-64.0756
-63.2955
-62.6492
-61.9312
-61.5826
-61.1011
-60.8801
-61.3015
-69.72
-69.1802
-67.5625
-66.5953
-66.1125
-65.5114
-64.9126
-64.1803
-63.0258
-62.2535
-61.7794
-61.2971
-60.748
-60.3107
-60.2408
-60.6024
-61.324
-55.314
-55.4319
-55.5836
-55.7869
-55.8831
-56.1779
-56.2699
-56.1911
-56.4974
-56.5979
-55.9103
-56.7098
-57.031
-57.0172
-58.1554
-56.9001
-57.3935
-57.6683
-58.0559
-59.3436
-59.7219
-56.4552
-57.4529
-58.7301
-59.5096
-60.0188
-60.9809
-61.4196
-58.1786
-58.9387
-60.0463
-60.2689
-60.9847
-61.698
-62.4701
-63.374
-59.0042
-59.4851
-60.9538
-61.2671
-62.0563
-62.5977
-63.5087
-65.2799
-67.0117
-59.9297
-60.5993
-61.9269
-62.3009
-63.093
-64.1542
-65.2095
-66.5113
-67.6496
-68.7447
-61.2004
-61.6609
-62.9124
-63.7285
-64.6433
-65.3211
-66.1363
-67.3688
-67.985
-68.8089
-68.5458
-62.4417
-63.0063
-64.2595
-65.1941
-65.8096
-66.5229
-67.4026
-68.0564
-68.3851
-68.4895
-67.7127
-67.0109
-64.1272
-64.7469
-65.4099
-66.3747
-67.192
-67.5452
-68.0595
-68.1296
-68.4632
-67.6067
-66.6018
-65.9351
-64.9404
-65.9455
-66.1731
-67.1197
-67.3019
-67.51
-67.8389
-68.1373
-68.0851
-67.307
-66.5052
-65.4177
-64.8813
-64.0358
-63.1168
-67.489
-67.7862
-67.9074
-67.7205
-67.736
-67.9409
-67.5851
-66.8958
-66.3302
-65.3661
-64.4476
-63.714
-63.1125
-62.5007
-62.0717
-68.3473
-68.3731
-68.3568
-67.6881
-67.5475
-67.0857
-66.6617
-66.0807
-65.2917
-64.3154
-63.5321
-62.7002
-62.3753
-61.8177
-61.5461
-61.6805
-69.0392
-68.7106
-67.9018
-67.3192
-66.8918
-66.2063
-65.5909
-64.9938
-64.1684
-63.351
-62.6823
-61.9324
-61.5777
-61.1133
-60.8891
-61.2851
-61.7052
-69.7792
-69.2629
-67.636
-66.6226
-66.1266
-65.5353
-64.9616
-64.2408
-63.0455
-62.2683
-61.8002
-61.2857
-60.7322
-60.3142
-60.2431
-60.6141
-61.3276
-61.9832
-55.113
-55.2592
-55.5083
-55.4785
-55.6221
-55.7353
-55.9058
-55.8444
-56.1499
-56.324
-56.0651
-56.0695
-56.5669
-56.9078
-57.5281
-56.3332
-56.7206
-57.1895
-57.611
-58.3866
-59.2786
-56.7785
-57.3407
-58.2563
-58.686
-59.7323
-60.2409
-60.7824
-57.647
-57.9895
-59.2635
-60.1876
-60.4954
-61.4876
-61.9317
-63.1803
-58.1711
-59.0241
-60.0099
-60.4775
-61.2672
-62.168
-62.9399
-64.4983
-66.6194
-59.268
-59.9756
-61.4117
-62.0185
-62.6419
-63.3465
-64.2709
-66.2042
-67.9427
-69.4172
-60.3134
-60.9461
-62.3345
-63.1509
-63.9262
-64.8168
-65.9767
-67.9127
-69.1688
-70.1516
-70.0619
-61.2281
-61.8239
-63.4141
-64.602
-65.5584
-66.2738
-67.2978
-68.2166
-69.0176
-69.8278
-69.2516
-68.6225
-62.8241
-63.5535
-64.8867
-66.1158
-66.6194
-67.2868
-68.1561
-68.8848
-69.4128
-69.2675
-68.1941
-67.397
-66.3372
-64.5472
-65.2463
-66.1781
-66.9035
-67.7615
-68.2283
-68.9944
-69.0352
-68.9923
-68.1265
-66.9658
-66.1625
-65.0657
-64.0817
-66.1565
-66.6583
-67.6295
-67.7496
-68.1659
-68.4889
-68.6307
-68.6567
-67.7677
-66.8643
-65.6131
-65.0065
-64.0796
-63.1594
-62.7053
-67.8735
-68.2045
-68.3225
-67.9434
-68.1069
-68.2163
-67.9964
-67.2047
-66.5925
-65.5648
-64.5389
-63.7573
-63.1218
-62.4904
-62.0246
-62.504
-68.673
-68.8593
-68.5904
-67.9903
-67.6428
-67.3441
-66.8844
-66.2709
-65.449
-64.4347
-63.6079
-62.7134
-62.3657
-61.7919
-61.5411
-61.653
-62.7072
-69.2118
-68.9622
-68.0903
-67.4022
-67.0113
-66.3324
-65.7031
-65.1199
-64.2165
-63.3843
-62.7162
-61.9344
-61.565
-61.0858
-60.8829
-61.2616
-61.6805
-62.5793
-69.8387
-69.3229
-67.7479
-66.6597
-66.1395
-65.5488
-65.0115
-64.298
-63.0713
-62.2695
-61.8116
-61.2754
-60.7311
-60.3126
-60.2437
-60.6236
-61.3212
-61.9719
-62.5176
-55.0066
-55.0938
-55.2998
-55.2825
-55.4175
-55.5592
-55.5307
-55.6054
-55.9148
-56.0187
-55.9557
-55.8915
-56.1671
-56.584
-57.2866
-56.018
-56.177
-56.6246
-57.3255
-57.9398
-58.059
-56.6208
-56.9723
-57.5035
-58.1077
-58.8952
-59.7176
-60.1964
-56.9254
-57.1269
-58.2616
-59.3335
-60.3196
-60.494
-61.1327
-62.021
-57.8282
-58.5473
-60.1775
-60.6182
-60.7655
-61.6674
-62.4359
-63.59
-66.0647
-58.4825
-59.5896
-60.5817
-61.1136
-61.7888
-62.7581
-63.5435
-65.2539
-67.6032
-70.4775
-59.4178
-59.8123
-61.1984
-62.3976
-63.303
-64.0521
-64.9651
-67.0912
-68.9011
-70.6518
-71.4719
-60.5941
-61.8324
-63.0867
-63.4896
-64.6181
-65.6174
-66.9303
-68.8023
-70.6764
-71.6423
-70.9596
-70.6356
-61.7041
-62.7182
-63.9289
-65.3999
-66.4036
-67.1449
-68.4545
-69.3066
-70.5099
-70.7043
-69.9085
-69.1874
-68.2021
-63.4908
-64.098
-65.6256
-66.9725
-67.4164
-68.1913
-69.0397
-69.9168
-70.4072
-69.9225
-68.6557
-67.7353
-66.4935
-65.2038
-64.9394
-65.8787
-66.919
-67.7804
-68.1599
-68.9613
-69.8864
-69.7894
-69.6002
-68.5817
-67.2483
-66.3496
-65.1458
-64.0641
-63.2028
-66.6628
-67.2583
-68.1444
-68.3294
-68.6152
-69.1325
-69.3426
-69.081
-68.1552
-67.0896
-65.7016
-65.0797
-64.1131
-63.1809
-62.5684
-62.3526
-68.2592
-68.6225
-68.7617
-68.2102
-68.4735
-68.5302
-68.419
-67.5068
-66.8037
-65.7395
-64.6308
-63.764
-63.1117
-62.4659
-61.9598
-62.3079
-63.1762
-69.0267
-69.2486
-68.9809
-68.3837
-67.8158
-67.5666
-67.0794
-66.436
-65.5836
-64.5364
-63.671
-62.7074
-62.3443
-61.7649
-61.5324
-61.6336
-62.5774
-63.5919
-69.4463
-69.1967
-68.2907
-67.4922
-67.1105
-66.4617
-65.8246
-65.2368
-64.2794
-63.4166
-62.7454
-61.9352
-61.5435
-61.044
-60.8725
-61.2307
-61.6509
-62.5375
-63.0878
-69.8976
-69.3526
-67.8994
-66.7013
-66.1614
-65.5579
-65.0573
-64.3504
-63.0886
-62.2769
-61.8302
-61.2539
-60.7327
-60.3061
-60.2423
-60.632
-61.3137
-61.9596
-62.5154
-62.7156
-54.9351
-55.1357
-55.0786
-55.172
-55.2999
-55.3953
-55.4152
-55.4704
-55.5841
-55.5975
-55.5007
-55.6415
-55.9766
-56.1384
-56.5082
-55.9087
-55.8301
-56.2216
-56.8865
-57.3787
-58.0163
-56.2406
-56.5422
-56.978
-57.7153
-58.0708
-58.5913
-59.4221
-56.8423
-56.9533
-57.6023
-58.2853
-59.6143
-60.0707
-60.637
-61.2009
-57.5466
-58.1802
-58.7701
-59.7433
-60.6503
-60.8727
-61.9348
-62.4838
-64.5866
-57.8343
-58.6984
-59.9115
-60.8952
-61.281
-62.0745
-62.8446
-63.915
-66.8465
-69.3277
-58.7089
-59.7945
-60.9343
-61.5729
-62.5356
-63.2486
-64.1974
-65.9916
-68.6784
-71.4118
-72.6313
-59.7812
-61.115
-61.9873
-63.0409
-63.6875
-64.7905
-65.8246
-67.6506
-69.9055
-71.8728
-72.4051
-72.3862
-60.7528
-61.8113
-63.5947
-64.3518
-65.5278
-66.4092
-67.7892
-69.7963
-71.6346
-72.7804
-71.678
-71.1054
-69.9866
-62.1611
-63.2115
-64.8081
-66.1521
-67.0794
-68.0288
-69.6302
-70.8517
-72.033
-71.5967
-70.5397
-69.5864
-68.2578
-66.557
-64.0999
-65.1683
-66.4806
-67.6767
-68.2482
-69.2936
-70.2606
-70.8513
-71.0663
-70.4129
-69.035
-68.0063
-66.6205
-65.183
-64.0406
-65.4957
-66.6235
-67.7214
-68.5931
-68.7694
-69.7732
-70.5924
-70.5356
-70.0535
-68.9406
-67.4846
-66.4805
-65.1856
-64.0107
-63.1068
-62.3962
-67.1716
-67.9259
-68.7766
-68.8844
-69.2059
-69.6958
-70.0677
-69.5728
-68.5159
-67.3183
-65.8593
-65.1234
-64.1263
-63.1625
-62.4386
-62.1699
-62.0557
-68.6391
-69.1181
-69.2012
-68.5579
-68.7935
-68.8377
-68.8106
-67.8545
-67.0091
-65.8746
-64.7242
-63.7206
-63.0912
-62.4213
-61.898
-62.1193
-62.9614
-62.532
-69.3391
-69.6365
-69.2807
-68.6335
-67.9773
-67.7945
-67.2628
-66.6488
-65.6885
-64.6026
-63.723
-62.7065
-62.3209
-61.719
-61.5109
-61.6123
-62.4508
-63.5548
-63.1808
-69.6957
-69.428
-68.4743
-67.5947
-67.1966
-66.6045
-65.9362
-65.3375
-64.3485
-63.4399
-62.7668
-61.9288
-61.5129
-61.015
-60.8742
-61.198
-61.6171
-62.4966
-63.0841
-63.1567
-69.9578
-69.3672
-68.0931
-66.75
-66.1849
-65.5603
-65.077
-64.3933
-63.0952
-62.2862
-61.8462
-61.2298
-60.7308
-60.3036
-60.2377
-60.6453
-61.3096
-61.946
-62.5091
-62.7099
-62.8076
-54.8791
-54.9916
-54.9828
-55.1699
-55.1337
-55.1818
-55.3216
-55.3997
-55.3597
-55.4577
-55.325
-55.5111
-55.6395
-55.7546
-55.9001
-55.6981
-55.6864
-56.0345
-56.2852
-56.7118
-57.3912
-56.0293
-56.0811
-56.3977
-57.0031
-57.4408
-58.1493
-58.5897
-56.4592
-56.5238
-57.1054
-57.755
-58.4787
-59.0542
-59.6467
-60.1711
-57.0073
-57.4686
-57.9643
-58.691
-59.8327
-60.173
-60.9594
-61.4662
-62.8995
-57.7332
-58.2688
-59.1863
-60.0235
-60.8797
-61.2629
-62.1799
-62.8156
-65.4219
-68.1286
-58.0584
-59.1689
-60.1704
-61.1957
-61.7712
-62.4471
-63.2319
-64.6536
-67.8679
-70.3951
-72.8978
-58.9741
-59.9523
-61.1905
-61.99
-62.9612
-63.8282
-64.8285
-66.6995
-69.4684
-72.3011
-73.7581
-74.124
-60.001
-61.6279
-63.2052
-63.6637
-64.3206
-65.4376
-66.6255
-68.677
-71.3471
-73.0802
-73.3327
-72.8253
-72.1373
-61.2873
-62.5041
-63.5551
-65.1715
-66.5139
-67.1162
-68.6111
-70.691
-72.4389
-73.5711
-72.2511
-71.5271
-70.1662
-68.6275
-62.7905
-63.797
-65.4454
-66.9101
-67.8166
-68.9098
-70.689
-72.3329
-73.1636
-72.2761
-71.0372
-69.9086
-68.3891
-66.519
-64.9625
-64.5081
-65.8441
-67.4594
-68.5898
-69.1046
-70.2994
-71.6454
-71.8398
-71.7284
-70.8523
-69.3586
-68.1983
-66.712
-65.0651
-63.9572
-62.8143
-66.1584
-67.396
-68.7399
-69.2053
-69.4508
-70.5306
-71.1151
-71.2205
-70.4431
-69.2185
-67.6539
-66.5345
-65.2192
-63.9769
-62.983
-62.2422
-61.3121
-67.6685
-68.5738
-69.3876
-69.2851
-69.6602
-70.3052
-70.5081
-70.0299
-68.7905
-67.5113
-65.9777
-65.139
-64.1176
-63.1222
-62.3161
-62.0125
-61.9549
-60.9596
-69.0935
-69.6025
-69.6778
-68.9692
-69.1218
-69.2392
-69.1704
-68.0444
-67.1995
-65.9446
-64.8032
-63.7336
-63.0459
-62.3515
-61.8386
-61.9429
-62.6483
-62.4476
-61.9714
-69.6748
-69.974
-69.6113
-68.8064
-68.1339
-67.9948
-67.4634
-66.7751
-65.7711
-64.6614
-63.7684
-62.703
-62.2928
-61.6686
-61.4668
-61.5916
-62.3303
-63.4694
-63.1806
-63.46
-69.9245
-69.6506
-68.6562
-67.6726
-67.2714
-66.7407
-66.0359
-65.3923
-64.3911
-63.4629
-62.788
-61.9194
-61.4663
-60.9846
-60.8754
-61.1653
-61.582
-62.4468
-63.077
-63.143
-63.1962
-70.0193
-69.3952
-68.288
-66.8139
-66.1816
-65.5599
-65.0726
-64.4323
-63.1017
-62.282
-61.8486
-61.2141
-60.7248
-60.2965
-60.231
-60.6532
-61.3091
-61.931
-62.4997
-62.7027
-62.7927
-62.6154
-54.7054
-54.9013
-54.8512
-55.0782
-55.0177
-54.9502
-55.2028
-55.2132
-55.1341
-55.3056
-55.3125
-55.3742
-55.5261
-55.5645
-55.6935
-55.5109
-55.6075
-55.7247
-55.8591
-56.1094
-56.4969
-55.8662
-56.0142
-56.2068
-56.3782
-56.9102
-57.4176
-57.7077
-56.17
-56.1893
-56.9074
-57.2982
-57.5001
-58.3088
-58.7194
-59.8117
-56.6835
-56.5855
-57.3489
-58.015
-58.67
-59.1866
-59.9391
-60.6904
-61.8032
-57.1771
-57.8575
-58.3753
-59.1999
-59.7898
-60.4758
-61.3113
-62.1882
-63.7485
-66.2433
-57.6911
-58.6121
-59.3784
-60.461
-61.1589
-61.814
-62.5595
-63.3541
-66.0698
-68.4737
-71.6412
-58.3187
-59.4507
-60.4784
-61.3727
-62.1222
-62.9988
-63.6388
-65.4543
-68.454
-71.1995
-73.9493
-75.5185
-59.2824
-60.6017
-62.0864
-62.6243
-63.3265
-64.2873
-65.2985
-67.2805
-70.2923
-73.2108
-74.626
-74.4797
-73.6239
-60.2682
-61.58
-62.9014
-64.14
-65.5206
-66.1237
-67.7793
-69.6568
-72.4711
-74.0698
-73.991
-73.1756
-72.2819
-70.0973
-61.9509
-63.0608
-64.4198
-65.8864
-66.9131
-68.06
-69.6209
-71.6268
-73.2572
-73.9557
-72.5565
-71.8709
-70.2267
-68.4371
-66.4114
-63.3171
-64.7886
-66.2464
-67.599
-68.6665
-69.807
-71.3027
-73.3145
-73.881
-72.8189
-71.3361
-70.1307
-68.5085
-66.4822
-64.8389
-63.3477
-65.0278
-66.535
-68.3098
-69.5175
-70.0426
-71.0876
-72.5209
-72.745
-72.2118
-71.1995
-69.5892
-68.2844
-66.7647
-64.9263
-63.7929
-62.6549
-61.5387
-66.7715
-68.1737
-69.5621
-69.8618
-70.2392
-71.046
-71.6597
-71.6643
-70.7025
-69.4308
-67.7527
-66.5338
-65.2067
-63.9342
-62.9085
-62.0719
-61.2507
-60.3591
-68.2044
-69.1587
-69.8736
-69.746
-70.0321
-70.6553
-70.8657
-70.3157
-68.9626
-67.667
-66.0627
-65.131
-64.1039
-63.0668
-62.2066
-61.8624
-61.7846
-60.8851
-60.7767
-69.6023
-70.0861
-70.1892
-69.4195
-69.4367
-69.659
-69.3975
-68.1947
-67.339
-65.9964
-64.872
-63.7502
-62.9859
-62.2795
-61.7812
-61.7632
-62.3333
-62.4353
-61.9524
-62.7604
-70.0695
-70.3491
-69.9477
-68.9593
-68.2678
-68.1639
-67.6372
-66.8192
-65.8316
-64.6943
-63.7964
-62.7164
-62.2606
-61.6095
-61.4055
-61.5754
-62.2224
-63.3243
-63.1935
-63.3937
-64.1792
-70.1543
-69.8954
-68.8316
-67.7957
-67.34
-66.8497
-66.1247
-65.4242
-64.4307
-63.4731
-62.7913
-61.9146
-61.4081
-60.9601
-60.8634
-61.1127
-61.5475
-62.3847
-63.0867
-63.1314
-63.1486
-63.1654
-70.1003
-69.4621
-68.3758
-66.879
-66.1579
-65.5604
-65.077
-64.4432
-63.1047
-62.2765
-61.8533
-61.2016
-60.7035
-60.2818
-60.2231
-60.6568
-61.3063
-61.9149
-62.4887
-62.6945
-62.778
-62.6003
-62.5231
-54.6659
-54.7987
-54.6929
-55.0619
-54.9277
-54.8455
-55.1122
-55.1334
-55.0136
-55.0349
-55.2751
-55.2613
-55.3569
-55.3567
-55.3696
-55.3861
-55.4945
-55.5126
-55.6252
-55.844
-56.0658
-55.6719
-55.7975
-55.7764
-56.1225
-56.5037
-56.7718
-56.9789
-55.8559
-56.1366
-56.4688
-56.7953
-57.0083
-57.5178
-57.9477
-58.6517
-56.2876
-56.4167
-56.9979
-57.6203
-57.9047
-58.5869
-58.9204
-59.7828
-60.4879
-56.8062
-57.0154
-57.8776
-58.5143
-58.6927
-59.3723
-60.3046
-61.1689
-62.1629
-64.3386
-57.3773
-57.6568
-58.8933
-59.279
-60.0311
-60.7593
-61.7295
-62.473
-64.0258
-66.8759
-69.1396
-57.999
-58.6363
-59.7346
-60.6125
-61.5804
-62.2902
-62.7052
-63.577
-66.4438
-69.3184
-72.2613
-74.4352
-58.5381
-59.6595
-60.9357
-61.8267
-62.4079
-63.4691
-63.9581
-66.0617
-69.1447
-71.9207
-74.79
-75.9922
-74.7241
-59.7144
-60.8602
-62.4113
-63.1241
-63.8824
-64.9723
-66.0221
-68.0611
-71.3874
-74.4216
-75.2897
-74.5135
-73.4257
-71.2868
-61.1053
-62.2155
-63.6037
-64.735
-66.1234
-66.9201
-68.4677
-70.7393
-73.6083
-74.8477
-74.3251
-73.2822
-72.3074
-69.6813
-67.9181
-62.2272
-63.8923
-65.3591
-66.6433
-67.7797
-68.9356
-70.5019
-72.7207
-74.1593
-74.2679
-72.8944
-72.0699
-70.3413
-68.1145
-66.2186
-64.3831
-63.7264
-65.5089
-67.0435
-68.4431
-69.5741
-70.7938
-72.2146
-73.9995
-74.1536
-73.0865
-71.4958
-70.3051
-68.5815
-66.2235
-64.7726
-63.1724
-61.6363
-65.6313
-67.2157
-69.0388
-70.231
-70.915
-71.8451
-73.0074
-73.3402
-72.6059
-71.4414
-69.7475
-68.269
-66.7769
-64.8033
-63.6855
-62.4505
-61.4006
-60.6461
-67.3912
-68.8817
-70.1807
-70.6039
-70.9374
-71.5935
-72.2443
-72.0249
-70.8602
-69.5464
-67.7755
-66.4706
-65.1512
-63.8538
-62.8237
-61.8901
-61.2031
-60.2615
-60.1401
-68.7162
-69.7844
-70.4047
-70.5919
-70.4181
-70.8204
-71.1497
-70.4999
-69.0904
-67.7298
-66.1032
-65.0934
-64.0347
-62.9702
-62.0868
-61.6761
-61.5682
-60.9054
-60.8062
-61.1611
-70.1412
-70.5707
-70.6301
-69.9105
-69.6924
-69.9756
-69.5383
-68.7116
-67.3986
-66.0818
-64.9203
-63.7101
-62.9315
-62.2092
-61.7036
-61.5993
-62.1001
-62.4303
-61.9131
-62.7574
-63.21
-70.4348
-70.7596
-70.2615
-69.1148
-68.414
-68.3082
-67.7785
-66.9253
-65.8623
-64.6781
-63.8116
-62.7404
-62.2159
-61.5421
-61.3231
-61.5711
-62.1307
-63.1568
-63.1903
-63.3479
-64.0808
-63.5372
-70.3988
-70.1225
-68.9861
-67.9477
-67.391
-66.9315
-66.2049
-65.4525
-64.4648
-63.4689
-62.7873
-61.8992
-61.3383
-60.9271
-60.8338
-61.0946
-61.5103
-62.3189
-63.0968
-63.1185
-63.0988
-63.1564
-62.937
-70.1877
-69.5261
-68.4205
-66.9149
-66.1285
-65.5511
-65.0686
-64.4341
-63.1062
-62.2718
-61.8438
-61.1889
-60.6752
-60.2552
-60.2142
-60.6645
-61.2969
-61.8971
-62.4744
-62.6861
-62.7636
-62.5843
-62.4988
-62.1047
-54.4005
-54.7329
-54.6089
-54.9667
-54.7712
-54.6726
-55.0796
-55.0318
-54.9028
-54.8399
-55.2106
-55.1964
-55.1306
-55.106
-55.0378
-55.3264
-55.3399
-55.3921
-55.4077
-55.5978
-55.7981
-55.4892
-55.6343
-55.6661
-55.8047
-56.1397
-56.105
-56.447
-55.7297
-55.8141
-56.0208
-56.4154
-56.4886
-56.7485
-57.234
-57.7903
-55.958
-56.2024
-56.4331
-57.017
-57.1932
-57.8205
-58.1606
-58.8728
-59.5024
-56.3917
-56.6055
-57.1209
-57.8055
-57.9699
-58.6309
-59.177
-60.065
-60.8437
-62.2946
-56.9348
-57.1768
-58.4616
-58.6387
-58.8328
-59.6699
-60.6506
-61.2329
-62.2295
-64.3063
-66.3806
-57.6585
-57.6605
-59.141
-59.2581
-60.2998
-60.9569
-61.9005
-62.6694
-64.4231
-67.5593
-68.8605
-71.7266
-58.219
-58.7653
-60.0188
-60.6001
-61.751
-62.5056
-63.1186
-64.1117
-67.0147
-69.9338
-72.4658
-74.7965
-74.6874
-58.8561
-60.0469
-61.1816
-62.3189
-62.8315
-63.9355
-64.0856
-66.3314
-69.4615
-72.4146
-75.1582
-75.8717
-74.3361
-72.6392
-59.9785
-61.18
-62.6076
-63.7039
-64.4761
-65.3547
-66.7442
-69.4722
-72.1586
-74.9517
-75.5093
-74.3918
-73.4538
-71.1152
-68.9761
-61.493
-62.6846
-64.3907
-65.2419
-66.5074
-68.0125
-69.6601
-71.8909
-74.5456
-75.2119
-74.4792
-73.3108
-72.0188
-69.2933
-67.1201
-65.2509
-62.7489
-64.4345
-66.2463
-67.4422
-68.726
-69.7215
-71.6499
-73.8725
-74.9284
-74.4937
-73.1004
-72.1255
-70.2639
-67.9539
-65.8988
-64.241
-62.2372
-64.4099
-66.2182
-67.6849
-69.2854
-70.4507
-71.7007
-73.1829
-74.4835
-74.3073
-73.2663
-71.6289
-70.2558
-68.5803
-65.948
-64.461
-62.93
-61.4003
-60.6008
-66.326
-67.9689
-69.7468
-70.9518
-71.689
-72.4854
-73.4506
-73.653
-72.8738
-71.5235
-69.8191
-68.1611
-66.6095
-64.6974
-63.4899
-62.2833
-61.279
-60.4877
-59.91
-67.8106
-69.5271
-71.056
-71.4882
-71.5488
-72.1256
-72.6622
-72.2518
-70.9657
-69.5985
-67.7152
-66.3555
-65.0339
-63.7455
-62.7113
-61.6863
-61.1377
-60.1514
-60.052
-59.9015
-69.2935
-70.456
-70.9874
-71.2659
-70.8095
-71.0793
-71.3649
-70.6475
-69.1703
-67.7758
-66.1169
-65.004
-63.9271
-62.8816
-61.9774
-61.5071
-61.416
-60.9519
-60.8832
-61.1304
-61.3181
-70.6479
-71.0296
-70.9105
-70.3628
-69.9021
-70.2016
-69.7106
-68.777
-67.4172
-66.1257
-64.8876
-63.687
-62.8742
-62.1271
-61.5858
-61.4602
-61.8878
-62.3477
-61.9622
-62.7101
-63.0442
-62.5528
-70.8038
-71.0895
-70.5478
-69.2903
-68.5238
-68.4399
-67.8749
-66.9677
-65.858
-64.6577
-63.8163
-62.7566
-62.1459
-61.4787
-61.2493
-61.5242
-62.0455
-62.9967
-63.181
-63.278
-63.9385
-63.5468
-63.4161
-70.6488
-70.3293
-69.1418
-68.0224
-67.4422
-66.9972
-66.2697
-65.4708
-64.4796
-63.4503
-62.7866
-61.8782
-61.261
-60.8908
-60.7913
-61.093
-61.4718
-62.2525
-63.0718
-63.1079
-63.0594
-63.1346
-62.9251
-62.755
-70.2535
-69.566
-68.4444
-66.9411
-66.1348
-65.537
-65.0477
-64.4451
-63.1093
-62.2617
-61.8517
-61.1854
-60.6458
-60.2408
-60.2045
-60.6643
-61.2866
-61.8764
-62.4562
-62.6782
-62.7461
-62.5673
-62.4731
-62.0605
-62.0571
-54.4791
-54.3513
-54.8083
-54.7488
-54.5277
-54.9496
-54.821
-54.7128
-54.6609
-55.1626
-55.0783
-54.9782
-54.9455
-54.9063
-55.2495
-55.1864
-55.2617
-55.2852
-55.2213
-55.4481
-55.4413
-55.4025
-55.4579
-55.5108
-55.6512
-55.8367
-56.0224
-55.6586
-55.6761
-55.802
-55.8793
-56.2692
-56.2656
-56.6613
-57.1349
-55.8457
-55.9418
-56.0932
-56.428
-56.7682
-56.8416
-57.3913
-58.043
-58.692
-56.0997
-56.3574
-56.5167
-57.0533
-57.3448
-57.8214
-58.4475
-58.9555
-59.7304
-60.5375
-56.5047
-56.9882
-57.1508
-57.8935
-58.1081
-58.798
-59.4467
-60.2108
-61.0144
-62.2898
-64.2064
-57.077
-57.7752
-57.6812
-58.6996
-59.0014
-59.7691
-60.6581
-61.505
-62.6541
-64.957
-66.9243
-69.1045
-57.7349
-58.1894
-59.0424
-59.5645
-60.5822
-61.2094
-62.0806
-62.7648
-64.6017
-67.5821
-68.5275
-71.5017
-72.791
-58.2137
-59.2415
-60.0297
-60.8816
-61.808
-62.5862
-63.3984
-64.5937
-67.3186
-70.0893
-72.1861
-74.5723
-73.9065
-71.508
-59.2437
-60.5281
-61.4878
-62.7465
-63.4082
-63.9756
-65.2469
-66.9228
-69.7508
-72.7269
-75.1585
-75.6409
-73.7594
-71.8248
-69.021
-60.5267
-61.2782
-63.0132
-64.2699
-64.3966
-65.8107
-67.2912
-69.4657
-73.4
-75.028
-75.234
-74.0823
-73.1867
-70.5767
-68.2522
-65.6681
-61.5395
-63.5289
-65.2361
-65.7866
-66.988
-68.9069
-70.6463
-73.3143
-75.2366
-75.3516
-74.474
-73.2566
-71.9084
-69.1423
-66.7164
-65.0918
-62.8528
-63.4427
-64.9574
-66.7716
-68.2232
-69.6414
-70.9417
-72.8538
-74.584
-75.2566
-74.6173
-73.0961
-72.0375
-69.9889
-67.6805
-65.4131
-64.0384
-62.0755
-60.7131
-65.1907
-67.0598
-68.6317
-70.2394
-71.3513
-72.436
-73.937
-74.6078
-74.3146
-73.2784
-71.6363
-70.0912
-68.3941
-65.7508
-64.1839
-62.6703
-61.1537
-60.317
-59.92
-66.9688
-68.8245
-70.5033
-71.7299
-72.4094
-72.9636
-73.7385
-73.7162
-72.9475
-71.5597
-69.7894
-68.0357
-66.3772
-64.5288
-63.2937
-62.1371
-61.0878
-60.3144
-59.6554
-59.9623
-68.3569
-70.1147
-71.9001
-72.3128
-72.1414
-72.4755
-72.9407
-72.3381
-71.0144
-69.6007
-67.6254
-66.2114
-64.7824
-63.5755
-62.5801
-61.4661
-61.0436
-60.0963
-59.9821
-59.7608
-60.4143
-69.9263
-71.1341
-71.7115
-71.7351
-71.1781
-71.3341
-71.5547
-70.6427
-69.2028
-67.7963
-66.0699
-64.8731
-63.8407
-62.7725
-61.8531
-61.3526
-61.2731
-60.9807
-60.9645
-61.1068
-61.2496
-61.4522
-71.0838
-71.5127
-71.2866
-70.8152
-70.0528
-70.3556
-69.8333
-68.6529
-67.4041
-66.0946
-64.8476
-63.6459
-62.7921
-62.0357
-61.489
-61.345
-61.6938
-62.2499
-62.0703
-62.6521
-62.8958
-62.5383
-61.7424
-71.1499
-71.4023
-70.8144
-69.4501
-68.612
-68.5367
-67.9415
-66.9876
-65.8563
-64.6469
-63.8112
-62.7727
-62.0654
-61.4287
-61.1798
-61.423
-61.977
-62.8075
-63.1807
-63.21
-63.771
-63.5083
-63.3885
-62.6854
-70.8658
-70.5351
-69.2897
-68.0666
-67.4952
-67.0466
-66.3088
-65.4746
-64.4788
-63.4154
-62.7742
-61.8551
-61.1929
-60.8519
-60.7426
-61.0669
-61.435
-62.1848
-63.0389
-63.0983
-63.0151
-63.0896
-62.9049
-62.6912
-62.6225
-70.3098
-69.609
-68.4604
-66.9688
-66.1381
-65.5384
-65.0369
-64.4554
-63.1124
-62.2526
-61.8566
-61.1755
-60.6187
-60.2235
-60.1938
-60.656
-61.2761
-61.854
-62.4409
-62.6723
-62.7283
-62.5489
-62.4448
-62.0136
-62.0015
-62.1919
-54.5545
-54.4753
-54.2961
-54.8029
-54.7415
-54.6894
-54.5844
-55.0396
-54.9378
-54.8169
-54.7755
-54.7923
-55.2507
-55.1163
-55.0843
-55.1298
-55.1524
-55.0913
-55.3252
-55.3313