/*--------------------------------*- C++ -*----------------------------------*\
  =========                 |
  \\      /  F ield         | OpenFOAM: The Open Source CFD Toolbox
   \\    /   O peration     | Website:  https://openfoam.org
    \\  /    A nd           | Version:  7
     \\/     M anipulation  |
\*---------------------------------------------------------------------------*/
FoamFile
{
    version     2.0;
    format      ascii;
    class       surfaceScalarField;
    location    "3.5";
    object      phi_0;
}
// * * * * * * * * * * * * * * * * * * * * * * * * * * * * * * * * * * * * * //

dimensions      [0 3 -1 0 0 0 0];

internalField   nonuniform List<scalar> 
54451
(
6.37241e-05
0.00200677
-0.000108864
4.75029e-05
0.00416194
-0.000247504
6.51973e-05
0.0019527
-0.000109009
0.00014137
0.00138856
-0.000107138
-9.31183e-05
0.00578183
-0.000161876
6.67087e-06
0.00429838
-0.000237943
0.000134079
0.00355424
-0.000248361
6.89852e-05
0.00189373
-0.000108787
0.000143452
0.00124485
-0.000108752
0.000210045
0.000280839
-8.38791e-05
1.27001e-05
0.00565204
-0.000314409
-9.75936e-05
0.00592747
-0.000141856
7.83809e-05
0.00552956
-0.000142323
3.1199e-05
0.00440976
-0.000236274
0.00015857
0.00355284
-0.000251652
0.000304808
0.00234053
-0.000242599
7.5672e-05
0.00182716
-0.000108715
0.000136051
0.00110983
-0.000109821
0.000204081
5.14426e-05
-8.34365e-05
0.000268027
-0.000546737
-7.96657e-05
0.000413569
0.00498982
-0.000573398
0.000143821
0.00553178
-0.000388397
0.000328079
0.00517087
-0.000512004
4.53082e-06
0.0059665
-0.000101382
0.000197678
0.00551136
-0.000162771
0.000427489
0.00457307
-0.000127587
2.92054e-05
0.00452612
-0.000235983
0.000164134
0.00354033
-0.000251851
0.00032066
0.00221333
-0.000241027
0.00045358
0.000871355
-0.000209484
7.5497e-05
0.00176095
-0.000109523
0.000126728
0.000984246
-0.000109857
0.00019549
-0.000169723
-8.41456e-05
0.00025382
-0.000808632
-7.53622e-05
0.000225246
0.000254533
-9.03739e-05
0.000624898
0.00511155
-0.0005841
0.000417339
0.00484743
-0.00061247
0.000501722
0.00467429
-0.000578961
0.000207552
0.00537736
-0.000451663
0.000372723
0.00510176
-0.00049433
0.000546192
0.00469763
-0.000439372
7.03003e-05
0.00595943
-0.000127901
0.000265563
0.00548913
-0.000180578
0.000481417
0.00438513
-0.000135585
0.000698192
0.00300142
-8.79219e-05
3.74689e-05
0.00462643
-0.000227171
0.000176842
0.00350643
-0.000252194
0.000343728
0.00205106
-0.000237818
0.000444405
0.000652027
-0.000212284
0.000401453
0.00213893
-0.00019419
8.04267e-05
0.00169029
-0.00011047
0.000120631
0.000862882
-0.00010879
0.000185217
-0.000379906
-8.48909e-05
0.000243021
-0.00106302
-7.27797e-05
0.000226517
4.15043e-05
-8.88505e-05
0.00020415
0.00100501
-9.12787e-05
0.000873847
0.00540773
-4.44012e-05
0.00058218
0.00532249
-0.000606001
0.000677246
0.00464295
-0.000865174
0.000399267
0.00473218
-0.000619323
0.000449882
0.00459106
-0.000606398
0.000570715
0.00442839
-0.000558596
0.000345721
0.00511127
-0.000495208
0.000539879
0.00488178
-0.000506002
0.0007407
0.00435312
-0.000409105
0.000949422
0.00380133
-0.000367282
9.98961e-05
0.00590245
-0.000144741
0.000310732
0.0054255
-0.000198155
0.000559064
0.00414166
-0.000152444
0.000784705
0.00263309
-0.000107555
0.000711895
0.00360362
-0.000228434
9.45988e-05
0.00466188
-0.000222692
0.000201425
0.00344922
-0.000250754
0.00036503
0.00186778
-0.000248731
0.000431618
0.000442344
-0.000216732
0.000435573
0.00191856
-0.000200973
0.000451228
0.00273733
-0.000223584
8.92582e-05
0.00161113
-0.000111311
0.000121793
0.000737125
-0.000106505
0.000176724
-0.000581305
-8.41149e-05
0.000236265
-0.00131227
-7.19044e-05
0.000222087
-0.000166472
-8.68912e-05
0.000208956
0.000796633
-8.94257e-05
0.000198177
-0.000216867
-8.35507e-05
0.00121662
0.00603589
0.000613866
0.000908123
0.00566113
8.51195e-06
0.00100932
0.00469336
-0.000399652
0.000654834
0.00541915
-0.000677543
0.000752292
0.00442187
-0.000687331
0.000654316
0.00409158
-0.000942953
0.000436825
0.00468003
-0.000668488
0.000637296
0.00445514
-0.000580818
0.000753759
0.00438296
-0.000574027
0.000982342
0.00425795
-0.00059716
0.000352858
0.00484929
-0.00049681
0.000479627
0.00473474
-0.000517063
0.000729483
0.0041572
-0.000480497
0.00102502
0.00354183
-0.000389921
0.000971356
0.00375635
-0.000517559
0.000186444
0.00580696
-0.000194297
0.000379477
0.00530587
-0.000203168
0.000618622
0.00383747
-0.000147555
0.000777812
0.0022639
-0.000129445
0.000736979
0.00342833
-0.000233681
0.000795226
0.00295271
-0.000349949
0.000135649
0.00465625
-0.000216818
0.000235034
0.00336127
-0.000247987
0.000386353
0.00166858
-0.000261178
0.000430282
0.000237129
-0.000237533
0.000446371
0.00169491
-0.000217359
0.000477135
0.00248798
-0.000219802
0.000561984
0.000842236
-0.000244072
9.5344e-05
0.00152613
-0.00011242
0.000124184
0.000606299
-0.00010467
0.000172886
-0.000777747
-8.29499e-05
0.000235828
-0.00155906
-7.31521e-05
0.000214167
-0.000367144
-8.53984e-05
0.000206201
0.000591031
-8.74898e-05
0.000202816
-0.000427885
-8.12233e-05
0.000215926
-0.00150995
-7.28319e-05
0.00140855
0.00651891
0.00139705
0.00129445
0.00608675
0.000735641
0.00129957
0.00531661
0.000393457
0.00103779
0.00569093
-2.45433e-05
0.00100007
0.0047434
-0.000289302
0.000949762
0.00403323
-0.000823767
0.0006691
0.00524657
-0.000499596
0.000766137
0.0045683
-0.000952814
0.00066232
0.00420773
-0.00071204
0.000815414
0.00457354
-0.000838334
0.000441373
0.00456717
-0.00065123
0.000462347
0.00445757
-0.000653639
0.000821526
0.00427241
-0.000562312
0.00112972
0.00413099
-0.000551766
0.00115432
0.00428023
-0.000684539
0.000334058
0.00463678
-0.000485046
0.000495865
0.00462547
-0.000503925
0.00079916
0.00396815
-0.000508556
0.00101594
0.00328009
-0.000456891
0.00102023
0.00356482
-0.000481632
0.00116154
0.00305244
-0.000631688
0.000264306
0.005669
-0.000231127
0.000438317
0.00511908
-0.000210791
0.00072457
0.00342355
-0.000127465
0.000818722
0.00182681
-9.89062e-05
0.000794037
0.00318682
-0.000235603
0.000873944
0.00268423
-0.000362009
0.000884693
0.00168888
-0.000365179
0.000177998
0.00461074
-0.000217357
0.000254647
0.0032539
-0.000239906
0.000407889
0.00144454
-0.000258953
0.000465589
7.51915e-06
-0.000261328
0.000448961
0.00145412
-0.000231545
0.00049276
0.00221149
-0.000227435
0.000561825
0.000501201
-0.000237776
0.000534663
-0.000179561
-0.000265418
0.000100941
0.00143622
-0.00011362
0.000126248
0.000470324
-0.000102692
0.000166051
-0.000967956
-8.05129e-05
0.000237331
-0.00180447
-7.48755e-05
0.000203743
-0.000557973
-8.60662e-05
0.000204946
0.000387084
-8.63976e-05
0.000205506
-0.000642467
-7.84138e-05
0.000214564
-0.00173285
-7.28842e-05
0.000207651
-0.00159311
-6.90419e-05
0.00171909
0.00653584
0.00183259
0.00149123
0.00647922
0.00144982
0.00155266
0.00582175
0.00121231
0.00138896
0.00610773
0.000667369
0.00119756
0.00533598
0.000518785
0.00133336
0.00416699
0.000168879
0.000984318
0.00569376
6.71805e-05
0.000976997
0.00475244
-0.000244447
0.000967033
0.00410769
-0.000668468
0.000833857
0.00432398
-0.00100218
0.000644161
0.00510327
-0.000484548
0.000533873
0.0045672
-0.000570023
0.000798331
0.00427177
-0.000993656
0.00106554
0.00469059
-0.0007649
0.00137354
0.00409276
-0.000783088
0.000417285
0.0044218
-0.000645893
0.000460678
0.00448312
-0.000641589
0.000937465
0.00406874
-0.000588268
0.00127736
0.00383113
-0.000523881
0.00133765
0.00402607
-0.000615026
0.00145429
0.00363837
-0.000678246
0.000346513
0.00449288
-0.000503268
0.000564383
0.00449783
-0.000483471
0.000921042
0.0037461
-0.000478348
0.00104161
0.00296459
-0.000415939
0.00113157
0.00320486
-0.000434468
0.00127559
0.00278001
-0.000610845
0.00126233
0.00151918
-0.000626253
0.00034062
0.00548556
-0.000272613
0.000511996
0.00484454
-0.000213929
0.000808606
0.0029535
-0.000141464
0.000920699
0.00129524
-5.10021e-05
0.00087036
0.00289161
-0.000225093
0.000893329
0.00243196
-0.000383903
0.000846058
0.0014296
-0.000386962
0.00086051
0.000730012
-0.000448373
0.00021779
0.00451162
-0.000201825
0.000299821
0.00309348
-0.000230511
0.000430461
0.00118333
-0.000243107
0.000512103
-0.000256077
-0.000270128
0.000457928
0.0011798
-0.000241186
0.000506946
0.00191243
-0.00023448
0.000549579
0.00018572
-0.000256028
0.000547631
-0.000488093
-0.000262312
0.000379661
-0.000587812
-0.000241758
0.000107173
0.00134133
-0.000115353
0.000128346
0.000329252
-0.000100895
0.000166823
-0.00116079
-7.66815e-05
0.000240757
-0.00205173
-7.40094e-05
0.000200165
-0.000746235
-8.67789e-05
0.000206189
0.000180545
-8.57159e-05
0.000205468
-0.000856958
-7.73743e-05
0.00020261
-0.00194274
-7.11302e-05
0.000200212
-0.00179785
-6.83551e-05
0.00015881
-0.00125669
-5.08902e-05
0.00189434
0.00658177
0.00202278
0.00143966
0.00643484
0.00187378
0.00174991
0.00578416
0.0017732
0.0015139
0.00645763
0.00152916
0.0014499
0.005586
0.00143323
0.0014882
0.00501135
0.00110372
0.00128472
0.00603703
0.000814813
0.0011499
0.00512583
0.000704608
0.00113469
0.00426806
0.000250059
0.000957749
0.00430303
-0.000286452
0.000885795
0.00555913
0.000202694
0.000749875
0.00472667
-0.000123048
0.000930932
0.00434027
-0.000609631
0.000978297
0.00465159
-0.000908833
0.00124741
0.00430952
-0.000734923
0.000538189
0.00506847
-0.000504443
0.000539432
0.00456331
-0.000559409
0.000835227
0.00456215
-0.00075817
0.00116169
0.00452818
-0.000715566
0.00151846
0.0038629
-0.000715851
0.00171219
0.00341658
-0.000810962
0.000379014
0.00425615
-0.000560808
0.000620101
0.00441249
-0.000630989
0.00106124
0.00389767
-0.000610721
0.00137481
0.0034755
-0.000565836
0.00147108
0.00373896
-0.000576281
0.00157962
0.00341048
-0.000691168
0.00158821
0.00159892
-0.000790083
0.00040153
0.00436565
-0.000522533
0.000610238
0.00443132
-0.000535003
0.000938011
0.00361024
-0.000477012
0.00109057
0.00270794
-0.000391579
0.0012424
0.00281182
-0.000394934
0.00130161
0.00247751
-0.00054025
0.00119412
0.0012445
-0.000684225
0.00100848
0.000848205
-0.00068388
0.000405553
0.00526658
-0.00030761
0.000583429
0.00453627
-0.00024795
0.000877843
0.00246767
-0.000175478
0.000980904
0.000773316
-8.83432e-05
0.000912551
0.00261254
-0.000226553
0.000889197
0.00226055
-0.000435931
0.000888939
0.00112191
-0.00041557
0.000837305
0.000502247
-0.000448872
0.000521071
-0.000451726
-0.000444695
0.000252715
0.0043744
-0.000201284
0.000331483
0.00289951
-0.000210992
0.000446606
0.000892547
-0.00021951
0.000523588
-0.000526923
-0.000255093
0.000482784
0.000875411
-0.000248362
0.00051687
0.0015898
-0.000229237
0.000515163
-9.0671e-05
-0.000267785
0.000515736
-0.000790845
-0.000266402
0.000371937
-0.000779081
-0.000242768
0.000310887
-0.00149609
-0.00017002
0.000113864
0.00124141
-0.000116323
0.000133079
0.000180038
-9.92174e-05
0.000173624
-0.00136162
-7.36853e-05
0.000242304
-0.00229851
-7.21992e-05
0.000208818
-0.000943186
-8.58764e-05
0.000209027
-2.89271e-05
-8.63335e-05
0.000210423
-0.00107657
-7.65302e-05
0.000190631
-0.00214017
-7.05727e-05
0.000205627
-0.00200751
-6.71031e-05
0.000154764
-0.00142974
-5.00754e-05
0.000112662
-0.00227814
-3.2679e-05
0.00180069
0.0063159
0.00247976
0.00162339
0.00614628
0.00230229
0.0017616
0.00547977
0.00219651
0.00142819
0.00643883
0.00194847
0.00159623
0.005802
0.00170961
0.001415
0.00540921
0.00183895
0.00139702
0.0063232
0.0016151
0.00133935
0.00528793
0.00163779
0.00134455
0.00499225
0.00124247
0.00127051
0.0051183
0.00065684
0.0011812
0.00581912
0.000820503
0.000982102
0.0051456
0.000562816
0.000961732
0.00463185
0.000310017
0.000942563
0.00480339
-0.000214574
0.00125423
0.0048125
-0.00040524
0.000813905
0.00536769
0.000249641
0.00069848
0.00476958
7.36059e-07
0.00101593
0.00457103
-0.000534516
0.00111921
0.00483479
-0.000750367
0.00137919
0.00422091
-0.000680962
0.00174323
0.00372792
-0.000797376
0.000416917
0.00508821
-0.000427641
0.000574374
0.00474713
-0.000642543
0.00104015
0.00470815
-0.00068432
0.00136317
0.00440716
-0.000625513
0.00163368
0.0036986
-0.000713868
0.00183664
0.0032287
-0.000784982
0.00166027
0.00266149
-0.000977505
0.000126803
0.00451119
-0.000661926
0.000661315
0.0044029
-0.000602293
0.00112657
0.00365847
-0.000580345
0.0014011
0.00315714
-0.000602887
0.00153099
0.00346614
-0.000581602
0.00164344
0.00321316
-0.000720788
0.00150699
0.00146727
-0.000872395
0.00122448
0.00118779
-0.000886959
0.000381254
0.00434116
-0.000565036
0.000735479
0.00425319
-0.000496452
0.000972074
0.00351837
-0.000537364
0.00113959
0.002513
-0.000440752
0.00127326
0.00245859
-0.000399061
0.00134
0.00212669
-0.000494921
0.00121299
0.00105554
-0.000675343
0.000985082
0.000705587
-0.000689383
0.000834135
0.000256757
-0.000709309
0.000488078
0.00495921
-0.000311344
0.000685818
0.00419132
-0.000317001
0.000926646
0.00202658
-0.000286905
0.000928944
0.000387084
-0.000194602
0.0009335
0.00232363
-0.00025015
0.000878511
0.00214525
-0.000472896
0.000904315
0.000758023
-0.000461197
0.000804793
0.000232744
-0.000435123
0.000539194
-0.000632979
-0.000434875
0.000474094
-0.00159206
-0.000356446
0.000277327
0.00421773
-0.000203316
0.000392636
0.00265534
-0.00021667
0.000447503
0.000624467
-0.000216791
0.00049927
-0.000766331
-0.000237068
0.000511559
0.00057182
-0.000254243
0.000526026
0.00124938
-0.000224944
0.000510048
-0.00035965
-0.000259883
0.000483859
-0.0010797
-0.000272161
0.000418276
-0.00102772
-0.000230413
0.00029514
-0.00171056
-0.00016867
0.000205747
-0.00237949
-0.000151675
0.000124819
0.00112902
-0.000114888
0.000136121
2.54123e-05
-9.78181e-05
0.000178712
-0.00156814
-7.14169e-05
0.000236706
-0.00253778
-7.11251e-05
0.000216588
-0.001147
-8.49751e-05
0.000210996
-0.00023976
-8.60396e-05
0.000209646
-0.00129616
-7.63898e-05
0.000185271
-0.00233189
-7.00875e-05
0.000200742
-0.00221263
-6.6193e-05
0.000148665
-0.00159617
-4.93329e-05
0.000104342
-0.00240021
-3.23467e-05
6.07064e-05
-0.00300358
-2.99554e-05
0.00188095
0.00577693
0.00278633
0.00181656
0.0059754
0.00237184
0.00185376
0.00536608
0.00253252
0.00140316
0.00611623
0.00225745
0.00178778
0.0055149
0.00207561
0.00170403
0.00530495
0.00198324
0.00125182
0.00641859
0.00218043
0.00155926
0.00582132
0.00170923
0.00167617
0.00514789
0.00163931
0.00175687
0.00557023
0.0011244
0.00132977
0.00610233
0.00168308
0.00114473
0.00523727
0.00150313
0.00133871
0.00513476
0.00111831
0.0013917
0.00523411
0.000677528
0.0016437
0.00542048
-5.79871e-05
0.00105588
0.00564493
0.000783559
0.000843507
0.00520993
0.000611148
0.00119094
0.00496486
5.47976e-05
0.00124528
0.00525743
-0.000270089
0.00135155
0.00501562
-0.000390052
0.00183978
0.00462732
-0.000376776
0.00056762
0.00542675
0.00014809
0.000723514
0.00496301
-9.29237e-05
0.00106872
0.00500608
-0.00046289
0.00139416
0.00494813
-0.000678838
0.00155245
0.00415597
-0.000604194
0.0020105
0.00362928
-0.000756183
0.0017611
0.00370156
-0.000956898
3.05542e-05
0.00528995
-0.000330841
0.000751278
0.00476786
-0.000538329
0.00119356
0.00464697
-0.00064835
0.00147241
0.00433069
-0.000679163
0.00170954
0.00359221
-0.000697672
0.00186563
0.00312428
-0.000831648
0.00165511
0.00271602
-0.000987631
0.00146725
0.00228582
-0.00128856
0.000554951
0.00438203
-0.0006108
0.000938943
0.00433669
-0.00079918
0.00132284
0.00335702
-0.000651615
0.00144349
0.00287308
-0.000600179
0.00153788
0.00321601
-0.000617383
0.0017154
0.00300951
-0.000753357
0.00145298
0.00143324
-0.000926756
0.0012802
0.000935922
-0.000915647
0.000949592
0.000947909
-0.00103503
0.000547289
0.00426879
-0.000605625
0.000810182
0.00396853
-0.000404746
0.000985651
0.00342131
-0.000458399
0.00111913
0.00226424
-0.000478794
0.00126901
0.00211549
-0.000433154
0.00138535
0.00175933
-0.00053854
0.0012802
0.000791145
-0.000606404
0.000948921
0.000596091
-0.000709975
0.000866878
-5.89283e-05
-0.000701382
0.000574624
-0.000282541
-0.000672863
0.000495412
0.00465326
-0.00034304
0.00077164
0.00381581
-0.00031484
0.000921347
0.00161586
-0.00038012
0.000845915
8.95048e-05
-0.000335971
0.000951319
0.00199561
-0.000306343
0.000910171
0.00198363
-0.000472672
0.000891272
0.000381327
-0.000477425
0.000777855
-8.98095e-05
-0.000432641
0.000582259
-0.000825387
-0.000406699
0.000449236
-0.00182689
-0.000354143
0.000318512
-0.00182996
-0.00037144
0.000301636
0.00405087
-0.000207971
0.00043079
0.00238799
-0.000230638
0.000458621
0.000354771
-0.000226883
0.000479853
-0.00098857
-0.000237698
0.000534172
0.000276341
-0.000259174
0.000540163
0.000905891
-0.000239917
0.000528644
-0.000659498
-0.000244094
0.000465701
-0.00134987
-0.000270138
0.000432479
-0.0013056
-0.000226012
0.00027862
-0.00190354
-0.000167386
0.000196804
-0.00249025
-0.000150373
0.000156323
-0.00232207
-0.000152854
0.00013292
0.00100616
-0.00011267
0.000138097
-0.000131911
-9.56621e-05
0.000180033
-0.00177663
-6.93579e-05
0.000228957
-0.0027675
-7.06529e-05
0.000220042
-0.0013538
-8.43664e-05
0.000212694
-0.00045224
-8.51892e-05
0.000202404
-0.00150854
-7.60586e-05
0.000183663
-0.00252247
-6.94673e-05
0.000190194
-0.00240771
-6.52019e-05
0.000142473
-0.00175625
-4.8589e-05
9.58518e-05
-0.00251312
-3.22742e-05
5.65946e-05
-0.00306245
-3.00709e-05
6.75795e-05
-0.00249606
-2.97489e-05
0.00181542
0.00565536
0.00317351
0.00183165
0.00577978
0.00266139
0.00182923
0.00518685
0.00314163
0.00171824
0.00569892
0.00243481
0.0022224
0.00501684
0.00228646
0.00149346
0.00547474
0.00251734
0.00151382
0.00606307
0.00199569
0.00190763
0.00561308
0.0018109
0.0019665
0.00550024
0.00158999
0.00211292
0.00550312
0.00154589
0.00127752
0.00623452
0.00228279
0.00157241
0.00572588
0.00184818
0.00186451
0.0050225
0.00130882
0.0020934
0.00550715
0.00100069
0.00228953
0.00606091
0.000136804
0.0012444
0.00600707
0.00152463
0.00101425
0.00530896
0.00144064
0.00142156
0.00510277
0.00130451
0.00163272
0.00575723
0.000207744
0.00187121
0.00545395
0.000124399
0.00221312
0.0047975
-0.000326009
0.000937754
0.00540928
0.000857602
0.00106406
0.00515948
0.000493463
0.00132538
0.00533695
-1.76055e-05
0.00134048
0.00572896
-0.000363043
0.00181606
0.0048424
-0.000360481
0.00214264
0.00459942
-0.0004943
0.00196831
0.00471543
-0.000714609
0.000498553
0.00503056
0.000355865
0.000672178
0.00531037
-0.000120174
0.00126473
0.00539913
-0.000557145
0.00153845
0.00497315
-0.000553958
0.00176301
0.00407635
-0.000652695
0.00209535
0.00360092
-0.000805546
0.0018009
0.00380479
-0.00100519
0.00188486
0.00392233
-0.00129082
0.000711454
0.00505841
-0.000217936
0.000674292
0.00532759
-0.000625924
0.00128933
0.00471968
-0.000577526
0.00153813
0.00423877
-0.000651075
0.00175339
0.00341677
-0.000719231
0.00194065
0.00310108
-0.000899715
0.00166698
0.00276981
-0.00109942
0.0015107
0.00237376
-0.00130607
0.00121097
0.00210222
-0.00142035
0.000464895
0.00451384
-0.000657714
0.000765768
0.00454564
-0.000775333
0.00124651
0.0029689
-0.00067192
0.00145599
0.00247932
-0.000594719
0.00154949
0.00299068
-0.000655323
0.0017589
0.00275512
-0.000736545
0.00144873
0.00155312
-0.00104177
0.00131128
0.000600295
-0.000953491
0.00107013
0.000890538
-0.00106153
0.000688377
-4.82326e-05
-0.000990982
0.000467875
0.00427172
-0.000645256
0.000830544
0.00377786
-0.000473854
0.00116333
0.0031287
-0.000354112
0.00120042
0.00187516
-0.000423817
0.0013373
0.00169285
-0.000442134
0.00141953
0.00144295
-0.000626136
0.00134931
0.000396948
-0.000602386
0.000893866
0.000579427
-0.000705751
0.000846238
-0.000343306
-0.000689575
0.000570628
-0.000421964
-0.000683352
0.000433533
-0.000673942
-0.0006786
0.000513589
0.00435906
-0.000383574
0.000828442
0.00339562
-0.000320496
0.00086413
0.00130267
-0.000407161
0.000780401
-0.000192809
-0.000398354
0.00095381
0.00158176
-0.00034176
0.000970531
0.00171398
-0.000467067
0.000862247
3.21155e-05
-0.000457063
0.000767571
-0.000422309
-0.000446795
0.000601429
-0.0010463
-0.000380679
0.000442049
-0.00205236
-0.000344657
0.000282423
-0.00188764
-0.000382083
0.000237557
-0.000813212
-0.000352991
0.000334567
0.00385808
-0.000216858
0.000455129
0.0021069
-0.000243915
0.000478437
6.32874e-05
-0.000237559
0.000476039
-0.00121946
-0.000243071
0.000558635
-4.08728e-05
-0.000259077
0.000551227
0.000566624
-0.00025844
0.000518192
-0.000971571
-0.000243633
0.000477971
-0.0016331
-0.00025517
0.000413305
-0.00157153
-0.000227328
0.000269866
-0.00209235
-0.000164598
0.000189184
-0.00260195
-0.000149021
0.000138241
-0.00239909
-0.000154993
7.86925e-05
-0.00191764
-0.000133225
0.00013834
0.000875921
-0.000110371
0.000141809
-0.000293472
-9.29182e-05
0.000175239
-0.00197942
-6.81112e-05
0.00022221
-0.00298959
-6.94833e-05
0.00022044
-0.00156078
-8.41084e-05
0.000215511
-0.000667109
-8.50083e-05
0.000189138
-0.00170748
-7.53912e-05
0.000173496
-0.00270267
-6.93628e-05
0.000180184
-0.00259246
-6.4896e-05
0.00013436
-0.00190792
-4.78893e-05
8.61877e-05
-0.00261613
-3.17688e-05
4.5473e-05
-0.0031097
-3.04984e-05
5.81087e-05
-0.00255447
-2.97707e-05
3.30819e-05
-0.00168773
-1.99236e-05
0.00179886
0.00534695
0.00356568
0.00188374
0.00568326
0.0030912
0.0016384
0.00520328
0.00355376
0.00190213
0.0054926
0.00282681
0.00246531
0.00462797
0.00297736
0.0013046
0.00500041
0.00312767
0.00180253
0.00559526
0.00223161
0.00214865
0.00525591
0.00195472
0.00204912
0.00586963
0.00180895
0.00262441
0.0055538
0.00182901
0.00178929
0.005805
0.00186158
0.00210468
0.00570615
0.00137035
0.00232193
0.00554377
0.00130995
0.00274074
0.00539825
0.00104752
0.00282757
0.00579165
0.000838516
0.00156808
0.00613097
0.00168699
0.00170033
0.00549731
0.00182529
0.00203663
0.00483478
0.00142082
0.00226415
0.00567645
0.000508079
0.00261617
0.00601789
0.000298745
0.00242681
0.00561435
-0.00017515
0.00139564
0.00580709
0.00139964
0.00144682
0.00510448
0.00134635
0.00185571
0.00537827
0.000634808
0.00174029
0.00600142
0.000660508
0.00254742
0.00538156
-0.000451233
0.00240645
0.00479181
-0.00013373
0.00238554
0.00539164
-0.000728932
0.000964038
0.00541998
0.000662615
0.000804299
0.00543035
0.000454612
0.00132958
0.00587922
-0.000113654
0.00194535
0.00566748
-0.00036303
0.00201033
0.00460373
-0.000371689
0.00234468
0.00444717
-0.000457554
0.0021305
0.00483172
-0.000940189
0.00237522
0.0042265
-0.00123282
0.000643654
0.00549887
-0.000244771
0.000754586
0.00559511
-9.16639e-06
0.0014953
0.00557094
-0.000497956
0.00179582
0.00467807
-0.000519757
0.00195874
0.00394853
-0.000631482
0.00214245
0.00363381
-0.000887395
0.00194791
0.00384095
-0.00112264
0.00193861
0.00373433
-0.0012451
0.00180544
0.00318364
-0.00155446
0.000289044
0.00531773
-0.000345426
0.000941312
0.00529322
-0.000359113
0.00133516
0.00466266
-0.000657556
0.00163925
0.00398439
-0.000506401
0.00179493
0.00324677
-0.000726522
0.00196031
0.00307673
-0.000896285
0.00168048
0.00276341
-0.00112507
0.00155661
0.0024476
-0.00141859
0.00156227
0.00160497
-0.00130095
0.00125026
0.000952267
-0.00122672
0.000382937
0.00464308
-0.000593511
0.00100299
0.00446494
-0.000749466
0.00144008
0.00256437
-0.00064755
0.00143423
0.00222155
-0.00064795
0.00166664
0.00266025
-0.000593637
0.00175463
0.00254485
-0.000780147
0.00159048
0.0016885
-0.00111308
0.00132918
6.89675e-05
-0.000945751
0.0010726
0.000756687
-0.001046
0.00092516
-0.000510205
-0.000954088
0.000691209
0.0011493
-0.000887015
0.000625663
0.00412205
-0.000638335
0.000857119
0.00360537
-0.000501441
0.00117211
0.002721
-0.000374146
0.00121999
0.00155396
-0.000472509
0.00133325
0.00138964
-0.000500047
0.00145152
0.00119718
-0.000677357
0.00127115
3.89634e-05
-0.000677052
0.000861064
0.00052157
-0.000638022
0.000907568
-0.00068231
-0.000672886
0.000697808
-0.000696542
-0.000670755
0.000453765
-0.000862767
-0.000665869
0.000319914
0.000266227
-0.000601157
0.000558129
0.00407038
-0.000398971
0.000854157
0.00298244
-0.000369422
0.000867001
0.00100177
-0.000408166
0.000813255
-0.000496013
-0.000441172
0.000948678
0.00115091
-0.000357545
0.00097704
0.00142797
-0.000481555
0.000804175
-0.000255153
-0.000465781
0.000791948
-0.000760049
-0.000433301
0.000634616
-0.0013413
-0.000373105
0.00045143
-0.0022735
-0.000341098
0.000266408
-0.00192683
-0.00038269
0.000227277
-0.000918162
-0.000366169
-3.15459e-05
-0.000730722
-0.000312153
0.000366011
0.00363578
-0.000228856
0.000475245
0.00180425
-0.000247638
0.000463585
-0.00022522
-0.000243754
0.000478678
-0.00146784
-0.000245651
0.00055684
-0.00035922
-0.000261123
0.000564748
0.000223908
-0.000265599
0.000465614
-0.00125159
-0.000254897
0.000444799
-0.00190541
-0.000242634
0.000401864
-0.0018217
-0.000226676
0.000254981
-0.00227718
-0.00016312
0.000169986
-0.00270253
-0.000147815
0.000119914
-0.00246746
-0.000155095
6.41329e-05
-0.00194625
-0.000132407
-4.67654e-05
-0.00173255
-8.37515e-05
0.000143078
0.000738916
-0.000107888
0.00014717
-0.000461101
-8.99116e-05
0.000167852
-0.00217264
-6.75492e-05
0.000211656
-0.00320041
-6.89459e-05
0.000217934
-0.00176468
-8.35165e-05
0.000214205
-0.000880959
-8.44633e-05
0.000176542
-0.00189368
-7.53454e-05
0.000155946
-0.0028652
-6.87996e-05
0.00017609
-0.00277333
-6.45833e-05
0.000122622
-0.002048
-4.74388e-05
7.56232e-05
-0.00270858
-3.10618e-05
3.13936e-05
-0.00314269
-3.0177e-05
4.903e-05
-0.00260368
-3.03163e-05
2.83787e-05
-0.00172618
-1.96951e-05
0.00011259
-0.00113046
1.55332e-06
0.00160464
0.00541329
0.00403196
0.00187369
0.0053667
0.00342913
0.00138069
0.00507448
0.00387162
0.00181067
0.00552351
0.00350793
0.00257035
0.00500982
0.00317962
0.00113165
0.00534117
0.0034762
0.001756
0.0053974
0.0028772
0.00180503
0.0049025
0.0028959
0.00221741
0.00504662
0.00276286
0.00303055
0.00611907
0.00209748
0.00218368
0.00560432
0.00189104
0.002425
0.00564557
0.00152164
0.00269407
0.00617963
0.00127257
0.00310074
0.00590892
0.00109384
0.00356965
0.00595173
0.000827209
0.00222307
0.00583551
0.00125356
0.0024826
0.00548714
0.00129833
0.00262627
0.00519819
0.00112629
0.00298581
0.00529675
0.000689798
0.00323626
0.00567512
0.000543957
0.00318428
0.00586989
-2.09678e-05
0.00182742
0.0059695
0.00145276
0.00241925
0.00496584
0.00124602
0.00254947
0.0051066
0.00085972
0.0025541
0.00560807
0.000675402
0.0030743
0.00584561
0.000153486
0.00257597
0.0056548
8.87794e-05
0.00274333
0.00531424
-0.000384577
0.00144096
0.00585071
0.00098079
0.00148242
0.00532095
0.00050506
0.00163654
0.00585746
0.000560199
0.00252681
0.0060602
-5.43688e-06
0.0026155
0.00568907
-0.000252168
0.0025633
0.00459153
-0.000469579
0.00248549
0.0055917
-0.000688778
0.0028941
0.00479804
-0.00112434
0.000999695
0.0057459
0.000271657
0.00149278
0.00529428
6.04813e-05
0.00198834
0.00597643
-0.000135631
0.00223934
0.00560318
-0.000492875
0.00233055
0.00426248
-0.000393595
0.0023045
0.00443723
-0.000523794
0.00228975
0.00478692
-0.000754602
0.00239723
0.00410567
-0.00127798
0.00258
0.00374278
-0.00137224
0.000455068
0.00566225
9.15028e-05
0.00148032
0.00526881
-0.000457474
0.00183389
0.00547377
-0.000410727
0.00194241
0.00449142
-0.000614461
0.0021294
0.00371903
-0.000624727
0.00210538
0.00372985
-0.000872581
0.00199293
0.00380152
-0.00116042
0.00208483
0.00332338
-0.0012399
0.00208598
0.00285949
-0.00144466
0.00221007
0.000718482
-0.00133768
0.00045573
0.00536327
-0.000399679
0.00121831
0.00512144
-0.000388962
0.00163881
0.0046436
-0.000538787
0.00165156
0.00361928
-0.000509791
0.00188027
0.00316979
-0.000643049
0.00197784
0.00302781
-0.000900819
0.00185046
0.0026971
-0.00108996
0.00173733
0.00231635
-0.00140197
0.00171966
0.000746024
-0.0012067
0.00149315
0.000257745
-0.00117442
0.00106653
0.000396443
-0.000949096
0.000688659
0.00470794
-0.000689349
0.00108107
0.00433451
-0.000687034
0.00139391
0.00235903
-0.00076592
0.00142109
0.00198011
-0.000607208
0.00168521
0.0023204
-0.000660059
0.00174247
0.00246157
-0.000801305
0.00164255
0.00146556
-0.000928609
0.00118631
-0.0003118
-0.00105756
0.00120107
0.00039278
-0.000875345
0.00118763
-0.0010435
-0.00100253
0.000784934
0.000694845
-0.000830807
0.000429139
4.31034e-05
-0.000754282
0.000714362
0.00390607
-0.000610144
0.000913529
0.0034118
-0.000504136
0.0011275
0.00241987
-0.000460805
0.0012219
0.00121581
-0.000444633
0.00129514
0.00115158
-0.000580906
0.00141288
0.000915695
-0.000654401
0.00109499
-0.000166986
-0.000762218
0.00111376
0.000104775
-0.000582073
0.00101765
-0.0010894
-0.000613969
0.000857816
-0.00111576
-0.000660051
0.000420903
-0.00103784
-0.000650179
0.000279971
0.000131834
-0.00058417
-0.000107702
-0.000397589
-0.000533997
0.000635073
0.00376615
-0.000419636
0.000878328
0.00256934
-0.00038896
0.000827984
0.000730215
-0.000462262
0.000819616
-0.000770948
-0.00047417
0.00095008
0.000717141
-0.000400644
0.00101912
0.00109559
-0.00047954
0.000823412
-0.000588597
-0.000505909
0.000771543
-0.0011271
-0.000425474
0.000661304
-0.00166993
-0.000364107
0.000464817
-0.00252487
-0.000331577
0.00021467
-0.00191297
-0.000399644
0.000219601
-0.0010301
-0.000370435
-1.56356e-05
-0.000705763
-0.000311359
-8.17847e-05
-0.000940768
-0.000235957
0.00039298
0.00339886
-0.000242547
0.000486494
0.00148839
-0.000252323
0.000445917
-0.000504845
-0.000246078
0.000449821
-0.00170452
-0.000245243
0.000546832
-0.000671295
-0.000262475
0.000563065
-0.000118172
-0.000267903
0.000426985
-0.00151278
-0.000254852
0.000391178
-0.00215109
-0.000244441
0.000420756
-0.00208931
-0.000219687
0.000228044
-0.00244786
-0.000161416
0.000157244
-0.00280011
-0.000147162
8.03389e-05
-0.0025076
-0.000156621
5.87513e-05
-0.00198099
-0.00013008
-6.60381e-05
-0.00168932
-8.12161e-05
9.35442e-05
-0.00180086
-1.26123e-05
0.000149548
0.00059389
-0.000105345
0.000152529
-0.000634177
-8.734e-05
0.000158738
-0.00235491
-6.638e-05
0.000199041
-0.00339842
-6.85751e-05
0.000213359
-0.0019645
-8.24859e-05
0.000215104
-0.00109607
-8.35139e-05
0.000168864
-0.00207222
-7.479e-05
0.000146311
-0.0030179
-6.89571e-05
0.000170006
-0.00294795
-6.41899e-05
0.000113677
-0.00217939
-4.68782e-05
6.6653e-05
-0.00279214
-3.05277e-05
2.2158e-05
-0.00316615
-2.97515e-05
3.47266e-05
-0.00263823
-3.03525e-05
2.45252e-05
-0.00176152
-1.9501e-05
9.8988e-05
-0.00125075
1.60405e-06
6.80747e-05
-0.00149482
2.17709e-05
0.00132808
0.00525578
0.00444907
0.00175331
0.0054736
0.00396653
0.00120409
0.0050393
0.00427702
0.00148869
0.0056219
0.0036948
0.0023096
0.00538178
0.00338258
0.00126813
0.00507011
0.00375627
0.00181582
0.00536274
0.00339683
0.00199218
0.00495013
0.00338048
0.00273124
0.00506592
0.00294105
0.00333371
0.0057466
0.00249918
0.00207525
0.00576671
0.00237162
0.00238823
0.0053364
0.00248005
0.00281837
0.00581686
0.00200136
0.00368282
0.00668737