/*--------------------------------*- C++ -*----------------------------------*\
  =========                 |
  \\      /  F ield         | OpenFOAM: The Open Source CFD Toolbox
   \\    /   O peration     | Website:  https://openfoam.org
    \\  /    A nd           | Version:  7
     \\/     M anipulation  |
\*---------------------------------------------------------------------------*/
FoamFile
{
    version     2.0;
    format      ascii;
    class       volVectorField;
    location    "3.5";
    object      U;
}
// * * * * * * * * * * * * * * * * * * * * * * * * * * * * * * * * * * * * * //

dimensions      [0 1 -1 0 0 0 0];

internalField   nonuniform List<vector> 
18870
(
(0.564513 1.15156 -2.46218)
(0.0657739 2.07195 -2.00741)
(0.508431 1.16038 -2.45383)
(1.12148 0.941162 -2.52222)
(-0.381701 2.83822 -0.987685)
(-0.099708 2.22225 -1.85592)
(0.896115 1.94284 -1.7953)
(0.459279 1.16098 -2.43864)
(1.05739 0.92894 -2.52234)
(1.79067 0.492595 -2.36119)
(-0.944253 2.73235 -0.454311)
(-0.960697 2.81076 -0.697792)
(-0.524894 2.74497 -0.42827)
(-0.205649 2.21379 -1.79124)
(0.88409 1.95359 -1.77218)
(1.4169 1.47344 -1.91159)
(0.419478 1.16133 -2.42488)
(0.969016 0.90379 -2.51388)
(1.6815 0.455149 -2.42064)
(2.31152 0.185196 -1.47046)
(0.151871 2.64266 -1.35526)
(-0.724272 2.7318 -0.858754)
(0.112641 2.63986 -1.51742)
(-0.992126 2.87671 -0.204055)
(-0.524415 2.73663 -0.576407)
(0.609257 2.46184 -0.831484)
(-0.24669 2.25094 -1.75544)
(0.622976 2.04125 -1.79298)
(1.36247 1.45334 -1.95374)
(1.99332 0.747943 -1.81947)
(0.316619 1.13688 -2.42798)
(0.838481 0.87897 -2.50154)
(1.53457 0.405806 -2.45695)
(2.23366 0.154514 -1.37119)
(1.90572 0.496551 -2.20386)
(0.512696 2.57569 -0.909604)
(0.161164 2.52433 -1.51272)
(0.536197 2.49047 -1.41389)
(-0.523385 2.71015 -1.23849)
(0.415112 2.71939 -1.60003)
(0.98064 2.54895 -1.74489)
(-1.2758 2.74491 -0.224279)
(-0.540215 2.71268 -0.721827)
(0.575434 2.42697 -0.854761)
(1.49709 1.80546 -0.363024)
(-0.402136 2.34787 -1.65008)
(0.472527 2.04295 -1.80718)
(1.32857 1.46473 -1.95783)
(1.76421 0.797106 -1.7451)
(1.51589 1.37881 -1.36349)
(0.29635 1.12583 -2.43615)
(0.727742 0.816937 -2.50847)
(1.39469 0.352213 -2.44402)
(2.21329 0.182965 -1.35117)
(1.87159 0.49055 -2.09512)
(1.6333 0.852257 -1.95511)
(0.334103 2.80762 0.271583)
(0.213976 2.69828 -1.01999)
(0.419918 2.37072 -1.44062)
(-0.0929951 2.4891 -1.50196)
(0.108213 2.40322 -1.43772)
(0.615881 2.44615 -1.47861)
(-0.129017 2.74425 -1.50702)
(0.495366 2.75429 -1.62888)
(0.966318 2.55701 -1.56596)
(1.72922 2.33537 -1.03745)
(-1.41517 2.66547 -0.320166)
(-0.5417 2.70833 -0.86067)
(0.635642 2.38299 -0.854812)
(1.54933 1.792 -0.407649)
(1.37153 2.06781 -0.435892)
(-0.521478 2.36259 -1.60046)
(0.339787 2.05549 -1.75386)
(1.2603 1.48098 -1.95759)
(1.53713 0.718722 -1.66777)
(1.51478 1.34951 -1.47934)
(1.4247 1.64974 -1.52756)
(0.284154 1.16596 -2.43811)
(0.655583 0.794306 -2.51921)
(1.3246 0.310571 -2.36136)
(2.25162 0.200718 -1.37923)
(1.82261 0.486308 -1.99662)
(1.58715 0.807105 -1.96933)
(1.38444 0.149838 -2.20192)
(0.854269 3.1489 1.32436)
(0.219464 2.81885 0.42825)
(0.712498 2.43383 -0.450166)
(0.0755593 2.79471 -1.16202)
(0.38788 2.4283 -1.42468)
(0.580235 1.93648 -2.04439)
(-0.171303 2.42545 -1.50835)
(0.44947 2.40625 -1.44103)
(1.21785 2.25149 -1.61707)
(1.57813 2.20765 -1.29677)
(-0.161967 2.68849 -1.58851)
(0.409584 2.71599 -1.63888)
(1.08723 2.49653 -1.55165)
(1.91294 2.20828 -1.006)
(1.92448 2.16357 -1.28423)
(-1.14237 2.72562 -0.605971)
(-0.49144 2.74014 -0.890451)
(0.690259 2.35878 -0.86688)
(1.62712 1.72662 -0.556086)
(1.47701 2.09752 -0.568938)
(1.81002 1.82114 -1.58711)
(-0.59564 2.36342 -1.56135)
(0.294165 2.02563 -1.72541)
(1.16017 1.4285 -1.99903)
(1.33868 0.647479 -1.80339)
(1.41274 1.34092 -1.61398)
(1.45605 1.66366 -1.50045)
(1.94163 0.816682 -1.87547)
(0.281697 1.1578 -2.45691)
(0.660264 0.769783 -2.53112)
(1.37193 0.304231 -2.22687)
(2.27819 0.19984 -1.41481)
(1.7626 0.487404 -1.92329)
(1.51902 0.795988 -1.96059)
(1.38371 0.152952 -2.08833)
(1.74872 -0.397234 -1.63087)
(0.755411 3.36117 1.96879)
(0.636829 3.22146 1.37883)
(0.921823 2.82025 0.484934)
(0.152152 2.95515 0.159115)
(0.629202 2.50802 -0.424666)
(0.691346 2.00334 -0.912182)
(-0.100275 2.83233 -1.27827)
(0.37643 2.33987 -1.52449)
(0.333176 2.51611 -1.31789)
(0.949809 2.39101 -1.76028)
(-0.326417 2.38465 -1.48699)
(0.0501236 2.37004 -1.67973)
(0.711304 2.59715 -1.47928)
(1.4425 2.53274 -1.2344)
(1.43886 2.44005 -1.68514)
(-0.321747 2.49817 -1.638)
(0.390074 2.66396 -1.57539)
(1.04679 2.54549 -1.58756)
(1.568 2.20306 -1.49867)
(1.67389 2.27046 -1.48628)
(2.08317 1.8981 -1.97486)
(-1.04807 2.75364 -0.732235)
(-0.396895 2.71573 -1.03337)
(0.856023 2.33821 -0.869132)
(1.76385 1.70186 -0.498793)
(1.48335 2.15175 -0.630195)
(1.79112 1.83497 -1.51911)
(2.41266 1.28205 -1.55549)
(-0.687953 2.3448 -1.52976)
(0.182903 2.03925 -1.64983)
(0.995406 1.36017 -1.98575)
(1.34139 0.621302 -1.9246)
(1.28207 1.29002 -1.77567)
(1.37654 1.6267 -1.6125)
(2.01444 0.781591 -1.83068)
(1.93215 0.27655 -1.85126)
(0.26541 1.16972 -2.47306)
(0.671166 0.772704 -2.5385)
(1.4207 0.325492 -2.11261)
(2.23449 0.210304 -1.46552)
(1.68385 0.471177 -1.92672)
(1.43534 0.765657 -1.94544)
(1.41824 0.132374 -1.99595)
(1.70821 -0.418855 -1.6189)
(1.83118 -0.428165 -1.66231)
(0.868738 3.43049 2.24226)
(0.702943 3.4386 1.84081)
(0.937381 3.0725 1.63322)
(0.625058 3.30665 0.980689)
(0.646505 2.80318 0.796961)
(0.868998 2.14191 0.549414)
(0.0124838 3.02367 0.0889985)
(0.437115 2.56932 -0.269468)
(0.509265 2.23343 -0.560856)
(0.678009 2.17182 -1.88076)
(-0.208183 2.66314 -1.26438)
(-0.101855 2.38899 -0.712887)
(0.744252 1.84055 -2.37296)
(1.19503 2.63604 -1.62272)
(1.68337 2.32839 -1.55196)
(-0.445264 2.303 -1.41395)
(-0.189056 2.4149 -1.62247)
(0.812471 2.49164 -1.52241)
(1.58621 2.52763 -1.2655)
(1.63598 2.46837 -1.5036)
(2.10605 2.22304 -1.67656)
(-0.319467 2.47883 -1.64461)
(0.265275 2.73164 -1.42849)
(1.1696 2.52391 -1.56128)
(1.45943 2.15382 -1.66722)
(1.74354 2.23981 -1.35318)
(2.31605 1.92549 -1.56892)
(2.16183 1.22283 -2.05986)
(-0.905516 2.77484 -0.955859)
(-0.401407 2.70516 -1.21322)
(1.10499 2.35428 -0.783564)
(2.00895 1.70364 -0.324655)
(1.48997 2.14056 -0.433579)
(1.82301 1.82535 -1.48018)
(2.23633 1.27806 -1.72402)
(2.33257 0.771651 -1.74941)
(-0.796345 2.31129 -1.47567)
(0.0971445 1.93824 -1.68724)
(0.771759 1.22649 -1.92171)
(1.47394 0.662758 -1.89273)
(1.15304 1.21383 -1.99694)
(1.39103 1.56532 -1.65683)
(2.02462 0.73572 -1.83277)
(2.02603 0.275847 -1.79293)
(1.63519 0.0169571 -2.14377)
(0.251381 1.14241 -2.51067)
(0.692051 0.769302 -2.55402)
(1.47385 0.346582 -1.99661)
(2.19502 0.202741 -1.43841)
(1.63215 0.470639 -1.9228)
(1.34634 0.733457 -1.95101)
(1.46277 0.139904 -1.94493)
(1.71639 -0.43002 -1.5642)
(1.79641 -0.442597 -1.64665)
(1.3294 -0.356702 -1.45961)
(0.997566 3.50864 1.92084)
(0.630351 3.368 2.24561)
(1.03028 3.04817 1.90893)
(0.4994 3.44677 1.77786)
(0.645146 3.03374 1.89024)
(1.26745 2.62068 1.36884)
(0.252018 3.23744 1.23656)
(0.455879 2.82583 0.962908)
(0.78483 2.28848 0.609323)
(0.610489 2.09511 -0.068043)
(-0.185877 2.96738 0.201234)
(0.0312641 2.52543 0.104212)
(0.487385 2.23716 -0.580465)
(0.747846 2.47334 -1.69582)
(1.38165 2.44655 -1.47624)
(-0.456572 2.60985 -0.905092)
(-0.255956 2.37834 -0.68678)
(0.462655 2.75385 -1.69339)
(1.21082 2.70485 -1.48679)
(1.76864 2.3809 -1.41422)
(2.0373 2.01488 -1.65062)
(-0.651816 2.1536 -1.24247)
(-0.0730299 2.34833 -1.67332)
(0.994816 2.44631 -1.53757)
(1.58987 2.44939 -1.37263)
(1.76711 2.49234 -1.33645)
(2.16203 2.25259 -1.47711)
(2.63814 1.21804 -1.76507)
(-0.355165 2.45449 -1.76366)
(0.363759 2.69634 -1.52996)
(1.08055 2.58614 -1.54227)
(1.59147 2.18442 -1.51224)
(1.97519 2.24994 -0.891895)
(2.19341 2.08046 -1.38412)
(1.99883 1.12088 -2.34231)
(2.11091 0.792195 -1.99007)
(-0.791622 2.8107 -1.1606)
(-0.104043 2.75 -1.32799)
(1.48529 2.40107 -0.60457)
(2.23838 1.61816 -0.538543)
(1.56835 2.12358 -0.178776)
(1.76118 1.84639 -1.59858)
(2.09061 1.25332 -1.92592)
(2.28143 0.811947 -1.78422)
(1.40902 0.0617066 -2.35812)
(-0.808381 2.26949 -1.44834)
(-0.0419006 1.93873 -1.50697)
(0.745858 1.10343 -1.73152)
(1.67735 0.709937 -1.71827)
(1.1388 1.13488 -2.16696)
(1.47242 1.57662 -1.57767)
(1.96499 0.695464 -1.87575)
(1.8276 0.192237 -2.04193)
(1.59644 0.00183268 -2.13693)
(1.37781 -0.478459 -1.51133)
(0.22076 1.1815 -2.52519)
(0.691147 0.773273 -2.5675)
(1.51335 0.364145 -1.88365)
(2.19598 0.188235 -1.37449)
(1.64316 0.472842 -1.87844)
(1.3008 0.677143 -1.96671)
(1.54506 0.147695 -1.89341)
(1.67909 -0.452133 -1.56021)
(1.78876 -0.449913 -1.60822)
(1.32863 -0.364687 -1.43037)
(1.02303 -0.924866 -0.853517)
(0.851452 3.14208 2.15173)
(0.407751 3.26758 2.28146)
(1.01351 2.95564 2.1916)
(0.441884 3.37126 2.307)
(0.756951 3.02425 1.99579)
(0.695988 2.85737 2.11419)
(0.297889 3.43335 1.86195)
(0.450771 2.89847 2.13085)
(0.602344 2.63507 1.66391)
(0.652247 2.51191 1.46662)
(-0.143629 3.20605 1.10204)
(0.0317707 2.68829 1.14822)
(0.394758 2.35969 1.00359)
(0.492509 2.37263 0.12034)
(0.894589 2.47158 -0.747889)
(-0.489326 2.78232 0.325829)
(-0.0998533 2.41277 0.477645)
(0.296782 2.41468 -0.549882)
(0.669491 2.60184 -1.48029)
(1.45046 2.41587 -1.40373)
(1.99925 2.27738 -1.08681)
(-0.612262 2.51878 -0.773331)
(-0.138487 2.44951 -1.09126)
(0.568683 2.72144 -1.49791)
(1.25708 2.78111 -1.25506)
(1.81467 2.42605 -1.3953)
(2.09277 2.15841 -1.48247)
(2.20516 1.62628 -1.59037)
(-0.620114 2.10228 -1.25085)
(-0.352473 2.51811 -1.44101)
(0.815807 2.61511 -1.42961)
(1.45478 2.39917 -1.48154)
(1.77247 2.49364 -1.38408)
(2.12263 2.25963 -1.43722)
(2.38736 1.25924 -2.04053)
(1.86679 0.928766 -2.09933)
(-0.405203 2.4133 -1.894)
(0.0307307 2.76635 -1.49882)
(0.876452 2.53818 -1.74583)
(1.61491 2.2395 -1.50184)
(1.9484 2.26609 -0.875163)
(2.12754 1.90485 -1.55975)
(2.23551 1.13994 -2.11143)
(1.9643 0.805089 -2.08327)
(1.46079 0.412544 -2.3693)
(-0.775907 2.78705 -1.38445)
(0.0387752 2.78843 -1.41791)
(1.60578 2.3664 -0.810545)
(2.06907 1.56879 -0.991629)
(1.64158 2.19169 -0.206414)
(1.61549 1.76684 -1.886)
(1.85357 1.14709 -2.24128)
(2.23989 0.811177 -1.82967)
(1.42295 0.020309 -2.29419)
(1.34576 -0.511518 -1.58725)
(-0.841732 2.21569 -1.45503)
(0.0162208 1.80071 -1.49925)
(0.869366 1.11171 -1.59931)
(1.81153 0.812156 -1.5517)
(1.30271 1.15443 -2.1035)
(1.58115 1.56571 -1.51153)
(1.95013 0.708178 -1.85547)
(1.7311 0.118443 -2.14736)
(1.78878 0.0511792 -1.93667)
(1.375 -0.499756 -1.51481)
(1.07729 -0.975619 -1.05303)
(0.235032 1.17567 -2.53048)
(0.708831 0.741445 -2.56233)
(1.54074 0.371669 -1.78168)
(2.19686 0.180865 -1.34789)
(1.64732 0.484728 -1.84678)
(1.33737 0.678415 -1.95645)
(1.57644 0.136895 -1.8904)
(1.65044 -0.472664 -1.55588)
(1.77197 -0.458709 -1.58461)
(1.32451 -0.377547 -1.39829)
(1.02581 -0.941047 -0.83781)
(0.696855 -1.36148 -0.637089)
(0.770046 2.9161 2.37447)
(0.647087 3.29219 2.00815)
(0.834758 2.75948 2.43633)
(0.224337 3.13057 2.48987)
(0.701353 2.85301 2.39678)
(0.770266 2.7266 2.3005)
(0.0225111 3.37676 2.45201)
(0.412083 3.1069 2.10609)
(0.794626 2.74385 1.87395)
(0.898081 2.81814 2.10921)
(0.104438 3.36827 2.0004)
(0.21528 2.74721 2.25039)
(0.26105 2.64259 1.95471)
(0.378281 2.68043 1.54374)
(0.850308 2.6994 0.258369)
(-0.210329 2.97341 1.31564)
(-0.248453 2.6367 1.29685)
(0.378307 2.58577 0.436642)
(0.48472 2.66352 -0.0831675)
(0.811904 2.66819 -0.74219)
(1.45077 2.54094 -0.473588)
(-0.926121 2.55879 0.29347)
(-0.505816 2.51456 0.529457)
(0.238042 2.67284 -0.483516)
(0.817727 2.76452 -1.25592)
(1.43104 2.52701 -1.12297)
(2.1004 2.22339 -0.956594)
(1.82136 2.08653 -1.564)
(-1.68327 2.12625 -0.253666)
(-0.247526 2.66871 -0.893211)
(0.557884 2.72953 -1.42953)
(1.22242 2.78014 -1.28894)
(1.75329 2.51767 -1.29368)
(2.13659 2.19525 -1.44339)
(2.02573 1.79749 -1.64547)
(1.74468 1.17227 -2.39844)
(-1.02375 2.13183 -1.12611)
(0.269055 2.40344 -1.98588)
(0.992792 2.53944 -1.4667)
(1.41653 2.37855 -1.44291)
(1.68054 2.50189 -1.4281)
(2.12521 2.36274 -1.39221)
(2.11399 1.36823 -2.20151)
(1.87103 0.918159 -2.17723)
(1.70938 0.733264 -2.39929)
(-0.339667 2.53645 -1.90722)
(0.231316 2.72273 -1.58463)
(0.82423 2.59785 -1.61286)
(1.44009 2.1496 -1.65614)
(1.84879 2.17063 -1.16088)
(2.08166 1.94163 -1.62099)
(2.41622 1.40743 -1.64129)
(1.75931 0.831956 -2.22709)
(1.56386 0.387995 -2.29399)
(1.29567 0.0921808 -2.13444)
(-0.75486 2.68189 -1.65743)
(0.316445 2.91577 -1.19482)
(1.40924 2.15818 -1.36241)
(1.73286 1.22183 -1.75821)
(1.59805 2.14745 -0.692394)
(1.32805 1.9822 -1.9875)
(1.78914 1.10098 -2.24596)
(2.10003 0.799996 -1.93455)
(1.62159 0.0919798 -2.08894)
(1.31818 -0.570912 -1.54465)
(0.902921 -0.737383 -1.6475)
(-0.849935 2.19197 -1.4565)
(-0.00760593 1.76607 -1.51718)
(0.970389 1.16364 -1.6566)
(1.82442 0.82424 -1.61938)
(1.46096 1.21574 -1.96091)
(1.52724 1.4994 -1.65491)
(1.95287 0.685881 -1.82143)
(1.80439 0.0919676 -2.04352)
(1.80245 0.0333956 -1.89276)
(1.35956 -0.535769 -1.51212)
(1.09676 -0.975574 -1.01759)
(0.690306 -1.00846 -1.21165)
(0.239271 1.16381 -2.52897)
(0.69019 0.714353 -2.48898)
(1.55252 0.371115 -1.70892)
(2.19541 0.192463 -1.33107)
(1.65664 0.484616 -1.81693)
(1.39426 0.718291 -1.93542)
(1.59646 0.136399 -1.87161)
(1.66111 -0.504038 -1.53358)
(1.76998 -0.463131 -1.55671)
(1.31239 -0.394162 -1.36819)
(1.02172 -0.957457 -0.82764)
(0.748789 -1.35259 -0.635688)
(0.732375 -1.10042 -0.734494)
(0.756846 2.87598 2.43949)
(0.573089 3.02309 2.2697)
(0.834459 2.76194 2.26651)
(0.210888 3.00902 2.38399)
(0.810766 2.78367 2.3655)
(0.951308 2.80081 2.31642)
(-0.0693164 3.13446 2.51034)
(0.530093 2.93325 2.08682)
(0.757894 2.85281 1.88684)
(1.10672 2.87158 1.84129)
(-0.270254 3.27587 2.46412)
(0.0186545 3.0136 2.47526)
(0.778471 2.76116 1.71351)
(0.980389 2.91911 1.89917)
(1.26415 3.06027 0.527005)
(-0.324086 3.19837 2.16874)
(-0.142489 2.77592 2.27968)
(0.30263 2.76593 1.51614)
(0.607854 2.82958 0.952204)
(0.734723 2.91985 0.229962)
(1.54033 2.58211 -0.423525)
(-0.633537 2.8325 1.3565)
(-0.214604 2.71804 0.955047)
(0.112658 2.7912 0.418146)
(0.516216 3.0171 -0.271202)
(0.906696 2.77021 -0.653293)
(1.65881 2.62051 -0.443303)
(1.64485 2.55485 -0.619749)
(-1.13746 2.41183 0.623957)
(-0.345395 2.58386 0.220418)
(0.322633 2.9028 -0.847176)
(0.769107 2.99916 -1.08555)
(1.39701 2.59066 -1.09801)
(1.87039 2.40868 -0.922016)
(1.71903 2.2517 -1.56962)
(1.81636 2.38777 -1.75064)
(-0.390448 2.66774 -0.627342)
(-0.00964901 2.73562 -1.08551)
(0.63444 3.00147 -1.27445)
(1.08598 2.89584 -1.20514)
(1.61033 2.53786 -1.35438)
(2.09628 2.31797 -1.47167)
(1.89952 1.87953 -1.87626)
(1.67397 1.7044 -2.40618)
(1.20028 1.22033 -2.72794)
(-0.708333 2.23501 -1.34317)
(-0.209983 2.81846 -1.88185)
(0.830192 2.46317 -1.7326)
(1.36371 2.2674 -1.75851)
(1.58242 2.46963 -1.44906)
(2.14148 2.40508 -1.51482)
(2.03559 1.3539 -2.39836)
(1.87565 0.924782 -2.25382)
(1.68844 0.777015 -2.4466)
(1.06927 0.159805 -2.61018)
(-0.576424 2.45666 -2.08202)
(0.155459 2.64687 -1.78153)
(0.902343 2.78331 -0.97223)
(1.38294 2.22573 -1.33368)
(1.8706 2.12893 -1.24889)
(2.26475 1.87688 -1.58567)
(2.39324 1.32741 -1.81416)
(1.7156 0.879647 -2.199)
(1.5964 0.345642 -2.26918)
(1.23262 0.0712558 -2.14771)
(0.958993 -0.144293 -2.21461)
(-0.751784 2.55946 -1.90586)
(0.455404 2.954 -1.18394)
(1.23233 2.03324 -1.61552)
(1.47583 1.1246 -2.01994)
(1.50947 2.111 -1.12362)
(1.52692 1.83572 -2.00084)
(1.98512 0.9964 -2.13317)
(1.93789 0.646112 -2.08191)
(1.77805 0.14042 -1.93189)
(1.31236 -0.616662 -1.49147)
(0.930319 -0.69326 -1.65202)
(0.808126 -0.257369 -1.67908)
(-0.852166 2.13321 -1.51356)
(0.0372932 1.7383 -1.55933)
(1.09684 1.15681 -1.82661)
(1.78626 0.822303 -1.68948)
(1.54427 1.24027 -1.87556)
(1.45201 1.39533 -1.85424)
(1.84323 0.597286 -1.87408)
(1.91517 0.130649 -1.84517)
(1.7189 -0.0439529 -1.92273)
(1.37712 -0.551943 -1.4844)
(1.11486 -0.972875 -0.989892)
(0.700776 -1.0295 -1.22331)
(0.617882 -0.840993 -1.1338)
(0.210463 1.17389 -2.52415)
(0.685023 0.690108 -2.3769)
(1.56662 0.354089 -1.66727)
(2.2041 0.194407 -1.29627)
(1.65424 0.498678 -1.79378)
(1.44486 0.745409 -1.92322)
(1.59927 0.11903 -1.83295)
(1.66544 -0.514973 -1.52855)
(1.76258 -0.484076 -1.55008)
(1.29097 -0.420576 -1.34788)
(1.01009 -0.973877 -0.811347)
(0.735757 -1.36436 -0.633903)
(0.737217 -1.10614 -0.73762)
(0.579956 -0.717567 -0.612973)
(0.57189 2.69508 2.50975)
(0.474259 2.88288 2.51803)
(0.706969 2.63864 2.5242)
(0.551688 3.0095 2.28994)
(1.07071 2.62042 2.14928)
(0.370907 2.41802 3.23)
(0.301608 2.9472 2.20937)
(0.849715 2.73201 2.11763)
(0.980231 3.0061 1.9818)
(1.12077 2.79723 2.33774)
(-0.121469 3.13689 2.26354)
(0.524495 3.12196 1.55613)
(0.742274 2.96583 1.65927)
(1.25504 2.9555 1.40689)
(1.52309 2.99573 1.38864)
(-0.35824 3.19864 2.13287)
(-0.211162 2.92905 2.71384)
(0.505071 2.79534 1.66178)
(0.761974 3.07851 1.32492)
(1.30788 3.33441 0.465511)
(1.5786 2.90708 -0.232171)
(-0.439988 3.04189 2.22204)
(-0.0730036 2.79011 1.68438)
(0.424093 2.85717 1.33955)
(0.192268 3.21721 1.78669)
(1.22463 2.9756 -0.394575)
(1.66097 2.79418 0.100078)
(1.58869 2.88326 -0.39363)
(-0.796645 2.63986 1.51138)
(-0.825015 2.58181 1.15145)
(-0.0494741 3.03456 0.4491)
(0.384649 3.28632 -0.468743)
(1.09218 2.80959 -0.746249)
(1.68524 2.69472 -0.453775)
(1.47835 2.64222 -0.965023)
(1.9327 2.36191 -1.46012)
(-0.930208 2.39651 -0.277587)
(-1.27985 2.57923 0.644489)
(-0.0417628 3.21175 -0.649064)
(0.70735 3.05033 -1.00205)
(1.34548 2.73706 -0.805615)
(1.86475 2.46542 -1.07491)
(1.6437 2.36855 -1.73918)
(1.76729 2.262 -1.84027)
(1.55936 1.92045 -2.73362)
(-1.37063 2.40451 -0.503897)
(-0.928911 2.87658 -0.218984)
(0.218554 3.06182 -1.46779)
(1.03243 2.97432 -1.0276)
(1.51616 2.57011 -1.32373)
(1.96746 2.48069 -1.49631)
(1.77222 2.03133 -2.12446)
(1.68928 1.58391 -2.60715)
(1.5054 1.35756 -2.72603)
(1.0059 0.843816 -2.94605)
(-1.20335 2.17287 -1.11771)
(-0.248696 2.78228 -1.82856)
(1.14313 2.51025 -1.78094)
(1.4197 2.27422 -1.60824)
(1.67956 2.60035 -1.03973)
(1.993 2.46746 -1.71148)
(2.10538 1.8213 -2.1507)
(1.63216 0.873176 -2.57469)
(1.49322 0.951453 -2.52971)
(1.13632 0.233089 -2.64365)
(0.716552 0.812457 -2.37975)
(-0.659738 2.42264 -2.09933)
(0.0992278 2.6607 -1.85104)
(0.81806 2.62028 -1.16885)
(1.43412 2.11119 -1.23396)
(1.83867 2.15881 -1.26056)
(2.18875 2.15116 -1.50951)
(2.06948 1.15537 -2.37572)
(1.85319 1.12187 -1.97989)
(1.54012 0.264481 -2.28348)
(1.33697 0.165828 -2.06581)
(0.798861 -0.221247 -2.22231)
(0.508669 0.24656 -2.07451)
(-0.70332 2.55477 -1.92979)
(0.444403 2.90354 -1.31189)
(1.20771 1.98005 -1.64499)
(1.54272 1.07487 -2.00696)
(1.58994 2.06518 -1.38232)
(1.58722 1.96638 -1.8772)
(2.00702 1.13969 -2.0883)
(1.96495 0.635941 -1.98752)
(1.80927 0.119839 -1.89665)
(1.35539 -0.642543 -1.41441)
(0.985298 -0.72607 -1.60105)
(0.739519 -0.261432 -1.76516)
(0.167768 -0.353021 -1.53891)
(-0.855958 2.08666 -1.57196)
(0.117676 1.72325 -1.61872)
(1.08992 1.17231 -1.95217)
(1.79203 0.795735 -1.6653)
(1.6048 1.23045 -1.85258)
(1.42421 1.31519 -1.92798)
(1.70039 0.452244 -1.93043)
(1.88 0.0642842 -1.78423)
(1.71704 -0.0756512 -1.87433)
(1.39046 -0.568571 -1.467)
(1.12025 -0.985288 -0.96353)
(0.689119 -1.04847 -1.22543)
(0.58976 -0.831139 -1.14094)
(0.0143187 -0.877758 -0.846782)
(0.202261 1.15256 -2.5063)
(0.697312 0.675816 -2.25701)
(1.55198 0.364254 -1.6419)
(2.20697 0.182327 -1.28233)
(1.66302 0.485137 -1.76406)
(1.47915 0.754328 -1.91602)
(1.57489 0.123385 -1.82125)
(1.67366 -0.528914 -1.51657)
(1.7714 -0.498492 -1.54191)
(1.27352 -0.44167 -1.33737)
(1.0044 -0.992046 -0.793816)
(0.715152 -1.3762 -0.60994)
(0.733032 -1.11141 -0.745362)
(0.546384 -0.732676 -0.610717)
(1.13577 -0.344638 -0.290768)
(0.600333 2.73479 2.55056)
(0.585875 2.77834 2.41337)
(0.454672 2.53869 2.6552)
(0.258643 2.94274 2.56698)
(0.969258 2.72177 2.27566)
(0.399489 2.56643 2.99859)
(0.279288 2.88035 2.2856)
(0.676034 2.52883 2.43949)
(0.667567 2.57188 3.03291)
(1.57582 3.22463 2.00211)
(0.316989 3.08069 2.03093)
(0.673621 3.00342 1.88437)
(1.0605 3.2326 1.54007)
(1.46516 3.1408 1.36515)
(1.83021 3.13193 1.18184)
(0.0966174 3.16478 1.81945)
(0.538072 3.19572 1.53758)
(0.86803 3.12178 1.25253)
(1.32991 3.05905 1.05934)
(1.6133 3.23536 0.773999)
(1.59518 3.04977 0.394561)
(-0.312176 3.21883 1.86097)
(0.184899 2.89904 1.72727)
(0.869336 2.80178 1.38548)
(0.916354 3.15137 1.61537)
(1.67842 3.37168 -0.14086)
(1.4168 3.12449 0.184159)
(1.79583 2.9107 -0.140741)
(-0.587041 3.06808 1.80614)
(-0.358273 2.7962 1.38013)
(-0.0200037 3.13301 1.69593)
(0.989681 3.48862 0.357107)
(1.06429 3.25536 -0.135522)
(1.81102 2.78835 -0.777641)
(1.69169 3.01684 -0.421312)
(2.10739 2.69852 -1.51756)
(-1.04325 2.64702 0.702532)
(-0.338769 2.8447 0.471016)
(0.119203 3.37103 0.120938)
(0.720185 3.28562 -0.790364)
(1.21532 2.85886 -0.5711)
(1.44594 2.88411 -0.376387)
(1.53277 2.86385 -0.827205)
(1.7371 2.41523 -1.79669)
(2.0632 2.22777 -2.23093)
(-1.6005 2.37116 0.594642)
(-0.232841 3.00717 -0.509105)
(0.0319092 3.31827 -0.645319)
(0.764628 2.93663 -1.02181)
(1.28654 2.72128 -0.748455)
(1.65502 2.59419 -1.28583)
(1.49439 2.47833 -1.89611)
(1.68295 2.21571 -2.08636)
(1.98049 1.81988 -2.4668)
(2.12758 1.04285 -2.48867)
(-1.49561 2.31809 -0.507015)
(-0.467604 2.93056 -0.791523)
(0.44398 3.0448 -1.26798)
(0.844263 2.83646 -1.11992)
(1.51244 2.69873 -0.941719)
(1.82647 2.53567 -1.58102)
(1.7966 2.23885 -2.08197)
(1.78744 1.88682 -2.44989)
(1.64297 1.10091 -2.94648)
(1.66745 0.633462 -2.56636)
(1.41905 0.5133 -1.97436)
(-0.789595 2.33289 -1.51516)
(-0.310567 2.66198 -1.71472)
(1.11424 2.43883 -1.8624)
(1.26312 2.31844 -1.40365)
(1.59112 2.4556 -1.4268)
(1.90463 2.44952 -1.81989)
(2.07062 1.87765 -2.13468)
(1.22809 0.261969 -3.25687)
(1.92512 0.934532 -2.11852)
(1.53797 -0.153181 -2.56526)
(1.01429 0.622499 -2.15546)
(0.709179 0.183166 -2.00634)
(-0.728983 2.40797 -2.0302)
(0.0671614 2.68806 -1.79414)
(0.839213 2.5685 -1.27639)
(1.5117 2.16617 -1.11174)
(1.6777 1.98148 -1.68507)
(2.11038 1.92269 -1.81488)
(1.67373 0.886827 -2.83747)
(1.96999 1.15662 -1.85548)
(1.75831 0.262889 -2.07218)
(1.49493 -0.0104432 -1.92103)
(0.759316 -0.276605 -2.1818)
(0.54734 0.209493 -1.98666)
(-0.254675 -0.240158 -1.81604)
(-0.6309 2.54828 -1.9157)
(0.43505 2.79322 -1.41903)
(1.05949 1.7946 -1.93652)
(1.60965 1.12371 -1.93855)
(1.52932 1.95173 -1.77352)
(1.66089 2.09773 -1.74941)
(1.8675 1.00107 -2.32176)
(1.84131 0.54852 -2.07273)
(1.8577 0.0920108 -1.85264)
(1.3698 -0.690962 -1.37441)
(0.923369 -0.64647 -1.63758)
(0.72213 -0.337746 -1.81337)
(0.153528 -0.310461 -1.55395)
(-0.225244 -0.480945 -1.26387)
(-0.854253 2.02967 -1.65247)
(0.207 1.73904 -1.70404)
(1.14291 1.08356 -1.93297)
(1.79055 0.737335 -1.61988)
(1.63206 1.23656 -1.89225)
(1.37838 1.21426 -1.96222)
(1.60804 0.353128 -1.95141)
(1.74402 -0.0324417 -1.86001)
(1.8171 -0.0619396 -1.75755)
(1.35475 -0.613408 -1.49031)
(1.12866 -0.977647 -0.944852)
(0.652057 -1.05596 -1.22894)
(0.576132 -0.831473 -1.12926)
(0.125115 -0.79687 -0.822255)
(0.700236 -0.759522 -0.383361)
(0.189212 1.10982 -2.45988)
(0.720815 0.674509 -2.14562)
(1.57485 0.334618 -1.60496)
(2.21171 0.174199 -1.26072)
(1.65874 0.474552 -1.7469)
(1.48362 0.763937 -1.89756)
(1.58308 0.119151 -1.78304)
(1.67842 -0.546334 -1.5141)
(1.7782 -0.509492 -1.52559)
(1.28058 -0.458796 -1.32505)
(0.999984 -0.998781 -0.781645)
(0.72782 -1.37772 -0.587846)
(0.692391 -1.11664 -0.741015)
(0.511029 -0.75207 -0.610391)
(1.08672 -0.354208 -0.278971)
(0.871364 -0.558875 0.366469)
(0.259476 2.53883 2.78297)
(0.29199 2.68871 2.63477)
(0.290337 2.47648 2.88882)
(0.33254 2.71173 2.79743)
(0.947723 2.61301 2.53237)
(0.188152 2.48987 2.95267)
(0.0869633 2.80493 2.61374)
(0.215647 2.57332 2.814)
(0.865832 2.75902 2.66178)
(1.42236 2.75699 2.59837)
(0.357645 2.96146 2.25135)
(0.688477 2.73777 2.45623)
(1.04166 2.89797 2.52584)
(1.48352 3.39488 1.66856)
(1.91369 3.25881 1.52874)
(0.398731 3.18782 1.79205)
(0.737994 3.32793 1.43824)
(0.911731 3.57249 0.969159)
(1.34237 3.4057 0.843279)
(1.8511 3.28517 0.741479)
(2.1226 3.12229 0.341105)
(-0.035374 3.27029 1.73883)
(0.923336 3.41052 0.677631)
(1.03012 3.05874 1.11745)
(1.28413 3.09206 1.09558)
(1.69444 3.23869 0.393824)
(1.5758 3.21472 0.378055)
(1.89393 2.97722 -0.397313)
(-0.47871 3.19917 1.88701)
(0.197059 2.92735 1.4657)
(0.27331 3.16775 1.13751)
(1.02992 3.45994 0.637256)
(1.46778 3.56677 -0.053212)
(1.25832 3.17628 0.515426)
(1.6011 2.95812 0.0283992)
(2.22753 3.19897 -0.740271)
(-0.698028 3.06821 1.62867)
(0.0883085 3.0213 0.685962)
(0.545726 3.45778 -0.0177993)
(0.818097 3.77403 -0.261284)
(1.21153 3.42415 -0.251852)
(1.50754 2.87356 -0.527411)
(1.47426 3.26788 -0.367347)
(2.08722 2.85298 -1.3471)
(2.51541 2.66709 -1.40902)
(-1.27291 2.63702 1.11818)
(-0.234524 3.14126 0.0901013)
(0.195722 3.70733 -0.243615)
(0.592825 3.55659 -0.440483)
(1.37979 2.85054 -0.648755)
(1.3348 2.86885 -0.562401)
(1.45714 2.99794 -1.04667)
(1.94102 2.57702 -1.44198)
(2.11564 2.27549 -1.95191)
(2.70026 1.43166 -1.7491)
(-1.48584 2.52706 -0.273118)
(-0.475737 3.15751 -0.295379)
(0.260492 3.35836 -0.989962)
(0.558333 3.03665 -0.706695)
(1.17189 2.69584 -1.03058)
(1.48175 2.79214 -1.30198)
(1.56924 2.63605 -1.61508)
(1.81713 2.21584 -2.08973)
(2.13662 2.03826 -2.09201)
(2.15653 0.419339 -2.46864)
(1.29608 0.31927 -2.05539)
(-1.22847 2.44711 -0.778228)
(-0.430627 2.976 -1.07468)
(0.0825717 3.2092 -0.748214)
(0.811066 2.66045 -0.879345)
(1.44695 2.76451 -0.884997)
(1.61136 2.63726 -1.60793)
(1.77101 2.29827 -2.00987)
(1.9206 2.00689 -2.2812)
(1.57768 0.614442 -3.03789)
(2.35996 0.613427 -2.01139)
(1.3825 0.423917 -2.08086)
(0.676885 0.00219932 -1.90599)
(-0.995895 2.58386 -1.54673)
(-0.392925 2.68079 -1.71468)
(0.634435 2.33957 -1.64871)
(1.13116 2.15689 -1.77592)
(1.49089 2.61211 -1.41164)
(1.68446 2.55675 -1.7745)
(1.93782 1.85802 -2.10001)
(1.91129 0.803888 -2.44283)
(2.20578 1.0094 -1.86465)
(2.01036 0.257839 -2.22208)
(0.970917 0.570427 -2.26536)
(0.515483 0.0885953 -1.94739)
(-0.100046 -0.292047 -1.73088)
(-0.59194 2.42567 -2.01517)
(0.0542285 2.70784 -1.71187)
(0.765875 2.55546 -1.34418)
(1.45095 2.08409 -1.52221)
(1.64588 2.1559 -1.62365)
(1.97432 1.99128 -1.92696)
(1.85219 1.11111 -2.36617)
(2.05633 1.11107 -1.81418)
(1.9647 0.249351 -1.82878)
(1.65773 0.0507655 -1.73519)
(0.606774 -0.336277 -2.2248)
(0.574169 0.212146 -1.92107)
(-0.124707 -0.219945 -1.77015)
(-0.0900825 -0.225323 -1.58629)
(-0.632153 2.55089 -1.84108)
(0.370155 2.62773 -1.599)
(0.999913 1.63861 -2.00696)
(1.53266 1.01494 -2.05406)
(1.49983 1.73062 -2.15421)
(1.74483 2.08944 -1.7129)
(1.80369 0.785285 -2.45907)
(1.75563 0.382331 -2.18373)
(2.02088 0.115571 -1.69221)
(1.38023 -0.786256 -1.32924)
(0.926431 -0.601915 -1.5838)
(0.507843 -0.268602 -1.88364)
(0.209068 -0.313684 -1.53158)
(-0.405304 -0.555383 -1.22949)
(0.169068 -0.344781 -0.828587)
(-0.813125 2.03715 -1.69837)
(0.288356 1.77124 -1.81155)
(1.11679 1.01052 -1.90719)
(1.69163 0.742984 -1.64068)
(1.65905 1.2119 -1.91156)
(1.43914 1.19016 -1.92603)
(1.60019 0.285834 -1.94068)
(1.78419 -0.0568472 -1.80709)
(1.88676 -0.071745 -1.69463)
(1.40009 -0.634495 -1.48987)
(1.15847 -0.976658 -0.887829)
(0.675273 -1.03281 -1.22482)
(0.498492 -0.848867 -1.13981)
(0.210266 -0.777783 -0.797591)
(0.590869 -0.768738 -0.369124)
(0.248021 -0.888996 0.184903)
(0.177837 1.07864 -2.38756)
(0.750171 0.67186 -2.07034)
(1.58418 0.329847 -1.59315)
(2.18471 0.188774 -1.2278)
(1.66666 0.460647 -1.71808)
(1.48779 0.752865 -1.85701)
(1.58442 0.0832964 -1.74543)
(1.69377 -0.565274 -1.50731)
(1.75325 -0.533522 -1.50784)
(1.28259 -0.462297 -1.32075)
(1.00312 -1.02685 -0.759596)
(0.734668 -1.37158 -0.577531)
(0.659576 -1.12325 -0.741147)
(0.482656 -0.747906 -0.608388)
(1.03999 -0.364864 -0.268566)
(0.846546 -0.559486 0.356984)
(-0.203748 -0.789366 0.606816)
(0.263185 2.48062 2.78605)
(0.368486 2.65444 2.73678)
(0.192721 2.50048 2.8494)
(-0.156182 2.7535 2.66568)
(0.489522 2.56562 2.71617)
(0.398242 2.46014 2.86808)
(0.0694823 2.95692 2.71252)
(0.605115 3.0104 2.50303)
(1.26693 2.6503 2.40909)
(1.50908 2.65401 2.51583)
(0.0370257 2.79432 2.71665)
(0.61243 2.71815 2.6238)
(0.906846 2.75549 2.51108)
(1.69278 3.27873 2.05768)
(2.35773 3.39486 1.2372)
(0.334203 3.34579 2.09852)
(1.28197 3.51371 1.59312)
(1.15728 3.51055 1.83886)
(1.50341 3.81885 0.856738)
(1.99922 3.34341 1.00371)
(1.79322 3.34246 1.06407)
(-0.0882657 3.04836 2.27475)
(0.39826 3.09561 2.02766)
(1.14394 3.62802 0.711652)
(1.23317 3.47147 0.800614)
(1.81069 3.31341 0.369626)
(1.85988 3.14803 0.521509)
(1.69064 3.01989 0.732402)
(-0.0457271 3.46059 1.75769)
(0.31028 3.25038 1.44603)
(0.73262 3.05358 0.982483)
(1.04399 3.15104 0.656588)
(1.50369 3.32905 0.254592)
(1.40662 3.32513 0.52131)
(1.83379 3.0158 -0.611703)
(2.24778 3.25502 0.0528116)
(-0.746387 3.29878 1.8977)
(0.755458 3.2178 0.466206)
(1.38641 3.3403 -0.0616754)
(0.778186 3.76923 0.0607629)
(1.22733 3.70155 -0.136665)
(1.20033 3.21404 0.117642)
(1.56001 2.98761 0.00545139)
(1.9914 3.15256 -0.450667)
(2.37678 3.12488 -0.196733)
(-0.759076 3.14651 1.78557)
(-0.212202 3.21474 0.454921)
(0.561698 3.72364 -0.259742)
(0.493576 4.03371 -0.251067)
(1.15721 3.50441 -0.465812)
(1.348 2.95401 -0.459572)
(1.48315 3.29439 -0.496525)
(2.22777 2.88322 -1.29215)
(2.33077 2.50158 -1.82574)
(2.61073 1.48645 -1.85029)
(-1.06306 2.89439 1.03393)
(-0.650355 3.05727 0.362749)
(0.0827174 3.84074 -0.202766)
(0.808092 3.51758 -0.99805)
(1.41889 2.9571 -0.60952)
(1.17255 3.02601 -0.725194)
(1.48912 2.97206 -1.40774)
(1.91856 2.51687 -1.66148)
(2.19955 2.1132 -1.84131)
(2.79523 1.03506 -1.9394)
(1.54514 0.450316 -1.95787)
(-1.21755 2.6786 -0.735661)
(-0.642263 3.19749 -0.340972)
(-0.00356999 3.51837 -0.757336)
(0.624785 2.87107 -1.29209)
(1.13312 2.78924 -1.21857)
(1.37412 2.90583 -1.36747)
(1.5681 2.72239 -1.47125)
(1.80433 2.34124 -1.90612)
(2.21338 1.77183 -2.11326)
(2.30805 0.560643 -2.20115)
(1.44211 0.309397 -1.94624)
(1.00491 -0.259558 -1.46216)
(-1.43237 2.45911 -0.597171)
(-0.710264 3.09949 -1.02027)
(0.222041 2.85808 -1.38572)
(0.709798 2.74451 -0.581453)
(1.35584 2.75915 -1.21668)
(1.42021 2.68965 -1.65159)
(1.70954 2.3282 -1.85205)
(2.0068 1.68847 -2.11552)
(1.92544 0.844144 -2.58221)
(2.23095 0.335298 -2.10793)