/*--------------------------------*- C++ -*----------------------------------*\
  =========                 |
  \\      /  F ield         | OpenFOAM: The Open Source CFD Toolbox
   \\    /   O peration     | Website:  https://openfoam.org
    \\  /    A nd           | Version:  7
     \\/     M anipulation  |
\*---------------------------------------------------------------------------*/
FoamFile
{
    version     2.0;
    format      ascii;
    class       volVectorField;
    location    "3.5";
    object      U_0;
}
// * * * * * * * * * * * * * * * * * * * * * * * * * * * * * * * * * * * * * //

dimensions      [0 1 -1 0 0 0 0];

internalField   nonuniform List<vector> 
18870
(
(0.548139 1.15612 -2.45052)
(0.0352957 2.09365 -1.97515)
(0.492507 1.16462 -2.44125)
(1.10524 0.943038 -2.50652)
(-0.434064 2.84743 -0.963631)
(-0.110159 2.22821 -1.84075)
(0.885021 1.95293 -1.78187)
(0.448043 1.16626 -2.42526)
(1.04017 0.930585 -2.50539)
(1.79384 0.493709 -2.35458)
(-0.909585 2.7355 -0.496135)
(-0.988995 2.8097 -0.63964)
(-0.523537 2.74883 -0.436621)
(-0.223689 2.22498 -1.77054)
(0.843045 1.97179 -1.7623)
(1.4004 1.48921 -1.90557)
(0.40294 1.16057 -2.4151)
(0.947109 0.906099 -2.49409)
(1.6815 0.45639 -2.41578)
(2.2984 0.170156 -1.46719)
(0.176172 2.62824 -1.36849)
(-0.681326 2.72872 -0.907141)
(0.147469 2.63921 -1.54754)
(-1.00693 2.87829 -0.126913)
(-0.517799 2.73837 -0.587606)
(0.59524 2.47098 -0.833995)
(-0.263917 2.2678 -1.72827)
(0.608936 2.04782 -1.78287)
(1.35573 1.46079 -1.94342)
(1.98624 0.74793 -1.81573)
(0.309547 1.14413 -2.41914)
(0.809902 0.880259 -2.48293)
(1.53206 0.406542 -2.45441)
(2.22079 0.139495 -1.36917)
(1.9066 0.492823 -2.18522)
(0.521157 2.58491 -0.915357)
(0.164797 2.51469 -1.51628)
(0.536145 2.47789 -1.42076)
(-0.471709 2.7051 -1.28261)
(0.449506 2.7184 -1.607)
(0.981476 2.53232 -1.75258)
(-1.29827 2.73535 -0.227933)
(-0.533677 2.7165 -0.739236)
(0.578851 2.4318 -0.85425)
(1.50591 1.8127 -0.352915)
(-0.416169 2.35971 -1.62604)
(0.446561 2.05477 -1.79093)
(1.32241 1.48178 -1.94047)
(1.75573 0.802437 -1.73307)
(1.50847 1.37788 -1.37819)
(0.296748 1.1389 -2.4283)
(0.70876 0.818135 -2.496)
(1.38908 0.351912 -2.44424)
(2.19768 0.168862 -1.34486)
(1.87026 0.486204 -2.07906)
(1.6344 0.858043 -1.94151)
(0.33313 2.81055 0.284974)
(0.21016 2.70494 -1.02052)
(0.419979 2.37437 -1.43034)
(-0.0996894 2.48178 -1.50136)
(0.0950304 2.39529 -1.4374)
(0.620456 2.43871 -1.47868)
(-0.0870592 2.73658 -1.52762)
(0.506926 2.74543 -1.63296)
(0.982784 2.5423 -1.56385)
(1.73848 2.32483 -1.059)
(-1.40071 2.66723 -0.351903)
(-0.530006 2.7158 -0.86955)
(0.636962 2.39063 -0.851824)
(1.56676 1.79568 -0.411438)
(1.39289 2.06742 -0.453185)
(-0.549528 2.36855 -1.57594)
(0.324789 2.06737 -1.73055)
(1.25886 1.49394 -1.94187)
(1.52726 0.716466 -1.66825)
(1.50922 1.3475 -1.48594)
(1.4276 1.65074 -1.51877)
(0.286839 1.17918 -2.42939)
(0.652836 0.803751 -2.50763)
(1.31413 0.308481 -2.36358)
(2.23392 0.184509 -1.36995)
(1.8224 0.482204 -1.98346)
(1.58804 0.811081 -1.9594)
(1.39288 0.15257 -2.19913)
(0.837233 3.15846 1.32646)
(0.217205 2.82411 0.432927)
(0.713159 2.437 -0.440587)
(0.0735735 2.79935 -1.17148)
(0.39967 2.42584 -1.42334)
(0.593591 1.92338 -2.05979)
(-0.170171 2.41957 -1.50821)
(0.474034 2.39729 -1.45143)
(1.22152 2.24882 -1.61864)
(1.57472 2.2093 -1.30313)
(-0.162801 2.66182 -1.60326)
(0.415103 2.70027 -1.64069)
(1.09469 2.48849 -1.56135)
(1.91927 2.19803 -1.02944)
(1.91092 2.16143 -1.31466)
(-1.09075 2.73982 -0.640528)
(-0.471576 2.74499 -0.901358)
(0.701669 2.36479 -0.866804)
(1.64369 1.73384 -0.55879)
(1.49418 2.09916 -0.573555)
(1.8123 1.8165 -1.58707)
(-0.607788 2.367 -1.54252)
(0.286263 2.03755 -1.70239)
(1.15765 1.4387 -1.98475)
(1.33549 0.649079 -1.80024)
(1.4068 1.3379 -1.61064)
(1.45169 1.66034 -1.502)
(1.94994 0.815961 -1.86794)
(0.282308 1.16735 -2.44978)
(0.658641 0.782608 -2.52021)
(1.35595 0.299322 -2.23324)
(2.26818 0.188198 -1.40257)
(1.7648 0.484159 -1.91393)
(1.51796 0.800799 -1.95022)
(1.38951 0.15741 -2.08765)
(1.7543 -0.393431 -1.63306)
(0.746384 3.3642 1.96717)
(0.64244 3.22369 1.37071)
(0.910789 2.82096 0.510987)
(0.153947 2.9604 0.153968)
(0.635018 2.51141 -0.414139)
(0.690967 2.00433 -0.901524)
(-0.0960105 2.82861 -1.27969)
(0.37102 2.33571 -1.49955)
(0.327182 2.53343 -1.29324)
(0.953954 2.39536 -1.77287)
(-0.324179 2.37937 -1.48512)
(0.0205857 2.36441 -1.68289)
(0.709445 2.5927 -1.48626)
(1.44808 2.53618 -1.24107)
(1.4496 2.43794 -1.67431)
(-0.316775 2.47443 -1.64885)
(0.386011 2.65811 -1.56247)
(1.05947 2.54057 -1.5971)
(1.5535 2.19173 -1.54291)
(1.6709 2.26655 -1.49921)
(2.09537 1.89482 -1.95741)
(-1.01316 2.75977 -0.76118)
(-0.387223 2.7179 -1.04883)
(0.879813 2.34763 -0.863835)
(1.7831 1.70758 -0.493536)
(1.49504 2.14817 -0.619994)
(1.80314 1.82807 -1.50549)
(2.40342 1.27441 -1.5648)
(-0.707982 2.34512 -1.5073)
(0.171054 2.04883 -1.63148)
(0.98504 1.37269 -1.96639)
(1.34131 0.623035 -1.91785)
(1.27146 1.2859 -1.7759)
(1.37873 1.6248 -1.60666)
(2.02467 0.78252 -1.82097)
(1.94073 0.278401 -1.8445)
(0.263354 1.18008 -2.46644)
(0.669239 0.786476 -2.52889)
(1.40404 0.320206 -2.12193)
(2.23248 0.200416 -1.46591)
(1.68792 0.470051 -1.9213)
(1.4342 0.771216 -1.9351)
(1.4206 0.135867 -1.99642)
(1.71155 -0.414944 -1.62541)
(1.838 -0.428252 -1.66406)
(0.864972 3.41881 2.24558)
(0.70476 3.44026 1.83402)
(0.92993 3.069 1.6449)
(0.620718 3.3069 0.975766)
(0.645905 2.80174 0.816307)
(0.872237 2.13987 0.582554)
(0.0166124 3.02077 0.101914)
(0.424151 2.57306 -0.238808)
(0.507315 2.23619 -0.543614)
(0.676666 2.176 -1.88037)
(-0.210391 2.65377 -1.23906)
(-0.123426 2.38287 -0.671868)
(0.761813 1.81985 -2.40091)
(1.20313 2.63948 -1.62246)
(1.69635 2.32127 -1.5492)
(-0.446762 2.29291 -1.40496)
(-0.184472 2.40997 -1.62205)
(0.81601 2.48547 -1.53175)
(1.59259 2.52478 -1.27314)
(1.64958 2.46043 -1.49644)
(2.11416 2.21709 -1.66402)
(-0.304418 2.46999 -1.65628)
(0.274238 2.72198 -1.43393)
(1.17652 2.52056 -1.57024)
(1.46453 2.14517 -1.68373)
(1.76783 2.23201 -1.33159)
(2.33158 1.9252 -1.53896)
(2.15562 1.2122 -2.07853)
(-0.870144 2.77723 -0.99172)
(-0.373528 2.71198 -1.2354)
(1.13571 2.36752 -0.770405)
(2.03296 1.70676 -0.320707)
(1.50627 2.13598 -0.400597)
(1.83265 1.82086 -1.47056)
(2.23 1.27171 -1.73228)
(2.34018 0.768251 -1.73932)
(-0.806254 2.31203 -1.4568)
(0.0866987 1.9454 -1.66534)
(0.769112 1.23505 -1.89804)
(1.47761 0.662831 -1.88369)
(1.14637 1.20741 -1.99599)
(1.39533 1.565 -1.64831)
(2.03188 0.736113 -1.82737)
(2.03764 0.278792 -1.78208)
(1.62675 0.012246 -2.15232)
(0.247563 1.15399 -2.50422)
(0.689384 0.782083 -2.54545)
(1.45908 0.341928 -2.00841)
(2.20185 0.191498 -1.45373)
(1.63421 0.468158 -1.92363)
(1.34621 0.737414 -1.94178)
(1.46197 0.142327 -1.94605)
(1.71886 -0.426869 -1.57162)
(1.79733 -0.444999 -1.65454)
(1.32724 -0.360036 -1.46607)
(0.990964 3.4971 1.91994)
(0.630355 3.35988 2.24951)
(1.01976 3.03904 1.90644)
(0.502576 3.44559 1.78062)
(0.640388 3.02652 1.90706)
(1.25808 2.61763 1.39714)
(0.240485 3.22952 1.2463)
(0.446306 2.82217 0.98681)
(0.779557 2.2965 0.633546)
(0.610789 2.1051 -0.0552988)
(-0.195798 2.95555 0.214628)
(0.0208272 2.52026 0.14084)
(0.490223 2.23999 -0.565969)
(0.749602 2.4774 -1.68697)
(1.37879 2.44101 -1.47971)
(-0.46136 2.60552 -0.876644)
(-0.244577 2.37591 -0.683005)
(0.457606 2.7761 -1.67389)
(1.2145 2.70229 -1.4906)
(1.7798 2.37442 -1.41232)
(2.04391 2.00904 -1.65196)
(-0.648663 2.14114 -1.23622)
(-0.0688898 2.34634 -1.67056)
(1.00066 2.44621 -1.53923)
(1.59117 2.44323 -1.38649)
(1.78052 2.48519 -1.3347)
(2.16524 2.24646 -1.47233)
(2.64368 1.21739 -1.75934)
(-0.347311 2.44158 -1.7881)
(0.362398 2.68974 -1.53803)
(1.08345 2.58094 -1.55491)
(1.60249 2.18563 -1.51717)
(1.98625 2.24298 -0.900217)
(2.19421 2.07571 -1.38363)
(2.00822 1.11127 -2.34431)
(2.10298 0.785048 -1.99839)
(-0.764842 2.80701 -1.19882)
(-0.0630894 2.76271 -1.33766)
(1.51231 2.41001 -0.6101)
(2.25686 1.61823 -0.544589)
(1.59479 2.1214 -0.13554)
(1.76664 1.83891 -1.59997)
(2.08083 1.24553 -1.94119)
(2.28564 0.810144 -1.77901)
(1.41418 0.0617468 -2.35762)
(-0.810823 2.2704 -1.43913)
(-0.047304 1.95018 -1.47613)
(0.754959 1.11652 -1.70572)
(1.67844 0.709715 -1.71048)
(1.14909 1.13748 -2.14297)
(1.48041 1.57731 -1.56568)
(1.96704 0.694709 -1.87587)
(1.83829 0.195991 -2.03323)
(1.58611 -0.00330557 -2.14705)
(1.37638 -0.482259 -1.51427)
(0.222838 1.19502 -2.51825)
(0.686955 0.785736 -2.55971)
(1.50232 0.36149 -1.89628)
(2.19621 0.17931 -1.38437)
(1.64431 0.46903 -1.87992)
(1.30103 0.682107 -1.95936)
(1.54358 0.151703 -1.89351)
(1.68678 -0.448196 -1.56156)
(1.79009 -0.452165 -1.61579)
(1.32722 -0.36761 -1.43828)
(1.01732 -0.92365 -0.863426)
(0.84279 3.13182 2.15779)
(0.393713 3.25043 2.29759)
(0.998165 2.94288 2.20196)
(0.432285 3.36583 2.31874)
(0.759174 3.0185 1.99331)
(0.678699 2.85688 2.11788)
(0.2911 3.42618 1.87778)
(0.440676 2.88432 2.15095)
(0.582868 2.63561 1.67905)
(0.653995 2.5192 1.47873)
(-0.151864 3.19441 1.1118)
(0.0252302 2.68251 1.16041)
(0.387736 2.3695 1.01674)
(0.493401 2.38623 0.135971)
(0.895612 2.47733 -0.750511)
(-0.508689 2.76394 0.334407)
(-0.100251 2.41261 0.490731)
(0.296751 2.42374 -0.539)
(0.669119 2.61113 -1.45753)
(1.4487 2.41386 -1.39955)
(2.00906 2.27774 -1.06884)
(-0.611147 2.51875 -0.758608)
(-0.130907 2.45933 -1.09065)
(0.570863 2.72759 -1.48637)
(1.26544 2.78111 -1.24865)
(1.81784 2.42019 -1.39796)
(2.1025 2.15222 -1.47683)
(2.19791 1.62801 -1.59359)
(-0.621198 2.09918 -1.24235)
(-0.346911 2.52189 -1.43994)
(0.821842 2.61545 -1.43142)
(1.45572 2.39262 -1.48923)
(1.77551 2.4847 -1.39475)
(2.12616 2.25437 -1.43744)
(2.38417 1.26357 -2.03723)
(1.87358 0.927527 -2.09426)
(-0.396572 2.40567 -1.91107)
(0.0291729 2.76158 -1.50934)
(0.859431 2.5301 -1.77121)
(1.61158 2.23785 -1.52059)
(1.95145 2.25761 -0.901795)
(2.13198 1.90102 -1.56096)
(2.24595 1.13713 -2.10015)
(1.95631 0.794493 -2.0931)
(1.46474 0.410094 -2.36718)
(-0.757315 2.7727 -1.4272)
(0.0772532 2.80382 -1.40601)
(1.60518 2.36814 -0.830992)
(2.0723 1.5673 -1.01074)
(1.65873 2.18613 -0.229503)
(1.61269 1.76707 -1.88827)
(1.85217 1.14415 -2.24144)
(2.24276 0.810117 -1.82572)
(1.4242 0.0204551 -2.29686)
(1.34323 -0.511978 -1.5934)
(-0.843085 2.21985 -1.4495)
(0.0196506 1.80868 -1.48747)
(0.872574 1.12585 -1.58749)
(1.80838 0.807572 -1.54853)
(1.31817 1.16163 -2.07056)
(1.57907 1.56498 -1.51333)
(1.95159 0.710004 -1.85547)
(1.73513 0.121125 -2.14693)
(1.78178 0.0468194 -1.94549)
(1.37166 -0.50538 -1.5192)
(1.07072 -0.978862 -1.05823)
(0.234008 1.19149 -2.51831)
(0.702115 0.754695 -2.5569)
(1.53315 0.371732 -1.79377)
(2.20386 0.168044 -1.35136)
(1.64869 0.481609 -1.84673)
(1.33835 0.682994 -1.95021)
(1.57443 0.1402 -1.89196)
(1.65087 -0.470038 -1.56072)
(1.77171 -0.460843 -1.59215)
(1.32413 -0.37984 -1.40757)
(1.01852 -0.938807 -0.843458)
(0.672058 -1.36308 -0.63491)
(0.754672 2.91092 2.38003)
(0.651816 3.28156 2.01032)
(0.838615 2.7525 2.43552)
(0.222288 3.12188 2.49494)
(0.707043 2.84828 2.38865)
(0.779895 2.72788 2.28521)
(0.0103829 3.37173 2.46211)
(0.401866 3.10157 2.10883)
(0.806577 2.73891 1.85812)
(0.909219 2.82402 2.09791)
(0.0928712 3.35628 2.01883)
(0.214129 2.73943 2.2562)
(0.263847 2.64693 1.94992)
(0.380962 2.6914 1.54944)
(0.860182 2.70805 0.255111)
(-0.220514 2.95861 1.33203)
(-0.253196 2.63595 1.30088)
(0.379937 2.59876 0.43273)
(0.491839 2.67798 -0.0875355)
(0.814126 2.67304 -0.737728)
(1.46283 2.54106 -0.470859)
(-0.940578 2.54385 0.313931)
(-0.514226 2.52072 0.53844)
(0.243982 2.68422 -0.485209)
(0.820448 2.77243 -1.23764)
(1.42695 2.52596 -1.11689)
(2.0968 2.22688 -0.940222)
(1.81652 2.08969 -1.57043)
(-1.70443 2.12012 -0.226292)
(-0.238125 2.67529 -0.885751)
(0.563652 2.73458 -1.4256)
(1.22446 2.77816 -1.29352)
(1.74807 2.51542 -1.28968)
(2.14454 2.18835 -1.44037)
(2.02046 1.80336 -1.64485)
(1.74191 1.17168 -2.41265)
(-1.0259 2.13291 -1.12058)
(0.299753 2.40146 -2.00849)
(0.999019 2.53862 -1.47261)
(1.41725 2.37461 -1.44849)
(1.67704 2.49058 -1.43967)
(2.13168 2.35721 -1.39501)
(2.11218 1.37291 -2.19862)
(1.87267 0.917198 -2.18023)
(1.71439 0.732855 -2.39605)
(-0.336735 2.52857 -1.9232)
(0.24288 2.71625 -1.60528)
(0.831053 2.60248 -1.59148)
(1.43192 2.14613 -1.66633)
(1.85092 2.15979 -1.18589)
(2.09229 1.94028 -1.61547)
(2.42692 1.39883 -1.63501)
(1.75346 0.823015 -2.23409)
(1.56831 0.386593 -2.2913)
(1.2904 0.0896909 -2.14073)
(-0.736789 2.66115 -1.70276)
(0.342848 2.92179 -1.18938)
(1.40051 2.14956 -1.39119)
(1.73381 1.21618 -1.77301)
(1.6081 2.13858 -0.696675)
(1.33843 1.97786 -1.98325)
(1.792 1.09287 -2.24379)
(2.09934 0.796978 -1.93423)
(1.62004 0.091003 -2.09354)
(1.31522 -0.571756 -1.55041)
(0.896431 -0.74252 -1.6485)
(-0.848237 2.19581 -1.45807)
(0.000552548 1.78444 -1.50376)
(0.975594 1.17667 -1.65008)
(1.82114 0.81936 -1.61642)
(1.47009 1.21771 -1.94143)
(1.52601 1.49152 -1.6636)
(1.9605 0.686513 -1.81924)
(1.80051 0.0910944 -2.05487)
(1.80234 0.0323172 -1.89745)
(1.35643 -0.538944 -1.51686)
(1.08772 -0.979521 -1.02305)
(0.684402 -1.00891 -1.20839)
(0.238264 1.17838 -2.5172)
(0.68454 0.726226 -2.4865)
(1.5476 0.372871 -1.719)
(2.20394 0.171465 -1.33991)
(1.65965 0.479497 -1.81595)
(1.39379 0.720762 -1.92985)
(1.60017 0.141116 -1.87313)
(1.65371 -0.499557 -1.53534)
(1.76846 -0.465266 -1.56145)
(1.31465 -0.395049 -1.37634)
(1.01883 -0.959795 -0.830036)
(0.732701 -1.35159 -0.633714)
(0.726225 -1.10343 -0.729396)
(0.751291 2.87406 2.44066)
(0.57901 3.02064 2.26363)
(0.833134 2.74896 2.26892)
(0.215963 2.99508 2.38617)
(0.820911 2.77673 2.356)
(0.959894 2.80803 2.31092)
(-0.0649066 3.13139 2.50293)
(0.54059 2.93573 2.05252)
(0.766525 2.86267 1.85841)
(1.12301 2.87928 1.80147)
(-0.277137 3.26785 2.46273)
(0.0132327 3.00583 2.47921)
(0.783829 2.75797 1.7021)
(0.994438 2.92787 1.86914)
(1.28026 3.06829 0.509494)
(-0.337388 3.18605 2.1767)
(-0.148304 2.77402 2.26828)
(0.313043 2.77152 1.4998)
(0.620826 2.84411 0.94505)
(0.754823 2.92936 0.214692)
(1.55601 2.58304 -0.418882)
(-0.636785 2.82084 1.36542)
(-0.209185 2.71925 0.945426)
(0.105387 2.80264 0.428571)
(0.517984 3.03513 -0.274506)
(0.921077 2.76917 -0.657364)
(1.6732 2.61484 -0.447329)
(1.63853 2.56101 -0.622427)
(-1.12614 2.41414 0.604747)
(-0.348616 2.59148 0.215533)
(0.321155 2.91515 -0.850633)
(0.764911 3.00614 -1.07852)
(1.39639 2.59184 -1.08725)
(1.87224 2.40399 -0.922249)
(1.72032 2.25457 -1.57198)
(1.82407 2.39018 -1.73998)
(-0.377194 2.67136 -0.63286)
(-0.0282912 2.7395 -1.05157)
(0.626434 3.00694 -1.28384)
(1.08632 2.89809 -1.20284)
(1.60934 2.52996 -1.3541)
(2.10077 2.31443 -1.46982)
(1.89931 1.88096 -1.88106)
(1.67721 1.70994 -2.40652)
(1.18414 1.22384 -2.74303)
(-0.710614 2.23425 -1.3369)
(-0.225885 2.83107 -1.87362)
(0.831399 2.45747 -1.75585)
(1.37221 2.25874 -1.76695)
(1.5874 2.46406 -1.43508)
(2.14522 2.39875 -1.52293)
(2.03836 1.3591 -2.39732)
(1.87353 0.922885 -2.26026)
(1.68452 0.778765 -2.45081)
(1.06796 0.154778 -2.61356)
(-0.570498 2.45103 -2.08899)
(0.153534 2.6403 -1.8036)
(0.909567 2.78161 -0.963376)
(1.38417 2.22942 -1.32321)
(1.87541 2.11972 -1.26117)
(2.2853 1.87433 -1.56979)
(2.40132 1.31871 -1.81623)
(1.71279 0.874419 -2.20181)
(1.59553 0.343112 -2.27119)
(1.23004 0.0692106 -2.15341)
(0.959273 -0.141685 -2.21464)
(-0.73523 2.54809 -1.92825)
(0.465541 2.94639 -1.19863)
(1.23336 2.04148 -1.60966)
(1.47993 1.12168 -2.02098)
(1.51744 2.09586 -1.14591)
(1.53991 1.83619 -1.98646)
(1.98161 0.993166 -2.13555)
(1.93478 0.648132 -2.08217)
(1.77509 0.140118 -1.93634)
(1.30782 -0.618185 -1.49705)
(0.922392 -0.700092 -1.65315)
(0.805266 -0.260925 -1.67795)
(-0.850763 2.14069 -1.51401)
(0.0498623 1.75759 -1.54983)
(1.09667 1.16935 -1.82383)
(1.78232 0.817727 -1.69235)
(1.5532 1.24225 -1.86109)
(1.45201 1.39637 -1.85711)
(1.85342 0.609807 -1.86829)
(1.91612 0.132455 -1.85375)
(1.72098 -0.0443143 -1.92647)
(1.37307 -0.556681 -1.48786)
(1.10676 -0.976804 -0.994254)
(0.697393 -1.03076 -1.22071)
(0.614541 -0.843292 -1.13409)
(0.207312 1.18608 -2.51543)
(0.682401 0.6999 -2.37587)
(1.5587 0.358984 -1.67623)
(2.19949 0.189497 -1.3072)
(1.65635 0.494362 -1.79454)
(1.43983 0.75151 -1.91915)
(1.60271 0.123476 -1.83932)
(1.65579 -0.511707 -1.52636)
(1.75876 -0.487026 -1.5509)
(1.29441 -0.421233 -1.35298)
(1.01627 -0.973442 -0.820068)
(0.731389 -1.36305 -0.636778)
(0.729408 -1.11031 -0.730814)
(0.575937 -0.721643 -0.61229)
(0.566808 2.69066 2.51016)
(0.477245 2.88066 2.51797)
(0.709209 2.63131 2.52446)
(0.557263 3.00275 2.28809)
(1.0838 2.61256 2.14846)
(0.384665 2.42702 3.22913)
(0.321537 2.94484 2.19736)
(0.862188 2.72991 2.10513)
(0.995827 3.01555 1.96309)
(1.14447 2.80777 2.31209)
(-0.0993583 3.13862 2.23731)
(0.5466 3.12617 1.51777)
(0.757108 2.97266 1.63852)
(1.27609 2.95743 1.37987)
(1.54453 3.00185 1.35236)
(-0.343943 3.19766 2.1045)
(-0.193812 2.92344 2.69229)
(0.523569 2.79639 1.63848)
(0.776397 3.0857 1.29734)
(1.33716 3.33577 0.445587)
(1.58259 2.91041 -0.224336)
(-0.434137 3.03425 2.21289)
(-0.0673343 2.78748 1.64761)
(0.445688 2.8639 1.32987)
(0.180344 3.2295 1.83574)
(1.25021 2.98098 -0.411117)
(1.67136 2.79395 0.0896805)
(1.59711 2.88358 -0.388956)
(-0.794926 2.63671 1.48875)
(-0.842961 2.57773 1.15766)
(-0.0466959 3.05161 0.4561)
(0.401352 3.29511 -0.481013)
(1.10995 2.8062 -0.748493)
(1.68351 2.69431 -0.454361)
(1.48121 2.64551 -0.962012)
(1.93648 2.36166 -1.45936)
(-0.928959 2.39607 -0.291995)
(-1.26617 2.60244 0.614753)
(-0.0481894 3.22493 -0.634196)
(0.71329 3.04518 -1.00651)
(1.35267 2.73246 -0.7998)
(1.85579 2.46977 -1.06629)
(1.64369 2.36794 -1.74926)
(1.76879 2.26079 -1.83665)
(1.57463 1.91752 -2.71874)
(-1.37787 2.40185 -0.496421)
(-0.936036 2.88255 -0.200211)
(0.214857 3.06811 -1.45908)
(1.03056 2.97427 -1.02357)
(1.52067 2.56668 -1.31016)
(1.96543 2.47271 -1.49823)
(1.7684 2.03981 -2.12612)
(1.69205 1.58676 -2.60351)
(1.51206 1.36011 -2.72904)
(0.99762 0.832881 -2.96036)
(-1.20491 2.17487 -1.11291)
(-0.249469 2.77976 -1.81893)
(1.15127 2.5079 -1.79176)
(1.42223 2.27332 -1.5993)
(1.6819 2.58737 -1.05148)
(1.99176 2.46098 -1.7199)
(2.09822 1.82918 -2.14981)
(1.6317 0.864723 -2.58409)
(1.49624 0.947939 -2.53066)
(1.13951 0.228134 -2.64611)
(0.713791 0.804268 -2.38086)
(-0.653111 2.41713 -2.10004)
(0.0956627 2.65224 -1.86498)
(0.819261 2.60748 -1.18956)
(1.43622 2.11583 -1.22597)
(1.84299 2.1498 -1.26696)
(2.20211 2.1583 -1.49503)
(2.06996 1.14592 -2.38577)
(1.85235 1.11339 -1.98239)
(1.53824 0.260836 -2.28665)
(1.33319 0.16336 -2.07335)
(0.799956 -0.218539 -2.22195)
(0.510836 0.241225 -2.07363)
(-0.675641 2.55194 -1.9353)
(0.451777 2.88993 -1.33252)
(1.20968 1.98625 -1.64165)
(1.54837 1.07237 -2.00233)
(1.59639 2.05137 -1.397)
(1.60224 1.97197 -1.85591)
(2.00414 1.13347 -2.09603)
(1.96712 0.637184 -1.98479)
(1.8076 0.118467 -1.89977)
(1.35257 -0.643825 -1.41715)
(0.977975 -0.732228 -1.60206)
(0.738232 -0.265209 -1.76275)
(0.165186 -0.355485 -1.53774)
(-0.856267 2.08569 -1.58414)
(0.128884 1.74468 -1.61216)
(1.0895 1.17964 -1.95063)
(1.79248 0.788992 -1.66947)
(1.60931 1.2306 -1.84633)
(1.42898 1.3165 -1.9244)
(1.71186 0.456872 -1.93048)
(1.88911 0.070685 -1.78229)
(1.70898 -0.0807388 -1.88402)
(1.38774 -0.573998 -1.46961)
(1.11246 -0.989274 -0.967753)
(0.68861 -1.04947 -1.22251)
(0.585287 -0.833969 -1.14157)
(0.0282265 -0.879445 -0.847493)
(0.19839 1.16222 -2.49877)
(0.694368 0.689524 -2.25535)
(1.55329 0.361263 -1.64851)
(2.21666 0.168411 -1.28348)
(1.6657 0.482666 -1.76467)
(1.47779 0.757268 -1.91353)
(1.57841 0.122787 -1.82628)
(1.67358 -0.536103 -1.51568)
(1.75832 -0.5004 -1.54332)
(1.27253 -0.444964 -1.34162)
(1.0059 -0.989936 -0.802933)
(0.712904 -1.37456 -0.617391)
(0.730255 -1.11439 -0.741783)
(0.546719 -0.734389 -0.610448)
(1.13543 -0.347438 -0.294725)
(0.593827 2.73201 2.5549)
(0.597454 2.77972 2.41167)
(0.449913 2.53683 2.658)
(0.256269 2.93731 2.57233)
(0.973097 2.72005 2.27746)
(0.413559 2.57013 2.99129)
(0.280309 2.8774 2.28254)
(0.667424 2.52513 2.45393)
(0.691483 2.58916 3.01298)
(1.58771 3.23474 1.98253)
(0.340066 3.08812 2.00771)
(0.677945 3.01691 1.86698)
(1.0774 3.24957 1.50404)
(1.48921 3.15696 1.32297)
(1.83967 3.1424 1.14617)
(0.124365 3.16933 1.78882)
(0.571794 3.2072 1.48179)
(0.885086 3.12689 1.23047)
(1.348 3.06323 1.02678)
(1.62586 3.23581 0.74321)
(1.60744 3.04892 0.378975)
(-0.291627 3.22025 1.84396)
(0.217807 2.90274 1.66897)
(0.886692 2.80944 1.35316)
(0.953571 3.16054 1.57429)
(1.69363 3.37278 -0.161532)
(1.41206 3.12637 0.198916)
(1.79955 2.90355 -0.148491)
(-0.580523 3.07247 1.77578)
(-0.331308 2.80547 1.34233)
(-0.0213455 3.14477 1.7042)
(1.05481 3.50519 0.259646)
(1.07834 3.26836 -0.143981)
(1.80842 2.78492 -0.781492)
(1.69606 3.0178 -0.420075)
(2.10941 2.70338 -1.51375)
(-1.04758 2.65063 0.67802)
(-0.288495 2.86506 0.41746)
(0.149325 3.38829 0.0924194)
(0.734866 3.29283 -0.791187)
(1.23285 2.8557 -0.5724)
(1.4508 2.87322 -0.388912)
(1.53612 2.87403 -0.81355)
(1.74269 2.4123 -1.80134)
(2.06837 2.21778 -2.22706)
(-1.61167 2.37609 0.600262)
(-0.198332 3.01559 -0.528332)
(0.0552589 3.32121 -0.663151)
(0.76258 2.93706 -1.01074)
(1.29331 2.71317 -0.746042)
(1.64909 2.59227 -1.28486)
(1.50104 2.48402 -1.88052)
(1.68491 2.21136 -2.08751)
(1.99257 1.82564 -2.44615)
(2.14201 1.04123 -2.48472)
(-1.48789 2.32416 -0.510599)
(-0.444662 2.93572 -0.811206)
(0.447931 3.05385 -1.2432)
(0.842546 2.82571 -1.12216)
(1.51621 2.69354 -0.933285)
(1.81752 2.53173 -1.57947)
(1.79976 2.23727 -2.07851)
(1.79308 1.88829 -2.44215)
(1.64917 1.10312 -2.9419)
(1.6746 0.621948 -2.56821)
(1.41957 0.497382 -1.97683)
(-0.768207 2.34516 -1.52202)
(-0.309635 2.65892 -1.71475)
(1.09732 2.43564 -1.85289)
(1.26759 2.3125 -1.40555)
(1.59044 2.44674 -1.43712)
(1.89826 2.44207 -1.82935)
(2.06723 1.89022 -2.12575)
(1.24168 0.268771 -3.25262)
(1.92164 0.931708 -2.12342)
(1.54006 -0.162976 -2.56656)
(1.01711 0.615027 -2.15646)
(0.707002 0.181172 -2.00585)
(-0.714347 2.40649 -2.02608)
(0.0571059 2.6761 -1.80639)
(0.835295 2.56197 -1.28881)
(1.51576 2.17009 -1.10833)
(1.67837 1.97219 -1.69209)
(2.11645 1.91181 -1.81867)
(1.66674 0.86601 -2.85246)
(1.96616 1.14739 -1.86156)
(1.75565 0.26134 -2.07508)
(1.49337 -0.0142713 -1.92714)
(0.758663 -0.277448 -2.18155)
(0.544548 0.203322 -1.9862)
(-0.258824 -0.240544 -1.81611)
(-0.608575 2.54662 -1.9146)
(0.433739 2.77926 -1.43972)
(1.06558 1.80563 -1.92685)
(1.61686 1.12202 -1.9336)
(1.53419 1.93614 -1.78354)
(1.67333 2.09153 -1.74284)
(1.86724 0.999433 -2.32653)
(1.84316 0.550806 -2.06906)
(1.85016 0.0905167 -1.86068)
(1.3692 -0.690637 -1.37348)
(0.918579 -0.65604 -1.63637)
(0.720507 -0.340112 -1.81076)
(0.14994 -0.311289 -1.5537)
(-0.224633 -0.48065 -1.26414)
(-0.851121 2.03499 -1.65916)
(0.218136 1.75842 -1.70249)
(1.13885 1.08858 -1.93456)
(1.78781 0.734696 -1.62661)
(1.63493 1.23379 -1.89121)
(1.38499 1.21801 -1.95594)
(1.61086 0.357088 -1.95581)
(1.74222 -0.0312276 -1.86316)
(1.81467 -0.0666856 -1.7595)
(1.35405 -0.615021 -1.48918)
(1.11908 -0.982715 -0.950601)
(0.649809 -1.058 -1.22544)
(0.57466 -0.833155 -1.12933)
(0.107815 -0.803012 -0.823204)
(0.700098 -0.763153 -0.387197)
(0.183063 1.12088 -2.44834)
(0.718845 0.685982 -2.14719)
(1.57428 0.331605 -1.621)
(2.22004 0.163806 -1.27584)
(1.66231 0.470966 -1.74809)
(1.48159 0.765538 -1.90114)
(1.58454 0.119802 -1.7963)
(1.67684 -0.547821 -1.5144)
(1.7773 -0.513242 -1.52256)
(1.27313 -0.463596 -1.32888)
(0.997398 -0.999303 -0.78718)
(0.716557 -1.37827 -0.595372)
(0.703095 -1.11411 -0.739127)
(0.516597 -0.75374 -0.610046)
(1.08702 -0.356925 -0.28278)
(0.866509 -0.565006 0.364642)
(0.253679 2.53484 2.79095)
(0.284559 2.68675 2.63757)
(0.288178 2.4751 2.89)
(0.331528 2.71639 2.79998)
(0.962981 2.61791 2.52801)
(0.208906 2.49247 2.9449)
(0.0921314 2.80029 2.61668)
(0.214594 2.5727 2.81922)
(0.88744 2.76696 2.6466)
(1.45024 2.77088 2.57664)
(0.374417 2.96887 2.24598)
(0.712061 2.75188 2.44466)
(1.06179 2.91548 2.50339)
(1.49495 3.4099 1.64472)
(1.93052 3.26304 1.49949)
(0.408962 3.19543 1.78696)
(0.745528 3.33587 1.43313)
(0.925718 3.58708 0.939887)
(1.34641 3.42204 0.810307)
(1.86302 3.28134 0.726208)
(2.11606 3.12152 0.345596)
(-0.0212386 3.27885 1.72702)
(0.929423 3.41014 0.676699)
(1.04249 3.05851 1.09313)
(1.29189 3.09008 1.0715)
(1.70089 3.23237 0.378353)
(1.58036 3.21375 0.377963)
(1.89951 2.97044 -0.417634)
(-0.473083 3.2019 1.87729)
(0.218569 2.93293 1.44263)
(0.293989 3.17769 1.08152)
(1.03532 3.46522 0.598828)
(1.46774 3.56912 -0.06514)
(1.26396 3.17106 0.500561)
(1.60139 2.95071 0.0248274)
(2.22824 3.19215 -0.721707)
(-0.684433 3.07253 1.62321)
(0.114387 3.03324 0.655121)
(0.606847 3.47286 -0.135732)
(0.811869 3.79452 -0.29259)
(1.22132 3.43327 -0.268785)
(1.50239 2.8686 -0.526456)
(1.47722 3.2628 -0.374199)
(2.09486 2.8501 -1.34346)
(2.5154 2.67016 -1.37858)
(-1.25826 2.6447 1.13174)
(-0.239227 3.14656 0.0878614)
(0.212469 3.71871 -0.256447)
(0.604935 3.56822 -0.448425)
(1.39784 2.84586 -0.658595)
(1.33315 2.86348 -0.571119)
(1.46124 2.99929 -1.05294)
(1.95379 2.57576 -1.43368)
(2.12035 2.26417 -1.95029)
(2.70445 1.42616 -1.75017)
(-1.46259 2.5388 -0.306592)
(-0.476867 3.16451 -0.289401)
(0.268418 3.36812 -0.989725)
(0.571715 3.03301 -0.722772)
(1.175 2.68379 -1.05341)
(1.47807 2.79192 -1.30184)
(1.57409 2.63541 -1.60891)
(1.82512 2.209 -2.08625)
(2.13715 2.03192 -2.08946)
(2.16648 0.411811 -2.46788)
(1.2941 0.313756 -2.06347)
(-1.2124 2.45616 -0.786404)
(-0.426279 2.98388 -1.07673)
(0.0855262 3.20691 -0.759417)
(0.808889 2.65993 -0.865297)
(1.44976 2.75834 -0.885243)
(1.6052 2.62884 -1.61179)
(1.77278 2.29387 -2.0067)
(1.92229 2.00356 -2.2782)
(1.58634 0.62353 -3.02676)
(2.36143 0.604337 -2.01507)
(1.38179 0.413919 -2.08582)
(0.674874 -0.000314597 -1.90528)
(-1.00221 2.59167 -1.5323)
(-0.402439 2.67595 -1.72252)
(0.629333 2.32335 -1.6607)
(1.12605 2.15291 -1.78796)
(1.48616 2.59651 -1.43131)
(1.67545 2.55529 -1.77586)
(1.94009 1.87096 -2.08727)
(1.91094 0.796083 -2.44939)
(2.19752 0.997894 -1.87702)
(2.02098 0.253178 -2.21782)
(0.973467 0.562125 -2.26939)
(0.51316 0.0860799 -1.94711)
(-0.105953 -0.296155 -1.72773)
(-0.585995 2.42227 -2.0122)
(0.044997 2.6927 -1.72183)
(0.771975 2.54935 -1.34807)
(1.44599 2.08242 -1.53566)
(1.64666 2.14963 -1.62588)
(1.9696 1.98865 -1.93001)
(1.85155 1.1052 -2.36275)
(2.05457 1.10101 -1.81904)
(1.96293 0.247351 -1.83211)
(1.65264 0.043303 -1.74407)
(0.614786 -0.335459 -2.22072)
(0.570455 0.205454 -1.92019)
(-0.128543 -0.219962 -1.76974)
(-0.093202 -0.225266 -1.58715)
(-0.614025 2.54969 -1.83763)
(0.365103 2.60827 -1.62482)
(1.00527 1.64958 -1.99723)
(1.54158 1.01666 -2.0485)
(1.50867 1.72222 -2.14873)
(1.7501 2.08374 -1.71501)
(1.81071 0.797666 -2.44996)
(1.7582 0.387063 -2.17963)
(2.01533 0.114839 -1.69638)
(1.3806 -0.789598 -1.3266)
(0.92438 -0.610441 -1.58296)
(0.516202 -0.269462 -1.87979)
(0.207611 -0.315478 -1.53173)
(-0.408542 -0.555547 -1.22958)
(0.166284 -0.346505 -0.831026)
(-0.79988 2.05536 -1.69969)
(0.293648 1.78757 -1.81426)
(1.11238 1.01521 -1.90957)
(1.69291 0.737042 -1.64481)
(1.66355 1.21054 -1.90999)
(1.44536 1.19403 -1.92021)
(1.60034 0.28319 -1.94312)
(1.77472 -0.0630164 -1.81217)
(1.879 -0.0761225 -1.69571)
(1.38729 -0.643479 -1.49352)
(1.1522 -0.979915 -0.893239)
(0.671964 -1.03591 -1.22155)
(0.499152 -0.849869 -1.13904)
(0.20869 -0.779336 -0.797635)
(0.590432 -0.771561 -0.374936)
(0.239845 -0.891962 0.180109)
(0.174191 1.09152 -2.37606)
(0.744576 0.682835 -2.07225)
(1.57519 0.334268 -1.59775)
(2.20012 0.174492 -1.23835)
(1.66893 0.454445 -1.72355)
(1.48554 0.758889 -1.85933)
(1.59011 0.0926259 -1.75664)
(1.68549 -0.567281 -1.50582)
(1.76221 -0.531774 -1.51808)
(1.27411 -0.467731 -1.32263)
(1.00106 -1.02644 -0.764423)
(0.725483 -1.37305 -0.579156)
(0.665865 -1.1241 -0.738138)
(0.478407 -0.752882 -0.60879)
(1.04085 -0.367535 -0.272105)
(0.842113 -0.565432 0.354397)
(-0.206715 -0.786237 0.607819)
(0.261086 2.4797 2.78566)
(0.375643 2.6547 2.73629)
(0.201652 2.50284 2.84423)
(-0.162757 2.75412 2.66738)
(0.494078 2.56547 2.71525)
(0.408447 2.461 2.86554)
(0.0683339 2.96274 2.71062)
(0.606529 3.01918 2.49853)
(1.29749 2.65892 2.39271)
(1.52169 2.66999 2.50485)
(0.0408421 2.79955 2.71945)
(0.623763 2.72905 2.61225)
(0.929307 2.76846 2.49212)
(1.70956 3.29847 2.03567)
(2.37385 3.39689 1.22677)
(0.323006 3.34791 2.11334)
(1.28103 3.52337 1.60241)
(1.16858 3.53633 1.81202)
(1.51576 3.83583 0.832498)
(2.002 3.34532 0.984914)
(1.78558 3.34026 1.05242)
(-0.0943887 3.05503 2.28519)
(0.405458 3.10545 2.01382)
(1.14425 3.63383 0.709963)
(1.23952 3.47027 0.788516)
(1.79792 3.30935 0.372157)
(1.8488 3.1393 0.522058)
(1.68741 3.01634 0.752049)
(-0.0274065 3.47317 1.75757)
(0.319033 3.25563 1.43512)
(0.725144 3.05076 0.970957)
(1.0288 3.14502 0.642408)
(1.49279 3.32188 0.260597)
(1.408 3.31724 0.519585)
(1.83772 3.01235 -0.599857)
(2.24186 3.25312 0.0468462)
(-0.731879 3.30374 1.89999)
(0.769033 3.22999 0.430157)
(1.37502 3.34835 -0.0979579)
(0.74927 3.77638 0.0411162)
(1.22665 3.6952 -0.139771)
(1.2 3.20743 0.126423)
(1.56507 2.97949 -0.00282542)
(1.98894 3.14733 -0.435592)
(2.37437 3.11195 -0.206788)
(-0.745935 3.15294 1.78841)
(-0.221774 3.22126 0.437156)
(0.530288 3.73255 -0.2596)
(0.49161 4.03779 -0.257062)
(1.15984 3.50666 -0.463765)
(1.3516 2.94756 -0.468343)
(1.48968 3.28546 -0.505304)
(2.21677 2.89546 -1.27032)
(2.33232 2.49978 -1.81208)
(2.61961 1.47664 -1.85592)
(-1.05894 2.90463 1.02535)
(-0.639709 3.06513 0.3519)
(0.088185 3.84295 -0.204045)
(0.824517 3.52222 -1.00801)
(1.43248 2.95527 -0.611084)
(1.17806 3.0198 -0.735953)
(1.49011 2.97592 -1.40844)
(1.91287 2.52306 -1.65815)
(2.20127 2.10184 -1.85305)
(2.79676 1.03367 -1.94211)
(1.54897 0.448129 -1.96196)
(-1.21819 2.68779 -0.732598)
(-0.619882 3.20284 -0.349025)
(0.0021417 3.52318 -0.749696)
(0.643114 2.86433 -1.33057)
(1.13548 2.78312 -1.22821)
(1.37149 2.90636 -1.3699)
(1.57085 2.72077 -1.47153)
(1.80871 2.33939 -1.90016)
(2.21038 1.76656 -2.11719)
(2.30884 0.56663 -2.19739)
(1.43851 0.300524 -1.95149)
(1.0002 -0.267672 -1.45929)
(-1.43048 2.45967 -0.585081)
(-0.698537 3.10604 -1.0111)
(0.219616 2.85409 -1.4086)
(0.713269 2.74511 -0.583764)
(1.35405 2.75181 -1.22158)
(1.41807 2.68145 -1.65642)
(1.70996 2.32912 -1.84138)
(2.00764 1.69035 -2.10944)
(1.92939 0.843502 -2.57855)
(2.22353 0.320928 -2.11218)
(1.48396 0.120291 -2.15987)