/*--------------------------------*- C++ -*----------------------------------*\
  =========                 |
  \\      /  F ield         | OpenFOAM: The Open Source CFD Toolbox
   \\    /   O peration     | Website:  https://openfoam.org
    \\  /    A nd           | Version:  7
     \\/     M anipulation  |
\*---------------------------------------------------------------------------*/
FoamFile
{
    version     2.0;
    format      ascii;
    class       volScalarField;
    location    "1.5";
    object      p;
}
// * * * * * * * * * * * * * * * * * * * * * * * * * * * * * * * * * * * * * //

dimensions      [0 2 -2 0 0 0 0];

internalField   nonuniform List<scalar> 
18870
(
-54.8166
-54.3715
-54.7814
-54.2413
-53.8737
-54.3076
-53.8284
-54.7499
-54.2199
-53.7033
-53.1464
-53.8166
-53.316
-54.2587
-53.7777
-53.3843
-54.7223
-54.2022
-53.6845
-53.2899
-52.7546
-53.1262
-52.8042
-53.7612
-53.2912
-52.92
-54.2184
-53.7377
-53.3532
-52.9707
-54.6982
-54.1803
-53.6789
-53.2847
-52.8744
-52.4232
-52.7585
-52.4589
-53.1054
-52.7943
-52.5272
-53.7138
-53.2721
-52.9059
-52.5977
-54.1772
-53.6987
-53.3234
-52.9541
-52.572
-54.6791
-54.1665
-53.6724
-53.2684
-52.8673
-52.4767
-52.6259
-52.5421
-52.2357
-52.7754
-52.4968
-52.2322
-53.0949
-52.7903
-52.5319
-52.2845
-53.6777
-53.2573
-52.8993
-52.5867
-52.2644
-54.1405
-53.6678
-53.3042
-52.9364
-52.5598
-52.1982
-54.6682
-54.1569
-53.657
-53.2571
-52.8624
-52.4664
-52.0865
-52.7316
-52.7752
-52.3957
-52.6543
-52.3464
-52.1005
-52.8045
-52.5349
-52.2752
-52.0398
-53.0971
-52.7933
-52.5356
-52.2893
-52.0072
-53.649
-53.2468
-52.8927
-52.5749
-52.2626
-51.9598
-54.1137
-53.638
-53.2846
-52.9203
-52.5507
-52.1929
-51.8622
-54.6568
-54.1407
-53.6453
-53.2422
-52.8549
-52.4585
-52.0853
-51.7535
-52.9852
-52.9325
-52.7635
-52.9238
-52.592
-52.2598
-52.7604
-52.4432
-52.1907
-51.9515
-52.8454
-52.5718
-52.316
-52.077
-51.8281
-53.1017
-52.7995
-52.5443
-52.2954
-52.0185
-51.7516
-53.6294
-53.2411
-52.889
-52.5723
-52.2674
-51.9661
-51.6797
-54.0907
-53.6099
-53.2675
-52.908
-52.5423
-52.1899
-51.8611
-51.5746
-54.6432
-54.1261
-53.6417
-53.227
-52.8473
-52.4545
-52.0837
-51.7528
-51.4632
-52.7157
-53.1848
-53.2286
-53.1067
-52.9573
-52.7187
-53.0681
-52.7202
-52.3602
-52.0993
-52.8558
-52.5289
-52.2681
-52.0171
-51.7875
-52.8846
-52.6104
-52.3547
-52.1136
-51.8598
-51.6201
-53.1083
-52.8048
-52.5523
-52.3042
-52.029
-51.7672
-51.5123
-53.6141
-53.2369
-52.8864
-52.5753
-52.2698
-51.9738
-51.6895
-51.4315
-54.0694
-53.6156
-53.2548
-52.8991
-52.5331
-52.1872
-51.8616
-51.578
-51.3188
-54.6358
-54.1059
-53.639
-53.2183
-52.8421
-52.4533
-52.0801
-51.7511
-51.4644
-51.1907
-51.5175
-52.8239
-53.183
-53.2669
-53.3347
-53.1793
-53.218
-53.1001
-52.8493
-52.5108
-53.1931
-52.8182
-52.4353
-52.1601
-51.8881
-52.9273
-52.5954
-52.3296
-52.0762
-51.8361
-51.6047
-52.9253
-52.6496
-52.3915
-52.1484
-51.8907
-51.6535
-51.4196
-53.1261
-52.8177
-52.5621
-52.3121
-52.0385
-51.7803
-51.5294
-51.3097
-53.6087
-53.2366
-52.8894
-52.577
-52.2737
-51.9813
-51.6999
-51.4419
-51.2097
-54.0483
-53.6067
-53.2418
-52.8864
-52.5267
-52.184
-51.8642
-51.5833
-51.3225
-51.0826
-54.6162
-54.0854
-53.6326
-53.2097
-52.8364
-52.453
-52.078
-51.751
-51.4658
-51.1926
-50.9509
-50.326
-51.7029
-52.157
-52.6464
-53.0908
-53.447
-53.3019
-53.3608
-53.1914
-53.0812
-53.3286
-53.1588
-52.9079
-52.5732
-52.282
-53.2913
-52.8991
-52.4941
-52.1935
-51.9226
-51.6937
-52.9796
-52.6472
-52.3754
-52.1218
-51.8683
-51.6391
-51.4026
-52.972
-52.6885
-52.4284
-52.182
-51.9221
-51.6852
-51.4528
-51.2396
-53.1482
-52.8375
-52.5751
-52.322
-52.0486
-51.7937
-51.5458
-51.326
-51.1204
-53.5968
-53.2351
-52.8901
-52.5784
-52.2817
-51.9904
-51.7104
-51.4536
-51.221
-51.0018
-54.0282
-53.5909
-53.2312
-52.8771
-52.5228
-52.1837
-51.8685
-51.5886
-51.3266
-51.0865
-50.8592
-54.5946
-54.0723
-53.6294
-53.2027
-52.8324
-52.4526
-52.0777
-51.7511
-51.4675
-51.195
-50.9526
-50.7082
-49.4493
-50.4069
-50.7583
-51.6816
-52.1474
-52.4877
-52.7444
-52.9869
-53.2373
-53.2986
-53.2234
-53.3399
-53.1455
-53.064
-52.9422
-53.4189
-53.1774
-52.9307
-52.5927
-52.2505
-51.9832
-53.3578
-52.958
-52.5223
-52.2125
-51.945
-51.7139
-51.4537
-53.0162
-52.6838
-52.4177
-52.1575
-51.8964
-51.6673
-51.4313
-51.2176
-53.0186
-52.7345
-52.4619
-52.2122
-51.9521
-51.7153
-51.4846
-51.2704
-51.0765
-53.1676
-52.8523
-52.5891
-52.3329
-52.0604
-51.8095
-51.5632
-51.3428
-51.1338
-50.9349
-53.5974
-53.2375
-52.893
-52.5832
-52.2899
-52.0001
-51.7216
-51.4651
-51.233
-51.0121
-50.8041
-54.0181
-53.5895
-53.2284
-52.8778
-52.5201
-52.1857
-51.8738
-51.5937
-51.3308
-51.091
-50.8643
-50.6445
-54.5814
-54.0596
-53.6305
-53.1995
-52.8297
-52.4528
-52.0767
-51.7518
-51.4686
-51.1974
-50.9543
-50.71
-50.4767
-48.7871
-49.4978
-49.7958
-50.2308
-50.8432
-51.0309
-51.2471
-51.8671
-52.287
-52.5299
-52.5569
-52.8372
-53.025
-53.2927
-53.3002
-53.2095
-53.2366
-53.0386
-52.8884
-52.7283
-52.4713
-53.4357
-53.2034
-52.9194
-52.5432
-52.1482
-51.9218
-51.5867
-53.3929
-52.9901
-52.529
-52.2204
-51.9518
-51.722
-51.4722
-51.2552
-53.0512
-52.7056
-52.4446
-52.1837
-51.9212
-51.6947
-51.4562
-51.2427
-51.0614
-53.0672
-52.7748
-52.4959
-52.2403
-51.9803
-51.7445
-51.515
-51.3011
-51.1046
-50.9179
-53.1914
-52.872
-52.6043
-52.3456
-52.0756
-51.8282
-51.5823
-51.3602
-51.1485
-50.9482
-50.7548
-53.6103
-53.2431
-52.8984
-52.5892
-52.2966
-52.0104
-51.7339
-51.4767
-51.2445
-51.0223
-50.8127
-50.6052
-54.009
-53.5834
-53.224
-52.8774
-52.5179
-52.1869
-51.8783
-51.5969
-51.3366
-51.0964
-50.8698
-50.6497
-50.4361
-54.5719
-54.0477
-53.6272
-53.1967
-52.8247
-52.4521
-52.0759
-51.7541
-51.4695
-51.1996
-50.9568
-50.7118
-50.4788
-50.2538
-48.4809
-48.8404
-49.1239
-49.4119
-49.7078
-50.0888
-50.2239
-50.5692
-50.972
-51.2672
-51.232
-51.5926
-51.9994
-52.2325
-52.4
-52.2257
-52.6551
-52.8213
-53.0537
-52.9704
-52.6921
-53.2077
-53.1406
-52.8934
-52.6732
-52.5044
-52.2715
-51.9332
-53.3896
-53.1862
-52.8637
-52.4682
-52.0618
-51.8115
-51.5072
-51.2125
-53.3947
-52.9992
-52.5247
-52.2264
-51.9482
-51.7251
-51.4876
-51.2643
-51.063
-53.0739
-52.7252
-52.4609
-52.2024
-51.9417
-51.7187
-51.4798
-51.2672
-51.0849
-50.906
-53.1056
-52.8066
-52.5212
-52.2662
-52.011
-51.7752
-51.546
-51.3299
-51.1319
-50.9414
-50.7502
-53.218
-52.8922
-52.621
-52.3601
-52.091
-51.8446
-51.6005
-51.3775
-51.1649
-50.9641
-50.7692
-50.5787
-53.6095
-53.2486
-52.9033
-52.5926
-52.3034
-52.0198
-51.7453
-51.4885
-51.2549
-51.0315
-50.8214
-50.6137
-50.4164
-53.9965
-53.5771
-53.2195
-52.8743
-52.5175
-52.1914
-51.8824
-51.6021
-51.3443
-51.1026
-50.8756
-50.6551
-50.4416
-50.2347
-54.5713
-54.0389
-53.6195
-53.1935
-52.8209
-52.4517
-52.077
-51.7572
-51.4722
-51.2015
-50.9592
-50.7138
-50.4812
-50.2564
-50.0433
-48.17
-48.4434
-48.6973
-48.9758
-49.0839
-49.3244
-49.5157
-49.7139
-49.967
-50.1697
-50.3092
-50.6288
-50.8561
-51.089
-51.3233
-51.0737
-51.472
-51.7309
-51.904
-52.1358
-51.8997
-52.0877
-52.3826
-52.5711
-52.6128
-52.5077
-52.2312
-51.8591
-53.1517
-53.0514
-52.752
-52.4443
-52.19
-51.9983
-51.733
-51.4856
-53.3386
-53.1512
-52.7843
-52.3922
-51.9747
-51.7142
-51.4298
-51.1719
-51.0269
-53.3769
-52.9925
-52.5132
-52.2257
-51.9429
-51.7376
-51.5001
-51.2732
-51.0701
-50.896
-53.0871
-52.7389
-52.4783
-52.2182
-51.9618
-51.7385
-51.5027
-51.2925
-51.1071
-50.9269
-50.747
-53.1375
-52.8378
-52.5408
-52.2862
-52.0343
-51.8062
-51.5748
-51.3566
-51.1553
-50.9623
-50.7691
-50.5789
-53.2365
-52.9135
-52.6379
-52.3763
-52.1097
-51.8633
-51.6196
-51.396
-51.1834
-50.9814
-50.7846
-50.5911
-50.4041
-53.6142
-53.2544
-52.9115
-52.5959
-52.3066
-52.0259
-51.7541
-51.4984
-51.2633
-51.0407
-50.8296
-50.6227
-50.4244
-50.2278
-53.9905
-53.5736
-53.2196
-52.8741
-52.524
-52.1979
-51.888
-51.6093
-51.3522
-51.1094
-50.8817
-50.6608
-50.4471
-50.2401
-50.0402
-54.5638
-54.0361
-53.6131
-53.1956
-52.819
-52.4522
-52.0799
-51.76
-51.4772
-51.2034
-50.9618
-50.7153
-50.4838
-50.2593
-50.046
-49.8388
-47.7818
-48.1625
-48.264
-48.5101
-48.6439
-48.7728
-48.9391
-49.1748
-49.3021
-49.3525
-49.4614
-49.7632
-49.9192
-50.0835
-50.2634
-50.2654
-50.4904
-50.7607
-50.9042
-51.0661
-51.1462
-50.9059
-51.2276
-51.4894
-51.6165
-51.7363
-51.5188
-51.4334
-51.9603
-52.207
-52.2711
-52.2701
-52.1058
-51.7825
-51.5111
-51.0088
-53.0427
-52.9282
-52.6143
-52.2388
-51.9093
-51.6642
-51.5206
-51.3128
-51.0388
-53.311
-53.1052
-52.6905
-52.3252
-51.905
-51.6579
-51.3786
-51.1488
-51.0147
-50.8917
-53.347
-52.9798
-52.4832
-52.2157
-51.9413
-51.7432
-51.5176
-51.2836
-51.0879
-50.9167
-50.7318
-53.0874
-52.7464
-52.4918
-52.232
-51.9812
-51.7627
-51.5264
-51.3201
-51.1325
-50.9509
-50.7689
-50.5804
-53.1631
-52.8499
-52.5592
-52.3004
-52.0497
-51.823
-51.5989
-51.3786
-51.1734
-50.9805
-50.7864
-50.5949
-50.4098
-53.2575
-52.9338
-52.6587
-52.3951
-52.1313
-51.8864
-51.6406
-51.4166
-51.2051
-51.0003
-50.8009
-50.6044
-50.4161
-50.2295
-53.6238
-53.2586
-52.919
-52.606
-52.3112
-52.032
-51.7635
-51.5082
-51.2724
-51.0491
-50.8387
-50.631
-50.4324
-50.2359
-50.0457
-53.9911
-53.5747
-53.2263
-52.8784
-52.5327
-52.205
-51.895
-51.6171
-51.3605
-51.1161
-50.8879
-50.6667
-50.4527
-50.2456
-50.0454
-49.8485
-54.555
-54.0307
-53.6101
-53.1974
-52.8181
-52.4539
-52.0835
-51.7627
-51.4813
-51.2061
-50.9647
-50.7167
-50.4869
-50.2622
-50.0486
-49.8407
-49.6393
-47.8001
-47.9191
-47.9128
-48.2113
-48.3043
-48.3736
-48.5966
-48.6738
-48.8219
-48.9405
-48.964
-49.1662
-49.3619
-49.4673
-49.5291
-49.5174
-49.6209
-49.8476
-50.0501
-50.1589
-50.1842
-50.2892
-50.4012
-50.595
-50.8114
-50.8431
-50.8031
-50.6978
-50.8653
-51.0669
-51.2498
-51.3484
-51.3724
-51.1857
-51.1176
-51.0525
-51.7852
-52.1106
-52.0412
-51.9914
-51.7827
-51.3691
-51.1557
-50.7526
-50.5597
-52.9697
-52.866
-52.4999
-52.0858
-51.7909
-51.7413
-51.4184
-51.1883
-50.9542
-50.7706
-53.2511
-53.0429
-52.5882
-52.2508
-51.8612
-51.6364
-51.3587
-51.1497
-51.0206
-50.8959
-50.71
-53.2992
-52.9494
-52.4429
-52.21
-51.9456
-51.753
-51.5348
-51.301
-51.1117
-50.9396
-50.7572
-50.568
-53.0838
-52.7462
-52.5015
-52.2461
-52
-51.7827
-51.5552
-51.3491
-51.1609
-50.9763
-50.792
-50.6022
-50.4197
-53.1812
-52.8636
-52.5747
-52.3163
-52.0685
-51.844
-51.6199
-51.4009
-51.193
-50.9985
-50.8035
-50.6099
-50.4235
-50.2442
-53.28
-52.9503
-52.6788
-52.414
-52.1528
-51.9091
-51.6625
-51.4382
-51.2255
-51.017
-50.8156
-50.617
-50.4267
-50.2393
-50.0579
-53.6312
-53.2619
-52.9253
-52.6115
-52.3162
-52.0384
-51.7728
-51.5183
-51.2804
-51.0581
-50.8491
-50.639
-50.4415
-50.2439
-50.0528
-49.8689
-53.9945
-53.5804
-53.2332
-52.8845
-52.5418
-52.2116
-51.9024
-51.6252
-51.3679
-51.1231
-50.8944
-50.6729
-50.4589
-50.2509
-50.0507
-49.8534
-49.6643
-54.5517
-54.0251
-53.6088
-53.1987
-52.8204
-52.4571
-52.0869
-51.7663
-51.4837
-51.2105
-50.968
-50.7195
-50.4902
-50.2654
-50.0512
-49.8425
-49.6413
-49.4481
-47.4891
-47.7685
-47.8657
-47.8692
-48.0547
-48.1664
-48.2411
-48.3454
-48.4898
-48.5537
-48.5632
-48.6393
-48.8414
-48.9491
-49.0664
-48.996
-49.2428
-49.3103
-49.4881
-49.5815
-49.6474
-49.4451
-49.6333
-49.7953
-49.935
-50.0704
-50.111
-50.1113
-50.1464
-50.4142
-50.4855
-50.5597
-50.6687
-50.5977
-50.5518
-50.4049
-50.7375
-50.9417
-51.0594
-51.057
-51.0193
-50.8922
-50.92
-50.7823
-50.591
-51.724
-51.9883
-51.881
-51.7826
-51.4729
-51.3408
-50.8911
-50.5579
-50.4568
-50.6996
-52.8418
-52.7766
-52.4009
-51.9346
-51.7355
-51.6077
-51.4415
-51.1129
-50.8797
-50.7426
-50.5684
-53.1597
-52.9335
-52.4487
-52.1789
-51.8355
-51.6197
-51.3651
-51.175
-51.039
-50.9114
-50.7322
-50.549
-53.2126
-52.8828
-52.4089
-52.2173
-51.9571
-51.7678
-51.5537
-51.3269
-51.1408
-50.9694
-50.7891
-50.5989
-50.4117
-53.0774
-52.7413
-52.5083
-52.2613
-52.0219
-51.8051
-51.5845
-51.3793
-51.1883
-51.002
-50.8151
-50.6239
-50.4389
-50.2627
-53.1924
-52.8768
-52.5874
-52.329
-52.0813
-51.8653
-51.6403
-51.4217
-51.2119
-51.0166
-50.8202
-50.6262
-50.4381
-50.256
-50.0791
-53.294
-52.9768
-52.7018
-52.4325
-52.1772
-51.9319
-51.6846
-51.4591
-51.2442
-51.0321
-50.8285
-50.6283
-50.4363
-50.249
-50.0656
-49.8868
-53.6234
-53.2703
-52.9297
-52.6176
-52.3206
-52.0456
-51.7816
-51.5279
-51.29
-51.0696
-50.8591
-50.6474
-50.4504
-50.2518
-50.0597
-49.8743
-49.6902
-53.9986
-53.591
-53.2373
-52.8899
-52.5506
-52.2186
-51.9095
-51.6328
-51.3749
-51.1301
-50.9011
-50.6797
-50.4648
-50.2564
-50.056
-49.8582
-49.6681
-49.4837
-54.5443
-54.027
-53.6134
-53.2017
-52.8243
-52.4603
-52.09
-51.7714
-51.4884
-51.2174
-50.9706
-50.7235
-50.4938
-50.2684
-50.0534
-49.8446
-49.6431
-49.4495
-49.2636
-47.5736
-47.5142
-47.6985
-47.7675
-47.8318
-48.0062
-47.872
-48.0083
-48.1753
-48.325
-48.3124
-48.3256
-48.4463
-48.5328
-48.7347
-48.5274
-48.7564
-48.835
-48.9642
-49.0468
-49.171
-48.9515
-49.1568
-49.3037
-49.3787
-49.5021
-49.6038
-49.6243
-49.3995
-49.5931
-49.7631
-49.8839
-49.9857
-49.9786
-50.0497
-50.0783
-50.0573
-50.3146
-50.4547
-50.481
-50.4675
-50.5015
-50.3905
-50.1995
-50.1451
-50.7527
-50.8363
-50.9099
-50.9279
-50.9204
-50.7063
-50.7175
-50.593
-50.4515
-50.203
-51.6859
-51.8459
-51.7823
-51.6129
-51.4084
-51.3437
-50.895
-50.4212
-50.4348
-50.718
-50.457
-52.6342
-52.5976
-52.2138
-51.8097
-51.6763
-51.5816
-51.4207
-51.0791
-50.8615
-50.7665
-50.6159
-50.4153
-52.9958
-52.7613
-52.336
-52.1039
-51.8227
-51.6205
-51.3877
-51.2167
-51.0844
-50.9472
-50.7663
-50.5889
-50.4148
-53.1628
-52.8212
-52.3848
-52.2219
-51.9813
-51.7897
-51.5789
-51.3616
-51.177
-51.0067
-50.8254
-50.6343
-50.4443
-50.2763
-53.0756
-52.7394
-52.5159
-52.2769
-52.0458
-51.8344
-51.6149
-51.4105
-51.218
-51.0296
-50.84
-50.646
-50.4587
-50.2796
-50.106
-53.1998
-52.8882
-52.6008
-52.3409
-52.0973
-51.8793
-51.6604
-51.4407
-51.232
-51.0329
-50.8351
-50.6401
-50.4518
-50.2683
-50.0888
-49.9148
-53.3017
-53.0015
-52.7265
-52.4529
-52.197
-51.9539
-51.7047
-51.476
-51.2604
-51.0455
-50.8404
-50.6391
-50.4457
-50.2578
-50.0727
-49.8931
-49.7155
-53.6217
-53.2769
-52.9378
-52.6269
-52.3283
-52.0543
-51.7917
-51.5395
-51.3025
-51.0807
-50.8685
-50.6554
-50.4584
-50.2589
-50.0661
-49.8794
-49.6948
-49.5172
-54.0096
-53.6021
-53.2402
-52.8948
-52.5583
-52.225
-51.9171
-51.6402
-51.3824
-51.1376
-50.9085
-50.6866
-50.4716
-50.2629
-50.0615
-49.8628
-49.6717
-49.4867
-49.3083
-54.5421
-54.0249
-53.621
-53.2073
-52.8311
-52.4614
-52.0926
-51.7772
-51.4949
-51.223
-50.9725
-50.7278
-50.4973
-50.2713
-50.0553
-49.8467
-49.6449
-49.4508
-49.2647
-49.0884
-47.3554
-47.5797
-47.6087
-47.5597
-47.6753
-47.7823
-47.8233
-47.8821
-47.9659
-48.0683
-47.885
-48.0581
-48.1717
-48.273
-48.4245
-48.297
-48.3396
-48.4504
-48.5687
-48.6934
-48.7907
-48.5557
-48.7784
-48.8503
-48.9502
-49.0615
-49.22
-49.2156
-48.959
-49.1153
-49.215
-49.365
-49.4037
-49.4709
-49.6145
-49.6448
-49.5007
-49.5661
-49.7185
-49.8711
-49.9656
-49.944
-49.8647
-50.0538
-49.9955
-50.0301
-50.275
-50.3292
-50.4679
-50.494
-50.4015
-50.2932
-50.0603
-49.9046
-50.0562
-50.7042
-50.8121
-50.8589
-50.8625
-50.8443
-50.9057
-50.6574
-50.5356
-50.3035
-50.1603
-49.8238
-51.5597
-51.6704
-51.6626
-51.51
-51.3552
-51.0763
-50.9096
-50.4236
-50.5143
-50.6493
-50.4227
-50.3118
-52.4585
-52.4384
-52.0705
-51.7049
-51.6568
-51.5657
-51.3684
-51.0398
-50.9134
-50.8122
-50.7003
-50.5079
-50.306
-52.8991
-52.5858
-52.245
-52.0565
-51.8355
-51.6408
-51.4303
-51.2711
-51.1449
-50.998
-50.8197
-50.6419
-50.4641
-50.2984
-53.1087
-52.7624
-52.3725
-52.2357
-52.0152
-51.8255
-51.6121
-51.4029
-51.2226
-51.05
-50.8651
-50.6729
-50.4802
-50.3064
-50.1413
-53.0756
-52.7401
-52.5266
-52.2965
-52.0693
-51.864
-51.6494
-51.4444
-51.2488
-51.057
-50.8651
-50.6673
-50.4781
-50.2962
-50.1204
-49.9511
-53.2039
-52.8959
-52.6158
-52.3556
-52.1135
-51.8984
-51.6785
-51.4609
-51.251
-51.0487
-50.8483
-50.6525
-50.4625
-50.2793
-50.0979
-49.9233
-49.7473
-53.3426
-53.0253
-52.7478
-52.4702
-52.2136
-51.9696
-51.7223
-51.4905
-51.2724
-51.0565
-50.8511
-50.6485
-50.4547
-50.2645
-50.0793
-49.8989
-49.7206
-49.5475
-53.6493
-53.2813
-52.9505
-52.6388
-52.339
-52.0662
-51.8043
-51.5509
-51.3138
-51.0915
-50.8779
-50.6635
-50.4652
-50.265
-50.072
-49.8841
-49.6991
-49.5208
-49.349
-54.0235
-53.609
-53.2424
-52.8984
-52.5656
-52.2327
-51.9258
-51.6473
-51.3903
-51.1457
-50.916
-50.6937
-50.4787
-50.2693
-50.0667
-49.8671
-49.6751
-49.4894
-49.3105
-49.1406
-54.5448
-54.0256
-53.6298
-53.2181
-52.8386
-52.4614
-52.0974
-51.7857
-51.5025
-51.2287
-50.9755
-50.732
-50.5009
-50.2737
-50.0577
-49.8488
-49.6466
-49.4521
-49.2657
-49.089
-48.9215
-47.3529
-47.3889
-47.422
-47.5353
-47.6334
-47.6545
-47.5849
-47.6948
-47.8436
-47.8411
-47.8026
-47.9561
-48.0417
-48.0773
-48.1615
-48.0011
-48.0192
-48.1915
-48.3041
-48.4325
-48.5036
-48.2189
-48.3185
-48.424
-48.5609
-48.6669
-48.7922
-48.8524
-48.5676
-48.7067
-48.8239
-48.937
-49.0145
-49.0978
-49.1238
-49.2591
-48.9947
-49.1004
-49.166
-49.2691
-49.4688
-49.4643
-49.5131
-49.612
-49.417
-49.3791
-49.6031
-49.6792
-49.7691
-49.9257
-49.8555
-49.8033
-49.8805
-49.9523
-49.8341
-49.9744
-50.1763
-50.2295
-50.3397
-50.3768
-50.3421
-50.2592
-49.99
-50.0115
-50.1586
-49.9724
-50.6018
-50.8071
-50.87
-50.7577
-50.7604
-50.796
-50.7463
-50.4528
-50.3235
-50.1572
-49.8834
-49.8393
-51.476
-51.5415
-51.5407
-51.4468
-51.2989
-51.0606
-50.8529
-50.6242
-50.6674
-50.6881
-50.4609
-50.4059
-50.3066
-52.3129
-52.3226
-51.9745
-51.679
-51.6981
-51.5764
-51.374
-51.0796
-50.9867
-50.9039
-50.7979
-50.6148
-50.4044
-50.2747
-52.8481
-52.4771
-52.1905
-52.0508
-51.8726
-51.682
-51.4951
-51.3398
-51.2212
-51.0617
-50.8857
-50.7034
-50.5184
-50.3465
-50.1853
-53.0432
-52.6999
-52.4011
-52.2649
-52.0568
-51.8647
-51.6539
-51.4506
-51.2693
-51.0956
-50.9065
-50.7108
-50.5155
-50.3375
-50.1672
-49.9968
-53.0744
-52.7547
-52.5361
-52.3151
-52.0951
-51.8939
-51.6829
-51.4781
-51.2788
-51.0855
-50.8885
-50.6877
-50.4964
-50.3107
-50.1343
-49.9618
-49.7881
-53.2145
-52.9052
-52.627
-52.3744
-52.1248
-51.9192
-51.6971
-51.4789
-51.2682
-51.0632
-50.8611
-50.6633
-50.4722
-50.2874
-50.1063
-49.9301
-49.7529
-49.5824
-53.3778
-53.0347
-52.7643
-52.4838
-52.2284
-51.9841
-51.7358
-51.5025
-51.2825
-51.0678
-50.8611
-50.6564
-50.4625
-50.2709
-50.0857
-49.9041
-49.7252
-49.5512
-49.3828
-53.6593
-53.2929
-52.9631
-52.6517
-52.3512
-52.079
-51.8174
-51.5636
-51.3266
-51.1022
-50.8857
-50.6718
-50.4725
-50.2713
-50.0776
-49.8885
-49.7029
-49.524
-49.3514
-49.1861
-54.0367
-53.6174
-53.2451
-52.9019
-52.5727
-52.2415
-51.9346
-51.6548
-51.3987
-51.1543
-50.9248
-50.7012
-50.4851
-50.2749
-50.0716
-49.8713
-49.6783
-49.4918
-49.3124
-49.142
-48.9803
-54.5483
-54.0341
-53.6399
-53.2323
-52.8452
-52.465
-52.1063
-51.7936
-51.5083
-51.2358
-50.9794
-50.7365
-50.5044
-50.276
-50.0602
-49.8507
-49.6482
-49.4532
-49.2664
-49.0894
-48.9217
-48.7639
-47.2256
-47.3517
-47.4056
-47.4381
-47.4914
-47.5246
-47.5237
-47.5905
-47.677
-47.6953
-47.6149
-47.6891
-47.8501
-47.8923
-47.9666
-47.8126
-47.8868
-47.9917
-48.0801
-48.1263
-48.2534
-47.9725
-48.014
-48.1935
-48.3048
-48.4427
-48.5094
-48.5705
-48.2737
-48.3423
-48.5101
-48.5461
-48.6725
-48.7783
-48.7419
-48.9329
-48.5533
-48.7375
-48.8082
-48.8837
-48.9722
-49.0656
-49.1179
-49.1303
-49.2273
-48.9345
-49.0492
-49.2308
-49.2676
-49.3775
-49.4709
-49.4695
-49.5002
-49.5623
-49.479
-49.3552
-49.5277
-49.6237
-49.7198
-49.704
-49.7827
-49.8324
-49.7885
-49.8093
-49.7799
-49.6649
-49.9764
-50.1623
-50.2566
-50.3426
-50.3581
-50.308
-50.218
-50.0199
-50.1174
-50.1726
-50.0644
-49.8492
-50.5328
-50.7434
-50.8188
-50.753
-50.7408
-50.7242
-50.7386
-50.5188
-50.4187
-50.2594
-50.2167
-50.1442
-49.922
-51.4059
-51.4512
-51.5006
-51.4276
-51.3612
-51.1784
-50.9019
-50.7775
-50.872
-50.8101
-50.635
-50.5651
-50.4421
-50.3198
-52.1971
-52.2256
-51.9315
-51.7604
-51.7865
-51.6418
-51.4242
-51.1934
-51.1065
-51.0238
-50.9178
-50.7286
-50.5141
-50.3741
-50.2487
-52.695
-52.3842
-52.2165
-52.1026
-51.9221
-51.7448
-51.5778
-51.427
-51.3082
-51.1376
-50.961
-50.7725
-50.5751
-50.3955
-50.2357
-50.0636
-53.0097
-52.6446
-52.4246
-52.3118
-52.0972
-51.9094
-51.7074
-51.5034
-51.3248
-51.1417
-50.9469
-50.7462
-50.5471
-50.365
-50.192
-50.0143
-49.8351
-53.0801
-52.7531
-52.5538
-52.3311
-52.1241
-51.9269
-51.7174
-51.5092
-51.308
-51.1087
-50.9094
-50.706
-50.5122
-50.3231
-50.1454
-49.9696
-49.795
-49.6211
-53.2273
-52.9266
-52.6452
-52.3913
-52.1438
-51.9323
-51.715
-51.494
-51.2834
-51.0756
-50.871
-50.6733
-50.4803
-50.2942
-50.1134
-49.9354
-49.7574
-49.586
-49.4189
-53.3688
-53.0608
-52.774
-52.4954
-52.2416
-51.9975
-51.7466
-51.5098
-51.2925
-51.0774
-50.87
-50.6634
-50.4696
-50.2774
-50.0919
-49.9088
-49.729
-49.5543
-49.3851
-49.2225
-53.6692
-53.3107
-52.9776
-52.6673
-52.3639
-52.0925
-51.831
-51.5787
-51.3395
-51.1117
-50.8935
-50.6791
-50.4788
-50.2767
-50.0826
-49.8925
-49.7064
-49.5268
-49.3535
-49.1875
-49.0296
-54.0504
-53.6285
-53.2527
-52.9078
-52.5816
-52.251
-51.9444
-51.6635
-51.408
-51.1635
-50.9337
-50.7083
-50.492
-50.2809
-50.0766
-49.8753
-49.6813
-49.4941
-49.3141
-49.1432
-48.9809
-48.8269
-54.5553
-54.0431
-53.6488
-53.2439
-52.8533
-52.4731
-52.117
-51.7999
-51.513
-51.2417
-50.9829
-50.7412
-50.5077
-50.2789
-50.0626
-49.8526
-49.6493
-49.4541
-49.267
-49.0896
-48.9218
-48.7638
-48.614
-47.2005
-47.2803
-47.3384
-47.3805
-47.3964
-47.4243
-47.4373
-47.5223
-47.5317
-47.6045
-47.528
-47.6085
-47.6937
-47.7447
-47.8586
-47.6301
-47.7552
-47.8312
-47.8552
-47.9623
-48.0393
-47.8664
-47.9579
-48.0038
-48.1012
-48.1326
-48.2674
-48.3264
-47.9778
-48.0853
-48.2281
-48.2299
-48.3913
-48.5138
-48.5608
-48.6492
-48.2693
-48.3875
-48.5409
-48.6055
-48.6641
-48.7433
-48.8501
-48.7979
-48.9323
-48.5605
-48.6959
-48.835
-48.9186
-48.9116
-49.0479
-49.1126
-49.1948
-49.1258
-49.1603
-48.9198
-49.0579
-49.2091
-49.3075
-49.348
-49.3917
-49.4338
-49.4523
-49.5524
-49.498
-49.5374
-49.368
-49.4303
-49.5083
-49.7332
-49.7778
-49.861
-49.8161
-49.7918
-49.8383
-49.8461
-49.7051
-49.7032
-49.9364
-50.14
-50.2022
-50.238
-50.3511
-50.3086
-50.2393
-50.0685
-50.2109
-50.3309
-50.2299
-50.0466
-49.8447
-50.554
-50.7221
-50.7184
-50.775
-50.7624
-50.8218
-50.7548
-50.6855
-50.6572
-50.5928
-50.5238
-50.5466
-50.2118
-50.1959
-51.3681
-51.296
-51.4873
-51.4844
-51.4299
-51.2835
-51.1088
-50.9678
-51.0498
-50.9926
-50.8316
-50.7444
-50.6082
-50.4685
-50.3396
-52.1407
-52.1719
-51.9892
-51.883
-51.9061
-51.7494
-51.5477
-51.3421
-51.2418
-51.1683
-51.0567
-50.8537
-50.6262
-50.4752
-50.3303
-50.165
-52.6451
-52.2637
-52.1622
-52.2318
-52.0009
-51.8094
-51.681
-51.5268
-51.3926
-51.2169
-51.0397
-50.8406
-50.6311
-50.4418
-50.2706
-50.0954
-49.9149
-52.9904
-52.6193
-52.4433
-52.3743
-52.1537
-51.9631
-51.7641
-51.56
-51.3797
-51.1869
-50.9829
-50.7772
-50.5737
-50.3881
-50.2075
-50.0283
-49.8457
-49.6677
-53.0897
-52.7757
-52.5742
-52.3504
-52.1421
-51.9601
-51.7485
-51.5383
-51.3326
-51.1275
-50.9273
-50.7211
-50.5244
-50.3326
-50.1536
-49.975
-49.7996
-49.6245
-49.4562
-53.243
-52.9375
-52.6647
-52.4036
-52.1565
-51.946
-51.7282
-51.5074
-51.2946
-51.0875
-50.8791
-50.6806
-50.4862
-50.2999
-50.1188
-49.9393
-49.7606
-49.5887
-49.4207
-49.2595
-53.3865
-53.0686
-52.7852
-52.5034
-52.2507
-52.0079
-51.7557
-51.5168
-51.3011
-51.0859
-50.8766
-50.6711
-50.4757
-50.2827
-50.0974
-49.9129
-49.7325
-49.5567
-49.3869
-49.2236
-49.067
-53.6901
-53.3305
-52.989
-52.6841
-52.3789
-52.1056
-51.8451
-51.5925
-51.3511
-51.12
-50.9013
-50.6871
-50.4839
-50.2825
-50.0881
-49.8962
-49.7096
-49.5294
-49.3553
-49.1887
-49.0299
-48.8771
-54.0631
-53.6409
-53.2638
-52.9143
-52.5929
-52.2627
-51.9555
-51.6734
-51.4182
-51.1732
-50.9416
-50.716
-50.4989
-50.2864
-50.081
-49.879
-49.6839
-49.4961
-49.3156
-49.1441
-48.9811
-48.8267
-48.6799
-54.5599
-54.0492
-53.6581
-53.2528
-52.8651
-52.4832
-52.1284
-51.8059
-51.5171
-51.2466
-50.9873
-50.7459
-50.5102
-50.2819
-50.0649
-49.8544
-49.6506
-49.4549
-49.2675
-49.0897
-48.9217
-48.7635
-48.6138
-48.4719
-47.043
-47.1374
-47.269
-47.2795
-47.3673
-47.3264
-47.3911
-47.4313
-47.4658
-47.4779
-47.4955
-47.5465
-47.5777
-47.566
-47.6269
-47.5941
-47.6583
-47.7261
-47.7543
-47.7679
-47.8145
-47.6612
-47.8034
-47.8505
-47.9072
-47.9374
-48.0413
-48.0893
-47.8685
-47.9449
-48.065
-48.1092
-48.1944
-48.2202
-48.3159
-48.3459
-47.993
-48.0881
-48.2505
-48.288
-48.3747
-48.4877
-48.555
-48.6014
-48.6524
-48.2482
-48.3103
-48.4435
-48.5786
-48.6365
-48.7304
-48.8525
-48.9031
-48.8922
-48.9251
-48.6152
-48.7142
-48.7846
-48.9385
-49.0751
-49.0521
-49.0626
-49.1195
-49.236
-49.2296
-49.2722
-48.8705
-49.0362
-49.1541
-49.2232
-49.3437
-49.3986
-49.4377
-49.4524
-49.5008
-49.6609
-49.6009
-49.5087
-49.3946
-49.4924
-49.5207
-49.7155
-49.7719
-49.8429
-49.7996
-49.7404
-49.8331
-49.7873
-49.662
-50.0317
-50.01
-49.8752
-50.0525
-50.1647
-50.2528
-50.3063
-50.3881
-50.3874
-50.3644
-50.3821
-50.5177
-50.5356
-50.4212
-50.1946
-50.3018
-50.5119
-50.6989
-50.7292
-50.7815
-50.861
-50.8721
-50.7769
-50.8099
-50.9224
-50.9629
-51.0051
-50.8783
-50.5562
-50.4575
-50.5109
-51.3944
-51.3362
-51.45
-51.538
-51.5441
-51.4494
-51.338
-51.2237
-51.288
-51.2132
-51.0659
-50.9546
-50.7808
-50.6257
-50.4769
-50.3197
-52.075
-52.0908
-52.0143
-52.0947
-52.043
-51.8878
-51.7423
-51.5358
-51.4404
-51.3313
-51.2058
-50.9829
-50.7367
-50.5699
-50.4072
-50.2184
-50.0172
-52.6328
-52.2598
-52.2481
-52.3512
-52.13
-51.9309
-51.8018
-51.6388
-51.4879
-51.2976
-51.1158
-50.9034
-50.6801
-50.4837
-50.2999
-50.118
-49.9306
-49.7391
-53.0017
-52.6288
-52.5002
-52.4101
-52.2086
-52.0325
-51.8229
-51.6127
-51.4313
-51.2269
-51.0128
-50.8013
-50.5924
-50.4047
-50.2232
-50.0368
-49.8524
-49.6716
-49.499
-53.1003
-52.8015
-52.5982
-52.3747
-52.1585
-51.9827
-51.7832
-51.561
-51.3558
-51.1441
-50.9397
-50.7322
-50.5321
-50.339
-50.1586
-49.9776
-49.8019
-49.6259
-49.4568
-49.293
-53.2546
-52.9516
-52.6751
-52.4124
-52.1702
-51.957
-51.7367
-51.5146
-51.3036
-51.0931
-50.8851
-50.6859
-50.4897
-50.304
-50.1226
-49.9417
-49.7628
-49.5903
-49.4217
-49.2599
-49.1038
-53.389
-53.0744
-52.7914
-52.5184
-52.2561
-52.0161
-51.7643
-51.5272
-51.3082
-51.093
-50.8834
-50.6772
-50.4809
-50.2875
-50.1017
-49.9162
-49.7353
-49.559
-49.3882
-49.2243
-49.0671
-48.9174
-53.7097
-53.3466
-53.0171
-52.7019
-52.3938
-52.1202
-51.86
-51.6058
-51.3612
-51.129
-50.9089
-50.6947
-50.4895
-50.2881
-50.0934
-49.9001
-49.7126
-49.5318
-49.3568
-49.1895
-49.0299
-48.8767
-48.7318
-54.0732
-53.6509
-53.2759
-52.9253
-52.6076
-52.276
-51.9663
-51.6841
-51.4295
-51.1835
-50.9505
-50.7236
-50.5054
-50.2916
-50.0852
-49.8825
-49.6865
-49.4979
-49.3168
-49.1447
-48.9811
-48.8262
-48.6791
-48.5392
-54.5654
-54.0624
-53.6709
-53.2628
-52.8792
-52.4895
-52.1383
-51.8113
-51.521
-51.2516
-50.9929
-50.7504
-50.5123
-50.2847
-50.0671
-49.856
-49.6517
-49.4556
-49.2678
-49.0897
-48.9215
-48.7632
-48.6135
-48.4714
-48.337
-47.0243
-47.1028
-47.1495
-47.2194
-47.2645
-47.2382
-47.3596
-47.3489
-47.3706
-47.415
-47.4418
-47.4232
-47.4737
-47.4839
-47.4971
-47.561
-47.5777
-47.6125
-47.6504
-47.6583
-47.6125
-47.6749
-47.7382
-47.7807
-47.8178
-47.8273
-47.9187
-47.6707
-47.7925
-47.8379
-47.9558
-48.006
-48.0128
-48.0978
-48.111
-47.7916
-47.9408
-48.0182
-48.0636
-48.191
-48.2399
-48.2947
-48.3871
-48.3923
-47.9939
-48.085
-48.2509
-48.3145
-48.341
-48.4758
-48.5749
-48.6162
-48.6498
-48.6722
-48.2073
-48.2873
-48.5294
-48.5686
-48.6578
-48.7207
-48.7683
-48.8651
-48.8957
-48.9453
-48.9642
-48.5603
-48.6539
-48.8362
-48.9068
-49.0138
-49.0603
-49.0463
-49.1007
-49.1891
-49.1754
-49.3006
-49.2963
-48.8725
-48.9571
-49.158
-49.2511
-49.3278
-49.4321
-49.4274
-49.5305
-49.5154
-49.706
-49.7263
-49.6852
-49.6287
-49.3639
-49.4823
-49.6382
-49.6529
-49.8069
-49.8162
-49.8063
-49.9186
-49.9675
-49.9786
-50.1128
-50.2152
-50.2548
-50.3704
-49.8386
-50.0995
-50.1489
-50.2668
-50.3654
-50.3666
-50.4157
-50.5115
-50.7341
-51.0406
-50.7964
-50.8329
-50.7282
-50.776
-50.8161
-50.4984
-50.6496
-50.7789
-50.7909
-50.9493
-50.9841
-51.0289
-50.968
-51.1624
-51.2869
-51.4354
-51.3075
-50.8881
-50.7458
-50.7698
-50.601
-51.3079
-51.3271
-51.5121
-51.6124
-51.6349
-51.5933
-51.5638
-51.5162
-51.6024
-51.4594
-51.3156
-51.1844
-50.9511
-50.771
-50.5977
-50.4145
-50.2153
-52.0259
-52.1124
-52.0783
-52.3084
-52.2508
-52.0834
-51.96
-51.7549
-51.6886
-51.4936
-51.358
-51.1039
-50.8364
-50.659
-50.4759
-50.2584
-50.04
-49.8343
-52.7414
-52.3717
-52.3727
-52.4471
-52.2418
-52.0471
-51.9224
-51.7579
-51.5782
-51.3768
-51.185
-50.9577
-50.7186
-50.5126
-50.3159
-50.1298
-49.9387
-49.7417
-49.556
-53.0273
-52.6709
-52.5806
-52.4594
-52.2462
-52.0792
-51.8758
-51.6577
-51.4768
-51.2598
-51.0342
-50.8133
-50.6011
-50.4154
-50.2292
-50.0401
-49.8546
-49.6716
-49.4984
-49.3297
-53.1076
-52.8237
-52.6149
-52.3933
-52.1794
-52.002
-51.7992
-51.5784
-51.3686
-51.1524
-50.9464
-50.737
-50.5347
-50.342
-50.1601
-49.9787
-49.8016
-49.6254
-49.456
-49.2918
-49.1359
-53.2671
-52.9665
-52.6967
-52.4206
-52.1774
-51.9648
-51.7442
-51.5189
-51.3086
-51.0975
-50.8868
-50.688
-50.4911
-50.3068
-50.1241
-49.9435
-49.764
-49.5912
-49.4221
-49.2598
-49.1032
-48.9546
-53.4566
-53.0859
-52.7942
-52.523
-52.2667
-52.0245
-51.7717
-51.534
-51.3165
-51.0972
-50.8904
-50.6819
-50.4856
-50.2919
-50.1057
-49.9188
-49.7375
-49.5608
-49.3893
-49.2247
-49.0669
-48.9166
-48.7735
-53.7159
-53.3621
-53.037
-52.7144
-52.4087
-52.1341
-51.8731
-51.6176
-51.369
-51.1385
-50.917
-50.7013
-50.4962
-50.2934
-50.098
-49.904
-49.7156
-49.5339
-49.358
-49.19
-49.0299
-48.8761
-48.7307
-48.5937
-54.0798
-53.6641
-53.2934
-52.9412
-52.6244
-52.2892
-51.9793
-51.6967
-51.4417
-51.194
-50.9591
-50.7313
-50.5118
-50.2967
-50.0894
-49.8858
-49.6889
-49.4996
-49.3178
-49.1451
-48.9808
-48.8254
-48.6779
-48.5377
-48.4038
-54.5786
-54.0778
-53.6873
-53.28
-52.8867
-52.4942
-52.148
-51.8158
-51.5252
-51.2568
-50.9988
-50.7544
-50.5151
-50.2875
-50.0691
-49.8575
-49.6526
-49.4561
-49.2679
-49.0895
-48.9212
-48.7627
-48.6131
-48.4707
-48.3364
-48.1817
-47.0548
-47.1354
-47.1096
-47.2464
-47.2406
-47.2294
-47.3455
-47.2394
-47.3411
-47.347
-47.3751
-47.3944
-47.3505
-47.4793
-47.4651
-47.4866
-47.5527
-47.5894
-47.5284
-47.5395
-47.5858