/*--------------------------------*- C++ -*----------------------------------*\
  =========                 |
  \\      /  F ield         | OpenFOAM: The Open Source CFD Toolbox
   \\    /   O peration     | Website:  https://openfoam.org
    \\  /    A nd           | Version:  7
     \\/     M anipulation  |
\*---------------------------------------------------------------------------*/
FoamFile
{
    version     2.0;
    format      ascii;
    class       surfaceScalarField;
    location    "1.5";
    object      phi;
}
// * * * * * * * * * * * * * * * * * * * * * * * * * * * * * * * * * * * * * //

dimensions      [0 3 -1 0 0 0 0];

internalField   nonuniform List<scalar> 
54451
(
-0.000151422
0.000923185
8.57146e-06
-0.000215896
0.0015124
4.90167e-05
-0.000143312
0.0010729
8.36569e-06
-0.000128939
0.000909218
8.97203e-06
-0.00020815
0.00187867
0.000157929
-0.000206243
0.00158654
5.19492e-05
-0.000189979
0.00128044
3.81188e-05
-0.000135936
0.00121357
8.87684e-06
-0.00012385
0.00103325
8.18168e-06
-0.000102723
0.0010253
6.97611e-06
-0.000101379
0.00271946
0.000221461
-0.0001976
0.00191041
0.000139791
-0.000174184
0.0018328
0.000128032
-0.000193839
0.00165536
5.26717e-05
-0.000174723
0.00134361
3.96535e-05
-0.000152464
0.00127907
3.2833e-05
-0.000127935
0.00134636
9.48601e-06
-0.000117923
0.00115133
8.72558e-06
-9.67695e-05
0.00112248
7.77467e-06
-7.79731e-05
0.001169
6.79439e-06
0.000165479
0.00265767
0.000288497
-6.5312e-05
0.00261279
0.000214868
-0.000103494
0.00221287
0.000194277
-0.00018294
0.00192285
0.000125931
-0.000154083
0.00182891
0.000123044
-0.000125986
0.00164825
9.96324e-05
-0.000183464
0.00172119
5.21287e-05
-0.000165182
0.00140406
3.94836e-05
-0.000133809
0.00132327
3.2491e-05
-0.000106188
0.00141796
3.41687e-05
-0.000119214
0.00147071
9.73934e-06
-0.000110093
0.00126203
8.87072e-06
-9.28542e-05
0.00121597
8.08734e-06
-6.96338e-05
0.0012391
7.31057e-06
-5.9287e-05
0.00132654
7.98058e-06
0.000489122
0.00132185
0.000286717
0.000182122
0.00242983
0.000289589
0.000102269
0.00204375
0.000258411
-3.66468e-05
0.00248211
0.000203653
-6.83352e-05
0.00215147
0.000190519
-5.76313e-05
0.00187488
0.000159771
-0.000177499
0.00193047
0.000117485
-0.000139667
0.00181236
0.000116959
-0.000100827
0.00163862
9.96954e-05
-8.46611e-05
0.00152166
8.0212e-05
-0.00015575
0.00176154
5.51085e-05
-0.000149229
0.00145499
4.03351e-05
-0.000126841
0.00136417
3.25675e-05
-9.50554e-05
0.00144338
3.24933e-05
-7.74128e-05
0.00150186
3.49694e-05
-0.000112031
0.00158725
9.34688e-06
-0.000106041
0.00136828
9.53836e-06
-8.49142e-05
0.00130184
7.91016e-06
-6.43292e-05
0.0013031
8.42289e-06
-5.61583e-05
0.00138229
7.7192e-06
-5.02338e-05
0.00135997
9.11459e-06
0.000650621
0.00173371
0.000333918
0.000445683
0.00109517
0.000230874
0.00037807
0.00122417
0.000257015
0.000192538
0.00221354
0.000288392
0.000137361
0.00187365
0.000253995
9.24549e-05
0.00152067
0.000229455
-2.89413e-05
0.0023358
0.00019674
-4.09051e-05
0.00207003
0.000186332
-3.06834e-05
0.00183761
0.000157646
-3.40959e-06
0.00169365
0.000128239
-0.000157099
0.00193651
0.000112106
-0.000126905
0.00179627
0.000111261
-9.10381e-05
0.00161938
0.000100389
-7.23584e-05
0.00151656
8.20985e-05
-5.76526e-05
0.00150238
7.85917e-05
-0.000147285
0.00180685
4.74167e-05
-0.000142067
0.00150158
4.4545e-05
-0.00011603
0.00140201
3.36169e-05
-8.40241e-05
0.00146217
3.3467e-05
-7.24268e-05
0.00151607
3.45525e-05
-6.56292e-05
0.00146796
3.63423e-05
-0.000104477
0.00169524
1.01755e-05
-9.5024e-05
0.0014637
8.94355e-06
-7.75929e-05
0.00138048
8.49207e-06
-5.98783e-05
0.00136307
7.81114e-06
-4.87022e-05
0.00143108
8.3357e-06
-4.59033e-05
0.00140494
8.65075e-06
-3.76289e-05
0.00129616
9.3393e-06
0.000881684
0.00200585
0.00044628
0.000580584
0.00155901
0.000319283
0.000621245
0.000681443
0.000377359
0.000404831
0.000911457
0.000193286
0.000358842
0.00102847
0.000205085
0.000323411
0.00131474
0.000209304
0.000190305
0.00201607
0.000274501
0.000161014
0.00172093
0.00023919
9.73202e-05
0.00142595
0.000220706
0.000109982
0.00133082
0.000199393
-2.24416e-05
0.00219754
0.000184971
-2.74298e-05
0.00198368
0.000183606
-3.65015e-06
0.00178001
0.000156539
1.05919e-05
0.00164042
0.000127927
7.74463e-06
0.00154976
0.000117438
-0.000130805
0.00192236
0.000110221
-0.000111396
0.00177127
0.000106428
-8.92426e-05
0.00160724
9.66173e-05
-6.47857e-05
0.00151309
8.46193e-05
-5.9383e-05
0.00149253
7.89045e-05
-5.53441e-05
0.00143211
7.82115e-05
-0.000134034
0.00183634
5.42592e-05
-0.000120455
0.00153654
3.7883e-05
-0.000104347
0.0014373
3.60104e-05
-7.714e-05
0.00148052
3.25246e-05
-6.19611e-05
0.0015278
3.49995e-05
-5.58923e-05
0.00147605
3.64561e-05
-4.99647e-05
0.00132491
3.68297e-05
-9.67179e-05
0.00179573
1.10267e-05
-9.01217e-05
0.0015545
9.50086e-06
-6.95273e-05
0.00145017
8.7831e-06
-5.33294e-05
0.00141696
7.93923e-06
-4.27992e-05
0.00147328
8.40982e-06
-4.06716e-05
0.00144533
8.62003e-06
-3.34749e-05
0.00132952
8.76295e-06
-2.5795e-05
0.00119585
9.15746e-06
0.00104679
0.00318759
0.00093679
0.000773617
0.00193887
0.000467448
0.000894699
0.00140136
0.000228025
0.000513659
0.00139007
0.000316957
0.000507417
0.000529317
0.000322834
0.000541671
0.000345784
0.000330177
0.000374204
0.000749193
0.000173787
0.000320257
0.000889172
0.000173346
0.000284504
0.0011631
0.000169541
0.000294888
0.00121804
0.000171324
0.000202124
0.00182593
0.000237938
0.000159481
0.00159128
0.000217244
0.0001182
0.00134762
0.000195672
0.000130794
0.00124693
0.000184402
0.000126386
0.0012347
0.000174102
2.6868e-05
0.00202721
0.000181295
8.08908e-06
0.00187173
0.000177435
7.44732e-06
0.00171001
0.000156915
2.15449e-05
0.0015816
0.000129032
1.58248e-05
0.00148613
0.000116351
-6.76507e-06
0.00138294
0.000113697
-0.00012116
0.00190498
9.8397e-05
-9.39507e-05
0.00174971
0.000105276
-8.13812e-05
0.00159682
9.38842e-05
-6.37157e-05
0.00151221
8.40752e-05
-4.94293e-05
0.00148643
7.81911e-05
-3.92559e-05
0.00141834
7.60387e-05
-3.95896e-05
0.00125836
7.22112e-05
-0.000130511
0.00186839
5.34294e-05
-0.000119583
0.00157361
4.66526e-05
-9.30415e-05
0.00146173
3.69619e-05
-6.72149e-05
0.00149607
3.43488e-05
-4.84026e-05
0.00153203
3.38961e-05
-4.29812e-05
0.00147695
3.64053e-05
-4.29152e-05
0.00133385
3.69544e-05
-3.57391e-05
0.00117403
3.56522e-05
-8.80445e-05
0.0018865
1.04546e-05
-8.15419e-05
0.00163748
9.58425e-06
-6.28353e-05
0.00151385
8.66151e-06
-4.57247e-05
0.00146318
8.28152e-06
-3.67484e-05
0.00150966
8.30831e-06
-3.39306e-05
0.00147908
8.59008e-06
-2.85042e-05
0.00135813
8.51757e-06
-2.23657e-05
0.00121831
8.67555e-06
-1.35286e-05
0.00108976
9.48832e-06
0.000908007
0.00518382
0.00190336
0.000769056
0.00324699
0.00102268
0.00103755
0.0024011
0.000729577
0.000676846
0.00191128
0.000493022
0.000753611
0.00139971
0.0002229
0.000644452
0.000983277
0.000144492
0.000473145
0.00122672
0.000307044
0.000406651
0.000450464
0.000309415
0.000442152
0.00023214
0.000278829
0.00046055
0.00053706
0.000278103
0.000344719
0.000618953
0.000165461
0.000289115
0.00077758
0.000155743
0.000273013
0.00103732
0.000144313
0.000280952
0.00110505
0.000132366
0.00026422
0.00102827
0.000141652
0.000214764
0.00166264
0.000202821
0.000183529
0.00146731
0.000186466
0.000122091
0.0012771
0.000173125
0.000145653
0.00116271
0.000155784
0.000146195
0.00113896
0.000149776
0.000116389
0.00112196
0.000142247
2.66104e-05
0.00186317
0.000183012
1.43648e-05
0.00176685
0.000177868
2.95664e-05
0.00162049
0.000156011
2.85318e-05
0.00151467
0.000131589
2.54972e-05
0.00142211
0.000118125
2.02228e-05
0.00132862
0.000111199
4.46527e-06
0.00121951
0.000109843
-0.000113165
0.00188508
0.000101613
-9.92331e-05
0.00173041
9.73555e-05
-8.29405e-05
0.00159877
9.32206e-05
-5.82101e-05
0.00151356
8.35293e-05
-3.10288e-05
0.00147593
7.71936e-05
-2.51128e-05
0.0014049
7.37662e-05
-3.36116e-05
0.00125438
7.07081e-05
-3.28799e-05
0.00109219
6.53842e-05
-0.000106038
0.00188423
5.18326e-05
-0.000107945
0.00160713
4.63176e-05
-8.44895e-05
0.00149261
3.74266e-05
-5.64725e-05
0.00151014
3.3644e-05
-3.50104e-05
0.00152972
3.4916e-05
-3.44703e-05
0.00147566
3.57325e-05
-3.36012e-05
0.00133864
3.67185e-05
-2.95585e-05
0.00118278
3.53996e-05
-2.15543e-05
0.00103553
3.35009e-05
-7.85076e-05
0.00196963
9.81149e-06
-7.26431e-05
0.00171125
9.33229e-06
-5.56453e-05
0.00157081
8.26307e-06
-3.65478e-05
0.00149972
8.67323e-06
-3.40159e-05
0.00154373
8.22673e-06
-2.63418e-05
0.00150515
8.58021e-06
-2.49825e-05
0.00138356
8.13825e-06
-1.85069e-05
0.00123674
8.5929e-06
-1.11322e-05
0.00110031
9.25993e-06
-4.20551e-06
0.000951872
9.83676e-06
0.000526961
0.00688654
0.00280425
0.000403417
0.00550226
0.0021248
0.000924663
0.00437708
0.00180517
0.000434211
0.00354003
0.00109761
0.000685363
0.00267456
0.000817477
0.000705069
0.00208159
0.000614984
0.00057482
0.00197651
0.00049725
0.000611206
0.00145484
0.000233336
0.000517027
0.000989142
0.000142161
0.0005484
0.000163885
0.000159948
0.00040677
0.00111345
0.000297258
0.000341868
0.000406752
0.000298003
0.000388714
0.000162422
0.000263432
0.000400312
0.000457684
0.000238845
0.00035355
0.000669302
0.000231188
0.000284172
0.000546154
0.000171897
0.00027242
0.000696716
0.000157435
0.000248486
0.000926867
0.0001398
0.000267898
0.0010094
0.000117723
0.000242633
0.000952602
0.000111597
0.000213579
0.000915293
0.000130595
0.000197417
0.00150769
0.00017451
0.000154194
0.00136192
0.000168382
0.000136707
0.00120634
0.000150087
0.000143913
0.00108435
0.000136101
0.000147784
0.00105094
0.000121509
0.000134712
0.00104277
0.000114476
9.46081e-05
0.000966301
0.000108749
3.35601e-05
0.00170109
0.000182367
2.38515e-05
0.00165281
0.000173966
1.28994e-05
0.00154658
0.00015594
3.23617e-05
0.00145103
0.000129088
3.82241e-05
0.00136879
0.000115652
2.79061e-05
0.00128516
0.000108568
2.09504e-05
0.00116962
0.000106529
2.36304e-05
0.00105336
0.000100689
-9.1777e-05
0.00186509
9.20041e-05
-9.53049e-05
0.00172376
9.56147e-05
-6.62087e-05
0.00158888
8.89625e-05
-4.64222e-05
0.00151407
8.26539e-05
-1.83739e-05
0.00146578
7.70458e-05
-5.10589e-06
0.00138082
7.1904e-05
-1.8403e-05
0.00124523
6.77183e-05
-3.0049e-05
0.00109939
6.39964e-05
-2.03454e-05
0.00097089
5.74285e-05
-8.69028e-05
0.00188907
5.16293e-05
-8.39238e-05
0.00162417
4.60695e-05
-6.54593e-05
0.00150989
3.88474e-05
-3.68364e-05
0.00151312
3.47293e-05
-3.09805e-05
0.00152585
3.44818e-05
-2.79237e-05
0.00147602
3.61376e-05
-2.63347e-05
0.0013395
3.62216e-05
-1.95634e-05
0.00118553
3.50253e-05
-1.10499e-05
0.00103776
3.3081e-05
-4.12223e-06
0.000903539
3.12882e-05
-7.38365e-05
0.00204565
9.55522e-06
-6.59134e-05
0.00177793
9.0408e-06
-5.00287e-05
0.00162196
8.20934e-06
-3.50396e-05
0.00153548
7.54058e-06
-2.39125e-05
0.00156782
8.49219e-06
-2.11335e-05
0.001526
8.50913e-06
-2.04176e-05
0.00140409
8.4654e-06
-1.43302e-05
0.00125077
8.44198e-06
-6.42364e-06
0.00110606
9.26539e-06
-6.34385e-07
0.000951942
9.82425e-06
4.4587e-06
0.00081558
1.02649e-05
0.000410897
0.00711725
0.00332843
0.000202362
0.00698675
0.00301937
0.000576976
0.00652734
0.00277711
0.000192414
0.00567904
0.00226641
0.000244367
0.00490776
0.00203512
0.000553924
0.00415945
0.00177657
0.000333995
0.00386071
0.00113924
0.000470317
0.0030033
0.000909755
0.000444678
0.00229856
0.000672852
0.000654977
0.00123937
0.00056202
0.00055222
0.00202751
0.000504352
0.000497311
0.00157725
0.000219396
0.000380714
0.00107687
0.000153603
0.000391267
0.000154707
0.000160384
0.000308705
-9.08933e-05
0.000173529
0.000337357
0.00102396
0.000298165
0.000301796
0.000389035
0.000285599
0.000320129
0.000139994
0.000248788
0.000344368
0.000437094
0.000207552
0.000274454
0.000675277
0.000201048
0.00024511
0.000728897
0.000191548
0.00021935
0.000506476
0.000184754
0.000224372
0.000625941
0.000172493
0.00022043
0.000846452
0.000154127
0.000239382
0.00092709
0.00012664
0.000234233
0.000879987
0.00010389
0.000207605
0.000846639
0.000107359
0.000126749
0.000829912
0.000136928
0.000171643
0.00137221
0.000159286
0.000155241
0.0012561
0.000148943
0.000128784
0.00112036
0.000138481
0.000140049
0.00100491
0.000121841
0.000143987
0.000971045
0.000110238
0.000137738
0.000957059
9.7387e-05
0.000111795
0.000900081
8.98515e-05
9.20529e-05
0.000818188
8.33164e-05
1.95594e-05
0.00158107
0.000177317
2.08115e-05
0.00154834
0.000170719
4.23412e-05
0.00146545
0.000146544
3.86362e-05
0.00139388
0.000128032
4.10973e-05
0.00132777
0.000110644
5.22895e-05
0.00124251
0.000100901
3.42919e-05
0.00112546
0.000100036
2.78572e-05
0.00100604
9.59328e-05
3.98591e-05
0.000907896
8.63512e-05
-7.62698e-05
0.0018498
9.19282e-05
-7.36829e-05
0.00171368
9.18444e-05
-6.3228e-05
0.00159441
8.78555e-05
-2.66425e-05
0.00151223
8.06087e-05
-1.30942e-05
0.00145461
7.59405e-05
-8.40664e-06
0.00136744
7.09172e-05
-1.17657e-05
0.00123736
6.52077e-05
-1.22954e-05
0.00109954
6.02955e-05
-4.20031e-06
0.000972717
5.53199e-05
8.01615e-06
0.0008152
5.01794e-05
-8.27527e-05
0.00189365
5.10848e-05
-7.54562e-05
0.00163939
4.59536e-05
-6.0609e-05
0.00152688
3.96659e-05
-3.29821e-05
0.00151449
3.5423e-05
-1.78341e-05
0.00151933
3.51659e-05
-1.87803e-05
0.00147201
3.61395e-05
-1.75607e-05
0.00133659
3.61885e-05
-6.76798e-06
0.00118022
3.39703e-05
-2.07121e-06
0.00103578
3.26588e-05
2.44673e-06
0.000902742
3.0797e-05
1.15298e-05
0.000769002
3.01977e-05
-6.65443e-05
0.0021144
9.69002e-06
-5.71138e-05
0.00183552
9.07981e-06
-4.15675e-05
0.00166447
8.10564e-06
-2.98353e-05
0.00156556
7.96495e-06
-2.1318e-05
0.00158916
7.52142e-06
-1.66697e-05
0.00154258
8.58128e-06
-1.48674e-05
0.00141872
8.74899e-06
-8.01625e-06
0.00125854
8.70978e-06
-3.11842e-06
0.00110844
9.18653e-06
2.99502e-06
0.000948399
9.81256e-06
7.98232e-06
0.000807153
1.02685e-05
9.91434e-06
0.000660261
1.05833e-05
0.000502755
0.00631412
0.00358163
0.000356802
0.00687912
0.00335576
0.000467621
0.00705226
0.00345327
0.000319886
0.00676183
0.00304821
0.000296641
0.00648925
0.00300519
0.000318709
0.00634303
0.00278774
0.000113907
0.00589804
0.00243344
8.67091e-05
0.00529421
0.00226357
6.33931e-05
0.00454066
0.00203519
0.000507226
0.0032675
0.00183133
0.000346316
0.00417149
0.00117321
0.00036784
0.00328153
0.000990479
0.000298654
0.00254412
0.000746257
0.000532472
0.00129669
0.000474329
0.000280553
0.000939496
0.000490009
0.000477798
0.00212421
0.000523971
0.000435557
0.00171653
0.000231311
0.000246676
0.00121195
0.00015777
0.000283051
0.000202527
0.000167101
0.000129092
3.93898e-05
0.000175462
0.000165846
-2.801e-05
0.000169553
0.000242091
0.000982597
0.00030779
0.000248709
0.000377808
0.000285056
0.000224947
0.000184801
0.000236274
0.000295417
0.000445123
0.000184725
0.00024042
0.000703421
0.000173221
0.000194434
0.000770002
0.000173114
0.00011837
0.000749631
0.00017335
0.000159332
0.000492365
0.000196014
0.00017299
0.000599754
0.000193191
0.000184094
0.000794356
0.000169279
0.000216399
0.000861364
0.000143503
0.000207627
0.000826067
0.00011692
0.000187154
0.000799283
0.00010183
0.00014202
0.000791721
0.000115324
0.000120691
0.000737193
0.000121662
0.000151835
0.00124356
0.000154446
0.000146893
0.00114325
0.000146053
0.000131391
0.00104671
0.000133542
0.00013488
0.000928735
0.000118409
0.000130451
0.000897396
0.000106137
0.000138936
0.000888046
9.2605e-05
0.000108272
0.000841775
8.17139e-05
9.89491e-05
0.000762645
7.43034e-05
0.000107204
0.000690352
6.56261e-05
1.13987e-05
0.00149278
0.000164341
1.18372e-05
0.00148846
0.000151678
2.47926e-05
0.00141035
0.000137798
4.94822e-05
0.00134821
0.00011609
4.13107e-05
0.00129462
0.000106776
3.61169e-05
0.00121296
9.56661e-05
4.34091e-05
0.00107992
9.12629e-05
4.46736e-05
0.000959999
8.91132e-05
4.74531e-05
0.000874147
7.8029e-05
6.70832e-05
0.000759712
6.34988e-05
-5.67623e-05
0.00181501
9.29596e-05
-5.27851e-05
0.00169416
8.87806e-05
-2.388e-05
0.00156396
8.55687e-05
-8.47161e-06
0.00149544
8.01347e-05
4.14066e-06
0.00143996
7.32828e-05
-3.99901e-06
0.0013604
6.81961e-05
-3.96471e-06
0.0012314
6.32818e-05
7.81047e-06
0.0010925
5.76767e-05
1.17345e-05
0.000967169
5.20383e-05
1.77083e-05
0.000807924
4.73352e-05
2.93455e-05
0.000686965
3.94995e-05
-6.51243e-05
0.00188628
5.12565e-05
-5.83972e-05
0.00164588
4.58789e-05
-4.21946e-05
0.00153506
3.84004e-05
-2.35159e-05
0.00151399
3.38456e-05
-1.0143e-05
0.00150947
3.41156e-05
-8.56134e-06
0.0014639
3.51606e-05
-5.74415e-06
0.00132865
3.49572e-05
1.92545e-06
0.00117175
3.47125e-05
5.36309e-06
0.00102935
3.19145e-05
9.91735e-06
0.00089808
3.03984e-05
1.88173e-05
0.000759201
2.97628e-05
2.44796e-05
0.000629363
2.77715e-05
-5.60244e-05
0.00217319
1.05325e-05
-5.00538e-05
0.00188636
8.91052e-06
-3.30463e-05
0.00169854
8.04991e-06
-2.03106e-05
0.00158662
7.3574e-06
-1.10849e-05
0.00159993
8.27804e-06
-1.2516e-05
0.00155412
8.50126e-06
-7.57978e-06
0.00142605
8.83258e-06
-1.41795e-06
0.00125983
8.8736e-06
1.49887e-06
0.00110659
9.0555e-06
6.89553e-06
0.000940919
9.77132e-06
1.10954e-05
0.000795606
1.02641e-05
1.21353e-05
0.000647829
1.05658e-05
1.46083e-05
0.000504847
1.03953e-05
0.000413874
0.00583096
0.00392015
0.00044517
0.00621138
0.00359828
0.000624543
0.00634908
0.00365404
0.000183516
0.00686219
0.00345872
0.000506483
0.00673435
0.00346383
0.000203131
0.00691237
0.00356965
0.000150293
0.0066294
0.00307517
5.48427e-05
0.00649167
0.00307766
0.000111342
0.00634842
0.00295185
0.000183482
0.00573161
0.00288802
-5.22533e-06
0.00633715
0.0022647
6.42993e-05
0.00567674
0.00235445
5.13371e-05
0.0048259
0.00222564
0.000258992
0.00361841
0.00195776
0.00015336
0.00355381
0.00162432
0.000267997
0.00449835
0.00125317
0.000274457
0.00356137
0.00105447
0.000186892
0.00278377
0.000810616
0.000340056
0.00152546
0.000460482
3.49984e-05
0.00107258
0.000435341
8.64999e-05
0.00108873
0.00040991
0.000316299
0.00231312
0.000538729
0.000348846
0.00190426
0.000236108
0.000144719
0.00134438
0.000179108
0.000160834
0.000305663
0.000189216
6.20556e-05
0.00019933
0.000185526
1.80293e-05
0.000148339
0.000175518
-4.25887e-05
0.000131641
0.000195628
0.000168577
0.000964325
0.000316732
0.000179581
0.000393233
0.000285774
0.000163595
0.000244364
0.000245993
0.000259456
0.000469745
0.000168596
0.000213792
0.000724404
0.000157576
0.000147695
0.000824213
0.000158469
0.00011499
0.000795645
0.000154129
0.000111129
0.000706826
0.000146538
0.000103804
0.00050876
0.000211044
0.000114124
0.000611243
0.000217294
0.000155344
0.000770987
0.000192607
0.000189791
0.000816008
0.000159724
0.000190148
0.000780126
0.000129747
0.000170012
0.000775868
0.000109258
0.000133503
0.00075521
0.00011311
0.000128993
0.000713314
0.000109159
0.000136191
0.000686944
0.000100139
0.000119836
0.00113034
0.000165954
0.00011615
0.0010465
0.000146886
0.000117662
0.000962805
0.000137086
0.000113362
0.000874418
0.00012398
0.00012059
0.000827268
0.000109257
0.000110212
0.000827281
9.28062e-05
0.000109987
0.000790029
7.77729e-05
9.93828e-05
0.000720657
6.89919e-05
0.000109411
0.000640236
6.24619e-05
0.000106529
0.000576908
5.89955e-05
1.20729e-05
0.00143138
0.000149047
3.32763e-05
0.00142934
0.000137398
7.26536e-05
0.00135235
0.000113145
6.1455e-05
0.00131187
0.000104208
5.79848e-05
0.00126333
9.35328e-05
5.14035e-05
0.00117842
8.59173e-05
4.43723e-05
0.00104807
7.91778e-05
5.65044e-05
0.000930033
7.25353e-05
5.90053e-05
0.00085096
6.50292e-05
7.06843e-05
0.00073144
5.33253e-05
7.20301e-05
0.000598307
4.48729e-05
-3.84752e-05
0.00178478
8.20986e-05
-2.83524e-05
0.0016689
8.81696e-05
-1.2517e-05
0.00154041
8.26523e-05
1.73372e-05
0.00146345
7.67133e-05
2.12291e-05
0.00141778
7.09366e-05
2.08217e-05
0.00133982
6.4483e-05
1.71188e-05
0.00121745
5.92827e-05
2.87989e-05
0.00107213
5.67751e-05
3.76368e-05
0.000941018
5.15534e-05
3.55563e-05
0.000790435
4.38884e-05
3.77181e-05
0.000681646
3.37533e-05
4.43899e-05
0.000562154
2.73426e-05
-3.48507e-05
0.00185937
5.02547e-05
-4.32244e-05
0.00164444
4.58663e-05
-2.09463e-05
0.00153097
3.78723e-05
-4.20414e-06
0.00150256
3.37234e-05
1.10859e-06
0.00149817
3.29469e-05
6.82831e-07
0.00145007
3.47487e-05
5.81674e-06
0.00131494
3.54717e-05
1.12863e-05
0.00116113
3.28717e-05
9.52534e-06
0.00102391
3.21293e-05
1.41162e-05
0.000892292
3.04817e-05
2.44892e-05
0.000747102
2.91045e-05
2.8686e-05
0.000616282
2.62937e-05
3.31413e-05
0.000509454
2.20135e-05
-4.77205e-05
0.00222413
1.0021e-05
-4.44086e-05
0.00193199
9.30755e-06
-2.719e-05
0.00172699
7.65235e-06
-1.39898e-05
0.00160175
6.91187e-06
-7.82244e-06
0.00160712
7.99244e-06
-5.40058e-06
0.00155913
8.66471e-06
-4.80068e-07
0.00142611
8.91798e-06
2.43687e-06
0.00125749
8.73624e-06
6.01355e-06
0.0011004
9.05163e-06
1.06338e-05
0.000929665
9.67561e-06
1.37945e-05
0.000781379
1.02034e-05
1.48609e-05
0.000632705
1.05268e-05
1.66035e-05
0.000488604
1.02056e-05
1.70433e-05
0.000371136
9.32603e-06
0.00052179
0.00538322
0.00399937
0.000486916
0.00572799
0.00391234
0.00061603
0.0057937
0.00394018
0.00013366
0.00617255
0.00364377
0.0004972
0.00629777
0.00365888
0.000376518
0.00634733
0.00370702
0.000163871
0.00665385
0.00341781
6.75385e-05
0.0066779
0.00350247
0.000177287
0.00676723
0.00354302
0.000319448
0.0067224
0.00361621
0.000148763
0.00642065
0.00299759
0.000175963
0.00642786
0.00302731
0.000114044
0.00633211
0.00303126
0.000115141
0.00581174
0.00301558
0.00014102
0.00522478
0.00271761
8.29463e-07
0.00666372
0.00228612
-1.99459e-05
0.00589018
0.00234567
-9.27452e-05
0.00516581
0.00229417
7.07996e-05
0.00405762
0.00205569
-8.27136e-05
0.00379063
0.00183865
-8.48335e-05
0.00356523
0.00156879
0.000226948
0.00473041
0.00136387
0.000234134
0.00380694
0.00112231
0.000142323
0.00299073
0.000849903
0.000172518
0.00185579
0.000468594
6.32184e-06
0.00122393
0.000364867
-9.88982e-05
0.00122492
0.000416079
-8.34668e-05
0.00114208
0.00035048
0.000228327
0.00253848
0.000578575
0.00026952
0.00211179
0.000241254
7.60428e-05
0.0014566
0.000211443
9.51775e-05
0.000433229
0.00021582
4.31622e-05
0.000350758
0.000208418
-6.35173e-05
0.000358061
0.000187016
-9.58839e-05
0.000312948
0.000205086
-7.12078e-05
0.000375305
0.000229431
9.26938e-05
0.000983765
0.000316168
0.000118366
0.000422855
0.000282869
0.000118294
0.000318761
0.000248427
0.000216934
0.000511183
0.000177413
0.000200108
0.000735841
0.000147199
0.000141015
0.000867507
0.00014328
9.68866e-05
0.000858486
0.000132243
0.000105296
0.000759692
0.00012496
9.47473e-05
0.00064772
0.000141091
5.46434e-05
0.000536494
0.000226758
8.51847e-05
0.000616017
0.000237235
0.000109517
0.000777485
0.000218941
0.000161593
0.000779873
0.000180511
0.000159051
0.000758113
0.000143276
0.000160557
0.00073886
0.000116409
0.00013092
0.000728712
0.000114823
0.00013327
0.00068464
0.000107897
0.000147923
0.000661957
9.56342e-05
0.000104105
0.000593677
9.881e-05
7.57417e-05
0.0010661
0.000165834
8.96957e-05
0.000994185
0.000161847
0.000102575
0.00094144
0.000138329
0.000106663
0.000842816
0.000123481
0.000107454
0.000786122
0.000115657
0.000133336
0.000757592
9.70143e-05
0.000107807
0.000739924
7.94773e-05
0.000104031
0.000683543
6.73605e-05
9.66606e-05
0.000607392
6.41806e-05
0.000104473
0.000544464
6.11166e-05
8.62952e-05
0.000485432
6.86823e-05
7.78592e-06
0.00139503
0.000136994
2.28255e-05
0.00140322
0.000123986
4.52099e-05
0.00132378
0.000108236
8.76538e-05
0.00126778
8.69164e-05
6.77463e-05
0.00123862
8.24064e-05
6.96412e-05
0.0011503
7.28383e-05
6.38054e-05
0.00101854
6.876e-05
7.46583e-05
0.000908171
5.51804e-05
7.87698e-05
0.0008345
4.78619e-05
7.82814e-05
0.000711885
4.18586e-05
6.86268e-05
0.00058119
3.95338e-05
5.75259e-05
0.000465348
4.18304e-05
8.69878e-06
0.00173375
8.55124e-05
1.04259e-05
0.00161674
8.06091e-05
1.6718e-05
0.00150864
8.22706e-05
2.95999e-05
0.00143561
7.66877e-05
4.87713e-05
0.00137749
6.93496e-05
4.28803e-05
0.00130495
6.36089e-05
4.11431e-05
0.00118747
5.91344e-05
4.81639e-05
0.00103883
5.57075e-05
4.58372e-05
0.000912157
4.93242e-05
4.08258e-05
0.000776624
3.86539e-05
4.47424e-05
0.000676546
2.87355e-05
5.00591e-05
0.000553544
2.09904e-05
4.79314e-05
0.000461845
2.01422e-05
-3.74008e-05
0.00184174
5.03239e-05
-2.83073e-05
0.00163364
4.49552e-05
-1.46616e-05
0.00152623
3.80718e-05
3.13368e-06
0.00148934
3.39723e-05
5.84832e-06
0.00148433
3.38963e-05
8.39262e-06
0.00143443
3.47988e-05
1.10944e-05
0.00130344
3.46804e-05
1.26384e-05
0.0011529
3.3503e-05
1.52253e-05
0.00101659
3.09818e-05
2.11701e-05
0.000883887
2.99989e-05
2.92993e-05
0.000733933
2.81453e-05
3.30272e-05
0.000603459
2.3761e-05
3.70096e-05
0.000496748
1.85942e-05
3.60004e-05
0.000418886
1.56773e-05
-3.95352e-05
0.00226642
1.03969e-05
-3.05815e-05
0.00196285
9.73908e-06
-2.2092e-05
0.00175088
7.51482e-06
-1.16353e-05
0.00161428
6.7511e-06
-4.19665e-06
0.00161059
7.63461e-06
2.09138e-06
0.00155641
8.62291e-06
4.22791e-06
0.00142179
8.76279e-06
7.78491e-06
0.00124991
8.71584e-06
1.07518e-05
0.00108937
9.01449e-06
1.38587e-05
0.000915217
9.64091e-06
1.63274e-05
0.000764552
1.01754e-05
1.74883e-05
0.000614946
1.04742e-05
1.82648e-05
0.000470929
9.93715e-06
1.74184e-05
0.000355164
8.75908e-06
1.53375e-05
0.000260888
7.09783e-06
0.000606048
0.00527354
0.00386298
0.000511638
0.00537992
0.00398229
0.000743353
0.00551204
0.00394445
0.000312443
0.00555119
0.00385831
0.000505589
0.00576758
0.00393008
0.000549828
0.00583593
0.00385044
0.000185864
0.00607726
0.00364641
0.000254515
0.00614242
0.00361214
0.000269433
0.00629461
0.00361945
0.000535946
0.00623254
0.00369995
0.000319531
0.00639233
0.00345732
0.000308936
0.00652448
0.00343826
0.000143864
0.00678584
0.00345403
0.000182677
0.00662842
0.00356946
0.000377635
0.0062932
0.00346686
8.52525e-05
0.00633084
0.00292521
6.69435e-05
0.00637002
0.00296854
-6.96859e-05
0.00631108
0.00302528
-6.77514e-05
0.00595354
0.00302801
-0.000102171
0.00544249
0.00281732
-4.52748e-05
0.00509133
0.00255602
9.27687e-05
0.00685363
0.00226035
-4.02883e-05
0.00611509
0.00233563
-6.7246e-05
0.00539196
0.00232909
-6.19932e-05
0.00445993
0.00212638
-6.6558e-05
0.0039295
0.0019897
-0.00024839
0.00373423
0.00181915
-8.10158e-05
0.00288491
0.00132958
0.000150917
0.00495388
0.00147216
0.00022741
0.0040181
0.00119482
0.000139768
0.0031567
0.000892619
0.000144428
0.00215906
0.000497382
-2.6757e-05
0.00149376
0.000268677
-0.000232388
0.00137236
0.000386299
-0.000171353
0.00126388
0.000369755
-0.000171503
0.000469398
0.000298746
0.000264267
0.00269966
0.000601644
0.000244192
0.00228967
0.000274876
5.09412e-05
0.00149392
0.000271285
8.63969e-05
0.000512399
0.000262811
4.072e-05
0.000496694
0.000229272
-2.57254e-05
0.000532939
0.00020028
-0.00011537
0.00049733
0.000214891
-8.24264e-05
0.000528102
0.000240011
3.4362e-05
0.000614512
0.000211663
6.67177e-05
0.000995671
0.000319904
7.93875e-05
0.000471066
0.000273754
5.73284e-05
0.000411647
0.000242171
0.000165892
0.000577547
0.000177764
0.000182272
0.000742472
0.00014756
0.00018032
0.000862263
0.00013268
0.000122329
0.000892598
0.000117759
0.000120423
0.000792219
0.000112563
0.000114544
0.000679513
0.000126546
7.32843e-05
0.000586857
0.000144145
9.0467e-06
0.000558811
0.000235209
3.51296e-05
0.000637113
0.000260228
0.000103074
0.000776393
0.000237829
0.000138228
0.000765478
0.00020177
0.000145329
0.000739448
0.000161301
0.000168615
0.000723836
0.000123022
0.000138387
0.000696187
0.000118354
0.000135582
0.00065533
0.000112582
0.000140299
0.000627236
9.89802e-05
0.000117633
0.000576315
9.98361e-05
8.32412e-05
0.000503599
0.000107274
4.34216e-05
0.00103375
0.000163002
5.50193e-05
0.000969533
0.000158293
7.83163e-05
0.000925142
0.000145039
0.000104114
0.000838398
0.000126287
9.6044e-05
0.000771783
0.000109522
9.75356e-05
0.000745967
9.93879e-05
0.000110483
0.000706861
8.33991e-05
0.000105783
0.000660483
7.14127e-05
9.16941e-05
0.000594134
6.76945e-05
8.86002e-05
0.000530852
6.74747e-05
6.9576e-05
0.000472977
7.26221e-05
5.62017e-05
0.000389045
8.22e-05
1.51404e-05
0.00139771
0.000117213
5.87143e-05
0.0013727
0.000119229
6.00222e-05
0.00130066
0.000103811
7.74885e-05
0.00124118
8.69504e-05
0.00010442
0.00119549
7.43907e-05
8.74225e-05
0.00112025
6.79128e-05
8.04169e-05
0.000989692
6.24136e-05
8.89461e-05
0.000886816
4.9332e-05
9.50513e-05
0.000800712
3.97542e-05
7.51708e-05
0.000687984
3.74181e-05
5.75259e-05
0.000571061
3.92046e-05
5.3014e-05
0.000459396
4.25303e-05
4.31421e-05
0.00038355
4.84359e-05
6.9466e-07
0.00168857
8.05255e-05
3.63667e-05
0.00155497
8.26125e-05
7.26831e-06
0.00148774
7.95772e-05
3.25146e-05
0.00141059
7.79084e-05
4.83697e-05
0.00133956
7.20875e-05
5.0778e-05
0.00126538
6.65266e-05
4.91423e-05
0.00115146
6.15752e-05
4.91939e-05
0.00100419
5.721e-05
5.12635e-05
0.000888192
4.36349e-05
4.45087e-05
0.000769092
3.35185e-05
4.86051e-05
0.000674562
2.13317e-05
5.14023e-05
0.000545926
1.79777e-05
5.11912e-05
0.000450773
1.78811e-05
4.28631e-05
0.000359244
2.30562e-05
-3.09148e-05
0.00182709
4.95802e-05
-1.65171e-05
0.00162471
4.51838e-05
-9.6079e-06
0.00152106
3.76453e-05
-3.45816e-06
0.00148452
3.47159e-05
4.97342e-06
0.00147477
3.43569e-05
1.03033e-05
0.00142532
3.47864e-05
1.33435e-05
0.00129521
3.39131e-05
1.76866e-05
0.00114578
3.19014e-05
2.06946e-05
0.0010096
3.05422e-05
3.19097e-05
0.000867191
2.96263e-05
3.53045e-05
0.000718342
2.66128e-05
3.72921e-05
0.00059087
2.09298e-05
4.00364e-05
0.000483808
1.49291e-05
3.67658e-05
0.000405392
1.27401e-05
3.23982e-05
0.000320626
1.26348e-05
-2.98153e-05
0.00229829
1.04219e-05
-2.34728e-05
0.00198673
9.99097e-06
-1.54734e-05
0.001768
8.092e-06
-8.27273e-06
0.00162345
6.61598e-06
1.67009e-06
0.00160795
7.72596e-06
8.04434e-06
0.00154746
8.5426e-06
8.46271e-06
0.00141337
8.5765e-06
1.2365e-05
0.00123768
8.62877e-06
1.5117e-05
0.00107402
8.94962e-06
1.7238e-05
0.00089747
9.52395e-06
1.87389e-05
0.000745289
1.01655e-05
1.98408e-05
0.000594888
1.0393e-05
1.91765e-05
0.00045266
9.56653e-06
1.71277e-05
0.000339886
8.08712e-06
1.47957e-05
0.0002485
6.35183e-06
1.33958e-05
0.000171561
5.43193e-06
0.000429109
0.00481887
0.004415
0.000537312
0.00524659
0.00388646
0.000638511
0.00528589
0.0039562
0.000386129
0.00537569
0.0039312
0.000552309
0.00550095
0.00394667
0.000536987
0.00556555
0.00395366
0.000110819
0.0056039
0.00386254
0.000414358
0.00557972
0.00388632
0.000464585
0.00569316
0.0038777
0.000395466
0.00593994
0.00385156
0.000210574
0.00612608
0.00363004
0.000401658
0.00608536
0.00361075
0.000296844
0.00619747
0.00355631
0.000153467
0.00630624
0.00357496
0.000497042
0.00617017
0.0036109
0.000165963
0.00622303
0.00343113
0.000207749