/*--------------------------------*- C++ -*----------------------------------*\
  =========                 |
  \\      /  F ield         | OpenFOAM: The Open Source CFD Toolbox
   \\    /   O peration     | Website:  https://openfoam.org
    \\  /    A nd           | Version:  7
     \\/     M anipulation  |
\*---------------------------------------------------------------------------*/
FoamFile
{
    version     2.0;
    format      ascii;
    class       surfaceScalarField;
    location    "1.5";
    object      phi_0;
}
// * * * * * * * * * * * * * * * * * * * * * * * * * * * * * * * * * * * * * //

dimensions      [0 3 -1 0 0 0 0];

internalField   nonuniform List<scalar> 
54451
(
-0.000150999
0.000929981
8.68408e-06
-0.000215424
0.00151439
4.93013e-05
-0.000142887
0.00107927
8.43121e-06
-0.000128602
0.00091435
9.07388e-06
-0.000207988
0.0018787
0.000157301
-0.000205662
0.00158842
5.2176e-05
-0.000189438
0.00128068
3.82913e-05
-0.000135439
0.00121933
8.99176e-06
-0.000123564
0.00103811
8.23725e-06
-0.000102321
0.00102946
7.04902e-06
-0.000100734
0.00271264
0.000221572
-0.000196922
0.00190958
0.00013949
-0.000173259
0.00183125
0.000128008
-0.000193126
0.00165702
5.28919e-05
-0.000174125
0.00134364
3.97726e-05
-0.000151733
0.00128059
3.30346e-05
-0.000127467
0.00135167
9.60449e-06
-0.000117534
0.00115578
8.85362e-06
-9.64949e-05
0.00112624
7.94432e-06
-7.76638e-05
0.00117176
6.83921e-06
0.000165804
0.00264742
0.000288825
-6.42807e-05
0.00260517
0.00021492
-0.00010238
0.00220794
0.000194476
-0.000182538
0.00192158
0.000125815
-0.000153198
0.00182668
0.000123134
-0.000125217
0.00164593
9.97889e-05
-0.000182504
0.00172217
5.23749e-05
-0.000164656
0.00140399
3.96672e-05
-0.000133198
0.00132442
3.26459e-05
-0.000105644
0.0014188
3.43579e-05
-0.000118795
0.00147556
9.76449e-06
-0.000109737
0.00126613
8.99655e-06
-9.24198e-05
0.00121933
8.19278e-06
-6.90559e-05
0.00124124
7.51535e-06
-5.91971e-05
0.00132801
8.02478e-06
0.000488215
0.00131151
0.000285999
0.000182404
0.00241973
0.000289978
0.000102692
0.00203504
0.000258738
-3.62117e-05
0.00247399
0.000203699
-6.72887e-05
0.00214627
0.000190683
-5.64271e-05
0.00187189
0.000159983
-0.00017684
0.00192912
0.000117604
-0.000138916
0.00180978
0.00011698
-9.9895e-05
0.0016358
9.99532e-05
-8.40384e-05
0.00152045
8.05748e-05
-0.000154777
0.00176195
5.52553e-05
-0.000148698
0.00145471
4.06121e-05
-0.000126299
0.00136512
3.2844e-05
-9.44996e-05
0.00144418
3.27138e-05
-7.71607e-05
0.00150177
3.51717e-05
-0.000111577
0.00159161
9.45514e-06
-0.000105609
0.00137188
9.61595e-06
-8.4469e-05
0.00130482
7.97592e-06
-6.41726e-05
0.00130505
8.55574e-06
-5.59019e-05
0.00138361
7.81064e-06
-5.01512e-05
0.00136044
9.16796e-06
0.000648058
0.00172754
0.000334326
0.00044423
0.00108639
0.000230599
0.000377479
0.00121682
0.000256359
0.000192447
0.00220413
0.000288551
0.000137725
0.00186591
0.000254093
9.27383e-05
0.00151537
0.000229568
-2.89928e-05
0.00232804
0.000196839
-4.01967e-05
0.00206471
0.000186539
-2.97582e-05
0.00183454
0.000157892
-2.63326e-06
0.00169115
0.000128558
-0.000155967
0.00193473
0.000112356
-0.000126149
0.00179347
0.000111362
-9.08e-05
0.00161679
0.000100495
-7.19041e-05
0.00151537
8.24331e-05
-5.75807e-05
0.00150106
7.89291e-05
-0.000146764
0.00180705
4.76671e-05
-0.000141558
0.00150123
4.46846e-05
-0.000115319
0.00140265
3.39289e-05
-8.35755e-05
0.00146271
3.3713e-05
-7.20414e-05
0.00151585
3.47751e-05
-6.52676e-05
0.00146698
3.65264e-05
-0.000104065
0.00169911
1.03823e-05
-9.45339e-05
0.00146685
9.01951e-06
-7.71129e-05
0.00138289
8.65341e-06
-5.97714e-05
0.00136496
7.84172e-06
-4.82674e-05
0.00143197
8.46425e-06
-4.58005e-05
0.00140536
8.69216e-06
-3.74579e-05
0.00129556
9.35843e-06
0.0008768
0.00200126
0.000447224
0.000577712
0.00155387
0.000320286
0.000619018
0.000671315
0.000377552
0.000403356
0.000903887
0.000193284
0.000357869
0.00102244
0.000204839
0.000322345
0.00130902
0.000208869
0.000189998
0.00200733
0.00027423
0.000161017
0.00171419
0.000239058
9.74589e-05
0.00142156
0.00022069
0.000110431
0.00132742
0.000199508
-2.18083e-05
0.00219009
0.000185146
-2.67365e-05
0.00197833
0.000183806
-2.97953e-06
0.00177644
0.000156822
1.10246e-05
0.00163783
0.000128281
7.98787e-06
0.00154704
0.000117794
-0.000129975
0.00192011
0.000110286
-0.0001106
0.00176824
0.000106627
-8.89576e-05
0.00160504
9.67537e-05
-6.45916e-05
0.00151198
8.49023e-05
-5.90559e-05
0.00149132
7.9192e-05
-5.50093e-05
0.0014304
7.84494e-05
-0.000133481
0.00183615
5.46425e-05
-0.00011985
0.00153607
3.81457e-05
-0.00010369
0.00143761
3.63077e-05
-7.66231e-05
0.00148072
3.27746e-05
-6.14874e-05
0.00152758
3.52103e-05
-5.54906e-05
0.00147478
3.66655e-05
-4.96576e-05
0.00132388
3.69988e-05
-9.62072e-05
0.00179901
1.11448e-05
-8.96848e-05
0.00155727
9.64963e-06
-6.89686e-05
0.00145202
8.85636e-06
-5.28087e-05
0.00141835
8.06761e-06
-4.2558e-05
0.00147387
8.49863e-06
-4.03349e-05
0.00144549
8.67408e-06
-3.33743e-05
0.00132886
8.75992e-06
-2.5812e-05
0.00119523
9.15904e-06
0.001042
0.00318645
0.000940393
0.000770699
0.00193523
0.00046868
0.000891124
0.00139849
0.000227948
0.000511557
0.00138538
0.000318154
0.000504424
0.000521821
0.000323225
0.000539143
0.000340235
0.000330291
0.000372664
0.000742716
0.000174023
0.000319037
0.000884305
0.000173399
0.000283374
0.00115851
0.00016944
0.000294102
0.00121356
0.000171075
0.000201946
0.00181809
0.000237424
0.000159402
0.00158533
0.000216959
0.000118293
0.0013438
0.000195543
0.000131065
0.0012437
0.000184374
0.000126725
0.00123152
0.000174139
2.77121e-05
0.00201965
0.000181734
8.8735e-06
0.00186632
0.000177685
7.96115e-06
0.00170611
0.000157212
2.18623e-05
0.00157878
0.000129421
1.607e-05
0.00148347
0.000116732
-6.49044e-06
0.00138045
0.000114005
-0.000120651
0.0019027
9.86694e-05
-9.36378e-05
0.00174692
0.000105396
-8.1083e-05
0.00159496
9.40955e-05
-6.33638e-05
0.00151114
8.43402e-05
-4.89084e-05
0.00148518
7.84649e-05
-3.8781e-05
0.00141662
7.62605e-05
-3.93217e-05
0.00125661
7.24067e-05
-0.000129824
0.00186799
5.36442e-05
-0.000119256
0.00157328
4.70034e-05
-9.24817e-05
0.00146206
3.72058e-05
-6.66765e-05
0.0014963
3.45995e-05
-4.78447e-05
0.00153152
3.41167e-05
-4.26043e-05
0.00147567
3.65894e-05
-4.26207e-05
0.00133267
3.71265e-05
-3.55232e-05
0.00117294
3.57989e-05
-8.73872e-05
0.0018892
1.03728e-05
-8.11161e-05
0.00163985
9.67731e-06
-6.24595e-05
0.00151543
8.70193e-06
-4.52658e-05
0.00146405
8.42638e-06
-3.6682e-05
0.00151023
8.39191e-06
-3.34488e-05
0.00147877
8.665e-06
-2.85237e-05
0.00135753
8.5347e-06
-2.24059e-05
0.00121772
8.68124e-06
-1.35404e-05
0.00108879
9.51717e-06
0.000903198
0.00519171
0.00191244
0.000760032
0.00325212
0.0010258
0.00102962
0.00240494
0.00073243
0.000673607
0.00191002
0.000493883
0.000748769
0.00139946
0.000223369
0.00064
0.000982061
0.000144944
0.000470841
0.00122286
0.000308381
0.000403809
0.000445011
0.000310192
0.000439445
0.000228119
0.000279271
0.000458292
0.00053298
0.000278345
0.00034291
0.000613918
0.000165937
0.000287893
0.00077376
0.000156076
0.000272
0.00103367
0.000144528
0.000280034
0.00110156
0.000132473
0.000263469
0.00102483
0.000141668
0.000214299
0.00165588
0.000202522
0.00018324
0.00146209
0.00018629
0.000122062
0.0012736
0.000173059
0.000145719
0.00115965
0.000155733
0.000146352
0.00113592
0.000149696
0.000116614
0.00111877
0.000142245
2.66088e-05
0.00185623
0.000183426
1.46158e-05
0.00176162
0.000178179
2.97707e-05
0.00161664
0.000156307
2.87772e-05
0.00151191
0.000131941
2.58117e-05
0.00141968
0.00011849
2.06256e-05
0.00132627
0.0001115
4.79171e-06
0.00121712
0.000110079
-0.000112501
0.00188285
0.000101924
-9.90019e-05
0.00172778
9.75506e-05
-8.25537e-05
0.00159701
9.34232e-05
-5.77801e-05
0.00151254
8.37968e-05
-3.04453e-05
0.00147465
7.74672e-05
-2.46109e-05
0.0014031
7.39874e-05
-3.33507e-05
0.00125269
7.09077e-05
-3.27184e-05
0.00109083
6.55701e-05
-0.000104893
0.00188335
5.20511e-05
-0.000107038
0.00160632
4.65254e-05
-8.37419e-05
0.00149265
3.77002e-05
-5.57046e-05
0.00151006
3.38817e-05
-3.46998e-05
0.00152899
3.51436e-05
-3.42016e-05
0.00147462
3.59271e-05
-3.33303e-05
0.00133719
3.68709e-05
-2.93153e-05
0.00118143
3.55415e-05
-2.12894e-05
0.00103462
3.36307e-05
-7.81623e-05
0.00197186
9.84881e-06
-7.22277e-05
0.0017131
9.35195e-06
-5.53e-05
0.0015721
8.30749e-06
-3.6393e-05
0.00150048
8.65629e-06
-3.36682e-05
0.001544
8.32826e-06
-2.61155e-05
0.00150461
8.66985e-06
-2.49618e-05
0.00138295
8.20192e-06
-1.83746e-05
0.00123599
8.64178e-06
-1.10721e-05
0.00109924
9.30406e-06
-4.10701e-06
0.000950794
9.88417e-06
0.000520029
0.00689696
0.00281137
0.000391582
0.00551317
0.00213149
0.000910627
0.00439113
0.00181324
0.000426634
0.00355042
0.0011004
0.000674544
0.00268404
0.000820926
0.000697205
0.00208676
0.000617825
0.000572333
0.00197712
0.000498367
0.000606723
0.00145658
0.000233849
0.000511997
0.00098976
0.000143118
0.000544294
0.000161646
0.000160701
0.000403937
0.00111087
0.000298708
0.000339942
0.000402397
0.000298946
0.000386699
0.000159403
0.000264209
0.000398049
0.000454996
0.00023924
0.00035098
0.000667369
0.000231491
0.00028208
0.000542585
0.00017259
0.000271101
0.00069381
0.000158026
0.000247516
0.000923968
0.000140322
0.000266946
0.00100669
0.000118167
0.000241783
0.000949918
0.00011195
0.000212927
0.000912889
0.000130837
0.000196513
0.00150164
0.000174531
0.000153578
0.00135723
0.00016842
0.0001365
0.00120298
0.000150181
0.000143803
0.00108147
0.000136213
0.000147797
0.00104811
0.000121554
0.000134766
0.00103982
0.000114503
9.47143e-05
0.000963615
0.000108813
3.35204e-05
0.00169511
0.000182715
2.38967e-05
0.001648
0.000174154
1.30832e-05
0.00154303
0.000156146
3.26042e-05
0.00144845
0.000129386
3.85418e-05
0.0013667
0.000115928
2.82888e-05
0.00128305
0.000108809
2.12548e-05
0.00116727
0.000106742
2.3877e-05
0.0010511
0.000100889
-9.0683e-05
0.00186289
9.21784e-05
-9.46716e-05
0.00172146
9.58788e-05
-6.56348e-05
0.00158726
8.91925e-05
-4.58028e-05
0.00151315
8.29067e-05
-1.80099e-05
0.00146444
7.73146e-05
-4.86828e-06
0.00137909
7.21434e-05
-1.81264e-05
0.00124357
6.79065e-05
-2.9802e-05
0.00109806
6.41681e-05
-2.00264e-05
0.000969667
5.75978e-05
-8.64308e-05
0.00188805
5.1881e-05
-8.2985e-05
0.00162291
4.62244e-05
-6.48031e-05
0.00150958
3.90966e-05
-3.64513e-05
0.00151279
3.50282e-05
-3.06214e-05
0.00152512
3.47048e-05
-2.76275e-05
0.00147493
3.63468e-05
-2.60859e-05
0.00133786
3.63811e-05
-1.92441e-05
0.00118402
3.51524e-05
-1.07917e-05
0.00103667
3.32118e-05
-3.93043e-06
0.000902667
3.14115e-05
-7.39324e-05
0.00204782
9.5948e-06
-6.53862e-05
0.00177926
9.07637e-06
-4.9499e-05
0.00162268
8.27069e-06
-3.49348e-05
0.00153615
7.57925e-06
-2.37303e-05
0.00156789
8.49308e-06
-2.10905e-05
0.00152543
8.59585e-06
-2.02544e-05
0.0014033
8.57417e-06
-1.40924e-05
0.00124977
8.51107e-06
-6.31962e-06
0.00110488
9.31461e-06
-5.3885e-07
0.000950766
9.87136e-06
4.57432e-06
0.000814317
1.03114e-05
0.000408386
0.00711397
0.003329
0.000202535
0.00698479
0.0030219
0.000567117
0.00653691
0.0027845
0.000186467
0.00568808
0.00227217
0.000232455
0.00492238
0.00204233
0.00054137
0.00416959
0.00178472
0.000330232
0.00387352
0.00114141
0.000464616
0.00301364
0.000912898
0.000437785
0.00230589
0.000676008
0.000651218
0.00124262
0.000563805
0.000550475
0.00202882
0.000505506
0.000494408
0.00158045
0.000220031
0.000376513
0.00107903
0.000154768
0.000387177
0.000154223
0.000161413
0.000303362
-9.06716e-05
0.000174629
0.000334865
0.00102223
0.000299698
0.000299361
0.000386209
0.000286636
0.000317638
0.000138549
0.000249678
0.000342333
0.00043571
0.000208109
0.000272244
0.000674715
0.000201434
0.000243136
0.000727983
0.000191984
0.000217262
0.00050406
0.000185542
0.000222952
0.00062385
0.000173175
0.00021937
0.000844293
0.000154831
0.00023852
0.000924997
0.0001273
0.0002335
0.000877915
0.000104468
0.000206866
0.000844969
0.00010777
0.000126383
0.00082839
0.00013718
0.000170845
0.00136684
0.000159609
0.000154964
0.00125152
0.000149182
0.000128591
0.00111714
0.000138752
0.000139886
0.00100224
0.000122127
0.000143896
0.000968476
0.000110493
0.000137678
0.000954387
9.76001e-05
0.000111784
0.00089755
9.0039e-05
9.22206e-05
0.000815993
8.34631e-05
1.93503e-05
0.00157674
0.000177506
2.07334e-05
0.00154452
0.000170782
4.26191e-05
0.00146232
0.000146613
3.89754e-05
0.00139159
0.000128227
4.12871e-05
0.00132589
0.0001109
5.25311e-05
0.00124047
0.000101108
3.45672e-05
0.00112319
0.000100197
2.80438e-05
0.00100388
9.61151e-05
4.00825e-05
0.0009061
8.65005e-05
-7.57046e-05
0.00184748
9.23824e-05
-7.29175e-05
0.00171148
9.20919e-05
-6.25449e-05
0.00159276
8.81201e-05
-2.59428e-05
0.00151097
8.08714e-05
-1.27117e-05
0.00145326
7.6178e-05
-8.35238e-06
0.00136598
7.11473e-05
-1.15768e-05
0.0012358
6.54058e-05
-1.18616e-05
0.00109812
6.0462e-05
-3.83421e-06
0.000971401
5.54766e-05
8.26583e-06
0.00081399
5.03396e-05
-8.2114e-05
0.00189188
5.13433e-05
-7.47743e-05
0.001638
4.61692e-05
-6.00541e-05
0.00152651
3.98426e-05
-3.25463e-05
0.00151391
3.55861e-05
-1.74111e-05
0.00151845
3.53813e-05
-1.84729e-05
0.0014707
3.63126e-05
-1.72528e-05
0.00133487
3.6335e-05
-6.47012e-06
0.00117866
3.41234e-05
-1.87281e-06
0.00103459
3.2783e-05
2.63471e-06
0.000901782
3.09227e-05
1.17167e-05
0.000768008
3.03213e-05
-6.61225e-05
0.00211616
9.89018e-06
-5.65981e-05
0.0018363
9.14911e-06
-4.09514e-05
0.00166452
8.18929e-06
-2.94136e-05
0.00156582
8.01023e-06
-2.0967e-05
0.00158884
7.59873e-06
-1.66178e-05
0.00154187
8.66964e-06
-1.45306e-05
0.00141759
8.83777e-06
-7.54362e-06
0.00125709
8.79844e-06
-3.03588e-06
0.0011072
9.22766e-06
3.0941e-06
0.000947127
9.85925e-06
8.07095e-06
0.000805801
1.03159e-05
9.96251e-06
0.00065903
1.06283e-05
0.000503105
0.00630939
0.00358011
0.00035641
0.00687618
0.00335592
0.000465741
0.00704569
0.00345432
0.00031243
0.00675871
0.00304955
0.000293246
0.0064891
0.00300892
0.000313553
0.00634785
0.0027943
0.000107621
0.0059111
0.00243309
8.19218e-05
0.00530839
0.00226885
5.60413e-05
0.00455154
0.00204212
0.000498886
0.0032795
0.0018386
0.000348003
0.00418198
0.00117553
0.00036372
0.0032923
0.000993448
0.000294811
0.00255145
0.000749039
0.000527654
0.00130268
0.000475474
0.000273966
0.000945945
0.000491817
0.000475018
0.00212745
0.000525185
0.00043199
0.00172117
0.000232161
0.000242534
0.00121511
0.000159048
0.000279233
0.000203634
0.000168456
0.00012512
4.12378e-05
0.000176627
0.000162707
-2.66214e-05
0.000170757
0.000239636
0.00098169
0.000309274
0.000246561
0.000376098
0.0002862
0.00022279
0.00018457
0.000237196
0.000293888
0.000444666
0.000185354
0.000238934
0.000703613
0.000173777
0.000192824
0.000769858
0.000173601
0.000117296
0.000749078
0.000173872
0.000157971
0.000490479
0.000196978
0.000171804
0.000598537
0.000194015
0.000183281
0.000792832
0.000169947
0.000215746
0.00085978
0.000144188
0.000206983
0.000824598
0.000117529
0.000186675
0.000798051
0.000102389
0.000141699
0.000790515
0.000115731
0.000120689
0.000736048
0.000121886
0.000151079
0.00123877
0.000155007
0.000146194
0.00113913
0.000146531
0.000131187
0.00104378
0.000133975
0.000134831
0.000926289
0.000118852
0.000130399
0.000894971
0.00010652
0.000138782
0.000885679
9.295e-05
0.000108208
0.000839502
8.2007e-05
9.89721e-05
0.000760548
7.45554e-05
0.000107368
0.000688495
6.5861e-05
1.15786e-05
0.00148919
0.000164413
1.21897e-05
0.00148536
0.000151558
2.51889e-05
0.00140763
0.000137736
4.98961e-05
0.0013462
0.000116157
4.16049e-05
0.00129285
0.000106955
3.61882e-05
0.00121097
9.58603e-05
4.35541e-05
0.00107777
9.13944e-05
4.49466e-05
0.000958057
8.92122e-05
4.76336e-05
0.000872607
7.81406e-05
6.72676e-05
0.000758258
6.36171e-05
-5.58521e-05
0.00181247
9.31938e-05
-5.18874e-05
0.00169191
8.90715e-05
-2.29255e-05
0.0015619
8.58219e-05
-7.68491e-06
0.00149384
8.03871e-05
4.61937e-06
0.0014386
7.35017e-05
-3.59427e-06
0.00135889
6.83897e-05
-3.5885e-06
0.00122981
6.34701e-05
8.25547e-06
0.00109093
5.78661e-05
1.21024e-05
0.000965669
5.22184e-05
1.79384e-05
0.000806672
4.74914e-05
2.9524e-05
0.000686008
3.96275e-05
-6.4007e-05
0.00188381
5.15202e-05
-5.76317e-05
0.00164428
4.60983e-05
-4.1274e-05
0.00153444
3.8566e-05
-2.28941e-05
0.00151321
3.40275e-05
-9.80378e-06
0.0015086
3.42749e-05
-8.26184e-06
0.0014624
3.5328e-05
-5.40949e-06
0.00132694
3.51211e-05
2.15914e-06
0.00117045
3.48392e-05
5.53749e-06
0.00102809
3.20539e-05
1.00864e-05
0.000897041
3.05318e-05
1.89625e-05
0.000758156
2.98826e-05
2.45566e-05
0.00062839
2.78757e-05
-5.51988e-05
0.00217434
1.06598e-05
-4.96952e-05
0.00188687
9.01965e-06
-3.2748e-05
0.00169831
8.10027e-06
-1.98717e-05
0.00158655
7.32938e-06
-1.08384e-05
0.00159929
8.39623e-06
-1.2428e-05
0.00155332
8.5757e-06
-7.13714e-06
0.00142448
8.91256e-06
-1.30483e-06
0.00125831
8.92458e-06
1.60317e-06
0.0011053
9.1018e-06
6.99099e-06
0.000939549
9.81522e-06
1.11644e-05
0.000794186
1.03101e-05
1.21884e-05
0.000646548
1.06097e-05
1.46395e-05
0.000503671
1.04336e-05
0.000416109
0.00582882
0.00391892
0.000439636
0.00621139
0.00359771
0.00062212
0.00634481
0.00365281
0.000175748
0.00685723
0.00345996
0.00050012
0.00672987
0.00346487
0.00020291
0.00690959
0.00356935
0.00015055
0.00662125
0.00307317
4.97189e-05
0.00649329
0.00307756
0.000107649
0.00634937
0.00295579
0.000176026
0.00573661
0.00289445
-1.53729e-06
0.00634795
0.00226521
6.24352e-05
0.00568753
0.00235523
5.02771e-05
0.00483536
0.00222957
0.000253342
0.00363334
0.00196259
0.000145864
0.00356909
0.0016307
0.000268248
0.0045066
0.00125643
0.0002719
0.00357064
0.00105728
0.000184141
0.00279064
0.000812649
0.000335809
0.0015333
0.000461843
3.02778e-05
0.00107988
0.00043638
8.27342e-05
0.00109534
0.000411828
0.000313021
0.00231843
0.000539877
0.000345667
0.00191014
0.000237104
0.000141673
0.00134767
0.000180718
0.000158101
0.000307693
0.000190777
5.9887e-05
0.000201899
0.000186841
1.47376e-05
0.000151276
0.000176816
-4.44878e-05
0.00013391
0.000196881
0.00016702
0.000963933
0.000318055
0.000177649
0.000392615
0.000286913
0.000162027
0.000245019
0.000247005
0.000258405
0.000469892
0.000169311
0.000212847
0.000724895
0.000158208
0.000146863
0.000824381
0.000159066
0.000114336
0.000795518
0.000154524
0.000110722
0.000706795
0.000147035
0.000102161
0.000507803
0.000212055
0.000112821
0.000610656
0.000218231
0.000154513
0.000770043
0.000193478
0.000189418
0.000814778
0.000160361
0.000189827
0.000779044
0.000130314
0.000169639
0.000774905
0.000109819
0.000133338
0.000754184
0.000113589
0.000129052
0.000712184
0.000109515
0.000136255
0.000685876
0.000100446
0.000118962
0.00112665
0.000166595
0.000115459
0.00104334
0.000147529
0.000117374
0.000960535
0.00013759
0.000113217
0.000872488
0.000124455
0.000120604
0.000825099
0.000109726
0.000110192
0.000824985
9.32106e-05
0.000109966
0.000787914
7.81265e-05
9.94053e-05
0.000718805
6.92911e-05
0.00010939
0.000638515
6.27795e-05
0.000106531
0.00057551
5.93169e-05
1.23513e-05
0.00142864
0.000149195
3.36602e-05
0.00142682
0.000137409
7.32166e-05
0.00134993
0.000113116
6.20442e-05
0.00130998
0.000104235
5.84128e-05
0.00126162
9.35893e-05
5.174e-05
0.00117658
8.60121e-05
4.46017e-05
0.00104618
7.92646e-05
5.67927e-05
0.000928393
7.25215e-05
5.92931e-05
0.000849563
6.50653e-05
7.0813e-05
0.000730073
5.34511e-05
7.20778e-05
0.000597104
4.50617e-05
-3.71426e-05
0.00178208
8.23304e-05
-2.71607e-05
0.00166625
8.83811e-05
-1.15037e-05
0.00153828
8.2917e-05
1.79954e-05
0.00146181
7.69613e-05
2.18567e-05
0.00141616
7.11673e-05
2.14546e-05
0.00133798
6.46971e-05
1.76662e-05
0.00121564
5.94846e-05
2.92314e-05
0.00107035
5.69837e-05
3.79597e-05
0.000939365
5.17481e-05
3.57338e-05
0.00078921
4.40326e-05
3.78302e-05
0.000680754
3.38782e-05
4.4458e-05
0.000561302
2.74597e-05
-3.42083e-05
0.00185712
5.04941e-05
-4.25299e-05
0.00164258
4.60549e-05
-2.02308e-05
0.00152993
3.80869e-05
-3.52162e-06
0.00150148
3.39445e-05
1.44741e-06
0.00149718
3.31618e-05
9.87661e-07
0.00144832
3.49368e-05
6.07723e-06
0.00131343
3.56289e-05
1.14269e-05
0.00115981
3.30268e-05
9.69055e-06
0.00102259
3.22563e-05
1.42632e-05
0.000891213
3.06104e-05
2.45894e-05
0.000746044
2.92192e-05
2.87614e-05
0.000615319
2.63799e-05
3.31944e-05
0.000508608
2.20806e-05
-4.72242e-05
0.00222471
1.01399e-05
-4.37221e-05
0.00193175
9.49946e-06
-2.70573e-05
0.00172667
7.71871e-06
-1.39332e-05
0.00160162
6.96537e-06
-8.17677e-06
0.00160681
7.98096e-06
-4.94398e-06
0.00155789
8.76692e-06
-2.32045e-07
0.00142432
8.96951e-06
2.54178e-06
0.00125589
8.78982e-06
6.13535e-06
0.00109898
9.1035e-06
1.07004e-05
0.00092823
9.71964e-06
1.38478e-05
0.000779905
1.02489e-05
1.49151e-05
0.000631373
1.05697e-05
1.66293e-05
0.00048741
1.02413e-05
1.70361e-05
0.000370101
9.35327e-06
0.000523419
0.00538459
0.00399645
0.000486093
0.00572317
0.00391065
0.000612269
0.00579383
0.00393767
0.000131424
0.00616856
0.00364261
0.00049017
0.00629564
0.00365683
0.000372706
0.00634376
0.00370526
0.000170981
0.00664249
0.00341752
6.46438e-05
0.00667345
0.00350145
0.000175225
0.00676602
0.00354086
0.000319934
0.00671644
0.00361442
0.000150307
0.00641627
0.002994
0.00017751
0.00642745
0.00302393
0.000112236
0.00633366
0.00303131
0.000113116
0.00581506
0.00301756
0.000139024
0.00523217
0.00272141
1.80837e-06
0.00667324
0.00228544
-2.18082e-05
0.00589938
0.00234706
-9.56164e-05
0.00517447
0.00229587
6.75465e-05
0.00407221
0.00205897
-8.62978e-05
0.00380386
0.0018444
-8.93682e-05
0.00357601
0.00157474
0.000227497
0.00473552
0.00136745
0.000233536
0.00381409
0.00112511
0.000141993
0.00299606
0.00085154
0.000170615
0.00186385
0.000469581
3.294e-06
0.00123284
0.000365474
-0.000102362
0.00123165
0.00041717
-8.53322e-05
0.00114599
0.000351873
0.00022886
0.00254311
0.000579731
0.000267601
0.00211756
0.000242508
7.41662e-05
0.00145945
0.000213194
9.37727e-05
0.000435521
0.000217522
4.2011e-05
0.000353652
0.00020986
-6.47237e-05
0.000361434
0.00018827
-9.66801e-05
0.000315451
0.000206291
-7.11822e-05
0.000377251
0.000230242
9.10616e-05
0.000983771
0.000317501
0.00011688
0.000422664
0.000283947
0.000117012
0.000320026
0.000249406
0.000216285
0.000511862
0.000178169
0.000199816
0.000736362
0.000147854
0.000140815
0.000867577
0.000143835
9.67581e-05
0.000858412
0.000132752
0.000105259
0.000759686
0.000125426
9.48944e-05
0.000647695
0.000141575
5.33021e-05
0.00053606
0.000227801
8.42253e-05
0.000615799
0.000238146
0.000108918
0.000776953
0.000219778
0.000161236
0.000778964
0.000181273
0.000158932
0.000757218
0.000143859
0.000160441
0.000737997
0.000116975
0.000130931
0.000727715
0.000115323
0.000133394
0.00068347
0.000108315
0.000147944
0.00066082
9.60162e-05
0.000104104
0.00059269
9.92281e-05
7.49849e-05
0.00106355
0.000166425
8.90815e-05
0.000992058
0.000162457
0.000102312
0.000940085
0.000138883
0.000106672
0.0008415
0.000123951
0.000107392
0.000784507
0.000116068
0.000133336
0.000755676
9.74388e-05
0.000107816
0.000738041
7.98704e-05
0.000104081
0.000681921
6.77231e-05
9.66109e-05
0.000605953
6.45358e-05
0.000104373
0.000543238
6.14925e-05
8.61776e-05
0.000484325
6.90587e-05
8.14294e-06
0.00139345
0.000137034
2.34193e-05
0.00140127
0.000124168
4.53813e-05
0.00132197
0.000108485
8.8003e-05
0.00126596
8.71278e-05
6.83386e-05
0.00123677
8.26081e-05
7.02027e-05
0.00114842
7.30048e-05
6.42237e-05
0.00101671
6.89275e-05
7.50083e-05
0.000906565
5.5315e-05
7.90966e-05
0.000833011
4.79367e-05
7.83406e-05
0.000710521
4.20113e-05
6.85634e-05
0.000580042
3.97807e-05
5.74236e-05
0.000464417
4.20973e-05
9.38696e-06
0.00173096
8.58906e-05
1.14818e-05
0.00161367
8.08961e-05
1.70632e-05
0.00150683
8.25421e-05
2.99529e-05
0.00143423
7.70183e-05
4.9131e-05
0.00137578
6.9658e-05
4.31339e-05
0.00130309
6.39147e-05
4.13991e-05
0.00118559
5.94221e-05
4.83309e-05
0.00103699
5.5939e-05
4.5855e-05
0.000910714
4.94706e-05
4.08779e-05
0.000775545
3.87983e-05
4.48157e-05
0.000675716
2.88441e-05
5.00983e-05
0.000552701
2.11423e-05
4.79533e-05
0.00046103
2.03018e-05
-3.71723e-05
0.00183982
5.05685e-05
-2.76617e-05
0.00163188
4.51411e-05
-1.42737e-05
0.00152495
3.82535e-05
2.93734e-06
0.00148847
3.42204e-05
5.86886e-06
0.00148293
3.41453e-05
8.55149e-06
0.00143299
3.50008e-05
1.1177e-05
0.00130212
3.48361e-05
1.27619e-05
0.00115159
3.3633e-05
1.53687e-05
0.00101527
3.11141e-05
2.13485e-05
0.000882693
3.01277e-05
2.93833e-05
0.00073287
2.82485e-05
3.30973e-05
0.000602526
2.38305e-05
3.70465e-05
0.000495919
1.86512e-05
3.59963e-05
0.000418082
1.57483e-05
-3.91305e-05
0.00226646
1.04983e-05
-2.99571e-05
0.00196198
9.87181e-06
-2.19071e-05
0.00175044
7.64268e-06
-1.1406e-05
0.0016139
6.84855e-06
-4.04576e-06
0.00161011
7.7127e-06
2.44201e-06
0.00155474
8.69173e-06
4.31125e-06
0.00141998
8.79761e-06
7.89543e-06
0.00124819
8.77317e-06
1.08847e-05
0.00108782
9.06833e-06
1.39195e-05
0.000913731
9.68388e-06
1.63644e-05
0.000763039
1.02215e-05
1.75298e-05
0.000613575
1.05171e-05
1.82769e-05
0.000469733
9.97e-06
1.73938e-05
0.000354165
8.78341e-06
1.53052e-05
0.000260045
7.12198e-06
0.000603872
0.00527168
0.00386271
0.000512434
0.00538049
0.00397908
0.000737737
0.00551217
0.00394215
0.000308438
0.00554915
0.00385611
0.000503998
0.00576313
0.00392753
0.000544257
0.00583471
0.0038478
0.000191152
0.00607655
0.00364451
0.000254687
0.0061389
0.00360931
0.000267172
0.00629353
0.00361512
0.000535394
0.00622926
0.00369587
0.000320092
0.00638423
0.00345763
0.000311055
0.00652147
0.00343596
0.00014486
0.00678484
0.00345001
0.000181999
0.00662425
0.00356417
0.000379897
0.00628861
0.00346183
8.27677e-05
0.00633075
0.002922
6.2667e-05
0.00637108
0.0029659
-7.28331e-05
0.00631049
0.00302432
-7.01734e-05
0.0059561
0.00302799
-0.000106247
0.00545107
0.00281861
-4.78708e-05
0.00509935
0.00255781
9.78217e-05
0.0068573
0.00226038
-4.15792e-05
0.00612334
0.0023366
-6.6541e-05
0.0054006
0.00232947
-6.06401e-05
0.00447198
0.00212736
-6.78949e-05
0.00394066
0.00199336
-0.000248594
0.00374198
0.00182467
-7.87706e-05
0.00289043
0.00133194
0.000152186
0.00495801
0.00147595
0.000227623
0.00402385
0.00119767
0.000140622
0.00316056
0.000894153
0.000144429
0.00216632
0.000498413
-2.77897e-05
0.00150307
0.000269157
-0.000232397
0.00137846
0.000386339
-0.000171558
0.0012674
0.000370641
-0.000171449
0.000471923
0.000300191
0.000266527
0.00270198
0.00060254
0.000243455
0.00229444
0.000276277
5.01881e-05
0.0014954
0.000273378
8.61217e-05
0.000514197
0.000264681
4.08915e-05
0.000499368
0.00023073
-2.47399e-05
0.000535426
0.000201423
-0.000114902
0.000499432
0.000215949
-8.15966e-05
0.000529674
0.000240723
3.53942e-05
0.000615458
0.000212118
6.5887e-05
0.00099553
0.000321138
7.81629e-05
0.00047128
0.000274948
5.66012e-05
0.000413131
0.000243159
0.000165666
0.000578348
0.00017849
0.000182314
0.00074293
0.000148218
0.000180325
0.000862286
0.000133261
0.000122613
0.000892259
0.000118306
0.000120717
0.000792012
0.000113103
0.000114924
0.000679099
0.000127043
7.36198e-05
0.000586226
0.000144594
7.81452e-06
0.000558953
0.000236222
3.41592e-05
0.000637377
0.000261145
0.000102772
0.000776001
0.000238638
0.000138103
0.000764806
0.000202504
0.000145249
0.000738704
0.00016193
0.000168556
0.000723052
0.000123585
0.00013849
0.00069516
0.000118856
0.000135763
0.000654104
0.000113006
0.000140311
0.000626009
9.94264e-05
0.000117649
0.000575168
0.000100262
8.32394e-05
0.000502616
0.00010771
4.29886e-05
0.00103205
0.000163567
5.47833e-05
0.000968265
0.000158854
7.83118e-05
0.00092406
0.000145552
0.000104169
0.000837456
0.000126762
9.61029e-05
0.000770713
0.000109981
9.73545e-05
0.000744799
9.97928e-05
0.000110465
0.000705432
8.38064e-05
0.000105821
0.000659178
7.1801e-05
9.16731e-05
0.000593016
6.80829e-05
8.84232e-05
0.000529816
6.78753e-05
6.93736e-05
0.000471998
7.30091e-05
5.60196e-05
0.000388139
8.25761e-05
1.55579e-05
0.00139644
0.000117603
5.93715e-05
0.00137105
0.000119363
6.02435e-05
0.00129886
0.000104103
7.76246e-05
0.00123947
8.73025e-05
0.000104779
0.00119358
7.46679e-05
8.76456e-05
0.0011183
6.82165e-05
8.05835e-05
0.000987836
6.26908e-05
8.90525e-05
0.000885163
4.96082e-05
9.51419e-05
0.000799021
4.00178e-05
7.51373e-05
0.000686485
3.77131e-05
5.74362e-05
0.000569912
3.95205e-05
5.29642e-05
0.000458493
4.28387e-05
4.30801e-05
0.000382807
4.8733e-05
8.70285e-07
0.00168574
8.10113e-05
3.68085e-05
0.00155207
8.30222e-05
7.50838e-06
0.00148601
7.99319e-05
3.26821e-05
0.0014088
7.8233e-05
4.83374e-05
0.00133789
7.24377e-05
5.08162e-05
0.00126364
6.68421e-05
4.92123e-05
0.00114964
6.18333e-05
4.91576e-05
0.0010026
5.74174e-05
5.13092e-05
0.000886919
4.37927e-05
4.46344e-05
0.000768129
3.36012e-05
4.8631e-05
0.000673771
2.14956e-05
5.13539e-05
0.000545133
1.81549e-05
5.11574e-05
0.000449979
1.80828e-05
4.28168e-05
0.000358464
2.32593e-05
-3.04827e-05
0.00182521
4.98439e-05
-1.61198e-05
0.00162322
4.53864e-05
-9.46816e-06
0.0015198
3.7852e-05
-3.31581e-06
0.00148371
3.49307e-05
5.09135e-06
0.00147344
3.45738e-05
1.04038e-05
0.0014242
3.4971e-05
1.34828e-05
0.00129389
3.40614e-05
1.79242e-05
0.00114437
3.2028e-05
2.09146e-05
0.0010082
3.06728e-05
3.2075e-05
0.0008659
2.97511e-05
3.53993e-05
0.000717258
2.67056e-05
3.73466e-05
0.000589968
2.0989e-05
4.00354e-05
0.000482999
1.49927e-05
3.67322e-05
0.000404573
1.28222e-05
3.23451e-05
0.000319817
1.27385e-05
-2.95493e-05
0.00229789
1.0516e-05
-2.30967e-05
0.00198544
1.01308e-05
-1.49902e-05
0.00176704
8.26106e-06
-8.24508e-06
0.00162308
6.70556e-06
1.8842e-06
0.00160726
7.81762e-06
8.24371e-06
0.00154559
8.62355e-06
8.49223e-06
0.00141155
8.62525e-06
1.24706e-05
0.00123584
8.6727e-06
1.52405e-05
0.00107235
9.00514e-06
1.72961e-05
0.000895939
9.56418e-06
1.87704e-05
0.000743742
1.02101e-05
1.98793e-05
0.000593487
1.04307e-05
1.91681e-05
0.000451486
9.59591e-06
1.70897e-05
0.000338937
8.10899e-06
1.4763e-05
0.000247689
6.37608e-06
1.33751e-05
0.000170842
5.46727e-06
0.000428784
0.0048154
0.00441655
0.000536601
0.00524515
0.00388618
0.00063208
0.00528367
0.00395653
0.000384273
0.00537508
0.00392817
0.000550188
0.0055007
0.00394436
0.000530367
0.00556477
0.0039519
0.000114398
0.00560441
0.00386097
0.000413913
0.00557673
0.00388329
0.000465482
0.00568913
0.00387479
0.000392326
0.00593997
0.00384851
0.000212188
0.00612404
0.00362932
0.000399073
0.00608613
0.00360926
0.000298193
0.00619691
0.0035526
0.000149632
0.0063065
0.00357024
0.000494498
0.00616821
0.00360649
0.000165822
0.0062159
0.00342887
0.000207357
0.00636582
0.00346859