/*--------------------------------*- C++ -*----------------------------------*\
  =========                 |
  \\      /  F ield         | OpenFOAM: The Open Source CFD Toolbox
   \\    /   O peration     | Website:  https://openfoam.org
    \\  /    A nd           | Version:  7
     \\/     M anipulation  |
\*---------------------------------------------------------------------------*/
FoamFile
{
    version     2.0;
    format      ascii;
    class       volVectorField;
    location    "1.5";
    object      U_0;
}
// * * * * * * * * * * * * * * * * * * * * * * * * * * * * * * * * * * * * * //

dimensions      [0 1 -1 0 0 0 0];

internalField   nonuniform List<vector> 
18870
(
(-1.37953 0.209429 0.177562)
(-1.21488 0.563267 0.395896)
(-1.34795 0.214305 0.204588)
(-1.14627 0.249583 0.22411)
(-0.806313 0.822519 0.791323)
(-1.15672 0.547698 0.426123)
(-1.08546 0.462996 0.339484)
(-1.32101 0.215025 0.198255)
(-1.14101 0.235585 0.183168)
(-0.931237 0.360184 0.185918)
(-0.636732 1.30439 0.740918)
(-0.876915 0.786001 0.661154)
(-0.652939 0.827438 0.633658)
(-1.11518 0.537818 0.429155)
(-1.04097 0.457381 0.349292)
(-0.892219 0.497117 0.237235)
(-1.28912 0.225374 0.225648)
(-1.11981 0.251289 0.213288)
(-0.916173 0.339893 0.186641)
(-0.770837 0.427537 0.133879)
(-0.18565 1.36522 0.742979)
(-0.619272 1.23656 0.71247)
(-0.578056 1.04716 0.670447)
(-0.907623 0.753195 0.575758)
(-0.656062 0.796271 0.594992)
(-0.516291 0.758801 0.513535)
(-1.08167 0.517611 0.431221)
(-1.0195 0.415051 0.353548)
(-0.852686 0.494164 0.247314)
(-0.616343 0.61022 0.262795)
(-1.26666 0.221476 0.224209)
(-1.099 0.255952 0.213553)
(-0.906998 0.337084 0.18182)
(-0.720037 0.46828 0.170291)
(-0.619059 0.557371 0.177833)
(0.462853 0.794956 0.587477)
(-0.174889 1.25822 0.742821)
(-0.155591 1.03887 0.675561)
(-0.615599 1.15399 0.659524)
(-0.565402 0.992847 0.652014)
(-0.419294 0.887925 0.566482)
(-0.93425 0.690722 0.523247)
(-0.675465 0.762814 0.550791)
(-0.483135 0.735592 0.505793)
(-0.437831 0.703829 0.380122)
(-1.02669 0.535844 0.427619)
(-0.973283 0.444242 0.342029)
(-0.843664 0.457582 0.240376)
(-0.616433 0.601082 0.243668)
(-0.501763 0.675891 0.26167)
(-1.23516 0.233038 0.231342)
(-1.0826 0.239763 0.221753)
(-0.89524 0.359928 0.186744)
(-0.712901 0.439693 0.189151)
(-0.631701 0.540053 0.170887)
(-0.537437 0.58959 0.189685)
(0.593636 1.03301 0.430254)
(0.413723 0.693662 0.482943)
(0.26724 0.694787 0.564922)
(-0.164161 1.1488 0.749703)
(-0.12494 0.965712 0.673936)
(-0.0489342 0.781736 0.603811)
(-0.642488 1.05035 0.624657)
(-0.563139 0.939141 0.62851)
(-0.407305 0.858878 0.555297)
(-0.248466 0.82898 0.451759)
(-0.869356 0.708621 0.495308)
(-0.685767 0.718917 0.52481)
(-0.506293 0.697603 0.491432)
(-0.426113 0.692158 0.384363)
(-0.328911 0.708841 0.350132)
(-1.01072 0.493253 0.425456)
(-0.962617 0.367857 0.385177)
(-0.796659 0.455866 0.262707)
(-0.60604 0.587039 0.250543)
(-0.507194 0.660143 0.253691)
(-0.449838 0.667991 0.271829)
(-1.22641 0.233227 0.235462)
(-1.07083 0.270251 0.19794)
(-0.876852 0.355155 0.203857)
(-0.730431 0.452642 0.170992)
(-0.59895 0.55824 0.196181)
(-0.542664 0.584808 0.185373)
(-0.405009 0.578081 0.229758)
(0.668652 1.12849 0.817977)
(0.462493 0.922506 0.439016)
(0.6054 0.441119 0.700533)
(0.364141 0.610822 0.408226)
(0.279956 0.628735 0.441365)
(0.148125 0.723856 0.461356)
(-0.188238 1.04247 0.731282)
(-0.104438 0.896033 0.654343)
(-0.0396697 0.731523 0.582814)
(0.019476 0.689957 0.527023)
(-0.696842 0.936175 0.57878)
(-0.566601 0.872946 0.61609)
(-0.41671 0.8205 0.548376)
(-0.280673 0.786474 0.447743)
(-0.19971 0.758432 0.381475)
(-0.8834 0.630253 0.483499)
(-0.69269 0.682013 0.499951)
(-0.550005 0.663912 0.464126)
(-0.423147 0.660512 0.4006)
(-0.367413 0.678767 0.358791)
(-0.28555 0.67347 0.364236)
(-0.997051 0.492479 0.405751)
(-0.902599 0.468553 0.270482)
(-0.756509 0.458153 0.277817)
(-0.602857 0.571556 0.242919)
(-0.506701 0.647707 0.259628)
(-0.448582 0.652436 0.271603)
(-0.367832 0.607426 0.279386)
(-1.2035 0.25188 0.264029)
(-1.04412 0.260921 0.232599)
(-0.847938 0.36617 0.202047)
(-0.71062 0.463022 0.183899)
(-0.596551 0.559467 0.182752)
(-0.534211 0.58193 0.188645)
(-0.417107 0.572857 0.210518)
(-0.312784 0.544614 0.199245)
(0.686897 1.73438 1.31446)
(0.518165 1.10299 0.867963)
(0.669044 0.814646 0.458638)
(0.349554 0.847167 0.461845)
(0.483801 0.417748 0.624229)
(0.61915 0.297962 0.586527)
(0.327852 0.541491 0.372714)
(0.278588 0.559326 0.367314)
(0.0873918 0.636533 0.37718)
(0.153832 0.662845 0.377236)
(-0.167429 0.965665 0.641781)
(-0.120887 0.827605 0.599187)
(-0.00478519 0.711167 0.52392)
(0.0354045 0.653387 0.499516)
(0.0325421 0.647297 0.466822)
(-0.602873 0.894509 0.553705)
(-0.554281 0.818619 0.583953)
(-0.440307 0.768489 0.539692)
(-0.322066 0.742271 0.445551)
(-0.248525 0.716464 0.379617)
(-0.211929 0.665747 0.369495)
(-0.892477 0.619153 0.418748)
(-0.705858 0.635814 0.488062)
(-0.580775 0.628687 0.445277)
(-0.453004 0.63829 0.393077)
(-0.368579 0.667761 0.359426)
(-0.287694 0.660886 0.354887)
(-0.218952 0.598009 0.342846)
(-0.996739 0.464458 0.396225)
(-0.881949 0.352987 0.394268)
(-0.740927 0.446504 0.28972)
(-0.588641 0.559746 0.260548)
(-0.506184 0.636387 0.251304)
(-0.444949 0.640973 0.269818)
(-0.361298 0.59758 0.279341)
(-0.252426 0.548438 0.275937)
(-1.18514 0.253983 0.24125)
(-1.02644 0.270962 0.233786)
(-0.846176 0.37345 0.194642)
(-0.680252 0.455183 0.192597)
(-0.603433 0.554017 0.177158)
(-0.504349 0.590797 0.201891)
(-0.421549 0.576744 0.204871)
(-0.325382 0.543805 0.188724)
(-0.189058 0.51937 0.213212)
(0.564388 2.59636 2.18549)
(0.461776 1.70178 1.42838)
(0.833243 1.28971 1.05801)
(0.374081 1.08671 0.918926)
(0.468016 0.794354 0.461966)
(0.504345 0.567688 0.213069)
(0.262825 0.779154 0.457165)
(0.358306 0.332541 0.590085)
(0.541324 0.254574 0.484771)
(0.527575 0.376706 0.522119)
(0.30249 0.486141 0.349449)
(0.236769 0.513678 0.324049)
(0.0561825 0.572198 0.318552)
(0.139764 0.60808 0.299417)
(0.211073 0.557514 0.315959)
(-0.131529 0.900587 0.522773)
(-0.0568478 0.793165 0.506601)
(-0.00826331 0.685533 0.464083)
(0.0507881 0.635664 0.431184)
(0.0482607 0.605885 0.416482)
(0.00702461 0.580781 0.398228)
(-0.598973 0.76149 0.569598)
(-0.507075 0.755852 0.582531)
(-0.436618 0.722125 0.529612)
(-0.357736 0.689236 0.45338)
(-0.269916 0.672896 0.385246)
(-0.198197 0.646671 0.36186)
(-0.170226 0.592856 0.364219)
(-0.913861 0.518452 0.447015)
(-0.751637 0.578002 0.445494)
(-0.582002 0.601387 0.444179)
(-0.470512 0.622318 0.385714)
(-0.340704 0.661196 0.358793)
(-0.264682 0.653262 0.345656)
(-0.24262 0.581661 0.330315)
(-0.200047 0.514152 0.30818)
(-0.977662 0.454966 0.391821)
(-0.884579 0.385428 0.38636)
(-0.725965 0.442694 0.292727)
(-0.578524 0.553337 0.260871)
(-0.481164 0.630447 0.259941)
(-0.44686 0.62554 0.259385)
(-0.352317 0.591531 0.277438)
(-0.255393 0.541738 0.275583)
(-0.175333 0.489149 0.263262)
(-1.18296 0.270415 0.234366)
(-1.03237 0.284143 0.219465)
(-0.843803 0.37402 0.192221)
(-0.678259 0.467162 0.191884)
(-0.605056 0.542762 0.182611)
(-0.493456 0.598393 0.201251)
(-0.440052 0.571096 0.191187)
(-0.333547 0.543087 0.183066)
(-0.205083 0.51535 0.203215)
(-0.0975893 0.464216 0.220093)
(0.107424 3.26863 2.86777)
(0.0163672 2.74946 2.37652)
(0.517371 2.1585 2.15355)
(0.225382 1.7637 1.52388)
(0.599694 1.40118 1.15335)
(0.56266 1.08494 0.849104)
(0.270494 1.09684 0.969187)
(0.291223 0.803056 0.477922)
(0.302209 0.559079 0.194107)
(0.459102 0.168124 0.219305)
(0.185458 0.695954 0.455683)
(0.281825 0.322921 0.559021)
(0.51468 0.238794 0.47128)
(0.462216 0.341088 0.445283)
(0.39588 0.390285 0.430491)
(0.269971 0.449848 0.346038)
(0.199338 0.478898 0.313166)
(0.0162015 0.524196 0.290809)
(0.108178 0.568874 0.255655)
(0.197134 0.542019 0.235907)
(0.220821 0.506878 0.255635)
(-0.154658 0.81306 0.448304)
(-0.137077 0.719723 0.452339)
(0.00772158 0.666389 0.399953)
(0.0541021 0.599814 0.377781)
(0.0452617 0.572152 0.340755)
(0.0379276 0.549467 0.322915)
(0.0335801 0.494471 0.306555)
(-0.561543 0.705029 0.559341)
(-0.54023 0.674772 0.571888)
(-0.498721 0.624458 0.53028)
(-0.380566 0.639989 0.454595)
(-0.272491 0.633748 0.390015)
(-0.217509 0.603888 0.364276)
(-0.17872 0.562399 0.352767)
(-0.128437 0.518194 0.337072)
(-0.845148 0.572466 0.380089)
(-0.743537 0.542853 0.441306)
(-0.610204 0.570898 0.414655)
(-0.475642 0.60874 0.378014)
(-0.345126 0.645966 0.358128)
(-0.272335 0.635966 0.334476)
(-0.250262 0.573009 0.316264)
(-0.211339 0.503844 0.304736)
(-0.143262 0.458993 0.280048)
(-0.949359 0.450126 0.388425)
(-0.840092 0.408869 0.364825)
(-0.687024 0.453665 0.294532)
(-0.525956 0.583728 0.263843)
(-0.509248 0.599228 0.247141)
(-0.431417 0.61575 0.26317)
(-0.347827 0.583729 0.275015)
(-0.248632 0.540335 0.2715)
(-0.180149 0.486089 0.257968)
(-0.104594 0.43462 0.244365)
(-1.19168 0.250118 0.218645)
(-1.01873 0.27603 0.20197)
(-0.829106 0.369273 0.191258)
(-0.694066 0.458543 0.174881)
(-0.57772 0.562829 0.193474)
(-0.51089 0.591801 0.190798)
(-0.447657 0.568047 0.189661)
(-0.336318 0.541559 0.180148)
(-0.201463 0.514456 0.20495)
(-0.0988265 0.464411 0.219192)
(-0.023673 0.408443 0.229786)
(-0.318284 3.43624 3.04897)
(-0.659688 3.38258 3.02833)
(0.225004 3.20843 2.8286)
(-0.645576 2.69523 2.51171)
(-0.155793 2.33508 2.41244)
(0.196956 2.04745 1.98067)
(-0.106925 1.91185 1.54711)
(0.315621 1.54011 1.23687)
(0.395865 1.1685 0.976096)
(0.510995 0.680041 0.714861)
(0.0877541 1.11318 0.98738)
(0.13895 0.847986 0.439388)
(0.160671 0.563778 0.207171)
(0.361866 0.145676 0.23103)
(0.368296 -0.0145592 0.253508)
(0.0316198 0.600885 0.464944)
(0.246469 0.308466 0.525587)
(0.460129 0.226273 0.460275)
(0.417145 0.339772 0.406081)
(0.291277 0.39787 0.371241)
(0.239186 0.399719 0.34544)
(0.212716 0.415949 0.354771)
(0.151294 0.434885 0.339553)
(0.00454913 0.469463 0.307274)
(0.049563 0.524727 0.263632)
(0.153169 0.509826 0.221394)
(0.197052 0.481012 0.215182)
(0.143885 0.439193 0.277448)
(-0.202304 0.728572 0.390174)
(-0.106597 0.683226 0.38779)
(-0.0368307 0.627619 0.362599)
(0.0336014 0.57593 0.327689)
(0.044272 0.535079 0.295449)
(0.0316581 0.520242 0.256874)
(0.0514809 0.479467 0.241401)
(0.0909024 0.431728 0.229478)
(-0.584781 0.57581 0.567762)
(-0.568778 0.580761 0.574929)
(-0.447945 0.613564 0.512993)
(-0.37736 0.596451 0.450106)
(-0.273817 0.610126 0.369266)
(-0.174513 0.599482 0.33953)
(-0.152126 0.540849 0.330341)
(-0.158025 0.4811 0.324889)
(-0.0985633 0.445758 0.306808)
(-0.79529 0.533384 0.389892)
(-0.706343 0.554295 0.418097)
(-0.588532 0.568756 0.402852)
(-0.475141 0.599528 0.368083)
(-0.358975 0.632537 0.354296)
(-0.313702 0.604815 0.330603)
(-0.267931 0.555401 0.308557)
(-0.203245 0.506969 0.289613)
(-0.107967 0.462818 0.26842)
(-0.0498698 0.397668 0.241234)
(-0.948791 0.405072 0.376862)
(-0.803834 0.378651 0.364365)
(-0.685192 0.434728 0.308297)
(-0.56177 0.534993 0.279062)
(-0.474102 0.609681 0.260056)
(-0.422627 0.611765 0.266701)
(-0.343474 0.576885 0.275284)
(-0.246314 0.536657 0.264773)
(-0.170667 0.484745 0.254265)
(-0.103459 0.433165 0.241218)
(-0.014115 0.381534 0.229776)
(-1.19533 0.240363 0.223268)
(-0.996016 0.295242 0.20425)
(-0.808889 0.390827 0.195123)
(-0.685981 0.449672 0.172539)
(-0.599728 0.548666 0.16061)
(-0.519013 0.587314 0.185474)
(-0.442754 0.570999 0.194856)
(-0.312277 0.549192 0.19629)
(-0.204761 0.514246 0.199526)
(-0.100997 0.464412 0.216386)
(-0.0226631 0.408589 0.228609)
(0.0338334 0.339812 0.240275)
(-0.112274 3.1033 3.05699)
(-0.463133 3.43036 3.05757)
(-0.348428 3.44995 3.11542)
(-0.71665 3.34858 3.00252)
(-0.623517 3.16316 3.10129)
(-0.0437949 3.10092 2.87382)
(-0.827594 2.58597 2.878)
(-0.559794 2.4469 2.58257)
(-0.327454 2.1281 2.26095)
(0.313838 1.51795 2.12757)
(-0.21368 2.05391 1.56907)
(0.0333405 1.65691 1.30772)
(0.12862 1.27648 1.11541)
(0.246725 0.69459 0.718771)
(0.157041 0.504939 0.718479)
(0.00109437 1.125 1.03499)
(0.0027156 0.868517 0.439299)
(-0.00231409 0.599472 0.195929)
(0.241321 0.1545 0.246065)
(0.249026 0.0394506 0.246943)
(0.268812 -0.00886544 0.248468)
(-0.102702 0.510633 0.497688)
(0.143874 0.281236 0.517314)
(0.366681 0.23524 0.449605)
(0.354332 0.349639 0.365973)
(0.248718 0.417591 0.300562)
(0.185111 0.406775 0.30038)
(0.0746416 0.371016 0.314447)
(0.152615 0.39316 0.364753)
(0.0914147 0.395941 0.378779)
(-0.0182505 0.434156 0.337047)
(0.0165736 0.477037 0.301314)
(0.0998392 0.472914 0.248439)
(0.166723 0.46243 0.196641)
(0.132315 0.434534 0.222641)
(0.0943724 0.375278 0.272817)
(-0.215143 0.645022 0.379761)
(-0.108215 0.631827 0.369918)
(-0.0312001 0.598836 0.33235)
(0.010531 0.534636 0.308573)
(-0.00210053 0.502817 0.274157)
(0.0294365 0.479774 0.245255)
(0.0249633 0.447425 0.221685)
(0.09113 0.411127 0.200338)
(0.146846 0.375677 0.182876)
(-0.591651 0.509435 0.528787)
(-0.561622 0.525124 0.529795)
(-0.507536 0.516254 0.484375)
(-0.347201 0.587235 0.404403)
(-0.2993 0.569805 0.362739)
(-0.212416 0.565539 0.324933)
(-0.159132 0.517632 0.303761)
(-0.126447 0.460933 0.302658)
(-0.101574 0.422317 0.286552)
(-0.0181077 0.37843 0.248976)
(-0.822154 0.483296 0.399679)
(-0.728147 0.501535 0.406209)
(-0.620477 0.523205 0.390201)
(-0.470582 0.588865 0.366808)
(-0.378131 0.615381 0.34289)
(-0.32903 0.590493 0.321638)
(-0.272027 0.545087 0.300937)
(-0.165889 0.514576 0.272941)
(-0.104947 0.467098 0.24861)
(-0.0488015 0.395279 0.23212)
(-0.000810695 0.340182 0.210686)
(-0.924492 0.4098 0.373264)
(-0.810052 0.372173 0.36468)
(-0.685886 0.434812 0.305706)
(-0.56747 0.526131 0.274846)
(-0.49082 0.586191 0.25077)
(-0.428078 0.602036 0.260871)
(-0.340153 0.572265 0.269847)
(-0.244712 0.529021 0.262107)
(-0.183101 0.48017 0.243149)
(-0.0926089 0.435651 0.235988)
(-0.00238211 0.383305 0.223599)
(0.0361099 0.319796 0.227483)
(-1.1666 0.263404 0.249647)
(-0.99832 0.29631 0.210293)
(-0.807855 0.398931 0.194956)
(-0.671076 0.464165 0.164327)
(-0.565247 0.572891 0.180777)
(-0.534236 0.5778 0.177951)
(-0.421054 0.58325 0.202411)
(-0.292426 0.558512 0.199992)
(-0.207857 0.513635 0.195317)
(-0.0977243 0.464084 0.216245)
(-0.0207374 0.407881 0.228791)
(0.0346961 0.339731 0.239437)
(0.0752503 0.268215 0.243956)
(-0.14437 2.80683 3.03838)
(-0.419953 2.98727 3.05349)
(-0.00665909 3.17542 3.03646)
(-0.606311 3.25516 3.08677)
(-0.299102 3.37845 3.14196)
(-0.43249 3.32262 3.30365)
(-0.921842 3.09415 3.03244)
(-0.815715 3.03468 3.15767)
(-0.679348 3.04494 3.03656)
(-0.112205 2.78347 2.90879)
(-1.16091 2.88396 2.52096)
(-0.795041 2.57664 2.62363)
(-0.571136 2.18202 2.57692)
(0.169305 1.73489 2.31564)
(-0.0144801 1.67624 1.98395)
(-0.545707 2.11263 1.67134)
(-0.165415 1.7541 1.37252)
(-0.137872 1.34347 1.23976)
(0.108891 0.723147 0.771139)
(-0.116026 0.471048 0.516946)
(-0.0299801 0.498118 0.564807)
(-0.190298 1.16133 1.05892)
(-0.115538 0.930729 0.440727)
(-0.193925 0.60121 0.225761)
(0.150602 0.183082 0.2718)
(0.168945 0.10929 0.256653)
(0.174663 0.0640249 0.258493)
(0.149125 0.0458138 0.262425)
(-0.224559 0.434125 0.525355)
(0.0503499 0.245662 0.51674)
(0.253396 0.248173 0.45528)
(0.283583 0.36077 0.330292)
(0.174189 0.436714 0.260611)
(0.0975416 0.432887 0.276511)
(0.0716169 0.395525 0.292549)
(0.117483 0.346519 0.269457)
(0.0862563 0.372337 0.379482)
(0.0322024 0.37805 0.409975)
(-0.0617339 0.412938 0.375822)
(-0.0127713 0.45538 0.329696)
(0.0609707 0.453246 0.276549)
(0.133003 0.448159 0.218163)
(0.107281 0.418806 0.218151)
(0.0720662 0.378707 0.238912)
(0.0905453 0.352823 0.213004)
(-0.246293 0.564458 0.382937)
(-0.176574 0.562446 0.35727)
(-0.0547673 0.552495 0.336778)
(-0.0314513 0.49391 0.312157)
(-0.0143009 0.460782 0.275115)
(-0.0498169 0.446864 0.242762)
(0.0203421 0.425554 0.207974)
(0.0796246 0.39709 0.179132)
(0.137397 0.3577 0.166653)
(0.192145 0.319265 0.141078)
(-0.51207 0.513161 0.504765)
(-0.480561 0.533149 0.482223)
(-0.34121 0.597199 0.404935)
(-0.323394 0.56757 0.373322)
(-0.260964 0.576351 0.328063)
(-0.238835 0.53837 0.303325)
(-0.173452 0.492938 0.283172)
(-0.11504 0.449936 0.271361)
(-0.0671226 0.412543 0.263076)
(-0.00952637 0.367318 0.213257)
(0.0723234 0.30833 0.158799)
(-0.805478 0.482377 0.349506)
(-0.673533 0.519922 0.403982)
(-0.559881 0.545872 0.374196)
(-0.46781 0.574878 0.357003)
(-0.372253 0.60488 0.33774)
(-0.319564 0.590213 0.306615)
(-0.252735 0.55118 0.282715)
(-0.161964 0.50979 0.261419)
(-0.0902 0.46593 0.240405)
(-0.0533546 0.393299 0.220912)
(0.000602477 0.341423 0.192456)
(0.0736224 0.289286 0.148718)
(-0.897835 0.403475 0.367229)
(-0.79963 0.364372 0.367923)
(-0.656534 0.441362 0.303126)
(-0.533515 0.544837 0.25762)
(-0.476757 0.589686 0.23055)
(-0.425406 0.592099 0.251874)
(-0.336757 0.566804 0.259182)
(-0.251416 0.525084 0.247399)
(-0.164201 0.477422 0.253435)
(-0.0859756 0.436316 0.234195)
(-0.00125876 0.383326 0.221194)
(0.0309719 0.318241 0.225474)
(0.0940825 0.268562 0.194312)
(-1.15896 0.273864 0.218895)
(-0.984667 0.302951 0.216353)
(-0.81644 0.380087 0.181905)
(-0.676203 0.465147 0.159633)
(-0.5912 0.54822 0.15785)
(-0.52293 0.585437 0.191728)
(-0.408996 0.589778 0.204904)
(-0.296958 0.556014 0.193926)
(-0.206789 0.512624 0.196369)
(-0.099635 0.464322 0.212953)
(-0.019745 0.40852 0.225504)
(0.0360985 0.340718 0.237436)
(0.0749055 0.267935 0.242252)
(0.103391 0.205107 0.232522)
(-0.204338 2.62815 2.90424)
(-0.266885 2.80613 3.0418)
(-0.116914 2.77613 3.09897)
(-0.869709 2.88387 3.03232)
(-0.35669 3.02069 3.06314)
(-0.267506 3.09026 3.14873)
(-1.01333 3.15291 3.04852)
(-0.801569 3.0835 3.23952)
(-0.491983 3.28545 3.24878)
(-0.531397 3.2811 3.33241)
(-1.25082 2.92062 3.01444)
(-0.997205 2.96862 3.11098)
(-0.761985 2.95716 3.10013)
(-0.672846 2.69471 3.04354)
(-0.350846 2.44723 2.95722)
(-1.33692 2.87415 2.47337)
(-1.11409 2.61051 2.57295)
(-0.806793 2.33297 2.6742)
(-0.255317 1.92425 2.41858)
(-0.328058 1.83351 2.17606)
(-0.16409 1.69749 1.78631)
(-0.965524 2.08684 1.82985)
(-0.464473 1.79659 1.47359)
(-0.315883 1.4076 1.32386)
(-0.158549 0.830135 0.817588)
(-0.230185 0.504079 0.419278)
(-0.283017 0.525119 0.582076)
(-0.342238 0.479694 0.493624)
(-0.357402 1.19811 1.15405)
(-0.288008 0.982021 0.449001)
(-0.298076 0.623571 0.243398)
(0.084378 0.233365 0.305958)
(0.120269 0.182379 0.293491)
(0.0956319 0.159978 0.273148)
(0.0969408 0.133256 0.26705)
(0.0792728 0.159678 0.320461)
(-0.32499 0.356436 0.544962)
(-0.0704299 0.193779 0.515413)
(0.178546 0.250671 0.456231)
(0.192275 0.361537 0.350183)
(0.116653 0.435026 0.241062)
(0.0260249 0.452097 0.262277)
(0.0166057 0.424295 0.26302)
(0.108876 0.392653 0.227764)
(0.176186 0.330062 0.230301)
(-0.000797977 0.342526 0.402934)
(-0.0276662 0.359978 0.449059)
(-0.10884 0.378564 0.43512)
(-0.0657022 0.410876 0.381786)
(0.0150149 0.425643 0.309813)
(0.0748411 0.441725 0.23731)
(0.0762658 0.410865 0.224887)
(0.045409 0.365852 0.232064)
(0.0703525 0.351882 0.196192)
(0.059543 0.302367 0.19413)
(-0.335079 0.436007 0.396118)
(-0.193992 0.468951 0.407297)
(-0.116863 0.500954 0.351105)
(-0.0536381 0.463926 0.32212)
(-0.0402012 0.42289 0.295311)
(0.00403857 0.41639 0.25322)
(-0.00643854 0.405431 0.210274)
(0.0701074 0.382957 0.17281)
(0.105996 0.340981 0.160745)
(0.157506 0.310595 0.141078)
(0.133439 0.261239 0.155092)
(-0.50616 0.481465 0.455779)
(-0.497779 0.511607 0.408104)
(-0.413758 0.521932 0.36176)
(-0.270015 0.602285 0.29724)
(-0.249177 0.582998 0.281464)
(-0.185149 0.556202 0.252424)
(-0.142169 0.494499 0.241071)
(-0.0599167 0.460061 0.214261)
(0.00608264 0.436932 0.185783)
(0.0504088 0.374011 0.151147)
(0.0775476 0.307593 0.127981)
(0.0920663 0.243929 0.129439)
(-0.684228 0.539317 0.367988)
(-0.649994 0.519685 0.35578)
(-0.506236 0.558874 0.366194)
(-0.440269 0.573492 0.344418)
(-0.38147 0.589669 0.315341)
(-0.32167 0.576686 0.288799)
(-0.237416 0.551897 0.262847)
(-0.146928 0.510963 0.242778)
(-0.133566 0.439484 0.243335)
(-0.0772451 0.377807 0.223161)
(0.000797739 0.343089 0.170945)
(0.0768871 0.293526 0.11359)
(0.0967178 0.243167 0.0969503)
(-0.885648 0.364085 0.358864)
(-0.795092 0.318453 0.355749)
(-0.630566 0.441246 0.295167)
(-0.524117 0.535127 0.24809)
(-0.481335 0.570319 0.244142)
(-0.414616 0.586883 0.254466)
(-0.330707 0.559432 0.261239)
(-0.252605 0.51228 0.26241)
(-0.154402 0.486902 0.238984)
(-0.0784235 0.441195 0.225934)
(-0.00833622 0.381559 0.22256)
(0.0357688 0.318906 0.21631)
(0.0955904 0.270877 0.172016)
(0.117823 0.226892 0.140409)
(-1.15659 0.278232 0.232708)
(-0.968696 0.323913 0.222323)
(-0.822176 0.370269 0.190942)
(-0.675679 0.456952 0.154444)
(-0.607699 0.536377 0.145292)
(-0.507958 0.59825 0.194374)
(-0.40875 0.590609 0.198718)
(-0.296283 0.554876 0.192406)
(-0.201072 0.513303 0.195578)
(-0.101363 0.464206 0.210609)
(-0.0224136 0.408413 0.22333)
(0.036972 0.341554 0.235804)
(0.0739533 0.267376 0.240489)
(0.0967019 0.204164 0.22343)
(0.095053 0.147684 0.19352)
(0.00055999 2.5668 2.57404)
(-0.29527 2.55582 2.90279)
(-0.00379141 2.68107 2.88156)
(-0.514939 2.68019 2.99639)
(-0.281317 2.80083 3.0609)
(-0.157305 2.82533 3.05108)
(-0.802189 2.84467 3.04673)
(-0.77477 2.89177 3.0778)
(-0.596541 2.97196 3.09808)
(0.0380677 3.00818 3.16388)
(-0.981898 3.01402 3.10682)
(-0.840098 3.14088 3.19181)
(-0.757421 3.16624 3.22397)
(-0.395331 3.14747 3.33826)
(-0.259704 3.03807 3.39041)
(-1.41808 2.76389 2.91995)
(-1.20762 2.91195 2.96958)
(-1.13456 2.8679 3.04116)
(-0.906099 2.69555 3.09455)
(-0.725123 2.48155 3.04435)
(-0.583889 2.36336 2.68493)
(-1.44034 3.03354 2.35587)
(-1.22848 2.64611 2.59404)
(-1.00222 2.37825 2.70788)
(-0.522531 2.02156 2.49197)
(-0.409643 1.82743 2.28172)
(-0.399452 1.75361 2.06546)
(-0.0717252 1.333 1.82585)
(-1.25113 2.04458 1.96451)
(-0.703458 1.81714 1.5937)
(-0.529104 1.42456 1.38196)
(-0.35472 0.921018 0.837371)
(-0.31148 0.597434 0.388921)
(-0.450946 0.546523 0.507603)
(-0.464473 0.515163 0.500593)
(-0.299749 0.150642 0.401266)
(-0.56434 1.21362 1.21798)
(-0.416962 1.0329 0.454827)
(-0.39957 0.629206 0.25467)
(0.020032 0.277191 0.378426)
(0.0806268 0.263604 0.334706)
(0.0762612 0.262768 0.300225)
(0.0463727 0.222996 0.283054)
(0.0185098 0.225999 0.336591)
(-0.051143 0.278973 0.338566)
(-0.396916 0.310472 0.554851)
(-0.124379 0.187206 0.490604)
(0.0504973 0.261371 0.444906)
(0.121963 0.373396 0.351848)
(0.0360375 0.423006 0.250097)
(0.00291372 0.459819 0.24383)
(-0.0172946 0.449793 0.222283)
(0.0980635 0.420792 0.187213)
(0.180838 0.373478 0.194707)
(0.137142 0.300564 0.24466)
(-0.0461043 0.330353 0.409926)
(-0.0908609 0.330695 0.484571)
(-0.140321 0.381917 0.46882)
(-0.0982757 0.391867 0.424808)
(-0.0308417 0.404771 0.337167)
(0.072388 0.42242 0.25387)
(0.0590687 0.399012 0.232393)
(0.0334467 0.356397 0.229797)
(0.0292106 0.336789 0.198465)
(0.0554164 0.301594 0.191116)
(0.0649407 0.258113 0.20507)
(-0.370797 0.360198 0.398667)
(-0.27554 0.421503 0.389556)
(-0.178162 0.453609 0.368325)
(-0.0881747 0.45511 0.311869)
(-0.0843631 0.414375 0.279791)
(-0.0412623 0.396917 0.261446)
(-0.00655178 0.382883 0.221466)
(0.0351553 0.370924 0.178449)
(0.0573204 0.331313 0.159536)
(0.0843344 0.293868 0.155063)
(0.0789326 0.254477 0.16485)
(0.069583 0.201396 0.187078)
(-0.506939 0.500217 0.390155)
(-0.409011 0.559553 0.379629)
(-0.394205 0.522056 0.351964)
(-0.294702 0.558964 0.308874)
(-0.16538 0.615917 0.247457)
(-0.134671 0.574871 0.228861)
(-0.0965404 0.51136 0.207713)
(-0.0332244 0.471793 0.189609)
(0.0472208 0.450241 0.132406)
(0.0597351 0.3817 0.117547)
(0.0753431 0.309178 0.116089)
(0.0860648 0.245612 0.126328)
(0.0990687 0.200785 0.138426)
(-0.749246 0.432266 0.32916)
(-0.583968 0.538093 0.362702)
(-0.55887 0.504955 0.345996)
(-0.464971 0.53454 0.347462)
(-0.398026 0.543597 0.326668)
(-0.34008 0.539022 0.295378)
(-0.266135 0.516739 0.27102)
(-0.187635 0.471114 0.260541)
(-0.154517 0.413667 0.2512)
(-0.0799771 0.375645 0.197606)
(0.00258806 0.351049 0.120686)
(0.0692527 0.296268 0.0887)
(0.0953179 0.246941 0.0746586)
(0.108184 0.194858 0.0878229)
(-0.876397 0.33951 0.360499)
(-0.735228 0.37921 0.358227)
(-0.633583 0.430906 0.29052)
(-0.567792 0.480326 0.256549)
(-0.488556 0.556492 0.253174)
(-0.413355 0.583083 0.255442)
(-0.338496 0.552551 0.258388)
(-0.23918 0.524584 0.247007)
(-0.14984 0.489834 0.231409)
(-0.0811517 0.441171 0.222714)
(-0.0124749 0.380758 0.221956)
(0.0383848 0.32234 0.198754)
(0.0908024 0.27412 0.141406)
(0.103719 0.227543 0.109723)
(0.112616 0.178237 0.0963286)
(-1.15213 0.278781 0.226517)
(-0.973203 0.322384 0.22198)
(-0.821437 0.382468 0.201018)
(-0.695502 0.438243 0.139356)
(-0.608486 0.535792 0.14434)
(-0.500137 0.603468 0.1939)
(-0.415562 0.58493 0.191789)
(-0.298939 0.55331 0.188753)
(-0.19978 0.515266 0.195263)
(-0.101822 0.463763 0.20835)
(-0.0250571 0.406876 0.22247)
(0.0364974 0.34174 0.234935)
(0.0714546 0.266772 0.237753)
(0.0878621 0.202656 0.210971)
(0.0871322 0.147152 0.175069)
(0.0937869 0.102513 0.13147)
(-0.0948096 2.31007 2.72369)
(-0.227565 2.51342 2.58639)
(0.026558 2.54967 2.61575)
(-0.556988 2.53481 2.84919)
(-0.276817 2.64367 2.83843)
(-0.0383393 2.67339 2.85303)
(-0.809215 2.5309 2.98679)
(-0.462343 2.71008 3.01552)
(-0.29694 2.75758 3.06093)
(-0.230748 2.78146 2.99247)
(-0.944759 2.79684 3.02623)
(-0.771595 2.8571 3.06027)
(-0.730489 2.9362 3.03488)
(-0.648149 2.94107 3.04167)
(-0.100824 2.91463 3.11052)
(-1.17385 2.79933 3.13463)
(-1.11045 2.90667 3.20816)
(-1.04174 3.09965 3.13568)
(-0.817582 3.11181 3.15177)
(-0.57979 2.95069 3.248)
(-0.283026 2.89535 3.05896)
(-1.59294 2.64579 2.85386)
(-1.45368 2.6998 2.91928)
(-1.24304 2.78333 3.00093)
(-1.18591 2.64899 3.09807)
(-0.91095 2.53872 3.0247)
(-0.876888 2.37162 2.79169)
(-0.601461 2.2022 2.53044)
(-1.65178 2.95138 2.44427)
(-1.3823 2.71002 2.60743)
(-1.09791 2.46515 2.66614)
(-0.656289 2.15176 2.49983)
(-0.580447 1.82074 2.31604)
(-0.605881 1.7322 2.26748)
(-0.244567 1.44201 2.06717)
(-0.157551 1.04593 1.24859)
(-1.29546 2.12348 2.09455)
(-0.890615 1.83676 1.70991)
(-0.652904 1.43992 1.43267)
(-0.454593 1.02149 0.887273)
(-0.398146 0.696739 0.446775)
(-0.445753 0.613667 0.295211)
(-0.523361 0.520041 0.471384)
(-0.30636 0.20943 0.441102)
(0.0571487 0.106963 0.381726)
(-0.673829 1.20924 1.27169)
(-0.571144 1.03855 0.447746)
(-0.462837 0.573415 0.349082)
(-0.0716235 0.258004 0.528785)
(0.0617506 0.331634 0.396276)
(0.124857 0.360927 0.313426)
(0.0673409 0.317252 0.291197)
(-8.14747e-05 0.302771 0.339693)
(-0.0643868 0.304202 0.349928)
(-0.0612992 0.24743 0.271969)
(-0.483381 0.226246 0.57498)
(-0.206247 0.135996 0.490268)
(0.00359575 0.275026 0.437055)
(0.0304966 0.385025 0.338637)
(0.000423948 0.420022 0.247785)
(-0.0181199 0.460305 0.233207)
(-0.0306931 0.458506 0.204135)
(0.0690808 0.433011 0.178625)
(0.15984 0.381297 0.189506)
(0.136212 0.319779 0.228655)
(0.0805769 0.270944 0.2478)
(-0.124109 0.297392 0.412506)
(-0.154875 0.295301 0.508293)
(-0.18048 0.345294 0.5177)
(-0.120111 0.376038 0.464502)
(-0.070661 0.384653 0.371765)
(-0.0393928 0.387674 0.293788)
(0.0339065 0.38918 0.239963)
(0.0387559 0.349222 0.234219)
(0.032474 0.315573 0.218156)
(0.0482078 0.294232 0.197656)
(0.0379114 0.250907 0.2107)
(0.0475861 0.212352 0.2318)
(-0.414696 0.308871 0.382408)
(-0.29897 0.389878 0.3787)
(-0.202775 0.436704 0.367518)
(-0.14222 0.423916 0.32491)
(-0.0832564 0.394916 0.301403)
(-0.0928637 0.391291 0.247092)
(-0.0462704 0.370771 0.2234)
(0.0136072 0.360648 0.185243)
(0.0344381 0.320887 0.173085)
(0.0216 0.279029 0.17184)
(0.00367107 0.236811 0.180866)
(0.0300731 0.198919 0.195177)
(0.0177967 0.145267 0.221558)
(-0.505223 0.475397 0.400313)
(-0.438324 0.5601 0.323807)
(-0.440814 0.475194 0.348375)
(-0.314258 0.543169 0.289766)
(-0.210808 0.598803 0.23381)
(-0.136249 0.581943 0.211956)
(-0.0779315 0.5189 0.199121)
(-0.0326164 0.474151 0.182074)
(0.0537119 0.452054 0.119963)
(0.0390609 0.369796 0.1204)
(0.0498237 0.308057 0.121869)
(0.0663789 0.248569 0.136213)
(0.0886533 0.208022 0.145145)
(0.0709878 0.147038 0.175648)
(-0.75363 0.380598 0.351322)
(-0.634566 0.436746 0.359174)
(-0.579724 0.457986 0.354453)
(-0.511172 0.479377 0.343472)
(-0.451688 0.477196 0.33187)
(-0.389395 0.482559 0.305399)
(-0.299743 0.475175 0.28705)
(-0.223438 0.435947 0.271693)
(-0.170165 0.400791 0.244445)
(-0.0420726 0.395748 0.137226)
(0.0115585 0.357268 0.0985793)
(0.0622756 0.300712 0.0721547)
(0.0934025 0.249174 0.072176)
(0.104266 0.196063 0.089162)
(0.0971644 0.146881 0.120814)
(-0.86364 0.343284 0.359781)
(-0.73827 0.365821 0.344395)
(-0.64362 0.418594 0.288411)
(-0.580853 0.464697 0.254607)
(-0.49157 0.551806 0.251527)
(-0.424642 0.575246 0.250802)
(-0.345698 0.547833 0.255429)
(-0.236744 0.528041 0.237888)
(-0.15073 0.492568 0.222068)
(-0.0806663 0.439267 0.222242)
(-0.017622 0.379409 0.217836)
(0.0376456 0.325363 0.174567)
(0.0740218 0.271442 0.115159)
(0.0806882 0.22412 0.0843019)
(0.0905086 0.174975 0.0819948)
(0.0909399 0.12175 0.0977028)
(-1.15833 0.268207 0.223606)
(-0.970283 0.328151 0.226517)
(-0.803265 0.421407 0.213325)
(-0.684429 0.458446 0.154293)
(-0.60049 0.536705 0.152156)
(-0.501899 0.599932 0.197658)
(-0.421056 0.577458 0.187221)
(-0.299048 0.553076 0.186201)
(-0.197008 0.512406 0.193341)
(-0.102823 0.463247 0.204353)
(-0.0275445 0.406683 0.217628)
(0.0372579 0.342211 0.233675)
(0.0667974 0.265764 0.232739)
(0.0777914 0.200859 0.194995)
(0.0805035 0.146439 0.155446)
(0.0937655 0.103718 0.114887)
(0.0999269 0.0580018 0.118158)
(-0.203143 2.23042 2.62933)
(-0.234007 2.29277 2.72525)
(-0.101058 2.29613 2.82895)
(-0.41877 2.49034 2.59309)
(-0.23067 2.52429 2.62418)
(-0.167435 2.47568 2.7282)
(-0.78256 2.46655 2.8166)
(-0.505068 2.58004 2.8162)
(-0.307213 2.64865 2.84722)
(-0.155015 2.68352 2.84605)
(-1.00352 2.54069 2.95372)
(-0.603049 2.59885 3.01008)
(-0.457908 2.67469 3.01426)
(-0.396558 2.80223 2.96957)
(-0.147925 2.77032 3.00942)
(-1.2486 2.67495 3.02451)
(-0.934693 2.79191 3.06217)
(-0.736361 2.86137 3.01486)
(-0.707232 2.96419 2.94037)
(-0.465557 2.92706 2.98979)
(-0.0346363 2.75453 3.06307)
(-1.32773 2.68153 3.05347)
(-1.22872 2.78032 3.11321)
(-1.11169 2.87036 3.14591)
(-0.760622 2.95185 3.14777)
(-0.688376 2.9123 3.04602)
(-0.613253 2.68006 3.00481)
(-0.206672 2.48398 2.96197)
(-1.6158 2.63334 2.84333)
(-1.61935 2.62043 2.8943)
(-1.51839 2.62397 2.93142)
(-1.22125 2.60617 3.03701)
(-1.05194 2.53246 3.00599)
(-0.858107 2.41092 2.89206)