/*--------------------------------*- C++ -*----------------------------------*\
  =========                 |
  \\      /  F ield         | OpenFOAM: The Open Source CFD Toolbox
   \\    /   O peration     | Website:  https://openfoam.org
    \\  /    A nd           | Version:  7
     \\/     M anipulation  |
\*---------------------------------------------------------------------------*/
FoamFile
{
    version     2.0;
    format      ascii;
    class       surfaceScalarField;
    location    "5";
    object      phi;
}
// * * * * * * * * * * * * * * * * * * * * * * * * * * * * * * * * * * * * * //

dimensions      [0 3 -1 0 0 0 0];

internalField   nonuniform List<scalar> 
54095
(
0.000151137
-6.60223e-05
0.000924631
0.000346875
8.42327e-05
-0.00191746
0.000204633
-6.2095e-05
-0.000740916
0.000149318
-5.41039e-05
0.000829416
0.000765784
0.000261835
-0.00362324
0.000138214
0.000194525
-0.00287528
0.000247741
0.000153503
-0.00216939
1.40411e-05
-8.85341e-05
-0.000824177
0.000127502
-5.23291e-05
-0.000870193
0.000130903
-4.32459e-05
0.000741759
-0.000210616
0.000339671
-0.00523247
0.00099345
0.000595068
-0.00603605
0.000812791
0.000167564
-0.00435585
0.000151381
0.000166136
-0.00233544
-4.1143e-05
0.000239026
-0.00279216
0.000131946
0.000222419
-0.00239285
1.20941e-05
-8.49379e-05
-0.00122988
5.92789e-06
-8.49766e-05
-0.000797458
8.38644e-05
-4.55734e-05
-0.00095173
0.000116826
-3.21141e-05
0.000657047
-0.000763964
0.000494084
-0.0078258
0.00186169
0.00025066
-0.00540617
0.00016268
0.00049674
-0.0050791
0.000597449
0.000669403
-0.00337607
0.00103985
0.000664349
-0.00106636
0.000778194
0.000351368
-0.00535347
0.000107758
8.21097e-05
-0.0013168
0.000177381
0.000177139
-0.00244501
8.91464e-05
0.000274259
-0.00284928
-5.16389e-06
0.000245557
-0.00251642
3.27811e-05
-7.06003e-05
-0.000741901
8.38642e-06
-7.91679e-05
-0.00124408
2.30401e-06
-8.15708e-05
-0.000763764
5.81747e-05
-4.06065e-05
-0.00100141
9.81497e-05
-2.19581e-05
0.000580856
-0.000862852
0.000570956
-0.00715674
0.00142353
0.00137129
-0.0077417
-0.000460469
0.000439564
-0.00764221
0.00123215
-8.37082e-06
-0.00426999
0.00166099
0.000406458
-0.00593702
0.000335073
0.000541311
-0.00517729
0.00019725
0.000441339
-0.00283001
0.000682158
0.00065976
-0.00387626
0.00121495
0.000767651
-0.00260846
0.000717265
0.000163024
-0.00623892
0.000122502
-8.22771e-05
-0.00124023
0.00011705
8.45212e-05
-0.00133284
0.000202859
0.000185587
-0.00255689
7.16794e-05
0.000298406
-0.00291564
-0.000102832
0.000226855
-0.00254229
3.34609e-05
-7.02595e-05
-0.000496736
2.549e-05
-6.73989e-05
-0.00077916
4.21406e-06
-7.34784e-05
-0.00125638
-1.21371e-06
-7.78835e-05
-0.000725274
1.86338e-05
-3.69913e-05
-0.00100501
7.55791e-05
-1.3471e-05
0.000518747
-0.00118143
0.000125196
-0.00477696
0.000133496
0.00130141
-0.00725623
-0.00082859
0.000492336
-0.00728095
0.00131459
0.00122248
-0.00595388
0.00142985
0.00117672
-0.00824772
-0.000341584
0.000334089
-0.00729964
0.000536718
-0.000223978
-0.00399109
0.00125664
0.000105996
-0.004544
0.00132669
0.000617746
-0.00612519
0.000743282
0.000437944
-0.00564125
0.000285407
0.000324238
-0.00222736
0.000197667
0.000459138
-0.00271
0.000802264
0.00060607
-0.00431409
0.000879625
0.000626412
-0.00387979
0.000489832
0.000288452
-0.00712004
4.71298e-05
-0.000185802
-0.00111615
0.000121019
-8.14593e-05
-0.00116978
0.000134401
8.41645e-05
-0.00136161
0.000204874
0.000190562
-0.00265513
2.57109e-06
0.000297475
-0.0029702
-9.63996e-05
0.000204011
-0.00257432
2.95821e-05
-6.37289e-05
-0.000365222
3.49549e-05
-7.06674e-05
-0.000528422
1.86228e-05
-6.42832e-05
-0.000806978
1.02082e-06
-6.79837e-05
-0.00126731
-1.40442e-05
-7.44204e-05
-0.000673801
-1.40157e-05
-3.45713e-05
-0.000969896
5.44579e-05
-6.74243e-06
0.000471032
-0.00151213
0.000225518
-0.00377317
-0.000690984
0.000493227
-0.00595535
-0.00127745
7.44769e-05
-0.00440257
0.000588552
0.00125753
-0.00663994
0.000303959
0.00123859
-0.00687659
-0.000876234
0.000378021
-0.00712432
0.000856943
0.000748951
-0.00470204
0.00135814
0.000744617
-0.00562328
0.00102646
0.000648185
-0.00826158
-5.31141e-05
0.000353533
-0.00685678
0.000324843
-0.000102514
-0.00489948
0.00074729
-0.000173067
-0.00426165
0.00163512
0.000379222
-0.00513834
0.000756774
0.000864294
-0.00642869
0.000720666
0.000314598
-0.00618668
0.000220078
0.000310965
-0.00296884
0.000249516
0.000312925
-0.00220964
0.00038136
0.000447915
-0.00279881
0.000785475
0.000518223
-0.0047865
0.000577967
0.000518623
-0.00468536
0.000349202
0.000226266
-0.0077919
-8.75704e-07
-0.0001777
-0.000941054
4.41092e-05
-0.000185242
-0.00102152
0.000113814
-8.26094e-05
-0.0010982
0.000134505
7.78816e-05
-0.00138241
0.000191854
0.000195358
-0.00275891
-9.6124e-05
0.000284704
-0.00296878
-5.55125e-05
0.000194103
-0.00265846
2.31703e-05
-5.22835e-05
0.000139777
3.69925e-05
-6.68957e-05
-0.000405986
3.4834e-05
-7.19089e-05
-0.000555631
1.18171e-05
-6.10271e-05
-0.000825752
-4.58758e-06
-6.26467e-05
-0.00127449
-2.01459e-05
-7.0639e-05
-0.000617587
-4.43949e-05
-3.33459e-05
-0.000898898
3.24545e-05
-1.75003e-06
0.000440327
-0.00163431
2.75477e-05
-0.00372762
-0.000742381
0.000245718
-0.00500992
-0.00152635
0.000195074
-0.00371935
6.65705e-05
0.000797405
-0.00655991
-0.000759552
0.000564111
-0.00538147
-0.00119043
0.00011159
-0.00419997
0.000518064
0.00107206
-0.00681905
0.000884915
0.00116383
-0.00609196
0.000337791
0.00087924
-0.00668915
-0.000901437
0.000356703
-0.0066327
0.000238121
0.000542357
-0.00571766
0.00156524
0.000499036
-0.00527441
0.00207327
0.000591476
-0.00600472
0.000168527
0.00089543
-0.00821523
-0.000102037
0.000279746
-0.00631382
0.00020538
-9.1317e-05
-0.00578742
0.000274446
-8.36907e-05
-0.00501379
0.00069263
0.00015492
-0.00434861
0.00119967
0.000775677
-0.00546391
0.000193258
0.000855536
-0.00658492
0.000527579
0.000201437
-0.0065665
0.000218671
0.000216046
-0.00321326
0.000209249
0.000250594
-0.00307164
0.000281742
0.000285273
-0.00221493
0.000571169
0.000420532
-0.00313778
0.000762248
0.000441923
-0.00528019
0.000252024
0.000543471
-0.00535071
0.000185619
0.000319029
-0.00835207
-3.17042e-06
-0.000131061
-0.0010888
2.07964e-05
-0.000181905
-0.000928196
4.97126e-05
-0.000188668
-0.000930337
0.000112202
-9.10516e-05
-0.00102965
0.000101696
7.4214e-05
-0.00136755
0.000103991
0.000192905
-0.00279125
-0.000188833
0.000265131
-0.00289537
-0.000105041
0.000189671
-0.00271063
5.16408e-05
-6.67145e-05
6.36133e-05
4.10646e-05
-5.79774e-05
8.97939e-05
4.77266e-05
-7.1757e-05
-0.000453864
3.73451e-05
-7.35017e-05
-0.000580501
5.3877e-06
-5.85415e-05
-0.000835245
-1.18684e-05
-5.75095e-05
-0.00127575
-2.7872e-05
-6.73727e-05
-0.000555688
-6.65142e-05
-3.30279e-05
-0.000801106
1.84967e-05
1.46487e-06
0.000420366
-0.00168949
-1.49567e-05
-0.00312848
-0.000959711
0.000114932
-0.004301
-0.00161868
3.23629e-05
-0.00366765
2.00722e-05
0.000445251
-0.00568871
-0.000946578
0.000233242
-0.00486106
-0.00141088
0.000135426
-0.00363432
0.00020199
0.000957693
-0.00659992
0.000202493
0.000919894
-0.00623327
-0.000832763
0.000576218
-0.00467554
-0.00130259
0.000132514
-0.00393133
0.000195592
0.00111262
-0.00745848
0.0011971
0.00114121
-0.00642829
0.00141372
0.00105065
-0.00560382
-0.000503857
0.000666123
-0.00632618
-0.00105269
0.000379843
-0.00606189
0.000233336
0.000568648
-0.00713059
0.000455839
0.000773971
-0.00617398
0.000823346
0.00089179
-0.00570544
0.00114739
0.00110514
-0.00616216
-0.000286053
0.000795994
-0.00825217
-0.00017239
0.000238866
-0.00585272
0.00036014
-5.58324e-05
-0.00616183
0.000190806
-1.82275e-05
-0.00583444
0.00040837
5.43796e-05
-0.00503988
0.000954817
0.000477001
-0.00443359
0.000992258
0.000808115
-0.0056465
-0.00017803
0.000648987
-0.00660242
0.000132223
0.000146828
-0.00665993
0.000307192
8.7616e-05
-0.00300711
0.00024172
0.000151686
-0.00333527
0.000204332
0.000193453
-0.00313444
0.000376149
0.00023846
-0.0022968
0.000644243
0.000384402
-0.00362281
0.000591906
0.000456255
-0.00568089
0.000104121
0.000558185
-0.00588282
-3.23477e-05
0.000291467
-0.00871623
0.000113385
-0.000141568
-0.00136273
1.60745e-05
-0.000136788
-0.00110893
3.33519e-05
-0.000188409
-0.00091408
7.06766e-05
-0.000199895
-0.000854825
0.000105638
-9.75639e-05
-0.000958122
9.96722e-05
6.96891e-05
-0.00135587
2.84412e-05
0.000184029
-0.00276646
-0.000326856
0.000250822
-0.00269618
-0.000140139
0.00020276
-0.00275476
6.73995e-05
-0.000101568
-0.000193826
6.94318e-05
-7.33201e-05
9.52423e-06
5.80155e-05
-6.56466e-05
2.5668e-05
5.63214e-05
-7.79415e-05
-0.000505746
3.59283e-05
-7.55499e-05
-0.000599421
1.98557e-07
-5.61595e-05
-0.000836793
-2.02342e-05
-5.26378e-05
-0.00127025
-3.32527e-05
-6.48107e-05
-0.000490653
-8.12547e-05
-3.34064e-05
-0.00068498
-3.43065e-06
2.9969e-06
0.0004208
-5.08357e-05
-0.00311425
-0.00108302
1.56944e-05
-0.00389974
-0.00159996
-4.63712e-05
-0.00310083
-0.00035594
0.000316711
-0.00489544
-0.0010768
1.62911e-05
-0.00415471
-0.00159935
4.05295e-05
-0.00351971
-2.98577e-05
0.000671206
-0.00581987
-0.000272854
0.000492235
-0.00547236
-0.00121116
0.000217898
-0.00456514
-0.001442
0.000101035
-0.00359594
0.00018566
0.00102181
-0.00638873
0.000489978
0.00104726
-0.00602016
0.000179619
0.000920175
-0.00534313
-0.00112078
0.00042852
-0.00435463
-0.00135533
0.000114028
-0.00374272
0.000497013
0.000997635
-0.00758393
0.000432182
0.00119855
-0.00749217
0.000529477
0.00121404
-0.0062978
0.000641504
0.00107902
-0.00551083
-0.000645193
0.000499099
-0.0060863
-0.00116365
0.000395532
-0.00546617
0.00026882
0.000569812
-0.00742512
0.000167103
0.000677525
-0.00701044
0.00046941
0.00103501
-0.00637824
0.000983649
0.00113567
-0.0057648
0.00110786
0.00111611
-0.00659788
-0.000799287
0.000730568
-0.00812261
-0.000335437
0.000186711
-0.00557177
0.000668062
-2.0021e-05
-0.0059813
0.000339444
3.00254e-06
-0.00628078
0.00018806
5.3423e-05
-0.00581721
0.000575148
0.00017628
-0.00493815
0.00115638
0.000525241
-0.00466285
0.000757007
0.000837363
-0.00599998
-0.000266639
0.000495572
-0.0065804
-0.000146903
0.000114906
-0.00666028
0.000165361
-6.25551e-05
-0.00263908
0.00023689
7.10486e-05
-0.00314729
0.000251963
8.72347e-05
-0.00344767
0.000230051
8.12587e-05
-0.00313662
0.000428971
0.000176158
-0.00241189
0.000567631
0.000358389
-0.0039929
0.000339991
0.000494525
-0.00592878
-0.000182762
0.000499617
-0.00623506
-0.000339264
0.000351976
-0.00886908
0.000144985
-0.000194432
-0.00183227
0.000120479
-0.000140049
-0.00141052
2.80865e-05
-0.000143246
-0.00112416
6.75363e-05
-0.000195672
-0.000929518
7.67394e-05
-0.000205011
-0.000788189
8.33325e-05
-0.000103475
-0.000868092
0.000112645
5.80465e-05
-0.00136277
-1.06439e-05
0.000181975
-0.00272022
-0.000320836
0.000241709
-0.00249555
-0.000162241
0.000197788
-0.00279373
3.17814e-05
-0.000101562
-0.000638357
6.44157e-05
-0.00010234
-0.000229221
8.371e-05
-8.09939e-05
-5.88384e-05
7.3566e-05
-7.45252e-05
-5.13143e-05
5.9543e-05
-8.47505e-05
-0.000556088
3.39218e-05
-7.70384e-05
-0.000612464
-5.97743e-06
-5.37408e-05
-0.000829713
-2.96359e-05
-4.87797e-05
-0.00125665
-3.66218e-05
-6.32804e-05
-0.000424157
-8.66822e-05
-3.44162e-05
-0.000560885
-1.00042e-05
3.39276e-06
0.000427411
0.000179647
-0.00376347
-0.00146351
-5.05596e-05
-0.00320015
-0.000673454
9.5403e-05
-0.0043592
-0.000934595
-7.00765e-05
-0.00401824
-0.00151792
-4.59276e-05
-0.00313634
-0.000389833
0.000519226
-0.00498276
-0.000562978
0.000162539
-0.00475156
-0.00116268
1.33387e-05
-0.004176
-0.00158038
0.000133346
-0.00351468
0.000146297
0.000775217
-0.00557047
3.04772e-05
0.00069918
-0.00556731
-0.000448678
0.000525557
-0.00515172
-0.00133359
0.000199892
-0.00445118
-0.00145
4.17714e-05
-0.00354304
0.00041318
0.00103055
-0.00614598
0.000190672
0.00105431
-0.00615427
0.000235642
0.00105191
-0.00585806
0.000110839
0.00080102
-0.00518496
-0.00124458
0.00039254
-0.00403375
-0.00140214
0.000164973
-0.0036692
0.000319467
0.000892324
-0.00737134
0.000281515
0.00108155
-0.00758134
0.000424173
0.00120598
-0.00743887
0.000745901
0.00123238
-0.00621342
0.000952484
0.000990333
-0.00584669
-0.00105796
0.000428739
-0.00586083
-0.00120427
0.000411971
-0.00500931
0.00055204
0.000563622
-0.00768952
0.000291754
0.000731564
-0.00743147
0.000190764
0.000936737
-0.00691488
0.000564227
0.00115905
-0.0063907
0.000916837
0.00116199
-0.00557114
0.000491805
0.00113084
-0.00673295
-0.00103665
0.000596315
-0.0077622
-0.000534356
0.000145243
-0.00532956
0.00027685
0.000104276
-0.00541306
0.0005219
0.000127124
-0.00639043
0.00032319
0.00021148
-0.00651007
0.000237821
4.53051e-05
-0.00569401
0.000652197
0.000235033
-0.00487117
0.00109355
0.00064348
-0.00499488
0.000499096
0.000759921
-0.00642343
-0.000428216
0.000458784
-0.00667882
-0.000507646
8.00404e-05
-0.00657194
0.000216356
-0.000173136
-0.00261222
0.000311519
-0.000127258
-0.00263181
0.000177022
6.01937e-06
-0.00321501
0.000216654
-2.51427e-05
-0.00349038
0.000241879
-1.93872e-05
-0.00310621
0.000451353
0.000135983
-0.00255751
0.000534631
0.000356562
-0.00427692
0.000218021
0.000516586
-0.00617441
-0.000259785
0.000531176
-0.00647531
-0.000473217
0.000415441
-0.00897354
9.53944e-05
-0.000160708
-0.00101255
0.000138828
-0.000188895
-0.00185783
0.000143487
-0.000133699
-0.00147984
5.1688e-05
-0.000148049
-0.00114991
9.58006e-05
-0.000198503
-0.000972284
7.35226e-05
-0.000206751
-0.000724514
6.59222e-05
-0.000108043
-0.000773903
0.000123886
5.30164e-05
-0.00138733
-2.64246e-05
0.000181947
-0.00267066
-0.000291314
0.000238326
-0.00233145
-0.000179047
0.000191647
-0.00281634
3.98651e-05
-8.18155e-05
-0.000712752
3.00756e-05
-9.43554e-05
-0.000676418
6.41705e-05
-0.000102867
-0.000271519
9.26485e-05
-8.8945e-05
-0.000137067
8.68366e-05
-8.41525e-05
-0.000138749
5.83118e-05
-9.1271e-05
-0.000600167
3.12661e-05
-7.68738e-05
-0.000620597
-1.13834e-05
-5.14496e-05
-0.000815659
-4.12356e-05
-4.62936e-05
-0.0012324
-4.02632e-05
-6.27227e-05
-0.000355587
-7.66002e-05
-3.66593e-05
-0.000444232
-1.82459e-05
3.21861e-06
0.000442438
-0.00154415
7.98913e-05
-0.00270214
0.000310135
-0.00401954
-0.00118379
0.000150239
-0.00371507
-0.00140821
-6.9979e-05
-0.00323987
-0.000677484
0.00025176
-0.0046395
-0.000715222
4.72641e-05
-0.0043243
-0.00116342
-5.76519e-05
-0.00400577
-0.00149214
-5.81829e-05
-0.00316639
-0.000137471
0.000671008
-0.00515138
-0.000344746
0.000475323
-0.00492032
-0.000705811
0.000175182
-0.00465627
-0.00123638
1.40696e-05
-0.00415394
-0.0015956
0.000139869
-0.00350895
0.000239504
0.000827814
-0.00525498
0.000196353
0.000729854
-0.00560683
1.63697e-05
0.000641922
-0.0054644
-0.000241924
0.000518616
-0.00511768
-0.00137276
9.90185e-05
-0.00438025
-0.00144105
0.000132628
-0.00363676
0.000275059
0.00103616
-0.00615053
0.000193273
0.00106672
-0.00607015
0.00022037
0.00104037
-0.00593893
0.000244007
0.00108224
-0.00563738
4.10997e-05
0.000912547
-0.00479358
-0.00124984
0.000344041
-0.00402094
-0.00150213
0.000141244
-0.00351259
0.000421787
0.000922632
-0.00715498
0.000367479
0.00093216
-0.00729768
0.000396252
0.00112611
-0.00770696
0.00063707
0.00112158
-0.00740091
0.000783823
0.00123217
-0.00632225
0.000135368
0.000932265
-0.00599377
-0.00135549
0.000432109
-0.00556213
-0.00130866
0.000431298
-0.0046663
0.000454429
0.000800753
-0.00758394
0.000531384
0.000699078
-0.00766652
0.000218599
0.000855726
-0.00724586
0.000209882
0.00104807
-0.00677596
0.000370333
0.00116125
-0.0061081
0.000853469
0.00117129
-0.00537151
9.65309e-05
0.00101395
-0.00674802
-0.00104389
0.00047326
-0.00747454
-0.000709488
0.000112899
-0.00524062
0.000289364
0.00027352
-0.00470387
0.000531752
0.000182843
-0.00568902
0.000408874
0.000174943
-0.00658574
0.00019935
0.000203655
-0.00665112
0.000239129
0.000169408
-0.00562563
0.000798457
0.000307868
-0.00488266
0.000908659
0.000618907
-0.0052279
9.80954e-05
0.000795816
-0.00664054
-0.000607742
0.000407602
-0.00665843
-0.00076086
9.55488e-05
-0.00637984
0.000154605
-0.000296046
-0.00269647
0.000137547
-0.000223149
-0.00251505
0.000274551
-0.000112447
-0.00264441
0.000124576
-8.11753e-05
-0.00323186
0.00020475
-8.75993e-05
-0.00353112
0.000307017
-0.000114306
-0.00308942
0.000450863
0.000107317
-0.0026932
0.000491584
0.000389717
-0.00451775
0.000126798
0.00050751
-0.00630397
-0.000296249
0.000596272
-0.00665121
-0.000596113
0.000391729
-0.0089482
0.000130937
-0.000103594
-0.00123451
0.000102784
-0.000163147
-0.00111101
0.000109268
-0.00017369
-0.00186294
0.000145236
-0.000127624
-0.00155286
5.83131e-05
-0.000149129
-0.00117076
0.000108175
-0.000197473
-0.00103142
5.95334e-05
-0.000203712
-0.000657113
6.83445e-05
-0.000110033
-0.000690581
0.000106565
5.47752e-05
-0.00140796
-5.9319e-05
0.000178771
-0.00259205
-0.000286932
0.000239208
-0.00216868
-0.000180358
0.000178825
-0.00283305
7.47592e-05
-7.93528e-05
-0.000655668
4.90356e-05
-7.30714e-05
-0.000783072
2.56714e-05
-8.70139e-05
-0.000717942
5.8272e-05
-0.000103001
-0.000315735
9.56355e-05
-9.67575e-05
-0.000220097
9.57022e-05
-9.35754e-05
-0.000232147
5.3336e-05
-9.61024e-05
-0.000634275
2.83275e-05
-7.5854e-05
-0.00062452
-1.64481e-05
-4.93572e-05
-0.000796148
-5.16245e-05
-4.50371e-05
-0.00119846
-4.36478e-05
-6.42829e-05
-0.000284316
-6.56654e-05
-3.96279e-05
-0.00033572
-2.79805e-05
3.03949e-06
0.000467379
-0.00159433
5.83513e-05
-0.00255551
-0.00157225
0.000199309
-0.00303027
-0.00150131
0.000102236
-0.00271128
0.000284426
-0.00411075
-0.000784243
0.000259594
-0.00405987
-0.00151228
9.95457e-05
-0.00353574
-0.00144926
-6.53947e-05
-0.00321736
-0.000370005
0.00042839
-0.00478472
-0.000656962
0.00026874
-0.00454876
-0.000838966
3.98081e-05
-0.0042886
-0.00130435
-3.86318e-05
-0.00395735
-0.0014992
-9.43935e-05
-0.0031684
-2.72281e-05
0.000842296
-0.00514047
-0.000156548
0.000658543
-0.0049817
-0.000311616
0.000468393
-0.00488555
-0.000654803
0.00020228
-0.0044316
-0.00126088
4.61443e-05
-0.00417208
-0.00157989
0.000146857
-0.00351696
0.000180837
0.000849762
-0.00522945
0.000136765
0.000891268
-0.00535989
8.14435e-05
0.000740459
-0.00556644
-1.75964e-05
0.000645894
-0.00533008
-0.000567106
0.000428047
-0.00483851
-0.00135193
0.000216292
-0.00436182
-0.00154472
9.77459e-05
-0.00369192
0.000209071
0.00115608
-0.00600662
0.00025331
0.00102121
-0.00599085
0.000300523
0.000965773
-0.00589983
0.000471117
0.00107633
-0.00576708
0.000362385
0.00110222
-0.00540561
-0.000300852
0.00066106
-0.00467438
-0.00138041
0.000287052
-0.00414183
-0.00153977
0.000107107
-0.00338859
0.000326581
0.00101611
-0.00708821
0.000553981
0.000875915
-0.00712133
0.000338459
0.00101894
-0.00731037
0.000258259
0.00107425
-0.00770801
0.000296537
0.00117846
-0.0072734
0.00035899
0.00132162
-0.00621713
-0.000409946
0.000824646
-0.00587983
-0.00122771
0.000417121
-0.00536414
-0.00143574
0.000438212
-0.00437826
0.000338325
0.00100528
-0.0063861
0.000471951
0.000764066
-0.00758913
0.000411449
0.000759879
-0.00757324
0.000266803
0.00100294
-0.00726819
0.000230603
0.00110487
-0.00671106
0.000623744
0.00116084
-0.00592293
0.000518714
0.00116379
-0.0051314
-0.000298668
0.000990332
-0.00686832
-0.0011904
0.000370108
-0.00714909
-0.000985429
0.000170706
-0.00518676
0.000103753
0.00025469
-0.00413769
0.000214984
0.000134259
-0.00473273
0.000513983
6.40776e-05
-0.00581758
0.000235935
0.000327255
-0.0068207
0.000131576
0.000207044
-0.00661558
0.000386904
0.000258434
-0.00565608
0.000831787
0.000377856
-0.00502254
0.000782045
0.000731662
-0.00545421
-2.63328e-05
0.000831376
-0.00691118
-0.000710443
0.000388895
-0.00653758
-0.000881648
0.000133463
-0.00622777
0.000423893
-0.000312474
-0.00327514
0.000104033
-0.00023961
-0.00268126
0.000201902
-0.000191125
-0.00252901
0.00027721
-0.000171926
-0.00268563
0.000142772
-0.000113048
-0.00329088
0.000266012
-0.00019509
-0.00360817
0.00033495
-0.000106278
-0.00315124
0.000435738
9.04344e-05
-0.00276131
0.000397987
0.000379039
-0.0046807
5.45729e-05
0.000523175
-0.00634477
-0.000334111
0.000593899
-0.0068062
-0.00066693
0.00039249
-0.00885412
0.000274649
-9.36082e-05
-0.00193469
0.000181803
-0.000107434
-0.00142299
0.00012888
-0.000158315
-0.00122959
0.000119036
-0.000151052
-0.00190027
0.000119834
-0.000117121
-0.00160906
8.18681e-05
-0.00014737
-0.00120703
8.61197e-05
-0.000191617
-0.0010763
4.56653e-05
-0.000196722
-0.000587762
6.04068e-05
-0.000109306
-0.000603355
7.35588e-05
5.34819e-05
-0.00140786
-0.000102486
0.000177655
-0.00247166
-0.000334986
0.000231619
-0.00195215
-0.000165647
0.000168144
-0.00286353
7.92228e-05
-8.21992e-05
-0.00059405
7.95258e-05
-7.25687e-05
-0.000735696
5.77814e-05
-6.47008e-05
-0.000863167
2.1604e-05
-7.99177e-05
-0.000762629
5.3018e-05
-0.000102374
-0.000363137
9.3688e-05
-0.000103393
-0.000303968
0.000100245
-0.000101489
-0.000327005
4.28556e-05
-9.84021e-05
-0.000654582
2.47341e-05
-7.34459e-05
-0.000625166
-2.08153e-05
-4.74511e-05
-0.000772918
-6.3916e-05
-4.55605e-05
-0.00115327
-4.56468e-05
-6.68701e-05
-0.000211427
-5.82878e-05
-4.27493e-05
-0.000231644
-3.15689e-05
2.62885e-06
0.000496319
9.83096e-05
-0.00230252
-0.0013758
7.47403e-06
-0.00303856
-0.00158204
9.09393e-05
-0.00256572
-0.000969597
0.000389534
-0.00365356
-0.00156364
0.000218427
-0.0030951
-0.00155327
3.92609e-05
-0.00264653
0.000409931
-0.00434855
-0.000591068
0.000225346
-0.0041424
-0.000919739
0.000198632
-0.00407819
-0.00140584
7.09217e-05
-0.00357057
-0.00146136
-5.9314e-05
-0.00319589
-0.000456982
0.000706009
-0.00478043
-0.000373546
0.000474647
-0.00477362
-0.000638618
0.000278283
-0.00446023
-0.000750949
2.72495e-05
-0.00425833
-0.00125053
-5.29e-05
-0.00400921
-0.00153182
-6.82948e-05
-0.00314818
0.000147525
0.000890102
-0.00539669
3.54897e-05
0.0008028
-0.00518345
-8.84714e-05
0.000643933
-0.00498732
-0.000412289
0.000484756
-0.00477333
-0.000702897
0.000222857
-0.00447252
-0.00122596
4.43357e-05
-0.00419553
-0.00163516
0.000131291
-0.00355781
5.84736e-05
0.00107899
-0.00541121
9.1222e-05
0.00093823
-0.00511433
6.08921e-05
0.000873845
-0.00525364
0.000138645
0.000790268
-0.00537834
-5.2988e-05
0.000611215
-0.00509787
-0.000477357
0.000431059
-0.00487677
-0.00132823
0.000137276
-0.00445354
-0.00148949
5.43378e-05
-0.00379654
0.000179635
0.00127623
-0.00591644
0.000335337
0.00107613
-0.0058429
0.000329409
0.000926944
-0.00594297
0.000283842
0.000941772
-0.00579085
0.000320687
0.000973789
-0.0056628
2.59835e-05
0.000920561
-0.00533211
-0.000515408
0.000540841
-0.00482271
-0.00137425
0.000319745
-0.00420793
-0.00162807
0.000125252
-0.00332151
0.000294326
0.00102727
-0.00690459
0.00038629
0.000993592
-0.00712022
0.000367349
0.000954976
-0.00701326
0.000193821
0.00108643
-0.00724957
0.000463704
0.0011719
-0.00793456
0.000506639
0.00127732
-0.007112
2.91123e-06
0.000976105
-0.00585279
-0.000510327
0.000826364
-0.00607742
-0.00127034
0.000394432
-0.00524042
-0.00152033
0.000354388
-0.00419775
2.72224e-05
0.000854499
-0.00566739
0.000346351
0.000910202
-0.00666361
0.000501824
0.00075801
-0.0075751
0.000325378
0.000909631
-0.00756938
0.000198996
0.00110354
-0.00733428
0.000294511
0.00114421
-0.00660204
0.000424445
0.00118313
-0.00553493
0.000826252
0.00115009
-0.00533537
-0.000428551
0.000859324
-0.00695532
-0.00122805
0.000386703
-0.00684748
-0.00118947
0.000256393
-0.00513533
0.000402681
0.000151441
-0.0042113
2.26947e-05
9.71791e-05
-0.00401927
0.000399243
0.000177525
-0.00504351
0.000496651
0.00016596
-0.00587573
0.00022517
0.000222079
-0.00691814
0.000236663
0.000262897
-0.00659069
0.000413336
0.000311034
-0.00566765
0.000825002
0.00049056
-0.0051707
0.000680176
0.000926381
-0.0058314
-0.000151597
0.000780801
-0.00709692
-0.000683645
0.000410914
-0.0064655
-0.00095768
0.00014921
-0.00608623
0.000336353
-0.000199095
-0.00359271
0.000110532
-0.000306467
-0.00313701
0.000138615
-0.00027132
-0.0026108
0.000197856
-0.000212167
-0.00256758
0.000281691
-0.000188222
-0.00277232
0.000161298
-0.000161015
-0.00340438
0.000181032
-0.000184565
-0.0036248
0.000280801
-9.05781e-05
-0.00320536
0.000387117
8.48932e-05
-0.00279388
0.00035793
0.000382165
-0.00482406
1.28803e-06
0.000521715
-0.00637636
-0.000444494
0.000566906
-0.00687111
-0.000704165
0.000443085
-0.00875869
0.000291477
-0.000118166
-0.00170352
0.00026181
-8.7838e-05
-0.00213657
0.000185142
-0.00011047
-0.00159819
0.000132308
-0.000142551
-0.00134879
9.55546e-05
-0.000125174
-0.00193476
9.70219e-05
-0.000110233
-0.00164953
8.45962e-05
-0.000139078
-0.00124392
6.55808e-05
-0.000180156
-0.00111559
3.12339e-05
-0.000183899
-0.000519668
5.72186e-05
-0.000105995
-0.000521911
3.51483e-05
5.30062e-05
-0.00138227
-0.000136457
0.000171774
-0.002321
-0.00036148
0.000224834
-0.00170565
-0.000170188
0.000151043
-0.00287595
8.28753e-05
-8.12492e-05
-0.000398789
8.30542e-05
-7.89305e-05
-0.000670743
8.51251e-05
-6.56686e-05
-0.000819853
6.43951e-05
-5.7452e-05
-0.000950027
1.89952e-05
-7.32025e-05
-0.000810796
4.38291e-05
-0.000100795
-0.000409563
8.69634e-05
-0.000107826
-0.000384594
9.8787e-05
-0.00010463
-0.000419565
3.16873e-05
-9.65116e-05
-0.000663204
2.09009e-05
-7.00825e-05
-0.000623435
-2.49676e-05
-4.57905e-05
-0.000747721
-7.1218e-05
-4.65057e-05
-0.00110241
-4.70993e-05
-7.10471e-05
-0.00013603
-5.09839e-05
-4.59015e-05
-0.00013213
-2.46639e-05
2.16711e-06
0.000518816
-2.59458e-05
-0.00302912
-0.00161028
4.71213e-05
-0.0023214
-0.00105083
0.000118978
-0.00339786
-0.00130399
5.54428e-05
-0.00326272
-0.00162623
9.07594e-05
-0.00258351
-0.000554916
0.000394279
-0.00376846
-0.00105501
0.000362145
-0.00366201
-0.0013185
0.000148946
-0.00329212
-0.00162125
8.6203e-05
-0.00257284
0.000573594
-0.00442968
-0.000503798
0.000363458
-0.00435641
-0.000705728
0.000234056
-0.00411071
-0.0009168
0.000208357
-0.00404977
-0.00132297
3.31592e-05
-0.0035906
-0.00155755
-7.79535e-05
-0.00309221
-0.000113625
0.00091598
-0.00488133
-0.000286133
0.000716948
-0.00470111
-0.000455177
0.000510274
-0.00463891
-0.000648182
0.000228988
-0.00442608
-0.000811763
1.06887e-05
-0.00421306
-0.00120286
-5.13283e-05
-0.00404928
-0.00161371
0.000108364
-0.00327799
4.87092e-05
0.00100994
-0.00554962
-0.000124757
0.000888151
-0.00526606
-0.00014526
0.000817286
-0.00515065
-6.13802e-05
0.000631204
-0.00493375
-0.00036776
0.000479389
-0.00471509
-0.00069616
0.000230101
-0.00443949
-0.00127122
1.56598e-05
-0.00413691
-0.00156045
7.13261e-05
-0.00355817
0.000159664
0.0011424
-0.00533277
-6.84857e-06
0.00103948
-0.00517028
0.000166825
0.000929245
-0.00500714
0.000184091
0.000926411
-0.00529004
0.00011276
0.000725782
-0.00528498
-7.3586e-05
0.000549848
-0.00511709
-0.000739096
0.000350575
-0.00486638
-0.00136421
0.000191971
-0.00460121
-0.00152992
0.000116595
-0.00401129
0.000172427
0.00133519
-0.00582641
0.000211691
0.0011921
-0.00585781
0.000259253
0.00102539
-0.00583324
-3.3407e-05
0.000931278
-0.00570525
0.000442846
0.000943778
-0.00573998
0.000463168
0.000890017
-0.00558878
-1.94022e-05
0.00073012
-0.00549907
-0.00054001
0.000444307
-0.00491759
-0.00115235
0.000301645
-0.00450232
-0.00156666
0.000197164
-0.00347235
0.000139512
0.000942968
-0.00672623
0.000253398
0.00106705
-0.0068851
0.00032347
0.0010188
-0.0070057
0.000320438
0.00100298
-0.00692487
0.000532827
0.00115025
-0.00756175
0.000277326
0.00113494
-0.00777499
0.000195956
0.00110186
-0.00700926
0.000683368
0.00118684
-0.00607038
-0.000765231
0.000662681
-0.00600899
-0.0012713
0.000409859
-0.00525264
-0.00156734
0.000354646
-0.00417452
-5.21937e-05
0.00071088
-0.0054894
4.54449e-05
0.000861571
-0.00564151
0.000433492
0.000925513
-0.00686536
0.000549799
0.000715215
-0.00743383
0.000263996
0.000996197
-0.00750086
0.000244679
0.00112507
-0.00732316
0.00019844
0.00119802
-0.00640203
0.000801452
0.00124783
-0.00560912
0.000463463
0.00114297
-0.0054023
-0.000529349
0.00080706
-0.00699793
-0.00106442
0.000458065
-0.00666837
-0.00126755
0.000239444
-0.0050649
9.35632e-05
0.000223403
-0.00448203
-0.000170391
0.00018448
-0.00401767
0.00012724
0.000175537
-0.00400591
0.000462617
0.000155204
-0.00529752
0.000491226
0.000285782
-0.00614897
0.000157892
0.000168949
-0.00682078
0.000101904
0.000359268
-0.0065598
0.000389012
0.000404285
-0.00568958
0.000769547
0.000648017
-0.00527477
0.000479929
0.000940904
-0.0061135
-0.000268116
0.000711465
-0.00712807
-0.000674041
0.000415527
-0.00650227
-0.00106245
0.000180215
-0.00590817
0.000316812
-8.60872e-05
-0.00399363
0.000309998
-0.000224202
-0.00372316
0.00020267
-0.00028998
-0.00313588
0.000131767
-0.000276932
-0.0025455
0.000153167
-0.000237482
-0.00257594
0.000174952
-0.000180546
-0.00283072
0.000137768
-0.000151965
-0.00349015
0.000140851
-0.000148014
-0.00364263
0.00022213
-7.76979e-05
-0.00323367
0.000355701
9.1834e-05
-0.00280203
0.000301448
0.000382228
-0.00495088
-1.51569e-05
0.000524372
-0.00645512
-0.000501331
0.000569536
-0.00685771
-0.000796373
0.000456426
-0.00858893
0.000293803
-9.75085e-05
-0.00139253
0.000280681
-0.000109559
-0.00187943
0.000216412
-9.05481e-05
-0.00228778
0.000190265
-0.00011368
-0.00175294
0.000149675
-0.000125022
-0.00147963
8.1326e-05
-0.000106791
-0.0019757
7.62073e-05
-9.42904e-05
-0.00168356
8.28987e-05
-0.00012672
-0.00128146
4.48282e-05
-0.000164556
-0.00114808
1.84707e-05
-0.000164931
-0.000458302
5.9863e-05
-0.000100784
-0.000452952
-1.36963e-06
5.2913e-05
-0.00133326
-0.000202109
0.000167708
-0.00210887
-0.000354824
0.000215849
-0.00146662
-0.000162337
0.000135032
-0.00287331
8.44346e-05
-8.08933e-05
-0.000553905
9.08285e-05
-7.99597e-05
-0.000488588
8.13245e-05
-7.24536e-05
-0.000745282
8.18449e-05
-5.95722e-05
-0.000899578
6.69495e-05
-5.20316e-05
-0.00103815
1.98345e-05
-6.7384e-05
-0.000864042
3.86343e-05
-9.84759e-05
-0.000457548
7.48156e-05
-0.000107641
-0.000456398
8.37782e-05
-0.000102078
-0.000497776
2.21046e-05
-9.15323e-05
-0.000663859
1.75139e-05
-6.63441e-05
-0.000620396
-2.87493e-05
-4.44826e-05
-0.000720995
-7.73913e-05
-4.88617e-05
-0.00104721
-4.7832e-05
-7.35855e-05
-6.05136e-05
-3.97474e-05
-4.90615e-05
-4.11537e-05
3.92792e-06
2.08567e-06
0.000512803
-0.0015833
-2.09278e-06
-0.00228653
3.3087e-05
-0.00315119
-0.00124181
-3.26728e-05
-0.0030115
-0.00166109
2.95136e-05
-0.00231606
-0.000774448
0.000309275
-0.00349548
-0.0011571
0.000183469
-0.0034238
-0.00133602
8.24352e-05
-0.00323688
-0.00162468
4.557e-05
-0.00262565
-0.000657735
0.000490978
-0.00383225
-0.000692547
0.000374471
-0.00379397
-0.00102106
0.000287759
-0.00369657
-0.00131913
0.000105914