/*--------------------------------*- C++ -*----------------------------------*\
  =========                 |
  \\      /  F ield         | OpenFOAM: The Open Source CFD Toolbox
   \\    /   O peration     | Website:  https://openfoam.org
    \\  /    A nd           | Version:  7
     \\/     M anipulation  |
\*---------------------------------------------------------------------------*/
FoamFile
{
    version     2.0;
    format      ascii;
    class       surfaceScalarField;
    location    "5";
    object      phi_0;
}
// * * * * * * * * * * * * * * * * * * * * * * * * * * * * * * * * * * * * * //

dimensions      [0 3 -1 0 0 0 0];

internalField   nonuniform List<scalar> 
54095
(
0.000155381
-6.64193e-05
0.000907091
0.000359958
8.11175e-05
-0.00189824
0.000207251
-6.22667e-05
-0.00075101
0.000154311
-5.40474e-05
0.000806827
0.000759993
0.000258866
-0.00350627
0.000142111
0.000190291
-0.00285202
0.000263868
0.000144171
-0.00215197
1.55916e-05
-8.88975e-05
-0.0008294
0.00013281
-5.24809e-05
-0.000885386
0.000131821
-4.28684e-05
0.000717874
-0.000248397
0.000330368
-0.00529561
0.000999343
0.00058967
-0.00593473
0.000811513
0.000169217
-0.00422313
0.000149502
0.000164496
-0.00231133
-2.42566e-05
0.000232053
-0.00278283
0.000140153
0.000219547
-0.00237985
1.24511e-05
-8.55685e-05
-0.00122387
7.63012e-06
-8.53431e-05
-0.000804168
8.47847e-05
-4.57242e-05
-0.000967315
0.000115867
-3.16337e-05
0.000633641
-0.000781845
0.000496168
-0.00784114
0.00187366
0.000252899
-0.00536177
0.000122589
0.000503562
-0.00511025
0.000591767
0.000659251
-0.00331979
0.00102097
0.000664795
-0.000927827
0.000768176
0.000360639
-0.00521179
0.000104685
8.2027e-05
-0.00130881
0.000174449
0.000175617
-0.00242171
9.25944e-05
0.000269212
-0.00284031
2.13381e-05
0.000246871
-0.00253219
3.32235e-05
-7.0935e-05
-0.000733756
8.83963e-06
-7.9838e-05
-0.00123822
3.78835e-06
-8.19986e-05
-0.000771682
6.03193e-05
-4.06547e-05
-0.00101861
9.60107e-05
-2.14565e-05
0.000559087
-0.000871839
0.000573414
-0.0071094
0.00142836
0.00138972
-0.00766425
-0.00048849
0.000455414
-0.00768547
0.00123096
-8.99038e-06
-0.00422469
0.00167222
0.000397388
-0.00590685
0.000290062
0.000525759
-0.00515789
0.000192743
0.000432318
-0.00283285
0.000666276
0.000658085
-0.0038049
0.00122035
0.000774618
-0.00246956
0.000762129
0.000182242
-0.00613482
0.000122007
-8.2138e-05
-0.00123731
0.000113782
8.48376e-05
-0.00132297
0.000201321
0.000184058
-0.00253409
8.48046e-05
0.00029534
-0.00291326
-9.07902e-05
0.000232365
-0.00257775
3.29147e-05
-7.01995e-05
-0.000492333
2.59858e-05
-6.7626e-05
-0.000771954
4.72355e-06
-7.41749e-05
-0.00125076
4.93831e-07
-7.8291e-05
-0.00073454
2.05405e-05
-3.7073e-05
-0.00102354
7.16701e-05
-1.29491e-05
0.000500365
-0.00117812
0.000125648
-0.0048159
0.000130432
0.00129415
-0.00731865
-0.000817235
0.00049925
-0.00727991
0.0012957
0.00123403
-0.00593734
0.00144391
0.0012073
-0.00818783
-0.000370944
0.00034194
-0.00736641
0.000539753
-0.00023122
-0.00397978
0.00124457
9.14091e-05
-0.004497
0.00137503
0.000563859
-0.00609963
0.00070639
0.00045839
-0.00556054
0.000283565
0.000322622
-0.00222041
0.000193845
0.000452704
-0.00270753
0.000796843
0.000611268
-0.00423707
0.000918797
0.000632146
-0.00375346
0.000513916
0.000283347
-0.00702288
4.56704e-05
-0.000185669
-0.00111382
0.000120727
-8.12188e-05
-0.001166
0.000133237
8.48264e-05
-0.00135225
0.000210005
0.000188618
-0.00263688
1.70307e-05
0.000297772
-0.00297516
-0.000110482
0.000207202
-0.0026028
2.85903e-05
-6.34846e-05
-0.000365875
3.43663e-05
-7.04564e-05
-0.000523869
1.91856e-05
-6.44687e-05
-0.000800846
1.6094e-06
-6.87066e-05
-0.00126196
-1.07561e-05
-7.4856e-05
-0.000686
-1.26966e-05
-3.46651e-05
-0.000989125
4.91498e-05
-6.19774e-06
0.000457413
-0.00151297
0.000228029
-0.00377746
-0.00069201
0.00049202
-0.00600277
-0.00127109
7.29084e-05
-0.00443496
0.000561163
0.00124172
-0.00672983
0.000278019
0.00124241
-0.00689592
-0.000870381
0.00037878
-0.00715925
0.000850584
0.000745227
-0.00471859
0.00136276
0.000764083
-0.00561231
0.0011083
0.000678245
-0.0082574
-8.40555e-05
0.000356641
-0.0069326
0.000327851
-0.00011487
-0.00491222
0.000751844
-0.000180674
-0.00426569
0.00163156
0.000312482
-0.00508034
0.00083059
0.000845366
-0.0063984
0.000719628
0.000334041
-0.0061003
0.000219333
0.000314327
-0.00296064
0.000250489
0.000311604
-0.00220907
0.000349167
0.000442637
-0.00275483
0.000791843
0.000520578
-0.00470734
0.000620117
0.000513968
-0.00458716
0.000355358
0.000219413
-0.00770813
-2.45561e-06
-0.000177662
-0.000935232
4.34611e-05
-0.000185234
-0.0010189
0.000113098
-8.21462e-05
-0.00109294
0.000136004
7.82878e-05
-0.00137632
0.000201678
0.000193804
-0.00274534
-7.55703e-05
0.00028565
-0.00299073
-6.21137e-05
0.000195241
-0.00268678
2.25477e-05
-5.1842e-05
0.000142367
3.60502e-05
-6.6488e-05
-0.000405894
3.43523e-05
-7.15825e-05
-0.000551107
1.24179e-05
-6.12536e-05
-0.000820717
-3.55932e-06
-6.34038e-05
-0.00126985
-1.73711e-05
-7.10925e-05
-0.000632202
-4.29049e-05
-3.31601e-05
-0.000919258
2.66852e-05
-1.16916e-06
0.000431897
-0.00163429
2.94042e-05
-0.00372981
-0.000736758
0.000248572
-0.00501886
-0.00152669
0.00019843
-0.00372029
7.25425e-05
0.00078602
-0.00660722
-0.000757761
0.000551562
-0.00544565
-0.00118571
0.000105235
-0.00422486
0.000490716
0.00107186
-0.00689202
0.000867086
0.00116319
-0.00615493
0.000386712
0.000919506
-0.00671506
-0.000894861
0.000350509
-0.00669895
0.000233823
0.000528666
-0.00575154
0.00154994
0.000497309
-0.00524991
0.00205216
0.000600518
-0.00595519
0.000242106
0.000889975
-0.00820225
-0.000105355
0.000293165
-0.00640078
0.000209329
-0.000100675
-0.005808
0.000271559
-8.84284e-05
-0.00502554
0.000649451
9.30022e-05
-0.0043465
0.00123439
0.000748973
-0.00542649
0.000258399
0.000870631
-0.00657328
0.000568311
0.000215427
-0.00652868
0.000218878
0.00022
-0.00320616
0.000209271
0.000256889
-0.00307174
0.000267309
0.00028738
-0.00220802
0.000551842
0.000419108
-0.0030692
0.00077736
0.000439248
-0.00520831
0.000286902
0.000534062
-0.00526429
0.000210284
0.000308282
-0.00828881
-3.03568e-06
-0.000130131
-0.00108362
1.84127e-05
-0.000181504
-0.000921324
4.71238e-05
-0.000188359
-0.000925458
0.000112321
-9.04721e-05
-0.00102408
0.000106742
7.4145e-05
-0.00136696
0.000121107
0.000192451
-0.00279062
-0.000171804
0.00026711
-0.0029337
-9.96482e-05
0.000188882
-0.00274933
5.05923e-05
-6.57993e-05
7.07361e-05
4.03199e-05
-5.74028e-05
9.29619e-05
4.64296e-05
-7.12008e-05
-0.000452705
3.69277e-05
-7.31389e-05
-0.00057615
5.99867e-06
-5.87284e-05
-0.000831391
-1.04905e-05
-5.82912e-05
-0.00127216
-2.60673e-05
-6.77279e-05
-0.000571567
-6.59479e-05
-3.26939e-05
-0.000821785
1.3867e-05
2.02096e-06
0.000416009
-0.00169196
-1.48604e-05
-0.00313011
-0.000954346
0.000117857
-0.00431032
-0.00161893
3.38297e-05
-0.00367139
2.49888e-05
0.000447547
-0.00568276
-0.000935629
0.000235067
-0.00487763
-0.00140962
0.000138793
-0.00363517
0.00017599
0.000948503
-0.00662021
0.000184083
0.000909476
-0.00628213
-0.000816727
0.000583164
-0.00472014
-0.00129583
0.000130267
-0.00395415
0.000191776
0.00110924
-0.00747638
0.0011663
0.00114415
-0.00648934
0.00138819
0.00107436
-0.00564581
-0.000451891
0.000679645
-0.0063502
-0.00104024
0.000371536
-0.00613561
0.000243753
0.000556721
-0.00715684
0.00044187
0.000741277
-0.00616582
0.000819036
0.000877395
-0.00569637
0.00119955
0.00107759
-0.00610797
-0.000217941
0.000810804
-0.00824355
-0.000160712
0.000241052
-0.00591281
0.0003648
-5.46677e-05
-0.00616589
0.000188377
-2.61101e-05
-0.00584943
0.000378179
3.29144e-05
-0.00507632
0.000920289
0.000454453
-0.00442042
0.00103216
0.000794629
-0.00560529
-0.000156223
0.000680802
-0.00659553
0.000184054
0.000151504
-0.00665395
0.000312692
8.92246e-05
-0.00299195
0.000236819
0.000160783
-0.00332846
0.000200596
0.000201257
-0.00313909
0.000365122
0.000242013
-0.00228373
0.000651164
0.00038196
-0.00355633
0.000630103
0.00044779
-0.00563103
0.000131983
0.000568621
-0.00582841
6.41992e-06
0.000285304
-0.00868018
0.000112361
-0.00014065
-0.00135988
1.50953e-05
-0.000135731
-0.00110417
3.04031e-05
-0.00018782
-0.000905837
6.88243e-05
-0.000199566
-0.000848261
0.000107331
-9.70775e-05
-0.000954189
9.88441e-05
7.02028e-05
-0.00135405
3.85473e-05
0.00018431
-0.00277244
-0.00031821
0.0002506
-0.00274316
-0.00013651
0.000201878
-0.00280083
6.78917e-05
-0.000101181
-0.000184643
6.85265e-05
-7.24301e-05
1.72368e-05
5.72989e-05
-6.49886e-05
2.94508e-05
5.53549e-05
-7.72909e-05
-0.000503908
3.56706e-05
-7.51525e-05
-0.000595396
6.67988e-07
-5.63063e-05
-0.000834044
-1.83273e-05
-5.34426e-05
-0.00126812
-3.17263e-05
-6.49745e-05
-0.00050756
-8.16454e-05
-3.28789e-05
-0.00070524
-9.78796e-06
3.60935e-06
0.000422188
-5.16482e-05
-0.00311232
-0.0010837
1.66595e-05
-0.00389834
-0.0016031
-4.56244e-05
-0.00310031
-0.000350129
0.000320638
-0.00490341
-0.00107234
1.96061e-05
-0.00415939
-0.00159674
4.1101e-05
-0.00352537
-3.03724e-05
0.000668229
-0.0058253
-0.000259831
0.000488173
-0.00549195
-0.00119857
0.000222842
-0.00457983
-0.00143841
0.000103309
-0.0035959
0.000181743
0.00101491
-0.00639336
0.000474524
0.00103735
-0.00605631
0.000173206
0.00092317
-0.00540715
-0.00110105
0.000438206
-0.00437892
-0.00134865
0.000110985
-0.00375673
0.000507266
0.000989865
-0.00757024
0.000418499
0.00119585
-0.0075047
0.000524818
0.00121344
-0.0063342
0.00066745
0.00107999
-0.00551406
-0.000607116
0.00050977
-0.00609926
-0.00115798
0.000392218
-0.00553056
0.000274301
0.000559631
-0.00743971
0.000164725
0.000651156
-0.00704307
0.000456154
0.00101428
-0.00638068
0.00097521
0.0011221
-0.0057958
0.0011582
0.00111046
-0.00653366
-0.000762277
0.00074772
-0.00814417
-0.000310532
0.000191584
-0.00560981
0.000674567
-1.67916e-05
-0.00594209
0.000339527
-1.14173e-05
-0.00628329
0.000181558
5.13365e-05
-0.00584881
0.000555734
0.000163245
-0.00497572
0.00115079
0.000505561
-0.00463098
0.00079433
0.000846312
-0.00593503
-0.000257545
0.00051119
-0.00656568
-0.000111055
0.000120318
-0.00665679
0.000159177
-5.92947e-05
-0.00264814
0.000245079
7.6357e-05
-0.0031375
0.000251468
9.63994e-05
-0.00344467
0.000223574
9.02025e-05
-0.00314203
0.000420008
0.000180096
-0.00239454
0.000573201
0.000356645
-0.00393954
0.000370118
0.000491461
-0.00588544
-0.000160209
0.000503307
-0.00620442
-0.000306591
0.000337177
-0.00884728
0.000145702
-0.000194244
-0.0018321
0.000119045
-0.000139685
-0.00140644
2.6768e-05
-0.000142261
-0.0011192
6.50288e-05
-0.000195186
-0.000919891
7.61063e-05
-0.000204889
-0.000780885
8.56923e-05
-0.00010302
-0.00086599
0.000111355
5.91785e-05
-0.0013586
-1.2913e-06
0.00018145
-0.00273372
-0.000327696
0.000241004
-0.00253623
-0.000161149
0.000197802
-0.00284727
3.24019e-05
-0.00010243
-0.000625802
6.48625e-05
-0.000102169
-0.000219767
8.3407e-05
-8.01584e-05
-5.10004e-05
7.28726e-05
-7.38288e-05
-4.6884e-05
5.87267e-05
-8.40591e-05
-0.000553728
3.37327e-05
-7.66395e-05
-0.000608796
-5.24291e-06
-5.38678e-05
-0.000828376
-2.78256e-05
-4.93655e-05
-0.0012559
-3.56766e-05
-6.31614e-05
-0.000441601
-8.88174e-05
-3.37786e-05
-0.000579034
-1.50643e-05
3.87085e-06
0.000433381
0.000180035
-0.00376355
-0.00146609
-5.03281e-05
-0.00319901
-0.000669223
9.73413e-05
-0.00436561
-0.000930922
-6.90107e-05
-0.00401637
-0.00151909
-4.58319e-05
-0.00313213
-0.000390288
0.00051905
-0.0049862
-0.000554727
0.000167209
-0.00475612
-0.00115802
1.47397e-05
-0.00417358
-0.00158087
0.000131089
-0.003514
0.000132228
0.000775671
-0.00555899
2.66708e-05
0.000696532
-0.0055858
-0.000449717
0.000525515
-0.0051717
-0.00132982
0.000205548
-0.00445331
-0.00144724
4.12069e-05
-0.00353852
0.000415941
0.00102746
-0.00614418
0.000183839
0.00104687
-0.00616822
0.000235399
0.00104636
-0.00589009
0.000118828
0.000803337
-0.00522366
-0.00123119
0.000399862
-0.00404372
-0.00139852
0.000163498
-0.00367968
0.000323776
0.000886037
-0.00737585
0.000292958
0.00107122
-0.00757385
0.000423806
0.00120501
-0.00746392
0.000740011
0.00123004
-0.00624906
0.000979847
0.00100296
-0.0058289
-0.0010135
0.000428678
-0.0058845
-0.00119692
0.000408747
-0.00505292
0.000555979
0.000568592
-0.00770856
0.000291738
0.000708199
-0.00744896
0.000184146
0.000918056
-0.00694943
0.000564482
0.00115634
-0.00642367
0.000921675
0.00116183
-0.00561805
0.000545072
0.0011412
-0.00667788
-0.00102988
0.00061823
-0.00779848
-0.000512861
0.00015
-0.005358
0.000264831
0.000108355
-0.00538961
0.000533825
0.000123033
-0.00636529
0.000331643
0.000191396
-0.00650352
0.000225987
3.75466e-05
-0.00572552
0.000625308
0.000229048
-0.00490451
0.00110067
0.000640929
-0.00495307
0.000567202
0.000758734
-0.00637966
-0.000409286
0.000462407
-0.0066587
-0.000462265
8.24404e-05
-0.00658356
0.000215512
-0.000169693
-0.00262532
0.000306209
-0.000121721
-0.00263723
0.000186849
1.58158e-05
-0.003217
0.000223332
-1.48018e-05
-0.00349797
0.000237566
-1.77317e-06
-0.00312162
0.000448008
0.000137598
-0.00253781
0.000543383
0.00035064
-0.00423075
0.000234278
0.000515721
-0.00613343
-0.000253324
0.000520186
-0.0064618
-0.00045485
0.000417894
-0.00897147
9.58967e-05
-0.000160374
-0.00100296
0.000140684
-0.000189163
-0.00185844
0.000141601
-0.000133678
-0.00147322
4.91195e-05
-0.000147224
-0.00114341
8.96011e-05
-0.000198203
-0.000957452
7.44798e-05
-0.000206901
-0.000717751
6.75096e-05
-0.000107786
-0.000771778
0.000124783
5.36954e-05
-0.00138345
-2.3033e-05
0.000182245
-0.00268761
-0.000295248
0.000236057
-0.00236806
-0.000180145
0.000192693
-0.00287488
3.8931e-05
-8.27562e-05
-0.000707027
3.09203e-05
-9.53454e-05
-0.000663546
6.48664e-05
-0.000102865
-0.000261927
9.29948e-05
-8.8191e-05
-0.000129633
8.63713e-05
-8.34578e-05
-0.000133857
5.7935e-05
-9.05938e-05
-0.000597709
3.11736e-05
-7.65651e-05
-0.000617272
-1.06558e-05
-5.15513e-05
-0.000815534
-3.94026e-05
-4.6648e-05
-0.00123301
-3.93159e-05
-6.23373e-05
-0.000373727
-7.96807e-05
-3.59282e-05
-0.000459555
-2.26922e-05
3.71745e-06
0.000452356
-0.00154449
7.83329e-05
-0.00270412
0.000310069
-0.00402024
-0.00117548
0.000150958
-0.00372028
-0.00140767
-7.07273e-05
-0.00323971
-0.000676412
0.000252392
-0.00464479
-0.00071182
4.86862e-05
-0.00432621
-0.00115635
-5.78888e-05
-0.00400599
-0.00149418
-5.56181e-05
-0.0031632
-0.000145349
0.000669397
-0.00516027
-0.000344501
0.000476541
-0.00492436
-0.00069859
0.000175918
-0.00466843
-0.00123467
1.35092e-05
-0.00415115
-0.00159574
0.000139749
-0.00350525
0.000241704
0.000826651
-0.00525559
0.000198644
0.00072972
-0.00560698
1.56844e-05
0.000642285
-0.00548286
-0.00023545
0.000523654
-0.00513553
-0.00137031
0.000101041
-0.00437402
-0.00143696
0.000127692
-0.00362777
0.000277046
0.00103651
-0.00615276
0.000203502
0.00106633
-0.00607418
0.000221769
0.00103957
-0.00595939
0.000245105
0.00107692
-0.00566877
6.02719e-05
0.000919946
-0.00482417
-0.00123801
0.000348827
-0.00400454
-0.0014974
0.000142881
-0.00352209
0.00042037
0.000922377
-0.00715987
0.000363865
0.000920861
-0.00729761
0.000389368
0.00112206
-0.00769612
0.000627179
0.00112375
-0.00742033
0.000795015
0.00122972
-0.00634916
0.000197041
0.00094633
-0.00599852
-0.00135604
0.000426171
-0.00557577
-0.00129619
0.000427202
-0.0046968
0.000453338
0.000816351
-0.00756043
0.000533049
0.000682081
-0.00768166
0.000225383
0.00084488
-0.00726953
0.000199918
0.00103635
-0.00680338
0.0003666
0.00116258
-0.00616571
0.000868053
0.00117327
-0.00541751
0.000168606
0.00102706
-0.00668811
-0.00103663
0.000491772
-0.00751291
-0.000683476
0.000109349
-0.00524614
0.00028619
0.000279485
-0.00469838
0.000512474
0.000193682
-0.00566653
0.000431337
0.000155476
-0.00657385
0.000210169
0.000210418
-0.00666323
0.000232751
0.000161029
-0.00565269
0.000780641
0.000296386
-0.0048926
0.000930792
0.000606667
-0.00518841
0.000122289
0.000787492
-0.00659275
-0.000585933
0.000421001
-0.00666465
-0.000741127
9.06822e-05
-0.00638797
0.000155634
-0.000294567
-0.00271093
0.000137304
-0.000218222
-0.00252544
0.000276407
-0.000106215
-0.00265001
0.000123149
-7.22372e-05
-0.0032336
0.000191572
-7.15846e-05
-0.00353013
0.000295183
-0.000110197
-0.00309453
0.00045013
0.000108399
-0.00267819
0.000501546
0.000387704
-0.0044795
0.000142777
0.000505391
-0.00628444
-0.000291796
0.000589483
-0.00663684
-0.000583353
0.000398359
-0.00896662
0.000129812
-0.000102884
-0.00122027
0.000102205
-0.000163115
-0.00110029
0.000109413
-0.000175133
-0.00186153
0.00014649
-0.000127781
-0.00154616
5.55432e-05
-0.000148502
-0.00116228
0.000108488
-0.000197411
-0.0010175
6.12875e-05
-0.000204323
-0.000651328
6.85862e-05
-0.00011001
-0.000687315
0.000110175
5.51391e-05
-0.00140592
-5.49575e-05
0.000178744
-0.00261465
-0.000282739
0.000237568
-0.00220988
-0.000185494
0.000180481
-0.00289256
7.44634e-05
-7.97607e-05
-0.000652766
4.79841e-05
-7.4004e-05
-0.000776353
2.61868e-05
-8.80549e-05
-0.000704543
5.89834e-05
-0.00010319
-0.000305911
9.65401e-05
-9.61747e-05
-0.000213456
9.56317e-05
-9.29563e-05
-0.000227126
5.32974e-05
-9.55451e-05
-0.000632026
2.83685e-05
-7.56396e-05
-0.000621552
-1.57237e-05
-4.94459e-05
-0.000797012
-4.96743e-05
-4.51244e-05
-0.00120055
-4.26682e-05
-6.38689e-05
-0.000303118
-6.79908e-05
-3.87441e-05
-0.000349102
-3.21926e-05
3.48287e-06
0.000481066
-0.00159322
5.73309e-05
-0.00255652
-0.00156971
0.000199454
-0.00303375
-0.00149987
0.00010184
-0.00271375
0.000286293
-0.00411206
-0.000781699
0.000260196
-0.0040596
-0.00150757
9.9367e-05
-0.00353915
-0.00144777
-6.61892e-05
-0.00321993
-0.000374721
0.000427317
-0.00478618
-0.000656822
0.000268884
-0.00455267
-0.000835214
4.11104e-05
-0.00428859
-0.00130101
-3.79655e-05
-0.0039573
-0.00149821
-9.37227e-05
-0.00316701
-2.66155e-05
0.000842002
-0.00514384
-0.000157358
0.000659661
-0.00498739
-0.000309936
0.000468354
-0.00489118
-0.000657441
0.000202511
-0.00443544
-0.00126065
4.6619e-05
-0.00416768
-0.00157809
0.000148595
-0.00351271
0.000180554
0.000856233
-0.00523713
0.000137616
0.000891773
-0.00535175
8.71194e-05
0.000739354
-0.0055694
-1.62301e-05
0.000646487
-0.00534436
-0.000559323
0.000431863
-0.00484676
-0.00135252
0.00021587
-0.00434768
-0.00154258
9.69013e-05
-0.00367948
0.000209069
0.00116116
-0.00601059
0.000248076
0.00102237
-0.00599301
0.00029062
0.000970038
-0.00590591
0.000452147
0.00107444
-0.00578187
0.000367168
0.00110555
-0.00542652
-0.000278965
0.000677522
-0.00467686
-0.00137722
0.000287759
-0.00412823
-0.00153334
0.000110854
-0.00339579
0.000323148
0.00101505
-0.00708322
0.000553593
0.00087333
-0.00713288
0.000344493
0.00100811
-0.00730278
0.000256605
0.00107349
-0.00770255
0.00030873
0.00117242
-0.00730515
0.000392171
0.00133227
-0.00625922
-0.000374071
0.000833079
-0.00586275
-0.00122858
0.000417154
-0.00537376
-0.00142366
0.000436746
-0.00439336
0.000329813
0.00100737
-0.00635018
0.000458129
0.000768375
-0.00759238
0.000424664
0.000748179
-0.00757829
0.000264534
0.000981835
-0.00726937
0.00022949
0.00110375
-0.00674129
0.00060202
0.00115962
-0.00597344
0.000507645
0.00116613
-0.00513343
-0.000263187
0.00100868
-0.00681954
-0.00118636
0.000375788
-0.00717892
-0.000959131
0.000158146
-0.00518628
0.000101528
0.000261561
-0.00415682
0.000205228
0.000143535
-0.00471615
0.00051808
6.90777e-05
-0.0058218
0.000242602
0.000327886
-0.00681077
0.000125951
0.00020654
-0.00664312
0.000361578
0.000252234
-0.00567493
0.000824758
0.000365069
-0.00502563
0.000800446
0.00070954
-0.00540936
1.04179e-05
0.000839368
-0.00687876
-0.000708284
0.000393563
-0.00655104
-0.000870144
0.000129955
-0.00623113
0.000419201
-0.000311813
-0.00328131
0.000103231
-0.000239108
-0.00269107
0.000197407
-0.00018815
-0.0025315
0.000276716
-0.000166456
-0.00268601
0.000138231
-0.000105499
-0.00328237
0.000267318
-0.000188276
-0.00361088
0.000333338
-0.000108408
-0.00314977
0.00043864
9.06965e-05
-0.00275124
0.000406473
0.000377309
-0.00464771
6.23661e-05
0.000521439
-0.00633372
-0.00031865
0.00059348
-0.00679605
-0.000663779
0.000390372
-0.00887871
0.000277558
-9.30561e-05
-0.00192559
0.000178822
-0.000107235
-0.00140699
0.000127644
-0.000159305
-0.00121758
0.000119887
-0.000152692
-0.00189752
0.000122374
-0.000117244
-0.00160325
7.97024e-05
-0.000147141
-0.00119662
8.77263e-05
-0.000192077
-0.00106417
4.69818e-05
-0.000197714
-0.000582237
6.26789e-05
-0.000109515
-0.000601063
7.92044e-05
5.39227e-05
-0.00140998
-9.71744e-05
0.000177607
-0.00250018
-0.000325428
0.000231604
-0.00200356
-0.000173723
0.000169977
-0.00292101
7.90921e-05
-8.22716e-05
-0.000591091
7.89632e-05
-7.30359e-05
-0.000732697
5.6734e-05
-6.55602e-05
-0.000855581
2.23271e-05
-8.10013e-05
-0.000749059
5.41552e-05
-0.000102778
-0.000353463
9.5142e-05
-0.000103031
-0.000298523
0.000100349
-0.000101065
-0.000321955
4.31957e-05
-9.81001e-05
-0.000652761
2.48757e-05
-7.33565e-05
-0.000622517
-2.01058e-05
-4.75273e-05
-0.000774503
-6.1933e-05
-4.56956e-05
-0.00115679
-4.52534e-05
-6.63056e-05
-0.000230303
-5.9764e-05
-4.19002e-05
-0.000243955
-3.49588e-05
3.14549e-06
0.000512879
9.91806e-05
-0.00230244
-0.00137836
7.9902e-06
-0.00303326
-0.00158101
9.04854e-05
-0.00256586
-0.000970084
0.000391178
-0.00365379
-0.00156705
0.000219067
-0.0030915
-0.00155092
3.87995e-05
-0.0026494
0.000411247
-0.00434906
-0.000588967
0.000224823
-0.00414454
-0.000917589
0.000199599
-0.00407745
-0.00140718
7.12626e-05
-0.00357043
-0.00145828
-6.09945e-05
-0.00319886
-0.000457774
0.000706208
-0.00478377
-0.000370657
0.000473232
-0.00477723
-0.00063908
0.00028023
-0.00446264
-0.000753693
2.8215e-05
-0.00425851
-0.00125148
-5.25071e-05
-0.00400768
-0.00153007
-7.22764e-05
-0.00314275
0.000150587
0.000889235
-0.00539968
3.54848e-05
0.000803819
-0.00518587
-8.87916e-05
0.000644638
-0.00498776
-0.000411251
0.00048518
-0.00477883
-0.000700116
0.000224851
-0.00447288
-0.0012233
4.51871e-05
-0.0041935
-0.00163377
0.000131406
-0.00355293
6.77576e-05
0.0010848
-0.00541779
8.76911e-05
0.000936306
-0.00512128
6.2257e-05
0.000870518
-0.00525455
0.000130775
0.000788026
-0.00538957
-5.1363e-05
0.00061498
-0.00510894
-0.000466357
0.000436559
-0.00488006
-0.001328
0.000137578
-0.00443757
-0.00148957
5.31809e-05
-0.00377644
0.000180572
0.00128242
-0.00591362
0.00033226
0.00108047
-0.00584737
0.000339617
0.000928483
-0.00594658
0.000283785
0.00093888
-0.00579753
0.000316637
0.000978351
-0.00566258
3.92765e-05
0.000935197
-0.0053313
-0.000501658
0.000552102
-0.00481362
-0.0013735
0.000318982
-0.00419144
-0.00162754
0.000128296
-0.00332022
0.000280709
0.00102201
-0.00690561
0.000381313
0.00099402
-0.00712709
0.000372761
0.00094818
-0.00702104
0.000202021
0.0010741
-0.00724087
0.000459104
0.00116734
-0.00792709
0.0004999
0.0012728
-0.00714356
-2.60489e-05
0.000984602
-0.00587705
-0.000483043
0.000843665
-0.00606941
-0.00127075
0.000391027
-0.00524366
-0.00150934
0.000355206
-0.00419835
2.66372e-05
0.000848345
-0.00568568
0.000334523
0.00091521
-0.00662631
0.000497195
0.000764043
-0.00758736
0.00033453
0.000887292
-0.00757567
0.000203763
0.00109942
-0.00734285
0.000282006
0.00113954
-0.00664164
0.000427517
0.00117942
-0.00558949
0.000848048
0.00115051
-0.00532286
-0.000402327
0.000871118
-0.00690213
-0.00124072
0.000381639
-0.00686998
-0.00117308
0.000249623
-0.00513297
0.000397835
0.000155017
-0.00423985
2.09979e-05
9.88362e-05
-0.00402989
0.000383756
0.00018131
-0.00501474
0.000496491
0.000150431
-0.00586412
0.000226803
0.000238044
-0.00693085
0.00022992
0.000263807
-0.0066173
0.000404916
0.000298759
-0.0056802
0.000827538
0.000471579
-0.00517657
0.000704361
0.000914577
-0.00578245
-0.000131543
0.000792729
-0.00708402
-0.000685447
0.000413474
-0.00646776
-0.000947466
0.000143702
-0.00609115
0.000344536
-0.000201272
-0.00358468
0.000112996
-0.000305354
-0.00314924
0.000138066
-0.000268768
-0.00262087
0.000201041
-0.000208936
-0.00257017
0.000285797
-0.000186086
-0.00276885
0.000161158
-0.000157011
-0.00339509
0.000184023
-0.000186218
-0.00362936
0.000284133
-9.24608e-05
-0.00320376
0.00039436
8.31759e-05
-0.00278879
0.000365414
0.000380272
-0.00479275
8.51565e-06
0.000521609
-0.00636754
-0.000427022
0.000570198
-0.00687428
-0.000703132
0.000438463
-0.00878776
0.000294161
-0.000117541
-0.00170262
0.00026421
-8.76925e-05
-0.00213038
0.00018492
-0.000110061
-0.00158442
0.000131862
-0.000143944
-0.00133586
9.68597e-05
-0.000126772
-0.0019307
9.92569e-05
-0.000110822
-0.00164368
8.40234e-05
-0.000139465
-0.00123291
6.681e-05
-0.000180989
-0.00110451
3.30013e-05
-0.00018533
-0.000514547
5.72846e-05
-0.000106353
-0.000518178
4.12185e-05
5.33094e-05
-0.00138884
-0.000128401
0.000172617
-0.00235805
-0.000359179
0.000224967
-0.00175914
-0.00016769
0.000151935
-0.00294021
8.2434e-05
-8.12119e-05
-0.000393099
8.31433e-05
-7.91859e-05
-0.000668085
8.49967e-05
-6.61041e-05
-0.00081715
6.35026e-05
-5.81658e-05
-0.000941919
1.8903e-05
-7.42424e-05
-0.000796497
4.46935e-05
-0.000101366
-0.000399822
8.89235e-05
-0.000107798
-0.000380714
9.95936e-05
-0.0001046
-0.000415049
3.2074e-05
-9.65278e-05
-0.000661664
2.11128e-05
-7.00763e-05
-0.000621081
-2.42809e-05
-4.58459e-05
-0.000750072
-6.9671e-05
-4.65835e-05
-0.00110684
-4.69466e-05
-7.07627e-05
-0.000154494
-5.34056e-05
-4.50028e-05
-0.000142401
-3.34291e-05
2.63499e-06
0.000543673
-2.49546e-05
-0.00302712
-0.0016104
4.80334e-05
-0.00232108
-0.00105243
0.000119724
-0.00339673
-0.00130613
5.52902e-05
-0.00325898
-0.00162539
9.1011e-05
-0.0025824
-0.000553322
0.000395325
-0.00376771
-0.00105444
0.000363779
-0.00366165
-0.00132139
0.00015062
-0.00328912
-0.00161919
8.56694e-05
-0.00257417
0.000572853
-0.00443055
-0.000500453
0.000363937
-0.00435838
-0.000706894
0.000233923
-0.00411105
-0.000915488
0.000207306
-0.0040517
-0.00132533
3.23774e-05
-0.00358995
-0.00155496
-7.87976e-05
-0.00309518
-0.00010723
0.00091615
-0.00488313
-0.000286437
0.000716981
-0.0047056
-0.000454105
0.000510413
-0.0046421
-0.000649339
0.000231278
-0.00442762
-0.000807636
1.14598e-05
-0.00421496
-0.00119845
-5.44849e-05
-0.00405032
-0.00161253
0.000111234
-0.00327522
6.08147e-05
0.00100992
-0.00554877
-0.000119737
0.00088756
-0.00527599
-0.000140802
0.000815908
-0.00515408
-6.67346e-05
0.000630061
-0.00493513
-0.000366634
0.000482521
-0.00472123
-0.000689306
0.000233772
-0.00443851
-0.00127058
1.45929e-05
-0.00413411
-0.00155983
7.1539e-05
-0.0035542
0.000167569
0.00114198
-0.00533364
-8.00763e-06
0.00104037
-0.00518158
0.000165436
0.000928892
-0.00500548
0.000180081
0.000923933
-0.00528676
0.000107176
0.000730094
-0.00529522
-6.67488e-05
0.000552627
-0.00511898
-0.000733737
0.0003547
-0.0048651
-0.00136381
0.000190464
-0.00458455
-0.00153195
0.000113313
-0.00398533
0.000166374
0.00133942
-0.00582576
0.000204176
0.00119635
-0.00585236
0.000257551
0.0010276
-0.00583127
-1.95219e-05
0.000930992
-0.00571714
0.000436101
0.000944723
-0.0057409
0.000469412
0.000894742
-0.00559164
-2.07635e-05
0.000736066
-0.00552055
-0.00052513
0.000451483
-0.00490403
-0.00115729
0.000302514
-0.00447912
-0.00157066
0.000200824
-0.00345972
0.000144449
0.000939894
-0.00673093
0.000248224
0.00105829
-0.00688358
0.000319105
0.00101565
-0.00701647
0.000322249
0.000995416
-0.00693008
0.000518899
0.00114492
-0.00753358
0.000271708
0.00112947
-0.00777347
0.000215104
0.0011147
-0.00706125
0.000723092
0.00118242
-0.00609084
-0.000746675
0.000671019
-0.00600505
-0.00127769
0.000406266
-0.00525776
-0.00156008
0.000357602
-0.00416895
-4.72559e-05
0.000706938
-0.00553027
2.27287e-05
0.000854758
-0.00562695
0.000420582
0.000928696
-0.00682779
0.00055467
0.000702314
-0.00746056
0.00027356
0.000987812
-0.00751082
0.000238853
0.00112129
-0.00733354
0.000197492
0.00119378
-0.00644857
0.000779848
0.00124448
-0.00563578
0.000483237
0.00114315
-0.00537377
-0.000494429
0.000814667
-0.00697227
-0.00107653
0.000451464
-0.00668073
-0.00125555
0.000240651
-0.00506554
0.000101031
0.000222861
-0.00450559
-0.000163252
0.000175001
-0.00403976
0.000114954
0.000180245
-0.00400571
0.000463895
0.000149583
-0.00527674
0.00049857
0.000291466
-0.00613032
0.000168014
0.000168227
-0.00684213
0.000109656
0.000342353
-0.00658652
0.000389044
0.000394378
-0.00570791
0.000778179
0.000637939
-0.00528375
0.000498062
0.000941444
-0.00606382
-0.00025843
0.000726171
-0.00712977
-0.000682118
0.000408054
-0.00647702
-0.00104621
0.000178914
-0.00592698
0.000321451
-8.76411e-05
-0.00399664
0.00031854
-0.000222839
-0.00372152
0.000205227
-0.00029417
-0.00314415
0.000130539
-0.000274375
-0.00255411
0.000150696
-0.000237265
-0.00257283
0.000181869
-0.000181774
-0.0028267
0.00014062
-0.000151948
-0.00348596
0.00014105
-0.000151137
-0.00364493
0.000222649
-7.88567e-05
-0.00323138
0.000360689
8.79861e-05
-0.0027999
0.00030925
0.000381351
-0.00492053
-4.16738e-06
0.000525288
-0.00644686
-0.00049342
0.000572133
-0.00687371
-0.000782692
0.000456398
-0.00862916
0.000295625
-9.65159e-05
-0.00139009
0.000281437
-0.000109369
-0.00187924
0.00021743
-8.93734e-05
-0.0022835
0.000188916
-0.000113794
-0.00173998
0.000147615
-0.000126583
-0.00146476
8.16814e-05
-0.000107524
-0.00197099
7.83148e-05
-9.51922e-05
-0.00167735
8.3442e-05
-0.000127232
-0.00127051
4.57735e-05
-0.00016562
-0.00113792
1.92833e-05
-0.000166682
-0.000452388
6.0876e-05
-0.000101441
-0.000448585
4.51375e-06
5.33062e-05
-0.00134371
-0.000189813
0.000168941
-0.00215916
-0.000360747
0.00021574
-0.0015156
-0.000177491
0.000140237
-0.00293639
8.4165e-05
-8.0934e-05
-0.000547409
9.06895e-05
-8.01423e-05
-0.000482833
8.19479e-05
-7.28015e-05
-0.000743335
8.2337e-05
-5.99015e-05
-0.000897751
6.63103e-05
-5.25499e-05
-0.00102992
1.98335e-05
-6.83162e-05
-0.000849381
3.91899e-05
-9.91849e-05
-0.000447625
7.69374e-05
-0.000108075
-0.000454175
8.49712e-05
-0.000102458
-0.00049409
2.2403e-05
-9.17071e-05
-0.000662436
1.77991e-05
-6.63836e-05
-0.000618343
-2.805e-05
-4.45001e-05
-0.000724106
-7.57152e-05
-4.92359e-05
-0.00105266
-4.78365e-05
-7.28569e-05
-7.8803e-05
-4.27079e-05
-4.81902e-05
-4.88683e-05
-5.24944e-07
2.56706e-06
0.000541631
-0.00158315
-1.23254e-06
-0.00228537
3.29934e-05
-0.00315166
-0.00124004
-3.27231e-05
-0.00301246
-0.00166063
2.98683e-05
-0.00231571
-0.000773703
0.000309694
-0.00349511
-0.00115634
0.000183602
-0.00342314
-0.00133565
8.26025e-05
-0.00323631
-0.00162447
4.7297e-05
-0.00262442
-0.000656581
0.000491963
-0.00383268
-0.000692968
0.000374982
-0.00379284
-0.00102007
0.000290526
-0.00369698
-0.0013206
0.000107046