/*--------------------------------*- C++ -*----------------------------------*\
  =========                 |
  \\      /  F ield         | OpenFOAM: The Open Source CFD Toolbox
   \\    /   O peration     | Website:  https://openfoam.org
    \\  /    A nd           | Version:  7
     \\/     M anipulation  |
\*---------------------------------------------------------------------------*/
FoamFile
{
    version     2.0;
    format      ascii;
    class       volVectorField;
    location    "5";
    object      U;
}
// * * * * * * * * * * * * * * * * * * * * * * * * * * * * * * * * * * * * * //

dimensions      [0 1 -1 0 0 0 0];

internalField   nonuniform List<vector> 
18750
(
(2.16329 -0.702648 -1.64834)
(0.593622 1.20739 -0.213248)
(3.06573 0.335961 -1.08661)
(2.47908 -0.865014 -1.54685)
(3.61986 2.1016 1.15505)
(0.620777 1.89152 1.39413)
(0.0375517 1.38732 0.295426)
(-0.0363218 0.554228 -1.59328)
(2.69273 0.274798 -0.701997)
(2.53598 -0.986877 -1.38504)
(1.44883 3.66863 1.23157)
(1.28314 4.65522 1.07932)
(3.45597 2.40674 0.62424)
(0.596895 1.53372 1.20712)
(-0.89209 2.04858 1.85613)
(-0.527166 1.69847 0.866029)
(-0.0122577 0.842104 -2.00164)
(-0.0341105 0.53655 -1.57395)
(2.23745 0.230772 -0.421975)
(2.37182 -1.08521 -1.13546)
(-2.24812 5.34294 -1.59234)
(5.71734 3.31191 0.5567)
(2.43639 3.24899 1.55144)
(1.18711 2.17696 3.62678)
(1.19929 1.4913 1.13509)
(3.19678 2.64588 0.543572)
(0.472676 0.875122 1.18157)
(0.51773 1.5892 1.35627)
(-1.05172 2.10974 2.23425)
(-0.590239 1.85158 0.929735)
(0.280623 0.488902 -1.52701)
(-0.00940067 0.852104 -1.88709)
(-0.0329083 0.519475 -1.56969)
(1.7689 0.231053 -0.213674)
(2.0722 -1.12041 -0.877929)
(-0.792942 4.69977 -0.255546)
(4.35306 4.82361 3.57041)
(-0.807151 5.46709 -0.999831)
(3.02477 2.63422 1.10449)
(5.84982 3.32587 1.17527)
(2.89871 3.05736 0.983697)
(0.709265 1.93025 2.11742)
(1.8264 2.26971 3.67713)
(3.05105 0.12812 2.72946)
(2.13273 3.66994 -0.63748)
(0.549085 0.85077 -0.0183003)
(0.512249 0.85661 1.19819)
(0.568414 1.62536 1.47516)
(-0.752946 2.18997 2.48227)
(-0.533767 1.94143 0.709139)
(0.589745 0.324608 -1.46377)
(0.232752 0.503534 -1.41494)
(-0.0100167 0.864827 -1.76739)
(-0.00631269 0.504459 -1.56454)
(1.33021 0.264845 -0.0495049)
(1.69297 -1.09275 -0.635282)
(-1.66031 3.40331 0.0107779)
(1.98525 5.08282 2.37263)
(-0.216519 5.0016 -0.273192)
(3.48967 3.83783 2.98448)
(4.18608 5.06753 2.77707)
(0.197017 5.11427 -0.700952)
(0.741819 2.64886 -1.16606)
(3.41806 2.59565 1.41097)
(5.4998 3.10273 2.1156)
(4.18177 2.7386 -0.0553993)
(0.697526 1.47245 1.4154)
(0.980052 1.77545 2.25452)
(2.37795 2.44304 3.15828)
(3.05265 1.82313 2.2452)
(1.5367 4.32842 0.778204)
(0.00302274 0.768977 -1.18373)
(0.535627 0.771749 0.00650263)
(0.543449 0.835985 1.20639)
(0.576382 1.67905 1.58675)
(-0.874391 2.36165 2.43052)
(-0.429719 2.05138 0.537724)
(0.599462 0.226543 -1.46387)
(0.653191 0.294226 -1.45185)
(0.18791 0.520077 -1.30907)
(-0.00899381 0.880421 -1.64346)
(0.0341672 0.453974 -1.5736)
(0.938398 0.316564 0.0638668)
(1.28086 -1.01177 -0.421161)
(-1.87458 2.71893 0.385251)
(-1.26322 4.25883 0.402955)
(-1.68859 3.21247 0.00352484)
(2.28249 4.63811 2.45614)
(2.88055 4.53147 2.08198)
(-0.0708549 4.96937 -0.0672604)
(2.20114 3.362 2.40807)
(3.59858 3.84155 2.89673)
(3.09898 5.20693 2.10148)
(1.57161 4.63986 -0.257359)
(1.4168 3.16742 -0.2347)
(0.742604 2.71984 -0.834556)
(4.18394 2.67665 1.64431)
(4.05477 3.54048 2.59141)
(4.11513 2.91421 -0.586395)
(0.560102 1.91547 1.33846)
(0.869591 1.39118 1.43627)
(1.33031 1.64784 2.22126)
(2.74008 2.54823 2.56826)
(2.70209 2.14017 1.87014)
(2.13509 4.68091 0.205291)
(-0.169539 0.646952 -1.36698)
(0.0196283 0.716859 -1.19368)
(0.523034 0.69471 0.00385577)
(0.59714 0.818506 1.17038)
(0.35299 1.81642 1.66064)
(-0.891296 2.49297 2.29361)
(-0.2274 2.08721 0.669432)
(0.436378 -0.108892 -1.18902)
(0.723591 0.202497 -1.50584)
(0.686318 0.277276 -1.44108)
(0.145839 0.538697 -1.21329)
(-0.00274152 0.89627 -1.51324)
(0.129535 0.403216 -1.58002)
(0.603743 0.372 0.135465)
(0.868802 -0.879552 -0.237894)
(-1.72547 2.56815 0.0210464)
(-0.670366 3.39597 0.213581)
(-1.76056 2.60247 0.408416)
(0.076486 4.58093 1.07328)
(-1.01338 3.83943 0.249318)
(-1.52992 3.22187 -0.0399304)
(1.6636 4.91812 2.05169)
(2.95665 4.28324 2.42808)
(2.91509 3.92337 1.42436)
(0.320587 4.71069 0.552258)
(0.53632 3.83833 1.11332)
(3.71552 2.78667 0.361014)
(5.15637 2.7341 1.01427)
(2.12006 5.02987 1.77991)
(1.96823 4.0173 -0.0579716)
(1.1736 3.80205 -0.30684)
(1.24751 3.27161 -0.270508)
(1.96409 2.62218 0.567597)
(4.17923 2.71009 2.61434)
(2.87846 3.60194 2.40725)
(3.43264 3.34393 -0.310988)
(0.276691 2.1031 1.18491)
(0.705911 1.98211 1.23031)
(0.965786 1.35193 1.39248)
(1.48825 1.68783 2.08204)
(3.2543 2.50911 2.10674)
(2.2578 2.90841 1.88015)
(2.91584 4.7771 1.04825)
(-0.0952983 0.72387 -1.04803)
(-0.104553 0.642255 -1.37406)
(0.0460437 0.679661 -1.21468)
(0.499763 0.626813 -0.0402783)
(0.588777 0.798033 1.17288)
(0.209047 1.94271 1.64107)
(-0.973143 2.61383 2.05338)
(-0.0630389 2.04232 0.778722)
(0.538462 -0.065233 -0.993006)
(0.612517 -0.129142 -1.29238)
(0.83677 0.167554 -1.58081)
(0.730254 0.245561 -1.41698)
(0.111332 0.557289 -1.12857)
(-0.00116155 0.912077 -1.37822)
(0.142314 0.345135 -1.59982)
(0.340557 0.421601 0.164766)
(0.481353 -0.708355 -0.0862861)
(-1.84414 2.19236 -0.0196987)
(-0.959956 2.96621 0.0386842)
(-1.55348 2.62409 0.00273663)
(0.357729 3.75048 0.443401)
(-0.684734 3.36558 0.122758)
(-1.24277 2.7789 0.408166)
(0.540752 4.47063 1.38597)
(1.08475 4.18295 1.4189)
(-0.472317 3.52611 0.375308)
(-1.62969 3.14687 0.0133438)
(0.756284 5.02373 2.04273)
(3.60025 3.68151 1.9793)
(4.68085 2.60575 1.83449)
(0.828608 4.32049 0.705385)
(0.106251 4.45599 0.899822)
(0.169294 4.69547 1.30517)
(0.937771 3.89505 1.97719)
(2.63298 3.30821 1.68059)
(3.54426 3.42742 2.44563)
(0.9602 5.58542 1.27147)
(2.12685 3.57133 0.14154)
(1.45025 3.96116 -0.250061)
(1.3395 3.76353 -0.16046)
(1.67059 3.15452 0.354586)
(3.48956 2.35906 1.91208)
(3.97136 2.72717 2.76026)
(1.97462 4.06894 1.46422)
(2.36681 3.91477 0.140218)
(0.160044 1.92609 0.664145)
(0.617092 2.14073 0.802845)
(0.928015 1.9686 1.04418)
(1.11571 1.29072 1.31281)
(1.4018 1.96332 1.90789)
(2.94118 2.89072 2.39077)
(1.8675 3.23773 1.8707)
(2.76478 5.17266 1.08408)
(0.500281 0.877392 -0.77208)
(0.135234 0.735422 -1.09633)
(0.0684683 0.621846 -1.41008)
(0.113191 0.583473 -1.30217)
(0.463399 0.567052 -0.0880548)
(0.544785 0.78091 1.16595)
(0.127616 2.01989 1.62152)
(-0.972005 2.67114 1.87989)
(0.344617 1.99211 0.991151)
(0.615934 0.106176 -1.81267)
(0.689966 -0.0854404 -1.13783)
(0.803061 -0.16366 -1.43403)
(0.924827 0.131787 -1.68372)
(0.739402 0.214077 -1.40654)
(0.0877702 0.573652 -1.05514)
(-0.0172127 0.940348 -1.24129)
(0.157312 0.28695 -1.61855)
(0.141404 0.453779 0.157646)
(0.130734 -0.520327 0.0351315)
(-1.42805 2.07484 -0.032929)
(-1.02169 2.61298 -0.00795536)
(-1.7159 2.2184 -0.00203094)
(-0.0703272 3.28514 0.24373)
(-1.08555 2.88639 0.062169)
(-1.4389 2.66934 0.00564593)
(0.253751 3.84635 0.759435)
(0.212911 3.71638 0.504874)
(-1.04084 3.35511 -0.0355634)
(-1.13942 2.71499 0.367473)
(0.269444 4.20278 1.62181)
(1.40616 3.94257 1.56131)
(1.38395 3.57748 1.42339)
(-0.861387 3.28338 0.351257)
(-1.57958 3.17277 -0.0141757)
(1.20111 5.00818 2.02516)
(1.9364 4.82846 2.24545)
(2.14896 3.96192 2.17016)
(3.07089 3.36085 1.7967)
(0.788741 4.1542 0.430603)
(-0.0255013 4.11835 1.12563)
(0.722773 4.93233 1.28494)
(0.476224 4.74951 1.54799)
(1.71666 4.0381 2.37411)
(2.96768 3.32366 2.58129)
(3.22892 3.51166 2.44424)
(0.608242 5.74132 0.901236)
(1.67356 3.47992 0.200627)
(2.15457 3.71593 -0.0638481)
(1.6899 4.04049 0.029862)
(1.45577 3.7368 -0.0110247)
(2.45546 2.8587 0.838575)
(4.44801 1.69856 2.01789)
(3.71104 2.70948 2.46852)
(2.01338 3.97964 0.703868)
(1.8846 4.1438 0.0447092)
(0.726735 1.77635 0.0496103)
(0.28011 2.02681 0.515025)
(0.738512 2.15236 0.518551)
(1.2331 1.87094 0.742598)
(1.23071 1.2837 1.19996)
(1.70493 2.03631 1.70539)
(2.6599 3.12033 2.53573)
(1.00637 4.0741 1.62606)
(2.51586 5.4767 1.20478)
(0.799018 1.19497 -1.23446)
(0.790566 0.850584 -0.820113)
(0.319697 0.708533 -1.15858)
(0.224874 0.58219 -1.48531)
(0.120447 0.545468 -1.354)
(0.420359 0.506299 -0.138235)
(0.502624 0.778825 1.05831)
(0.0758298 2.0507 1.61862)
(-0.943489 2.64021 1.83554)
(0.461593 1.95251 0.88479)
(0.337273 0.414868 -2.41246)
(0.587854 0.0901875 -1.95428)
(0.839954 -0.119108 -1.32939)
(0.992259 -0.216985 -1.60507)
(0.980873 0.0928304 -1.79492)
(0.735421 0.180787 -1.38725)
(0.0768255 0.58503 -0.993004)
(-0.0318521 0.963108 -1.13262)
(0.159901 0.243366 -1.63468)
(0.00527751 0.451084 0.109528)
(-0.170718 -0.307139 0.133056)
(-1.01866 2.47252 -0.063631)
(-1.10686 2.21836 -0.00669518)
(-0.547032 2.95806 0.0395405)
(-0.817643 2.73689 -0.10055)
(-1.49608 2.33155 -0.0269554)
(-0.101674 3.28662 0.502503)
(-0.229898 3.20802 -0.0153083)
(-1.02474 2.97169 0.0723039)
(-1.34039 2.71368 0.191564)
(0.46135 3.62578 0.99771)
(0.657042 3.71592 0.853111)
(0.228862 3.54173 0.634574)
(-1.11608 3.38086 -0.113039)
(-0.987528 2.7747 0.306289)
(0.844829 4.0957 1.55339)
(0.465001 4.16392 1.6265)
(1.01196 3.83599 1.46402)
(0.845581 3.52458 1.01452)
(-0.928519 3.14811 0.324587)
(-1.54676 3.2435 0.0331346)
(0.74567 4.88618 1.68628)
(1.2707 4.95744 2.18161)
(1.83331 4.73214 2.25619)
(3.01756 3.65325 2.27657)
(3.67227 2.79405 1.40722)
(-0.313617 4.41837 0.262477)
(0.091 3.79191 1.21672)
(1.57525 5.07202 1.25492)
(0.990605 4.91052 1.53608)
(0.892015 4.56204 2.38189)
(2.24557 3.87454 2.59118)
(3.31212 3.16702 2.69078)
(2.79187 3.83344 2.50692)
(0.650308 5.54735 0.625966)
(1.23905 3.4794 0.332115)
(0.48375 3.54537 -0.0675082)
(1.97285 3.95161 0.0096835)
(2.04493 3.90568 0.302596)
(1.6531 3.52943 0.279873)
(2.9983 2.57478 1.00737)
(4.05684 1.98731 2.53128)
(2.97555 3.32067 2.29567)
(1.7982 4.11836 0.617362)
(0.889148 4.74616 -0.22019)
(0.804763 1.78968 -0.556238)
(0.639601 1.6631 0.0531468)
(0.388423 2.10201 0.260091)
(1.11841 2.17193 -0.116168)
(1.4512 1.75564 0.334504)
(1.17246 1.31953 1.17836)
(2.23084 2.16079 1.85575)
(2.76344 3.2058 2.28851)
(1.54816 4.19762 1.99909)
(2.69659 5.55173 1.27728)
(0.302022 0.633471 -1.40322)
(0.87142 1.15924 -1.16742)
(0.989191 0.818696 -0.858964)
(0.46939 0.673726 -1.20009)
(0.295239 0.581846 -1.5214)
(0.119804 0.498911 -1.39527)
(0.365261 0.448082 -0.197698)
(0.438873 0.819362 1.04266)
(0.0936938 2.07646 1.56726)
(-0.825195 2.55554 1.88155)
(0.908464 1.71832 0.734236)
(0.482618 0.443699 -1.84257)
(0.259707 0.423603 -2.32256)
(0.548724 0.0888355 -2.0981)
(0.972362 -0.149579 -1.54478)
(1.16197 -0.275274 -1.7965)
(0.989019 0.0583524 -1.89267)
(0.723768 0.14897 -1.35477)
(0.0743826 0.590667 -0.943616)
(-0.031696 0.999499 -1.071)
(0.138919 0.194782 -1.64469)
(0.0317514 0.36223 0.0335452)
(-0.377144 -0.123033 0.195894)
(-1.26356 1.91185 0.0849463)
(-0.661646 2.62652 0.394418)
(-0.538774 2.59744 -0.0848312)
(-0.885217 2.33142 -0.0046858)
(-0.601468 3.10707 0.157774)
(-0.479146 2.93937 -0.0449148)
(-0.708238 2.83027 -0.0792237)
(-1.24294 2.47429 -0.0769057)
(0.160158 3.4499 0.690128)
(0.101566 3.25888 0.408507)
(-0.244925 3.21969 -0.029913)
(-0.871786 3.03845 0.100055)
(-1.19247 2.7858 0.220737)
(0.507302 3.42094 1.1338)
(0.814859 3.64816 0.963197)
(0.855187 3.61016 0.798755)
(1.04945 3.26399 0.689471)
(-1.08484 3.30378 -0.206729)
(-0.780787 2.88987 0.277796)
(0.618562 4.07942 1.62519)
(0.601653 3.94326 1.6817)
(1.06157 3.90785 1.76608)
(1.31073 3.7747 1.49417)
(1.5979 2.906 0.95619)
(-0.801433 3.17448 0.424254)
(-1.54471 3.32058 -0.0189073)
(1.08819 4.70897 1.58305)
(1.22422 4.71871 1.86689)
(1.5606 4.77912 2.30757)
(2.23765 4.44163 2.26315)
(2.88942 3.54695 2.3923)
(2.22584 3.32057 1.36639)
(-0.829046 4.48481 0.270838)
(0.0385213 3.66611 1.25211)
(1.29357 4.85986 1.34107)
(1.62961 4.90029 1.76003)
(1.12858 4.6501 1.9919)
(1.42351 4.29964 2.77816)
(2.50783 3.65972 2.62224)
(3.67495 2.28604 2.78336)
(2.81447 3.53747 2.10097)
(0.65567 5.47806 0.331133)
(0.983569 3.58846 0.38948)
(0.71889 2.93963 0.70896)
(1.96847 3.40931 0.694387)
(1.89718 3.98363 1.00802)
(1.8774 4.03068 -0.0359851)
(1.82701 3.42164 0.487304)
(3.45352 2.18209 1.18173)
(3.7745 2.05072 2.27871)
(2.67225 3.4891 2.17378)
(1.41874 4.44326 0.688787)
(0.568861 5.01219 -0.21748)
(0.75286 1.73083 -0.883666)
(0.83547 1.4497 -1.08978)
(0.84274 1.60867 -0.224806)
(0.66104 2.05808 -0.0893685)
(1.52764 1.97382 -0.504012)
(1.54549 1.62292 0.0116341)
(1.20995 1.41474 1.03993)
(2.64423 1.94366 2.31938)
(2.96445 3.18263 2.23203)
(2.09558 4.01704 2.46343)
(2.55997 5.81833 1.05297)
(0.292504 0.759878 -0.848621)
(0.492648 0.661099 -1.40756)
(1.03043 1.07203 -1.04034)
(1.07937 0.779004 -0.890829)
(0.593426 0.632548 -1.2209)
(0.32411 0.590903 -1.51578)
(0.109015 0.464019 -1.41224)
(0.300847 0.40385 -0.2516)
(0.316295 0.911335 1.10959)
(0.118777 2.1034 1.51667)
(-0.5999 2.41123 1.96006)
(1.12956 1.54932 0.573636)
(0.576543 0.399094 -1.57613)
(0.523364 0.452472 -1.64589)
(0.177719 0.443094 -2.21921)
(0.527582 0.0847316 -2.23342)
(1.06642 -0.18709 -1.77456)
(1.29775 -0.341449 -1.99065)
(0.950666 0.049258 -1.93281)
(0.704398 0.119796 -1.31528)
(0.0748035 0.593011 -0.906)
(-0.0471711 1.01015 -1.04824)
(0.121377 0.144768 -1.6781)
(0.116146 0.215266 -0.0344087)
(-0.558209 0.0607714 0.248773)
(-1.0449 1.78558 0.0707934)
(-1.25135 2.22258 0.0446551)
(-1.07975 1.99613 0.0845254)
(-0.58497 2.72056 0.204236)
(-0.399549 2.7245 0.35888)
(-0.801622 2.51669 -0.122117)
(-0.774594 2.36698 -0.00839298)
(-0.273988 3.16471 0.370708)
(-0.28379 3.06441 0.15504)
(-0.401788 2.89049 -0.0320303)
(-0.673857 2.84275 -0.0524162)
(-1.12543 2.52269 -0.127408)
(0.341691 3.36068 0.927447)
(0.394568 3.31228 0.681112)
(0.315475 3.23797 0.436811)
(-0.212835 3.11273 -0.0589596)
(-0.67351 3.11439 0.0879935)
(-0.973784 2.91533 0.276213)
(0.361227 3.51075 1.02321)
(0.631308 3.45185 1.03449)
(0.781836 3.62125 0.898568)
(1.05771 3.40314 0.713318)
(0.344172 3.2913 0.497093)
(-0.752715 3.42515 0.0663657)
(-0.721778 2.9697 0.176291)
(0.549832 4.00157 1.61948)
(0.866339 3.82977 1.64332)
(1.25737 3.80904 1.56174)
(1.84249 3.50752 1.9063)
(1.95928 3.05479 1.89168)
(0.656279 3.04424 0.717857)
(-0.872609 3.35108 0.417466)
(-1.50364 3.43876 -0.190565)
(0.95065 4.60778 1.83131)
(1.56184 4.56499 1.54561)
(1.36463 4.62135 1.92153)
(1.70819 4.88668 1.98139)
(1.70186 4.65159 2.25661)
(2.37791 3.28813 2.2478)
(1.00682 3.89837 1.3682)
(-0.290786 4.32702 0.361981)
(-0.0200345 3.61914 1.30348)
(1.00874 4.01097 2.30341)
(1.60866 4.87887 1.42958)
(1.74664 4.79289 1.8872)
(1.25851 4.64612 2.11847)
(1.77279 4.17485 2.76644)
(3.06864 3.05465 2.56024)
(3.44501 2.29065 2.72027)
(1.86284 4.30719 1.85695)
(0.729815 5.34899 0.151878)
(0.628951 3.92136 0.510017)
(0.405143 2.64196 0.904339)
(0.443121 3.06615 0.424007)
(1.87467 3.61915 -0.0218484)
(1.70483 4.18928 1.31245)
(1.78524 4.11962 0.497366)
(2.45504 3.08808 0.771623)
(3.689 1.88643 1.30783)
(3.47844 2.16752 2.62785)
(2.52148 3.84552 1.79723)
(1.21229 4.65648 0.788063)
(0.652368 4.96315 -0.161892)
(1.13711 2.07939 -1.59419)
(0.781466 1.71302 -0.774678)
(0.520945 1.65969 -0.692565)
(0.939804 1.60265 -0.585439)
(0.768657 2.01342 -0.20772)
(1.82308 1.85516 -1.0023)
(1.54433 1.58826 -0.106804)
(1.43729 1.32437 0.900313)
(2.90388 1.88447 2.33163)
(2.92787 3.09841 2.31151)
(2.23955 4.02153 2.4761)
(2.73462 5.7401 1.16601)
(1.05357 1.16152 -0.584775)
(0.587924 0.827128 -0.887745)
(0.625699 0.680565 -1.33603)
(1.01692 1.06493 -0.920745)
(1.07746 0.777483 -0.893048)
(0.651007 0.607537 -1.22024)
(0.347454 0.623449 -1.45974)
(0.0908457 0.426759 -1.40042)
(0.231472 0.372303 -0.287832)
(0.235207 0.994597 1.1175)
(0.103224 2.11539 1.49114)
(-0.485183 2.31047 1.96307)
(1.28372 1.44057 0.418008)
(0.430788 0.35934 -1.74303)
(0.651343 0.407552 -1.41862)
(0.569219 0.465342 -1.45462)
(0.0802554 0.493673 -2.10658)
(0.484653 0.0993917 -2.3515)
(1.10148 -0.213442 -1.99589)
(1.3696 -0.39863 -2.17105)
(0.821026 0.0726205 -1.94261)
(0.68148 0.0922562 -1.27292)
(0.0779939 0.592712 -0.877071)
(-0.0765173 1.0409 -1.09152)
(0.112036 0.0948854 -1.74328)
(0.169772 0.0655675 -0.0928694)
(-0.681156 0.233827 0.29156)
(-1.12262 1.60863 0.0567199)
(-1.01335 2.01645 0.0122177)
(-0.924874 1.86078 0.0931882)
(-0.573936 2.461 0.303158)
(-1.33736 2.15013 0.0860305)
(-1.00331 2.05722 0.0638554)
(-0.292577 2.85599 0.315855)
(-0.493825 2.76785 0.145579)
(-0.394778 2.77106 0.302197)
(-0.822269 2.58241 -0.122638)
(-0.587694 2.38678 -0.0402817)
(-0.206086 3.16935 0.528801)
(-0.131656 3.18487 0.387828)
(-0.0223255 2.98845 0.119865)
(0.0354476 2.92341 -0.0249789)
(-0.523787 2.86343 -0.0676259)
(-0.953755 2.61418 -0.0689691)
(0.338528 3.49106 0.996049)
(0.405098 3.372 0.887149)
(0.563118 3.17876 0.660452)
(0.415879 3.18603 0.513839)
(0.047863 3.02188 0.0364163)
(-0.57886 3.13804 0.0515223)
(-0.965277 2.95475 0.213936)
(0.25196 3.54022 1.29631)
(0.504763 3.26411 1.33333)
(0.757538 3.45976 1.11334)
(1.13218 3.4422 1.02013)
(1.01197 3.23395 0.690041)
(0.729334 3.22527 0.520769)
(-0.607679 3.52435 0.0692706)
(-0.438897 3.08963 0.0508954)
(0.363729 3.85218 1.95092)
(1.09205 3.71723 1.56815)
(1.20401 3.78717 1.42247)
(1.17763 3.70585 1.52486)
(1.76247 3.34427 1.61432)
(1.34003 3.31306 1.37271)
(0.59214 3.22514 0.526265)
(-0.562037 3.44157 0.494655)
(-1.55628 3.51653 -0.268629)
(0.704383 4.44758 1.91322)
(1.33791 4.51558 1.72387)
(1.53067 4.4302 1.83278)
(2.08078 4.42726 2.05006)
(2.05257 4.75879 2.17193)
(2.46891 4.00242 2.71558)
(1.75041 3.91693 1.77541)
(1.12259 3.96988 1.14841)
(-0.446875 4.44412 0.391526)
(-0.294231 3.69888 1.0209)
(0.314123 3.63296 2.24027)
(1.43435 4.205 2.03704)
(2.23139 4.69339 1.55357)
(1.68767 4.71458 2.46597)
(1.61655 4.6028 2.44443)
(2.30227 3.8248 2.83625)
(3.28275 2.71049 2.62221)
(3.45633 2.30634 2.71152)
(2.14429 4.08251 1.5086)
(0.983042 5.16074 0.326568)
(0.389071 4.10876 0.53252)
(1.96311 2.36135 0.60481)
(0.313599 2.669 0.343108)
(1.60891 2.99725 0.426495)
(2.14788 3.45486 0.578057)
(2.16981 4.1338 0.771863)
(2.24698 3.7952 0.741494)
(2.9649 2.75952 1.06189)
(3.74334 1.90752 1.67732)
(3.09996 2.58475 3.22824)
(2.61729 4.01174 1.56663)
(1.34831 4.53791 0.945836)
(0.686554 5.03576 -0.0735253)
(1.8184 2.2969 -0.949184)
(1.53397 1.95273 -1.25633)
(1.0742 1.57877 -0.928428)
(0.823735 1.49996 -0.831824)
(0.849459 1.64106 -0.730368)
(1.15651 1.94704 -0.603232)
(1.76993 1.84868 -0.822689)
(1.56481 1.57931 -0.126522)
(1.52855 1.25344 0.809803)
(2.92358 1.85919 2.43791)
(2.89788 3.17858 2.28463)
(2.07018 4.43402 2.33705)
(3.13769 5.43264 1.46743)
(1.37696 1.01817 -0.72257)
(1.19957 1.2427 -0.595962)
(0.884235 0.869993 -0.900117)
(0.813908 0.691532 -1.1555)
(1.05377 1.01299 -0.772644)
(1.04269 0.776094 -0.879208)
(0.703084 0.589537 -1.19181)
(0.375374 0.639904 -1.37526)
(0.0575426 0.41099 -1.36313)
(0.167571 0.348648 -0.313114)
(0.147594 1.09392 1.13632)
(0.0837448 2.11296 1.40457)
(-0.479356 2.23433 1.98802)
(1.51041 1.2594 0.218938)
(0.620395 0.229389 -1.69376)
(0.430258 0.387115 -1.63066)
(0.696256 0.416308 -1.26881)
(0.619981 0.480622 -1.28027)
(0.0421969 0.537602 -1.97973)
(0.432825 0.122946 -2.43044)
(1.06482 -0.21678 -2.16974)
(1.33106 -0.406426 -2.27428)
(0.717695 0.0957477 -1.89465)
(0.656724 0.0662327 -1.2294)
(0.0843342 0.589689 -0.854141)
(-0.0475566 1.06425 -1.15545)
(0.100549 0.0335148 -1.82497)
(0.210832 -0.100801 -0.152304)
(-0.775125 0.367273 0.327102)
(-0.727921 2.04445 0.0780186)
(-0.988788 1.71158 0.0273322)
(-0.61309 2.30152 0.00292945)
(-0.687444 2.24346 0.0409392)
(-0.840219 1.93377 0.0774471)
(-0.0951003 2.4988 0.359301)
(-0.474218 2.48148 0.297073)
(-0.703883 2.38602 0.00870135)
(-0.979507 2.09921 0.112625)
(-0.53151 2.89117 0.452877)
(-0.0363572 2.88482 0.263106)
(-0.350138 2.78013 0.0866803)
(-0.260665 2.79694 0.266497)
(-0.538487 2.63753 -0.078283)
(-0.514564 2.43455 -0.097656)
(0.209772 3.16463 0.917782)
(0.315225 3.10794 0.629544)
(0.253353 3.05472 0.453716)
(0.0438421 2.96794 0.0877493)
(0.0081315 2.89729 -0.051696)
(-0.135285 2.98891 -0.081453)
(-0.770266 2.67047 0.223165)
(0.130659 3.58197 1.12251)
(0.404452 3.43999 0.992129)
(0.532937 3.34751 0.864268)
(0.772009 3.16162 0.669414)
(0.724083 3.03332 0.475009)
(0.327232 3.06218 0.0662796)
(-0.156237 3.18004 0.0782272)
(-0.654678 3.07408 0.117167)
(0.35194 3.43954 1.57912)
(0.510718 3.37962 1.22789)
(0.852081 3.23734 1.23851)
(1.23682 3.23622 1.13768)
(1.19919 3.30557 0.933045)
(1.18199 3.20366 0.681666)
(0.637043 3.26432 0.31661)
(-0.435723 3.52285 0.0976652)
(-0.255651 3.19006 0.0497412)
(0.513739 3.80769 2.02028)
(0.722635 3.7718 1.76431)
(1.06379 3.68369 1.50468)
(0.514288 3.89426 1.40768)
(1.99392 3.31281 1.46374)
(2.05202 3.27062 1.5288)
(1.50364 3.30642 1.19431)
(0.687814 3.31037 0.521947)
(-0.0933388 3.47372 0.626061)
(-1.15161 3.61743 -0.142637)
(0.0760972 4.36282 1.86056)
(0.874959 4.40859 1.96082)
(1.41653 4.44602 1.76606)
(1.82736 4.26981 1.9768)
(2.06725 4.50125 2.20102)
(2.30504 4.69591 2.11979)
(1.96931 4.58019 1.89811)
(3.25555 2.59803 2.01722)
(0.883239 4.23381 0.999407)
(-0.340955 4.47919 0.418787)
(-0.366747 3.87535 0.883184)
(0.138767 3.62789 1.70283)
(0.424242 3.62805 2.12995)
(1.68834 4.15493 1.93192)
(2.42205 4.48225 1.67951)
(1.76268 4.68453 2.63621)
(2.18389 4.32417 2.55231)
(2.31699 3.71582 2.88139)
(3.5593 2.41235 2.71321)
(3.67005 1.60681 2.52245)
(2.11828 4.21609 1.40266)
(1.37497 4.76593 0.726639)
(0.513749 4.19464 0.556095)
(0.581887 2.85614 0.329399)
(-0.382046 2.7928 0.267616)
(0.503174 2.55261 0.589833)
(1.5778 3.1339 0.416282)
(2.63425 3.15904 0.53169)
(2.29837 4.01543 0.87248)
(2.14113 3.86762 0.780057)
(2.96 2.78664 1.36454)
(3.63506 1.93002 2.29695)
(3.26049 2.57917 3.20081)
(2.79214 3.86599 1.55547)
(1.58297 4.49393 0.923892)
(0.666236 5.21946 -0.0131205)
(1.62842 2.49723 -0.695522)
(1.77321 2.07573 -1.20288)
(1.43456 1.77172 -1.35813)
(1.05793 1.5638 -0.987262)
(0.716222 1.56602 -0.832605)
(0.840389 1.63905 -0.741826)
(1.33913 1.93401 -0.699111)
(1.72657 1.82592 -0.669086)
(1.59175 1.55459 -0.0906832)
(1.66054 1.15511 0.736908)
(2.92544 1.86628 2.45367)
(2.97864 3.21077 2.31298)
(2.11111 4.53443 2.42621)
(3.25591 5.33036 1.44214)
(1.13941 0.793257 -0.92905)
(1.61718 1.03077 -0.638247)
(1.43383 1.2409 -0.627503)
(1.13082 0.877058 -0.868748)
(0.951173 0.690989 -0.960851)
(1.01083 1.0006 -0.690855)
(1.011 0.770925 -0.801495)
(0.790434 0.539878 -1.12538)
(0.344048 0.670782 -1.23649)
(0.00951382 0.395233 -1.29851)
(0.101715 0.34189 -0.337286)
(0.0823699 1.16846 1.14628)
(0.0376843 2.10641 1.30357)
(-0.473212 2.21629 1.9562)
(1.81814 0.850807 -0.023696)
(0.933219 0.312605 -1.70208)
(0.670505 0.227959 -1.68115)
(0.444878 0.408743 -1.50313)
(0.714137 0.427517 -1.14705)
(0.670045 0.494926 -1.13354)
(0.0700508 0.570644 -1.85154)
(0.38662 0.151672 -2.466)
(0.981083 -0.189204 -2.21773)
(1.16561 -0.344219 -2.25828)
(0.623558 0.119096 -1.80585)
(0.630049 0.0446203 -1.18973)
(0.0940264 0.583771 -0.836309)
(-0.0679736 1.02699 -1.26912)
(0.0954992 -0.0342782 -1.90983)
(0.254477 -0.275358 -0.209167)
(-0.760501 0.470986 0.375693)
(-0.888557 1.66593 -0.0519915)
(-0.588012 2.12383 -0.112974)
(-0.625334 2.10584 0.0445841)
(-0.921121 1.76837 0.0136403)
(-0.380663 2.32315 0.185783)
(-0.580423 2.33369 0.0512846)
(-0.571956 2.33343 0.0592515)
(-0.72584 1.99095 0.0609973)
(-0.353004 2.53857 0.327935)
(-0.120644 2.48467 0.323417)
(-0.255287 2.54883 0.238414)
(-0.519674 2.40491 0.042089)
(-0.956848 2.11092 0.0985572)
(-0.247447 2.86254 0.622591)
(-0.313551 2.89209 0.448996)
(-0.228989 2.85199 0.349112)
(-0.0755271 2.77051 0.123015)
(0.00255339 2.78733 0.146637)
(-0.394232 2.64932 -0.0512958)
(-0.578357 2.48209 -0.112324)
(0.199897 3.09523 1.01382)
(-0.0375356 3.15861 0.84869)
(0.185953 3.00347 0.633619)
(0.498439 2.95261 0.387905)
(0.223958 2.98982 0.0792548)
(0.126589 2.87869 -0.0276141)
(-0.308011 3.00622 0.0143823)
(-0.481942 2.71086 0.147363)
(0.276977 3.59194 1.2402)
(0.15586 3.57234 1.11074)
(0.670578 3.3651 1.05057)
(0.766974 3.21567 0.819677)
(1.03954 3.14009 0.669194)
(0.911798 2.93699 0.465177)
(0.153892 3.15338 -0.0365342)
(-0.1522 3.15655 0.0366384)
(-0.536297 3.13615 0.0752465)
(0.182325 3.61942 1.49231)
(0.55584 3.41758 1.54143)
(0.791119 3.2176 1.28494)
(1.04847 3.21465 1.31272)
(1.25896 3.15099 1.07585)
(1.72778 3.038 0.80473)
(1.34244 3.14982 0.659626)
(0.910221 3.15581 0.397596)
(0.390724 3.54249 0.289155)
(0.0914897 3.30983 0.0181539)
(0.658575 3.71542 2.12938)
(0.761822 3.67783 1.94992)
(0.98878 3.70504 1.6834)
(1.143 3.69085 1.50655)
(2.18896 3.17106 1.50694)
(1.67882 3.36496 1.31033)
(2.22263 3.09869 1.12532)
(2.24738 2.82091 0.957064)
(0.663122 3.50348 0.354855)
(0.323561 3.58644 0.729875)
(-0.745837 3.7235 -0.245005)
(-0.075236 4.24616 1.65751)
(0.554696 4.29194 1.97059)
(1.57338 4.40734 1.97816)
(1.97399 4.29072 1.77793)
(2.06689 4.11292 2.12348)
(2.26384 4.47756 2.1183)
(2.42944 4.63338 2.27004)
(3.39569 3.1791 2.5558)
(1.8269 3.52369 1.6306)
(1.05111 4.09662 1.01597)
(0.344214 4.34117 0.587137)
(-0.227521 4.03187 0.870397)
(0.0432231 3.97264 1.50788)
(0.130791 3.62813 1.82172)
(1.1807 3.64418 2.30274)
(2.6602 4.11892 1.63003)
(2.34528 4.29594 1.93419)
(1.83434 4.51657 2.69402)
(2.18415 4.3275 2.75773)
(2.65009 3.41548 3.10032)
(3.61082 1.9232 2.87131)
(3.33317 2.2937 2.45602)
(1.98458 4.51249 1.34602)
(1.62839 4.40227 0.637786)
(0.646631 4.33717 0.603079)
(0.648618 3.2102 0.965421)
(0.789751 2.85385 0.804075)
(0.658041 2.48583 0.504927)
(0.781634 2.54646 0.486564)
(1.78275 3.16987 1.15304)
(2.43062 3.55035 0.150787)
(2.32989 3.82386 1.43301)
(2.27659 3.71477 1.0464)
(2.82954 2.68234 1.68061)
(3.51569 1.81726 2.44126)
(3.42293 2.65414 2.81968)
(3.20482 3.68774 1.60907)
(1.91347 4.46974 1.02972)
(0.555288 5.39658 -0.0457707)
(1.91052 2.54837 -0.0310104)
(1.52431 2.50216 -0.680122)
(1.38727 2.3595 -0.975712)
(1.4607 1.77688 -1.32538)
(1.20866 1.25451 -1.19926)
(0.798024 1.54548 -0.77509)
(0.881255 1.68852 -0.564669)
(1.40436 1.8709 -0.551742)
(1.74623 1.7861 -0.593448)
(1.6357 1.51533 0.0338755)
(1.83176 0.980942 0.737117)
(2.92436 1.89738 2.43057)
(2.72718 3.43908 2.34187)
(2.46503 4.26296 2.49719)
(3.29533 5.28216 1.27946)
(0.660592 0.585415 -0.440448)
(1.36377 0.861514 -0.897827)
(1.70036 1.01984 -0.647611)
(1.49019 1.2503 -0.709882)
(1.28728 0.866204 -0.821324)
(1.08373 0.687263 -0.798136)
(1.07577 0.979098 -0.54542)
(0.925479 0.780975 -0.699541)
(0.765322 0.550511 -1.06319)
(0.352205 0.712596 -1.03661)
(-0.0232266 0.385821 -1.20595)
(0.0423689 0.350496 -0.343281)
(0.0384997 1.2195 1.2)
(-0.0293191 2.09145 1.23488)
(-0.446394 2.09722 1.97995)
(2.4341 -0.127921 -0.480289)
(0.516119 0.329274 -1.6852)
(1.02224 0.303977 -1.6742)
(0.731434 0.254848 -1.54731)
(0.469316 0.427721 -1.37868)
(0.714185 0.442356 -1.07363)
(0.711353 0.506489 -1.02364)
(0.132617 0.594693 -1.73347)
(0.344759 0.1915 -2.43226)
(0.848071 -0.128738 -2.14117)
(1.01868 -0.273367 -2.14932)
(0.541785 0.145328 -1.69582)
(0.603754 0.0263018 -1.15942)
(0.10733 0.572751 -0.823606)
(-0.00748972 1.02498 -1.31155)
(0.0898463 -0.106335 -1.99743)
(0.286807 -0.450364 -0.263337)
(-0.708677 0.508976 0.405457)
(-0.703165 1.63113 -0.0348737)
(-0.568615 2.00786 0.0494729)
(-0.810209 1.70882 -0.079865)
(-0.376953 2.20306 0.162734)
(-0.494088 2.16495 -0.0969145)
(-0.51524 2.10046 0.0329124)
(-0.799986 1.82831 0.0372665)
(-0.291884 2.38582 0.296798)
(-0.296233 2.34079 0.238596)
(-0.413161 2.39368 0.0780972)
(-0.456937 2.35212 0.00702616)
(-0.511082 2.06595 0.0434297)
(-0.340328 2.58602 0.499088)
(-0.179427 2.57097 0.32373)
(0.0921564 2.54242 0.268654)
(-0.188223 2.57551 0.135236)
(-0.271612 2.48199 0.0267463)
(-0.589905 2.2237 0.0383234)
(-0.0641487 2.77052 0.842007)
(-0.0555846 2.91333 0.710764)
(-0.236046 2.895 0.395467)
(0.0173543 2.84837 0.237959)
(0.296003 2.71662 0.20083)
(0.280845 2.77375 0.0125802)
(-0.176438 2.71795 -0.0320734)
(-0.483438 2.49803 -0.0865459)
(0.187828 3.08797 1.05942)
(0.0335631 3.12508 0.967927)
(0.391002 3.08671 0.841888)
(0.427086 2.88808 0.681666)
(0.731031 2.92847 0.390404)
(0.412546 2.95347 0.031568)
(0.364239 2.90868 0.124316)
(-0.102694 2.95454 -0.0762548)
(-0.146345 2.75609 -0.0604229)
(0.247702 3.50134 1.2926)
(0.284586 3.5912 1.24373)
(0.37402 3.48569 1.11173)
(0.986472 3.21015 1.07209)
(0.910918 3.16251 0.93793)
(1.41443 2.87323 0.584007)
(0.954992 2.94738 0.448112)
(0.438224 3.13161 0.0766344)
(0.00787725 3.14162 0.0907834)
(-0.403237 3.19928 0.141216)
(0.217574 3.64332 1.83034)
(0.326775 3.58602 1.54489)
(0.900232 3.32692 1.45762)
(1.20637 3.13762 1.27175)
(1.15281 3.07422 1.24881)
(1.41548 3.07694 1.06283)
(1.6171 3.08948 0.858506)
(1.61339 2.91022 0.575708)
(1.06425 3.13903 0.390758)
(0.265369 3.62704 0.182343)
(0.307641 3.37931 0.0230659)
(0.301861 3.62184 2.20217)
(0.540338 3.77341 1.98014)
(1.28474 3.6126 1.77323)
(1.44461 3.58174 1.54814)
(1.44873 3.43886 1.45307)
(1.45759 3.39849 1.29788)
(2.04198 3.17922 1.26544)
(2.00708 3.08843 1.28526)
(1.68796 3.19754 0.867336)
(0.763189 3.64083 0.253566)
(0.382161 3.71643 0.702321)
(-0.484434 3.74994 -0.337468)
(0.108228 4.30793 1.71162)
(0.424254 4.27444 1.74975)
(1.49329 4.24267 2.15875)
(1.78662 4.16049 2.0696)
(2.46686 3.92607 1.91295)
(2.20369 4.03992 2.16877)
(2.46155 4.32093 2.2036)
(2.64224 4.42912 2.0556)
(1.97146 3.96748 2.06441)
(2.57251 2.9528 1.70396)
(1.30787 4.11499 0.942757)
(0.39597 4.24226 0.434259)
(-0.0940933 4.16741 0.594658)
(0.537755 4.0622 1.6716)
(0.316672 3.85391 1.74964)
(0.554508 3.54765 2.06639)
(1.8964 3.57915 2.39819)
(2.5241 4.18602 2.09675)
(2.33034 4.29859 2.17085)
(1.92702 4.526 2.68803)
(2.11713 4.38123 2.78174)
(2.6226 3.03708 3.45935)
(3.44832 2.03557 2.76147)
(3.27802 2.34333 2.51784)
(2.149 4.23191 1.42078)
(2.22313 4.09525 0.555485)
(0.619596 4.36683 0.720362)
(0.910045 3.50393 1.4485)
(0.930675 3.28784 0.906803)
(0.659394 2.8508 1.09754)
(0.518172 2.72888 0.364638)
(1.08827 2.50196 0.50834)
(2.33086 3.09294 0.778427)
(2.62412 3.47974 0.682985)
(2.29679 3.79277 1.38731)
(2.43129 3.34683 1.46547)
(3.02047 2.40556 1.54877)
(3.30365 1.82716 2.5143)
(3.54116 2.66773 2.4794)
(3.20761 3.57686 1.95747)
(1.85185 4.73064 0.925419)
(0.62674 5.50902 -0.149949)
(1.36661 1.25712 0.118801)