/*--------------------------------*- C++ -*----------------------------------*\
  =========                 |
  \\      /  F ield         | OpenFOAM: The Open Source CFD Toolbox
   \\    /   O peration     | Website:  https://openfoam.org
    \\  /    A nd           | Version:  7
     \\/     M anipulation  |
\*---------------------------------------------------------------------------*/
FoamFile
{
    version     2.0;
    format      ascii;
    class       volScalarField;
    location    "4.5";
    object      nut;
}
// * * * * * * * * * * * * * * * * * * * * * * * * * * * * * * * * * * * * * //

dimensions      [0 2 -1 0 0 0 0];

internalField   nonuniform List<scalar> 
18870
(
0.000425138
0.00125216
0.000309939
0.000147567
0.000725224
0.00111227
0.000383555
9.90477e-05
6.80346e-05
0.000142807
0.000526138
0.000382878
0.000553288
0.000661087
0.000444577
0.000213824
0.000141586
0.000128671
0.000155699
0.000156604
0.000803896
0.000706815
0.000376861
0.000410914
0.000835557
0.00104537
0.000280343
0.000542199
0.000319918
0.000348421
0.000133066
0.000325602
0.000261845
0.000192521
7.43234e-05
0.00100664
0.000864801
0.000716605
0.000748588
0.000375864
0.0013222
0.000215016
0.000968578
0.000647156
0.000789585
0.000744512
0.000472997
0.000146524
0.000194396
0.000367817
0.000178226
0.000285611
0.00016162
0.00010244
0.000104891
9.24389e-05
0.00171454
0.000758206
0.000590401
0.000853783
0.000626716
0.00130867
0.000611134
0.000359244
0.000889791
0.000418023
0.000356497
0.000734474
0.000479969
0.000501577
0.000460843
0.00091191
0.000328239
0.000114047
0.000191346
0.000336902
0.000622079
0.00020911
2.50014e-05
0.000103041
0.000227022
0.000125895
0.000160382
0.000110407
0.0021157
0.0019528
0.000879485
0.00032688
0.000921147
0.00135967
0.000821865
0.000481232
0.00115025
0.000950093
0.000574319
0.000197828
0.000378922
0.000225416
0.000507353
0.000361623
0.000226223
0.000649546
0.000303946
0.000326391
0.000183182
0.000949992
0.00039607
0.000390705
0.000194551
0.000332571
0.000280014
0.0006969
0.000192345
0.000153036
0.00015854
0.000225179
0.000104069
0.000241019
0.000259121
0.000188795
0.000839636
0.00172922
0.00152045
0.000796772
0.000635795
0.000652154
0.000483923
0.000955525
0.000891655
0.00154684
0.00109983
0.00054556
0.00154766
0.000991514
0.00056929
0.000660199
0.000293928
0.00041568
0.000190732
0.000647922
0.000358099
0.000309617
0.000377322
0.000376316
0.000319977
0.000369357
0.000168088
0.000403396
0.000940374
0.000347307
0.000139735
0.000162025
0.000222262
0.000306645
0.000157632
0.000340706
0.000282646
0.000478978
0.000302063
0.000246816
0.000130773
0.000236859
0.000208917
8.71152e-05
0.000148296
0.00079963
0.001606
0.00142126
0.00228528
0.00194966
0.00075689
0.00118189
0.00104282
0.000909768
0.00120736
0.000462245
0.000823997
0.000648891
0.00068791
0.000869391
0.00166701
0.000779178
0.00112848
0.000942529
0.000641457
0.000410661
0.0006934
0.000426376
0.000294726
0.000243846
0.000389479
0.000345628
0.000471683
0.000233012
0.000317417
8.48249e-05
0.000326028
0.000345221
0.000278505
0.000455389
0.00063437
0.000616599
0.000162304
0.000118249
0.000166523
0.00021682
0.000570177
0.00018662
0.000712094
0.000278012
0.000168858
0.00014123
0.00017729
0.000270548
0.000114458
0.000144059
0.000127508
0.000195986
0.000264528
9.6602e-05
0.00054366
0.00049097
0.00177205
0.00152625
0.00204235
0.00137153
0.00230624
0.000743094
0.000724984
0.000698848
0.00136946
0.00116411
0.000722198
0.00114377
0.00018426
0.000995083
0.000828875
0.000903938
0.00106029
0.000720859
0.000604229
0.00159248
0.000493462
0.000639766
0.000889037
0.000735403
0.000484971
0.000733984
0.000666531
0.000560052
0.00055206
0.000363823
0.000299361
0.000386774
0.000476254
0.000433668
9.05523e-05
0.000345266
0.000326468
0.000321383
0.000340423
0.000446752
0.000655665
0.000590676
0.000463712
0.00046305
0.00032411
0.000185284
0.000330994
0.000245276
0.000591413
0.000266878
0.000266912
0.000159027
0.000336452
0.000239898
0.000108349
0.000112141
0.000246665
0.000217056
0.000147354
0.000232406
0.000616054
0.000269053
0.000395464
0.000183102
0.000739114
0.000698489
0.00145872
0.000983311
0.00138452
0.00159013
0.00154856
0.00198915
0.000697329
0.000359404
0.00108879
0.00123971
0.000685834
0.000761764
0.000933118
0.00133116
0.000776008
0.00063454
0.000737319
0.000672268
0.00057746
0.00106636
0.000694624
0.000860297
0.000676723
0.000589669
0.00035647
0.0009908
0.000737407
0.000674994
0.00062545
0.000610023
0.000566409
0.000407625
0.000789652
0.000433072
0.000625749
0.000476391
0.000437025
0.000256053
0.00046639
0.000391477
0.000642829
0.0002834
0.000332385
0.00023989
0.000641296
0.000232032
0.000395076
0.000488358
0.000418596
0.000400748
0.000592866
0.000367967
0.000263801
0.000521238
0.000148249
0.00028624
0.000509086
0.000251545
0.00056054
0.000223869
0.00073088
0.000246419
0.000294364
0.000189884
0.000434752
0.000295264
0.000364146
0.000288134
0.000195587
9.40788e-05
0.000776994
0.000150436
9.91102e-05
0.000197369
0.000125071
0.000215306
0.000717255
0.000109563
0.00106607
0.00133295
0.0011205
0.00193344
0.00135564
0.00214897
0.00209277
0.00133487
0.002373
0.00163378
0.000431279
0.000485977
0.000940825
0.000148537
0.000512746
0.000837064
0.000683818
0.000907358
0.000515148
0.00108901
0.00084821
0.000731114
0.000426768
0.00119107
0.000661962
0.000816074
0.00130329
0.000694933
0.00119649
0.000764298
0.000437884
0.000326109
0.00147614
0.000375871
0.0010556
0.000759089
0.000320787
0.000666385
0.000181968
0.000564314
0.000612214
0.000859385
0.00041834
0.000576566
0.000258193
0.000320999
0.000355767
0.000634773
0.000530223
0.000427215
0.000425544
0.000536879
0.000353226
0.000474163
0.0004224
0.000432495
0.000336587
0.000528318
0.000423524
0.00052815
0.000549451
0.000362255
0.000268831
0.0004618
0.000284753
0.000326622
0.000246173
0.00032394
0.000332693
0.000598307
0.000387649
0.000273001
0.000430452
0.000247944
0.000320448
0.000115672
0.000535506
0.000294243
0.000155366
0.000172793
0.000160242
0.000262852
0.000133361
9.22899e-05
0.000211375
0.00011249
0.000131127
5.10937e-05
8.53898e-05
0.00027986
0.000384354
0.000685921
0.000882035
0.000840111
0.00250892
0.00113915
0.00132129
0.00205267
0.00124332
0.0016489
0.000943742
0.00145072
0.0011439
0.000839963
0.00247321
0.00244566
0.00110575
0.000607146
0.000790266
0.000741407
0.00113544
0.00220104
0.000978707
0.000494344
0.00072064
0.000451681
0.000364531
0.000849241
0.00080133
0.000952372
0.00123885
0.000961205
0.000478782
0.00109492
0.000564445
0.00120825
0.000977638
0.00125688
0.00094464
0.000656177
0.000728415
0.000645353
0.00068332
0.00100215
0.000926832
0.000672594
0.000530918
0.000742046
0.000209963
0.000576572
0.000375458
0.000581177
0.000280267
0.000444153
0.000408821
0.000480509
0.000145571
0.000148436
0.000556231
0.000957629
0.000489098
0.000275471
0.000384906
0.000463876
0.000608202
0.000644116
0.000283669
0.000184753
0.000301096
0.00054299
0.000664909
0.000521041
0.000351175
0.000493884
0.000355228
0.000365624
0.000362419
0.000546798
0.000332173
0.00015982
0.000444839
0.000415578
0.000348708
0.00033867
0.000209957
0.000387838
0.000277085
0.000247635
0.000178513
0.000284773
0.000285817
0.000256089
0.000143111
0.000169684
0.000105064
0.00020038
0.000111667
0.000643811
0.000361237
0.000114994
0.000193468
2.66636e-05
8.71009e-05
0.000116959
0.000911379
0.00119639
0.00045305
0.00105278
0.000488009
0.00116603
0.000704494
0.000960316
0.00124437
0.00107957
0.00111756
0.0016372
0.00140517
0.00152064
0.00157814
0.00120547
0.00187917
0.00154408
0.00101698
0.000646143
0.000559488
0.00244912
0.00189226
0.00140667
0.00105378
0.000897146
0.000758325
0.000677589
0.000399092
0.000758282
0.000963374
0.00126195
0.0010076
0.000734359
0.000593046
0.000814353
0.000554007
0.00106627
0.00111157
0.0018946
0.000513989
0.00048619
0.000794783
0.000683535
0.00199386
0.00104001
0.000901304
0.000975587
0.000952086
0.00104676
0.00067098
0.000795036
0.000851089
0.00121209
0.00117543
0.000725711
0.000562286
0.000574268
0.000248852
0.00028886
0.000489097
0.000572099
0.000362957
0.000290622
0.000563806
0.000326964
0.00074163
0.000318008
0.000192319
0.000328231
0.000806952
0.000580187
0.000513548
0.000775917
0.000243626
0.000436775
0.000487721
0.000496816
0.000250732
0.000289465
0.000402221
0.000430986
0.000532299
0.000498381
0.00044594
0.000345518
0.000423435
0.000319118
0.000347888
0.000427571
0.000354948
0.000681627
0.000225473
0.000115615
0.000357978
0.000313496
0.000472778
0.000335501
0.000721404
0.000453787
0.000284479
0.000150031
0.000119083
0.000155556
0.000115696
0.000148638
0.000270742
0.000423457
0.00010977
0.000143588
0.000172727
0.000259648
4.2626e-05
0.00014879
0.000104069
0.00018717
0.000100625
7.02681e-05
0.000147262
0.000256337
0.000493789
0.000872571
0.00042137
0.000568017
0.000774733
0.000851678
0.000866486
0.000879597
0.000761535
0.000927717
0.000712752
0.00117345
0.00159062
0.00125065
0.000810379
0.000942917
0.00132063
0.0015984
0.00162017
0.00135104
0.00133449
0.00111718
0.00221216
0.00190384
0.00106785
0.000772666
0.000995916
0.00127843
0.000817781
0.00256368
0.00157422
0.000936188
0.000873369
0.000617995
0.000265413
0.00079038
0.00228738
0.00098658
0.00147088
0.00142294
0.0012638
0.000838028
0.000878742
0.000194465
0.000421215
0.00084257
0.000716195
0.00125709
0.000813762
0.000780272
0.000543642
0.00067986
0.000659053
0.00151982
0.00128772
0.000998965
0.000741457
0.000787976
0.00102443
0.000799761
0.00081646
0.000762398
0.00076214
0.00126251
0.000379555
0.000665492
0.00052181
0.00141564
0.000862167
0.000670828
0.00025872
0.000289921
0.000757847
0.000618707
0.000523012
0.000478285
0.000447121
0.000261055
0.000541973
0.000669295
0.000416781
0.00025964
0.00051882
0.000684561
0.000708368
0.000682731
0.000697327
0.000304575
0.000542443
0.000509175
0.000439207
0.000290983
0.000382965
0.000439822
0.000344313
0.000589624
0.000615484
0.000266182
0.000536932
0.000392377
0.000373635
0.00042246
0.000425706
0.000410567
0.000551204
0.000423408
0.000241568
0.000149771
0.000234208
0.000307221
0.000339119
0.000380184
0.000259291
0.00029992
0.000326974
0.000225952
0.000226705
0.00011538
0.000241583
0.000371672
0.000195104
0.000334337
0.000376983
0.000148446
0.000199684
0.000148878
0.00010513
0.000224278
0.000119445
0.000103854
0.000183187
6.56566e-05
0.000128561
0.000153884
0.000286107
0.000147454
0.000381961
0.000358891
0.000426363
0.000857853
0.000564806
0.000562451
0.000536504
0.00076176
0.000859144
0.000611651
0.000200507
0.000926778
0.00112078
0.0011213
0.00102722
0.00041045
0.00127199
0.00135064
0.00142639
0.00142663
0.00125737
0.00155921
0.00124412
0.00127055
0.00167389
0.00184074
0.00138305
0.00137548
0.00149279
0.00133801
0.00210545
0.00171606
0.00136631
0.00128343
0.000659257
0.00139961
0.00144915
0.00192328
0.00100161
0.000919102
0.00112643
0.00131578
0.00053291
0.000349987
0.000437692
0.000610212
0.000956693
0.00136322
0.00160497
0.00126489
0.000478447
0.000559696
0.000906891
0.000429061
0.00128362
0.000478592
0.000761649
0.000578063
0.00110866
0.00111529
0.000731325
0.000540661
0.000787863
0.00182145
0.001457
0.000986662
0.000962157
0.000914324
0.000692068
0.00129851
0.00111213
0.000675972
0.00097506
0.00117353
0.00146334
0.000743904
0.000555604
0.000599966
0.000646755
0.001455
0.00070946
0.00089257
0.000579979
0.000546097
0.000775094
0.000541365
0.000806991
0.000686744
0.00043174
0.00035826
0.000335278
0.000396324
0.000348544
0.000284265
0.000592006
0.000381902
0.000758617
0.000403813
0.000476248
0.000383287
0.000197235
0.000431664
0.000523863
0.000417452
0.000321192
0.000235173
0.000304674
0.000248115
0.000405162
0.000544607
0.000544278
0.000408212
0.000377923
0.000461521
0.000403839
0.000452403
0.000402308
0.000461283
0.000772821
0.000271954
0.000233328
0.000246807
0.000162897
0.000185545
0.000429486
0.000383342
0.000398452
0.000401429
0.000257144
0.000395794
0.000245702
0.000200039
0.000128855
0.00024366
0.000371541
0.000232288
0.000159438
0.000262028
0.000240841
0.000145143
0.000131247
0.000152794
0.000381341
0.000360057
6.93962e-05
9.92847e-05
0.000178034
3.80715e-05
9.97458e-05
0.000171725
0.000310178
0.000142537
0.000101104
0.00057351
0.000709388
0.000645683
0.000810858
0.000704814
0.00033329
0.000661171
0.000946235
0.000554604
0.000430163
0.000384431
0.000824975
0.00075152
0.00121492
0.000779135
0.000921987
0.00100984
0.00145
0.00102732
0.00100294
0.000890657
0.00119281
0.00123605
0.00166521
0.00132627
0.0012394
0.000891491
0.00120611
0.00107331
0.00140543
0.00125466
0.00162774
0.00190324
0.00126579
0.00145764
0.00112996
0.00150037
0.00112267
0.00238538
0.00191089
0.00196083
0.00132054
0.00120296
0.00157083
0.00168206
0.00170159
0.00157658
0.00111956
0.00164528
0.00174377
0.00117447
0.000429517
0.00175451
0.000413104
0.000910185
0.000892432
0.00087365
0.000668811
0.00134479
0.00151024
0.00083652
0.000739357
0.000889274
0.000857534
0.00123529
0.00101471
0.000865803
0.000456272
0.000445494
0.000693883
0.000868157
0.000659725
0.000946293
0.0009383
0.00157069
0.00157012
0.000625799
0.000764968
0.00132163
0.00134387
0.000786865
0.00109435
0.000924301
0.000720858
0.000961282
0.00124293
0.00115619
0.000849935
0.00069533
0.000856963
0.00097519
0.000622302
0.000810738
0.00129315
0.000470491
0.000658507
0.000689936
0.00104142
0.000584144
0.000357854
0.000617117
0.000614017
0.000342791
0.000320276
0.000477714
0.000493237
0.000106338
0.000279514
0.000475087
0.000703928
0.000831134
0.000169707
0.000604969
0.000988665
0.000609397
0.000430299
0.000515435
0.000528067
0.00065741
0.000369195
0.000526417
0.000531721
0.000418495
0.000466375
0.000609638
0.000434345
0.000414108
0.000388987
0.000404212
0.000433499
0.00046565
0.000382972
0.000425385
0.000476381
0.000437701
0.000306989
0.000258367
0.000295684
0.000157706
0.000558561
0.000280994
0.000411733
0.000292517
0.000499139
0.000257969
0.000311823
0.000288307
0.000166303
0.000159094
0.0002348
0.000435313
0.000253484
0.000189975
0.000214643
0.000170735
0.00020084
0.000109638
9.53616e-05
0.00012169
0.00017217
0.00013986
0.000101345
8.52172e-05
0.000180051
4.33582e-05
7.42169e-05
0.000163774
0.000380923
4.46582e-05
0.000101598
0.000130018
0.000543998
0.000923705
0.000369568
0.000760041
0.000745207
0.000501238
0.000329658
0.000522539
0.000644807
0.00094268
0.000669182
0.000733854
0.00078358
0.000963957
0.000774149
0.000777742
0.000893902
0.000749552
0.000822794
0.000840307
0.000826617
0.000841706
0.0013296
0.000915025
0.00110578
0.0007358
0.00105216
0.00100811
0.000917176
0.00151456
0.00176998
0.00146782
0.00122327
0.00096659
0.00120646
0.000907236
0.0011861
0.00133034
0.00168049
0.00215442
0.00194698
0.00106394
0.00120793
0.00135085
0.00134057
0.00167855
0.00217986
0.00218775
0.0025625
0.00141242
0.000852032
0.000929311
0.00113414
0.00134878
0.00123257
0.0024686
0.00221164
0.000870535
0.00116907
0.00193129
0.000654917
0.000590068
0.000444397
0.000877232
0.00109283
0.000742777
0.000795291
0.00084222
0.000523979
0.000662178
0.000755823
0.000457582
0.000537686
0.000717338
0.000796353
0.000895155
0.000913485
0.000680829
0.000522485
0.000693087
0.000966318
0.000841134
0.00115512
0.000417745
0.000940859
0.00149611
0.00136624
0.00172628
0.000719
0.000853097
0.000907181
0.000719423
0.000776897
0.000774452
0.00068946
0.00114644
0.000910478
0.00120948
0.0014346
0.00111219
0.00094875
0.000694808
0.000801719
0.00100037
0.000934554
0.000682112
0.00158551
0.000608058
0.000663221
0.00133884
0.000440378
0.000670893
0.000481416
0.00056364
0.000759117
0.000823349
0.000726646
0.000339282
0.00063444
0.000410213
0.000481327
0.000668622
0.000464115
0.000432397
0.000716314
0.000495686
0.000398278
0.000582348
0.000607131
0.000656924
0.000508453
0.000524607
0.000501952
0.000273985
0.000577712
0.000293078
0.000452635
0.000399759
0.000531152
0.000457423
0.000497764
0.000451435
0.000420922
0.000502553
0.000385663
0.000402094
0.000441868
0.000396957
0.000394138
0.000353336
0.000363315
0.000223017
0.000330249
0.00037369
0.000170232
0.000289329
0.000546424
0.000403274
0.000407995
0.000287489
0.000199321
0.000292184
0.000209885
0.000263029
0.000281972
0.000180141
0.000258801
0.000341913
0.000290405
0.000201202
0.000183575
0.000129042
0.000153997
0.000190297
0.000145872
0.000263967
0.000178716
0.000114304
0.000312981
6.49544e-05
8.90167e-05
8.86203e-05
9.08246e-05
0.00010422
0.00011698
0.000328992
0.000230365
0.000105341
0.000128214
8.88513e-05
0.00054783
0.000498365
0.000590549
0.000490674
0.000460938
0.00048257
0.000390996
0.000644311
0.000814474
0.000635011
0.000478992
0.000419173
0.000611152
0.000669795
0.000613333
0.000853058
0.000767057
0.000610209
0.000861765
0.000776622
0.000745229
0.000664281
0.000857161
0.000594175
0.000826926
0.000894391
0.000689771
0.000552449
0.00111937
0.00107154
0.00088896
0.00105622
0.00105748
0.00131864
0.000896387
0.000887594
0.00130903
0.00120364
0.00153844
0.00150192
0.00121988
0.00116971
0.000977471
0.0012094
0.000831039
0.00156015
0.00157607
0.00149745
0.00177067
0.0014632
0.00124409
0.00129845
0.00150075
0.0012052
0.00109057
0.00113955
0.00178128
0.00185468
0.00126852
0.00141878
0.000988322
0.00118312
0.00121687
0.00100646
0.000917355
0.00133539
0.0018728
0.00103805
0.000888104
0.00116877
0.00127438
0.00102303
0.00101587
0.00059767
0.00102575
0.000949577
0.001212
0.000623235
0.000836445
0.000619701
0.000390313
0.000888203
0.00118169
0.000250224
0.000563857
0.000966608
0.00084961
0.00115008
0.000762441
0.000634776
0.000292997
0.000619958
0.000753392
0.00076652
0.000919785
0.000701422
0.000926966
0.000931363
0.00160892
0.00196779
0.00117545
0.000808572
0.000998536
0.000593571
0.000497882
0.000743535
0.000770383
0.0008016
0.000942331
0.000740556
0.000944405
0.00142919
0.00107828
0.00139602
0.000648506
0.000843383
0.00130687
0.000829832
0.000753629
0.00108581
0.00146573
0.000950216
0.000631195
0.000570527
0.000814121
0.000999211
0.000627727
0.000607055
0.00102526
0.000545463
0.000622179
0.00055822
0.000240337
0.000436519
0.000504609
0.000600241
0.000696924
0.000219741
0.000969577
0.000597854
0.00083885
0.000250412
0.000560655
0.000658419
0.000692054
0.000466853
0.000548218
0.000472486
0.000531342
0.000374499
0.000428083
0.000420675
0.000947589
0.000532126
0.00026912
0.000619056
0.000538292
0.00055351
0.000477017
0.000404616
0.000475007
0.000396239
0.000418261
0.00050902
0.000407554
0.000427505
0.000417419
0.000243889
0.000419366
0.000354972
0.000449777
0.000307367
0.000255733
0.000320333
0.000255654
0.00031566
0.000416046
0.000342063
0.000313555
0.000273166
0.000248552
0.000146759
0.000284675
0.00020769
0.000270216
0.000332915
0.000501044
0.000195311
0.000210858
0.000192508
5.09333e-05
0.00020564
0.000173898
0.000100225
0.00053282
0.000292275
0.00011609
0.000267697
0.000121097
9.40076e-05
0.000180161
0.000131086
0.000108636
0.000143674
0.000392254
0.000267657
0.000109586
0.000124278
0.000106201
0.000121059
0.00062532
0.000600985
0.000619886
0.000410858
0.000541143
0.000650873
0.000887313
0.000424423
0.000624443
0.000515702
0.000704688
0.000869559
0.000565905
0.000507527
0.000398688
0.000518182
0.000586043
0.000429587
0.000360059
0.000482435
0.000700878
0.000725129
0.00040968
0.000628329
0.000673448
0.000535018
0.000728989
0.000772093
0.00111809
0.000630639
0.000714411
0.000509198
0.000678087
0.000775227
0.00078262
0.000561716
0.00128115
0.0012572
0.0010511
0.000730069
0.0010611
0.000982702
0.000904113
0.000769162
0.000719199
0.00105103
0.00167495
0.00144955
0.00103133
0.000833651
0.000957591
0.0010323
0.000835212
0.00125996
0.00118684
0.00149575
0.00160584
0.00121599
0.00107364
0.0011831
0.00116799
0.00109499
0.000727449
0.00109676
0.00103232
0.00115827
0.00117761
0.00118147
0.0014515
0.00168695
0.00135002
0.00108331
0.00142977
0.00145273
0.000998419
0.00127438
0.00127586
0.000608519
0.00106119
0.000927444
0.000951481
0.000768283
0.000889358
0.00121541
0.00120291
0.00109227
0.000824974
0.000959227
0.000841108
0.000658685
0.00103967
0.000822205
0.000494966
0.000814509
0.000936823
0.000730987
0.00113734
0.000692475
0.00108485
0.000781997
0.00119908
0.00103018
0.000526533
0.000324084
0.00060856
0.000637956
0.000634851
0.000364388
0.00072428
0.000703545
0.000578548
0.00123498
0.00190457
0.00152157
0.00109459
0.000663845
0.000695407
0.00102527
0.000744237
0.000873318
0.00127329
0.000930738
0.000719061
0.000980568
0.000708927
0.00120563
0.00135115
0.00113297
0.000881316
0.000756371
0.000961834
0.000947676
0.000775939
0.000924494
0.000770991
0.000870017
0.00092911
0.000888557
0.000853655
0.000446557
0.000835702
0.000726085
0.000745359
0.000603037
0.000817331
0.000861052
0.000565974
0.000461065
0.000355731
0.000623549
0.000425003
0.000692016
0.000768546
0.000847475
0.00042924
0.000712398
0.000339376
0.000697516
0.00038429
0.000454788
0.00067997
0.000566227
0.000356934
0.000482871
0.000431296
0.000549471
0.000600834
0.000465171
0.000296061
0.000238368
0.000522196
0.000484922
0.000504741
0.00062223
0.000308908
0.000403297
0.000453311
0.000490626
0.000378415
0.000334823
0.00047209
0.000530374
0.000410736
0.000435179
0.000451505
0.000530408
0.000245661
0.000330717
0.00045408
0.000450216
0.000288758
0.000153241
0.000316298
0.000646613
0.000338689
0.000383651
0.000284342
0.000182583
0.000333502
0.00032619
0.000197359
0.000178007
0.000223421
0.000286133
0.00040004
0.000347804
0.000259257
0.000251876
0.000247737
0.000224879
8.31821e-05
0.000211576
0.000269793
0.000115561
0.000127963
0.000162514
8.89206e-05
0.000382014
5.11353e-05
0.000101017
0.000134351
9.55579e-05
0.00010479
0.000100301
0.000270288
0.000109533
0.000112008
0.000130177
0.000109435
8.95765e-05
0.000145167
0.000886312
0.000548552
0.000636592
0.000578809
0.000636752
0.00072428
0.000385099
0.000575985
0.000560473
0.000625748
0.000619174
0.000510816
0.000448441
0.000467058
0.000730616
0.000527007
0.00054454
0.000599979
0.000465014
0.000725972
0.000707447
0.000362361
0.000276149
0.000393993
0.000484159
0.00056341
0.000598659
0.000594985
0.000636498
0.000628949
0.000668125
0.000660142
0.000565529
0.000550827
0.000883609
0.000670516
0.000700262
0.00116577
0.0010255
0.000949912
0.000839786
0.000848784
0.000699095
0.000734143
0.000683929
0.00104548
0.00132705
0.000959017
0.00111861
0.00111413
0.000971641
0.000704954
0.000677556
0.000758006
0.000911029
0.00112956
0.00119587
0.00106601
0.00126968
0.00125609
0.00115569
0.00105498
0.000855668
0.000982839
0.00108716
0.000714409
0.00112767
0.00109016
0.00114578
0.00150232
0.00122075
0.0012344
0.00114628
0.00102832
0.000967028
0.00100585
0.000630677
0.00073571
0.00136933
0.00113018
0.00157653
0.00164242
0.00104404
0.00100866
0.00104472
0.00143323
0.000922496
0.000901834
0.000811646
0.00126539
0.00122652
0.00132692
0.00117738
0.000585739
0.000718438
0.00101306
0.00103045
0.00121192
0.000658625
0.00125657
0.00110944
0.000944717
0.000901407
0.000902114
0.00126457
0.00021425
0.00048129
0.000722471
0.000819663
0.000932977
0.000917444
0.000686676
0.000940832
0.00102428
0.00138355
0.000495319
0.00115369
0.000412934
0.000546368
0.000840854
0.000352194
0.000895783
0.000460008
0.000890743
0.000663167
0.000492418
0.00112026
0.00212318
0.00137122
0.00114563
0.000668321
0.000780019
0.00103888
0.000958137
0.000703
0.000646106
0.0007294
0.00141672
0.00101726
0.000608731
0.000711776
0.00131429
0.00161622
0.0013944
0.000651514
0.000593706
0.00124031
0.000919734
0.000895772
0.000755149
0.00103752
0.000903866
0.000957661
0.000693208
0.0010138
0.000680468
0.000641516
0.000788184
0.00112511
0.000683575
0.000625727
0.000988654
0.000600567
0.000979557
0.000407757
0.000254204
0.000344084
0.00127928
0.000564006
0.00070418
0.00140528
0.000744841
0.000558172
0.000700168
0.000456923
0.000629475
0.000479365
0.000540153
0.00080616
0.000592974
0.000550271
0.000542184
0.000493569
0.000641106
0.000365659
0.000834706
0.000532056
0.000186486
0.000289455
0.000696409
0.00053675
0.000448089
0.000584155
0.000517119
0.000376314
0.000509705
0.000588487
0.000481574
0.000352196
0.000467318
0.000791648
0.000458883
0.000419006
0.000526815
0.000539482
0.000247503
0.000343079
0.00044366
0.000428425
0.000417214
0.000433426
0.000179632
0.000373842
0.00059236
0.000462651
0.000349782
0.000200622
0.000206972
0.000351397
0.000353669
0.000314825
0.000175432
0.000281251
0.000314398
0.000356196
0.000324914
0.000227865
0.000240126
0.000119819
0.000277626
0.000263325
0.000143814
0.000134238
0.000157194
0.000212946
9.73986e-05
0.000177959
0.000200382
0.000124667
8.83876e-05
0.000117979
5.17505e-05
0.00012275
0.000183774
9.4247e-05
0.000280519
0.000189954
0.000130229
0.000138262
0.000119051
8.57902e-05
0.000147971
0.000141945
0.00114318
0.000974676
0.000852085
0.000782473
0.000674456
0.000705658
0.000656557
0.000734386
0.000675944
0.000654868
0.000443605
0.000625874
0.000601078
0.000518578
0.000571095
0.000621622
0.000484272
0.000569434
0.000398782
0.000562376
0.000582464
0.000642967
0.000678173
0.000579089
0.000659594
0.000597088
0.000779329
0.000569371
0.000501458
0.000615972
0.000453508
0.000655025
0.000555665
0.000719649
0.000512152
0.000503924
0.000404428
0.00059753
0.000433208
0.000878177
0.000747418
0.000673093
0.000557742
0.000605201
0.00033071
0.00077716
0.000818267
0.000748468
0.000910617
0.000970939
0.000887827
0.000705731
0.000746198
0.000797305
0.000610511
0.000973158
0.00101604
0.000883007
0.000935066
0.00103848
0.000789807
0.000625163
0.000822075
0.000944732
0.00088668
0.000606186
0.000531128
0.000481389
0.00069541
0.00064825
0.00127369
0.00116336
0.000867163
0.000918871
0.00108265
0.000978162
0.000284255
0.00116011
0.000681064
0.000609649
0.0010233
0.000660851
0.00122224
0.0010751
0.001072
0.000996057
0.00074894
0.000910259
0.00111625
0.00083247
0.000244746
0.00122386
0.00118662
0.00111606
0.0006238
0.00104402
0.0010061
0.00084424
0.000949696
0.0011801
0.00103465
0.00138319
0.000718495
0.00054144
0.000781977
0.000957009
0.00120624
0.000953999
0.000715794
0.000946481
0.00122367
0.000937735
0.00136769
0.00102048
0.000988604
0.00101491
0.00119268
0.00109142
0.00104112
0.000946901
0.000420586
0.000411688
0.000742926
0.000996955
0.00129804
0.000903855
0.000652359
0.000600744
0.000777782
0.000962401
0.000682152
0.000927106
0.000440702
0.000670079
0.000498205
0.000595059
0.000961854
0.000906809
0.000821301
0.000815293
0.000579301
0.000902067
0.00110955
0.00130579
0.00151352
0.000763696
0.00128358
0.000507002
0.000816122
0.000912441
0.000824759
0.000577631
0.000687954
0.00149276
0.00123337
0.00105393
0.000861027
0.000651194
0.00147671
0.00156732
0.0011133
0.000631981
0.00106317
0.000973923
0.0010032
0.000772035
0.000682649
0.00123846
0.000843013
0.00112948
0.00075625
0.0020598
0.000966652
0.00105021
0.00102371
0.000726721
0.00117046
0.000608177
0.000441327
0.00103836
0.000598346
0.000893241
0.000530586
0.000347145
0.000597027
0.000758384
0.000833091
0.000620836
0.0012925
0.000405348
0.00078182
0.000508323
0.000783136
0.000490068
0.000462415
0.000541588
0.000829464
0.000715872
0.000730411
0.000583155
0.000462158
0.000550175
0.000631484
0.000487911
0.000569516
0.000433398
0.000197729
0.000300471
0.00062761
0.000610181
0.000461681
0.000508637
0.00060036
0.000538593
0.000495782
0.000354526
0.000706647
0.000604589
0.000340056
0.000501636
0.000568879
0.000412252
0.000435447
0.000453141
0.000164153
0.000540757
0.000302491
0.000465508
0.000395783
0.000439144
0.000220295
0.000226386
0.000356145
0.000284549
0.000559394
0.000343041
0.000362057
0.000253006
0.00025945
0.000364078
0.000397056
0.000309296
0.000441365
0.000246351
0.000311357
0.000305005
0.000351859
0.000249966
0.000238818
0.000218952
0.000313852
0.000265267
0.000324023
0.000206826
0.000105762
0.000254338
0.000483107
0.000275001
0.000212442
0.000218664
9.80965e-05
0.00012598
0.000134126
0.000132441
0.00021974
0.000154468
0.000100937
0.000347613
0.000324633
0.000155769
0.000142499
0.000101191
0.000125477
0.000156577
0.000144258
8.92759e-05
0.0011085
0.00111031
0.00105696
0.00113052
0.000918085
0.000858498
0.000709866
0.00078267
0.000711112
0.000693044
0.000721352
0.000650773
0.000614503
0.000716684
0.000777505
0.000571782
0.000528336
0.00061975
0.000613529
0.000645482
0.000734734
0.000566368
0.000469753
0.000548522
0.000373922
0.000380779
0.000429188
0.000499911
0.000393335
0.000672723
0.000783398
0.000677559
0.000533166
0.00055268
0.0006311
0.000621368
0.000339164
0.0004736
0.000754786
0.000847691
0.00063252
0.00080837
0.000694778
0.000543681
0.000530274
0.000475966
0.000547685
0.000624734
0.000465316
0.000492072
0.000561386
0.000816568
0.000755976
0.00045265
0.000541348
0.000554925
0.00076836
0.000995675
0.000718253
0.000788031
0.000468488
0.000640798
0.00052906
0.000569387
0.000434044
0.0005361
0.000756845
0.000783965
0.000986245
0.00101764
0.000827589
0.000854473
0.000885545
0.000927141
0.000961506
0.000986097
0.000943309
0.000852688
0.000996518
0.000708304
0.000863854
0.000672289
0.000773988
0.000820586
0.000907486
0.00103991
0.000779763
0.00112121
0.000750272
0.000657306
0.000439641
0.00102496
0.00085302
0.000862498
0.00116299
0.000796288
0.00101826
0.000673798
0.000751401
0.00089392
0.00108476
0.00052273
0.000625176
0.00049117
0.000554784
0.000917739
0.00143925
0.00114544
0.000867252
0.000919876
0.00140006
0.000862101
0.00108111
0.00120083
0.00113399
0.00109034
0.000872021
0.000448143
0.000691934
0.000924585
0.00136296
0.000918795
0.00146103
0.00058921
0.00074087
0.00116285
0.00125792
0.000669063
0.0010598
0.00105549
0.00113097
0.000833849
0.00101163
0.00110447
0.000901354
0.000635245
0.000384179
0.000585391
0.000850365
0.00100363
0.00125138
0.00109535
0.000732096
0.000360065
0.00127017
0.00120431
0.000435196
0.000473167
0.000637834
0.000638153
0.000486816
0.00050344
0.00060037
0.000470584
0.000830792
0.00111137
0.0010876
0.000376356
0.000823617
0.00100328
0.0015139
0.00140751
0.00145403
0.00101057
0.000646613
0.000934815
0.000853552
0.00053649
0.000539075
0.00065803
0.000572639
0.00132426
0.00178696
0.00133142
0.00105884
0.000743104
0.00117316
0.00167381
0.00104371
0.000520529
0.000879287
0.00120913
0.00113838
0.000965403
0.000645935
0.000646508
0.00106456
0.00148785
0.000798524
0.000401249
0.000638688
0.00142992
0.000956064
0.000560969
0.00135235
0.00116516
0.000569899
0.00141544
0.00103199
0.000579177
0.000745202
0.000529556
0.000305156
0.000567222
0.00060245
0.000781296
0.000482156
0.000694971
0.000648188