/*--------------------------------*- C++ -*----------------------------------*\
  =========                 |
  \\      /  F ield         | OpenFOAM: The Open Source CFD Toolbox
   \\    /   O peration     | Website:  https://openfoam.org
    \\  /    A nd           | Version:  7
     \\/     M anipulation  |
\*---------------------------------------------------------------------------*/
FoamFile
{
    version     2.0;
    format      ascii;
    class       volScalarField;
    location    "4.5";
    object      p;
}
// * * * * * * * * * * * * * * * * * * * * * * * * * * * * * * * * * * * * * //

dimensions      [0 2 -2 0 0 0 0];

internalField   nonuniform List<scalar> 
18870
(
-62.3187
-62.3057
-62.5343
-61.1476
-61.7074
-62.5541
-61.7651
-62.7448
-61.2795
-60.4176
-60.2408
-62.1065
-61.9429
-62.7998
-61.9453
-61.6647
-62.8542
-61.4144
-60.5499
-59.5401
-58.5535
-60.6038
-61.3308
-62.4802
-62.2739
-61.7739
-63.0377
-62.1163
-61.843
-61.0841
-62.9401
-61.5609
-60.7134
-59.523
-59.234
-56.3583
-59.0587
-59.6941
-61.0383
-61.9104
-62.9623
-62.7124
-62.6014
-62.1204
-61.8797
-63.2654
-62.3067
-62.0113
-61.3091
-60.4405
-62.975
-61.7547
-60.7948
-59.5232
-59.1825
-58.2667
-54.75
-57.0146
-57.9721
-59.5813
-60.1257
-60.7582
-61.4784
-62.3597
-63.2328
-62.8439
-62.8428
-62.9721
-62.5962
-62.0937
-61.9186
-63.4798
-62.4854
-62.1381
-61.4444
-60.5706
-59.6554
-63.0122
-61.9678
-60.7672
-59.5651
-59.1411
-58.2739
-57.5716
-52.5608
-55.6481
-56.0333
-57.6772
-58.609
-59.6447
-60.0645
-60.7427
-61.1921
-62.2241
-61.8376
-62.7484
-63.3581
-63.2625
-62.9638
-63.1003
-63.3926
-62.9135
-62.3033
-62.0048
-61.6483
-63.6675
-62.6186
-62.2469
-61.5611
-60.682
-59.8066
-59.1706
-63.1643
-62.0789
-60.8001
-59.6046
-59.1954
-58.3009
-57.5528
-56.8679
-52.0457
-53.9472
-53.8645
-56.1542
-56.8145
-58.576
-58.3846
-59.2834
-60.6526
-61.9467
-60.436
-61.3236
-61.8468
-62.6956
-63.2889
-62.1996
-63.1093
-63.5125
-63.6024
-63.1809
-63.1014
-63.45
-63.8066
-63.2065
-62.5504
-62.1158
-61.7843
-61.2718
-63.8321
-62.7986
-62.411
-61.6832
-60.7647
-59.8413
-59.247
-58.66
-63.318
-62.1839
-60.9109
-59.6294
-59.2153
-58.3149
-57.562
-56.8409
-56.1992
-50.8107
-51.9184
-53.2775
-54.9336
-54.5405
-56.3748
-56.5372
-57.7436
-59.3766
-61.882
-59.0209
-59.8679
-61.4961
-62.9541
-63.5845
-60.7849
-61.9609
-62.6132
-63.2061
-63.493
-63.8299
-62.5894
-63.5142
-63.809
-63.8719
-63.3994
-63.2429
-62.5737
-63.8943
-64.104
-63.468
-62.7864
-62.2432
-61.8942
-61.3657
-60.6166
-63.9705
-62.9827
-62.5601
-61.7803
-60.8252
-59.8762
-59.3088
-58.7082
-57.7264
-63.3713
-62.3162
-60.9867
-59.6541
-59.2358
-58.3121
-57.5091
-56.7888
-56.125
-55.4262
-49.4956
-50.817
-51.5226
-52.014
-53.7994
-54.7826
-54.8784
-56.0155
-57.2722
-59.2833
-57.212
-58.5144
-60.1816
-62.4493
-63.9597
-59.4338
-60.395
-62.1597
-63.5756
-64.0546
-64.1706
-61.1588
-62.6413
-63.4329
-63.6752
-63.7471
-63.998
-63.6058
-62.9029
-63.9145
-64.0301
-64.0736
-63.5325
-63.328
-62.5791
-62.1662
-64.4081
-64.326
-63.6145
-62.9567
-62.3582
-61.9943
-61.3922
-60.6445
-59.8992
-64.0764
-63.1391
-62.7086
-61.8652
-60.8632
-59.8704
-59.2945
-58.6072
-57.7026
-56.8384
-63.3664
-62.4352
-61.0473
-59.6648
-59.2672
-58.3008
-57.394
-56.7581
-56.0605
-55.3792
-54.7603
-48.3847
-49.9178
-49.4874
-50.8783
-51.7405
-53.5965
-52.7331
-54.3219
-55.2717
-57.1171
-55.7333
-57.1922
-58.3178
-60.2609
-62.0134
-57.9773
-59.2641
-61.0086
-62.9978
-64.3551
-65.5779
-59.9428
-60.9076
-62.8801
-64.0677
-64.3939
-64.236
-64.4736
-61.6673
-63.3164
-64.0288
-64.0615
-64.0197
-64.2037
-63.533
-62.8828
-63.2804
-64.2649
-64.31
-64.3263
-63.6883
-63.4255
-62.5424
-62.0405
-61.3771
-64.8335
-64.55
-63.7535
-63.1115
-62.4694
-62.0497
-61.3576
-60.6418
-59.8534
-59.0268
-64.1653
-63.296
-62.8342
-61.9715
-60.8865
-59.8273
-59.2455
-58.4731
-57.6494
-56.7757
-56.0281
-63.3683
-62.5143
-61.1153
-59.6739
-59.2788
-58.2695
-57.3632
-56.7329
-55.9801
-55.3616
-54.7304
-54.0614
-47.8273
-48.8459
-48.9501
-49.8273
-50.4844
-51.3002
-51.3475
-51.2334
-53.1997
-54.9305
-54.0646
-54.6654
-56.5072
-57.965
-59.6549
-56.9353
-58.6116
-59.5057
-61.3371
-62.6125
-64.2792
-58.6558
-59.899
-61.6791
-63.8166
-64.8583
-65.884
-64.985
-60.3312
-61.4453
-63.4048
-64.436
-64.5781
-64.2533
-64.4183
-63.6857
-62.1908
-63.9779
-64.4
-64.3843
-64.285
-64.287
-63.3606
-62.7449
-61.9892
-63.7148
-64.6443
-64.6101
-64.5243
-63.7505
-63.458
-62.4727
-61.8987
-61.1999
-60.6595
-65.252
-64.783
-63.8726
-63.2509
-62.5632
-62.0101
-61.3222
-60.5994
-59.8333
-58.9128
-57.4682
-64.2581
-63.4419
-62.9283
-62.0102
-60.893
-59.8221
-59.2304
-58.469
-57.5722
-56.6853
-55.9657
-55.324
-63.4054
-62.5581
-61.18
-59.6844
-59.2954
-58.2475
-57.3881
-56.6719
-55.8784
-55.3335
-54.7019
-54.0469
-53.6133
-47.6242
-47.9565
-47.9221
-48.7039
-49.2304
-49.1119
-49.9926
-50.5488
-51.4402
-53.0317
-51.9099
-52.1654
-53.922
-55.4097
-56.837
-54.2584
-55.6742
-57.6749
-58.9811
-60.2695
-61.1329
-58.2367
-60.0199
-60.5513
-62.3802
-63.4436
-64.5109
-65.5466
-58.681
-60.4826
-62.3257
-64.5691
-65.122
-66.1117
-64.7944
-64.1589
-60.6329
-61.9785
-63.7387
-64.4397
-64.5923
-64.204
-64.3619
-63.3541
-62.1261
-62.5686
-64.4066
-64.5955
-64.5807
-64.3891
-64.3332
-63.1621
-62.5152
-61.8017
-60.9767
-64.077
-65.0033
-64.8897
-64.7208
-63.9023
-63.3595
-62.3739
-61.8779
-60.9866
-60.4493
-59.2735
-65.6419
-65.0004
-64.0356
-63.3964
-62.5979
-61.9253
-61.2384
-60.51
-59.7178
-58.7161
-57.4084
-56.3618
-64.4442
-63.578
-63.0166
-61.989
-60.889
-59.7761
-59.2045
-58.401
-57.4736
-56.5756
-55.8876
-55.2273
-54.4987
-63.4705
-62.5887
-61.1839
-59.6772
-59.2842
-58.2645
-57.4298
-56.5601
-55.8086
-55.2848
-54.6675
-54.0337
-53.5878
-53.3979
-46.6758
-47.0386
-47.4659
-47.9984
-48.2219
-48.3055
-48.7076
-49.07
-50.2507
-51.0301
-50.273
-50.7851
-51.7052
-52.8985
-54.0099
-52.5796
-53.3236
-54.4696
-55.9387
-57.5948
-58.2239
-54.3787
-57.0873
-58.7289
-59.9423
-60.8163
-61.4081
-62.7665
-59.3581
-60.7377
-61.4285
-63.2874
-64.2341
-64.6535
-64.6727
-64.34
-59.0271
-60.5496
-62.9773
-64.7435
-65.1815
-66.0617
-64.5097
-63.7577
-62.3554
-60.9668
-62.3849
-63.9432
-64.2838
-64.3616
-64.0638
-64.0703
-62.9967
-61.8205
-60.8247
-62.7945
-64.5752
-64.7267
-64.6466
-64.4831
-64.3172
-62.9465
-62.2313
-61.6083
-60.6728
-59.7626
-64.4458
-65.4203
-65.0648
-64.7337
-64.0374
-63.1834
-62.2905
-61.682
-60.9001
-60.2942
-59.0437
-57.9159
-65.9712
-65.1848
-64.1765
-63.538
-62.6073
-61.8264
-61.0683
-60.3371
-59.626
-58.5806
-57.3391
-56.2499
-55.0632
-64.6888
-63.6615
-63.0713
-62.0455
-60.8674
-59.6953
-59.1577
-58.3076
-57.3754
-56.4352
-55.7924
-55.122
-54.415
-53.8237
-63.4776
-62.6215
-61.1751
-59.6752
-59.2251
-58.2169
-57.368
-56.4752
-55.7519
-55.2502
-54.6287
-54.0167
-53.5667
-53.3709
-52.7959
-46.3019
-46.6496
-46.906
-47.3635
-47.4477
-47.8024
-47.8312
-48.2591
-48.7604
-49.1661
-48.9896
-49.1745
-49.6783
-51.206
-51.4337
-50.6642
-51.2791
-51.9766
-53.2626
-54.3331
-54.9578
-53.0814
-53.632
-55.1218
-56.7083
-57.7656
-58.2845
-58.6115
-55.595
-58.4523
-60.1347
-61.0278
-61.7788
-61.6224
-62.0932
-62.4429
-59.725
-61.2565
-62.5661
-64.0149
-64.711
-64.3982
-63.8934
-63.7752
-62.413
-59.4526
-60.8293
-63.2082
-64.5376
-64.6661
-65.54
-64.0939
-63.1686
-61.773
-60.2834
-61.1955
-62.5631
-63.887
-64.1773
-64.2843
-63.7654
-63.7957
-62.5759
-61.4325
-60.6952
-59.4408
-62.9678
-64.6208
-64.8041
-64.7241
-64.583
-64.1468
-62.6505
-61.9384
-61.2671
-60.3135
-59.3716
-58.2476
-64.6735
-65.6353
-65.1292
-64.9696
-63.95
-62.9709
-62.1846
-61.4584
-60.8397
-60.0667
-58.7305
-57.6441
-56.8034
-66.1839
-65.3242
-64.2799
-63.6432
-62.568
-61.6585
-60.9582
-60.1545
-59.5662
-58.4795
-57.1934
-56.1051
-54.8865
-54.1726
-64.8511
-63.6929
-63.0984
-62.0794
-60.8006
-59.6311
-59.1018
-58.2999
-57.2935
-56.2479
-55.6888
-55.0105
-54.3112
-53.7384
-53.1826
-63.4129
-62.6468
-61.1718
-59.6639
-59.1824
-58.141
-57.2066
-56.3807
-55.7132
-55.2125
-54.5981
-53.9961
-53.5389
-53.3435
-52.7662
-52.2047
-45.9362
-46.3831
-46.4869
-46.6997
-46.8919
-47.0571
-47.4209
-47.4632
-47.8611
-48.3577
-47.9946
-48.1913
-48.6799
-49.3297
-49.9571
-49.3067
-49.6025
-50.194
-51.1338
-51.6714
-52.162
-50.6038
-51.6754
-52.6164
-53.4441
-54.4405
-55.1925
-55.6672
-53.3932
-55.1629
-55.5296
-56.9026
-58.1927
-58.4827
-58.8605
-58.0372
-56.2869
-58.4632
-61.5648
-62.5417
-62.5755
-61.5109
-61.6964
-61.1285
-60.8666
-60.3556
-61.1796
-63.0135
-64.5302
-64.1577
-63.7493
-63.2111
-62.4099
-61.3948
-59.5319
-59.8785
-61.0866
-63.0863
-63.9586
-63.9492
-64.9747
-63.5168
-62.5492
-61.0322
-59.6505
-59.3231
-61.3001
-62.5478
-63.7191
-63.982
-64.1528
-63.4905
-63.2914
-62.1042
-61.101
-60.4411
-59.0678
-58.2469
-63.0479
-64.5811
-65.0215
-64.8877
-64.5126
-63.7442
-62.394
-61.824
-60.6707
-59.9083
-58.938
-57.9442
-57.3472
-64.916
-65.8759
-65.1602
-64.764
-63.9662
-62.7257
-62.1144
-61.2343
-60.5905
-59.7602
-58.4998
-57.3498
-56.5227
-55.2043
-66.3458
-65.4499
-64.3496
-63.7091
-62.4942
-61.5307
-60.7716
-59.9543
-59.3835
-58.3213
-57.0138
-55.9408
-54.7301
-54.0137
-53.417
-65.0322
-63.7382
-63.1265
-62.0429
-60.7054
-59.5764
-59.0336
-58.2217
-57.1938
-56.0418
-55.5737
-54.8966
-54.1882
-53.6434
-53.1365
-52.518
-63.3788
-62.6455
-61.1759
-59.6191
-59.1747
-58.0579
-57.0246
-56.3192
-55.6801
-55.167
-54.5764
-53.9717
-53.5099
-53.3167
-52.7327
-52.1855
-51.5377
-45.6613
-45.9191
-46.0162
-46.1713
-46.518
-46.7057
-46.7258
-46.9057
-47.2106
-47.6281
-47.4246
-47.4938
-47.7835
-48.1325
-48.7328
-48.1056
-48.2941
-48.8744
-49.3646
-50.01
-50.4472
-49.2344
-49.9842
-50.4565
-51.2108
-51.8909
-52.4615
-52.9926
-50.9693
-52.1416
-52.9584
-53.945
-54.3491
-55.2485
-55.5802
-55.6389
-53.4435
-55.4648
-55.4554
-57.3568
-58.2331
-59.0575
-58.5774
-57.4315
-57.3177
-56.5816
-59.329
-62.8524
-63.7357
-62.5425
-61.6067
-61.0276
-60.0074
-59.7547
-58.0218
-61.2083
-61.9556
-63.172
-63.5312
-63.0984
-63.0666
-62.5613
-61.4957
-60.3764
-58.6383
-58.1445
-60.1948
-61.1451
-62.9962
-63.3863
-63.6227
-64.1991
-62.8535
-61.9143
-60.4956
-59.1684
-58.772
-57.8068
-61.3301
-62.2906
-63.4129
-63.8359
-63.9549
-63.0359
-62.8546
-61.7372
-60.9091
-60.2116
-58.7739
-57.8115
-57.1906
-63.2206
-64.8268
-65.1244
-64.9549
-64.3115
-63.3504
-62.1284
-61.7654
-60.3862
-59.5334
-58.5337
-57.5933
-56.9704
-56.1437
-65.1338
-66.0165
-65.1467
-65.0029
-63.6758
-62.4905
-61.9978
-60.96
-60.3291
-59.3517
-58.2092
-57.0385
-56.1834
-54.8513
-53.717
-66.5081
-65.6122
-64.3291
-63.7019
-62.4498
-61.4143
-60.5641
-59.7158
-59.1263
-58.1668
-56.8164
-55.7445
-54.5957
-53.9042
-53.2503
-52.7258
-65.2071
-63.7861
-63.1491
-62.0171
-60.6437
-59.5179
-58.9506
-58.1235
-57.0634
-55.8799
-55.4441
-54.7764
-54.0601
-53.5588
-53.0809
-52.4355
-51.9338
-63.3891
-62.6327
-61.1649
-59.5507
-59.1004
-57.9406
-56.9524
-56.2621
-55.6252
-55.1143
-54.5536
-53.9443
-53.4832
-53.2826
-52.6965
-52.1501
-51.5225
-50.5473
-45.4084
-45.5595
-45.878
-45.8542
-46.0874
-46.1894
-46.381
-46.4781
-46.8334
-46.8203
-46.791
-46.9862
-47.2134
-47.6395
-47.9597
-47.3397
-47.5742
-47.8275
-48.2332
-48.5264
-49.0783
-48.1782
-48.5379
-48.7694
-49.6206
-50.1613
-50.7336
-50.7437
-49.3388
-49.8491
-50.3946
-51.1283
-52.0106
-52.5529
-52.7162
-52.9919
-51.3802
-52.4585
-53.2347
-53.9347
-54.4602
-55.3418
-55.2803
-55.1745
-54.7349
-53.7547
-55.4385
-55.8445
-56.5382
-58.1927
-58.9989
-58.1527
-57.2194
-56.3455
-55.8252
-56.7693
-59.844
-62.5732
-63.4618
-61.5998
-61.1579
-60.4058
-59.4458
-58.5686
-57.0833
-56.6783
-61.2998
-61.7409
-63.0183
-62.988
-62.2102
-62.2839
-61.7415
-60.7094
-59.4537
-57.933
-57.4857
-57.0287
-60.8414
-61.2479
-62.6978
-62.7905
-63.0504
-63.3521
-62.1284
-61.1194
-60.0429
-58.6054
-58.249
-57.231
-56.1643
-61.2911
-61.9681
-63.0592
-63.6818
-63.7343
-62.4349
-62.3265
-61.5277
-60.6377
-59.946
-58.45
-57.2006
-56.5524
-55.8428
-63.2503
-64.838
-65.0754
-64.8434
-64.0755
-62.9447
-61.9192
-61.7799
-60.1758
-59.3159
-58.1772
-57.1589
-56.5973
-55.7536
-54.2102
-65.2892
-65.9402
-65.1522
-64.9604
-63.3749
-62.2654
-61.7135
-60.6583
-60.0177
-58.9176
-57.8831
-56.7183
-55.8302
-54.6058
-53.4939
-52.7125
-66.6878
-65.7506
-64.2334
-63.654
-62.4164
-61.2774
-60.3607
-59.4463
-58.8733
-57.9601
-56.5957
-55.5202
-54.4377
-53.713
-53.0847
-52.5594
-52.1969
-65.3521
-63.8056
-63.1151
-61.9837
-60.6029
-59.4554
-58.8246
-58.014
-56.893
-55.7866
-55.3001
-54.6547
-53.9459
-53.473
-53.0232
-52.3494
-51.8393
-51.0525
-63.3814
-62.6055
-61.1358
-59.506
-58.9614
-57.7878
-56.9394
-56.1622
-55.5494
-55.0438
-54.5296
-53.9123
-53.4537
-53.2404
-52.6618
-52.0949
-51.5066
-50.5219
-49.7305
-45.2719
-45.4675
-45.5541
-45.7844
-45.8778
-45.9947
-45.9406
-46.0598
-46.2479
-46.432
-46.4387
-46.6003
-46.7482
-47.1542
-47.1725
-46.7372
-46.972
-47.3033
-47.4477
-47.9155
-48.1862
-47.4671
-47.6262
-47.9518
-48.3375
-48.8338
-49.26
-49.3829
-48.0708
-48.673
-48.9744
-49.5373
-50.3185
-50.4179
-50.6082
-51.0309
-49.5972
-50.2191
-50.6167
-50.9194
-51.8896
-52.2197
-52.4108
-52.5713
-52.5083
-51.1457
-52.3252
-53.3156
-53.4307
-54.6395
-54.7691
-55.0589
-54.6547
-54.1552
-53.9707
-54.1851
-54.8845
-56.1336
-57.3954
-58.538
-58.1984
-57.5948
-56.758
-55.7149
-55.226
-54.6069
-56.9963
-59.5757
-62.292
-62.7935
-60.8578
-60.3071
-59.4957
-58.6969
-57.4865
-56.2677
-55.9126
-56.1014
-61.8698
-61.7389
-63.2129
-62.2803
-61.4832
-61.3876
-60.8372
-59.8717
-58.5447
-57.2572
-56.9717
-56.6318
-55.6934
-61.2167
-61.2872
-62.2834
-62.244
-62.3711
-62.4463
-61.3735
-60.2397
-59.1105
-58.4273
-57.7824
-56.7461
-55.622
-55.0995
-61.1961
-61.8464
-62.6606
-63.352
-63.4901
-61.8326
-61.7857
-61.3525
-60.474
-59.5787
-57.9874
-56.6952
-55.9588
-55.3142
-53.9415
-63.0311
-64.2323
-65.0189
-64.8256
-63.7586
-62.5183
-61.8556
-61.8286
-59.7764
-58.9722
-57.9213
-56.762
-56.185
-55.287
-53.8402
-52.6747
-65.478
-65.9872
-64.94
-64.9671
-63.1655
-62.0475
-61.3128
-60.458
-59.4914
-58.5118
-57.5557
-56.4188
-55.4677
-54.2069
-53.2912
-52.4943
-52.1533
-66.8179
-65.7344
-64.1787
-63.6319
-62.2314
-61.1296
-60.1561
-59.1627
-58.6017
-57.6803
-56.3479
-55.2721
-54.2668
-53.5286
-52.965
-52.4038
-52.0735
-51.3022
-65.4797
-63.825
-63.1045
-61.9316
-60.5271
-59.3898
-58.6615
-57.8503
-56.7062
-55.6802
-55.1363
-54.5329
-53.8172
-53.3856
-52.9596
-52.2558
-51.7409
-50.9751
-49.9851
-63.3607
-62.5544
-61.0811
-59.4831
-58.8824
-57.6852
-56.9742
-56.042
-55.4754
-54.9653
-54.507
-53.8726
-53.4235
-53.1973
-52.6252
-52.0771
-51.4884
-50.4959
-49.7134
-49.3947
-45.1694
-45.2854
-45.3105
-45.5221
-45.6244
-45.6238
-45.7008
-45.9165
-45.9495
-46.1511
-46.0073
-46.14
-46.3725
-46.5195
-46.5773
-46.2885
-46.4853
-46.8447
-47.1099
-47.542
-47.4997
-46.7843
-47.1494
-47.3356
-47.6095
-47.9586
-48.1866
-48.5314
-47.3778
-47.7965
-48.1187
-48.6846
-48.8937
-49.1454
-49.4378
-49.8615
-48.1583
-48.7365
-49.0782
-49.4651
-50.2796
-50.2761
-50.4803
-50.8671
-51.0195
-49.7414
-50.1135
-50.903
-51.546
-52.157
-52.0663
-52.3352
-52.4089
-52.1533
-52.2345
-51.6222
-52.5775
-53.573
-53.886
-54.4517
-54.5259
-54.6724
-54.4057
-53.7275
-53.5954
-53.1435
-54.5062
-55.1146
-55.8987
-56.9813
-58.0972
-57.6901
-56.817
-56.0002
-55.2333
-54.5101
-53.9313
-54.7302
-57.044
-59.2784
-61.6722
-61.7499
-60.4128
-59.3319
-58.6218
-57.6723
-56.7163
-55.6723
-55.5059
-55.4378
-54.9887
-61.8406
-62.0306
-62.6662
-61.5754
-60.8246
-60.3109
-59.9009
-59.0362
-57.8117
-56.7399
-56.5554
-56.1233
-55.1928
-54.4655
-61.4486
-61.2396
-61.8577
-61.7856
-61.9134
-61.7565
-60.6094
-59.5243
-58.3633
-57.908
-57.4121
-56.4016
-55.2295
-54.5923
-53.5024
-60.9863
-61.5002
-62.2563
-63.0135
-62.973
-61.0707
-61.3493
-61.1582
-60.4215
-59.2267
-57.5548
-56.2357
-55.3467
-54.7667
-53.5605
-52.4298
-63.0254
-64.0383
-64.9879
-64.4562
-63.3701
-62.2018
-61.6676
-61.5239
-59.4119
-58.543
-57.5556
-56.3185
-55.7332
-54.8173
-53.4457
-52.3556
-51.6565
-65.599
-65.9472
-65.1005
-64.9496
-62.9629
-61.8176
-61.0269
-60.2986
-58.9846
-58.1386
-57.2249
-56.1288
-55.1068
-53.8444
-52.9539
-52.3093
-51.9464
-51.525
-66.9031
-65.5306
-64.1023
-63.5674
-62.0736
-60.9771
-59.9047
-58.8795
-58.2995
-57.3794
-56.0777
-55.006
-54.0917
-53.3484
-52.7974
-52.2532
-51.9633
-51.1519
-50.0472
-65.5613
-63.8298
-63.0975
-61.9606
-60.4246
-59.3214
-58.5171
-57.6792
-56.5062
-55.5318
-54.9564
-54.4087
-53.6873
-53.3016
-52.8785
-52.1725
-51.6379
-50.9027
-49.9151
-49.2016
-63.3565
-62.4634
-61.0273
-59.4377
-58.8554
-57.6212
-56.9318
-55.9404
-55.405
-54.8937
-54.4723
-53.8361
-53.3895
-53.1549
-52.5974
-52.0868
-51.4714
-50.468
-49.6992
-49.3757
-48.9046
-45.0886
-45.2159
-45.1646
-45.39
-45.4127
-45.357
-45.6218
-45.6959
-45.7065
-45.7934
-45.6182
-45.9527
-46.1555
-46.1625
-46.2024
-46.045
-46.203
-46.4141
-46.6802
-46.8027
-46.9193
-46.3207
-46.6198
-46.8638
-47.148
-47.4096
-47.4397
-47.8638
-46.8647
-47.1237
-47.408
-47.6494
-48.0305
-48.3231
-48.7124
-48.8285
-47.3491
-47.77
-48.1536
-48.4676
-49.0052
-49.2914
-49.3701
-49.6138
-49.8842
-48.4014
-48.634
-49.0652
-49.5278
-50.1879
-50.1415
-50.5209
-50.8354
-50.7103
-50.7414
-49.6694
-50.2332
-50.5845
-51.6049
-51.6692
-51.957
-52.0948
-52.2568
-51.9311
-51.8893
-51.9775
-51.8585
-52.5858
-53.7292
-53.8782
-53.5877
-54.1349
-54.0111
-53.683
-53.3256
-53.2843
-53.0698
-53.0802
-54.4513
-54.8707
-55.0813
-56.3917
-56.974
-56.9191
-56.1393
-55.164
-54.7888
-54.0478
-53.5638
-53.9455
-53.935
-57.0102
-58.9758
-60.614
-60.9562
-59.4603
-58.5688
-57.7698
-56.9277
-56.1481
-55.1838
-54.9611
-54.7826
-54.3349
-53.2008
-61.6048
-61.5294
-62.0139
-60.9364
-60.0776
-59.6113
-58.9751
-58.2637
-57.1646
-56.2186
-56.0548
-55.8367
-54.7294
-53.9184
-53.0573
-61.4856
-61.1816
-61.3376
-61.2457
-61.332
-61.1375
-60.1175
-58.7409
-57.7792
-57.4361
-57.3044
-56.0912
-54.8302
-53.9806
-52.9849
-52.008
-60.7483
-60.983
-61.7496
-62.6807
-62.4041
-60.3218
-60.907
-60.8878
-60.3815
-58.9343
-57.0836
-55.7318
-54.8271
-54.2294
-53.0734
-52.0161
-51.2852
-62.856
-63.9842
-64.8502
-64.0501
-62.9504
-61.8644
-61.4641
-61.0891
-59.0119
-58.0833
-56.9687
-55.8952
-55.3123
-54.3662
-53.1224
-52.0573
-51.3862
-51.0327
-65.6594
-65.7916
-65.0327
-64.6151
-62.6728
-61.6112
-60.7943
-59.9574
-58.482
-57.7417
-56.8793
-55.8467
-54.754
-53.5178
-52.5901
-52.1137
-51.7475
-51.3539
-50.5241
-67.0213
-65.3096
-63.9949
-63.4433
-62.1002
-60.8177
-59.6356
-58.5653
-57.9935
-57.0535
-55.7891
-54.7236
-53.9217
-53.1727
-52.5725
-52.1214
-51.8574
-50.9976
-49.9858
-49.3926
-65.6095
-63.8052
-63.0649
-61.9135
-60.2895
-59.2461
-58.3677
-57.5002
-56.3253
-55.3757
-54.7703
-54.3091
-53.5587
-53.2178
-52.7774
-52.0702
-51.5764
-50.8237
-49.8348
-49.1472
-48.5692
-63.3544
-62.3346
-60.9595
-59.3504
-58.8424
-57.5293
-56.7941
-55.8392
-55.3161
-54.8233
-54.4278
-53.8152
-53.3528
-53.1121
-52.5699
-52.0572
-51.4514
-50.4391
-49.6808
-49.3593
-48.8914
-49.1877
-44.9811
-45.132
-45.0772
-45.2653
-45.2412
-45.2116
-45.3083
-45.4146
-45.4247
-45.4831
-45.5996
-45.693
-45.8618
-45.8888
-45.9753
-45.7796
-45.9536
-46.1269
-46.3337
-46.2857
-46.484
-45.9543
-46.2607
-46.4952
-46.6642
-46.8709
-46.962
-47.2182
-46.412
-46.6213
-46.9287
-47.0063
-47.4044
-47.559
-47.8247
-47.9293
-46.8971
-47.1323
-47.4635
-47.6205
-47.9468
-48.3964
-48.726
-48.8122
-48.9135
-47.4672
-47.9409
-48.2238
-48.5559
-48.8221
-49.2213
-49.4676
-49.6107
-49.7339
-49.7687
-48.4326
-48.8163
-49.4112
-49.7235
-49.7337
-50.1831
-50.4136
-50.6201
-50.5826
-50.7064
-50.7309
-50.1589
-50.4032
-50.6808
-51.514
-51.3521
-51.7523
-51.8066
-51.9567
-51.7013
-51.5434
-51.7271
-51.5238
-51.8482
-52.379
-53.5398
-53.8424
-53.5143
-53.5872
-53.586
-53.2302
-52.9889
-52.9266
-52.7109
-52.6081
-52.6131
-54.7796
-54.7594
-55.3662
-56.3252
-56.2848
-55.9286
-55.6198
-54.526
-54.0535
-53.7131
-53.2135
-53.3846
-53.4574
-52.8004
-57.1413
-58.2933
-59.589
-59.7195
-58.4664
-57.6867
-57.0396
-56.1285
-55.5936
-54.682
-54.4572
-54.4338
-53.7679
-52.7329
-51.8545
-61.4526
-61.2852
-61.0286
-60.167
-59.2974
-58.8615
-58.2502
-57.4902
-56.6356
-55.8529
-55.646
-55.4353
-54.2968
-53.4211
-52.6519
-51.4799
-61.4018
-60.8749
-60.7072
-60.6471
-60.6874
-60.3689
-59.6015
-58.2945
-57.4562
-56.8443
-56.4466
-55.5245
-54.3875
-53.4256
-52.5663
-51.5196
-51.0485
-60.5002
-60.5679
-61.2123
-62.2154
-61.8063
-59.7192
-60.3373
-60.51
-60.1732
-58.3861
-56.6451
-55.2128
-54.3148
-53.7092
-52.4562
-51.6073
-50.9561
-50.5645
-62.5437
-63.6657
-64.4994
-63.7776
-62.4519
-61.448
-61.327
-60.8645
-58.6072
-57.63
-56.5031
-55.5063
-54.9053
-53.9026
-52.7592
-51.7826
-51.1504
-50.7331
-50.3692
-65.8402
-65.6749
-64.6218
-64.1368
-62.4861
-61.4379
-60.5261
-59.6132
-58.0118
-57.3358
-56.5096
-55.5416
-54.4163
-53.1791
-52.4643
-51.902
-51.545
-51.1536
-50.349
-49.1484
-67.0724
-64.9731
-63.8803
-63.2341
-61.9543
-60.7244
-59.4004
-58.3609
-57.7007
-56.7028
-55.4813
-54.4606
-53.7442
-53.0145
-52.4464
-51.9916
-51.723
-50.8493
-49.9192
-49.2899
-48.4905
-65.5959
-63.7725
-63.018
-61.8627
-60.1901
-59.1578
-58.2105
-57.313
-56.1037
-55.2125
-54.5729
-54.1785
-53.4399
-53.1322
-52.6738
-51.964
-51.4948
-50.7345
-49.7651
-49.0908
-48.5447
-48.3919
-63.3471
-62.2104
-60.8726
-59.285
-58.7388
-57.3688
-56.7073
-55.746
-55.2281
-54.7496
-54.3723
-53.7692
-53.3223
-53.068
-52.5498
-51.9829
-51.4292
-50.4079
-49.6646
-49.3421
-48.8851
-49.1822
-49.6492
-44.9008
-45.0098
-44.9125
-45.0812
-45.0951
-45.0842
-45.2898
-45.2748
-45.3072
-45.3382
-45.3329
-45.3775
-45.5274
-45.5219
-45.6191
-45.5422
-45.7103
-45.9153
-46.0421
-46.0852
-46.0423
-45.7875
-45.965
-46.1644
-46.3449
-46.4751
-46.6307
-46.7306
-46.105
-46.2702
-46.5194
-46.6829
-46.9019
-46.9999
-47.1775
-47.3328
-46.4944
-46.6671
-46.8347
-47.0924
-47.2961
-47.6373
-47.7902
-48.0319
-48.0936
-47.0239
-47.3681
-47.7171
-47.9762
-47.9965
-48.5748
-48.5708
-48.8415
-48.925
-49.0308
-47.6532
-47.8753
-48.2338
-48.6526
-48.8781
-49.1808
-49.3549
-49.5016
-49.6625
-49.7204
-49.4833
-48.7569
-49.0167
-49.611
-49.6963
-49.9848
-50.2265
-50.3715
-50.3872
-50.3775
-50.3105
-50.646
-50.4544
-50.3019
-50.6048
-50.805
-51.3754
-51.5867
-51.5657
-51.6732
-51.6628
-51.4504
-51.2066
-51.5872
-51.1967
-51.2255
-51.9995
-52.171
-53.0726
-53.4705
-53.6264
-53.2108
-53.3299
-52.8792
-52.6646
-52.4778
-52.6045
-52.1921
-52.1906
-51.6046
-54.74
-54.9043
-54.9928
-55.7044
-55.8255
-55.0555
-55.1296
-53.9624
-53.6512
-53.1659
-52.9981
-53.0871
-53.0536
-52.1819
-51.1318
-57.1098
-58.0263
-58.6406
-58.776
-57.6522
-56.7981
-56.3538
-55.4951
-54.5796
-54.267
-54.0163
-53.8065
-53.3639
-52.196
-51.3492
-50.9057
-61.2194
-60.8344
-60.3193
-59.3662
-58.6361
-58.0934
-57.6795
-56.8626
-55.8434
-55.3709
-55.2406
-54.4899
-54.0182
-52.9377
-52.2362
-51.0469
-50.5409
-61.2611
-60.5086
-60.1157
-60.0715
-60.0569
-59.6757
-59.0891
-57.8453
-56.9381
-56.4733
-55.9114
-54.8461
-53.9063
-52.9483
-52.118
-51.0939
-50.6495
-50.2116
-60.3753
-60.0271
-60.7236
-61.6751
-61.2212
-59.2834
-59.8607
-60.2256
-59.9869
-58.0191
-56.0911
-54.6474
-53.7756
-53.2072
-52.2038
-51.1756
-50.6039
-50.2922
-49.9851
-62.5607
-63.366
-64.2996
-63.4566
-61.8292
-61.1456
-61.2846
-60.5464
-58.2585
-57.1588
-56.0542
-55.0933
-54.54
-53.5324
-52.4299
-51.5313
-50.9495
-50.6262
-50.1888
-49.1742
-65.9027
-65.6142
-64.1554
-63.6878
-62.3164
-61.3982
-60.2661
-59.2102
-57.6014
-56.8919
-56.1012
-55.2225
-54.0751
-52.8426
-52.3862
-51.7366
-51.3475
-50.9889
-50.235
-49.0728
-48.2589
-67.0721
-64.511
-63.6734
-63.1293
-61.854
-60.5619
-59.2005
-58.0684
-57.3681
-56.3434
-55.1698
-54.188
-53.5542
-52.8509
-52.3156
-51.8469
-51.5924
-50.7151
-49.8521
-49.1662
-48.4245
-47.8577
-65.4014
-63.7224
-62.9392
-61.8049
-60.1239
-59.0356
-58.0565
-57.136
-55.881
-55.0494
-54.4071
-54.0457
-53.3281
-53.0467
-52.5683
-51.9033
-51.42
-50.6616
-49.7128
-49.0262
-48.5206
-48.3913
-48.7933
-63.3404
-62.0995
-60.7975
-59.2318
-58.6054
-57.1908
-56.642
-55.6724
-55.1396
-54.6799
-54.3064
-53.7221
-53.2902
-53.0277
-52.5607
-51.9405
-51.4152
-50.3746
-49.6458
-49.3236
-48.8851
-49.1841
-49.6674
-50.4235
-44.7229
-44.9381
-44.8245
-44.9573
-44.9437
-44.8766
-45.1253
-45.105
-45.0686
-45.1415
-45.1067
-45.2846
-45.3594
-45.4028
-45.4072
-45.4796
-45.5537
-45.5941
-45.5551
-45.7223
-45.7568
-45.5987
-45.7632
-45.9229
-46.0704
-46.1577
-46.2495
-46.2756
-45.8241
-45.9732
-46.148
-46.4098
-46.4985
-46.645
-46.7035
-46.8619
-46.1295
-46.2866
-46.483
-46.7351
-46.9252
-47.2098
-47.1935
-47.3427
-47.5209
-46.5292
-46.754
-46.8988
-47.1158
-47.4625
-47.6961
-47.7692
-47.9909
-48.069
-48.1548
-47.0698
-47.2881
-47.635
-47.9672
-48.2496
-48.4807
-48.635
-48.7663
-48.8473
-48.8946
-48.8262
-47.8327
-47.9438
-48.1391
-48.5427
-48.7865
-49.1061
-49.3212
-49.4302
-49.5215
-49.5836
-49.5232
-49.5474
-48.8212
-48.9971
-49.479
-49.5722
-49.9388
-50.1369
-50.2364
-50.2357
-50.1488
-50.0739
-50.2941
-50.0859
-50.373
-50.1231
-50.4462
-50.6312
-50.9762
-51.3917
-51.4541
-51.4521
-51.3354
-51.271
-51.038
-51.1291
-51.0271
-50.8314
-50.4548
-51.9959
-52.3878
-52.8368
-53.0119
-52.9566
-52.9274
-52.8555
-52.468
-52.294
-52.1608
-52.0144
-51.8688
-51.6671
-50.974
-50.4412
-54.9556
-54.857
-54.8386
-55.1031
-54.8857
-54.6687
-54.4669
-53.4979
-53.209
-52.9689
-52.6738
-52.699
-52.4738
-51.4899
-50.6857
-50.065
-56.4309
-57.5711
-58.1356
-57.7509
-56.9358
-56.1093
-55.7707
-55.0808
-54.0996
-54.0231
-53.5289
-53.3983
-52.8143
-51.7035
-50.8789
-50.3827
-49.8879
-60.6128
-60.5109
-59.6865
-58.6232
-57.9953
-57.4421
-57.0484
-56.4113
-55.5747
-55.1112
-54.7771
-54.0546
-53.3623
-52.4612
-51.7403
-50.6058
-50.1719
-49.7095
-61.0035
-60.1946
-59.7518
-59.4981
-59.388
-58.9155
-58.4652
-57.3537
-56.5146
-56.4983
-55.3412
-54.2133
-53.3997
-52.5306
-51.6256
-50.6734
-50.3553
-49.9569
-49.6582
-60.1529
-59.8434
-60.2765
-61.1401
-60.6956
-58.7568
-59.3433
-59.8549
-59.7621
-57.4659
-55.5054
-54.0958
-53.3362
-52.7208
-51.5997
-50.7762
-50.2993
-50.0848
-49.7391
-49.0303
-62.4681
-63.1949
-64.1514
-62.9136
-61.3421
-60.8691
-61.3045
-60.0753
-57.8697
-56.5467
-55.6018
-54.6941
-54.2107
-53.1475
-52.1228
-51.3183
-50.7355
-50.428
-49.9776
-48.9465
-48.0874
-65.8865
-65.5503
-63.966
-63.4165
-62.2247
-61.4383
-60.0149
-58.6764
-57.1989
-56.4196
-55.725
-54.859
-53.7355
-52.5149
-51.9693
-51.5551
-51.1868
-50.8709
-50.161
-49.0256
-48.2019
-47.6834
-67.033
-64.3862
-63.5475
-62.8006
-61.705
-60.2811
-58.9386
-57.7385
-57.0489
-55.9836
-54.8589
-53.9142
-53.3442
-52.6942
-52.1567
-51.7277
-51.4663
-50.6047
-49.7644
-49.0525
-48.3671
-47.8823
-48.0936
-65.1157
-63.6759
-62.857
-61.6891
-60.0486
-58.8881
-57.8849
-56.9331
-55.6942
-54.8972
-54.2799
-53.9172
-53.2272
-52.9593
-52.4513
-51.8095
-51.3548
-50.5804
-49.6564
-48.9589
-48.5031
-48.3935
-48.8169
-49.2923
-63.3225
-62.0346
-60.7078
-59.1988
-58.4544
-56.9563
-56.5483
-55.6025
-55.0438
-54.6147
-54.2769
-53.6804
-53.2558
-52.9842
-52.5385
-51.941
-51.3829
-50.3402
-49.631
-49.311
-48.8894
-49.1893
-49.6835
-50.4607
-50.7455
-44.7581
-44.7092
-44.9263
-44.872
-44.7734
-44.8499
-44.9834
-44.9227
-44.9031
-45.1297
-45.1387
-45.1446
-45.1477
-45.1811
-45.2469
-45.3077
-45.3913
-45.4375
-45.5234
-45.5072
-45.3891
-45.5691
-45.6294
-45.6464
-45.7741
-45.9257
-45.9511
-45.6361
-45.7533
-45.9077
-46.1175
-46.1879
-46.3486
-46.4769
-46.4856
-45.7587
-46.0182
-46.1356
-46.448
-46.5974
-46.6918
-46.8511
-46.8834
-47.0211
-46.0931
-46.3281
-46.562
-46.8347
-47.0174
-47.154
-47.3262
-47.4642
-47.5341
-47.6759
-46.5132
-46.8182
-47.0039
-47.0519
-47.4654
-47.6548
-47.8462
-48.0305
-48.0091
-48.1058
-48.2861
-47.0705
-47.36
-47.6573
-47.8992
-48.2089
-48.3577
-48.54
-48.7073
-48.7348
-48.8502
-48.62
-48.7717
-47.8393
-48.0732
-48.0795
-48.5218
-48.8686
-49.0063
-49.1683
-49.3798
-49.393
-49.452
-49.3188
-49.3371
-49.2768
-48.7125
-48.9925
-49.347
-49.488
-49.7936
-50.0088
-50.0261
-50.0645
-49.9373
-50.0281
-50.0083
-50.1449
-49.8329
-49.5689
-50.4011
-50.6822
-50.6873
-50.8549
-51.0113
-51.1783
-51.2049
-51.0543
-50.8885
-50.8355
-50.9285
-50.6981
-50.4944
-49.9464
-49.7531
-52.0329
-52.3317
-52.603
-52.7624
-52.5763
-52.6876
-52.5048
-52.0844
-51.9834
-51.9302
-51.7502
-51.4027
-51.2279
-50.5716
-49.9717
-49.4501
-53.8772
-54.6466
-54.5435
-54.6549
-54.4301
-54.2995
-53.7581
-53.3111
-53.0765
-52.5854
-52.3896
-52.0922
-51.9175
-50.9484
-50.2956
-49.6538
-49.185
-56.3818
-56.9423
-56.9276
-56.942
-56.2092
-55.5202
-55.1249
-54.4997
-54.1392
-53.3561
-53.1262
-52.8133
-52.1581
-51.2463
-50.5218
-49.92
-49.6475
-48.8746
-59.8316
-60.0691
-58.8727
-57.9111
-57.3159
-56.8448
-56.3113
-55.9473
-55.2393
-54.7428
-54.1742
-53.7943
-52.8076
-51.9626
-51.2855
-50.2168
-49.8244
-49.567
-48.9859
-60.4455
-59.8149
-59.1001
-58.9795
-58.5842
-58.3554
-57.8167
-56.9767
-55.883
-55.8828
-54.695
-53.7183
-52.9851
-52.0926
-51.1792
-50.3057
-50.1039
-49.7108
-49.3482
-48.7133
-59.9077
-59.6637
-59.8262
-60.6285
-59.8767
-58.6431
-58.8556
-59.2919
-59.3457
-56.7922
-54.9136
-53.6026
-52.8227
-52.246
-51.4429
-50.4708
-50.0662
-49.8796
-49.555
-48.8238
-48.1612
-61.8573
-63.1263
-63.4731
-62.3226
-60.7538
-60.481
-61.3277
-59.6648
-57.3897
-56.0599
-55.1259
-54.2987
-53.9544
-52.71
-51.8265
-50.9983
-50.5201
-50.1417
-49.7946
-48.778
-47.9155
-47.2159
-65.9237
-65.1445
-63.6916
-63.2217
-62.0761
-61.3023
-59.725
-58.15
-56.7336
-55.9702
-55.3162
-54.5118
-53.4231
-52.3565
-51.9365
-51.4136
-51.0089
-50.7269
-50.117
-48.9816
-48.1615
-47.65
-47.2742
-66.9989
-64.5499
-63.3696
-62.5818
-61.541
-60.0002
-58.6427
-57.3928
-56.7598
-55.6347
-54.5801
-53.6477
-53.1534
-52.5329
-52.0332
-51.6099
-51.3476
-50.4966
-49.672
-49.0082
-48.3274
-47.8988
-48.0975
-48.0853
-64.8041
-63.6397
-62.8036
-61.5418
-59.954
-58.7739
-57.6792
-56.7078
-55.4895
-54.7225
-54.134
-53.7857
-53.131
-52.8689
-52.3549
-51.7376
-51.2932
-50.4943
-49.5976
-48.8961
-48.4917
-48.4012
-48.8475
-49.3457
-49.7034
-63.2689
-61.9245
-60.621
-59.189
-58.2769
-56.7068
-56.4451
-55.5319
-54.9483
-54.5536
-54.2256
-53.646
-53.2228
-52.9325
-52.4973
-51.9494
-51.3358
-50.3044
-49.6172
-49.2972
-48.8913
-49.1965
-49.689
-50.4783
-50.7606
-51.0469
-44.7915
-44.7478
-44.7056
-44.8811
-44.9107
-44.8553
-44.8255
-45.005
-44.9748
-44.9976
-44.9584
-44.9342
-45.1408
-45.1158
-45.2304
-45.2317
-45.2445
-45.2451