/*--------------------------------*- C++ -*----------------------------------*\
  =========                 |
  \\      /  F ield         | OpenFOAM: The Open Source CFD Toolbox
   \\    /   O peration     | Website:  https://openfoam.org
    \\  /    A nd           | Version:  7
     \\/     M anipulation  |
\*---------------------------------------------------------------------------*/
FoamFile
{
    version     2.0;
    format      ascii;
    class       surfaceScalarField;
    location    "4.5";
    object      phi;
}
// * * * * * * * * * * * * * * * * * * * * * * * * * * * * * * * * * * * * * //

dimensions      [0 3 -1 0 0 0 0];

internalField   nonuniform List<scalar> 
54451
(
0.000205529
-0.00282548
-5.83855e-05
0.000387404
-0.00027214
-0.000211676
0.000180275
-0.00302161
-5.80736e-05
0.000186893
-0.00336227
-4.35545e-05
0.0003998
0.00233395
-0.000514591
0.000344254
-0.000515162
-0.000216655
0.000357571
-0.000821258
-0.000169163
0.000156739
-0.00319236
-5.72447e-05
0.000175446
-0.00355271
-4.30823e-05
0.000202394
-0.00289225
-3.17191e-05
0.000634353
0.00343393
-0.000731707
0.000437924
0.00222806
-0.000487903
0.000562023
0.000613006
-0.00044946
0.000299501
-0.000740944
-0.000213868
0.000353251
-0.00106552
-0.000150196
0.000424374
-0.0014968
-0.000130312
0.000138258
-0.00334373
-5.598e-05
0.000165716
-0.00373299
-4.26772e-05
0.000190851
-0.00309485
-3.1333e-05
0.000195974
-0.00311856
-2.92822e-05
0.000859539
0.00536438
-0.00046667
0.000653616
0.00321242
-0.000666015
0.000786297
0.00322527
-0.000648077
0.000442167
0.00205731
-0.000449612
0.000561351
0.000348416
-0.000431413
0.000669058
0.000171557
-0.000311937
0.000272582
-0.000959938
-0.000206555
0.000372865
-0.00134943
-0.000137114
0.000375248
-0.00171377
-0.000117626
0.000414556
-0.00227986
-9.61384e-05
0.000132059
-0.00348825
-5.52407e-05
0.000152621
-0.00389915
-4.24467e-05
0.000176249
-0.00328272
-3.10546e-05
0.00018265
-0.00330333
-2.92114e-05
0.000117373
-0.00454865
-3.22789e-05
0.00096684
0.00659996
-0.000151713
0.000938654
0.00516199
-0.000478702
0.000934978
0.00507037
-0.000396406
0.000542753
0.00304059
-0.000568723
0.000778768
0.00289942
-0.000557586
0.0007415
0.00174505
-0.000540515
0.000432452
0.00185763
-0.000413537
0.000588994
6.31833e-05
-0.000380508
0.000631034
-0.000179505
-0.000336136
0.000686636
-0.000551177
-0.000254774
0.000261458
-0.00117083
-0.000194842
0.000389005
-0.0016638
-0.000128567
0.000351979
-0.00190702
-0.000119595
0.000368956
-0.00248388
-9.9911e-05
0.000222872
-0.00308913
-0.000133691
0.000128749
-0.00362913
-5.52004e-05
0.000141289
-0.00405357
-4.21072e-05
0.000162401
-0.00345642
-3.11506e-05
0.000172893
-0.00347824
-2.90415e-05
9.99517e-05
-0.00464522
-3.25892e-05
8.3879e-05
-0.00419998
-4.22063e-05
0.000755336
0.0076011
0.000213892
0.00110743
0.00638788
-0.000123643
0.00116731
0.00624496
-0.000242066
0.000862876
0.00512836
-0.000489139
0.00103288
0.00480698
-0.000469431
0.00107377
0.00421508
-0.000117838
0.000533111
0.00285761
-0.000514986
0.000778356
0.00261104
-0.000469705
0.000758399
0.00152155
-0.00046145
0.000822433
0.000467256
-0.00043571
0.000427395
0.00163196
-0.000381623
0.000584671
-0.000219913
-0.000326106
0.000582311
-0.000465834
-0.000324512
0.000594455
-0.000840783
-0.000272028
0.00032903
-0.00141568
-0.000268025
0.000273798
-0.00139091
-0.000182521
0.000387154
-0.00198235
-0.000122153
0.00034313
-0.00210342
-0.00011289
0.000343462
-0.00266896
-0.000105085
0.000191828
-0.00313635
-0.000144565
0.000167087
-0.00319346
-0.000164142
0.000126615
-0.00376704
-5.43826e-05
0.000126356
-0.00419323
-4.18986e-05
0.000147451
-0.00361498
-3.09967e-05
0.000161415
-0.00364151
-2.92918e-05
8.78434e-05
-0.00472823
-3.38704e-05
6.15583e-05
-0.00425157
-4.25567e-05
4.80203e-05
-0.00389043
-5.28835e-05
0.00092186
0.00708895
0.000727802
0.00109715
0.0078973
-0.000133922
0.00121698
0.00760854
4.86157e-05
0.00112355
0.00618052
-0.000209584
0.00130869
0.0061742
-0.000328697
0.0014844
0.00627082
-0.000766895
0.000849948
0.00509866
-0.000475416
0.00104747
0.004581
-0.000532275
0.00103514
0.00372071
-0.000251801
0.00100096
0.00297081
-0.000143968
0.000486923
0.00273471
-0.000485117
0.000697911
0.00242554
-0.000442726
0.000763112
0.00126617
-0.00039513
0.000825404
0.000193258
-0.000418401
0.00052562
0.000297808
-0.000448713
0.000447474
0.00139636
-0.000374428
0.000541843
-0.000458088
-0.000298137
0.000553278
-0.000716767
-0.000285321
0.000522974
-0.00107991
-0.000264901
0.000319076
-0.00155315
-0.000261808
0.000201084
-0.00195605
-0.000282513
0.000280572
-0.00161471
-0.000168938
0.000349258
-0.00227112
-0.000116658
0.00032492
-0.00228922
-0.000113825
0.000314834
-0.00283187
-0.000103399
0.000177603
-0.00317984
-0.000151355
0.000114501
-0.00322218
-0.000168781
9.32289e-05
-0.00327791
-0.000157178
0.000122602
-0.00389974
-5.41137e-05
0.000109301
-0.00431563
-4.12782e-05
0.000130379
-0.00375613
-3.11243e-05
0.000145821
-0.00378802
-3.03159e-05
6.86258e-05
-0.0047926
-3.35466e-05
5.56125e-05
-0.00429748
-4.35748e-05
1.54653e-05
-0.00389663
-5.18269e-05
-3.69912e-06
-0.00366779
-4.39065e-05
0.00109379
0.00666799
0.002023
0.00122233
0.00754036
0.00107672
0.00163034
0.00782631
0.000362785
0.00124491
0.00773279
-0.000223466
0.00146092
0.00731841
3.97396e-06
0.00190593
0.00691074
2.73515e-05
0.00103708
0.00612351
-0.000156287
0.00133438
0.00612067
-0.000442961
0.00149647
0.00620709
-0.000726291
0.00154778
0.00352661
-0.000662841
0.000718226
0.00506717
-0.000480199
0.00100791
0.00448762
-0.000692033
0.0011221
0.00320156
-0.000372115
0.00111055
0.00265843
-0.00022457
0.000916039
0.00171235
-0.00034166
0.000451099
0.00267492
-0.000455385
0.000679545
0.00224695
-0.000444228
0.000716688
0.00103438
-0.000374343
0.000747162
-3.30751e-05
-0.000392985
0.000466812
0.000116147
-0.000384476
0.000305862
-0.000356153
-0.000476148
0.000447745
0.00118524
-0.000371999
0.000482814
-0.00067283
-0.000293243
0.000534399
-0.000961288
-0.000263095
0.000495367
-0.00129679
-0.000248965
0.000307176
-0.00169302
-0.000254606
0.000162001
-0.0019782
-0.000287153
3.67092e-06
-0.00159819
-0.000321367
0.000285138
-0.00183443
-0.000161918
0.000289521
-0.00250175
-0.000118525
0.000294375
-0.00246047
-0.000109404
0.000294072
-0.00298306
-0.000110886
0.000146929
-0.0032212
-0.00014034
0.00011413
-0.00325574
-0.000176315
8.83633e-06
-0.00328168
-0.000158381
-1.55795e-06
-0.00330275
-0.000167072
0.000115426
-0.00402266
-5.43404e-05
8.8957e-05
-0.00441869
-4.00129e-05
0.000114716
-0.00388114
-3.09796e-05
0.000125965
-0.00391436
-3.07423e-05
4.74324e-05
-0.00483552
-3.48294e-05
3.80532e-05
-0.00432657
-4.2506e-05
1.07989e-05
-0.00389942
-5.15789e-05
-2.05115e-05
-0.00365642
-4.26862e-05
-2.40126e-05
-0.00381282
-4.48244e-05
0.000997842
0.00656904
0.00262088
0.00139492
0.00720185
0.00145812
0.00181519
0.00789819
0.00149257
0.00139765
0.00813689
0.000472068
0.0017389
0.00835536
0.000269686
0.00193859
0.00785724
0.000497234
0.0013337
0.00709219
-0.00018361
0.00164157
0.00667981
0.000107948
0.00202215
0.0063929
-3.85888e-06
0.0018493
0.00557925
-7.62147e-05
0.00104467
0.00603189
-0.000140049
0.00139759
0.00590294
-0.000328233
0.00157639
0.00579405
-0.000484208
0.00131451
0.0031769
-0.000580533
0.00105302
0.00224614
-0.000285125
0.000699503
0.00491485
-0.000483453
0.00103179
0.00429053
-0.000635355
0.00113901
0.00267968
-0.000592477
0.00105082
0.00228353
-0.000300883
0.000679433
0.00165609
-0.000380927
0.000419009
0.0011369
-0.00049365
0.000348133
0.00272565
-0.000412659
0.000748645
0.00196142
-0.000435687
0.000716528
0.000780859
-0.000372837
0.000662835
-0.000183312
-0.000391574
0.000410863
-3.68838e-05
-0.000343642
0.000250178
-0.000371108
-0.000457699
-0.000146243
-0.000246303
-0.000557692
0.000427001
0.00100219
-0.000370157
0.000407595
-0.000866565
-0.000296339
0.000488437
-0.00120092
-0.000247676
0.000484235
-0.00151292
-0.000237134
0.000276664
-0.00181562
-0.000256097
0.000122443
-0.00194101
-0.000300108
-7.15207e-05
-0.00148185
-0.000323134
-0.000103825
-0.00156388
-0.000366211
0.00028986
-0.0020697
-0.000138384
0.000233625
-0.00268227
-0.000126064
0.000258512
-0.00260393
-0.000118859
0.000259921
-0.00311765
-0.000108771
0.000119767
-0.00325344
-0.000150988
4.72163e-05
-0.00324258
-0.000162667
-1.43648e-05
-0.00327364
-0.000159196
-8.48158e-05
-0.00323202
-0.000164813
1.85417e-06
-0.00361509
-0.000190016
9.90832e-05
-0.00412808
-5.41418e-05
7.45524e-05
-0.00450706
-4.05249e-05
9.11775e-05
-0.00398157
-3.07638e-05
0.000106198
-0.00402052
-3.10213e-05
2.82276e-05
-0.0048598
-3.4689e-05
1.53591e-05
-0.00433293
-4.38308e-05
-1.76803e-05
-0.0038739
-5.03484e-05
-5.96757e-05
-0.00360605
-4.22731e-05
-4.02016e-05
-0.00377086
-4.44433e-05
-5.13364e-05
-0.00306789
-6.34063e-05
0.000816057
0.00615239
0.00331898
0.00150249
0.00662293
0.00226513
0.00173339
0.00722122
0.00203547
0.00170403
0.00739844
0.000857
0.00171648
0.00851277
0.000865963
0.00222216
0.00838855
0.000928609
0.00152264
0.00842095
0.000163336
0.00205642
0.0081731
0.000239478
0.00220461
0.0074993
0.00044517
0.00184992
0.00768869
0.00080428
0.00152097
0.00628955
-6.36781e-05
0.00192636
0.00583257
0.000134859
0.00203727
0.00615882
-0.000118855
0.00170608
0.0051267
5.71162e-05
0.00115705
0.00488438
-5.20589e-05
0.00115648
0.00593522
-0.000136568
0.00145595
0.00560615
-0.000267422
0.00158983
0.0052646
-0.000249601
0.00127647
0.00286158
-0.000394538
0.000768753
0.0018523
-0.000276014
0.000542529
0.00133597
-0.000492724
0.000623892
0.00473422
-0.000604509
0.00108162
0.00392884
-0.00045474
0.00108529
0.00228323
-0.000607677
0.000902977
0.00185211
-0.000401194
0.000598636
0.00156703
-0.000399604
0.000340026
0.00120794
-0.000541814
-0.000102054
0.000860691
-0.000653754
0.000360509
0.00281047
-0.00042641
0.000726945
0.00165014
-0.000420735
0.000719084
0.000487687
-0.000373162
0.000566099
-0.000229132
-0.000408882
0.000337778
-0.000153733
-0.000335838
0.000189808
-0.000325088
-0.000457027
-0.000237744
-2.07933e-06
-0.0005357
-0.000206365
0.000394802
-0.000638591
0.000404708
0.000839097
-0.000334031
0.000338227
-0.00106179
-0.000279536
0.000427344
-0.00142707
-0.000239016
0.000446015
-0.00171474
-0.000231952
0.00022601
-0.00189504
-0.000263964
2.77632e-05
-0.00186311
-0.000314545
-0.000178968
-0.00127244
-0.000344915
-0.000306028
-0.00130994
-0.000355854
-0.000119158
-0.00218947
-0.000406264
0.00026244
-0.00229676
-0.000122784
0.0002198
-0.00283773
-0.00012818
0.000213399
-0.0027281
-0.000124121
0.000219418
-0.00323503
-0.000114702
8.60372e-05
-0.00327189
-0.00014813
-2.37992e-05
-0.00318085
-0.000173551
-0.000106778
-0.00318668
-0.000160531
-0.000181401
-0.00310293
-0.000166555
-2.63602e-05
-0.00360976
-0.000183977
-2.95894e-05
-0.00330526
-0.000198762
8.41327e-05
-0.00421701
-5.33379e-05
5.77579e-05
-0.00457859
-4.03703e-05
7.60263e-05
-0.00406694
-3.11792e-05
7.97353e-05
-0.00409921
-3.1812e-05
6.84826e-06
-0.00486162
-3.60531e-05
-1.54921e-05
-0.00430839
-4.37432e-05
-2.21367e-05
-0.00384756
-4.80318e-05
-5.6145e-05
-0.00355917
-4.10872e-05
-5.25133e-05
-0.00371782
-4.27968e-05
-6.51438e-05
-0.00298396
-6.32333e-05
-8.37181e-05
-0.00153293
-6.39413e-05
0.000423865
0.00628084
0.00346575
0.00159221
0.00619315
0.00278402
0.00154973
0.00676864
0.0027802
0.0016123
0.0070028
0.00213442
0.00201543
0.00751317
0.00167422
0.00298999
0.00811206
0.00098202
0.00164031
0.00786478
0.00156002
0.0020994
0.00884521
0.000481584
0.00209371
0.00841764
0.000947773
0.00207312
0.0085601
0.000768789
0.00182102
0.00820063
-0.000140667
0.00165036
0.0085528
5.96313e-05
0.00224479
0.0071291
0.000402141
0.00182233
0.00725539
0.000762214
0.00148992
0.0074615
0.000640099
0.00161404
0.00530908
0.000225175
0.00182668
0.00542325
-2.50909e-05
0.00192917
0.0059617
-7.36373e-06
0.00166753
0.00463627
-1.94929e-05
0.00121053
0.00431034
0.000189377
0.000823597
0.0029966
5.51639e-05
0.00119073
0.0055971
-7.04628e-05
0.00136534
0.00538123
-0.000195374
0.00157608
0.004607
-0.000100606
0.00129426
0.00249709
-0.000276393
0.000752205
0.00163431
-0.000330115
0.000385353
0.00136292
-0.000348288
5.03162e-05
0.00162614
-0.000511624
0.000645481
0.00454518
-0.000691663
0.000989396
0.00347194
-0.000410057
0.00086893
0.0021444
-0.000465751
0.000612946
0.00162807
-0.000430492
0.000481635
0.00148199
-0.000460005
0.000272397
0.00120528
-0.00047954
-0.000415149
0.00110868
-0.000612395
-0.000340483
0.00176175
-0.000746353
0.000384645
0.00285782
-0.000426546
0.000674255
0.00135002
-0.00046231
0.000576728
0.000322537
-0.000404969
0.000526978
-0.00024202
-0.000441236
0.000255787
-0.000220597
-0.000371795
9.29862e-05
-0.000267725
-0.000458424
-0.000437409
0.000414104
-0.000614769
-0.000465715
0.0006238
-0.00060501
-0.000374356
0.000236386
-0.000558908
0.000337052
0.000701936
-0.000314288
0.00033716
-0.00126418
-0.000248999
0.000352017
-0.00160794
-0.00023729
0.000357816
-0.00183853
-0.000253622
0.000146924
-0.00189789
-0.000289987
-8.45111e-05
-0.00172893
-0.000337439
-0.000284699
-0.00104507
-0.000363999
-0.000283455
-0.00118383
-0.000368971
-0.000173672
-0.00199012
-0.000407895
-0.000145307
-0.00237964
-0.000376506
0.000241931
-0.00251213
-0.00011248
0.000193761
-0.00296561
-0.000130907
0.000170033
-0.00280062
-0.000149658
0.000150562
-0.00330782
-0.000122151
3.3666e-05
-0.00327654
-0.00013687
-0.000105919
-0.00306923
-0.000169328
-9.95931e-05
-0.00312322
-0.000159552
-0.000141162
-0.00302224
-0.000156203
-7.14973e-05
-0.00357092
-0.000186413
-6.08675e-05
-0.00329789
-0.000195619
-0.000127503
-0.00223426
-0.000175679
7.07345e-05
-0.004291
-5.31485e-05
4.05897e-05
-0.00463214
-4.03705e-05
5.51209e-05
-0.00413057
-3.18636e-05
5.3503e-05
-0.00415181
-3.20828e-05
-7.96301e-06
-0.00484974
-3.57267e-05
-1.58302e-05
-0.00428441
-4.41993e-05
-4.85026e-05
-0.00379404
-4.87665e-05
-7.9868e-05
-0.00348866
-3.86687e-05
-7.00347e-05
-0.00364687
-4.20008e-05
-8.11219e-05
-0.00288368
-6.19475e-05
-9.14768e-05
-0.00144142
-6.32683e-05
-0.000108368
-0.00120475
-5.87146e-05
0.000783142
0.00558687
0.00374302
0.00179277
0.00610634
0.00341172
0.00108679
0.0064275
0.00340412
0.00151357
0.00654756
0.00266709
0.00155193
0.0073663
0.00264987
0.0029984
0.0075147
0.00242156
0.00136429
0.00745714
0.00206077
0.00191312
0.00822352
0.00161035
0.00191322
0.00890217
0.00106459
0.00181413
0.00954126
0.000939782
0.00186644
0.00831837
0.000674976
0.00180427
0.00906388
0.00118744
0.00205361
0.00833376
0.000756651
0.00175285
0.00866514
0.000912212
0.00144108
0.00835356
0.000935007
0.00188068
0.00791526
-0.000276775
0.00205567
0.00774245
0.000440693
0.00212583
0.00648695
0.000505135
0.00188225
0.00677327
0.000669544
0.00157321
0.00715814
0.000702903
0.000868657
0.00641751
0.000608215
0.00144979
0.00487455
0.000453438
0.00182436
0.00507156
0.000117856
0.00186408
0.00556389
8.47154e-05
0.0016335
0.00415521
0.00013446
0.00124766
0.00351617
0.000279217
0.000565353
0.00269607
0.000309911
-4.97859e-05
0.00249248
3.21377e-05
0.00103989
0.00542748
-5.68945e-05
0.00121891
0.00523807
-0.000156812
0.00133098
0.00392195
2.76231e-05
0.000993172
0.00216724
-0.000150981
0.00048238
0.00164517
-0.000287996
0.000310356
0.00130614
-0.000311297
-0.000323935
0.0015761
-0.000389464
-0.000478463
0.00183999
-0.000452073
0.000557645
0.00445115
-0.000581219
0.000902667
0.00300624
-0.00045437
0.000642763
0.00206014
-0.000391829
0.000406485
0.00169194
-0.00040912
0.0003389
0.00143678
-0.0004684
0.000125377
0.0013043
-0.000591414
-0.000707623
0.00142739
-0.000528034
-0.000584351
0.00197302
-0.000705027
-0.000684862
0.00247298
-0.000709077
0.000395754
0.00282664
-0.000447459
0.000493401
0.00123999
-0.000472765
0.000429811
0.000197985
-0.000415551
0.00034244
-0.000157789
-0.000473824
0.000164307
-0.000243024
-0.000436192
-9.11861e-05
-0.000149619
-0.000483227
-0.000434335
0.000703539
-0.000598223
-0.000443902
0.000871201
-0.000701723
-0.000432897
0.000460237
-0.000569637
-0.000450952
0.000209532
-0.000473952
0.000340075
0.000545849
-0.00029805
0.000304377
-0.00146289
-0.000226189
0.000280003
-0.00173642
-0.000230485
0.000264656
-0.00190572
-0.00028419
0.000130792
-0.00191506
-0.000333574
-0.000202266
-0.00154357
-0.000378999
-0.000312488
-0.000789666
-0.000379946
-0.00033696
-0.00096995
-0.000382085
-0.00024126
-0.00178262
-0.000406707
-0.00020313
-0.00227255
-0.000372724
-0.000254445
-0.00222162
-0.000301141
0.000239949
-0.00273122
-0.000106408
0.000151299
-0.00304933
-0.000139467
0.000123158
-0.00287
-0.000129568
9.78258e-05
-0.00335547
-0.00014634
-1.65904e-05
-0.00324524
-0.000144817
-9.42438e-05
-0.00296685
-0.000160837
-0.000170173
-0.00300835
-0.000162524
-0.000210094
-0.00290489
-0.000146685
-0.000109419
-0.00351404
-0.000173698
-0.000108963
-0.00326352
-0.000192949
-0.000156155
-0.00219312
-0.000172076
-0.000236646
-0.00136415
-0.000148288
6.39227e-05
-0.00435841
-5.25181e-05
1.35764e-05
-0.00465923
-3.96393e-05
3.74382e-05
-0.00417718
-3.1195e-05
4.58142e-05
-0.00419733
-3.21552e-05
-2.51261e-05
-0.00482062
-3.60796e-05
-3.95844e-05
-0.00423624
-4.43164e-05
-6.27986e-05
-0.00372937
-4.60661e-05
-9.82687e-05
-0.00340056
-3.86036e-05
-8.55304e-05
-0.00355736
-4.26506e-05
-9.12649e-05
-0.0027722
-6.22188e-05
-0.0001033
-0.00133645
-6.3623e-05
-0.000118447
-0.00109106
-5.85088e-05
-0.000114045
-0.00115664
-6.01627e-05
0.00126811
0.00529503
0.00390484
0.00195924
0.00554192
0.00375015
0.000792309
0.00627905
0.00384269
0.00123898
0.00626944
0.00340042
0.00140829
0.00649315
0.00348971
0.00174775
0.00731437
0.00365748
0.00143412
0.00679806
0.00280481
0.00152729
0.00769859
0.00272063
0.00137785
0.00801768
0.00268225
0.00156694
0.00848628
0.00272025
0.00139841
0.00820904
0.0019617
0.00225348
0.00838172
0.00145336
0.00229313
0.00927945
0.000993553
0.00173931
0.00965921
0.000960179
0.00106219
0.00968328
0.00119028
0.00209503
0.00898504
-0.000122518
0.00239545
0.00868616
0.000712913
0.00210332
0.00886611
0.000677593
0.0017701
0.00871593
0.000818016
0.00135201
0.0085215
0.000965469
0.00057008
0.00828095
0.00125847
0.00166212
0.0081258
-0.00042183
0.00231668
0.00653029
0.000443057
0.00199054
0.00611578
0.000685408
0.00171918
0.00645829
0.000734427
0.00164882
0.00669541
0.000731119
0.000835363
0.00612014
0.000730256
-0.000127296
0.00399417
0.000858341
0.000943086
0.00466287
0.000483267
0.00169925
0.00458095
0.000463708
0.0019026
0.00481614
0.000293984
0.00135179
0.0035228
0.000358503
0.00093613
0.00275416
0.000442719
0.000271969
0.00249011
0.000523567
-0.000244045
0.00249868
0.000223826
-0.000507878
0.00224164
0.00017969
0.000855688
0.00520756
5.619e-05
0.00102987
0.00513618
-8.2209e-05
0.00108599
0.00326158
6.03331e-05
0.000334288
0.00228133
-1.42666e-05
0.000344352
0.00168954
-0.000200806
8.68729e-05
0.00141873
-0.000362077
-0.000462116
0.00139394
-0.000374647
-0.000683433
0.00211266
-0.000563045
-0.000953975
0.00280867
-0.000492581
0.000562425
0.00437868
-0.000434666
0.000500624
0.00285861
-0.000440814
0.000355191
0.00207251
-0.000392124
0.000149965
0.0018907
-0.000398118
0.000211914
0.00141827
-0.000438216
-5.07748e-05
0.0013203
-0.000524812
-0.000622804
0.00166817
-0.000643725
-0.000655697
0.00235196
-0.000695173
-0.000639784
0.00266428
-0.000689433
-0.000700395
0.0028429
-0.00054613
0.000363517
0.00278925
-0.00040231
0.000429637
0.00112276
-0.000455489
0.000326164
0.000115792
-0.000436733
0.000373908
-0.000197798
-0.000484796
0.000236762
-0.000351848
-0.00047097
-0.000252997
-4.12693e-06
-0.000530954
-0.000549198
0.00107638
-0.000619354
-0.000524855
0.00112042
-0.000659545
-0.000521899
0.000641951
-0.000602798
-0.00058984
0.000500905
-0.0004743
-0.000735346
0.000840984
-0.000382787
0.000292367
0.000423599
-0.000278978
0.00030591
-0.00168744
-0.000228113
0.000208596
-0.00181287
-0.000235171
0.000187864
-0.0019223
-0.00030394
-5.31888e-05
-0.00179774
-0.000364912
-0.000358469
-0.00119498
-0.000417941
-0.000358286
-0.000570138
-0.000410415
-0.000418536
-0.000749139
-0.000392314
-0.000335405
-0.00154829
-0.000390433
-0.000287868
-0.00213967
-0.000360686
-0.000340312
-0.00212357
-0.000286618
-0.000445136
-0.00156182
-0.000240805
0.000215029
-0.0029254
-0.000110581
8.62807e-05
-0.00308334
-0.000145098
9.51656e-05
-0.00292199
-0.000145204
8.74142e-05
-0.00339844
-0.000128195
-4.3487e-05
-0.0032267
-0.000146527
-0.000156454
-0.00282987
-0.000164926
-0.000203116
-0.00286332
-0.00016555
-0.000265801
-0.00275451
-0.000145373
-0.000141612
-0.00343942
-0.000165222
-0.000145326
-0.00319317
-0.000189982
-0.000200984
-0.00211846
-0.000169931
-0.000267385
-0.00124364
-0.000143644
-0.000274022
-0.00066951
-0.000112335
4.63641e-05
-0.00440761
-5.22876e-05
-1.00055e-05
-0.00466273
-3.90151e-05
1.58207e-05
-0.00420156
-3.10814e-05
2.00792e-05
-0.00421663
-3.19725e-05
-4.35693e-05
-0.00477216
-3.70459e-05
-5.22926e-05
-0.00417585
-4.41705e-05
-8.16007e-05
-0.00364537
-4.67188e-05
-0.000116895
-0.00329236
-3.73698e-05
-9.76614e-05
-0.00345659
-4.17096e-05
-0.000103801
-0.0026487
-6.235e-05
-0.000113128
-0.00122234
-6.32015e-05
-0.000122189
-0.000973261
-5.92373e-05
-0.000120594
-0.00103353
-6.10205e-05
-0.000118753
-0.00031734
-6.12834e-05
0.000792008
0.00523094
0.00456393
0.0014454
0.00554776
0.00405902
0.000724236
0.00572578
0.00416938
0.00111631
0.00566026
0.00389946
0.00142192
0.00612172
0.00389385
0.00111368
0.00649203
0.00427072
0.00138049
0.00623383
0.00341
0.0012206
0.00671417
0.00348609
0.00119671
0.00729724
0.00368798
0.00133272
0.00726994
0.00388847
0.00122694
0.00725861
0.00269936
0.00186346
0.00827067
0.00262276
0.00188104
0.00847746
0.00267295
0.0016282
0.00873756
0.00254208
0.000900784
0.00921709
0.00265186
0.00175164
0.00865069
0.00186
0.00212521
0.00903027
0.00158339
0.00207125
0.00970392
0.00106094
0.00170723
0.00970995
0.00100569
0.00108445
0.00972266
0.00118837
0.000446725
0.00928437
0.00149281
0.00219716
0.00946007
-5.6166e-05
0.00235785
0.00903917
-0.000516685
0.00175959
0.00930883
0.000501133
0.00157891
0.00899627
0.000537528
0.00130151
0.00869115
0.000995665
0.000559934
0.00824311
0.00127874
-0.000252577
0.00769414
0.00143878
0.00128544
0.00757587
0.000239204
0.00171348
0.00621929
-0.000125066
0.0020631
0.00581181
0.000586538
0.00166889
0.00618129
0.000645315
0.00166005
0.0059791
0.000726815
0.000547561
0.00570586
0.000869814
-0.000641039
0.00419926
0.000922155
-0.00101592
0.00438595
0.00100936
0.00106447
0.00434186
0.000533552
0.00112672
0.00450371
0.000463648
0.00169526
0.0040876
0.000582981
0.000822021
0.00288523
0.000443819
0.000343616
0.00260837
0.000505028
-0.000115707
0.00249475
0.00064066
-0.000330605
0.00240563
0.000485102
-0.000844651
0.0022945
0.000332191
-0.00137715
0.00275103
0.000234286
0.000783399
0.00507945
0.000159809
0.000634028
0.0049603
9.86667e-05
0.000561296
0.00301392
-4.06525e-05
-8.7981e-05
0.00252507
5.45399e-05
-0.000117204
0.00211347
-0.000109075
-0.00013324
0.00151597
-0.000215585
-0.000601854
0.00156097
-0.000550055
-0.000779952
0.00250997
-0.000647701
-0.0010266
0.00322286
-0.00059042
-0.00103532
0.00408347
-0.000556153
0.000429048
0.00430663
-0.000302821
0.000429206
0.00284251
-0.000418142
0.000180698
0.00218405
-0.000406888
0.000455395
0.0018122
-0.000395108
0.000209155
0.00150147
-0.000453706
-0.000278592
0.00146105
-0.000553369
-0.000757504
0.00197713
-0.000625466
-0.000622159
0.00254773
-0.000742199
-0.000754234
0.00287464
-0.000673204
-0.000820797
0.00290997
-0.000525542
-0.00104569
0.00310484
-0.000502667
0.000165527
0.00290546
-0.000367215
0.000282634
0.00112765
-0.000383918
0.000225801
5.50405e-05
-0.000411942
0.000234723
-0.000201727
-0.000479663
-3.77033e-05
-0.000301291
-0.000550838
-0.00051121
0.000260537
-0.000582892
-0.000516438
0.00140372
-0.000700148
-0.000540847
0.00127051
-0.000647132
-0.000575249
0.000851655
-0.000629406
-0.000666355
0.000747012
-0.000470418
-0.0007929
0.00116951
-0.000350237
-0.000818652
0.00121101
-0.000245224
0.000242194
0.000352254
-0.000267658
0.000196841
-0.00184873
-0.000228253
0.000122028
-0.0018217
-0.000246146
0.000103989
-0.00184575
-0.000328297
-0.000136573
-0.00160963
-0.000398961
-0.000365142
-0.000916987
-0.000434213
-0.000380821
-0.000357236
-0.000453137
-0.000438705
-0.000603222
-0.000383428
-0.000381086
-0.00132312
-0.000378007
-0.000337041
-0.00198189
-0.000356501
-0.000431703
-0.00198034
-0.00027319
-0.000502245
-0.00138811
-0.000225471
-0.000491133
-0.000998489
-0.000156679
0.000154539
-0.00306511
-0.000123038
3.88496e-05
-0.003091
-0.00015178
2.37121e-05
-0.00293143
-0.000143553
5.29972e-05
-0.00343269
-0.000143872
-7.91455e-05
-0.0031686
-0.000150716
-0.000173944
-0.00270239
-0.000152354
-0.000245158
-0.00270699
-0.000157696
-0.00028778
-0.00260881
-0.000140359
-0.000175433
-0.00335415
-0.000152876
-0.000188865
-0.00308814
-0.000185192
-0.000232485
-0.00201797
-0.000171108
-0.000287067
-0.0011047
-0.000143995
-0.000296266
-0.000519376
-0.000118106
-0.000302541
0.000293316
-6.39427e-05
2.63658e-05
-0.00443694
-5.21607e-05
-3.57149e-05
-0.00464066
-3.86404e-05
-7.93547e-06
-0.00420164
-3.10034e-05
-2.23629e-06
-0.00421324
-3.22328e-05
-6.41241e-05
-0.00470316
-3.68455e-05
-6.57871e-05
-0.00410141
-4.57026e-05
-0.000108234
-0.00353396
-4.73435e-05
-0.000126482
-0.00317637
-3.62194e-05
-0.00010854
-0.0033416
-4.38231e-05
-0.000118547
-0.00250964
-6.22273e-05
-0.000121854
-0.00109954
-6.32892e-05
-0.000129309
-0.000848026
-5.91278e-05
-0.000126076
-0.000904905
-6.17872e-05
-0.000117347
-0.000197499
-6.35142e-05
-0.000157178
0.000412765
-5.23664e-05
0.000526109
0.00519428
0.0047004
0.000924779
0.00528634
0.0045616
0.00065479
0.0048626
0.00475135
0.00109691
0.00546971
0.00403973
0.0011864
0.00580004
0.00422028
0.000674752
0.00628254
0.00456129
0.00103488
0.00590595
0.00398252
0.00110403
0.006075
0.00406275
0.00107501
0.00625571
0.00425187
0.000898963
0.00659683
0.00455384
0.00104413
0.00642821
0.00347709
0.00136324
0.00707919
0.0035452
0.00119974
0.0076301
0.00383453
0.00140958
0.00719428
0.00398227
0.000908239
0.00776387
0.00413663
0.0018669
0.00727666
0.00263025
0.00183352
0.00865644
0.00260528
0.00180303
0.00876592
0.00260252
0.00143302
0.0090279
0.00265681
0.000884855
0.00923895
0.00271982
0.000234494
0.00893217
0.00281385
0.00204515
0.00868304
0.00186178
0.00187726
0.00956087
0.00180998
0.00177745
0.00986162
0.00140784
0.00156082
0.00970903
0.00107994
0.000967015
0.00980069
0.00126215
0.00019811
0.00928926
0.00154531
-0.000477807
0.00910629
0.00183972
0.00194308
0.0091145
0.000712189
0.00159999
0.00980704
-0.000710536
0.00163512
0.00952931
-0.000309185
0.00153123
0.00927399
0.000361065
0.00127218
0.00887599
0.00074056
0.000410289
0.00807751
0.00129854
-0.000599736
0.00762321
0.00130837
-0.00149916
0.00743356
0.00153762
0.0015272
0.00660485
0.000128346
0.000884216
0.0065422
0.000158804
0.00191941
0.00522496
0.000237632
0.00158702
0.00556739
0.000435431
0.000705139
0.00545324
0.000809652
2.82512e-05
0.0054051
0.000883608
-0.000890489
0.00463673
0.000992235
-0.000849266
0.00434926
0.000963456
-0.00176226
0.00401194
0.00117597
0.00121926
0.00396794
0.000403635
0.000885719
0.00428107
0.000504504
0.000756336
0.0037619
0.000594307
0.000188837
0.00245777
0.000733625
-0.000431393
0.00286006
0.000506316
-0.000492608
0.00270249
0.000656647
-0.000631274
0.00256521
0.000510507
-0.00109054
0.00253599
0.000554195
-0.0017663
0.00349194
0.000330969
-0.00151168
0.0039652
0.000184177
0.000788078
0.00476942
0.000170454
0.000502844
0.00486592
0.000180548
0.000211046
0.00302585
5.63852e-05
0.000191109
0.00283694
-8.82363e-05
0.00017596
0.00233472
-0.000133521
-0.000422385
0.00173081
-0.000180118
-0.000708958
0.00176119
-0.000464349
-0.000807198
0.00287796
-0.000733011
-0.000983167
0.00357784
-0.000773752
-0.0010851
0.00426178
-0.000504426
-0.00119025
0.00404162
-0.000599956
0.000232135
0.00415681
-0.000133779
0.000106487
0.00308344
-0.000367597
8.91891e-06
0.00242992
-0.000447134
9.01206e-05
0.00198869
-0.000438778
2.41931e-05
0.00153823
-0.000493769
-0.00045806
0.0015615
-0.000607303
-0.000677399
0.00229992
-0.000715205
-0.000672218
0.00285216
-0.00079852
-0.000685899
0.00294149
-0.0006984
-0.00079637
0.00291412
-0.000547345
-0.0010664
0.00334801
-0.000495214
-0.00105859
0.00342426
-0.00050803
0.000123008
0.00303495
-0.000353477
6.56243e-06
0.00129802
-0.000347312
0.000206345
-3.6267e-05
-0.000376928
0.000231199
-0.000264639
-0.00047624
-0.000184374
-0.000142124
-0.00059103
-0.000503085
0.000530771
-0.00068313
-0.000537119
0.00173562
-0.00075849
-0.000460044
0.00133621
-0.000744516
-0.000631965
0.00107131
-0.000615912
-0.000683594
0.000967769
-0.000503611
-0.000837525
0.00141518
-0.000310269
-0.000850006
0.00142854
-0.000220011
-0.00086663
0.000107175
-0.000122852
0.000209095
0.000233387
-0.000254932
0.00014023
-0.00198333
-0.000234431
-2.10186e-05
-0.0017549
-0.00025033
5.47479e-05
-0.0017557
-0.000337951
-0.000227984
-0.00135839
-0.000430697
-0.000400694
-0.000635184
-0.000454013
-0.000400266
-0.000172947
-0.000463394
-0.000459852
-0.000500915
-0.000383373
-0.000369913
-0.00114799
-0.000364077
-0.000441784
-0.00175908
-0.000347896
-0.000468273
-0.00183995
-0.000261109
-0.000538028
-0.0011973
-0.00021303
-0.000523582
-0.000862546
-0.000134098
-0.000539952
-0.000123849
-8.97624e-05
0.000108714
-0.00317536
-0.00013665
-3.38825e-05
-0.00306007
-0.000155798
-8.84321e-06
-0.00293904
-0.000143262
-5.15266e-06
-0.00342685
-0.000146472
-0.000138394
-0.00308519
-0.000153012
-0.000196216
-0.00256618
-0.000156504
-0.000304609
-0.00251251
-0.000150461
-0.000311961
-0.00245229
-0.000128736
-0.000232567
-0.00322704
-0.000143439
-0.000220707
-0.00296071
-0.000178147
-0.000257271
-0.00190087
-0.000166878
-0.000308106
-0.000952908
-0.0001441
-0.000311899
-0.000354863
-0.000122685
-0.000320341
0.000449119
-7.09145e-05
-0.000420979
0.00124024
-6.85704e-05
8.26068e-06
-0.0044448
-5.28799e-05
-4.92977e-05
-0.00460566
-3.7859e-05
-1.69575e-05
-0.00419233
-3.09905e-05
-2.60544e-05
-0.00418662
-3.15763e-05
-7.71261e-05
-0.00462144
-3.68275e-05
-8.69287e-05
-0.0040064
-4.49267e-05
-0.000121196
-0.00341435
-4.41241e-05
-0.000150509
-0.00303543
-3.77751e-05
-0.000128665
-0.0032057
-4.34487e-05
-0.000126658
-0.00236353
-6.32715e-05
-0.000131018
-0.000966958
-6.37932e-05
-0.000136269
-0.000715001
-6.0046e-05
-0.000130886
-0.000770139
-6.30082e-05
-0.000116417
-7.77025e-05
-6.51667e-05
-0.000156467
0.000558564
-5.28455e-05