/*--------------------------------*- C++ -*----------------------------------*\
  =========                 |
  \\      /  F ield         | OpenFOAM: The Open Source CFD Toolbox
   \\    /   O peration     | Website:  https://openfoam.org
    \\  /    A nd           | Version:  7
     \\/     M anipulation  |
\*---------------------------------------------------------------------------*/
FoamFile
{
    version     2.0;
    format      ascii;
    class       volVectorField;
    location    "4.5";
    object      U;
}
// * * * * * * * * * * * * * * * * * * * * * * * * * * * * * * * * * * * * * //

dimensions      [0 1 -1 0 0 0 0];

internalField   nonuniform List<vector> 
18870
(
(1.70314 -1.08045 -1.40128)
(2.01708 0.268655 -1.75001)
(1.73153 -1.12378 -1.39328)
(1.72982 -1.37465 -1.2519)
(0.947714 1.29836 -2.35903)
(1.57177 0.145334 -1.94772)
(1.6743 -0.107498 -1.41812)
(1.73864 -1.12487 -1.36996)
(1.73108 -1.37565 -1.23819)
(1.75139 -1.10824 -0.740037)
(0.861974 1.92221 -2.55741)
(1.01331 1.38395 -2.26242)
(1.22941 0.563789 -2.24251)
(1.19767 0.0161754 -2.03192)
(1.58866 -0.123594 -1.27088)
(1.81854 -0.391797 -1.18447)
(1.71042 -1.09699 -1.32805)
(1.7053 -1.37891 -1.21543)
(1.73825 -1.11439 -0.720151)
(1.69697 -1.2375 -0.670592)
(1.09882 2.962 -0.99422)
(0.824056 1.87888 -2.30329)
(1.54164 1.92456 -2.09178)
(1.01596 1.43854 -2.17926)
(1.29065 0.54052 -2.05802)
(1.87276 0.492517 -1.79384)
(0.970378 -0.107706 -1.99409)
(1.61085 -0.168921 -1.12175)
(1.77209 -0.435876 -1.03618)
(1.81913 -0.802085 -0.753302)
(1.72451 -1.1104 -1.30429)
(1.67429 -1.41592 -1.19183)
(1.72993 -1.14577 -0.711911)
(1.67711 -1.26592 -0.675242)
(1.3503 -2.06167 -0.704641)
(0.903799 3.48232 -0.41239)
(0.969133 2.86717 -1.04162)
(1.14514 2.80172 -1.28863)
(0.649942 1.82431 -1.93011)
(1.33339 1.86985 -1.96466)
(1.41224 1.22318 -2.17333)
(1.06813 1.39305 -2.10166)
(1.47266 0.518388 -1.78605)
(1.50589 0.317164 -1.83332)
(1.85729 0.0786136 -1.01598)
(1.01691 -0.151921 -1.85381)
(1.64361 -0.232991 -1.03463)
(1.68315 -0.471895 -0.978014)
(1.8034 -0.868109 -0.705317)
(1.02641 -1.3791 -0.723805)
(1.69711 -1.10912 -1.30801)
(1.68964 -1.45732 -1.17893)
(1.73778 -1.17098 -0.720167)
(1.66756 -1.28066 -0.664389)
(1.33309 -2.05619 -0.688455)
(0.953372 -1.95223 -0.761526)
(0.634148 3.60595 0.709619)
(0.933892 3.51299 -0.133492)
(1.0574 3.29464 -0.21052)
(0.416361 2.78298 -1.03002)
(1.10033 2.7418 -1.27141)
(1.35088 2.44403 -0.633784)
(0.390024 1.70871 -1.70502)
(1.22143 1.77632 -1.73457)
(1.59141 1.14793 -1.64352)
(1.77263 0.547361 -1.20266)
(0.895429 1.41772 -2.005)
(1.62791 0.518292 -1.55294)
(1.42755 0.186073 -1.66388)
(1.58464 -0.0117553 -1.16601)
(1.10311 -0.536698 -1.31334)
(1.18615 -0.131558 -1.68863)
(1.66346 -0.299152 -0.988539)
(1.62307 -0.475719 -0.922838)
(1.79553 -0.781213 -0.791594)
(0.954194 -1.3701 -0.827841)
(0.977561 -1.44084 -1.268)
(1.72322 -1.14092 -1.28726)
(1.68434 -1.47894 -1.16669)
(1.72517 -1.18498 -0.707931)
(1.70104 -1.26847 -0.657642)
(1.33082 -2.06646 -0.686089)
(0.935764 -1.94162 -0.785117)
(0.616843 -1.85155 -1.16001)
(0.182122 3.61896 1.40575)
(0.458054 4.13876 -0.492948)
(1.13685 4.01443 0.0299391)
(0.875757 3.45193 0.0539681)
(1.06205 3.38685 -0.348531)
(1.27546 3.24877 -0.77265)
(0.399299 2.82712 -0.859027)
(0.982198 2.67694 -1.33723)
(1.06924 2.21753 -1.03284)
(1.42866 1.76599 0.0121064)
(0.358959 1.65853 -1.51046)
(0.988471 1.67814 -1.62079)
(1.43801 1.20365 -1.23388)
(1.54381 0.513922 -1.28526)
(0.691886 0.325684 -1.58736)
(0.879722 1.22202 -1.99711)
(1.65843 0.480746 -1.41027)
(1.44533 0.259307 -1.37715)
(1.45668 -0.0814437 -1.19226)
(1.07083 -0.508944 -1.28117)
(0.689294 -0.881792 -1.09617)
(1.36527 -0.089858 -1.50892)
(1.64814 -0.354399 -0.956261)
(1.57899 -0.508976 -0.862921)
(1.74114 -0.87642 -0.747955)
(1.0218 -1.3289 -0.804695)
(0.805426 -1.54989 -1.29227)
(0.688033 -1.52566 -1.2116)
(1.71737 -1.14074 -1.29157)
(1.65153 -1.45744 -1.14242)
(1.71632 -1.20455 -0.702283)
(1.70704 -1.3062 -0.666894)
(1.31989 -2.07017 -0.69288)
(0.922823 -1.94258 -0.833128)
(0.58469 -1.8575 -1.14399)
(0.154441 -1.82621 -1.25742)
(0.54821 3.54399 2.56931)
(0.638698 3.41561 2.658)
(0.594605 4.09421 0.661102)
(0.173497 4.19655 -1.14642)
(1.05639 4.01258 0.0847066)
(1.75058 3.88473 0.124086)
(0.444514 3.38916 0.254012)
(0.938041 3.41891 -0.859174)
(1.09879 3.44513 -1.00556)
(1.29095 1.92675 -2.40229)
(-0.0162838 2.77534 -1.08862)
(0.647707 2.62029 -1.43472)
(1.03936 2.10312 -1.29327)
(1.60687 1.73962 -0.261588)
(1.39217 1.09196 -0.711897)
(0.403456 1.69565 -1.44881)
(0.699068 1.58343 -1.61081)
(1.31303 0.98643 -1.13794)
(1.3182 0.400999 -1.30904)
(0.707286 0.247476 -1.34439)
(0.540267 -0.111746 -1.34198)
(0.703923 1.20446 -1.89902)
(1.42687 0.387734 -1.38384)
(1.47804 0.0787679 -1.23528)
(1.42545 -0.134708 -1.12304)
(1.0458 -0.543879 -1.18549)
(0.612177 -0.869724 -1.08959)
(0.359361 -0.757122 -1.45818)
(1.52603 -0.0363413 -1.29373)
(1.62166 -0.477188 -0.918434)
(1.52459 -0.632474 -0.816662)
(1.7082 -0.825816 -0.822641)
(0.979804 -1.34638 -0.815612)
(0.935928 -1.31494 -1.42561)
(0.358783 -1.64539 -1.22716)
(0.338185 -1.61425 -1.1922)
(1.73752 -1.18128 -1.26318)
(1.67641 -1.51845 -1.11451)
(1.68921 -1.23673 -0.690023)
(1.65402 -1.3252 -0.67337)
(1.28009 -2.07683 -0.714281)
(0.959533 -1.96317 -0.815421)
(0.57913 -1.88687 -1.12906)
(0.122516 -1.84702 -1.21522)
(-0.0974805 -1.93878 -0.743139)
(0.54969 3.2703 2.89841)
(0.550151 3.56415 2.46228)
(1.50895 3.66656 2.63309)
(0.382816 4.3162 0.904883)
(0.795061 4.20348 0.543193)
(1.63633 4.19745 0.388995)
(0.0929042 3.90989 -0.985967)
(0.858493 3.88099 0.432875)
(1.65048 3.68424 -0.0734507)
(2.16722 3.28932 -0.0594747)
(0.0700807 3.32685 0.297709)
(0.824831 3.46762 -0.838455)
(1.16199 3.44618 -0.961212)
(1.19523 2.00133 -1.98365)
(1.22859 1.37236 -0.279112)
(-0.444359 2.60162 -1.42893)
(0.591543 2.61563 -1.25067)
(0.894108 1.77129 -2.01141)
(1.42467 1.714 -0.577866)
(1.06711 1.08094 -0.81085)
(0.692373 0.668826 -1.0137)
(0.421624 1.78116 -1.37321)
(0.641948 1.45209 -1.48295)
(1.24586 1.0237 -1.14757)
(1.24189 0.358167 -1.28801)
(0.723495 0.211768 -1.13688)
(0.471509 -0.0673321 -1.16702)
(-0.225175 -0.16515 -1.66024)
(0.638855 0.995043 -1.94342)
(1.11772 0.200593 -1.44982)
(1.39088 0.119361 -1.17743)
(1.39035 -0.162675 -1.0556)
(0.993571 -0.586913 -1.10528)
(0.557512 -0.851879 -1.12783)
(0.210484 -0.755789 -1.49153)
(-0.00989872 -0.842559 -1.42713)
(1.64817 0.00613106 -1.0237)
(1.50669 -0.550968 -1.01845)
(1.47984 -0.593408 -0.8834)
(1.6683 -0.889255 -0.788949)
(0.933599 -1.35483 -0.844491)
(0.878359 -1.46234 -1.24995)
(0.562346 -1.55469 -1.22326)
(0.29913 -1.64762 -1.19501)
(0.350746 -1.74886 -1.32264)
(1.74791 -1.19662 -1.25981)
(1.72197 -1.52642 -1.13904)
(1.60522 -1.3015 -0.655418)
(1.6149 -1.37425 -0.67561)
(1.25718 -2.09581 -0.722754)
(0.979538 -1.94076 -0.850587)
(0.538792 -1.88066 -1.08342)
(0.132152 -1.83214 -1.20862)
(-0.0810947 -1.95111 -0.720957)
(-0.36108 -1.61398 -1.3044)
(0.148759 3.0704 3.09392)
(0.458079 3.48009 2.64993)
(0.927318 3.37454 3.17014)
(0.485708 3.90726 1.80115)
(0.804291 4.61116 1.1187)
(1.19828 4.21717 1.30309)
(0.23614 4.46104 0.452141)
(0.753965 4.42949 0.515752)
(1.51955 4.21072 0.196636)
(1.24399 4.09001 1.0242)
(0.203321 3.65435 -0.344705)
(0.838666 3.54706 0.369581)
(1.4655 3.52482 -0.0918569)
(1.45789 2.97495 0.046544)
(0.965973 2.61616 -0.194724)
(0.128906 3.37755 0.23813)
(0.678834 3.39117 -0.811525)
(1.27493 3.34979 -0.521603)
(1.03457 1.84844 -1.02017)
(0.645414 1.2052 -0.314347)
(0.560583 0.71552 -0.821814)
(-1.0636 2.15066 -2.09139)
(0.741702 2.61664 -0.96029)
(0.781744 1.66706 -1.92077)
(1.14004 1.43568 -0.87106)
(0.752018 1.05748 -0.853685)
(0.470979 0.674928 -1.1198)
(-0.38669 0.315795 -1.39949)
(0.324401 1.88302 -1.26977)
(0.580585 1.41932 -1.28749)
(1.09875 0.935231 -1.19012)
(1.25078 0.40912 -1.25042)
(0.682003 0.196209 -1.12082)
(0.383882 -0.0803585 -1.10058)
(-0.424504 -0.192505 -1.71026)
(-0.491514 0.0359145 -1.94674)
(0.485687 0.996621 -1.81504)
(0.947995 0.0629265 -1.36026)
(1.29231 -0.00672008 -1.09831)
(1.32664 -0.253031 -0.969032)
(0.977958 -0.594056 -1.06457)
(0.260955 -0.89832 -1.22356)
(-0.106667 -0.752558 -1.5539)
(-0.591064 -0.824467 -1.39122)
(0.0714261 -1.07751 -1.89472)
(1.60699 -0.049901 -0.869249)
(1.48991 -0.608895 -0.945091)
(1.44081 -0.657911 -0.894608)
(1.63034 -0.883548 -0.851012)
(0.914023 -1.35704 -0.837334)
(0.65064 -1.47346 -1.36282)
(0.284147 -1.59944 -1.20498)
(-0.30406 -1.63955 -1.17384)
(0.279217 -1.79409 -1.27204)
(0.0886329 -1.62686 -1.54363)
(1.76815 -1.19626 -1.22619)
(1.71363 -1.50983 -1.12317)
(1.57773 -1.29674 -0.645371)
(1.57483 -1.40306 -0.698708)
(1.25594 -2.10098 -0.729478)
(0.969688 -1.95627 -0.830854)
(0.531434 -1.82536 -1.10055)
(0.133951 -1.87022 -1.20002)
(-0.0859981 -1.98239 -0.701828)
(-0.369691 -1.63229 -1.3007)
(-0.636559 -0.900011 -1.59093)
(0.168356 2.97589 3.21334)
(0.710302 3.21143 2.9494)
(0.937245 2.93631 3.68798)
(0.546733 3.54763 2.40535)
(0.716361 4.07959 2.50348)
(1.52245 4.26516 1.37635)
(0.293017 3.88483 2.15079)
(1.14393 4.68678 0.318261)
(1.18084 4.39484 1.1771)
(1.26346 4.41267 0.980667)
(0.13653 4.49983 -0.710824)
(0.976947 4.61722 0.003976)
(1.3156 4.09241 0.151006)
(1.20645 4.00303 1.0705)
(0.90574 3.84958 1.32827)
(0.178726 3.3013 0.3543)
(0.923578 3.30653 0.125738)
(1.01463 3.56221 0.0697858)
(1.25409 2.77121 -0.343242)
(0.622651 2.47561 0.159094)
(0.443016 1.71661 -0.00513445)
(0.298549 3.49376 0.213124)
(0.456564 3.23555 -0.739417)
(1.13905 3.08334 -0.311789)
(0.822603 1.65209 -0.506273)
(0.645282 1.00476 -0.526983)
(0.432104 0.778421 -0.743543)
(-0.132754 0.847119 -1.22852)
(-1.18173 1.96938 -2.38915)
(0.540546 2.46967 -0.914263)
(0.862288 1.6071 -1.29331)
(0.661009 1.23224 -0.982815)
(0.442141 0.908652 -1.04651)
(0.229486 0.682288 -1.17877)
(-0.575 0.367349 -1.49705)
(-0.425176 0.743865 -1.83498)
(0.195157 1.91309 -1.27511)
(0.522792 1.15949 -1.46708)
(0.984105 0.706285 -1.27069)
(1.17693 0.424777 -1.21434)
(0.508326 0.0760638 -1.26047)
(0.247814 -0.0678878 -1.06931)
(-0.685017 -0.0826374 -1.76449)
(-1.00367 0.121132 -1.70738)
(-0.61716 -0.0427793 -2.07849)
(0.405775 0.813755 -1.75671)
(1.03907 0.053696 -1.12362)
(1.18704 -0.12511 -1.02477)
(1.1892 -0.353784 -0.98104)
(0.87215 -0.64329 -1.10201)
(0.10161 -0.980372 -1.31961)
(-0.507899 -0.71178 -1.54477)
(-0.630931 -0.802714 -1.49792)
(0.0830754 -1.1222 -1.84336)
(0.0611952 -1.16743 -1.79923)
(1.60097 -0.145983 -0.669647)
(1.46328 -0.680297 -0.882639)
(1.38418 -0.668412 -0.993163)
(1.52108 -1.02468 -0.888815)
(0.843903 -1.40552 -0.860306)
(0.304466 -1.50581 -1.31453)
(0.437087 -1.49333 -1.24819)
(0.04472 -1.57074 -1.17497)
(0.303479 -1.73116 -1.31949)
(0.0572029 -1.67082 -1.49193)
(-0.443304 -1.18271 -1.44782)
(1.80829 -1.18728 -1.21811)
(1.74445 -1.51475 -1.11089)
(1.58955 -1.34376 -0.639825)
(1.52125 -1.44568 -0.710327)
(1.30531 -2.06487 -0.730911)
(0.967943 -1.92385 -0.876806)
(0.530643 -1.92594 -1.08527)
(0.0957996 -1.94118 -1.07383)
(-0.0736182 -1.98496 -0.644086)
(-0.40536 -1.67166 -1.243)
(-0.639069 -0.917869 -1.57639)
(-0.80729 -0.76615 -1.30743)
(-0.440645 2.78355 3.24268)
(0.301047 3.16852 3.12126)
(0.537418 2.98208 3.28547)
(0.319442 3.38288 2.8497)
(0.809457 4.00031 2.61758)
(2.32103 3.86847 1.93487)
(0.137602 3.73787 2.3086)
(0.484416 4.03431 2.48522)
(0.948596 4.41219 1.34819)
(1.19894 4.89803 0.882809)
(0.301388 4.45495 1.20704)
(-0.493237 4.5846 1.75948)
(0.922858 4.55755 0.856806)
(0.764487 4.43934 1.17156)
(0.990027 4.29301 0.994682)
(0.0629532 4.42837 -0.895319)
(0.170044 4.65664 0.262128)
(1.07136 3.90634 0.182966)
(1.02997 3.82468 0.964349)
(1.0045 3.87762 1.13718)
(0.828638 3.30911 0.479663)
(-0.0652726 2.7903 0.790243)
(0.587288 3.20978 0.418929)
(0.8795 3.4482 -0.21205)
(1.32415 2.73919 -0.106347)
(0.50734 2.16551 0.280215)
(0.0552671 1.37541 0.421749)
(-0.0211112 1.17673 0.222529)
(0.296629 3.42813 0.182684)
(0.15137 3.08233 -0.462631)
(0.299095 2.56614 -0.0939994)
(0.373282 1.41155 -0.0939839)
(0.542554 1.04584 -0.563096)
(0.371624 0.786568 -0.732559)
(-1.07876 0.581496 -0.714235)
(-0.96784 0.735021 -0.796535)
(-1.20605 1.92154 -1.91778)
(0.478412 2.17767 -1.04195)
(0.404463 1.48623 -1.04553)
(0.547043 1.07932 -0.912225)
(0.239669 0.873569 -1.10287)
(-0.0693316 0.633354 -1.28205)
(-1.19599 0.340268 -1.10376)
(-1.0699 0.724277 -1.54188)
(-1.0528 0.962473 -1.81811)
(-0.124525 1.81784 -1.41279)
(0.388727 1.15647 -1.45018)
(0.666825 0.656994 -1.33697)
(0.902305 0.405436 -1.32481)
(0.249983 0.0523422 -1.48186)
(-0.107347 -0.181731 -1.14934)
(-0.897013 0.0262679 -1.77071)
(-0.780723 0.059236 -2.13275)
(-0.856851 0.0250619 -2.09938)
(-0.770255 -0.030622 -1.57945)
(0.314507 0.794614 -1.6506)
(1.0725 0.0150438 -0.94838)
(1.05994 -0.230647 -0.989484)
(0.985708 -0.469998 -1.0725)
(0.681844 -0.694223 -1.27215)
(-0.142438 -0.959624 -1.49127)
(-0.486501 -0.771706 -1.63565)
(-0.546106 -0.765091 -1.67717)
(-0.247922 -0.970993 -1.851)
(-0.00334898 -1.14736 -1.81065)
(-0.213164 -1.1244 -1.52706)
(1.59287 -0.205338 -0.514076)
(1.39802 -0.738093 -0.933895)
(1.31686 -0.743824 -1.07304)
(1.32374 -1.00867 -1.146)
(0.764967 -1.43339 -0.953613)
(0.609401 -1.45567 -1.11898)
(0.197825 -1.60474 -1.22647)
(-0.103291 -1.68656 -1.11452)
(0.22951 -1.80823 -1.17053)
(0.0110263 -1.68943 -1.46902)
(-0.450712 -1.20305 -1.43177)
(-0.818766 -0.825883 -1.23732)
(1.90073 -1.07533 -1.21999)
(1.74927 -1.5635 -1.09528)
(1.60775 -1.36706 -0.651766)
(1.4932 -1.49134 -0.731341)
(1.29127 -2.07882 -0.730022)
(0.965189 -1.93012 -0.851793)
(0.569417 -1.94838 -1.0564)
(0.0716443 -1.85179 -1.11554)
(-0.0845686 -1.9692 -0.651513)
(-0.366205 -1.63841 -1.25617)
(-0.661149 -0.907332 -1.56469)
(-0.843177 -0.777924 -1.28214)
(-0.793599 -0.74701 -1.36538)
(0.55072 2.80594 3.01396)
(0.971125 2.78052 3.19069)
(0.0479619 3.00558 3.14041)
(0.192404 3.23557 3.09114)
(0.0514789 3.31049 3.21797)
(1.14605 3.4441 3.04072)
(-0.153396 3.25397 3.19757)
(0.441082 3.92688 2.59557)
(0.313527 4.14447 2.80622)
(0.461631 4.11149 2.95368)
(-0.259774 4.03301 2.45373)
(0.752429 4.48921 2.29395)
(0.516112 4.68767 1.05805)
(0.547254 4.90331 1.01397)
(0.214085 4.84038 1.18862)
(-0.099625 4.76706 0.552867)
(0.635917 4.81674 0.510793)
(0.480777 4.52399 1.14943)
(0.568345 4.4958 1.06546)
(0.591044 4.24992 1.14182)
(-0.0621652 4.01426 1.43338)
(-0.330836 4.31629 -0.34)
(0.332484 4.06013 0.0642938)
(0.77639 3.60432 1.07426)
(0.583433 3.56615 1.20683)
(0.923563 3.74534 0.93669)
(0.382291 3.26868 0.85527)
(-0.617 1.93099 1.26795)
(-0.657432 2.41829 0.853949)
(0.305755 2.93622 0.739013)
(0.938001 3.33552 -0.058727)
(0.873006 2.46395 0.45289)
(-0.129686 1.50584 0.596534)
(-0.19368 1.2555 0.592703)
(-0.206554 1.25548 0.705486)
(-0.634984 1.03795 -0.131251)
(-0.213065 3.17995 0.054461)
(-0.17793 2.92328 -0.386915)
(0.0676961 2.02674 -0.210575)
(-0.137925 1.12587 0.214591)
(0.229331 0.962173 -0.480069)
(0.0975379 0.720837 -0.531944)
(-1.46781 0.324883 -0.57933)
(-1.18854 0.712643 -0.800454)
(-1.45462 1.02312 -0.963102)
(-1.05435 1.99494 -1.23753)
(-0.1696 1.73312 -0.972329)
(0.122959 1.2975 -1.0739)
(-0.116068 1.08316 -0.802669)
(0.0351632 0.851789 -1.06588)
(-0.465178 0.516968 -1.26)
(-1.05553 0.412314 -1.51755)
(-1.27055 0.730083 -1.52122)
(-1.17725 1.07497 -1.89807)
(-1.19737 1.21754 -1.74005)
(-0.106784 1.78223 -1.43315)
(0.24839 0.964696 -1.43148)
(0.573019 0.448967 -1.41926)
(0.696702 0.364232 -1.31346)
(0.473111 0.0401406 -1.57182)
(-0.471733 -0.224973 -1.31631)
(-1.02949 -0.0111179 -1.83595)
(-1.21996 0.159279 -2.01001)
(-0.86525 0.0372475 -2.27328)
(-0.964868 -0.0577227 -1.61511)
(-1.13707 0.0542078 -1.40144)
(0.443874 0.805863 -1.50463)
(1.02982 -0.103818 -0.875826)
(1.00075 -0.406224 -0.96303)
(0.865974 -0.554904 -1.06644)
(0.544423 -0.784778 -1.41486)
(-0.250148 -0.919109 -1.66226)
(-0.727246 -0.660007 -1.83573)
(-0.812346 -0.809901 -1.75924)
(-0.296696 -0.972738 -1.75139)
(-0.187572 -1.15585 -1.76447)
(-0.293461 -1.21277 -1.48326)
(-0.788908 -0.944518 -1.23058)
(1.56643 -0.290249 -0.489749)
(1.302 -0.885328 -1.00042)
(1.29419 -0.77098 -1.13163)
(1.56192 -0.919173 -0.788996)
(0.777644 -1.42906 -1.04377)
(0.383142 -1.43986 -1.12553)
(0.126761 -1.624 -1.28838)
(-0.203811 -1.65228 -1.18475)
(0.212253 -1.77572 -1.08033)
(-0.00865663 -1.71107 -1.41003)
(-0.499295 -1.2629 -1.393)
(-0.861565 -0.844147 -1.19142)
(-0.998857 -0.520281 -0.973771)
(1.9621 -1.05259 -1.22987)
(1.73163 -1.60812 -1.05332)
(1.52779 -1.42251 -0.627436)
(1.55603 -1.45492 -0.703079)
(1.26842 -2.11729 -0.729375)
(0.959494 -1.96838 -0.86366)
(0.499697 -1.84043 -1.10868)
(0.0550656 -1.91286 -1.01944)
(-0.0915072 -2.02479 -0.604246)
(-0.357196 -1.6258 -1.26614)
(-0.676455 -0.92019 -1.5535)
(-0.819933 -0.772593 -1.30366)
(-0.803389 -0.750172 -1.36294)
(-0.845935 -0.327476 -1.42103)
(0.19769 2.54928 3.23113)
(0.422542 2.72997 3.0393)
(0.0465362 2.83421 3.17552)
(-0.206503 2.86515 3.28731)
(0.52788 3.17073 3.13053)
(0.211861 3.09145 3.42358)
(0.184015 3.1852 3.14752)
(-0.0596072 3.30545 3.18367)
(0.114594 3.79626 3.22813)
(0.672739 3.67413 3.59698)
(-0.414354 3.61544 3.02131)
(0.265668 4.05598 2.54698)
(0.758691 4.20143 2.82383)
(0.37188 4.40177 2.63004)
(0.205771 4.45768 2.6312)
(-0.401049 4.50041 2.11963)
(0.110598 4.73005 1.98612)
(0.39096 5.07316 1.01945)
(0.210835 4.89547 1.15918)
(-0.0455489 4.79183 1.12429)
(-0.232938 4.57895 1.55008)
(-0.74819 4.87091 0.944953)
(0.672894 5.01136 -0.873546)
(-0.0604313 4.77124 1.25319)
(0.195677 4.62217 0.57402)
(0.321173 4.40513 0.97726)
(-0.15241 4.07944 1.33099)
(-0.441242 3.75043 1.69336)
(-1.22466 4.06526 0.707008)
(0.318578 3.47553 -0.871741)
(0.517841 3.49516 1.26449)
(0.122821 3.42526 0.801276)
(0.71579 3.59309 0.87936)
(-0.249139 2.91268 1.19499)
(-1.09797 1.78626 1.3173)
(-1.08176 1.88102 1.30063)
(-0.828533 2.20426 1.04782)
(-0.018391 2.64542 0.768436)
(0.638117 2.83767 0.72316)
(-0.265087 1.64679 0.965471)
(-0.221785 1.27966 0.81939)
(-0.544656 1.07803 0.803764)
(-0.204341 1.13821 1.27421)
(-1.08715 0.899225 0.0185249)
(-1.48803 0.835472 0.783734)
(-0.557074 2.85812 0.392349)
(-0.87478 2.52818 0.182547)
(-0.541055 1.48176 0.0306107)
(-0.513915 1.0447 0.474889)
(-0.131926 0.992794 -0.265457)
(-0.1692 0.715013 -0.277011)
(-1.40697 0.260858 -0.980157)
(-1.37812 0.762729 -0.854471)
(-1.37793 1.20041 -1.39433)
(-1.53832 1.63334 -1.07489)
(-1.30583 1.75952 -0.915546)
(-0.239652 1.61054 -0.928604)
(-0.148437 1.19546 -1.05585)
(0.198165 1.11864 -0.824962)
(0.119497 0.819782 -1.13506)
(-0.77585 0.312706 -1.13935)
(-1.45769 0.366653 -1.19727)
(-1.3037 0.851693 -1.69251)
(-1.57983 0.900173 -1.855)
(-1.62787 1.10012 -1.5348)
(-2.01669 1.12445 -0.966577)
(-0.576198 1.54142 -1.27583)
(0.346006 1.00507 -1.12545)
(0.361979 0.44085 -1.30741)
(0.528351 0.294958 -1.32678)
(-0.215105 -0.326944 -1.64484)
(-1.13035 -0.627047 -1.41426)
(-1.18524 0.15818 -1.97175)
(-1.30828 0.108474 -2.04938)
(-1.32307 -0.0956278 -2.18615)
(-1.21093 -0.00403394 -1.65056)
(-1.53286 0.318608 -1.35132)
(-1.69114 0.291749 -1.0156)
(0.392952 0.776926 -1.40682)
(0.943439 -0.287814 -0.834889)
(0.870998 -0.348509 -1.04387)
(0.680881 -0.683903 -1.13584)
(0.432063 -0.744622 -1.55776)
(-0.464675 -0.919423 -1.76786)
(-0.767929 -0.732719 -2.03875)
(-1.08351 -0.835697 -1.7878)
(-0.428568 -0.925103 -1.72954)
(-0.293623 -1.21324 -1.72484)
(-0.504517 -1.15092 -1.43404)
(-0.92098 -0.93164 -1.13288)
(-0.970084 -0.669829 -0.896628)
(1.55875 -0.478195 -0.584377)
(1.22879 -0.93389 -1.07563)
(1.28296 -0.775278 -1.14137)
(1.32021 -1.09547 -0.961259)
(0.800154 -1.45257 -1.10103)
(0.433293 -1.39956 -1.05952)
(0.0748594 -1.60905 -1.33703)
(-0.307953 -1.64009 -1.16771)
(0.264387 -1.72753 -0.968062)
(-0.0242779 -1.70076 -1.35946)
(-0.539416 -1.25823 -1.40989)
(-0.868488 -0.844649 -1.18667)
(-1.0422 -0.528727 -0.943915)
(-1.13983 -0.0767833 -0.747646)
(1.93637 -1.12537 -1.23358)
(1.7148 -1.66073 -1.01937)
(1.51506 -1.44534 -0.622421)
(1.51731 -1.50297 -0.703775)
(1.25702 -2.11919 -0.732237)
(0.983453 -1.92945 -0.900791)
(0.495487 -1.90979 -1.07473)
(0.058946 -1.959 -0.969007)
(-0.0680022 -2.03821 -0.638795)
(-0.375836 -1.64597 -1.26549)
(-0.699427 -0.932439 -1.53972)
(-0.846985 -0.782982 -1.28553)
(-0.816671 -0.746661 -1.35838)
(-0.831878 -0.315471 -1.45021)
(-1.05237 0.00139006 -1.35698)
(-0.119017 2.47852 3.13293)
(0.108009 2.62245 3.13034)
(0.0423857 2.38309 3.40995)
(0.0807637 2.76869 3.07165)
(0.0107792 2.81467 3.21156)
(0.226119 3.05226 3.33719)
(-0.278827 2.84983 3.3185)
(-0.0475611 3.08262 3.27283)
(0.0829449 3.18934 3.4885)
(0.184373 3.19446 3.7724)
(-0.442656 3.1297 3.26233)
(0.01963 3.43009 3.15756)
(0.0149035 3.70381 3.24286)
(0.332439 3.66287 3.55287)
(-0.0859952 3.7948 3.76281)
(-0.400987 3.79687 2.80991)
(-0.210111 4.42678 2.41699)
(-0.248891 4.4473 2.6378)
(0.0870854 4.42944 2.65048)
(-0.11342 4.65138 2.48067)
(-0.349243 4.33872 2.76725)
(-0.359431 4.7394 1.68345)
(-0.609568 4.73946 2.0793)
(-0.392193 5.05226 1.60465)
(-0.367661 4.87362 1.29198)
(-0.403808 4.74582 1.07087)
(-0.63309 4.41893 1.62137)
(-1.17258 4.21302 1.8207)
(-1.1352 4.71408 1.63916)
(-0.953932 4.95422 -1.09605)
(-0.303782 5.08339 -0.510288)
(0.0118939 4.77295 0.027536)
(0.0077897 4.52004 0.733357)
(-0.463319 3.93821 1.59924)
(-1.2611 3.45022 1.8648)
(-1.74583 3.07867 2.04223)
(-0.802176 3.74255 -0.136569)
(-1.0385 3.30734 -0.00305238)
(0.257804 3.33028 0.510738)
(0.05472 3.20282 0.315488)
(-0.584956 2.73014 1.06216)
(-0.929984 2.53923 1.27961)
(-1.44702 1.74755 1.34063)
(-1.60217 1.83559 1.35204)
(-2.15003 1.55428 1.70411)
(-0.720095 2.04139 0.929511)
(-0.507904 2.32396 0.723337)
(-0.0533791 2.32928 0.669836)
(-0.924431 0.927715 1.21444)
(-1.22687 0.919397 0.607235)
(-1.02147 0.966853 0.777737)
(-0.725587 1.04077 1.45521)
(-1.29793 0.81492 0.322179)
(-2.03335 1.15704 1.15131)
(-1.77476 1.49725 0.0510903)
(-0.897828 2.64433 0.284902)
(-1.11542 2.25015 0.25789)
(-0.89692 1.20286 0.169972)
(-0.0966402 1.49494 -0.16629)
(-0.358119 1.00061 -0.275504)
(-0.554923 0.605176 -0.141487)
(-1.52415 0.198129 -0.630338)
(-1.46265 0.917894 -1.13109)
(-1.57621 1.29386 -1.67569)
(-1.75522 1.70446 -1.04638)
(-1.71001 1.66532 -1.14031)
(-1.65747 1.37944 -0.574834)
(-0.923217 1.19435 -0.583574)
(-0.502507 1.1127 -0.994276)
(-0.342525 1.00122 -0.923652)
(-0.241966 0.78371 -1.1051)
(-1.1132 0.280911 -1.12557)
(-1.38286 0.515098 -1.43826)
(-1.407 0.823539 -1.93318)
(-1.39657 1.15386 -1.87853)
(-1.74632 0.972713 -1.48627)
(-1.98261 1.20887 -1.05423)
(-1.87937 1.32279 -1.46441)
(-0.852386 1.33692 -1.05475)
(-0.128237 0.922284 -1.05594)
(0.17312 0.127399 -1.15204)
(0.453597 0.174399 -1.29711)
(-0.506811 -0.498842 -1.62067)
(-1.0388 -0.409004 -1.79395)
(-1.26454 0.125706 -2.20678)
(-1.11959 0.131113 -2.39323)
(-1.46229 -0.091465 -2.0784)
(-1.31767 -0.0116742 -1.85693)
(-1.74751 0.0949127 -1.26413)
(-1.83756 0.259596 -0.840729)
(-1.72634 -0.268618 -0.595395)
(0.197902 0.626604 -1.36445)
(0.890682 -0.40591 -0.803137)
(0.589246 -0.725044 -1.08322)
(0.802984 -0.498827 -1.15009)
(0.234877 -0.72702 -1.67072)
(-0.585924 -0.903872 -1.90671)
(-0.980581 -0.777326 -2.0776)
(-1.01528 -0.926233 -1.91003)
(-0.621966 -1.04169 -1.64602)
(-0.523576 -1.20631 -1.63788)
(-0.584806 -1.19613 -1.40891)
(-1.00141 -0.938586 -1.04532)
(-1.04958 -0.67106 -0.845628)
(-1.21853 -0.277547 -0.541286)
(1.55553 -0.433783 -0.78379)
(1.11793 -1.02536 -1.13659)
(1.18162 -0.873129 -1.15331)
(1.32507 -1.12681 -0.922093)
(0.708725 -1.48798 -1.13898)
(0.364399 -1.41739 -1.05998)
(-0.138763 -1.73524 -1.21249)
(-0.169915 -1.79172 -1.00953)
(0.284665 -1.71869 -0.888188)
(-0.0552663 -1.68374 -1.28089)
(-0.553232 -1.28464 -1.3911)
(-0.881403 -0.842052 -1.1746)
(-1.0679 -0.522111 -0.945167)
(-1.1144 -0.0473019 -0.861394)
(-1.72818 0.274522 -0.213904)
(1.97255 -1.09689 -1.18541)
(1.74426 -1.67811 -0.998432)
(1.63385 -1.38337 -0.646172)
(1.52813 -1.49595 -0.675678)
(1.2789 -2.09386 -0.722169)
(0.970167 -1.89709 -0.883453)
(0.476731 -1.8876 -1.08998)
(0.0585933 -1.89225 -1.01988)
(-0.0931941 -2.05765 -0.622832)
(-0.353837 -1.61798 -1.32252)
(-0.715987 -0.94318 -1.52608)
(-0.847066 -0.788966 -1.28838)
(-0.818398 -0.740082 -1.36165)
(-0.819641 -0.308655 -1.47947)
(-1.02983 0.00354561 -1.41846)
(-1.29699 -0.217259 -1.04272)
(-0.0527806 2.32598 2.77223)
(-0.192297 2.46443 3.12315)
(-0.0769245 2.45431 3.22818)
(-0.218997 2.57494 3.12052)
(0.271867 2.36671 3.44436)
(-0.241782 2.46531 3.48834)
(-0.339641 2.74014 3.21054)
(-0.150096 2.85883 3.27561)
(-0.0764964 3.06165 3.35509)
(-0.0289305 2.89867 3.74172)
(-0.506867 2.86085 3.29297)
(-0.313413 2.99656 3.36663)
(-0.277758 3.05082 3.58671)
(0.146788 3.32891 3.70584)
(0.192268 3.43025 3.92287)
(-0.158176 3.44849 3.12787)
(-0.24274 3.71609 3.13566)
(0.236038 3.9249 3.27163)
(-0.127521 3.52245 3.75267)
(-0.295819 3.70425 3.87095)
(-0.533309 3.89893 3.86912)
(-0.584026 3.79699 2.72429)
(-0.621062 4.52622 2.43764)
(-0.550549 4.43157 2.7885)
(-0.23697 4.57233 2.65974)
(-0.47517 4.48088 2.7421)
(-0.879313 4.21548 3.06915)
(-0.892112 4.24251 3.00197)
(-0.826542 4.45324 2.01837)
(-1.15071 4.73592 2.3886)
(-1.04355 4.82809 2.0038)
(-0.875271 4.78529 1.46609)
(-0.752749 4.81477 1.10274)
(-1.08011 4.34802 1.82893)
(-1.41212 4.14765 1.82765)
(-1.84776 3.8729 2.4447)
(-1.30455 4.60102 0.988354)
(-1.87824 4.60693 0.0647826)
(-0.717957 4.87313 -0.744867)
(-0.580933 4.83123 -0.297149)
(-0.80512 4.2869 0.840211)
(-1.18202 3.82124 1.2293)
(-1.7669 3.34173 1.6277)
(-1.23806 3.78008 1.59171)
(-2.21814 3.12187 1.93682)
(-0.525708 3.40524 -0.892997)
(-1.17452 3.05367 0.514714)
(-0.985076 2.32067 0.433325)
(-0.65116 2.75788 0.118573)
(-1.40165 2.2634 0.995909)
(-1.42458 2.23573 1.32803)
(-1.8638 1.8641 1.23857)
(-2.0662 1.73357 1.57269)
(-2.66054 1.4496 1.54214)
(-2.26279 1.82157 1.8514)
(-0.615407 2.0933 0.711743)
(-0.746603 2.16084 0.426189)
(-0.559015 1.78034 0.848844)
(-0.892976 0.893802 1.3616)
(-0.479268 1.38188 1.30707)
(-1.53218 0.742154 0.974577)
(-0.958693 1.00435 1.52491)
(-1.49702 0.866444 0.222622)
(-1.96418 1.45028 1.61378)
(-1.89709 1.64883 0.00445237)
(-2.19992 2.09575 0.532939)
(-1.00414 2.17912 0.837757)
(-1.49875 1.87356 0.41102)
(-1.20084 0.918421 0.413997)
(-0.909004 1.17497 0.075011)
(-0.84191 1.01345 -0.205489)
(-0.877918 0.504194 -0.216007)
(-1.56384 0.359826 -0.609674)
(-1.6886 0.922529 -1.1346)
(-1.86018 1.28288 -1.75606)
(-1.74597 1.70323 -1.5045)
(-2.04133 1.57768 -0.92182)
(-1.94681 1.56168 -1.24622)
(-1.60424 1.26883 -0.53261)
(-1.64631 0.672246 -0.0935628)
(-0.378232 1.24379 -1.13541)
(-0.265031 1.05277 -1.1832)
(-0.470844 0.577703 -1.2093)
(-1.26973 0.13402 -1.2528)
(-1.48671 0.507638 -1.69301)
(-1.44414 0.898203 -2.14313)
(-1.48869 0.916258 -1.88132)
(-1.75822 0.897919 -1.59796)
(-1.99381 1.14278 -1.18228)
(-2.00158 1.34524 -1.33533)
(-1.96773 1.18503 -1.10836)
(-0.901031 1.3209 -1.03472)
(-0.116405 0.704048 -1.18459)
(0.0167924 0.0107987 -0.974645)
(0.0410369 -0.00447139 -1.21413)
(-0.739154 -0.708982 -1.59866)
(-1.11966 -0.428288 -1.9796)
(-1.2671 0.282873 -2.48892)
(-1.28529 0.0895719 -2.49812)
(-1.15542 0.0985201 -2.35573)
(-1.60653 -0.109449 -1.78968)
(-1.85611 0.168307 -1.26815)
(-1.92599 0.237694 -0.683179)
(-1.78252 -0.273075 -0.608962)
(-1.65676 -0.379648 -0.165396)
(0.114746 0.307933 -1.30221)
(0.79138 -0.693725 -0.716355)
(0.595991 -0.67274 -1.16819)
(0.527661 -0.642029 -1.1462)
(0.0183999 -0.853804 -1.72359)
(-0.60487 -0.866904 -2.07671)
(-1.06859 -0.845751 -2.10498)
(-1.12409 -0.975117 -1.93791)
(-1.00774 -1.0999 -1.52947)
(-0.628264 -1.20853 -1.56319)
(-0.648833 -1.19239 -1.39978)
(-1.08857 -0.942715 -0.957238)
(-1.08948 -0.717967 -0.811327)
(-1.40273 -0.317714 -0.387473)
(-1.73582 0.0532461 -0.27493)
(1.53602 -0.562852 -0.723655)
(1.2049 -1.03248 -1.12518)
(1.13669 -0.933286 -1.14441)
(1.14169 -1.27221 -0.896287)
(0.750831 -1.42843 -1.19935)
(0.250844 -1.47848 -1.04476)
(-0.163465 -1.73436 -1.26673)
(-0.570134 -1.72829 -1.02476)
(0.18794 -1.75024 -0.856078)
(-0.0498724 -1.6519 -1.21351)
(-0.590595 -1.29716 -1.36868)
(-0.937036 -0.864237 -1.11946)
(-1.08874 -0.517057 -0.944144)
(-1.09861 -0.0504953 -0.923538)
(-1.80504 0.27905 -0.200258)
(-1.39278 0.043994 -0.810804)
(1.94927 -1.16856 -1.15766)
(1.792 -1.60108 -1.07537)
(1.57232 -1.49649 -0.627286)
(1.53805 -1.4765 -0.6725)
(1.28906 -2.09547 -0.719388)
(0.979833 -1.90244 -0.885699)
(0.479013 -1.8925 -1.07601)
(0.0404812 -1.93328 -0.857718)
(-0.0663319 -2.06249 -0.645951)
(-0.358893 -1.63812 -1.3134)
(-0.743815 -0.951178 -1.50714)
(-0.833936 -0.777049 -1.31287)
(-0.793821 -0.721701 -1.39256)
(-0.805854 -0.291522 -1.51562)
(-1.02668 0.0239698 -1.45511)
(-1.31696 -0.232928 -0.994511)
(-0.940503 -0.622136 -1.51779)
(-0.181323 2.18436 2.84734)
(0.0587688 2.40481 2.79854)
(-0.0298331 2.43983 2.86022)
(-0.440763 2.4791 3.0746)
(-0.344984 2.44685 3.23386)
(-0.111996 2.58062 3.24091)
(-0.441253 2.5278 3.14208)
(-0.325379 2.47846 3.36378)
(0.0123118 2.53289 3.55448)
(0.129497 2.46911 3.75362)
(-0.392278 2.71502 3.22579)
(-0.309896 2.77094 3.38487)
(-0.404755 2.86002 3.51193)
(-0.274586 2.87505 3.73147)
(-0.179053 3.04733 3.8316)
(-0.319233 2.97768 3.32331)
(-0.515086 2.98855 3.47705)
(-0.541193 3.07178 3.67845)
(-0.358512 3.20886 3.8994)
(-0.427563 3.34023 4.03272)
(-0.37483 3.48282 4.05892)
(-0.519217 3.5108 3.09992)
(-0.551077 3.8306 3.04739)
(-0.799312 3.68339 3.49602)
(-0.42278 3.57986 3.98258)
(-0.697725 3.67395 4.02683)
(-0.866086 3.79884 3.98939)
(-0.883946 3.74397 3.93184)
(-0.847323 3.8697 2.85904)
(-0.871671 4.34807 2.57691)
(-0.506509 4.59822 2.70312)
(-0.899852 4.32259 3.06064)
(-1.02304 4.2778 3.09601)
(-1.31237 3.98995 3.26964)
(-1.29414 3.93109 3.23717)
(-1.57532 3.64087 3.59051)
(-1.32042 4.11324 2.28996)
(-1.15658 4.59926 2.54697)
(-1.75467 4.55897 2.17064)
(-1.47626 4.76342 1.67589)
(-1.60003 4.57916 1.7059)
(-1.91483 3.99984 2.18357)
(-1.91389 3.73227 2.22185)
(-1.96012 3.57918 2.56356)
(-2.08055 3.37529 2.95578)
(-1.58929 4.42626 0.450631)
(-1.72648 4.86633 0.401047)
(-1.82681 4.47514 -0.126543)
(-1.98317 3.99436 0.34915)
(-2.16638 3.56636 0.549324)
(-2.20976 3.06397 1.46118)
(-2.10715 3.09212 1.65009)
(-2.60801 2.6788 2.06422)
(-2.46939 2.96632 2.20302)
(-2.25105 2.5426 2.41558)
(-1.19599 2.90123 -0.0392438)