/*--------------------------------*- C++ -*----------------------------------*\
  =========                 |
  \\      /  F ield         | OpenFOAM: The Open Source CFD Toolbox
   \\    /   O peration     | Website:  https://openfoam.org
    \\  /    A nd           | Version:  7
     \\/     M anipulation  |
\*---------------------------------------------------------------------------*/
FoamFile
{
    version     2.0;
    format      ascii;
    class       volVectorField;
    location    "4.5";
    object      U_0;
}
// * * * * * * * * * * * * * * * * * * * * * * * * * * * * * * * * * * * * * //

dimensions      [0 1 -1 0 0 0 0];

internalField   nonuniform List<vector> 
18870
(
(1.69027 -1.08272 -1.39463)
(2.0156 0.270533 -1.76188)
(1.71119 -1.11889 -1.40376)
(1.71545 -1.37755 -1.25335)
(0.952714 1.30331 -2.36081)
(1.57133 0.147718 -1.95947)
(1.67326 -0.107816 -1.42975)
(1.731 -1.12337 -1.37612)
(1.72218 -1.37255 -1.23676)
(1.75319 -1.11304 -0.750705)
(0.859403 1.90654 -2.56546)
(1.0104 1.38975 -2.26698)
(1.22204 0.56226 -2.25134)
(1.19893 0.0194225 -2.04401)
(1.58294 -0.124285 -1.2834)
(1.82026 -0.394323 -1.19914)
(1.70228 -1.10075 -1.3411)
(1.71454 -1.37519 -1.22149)
(1.7275 -1.10954 -0.724181)
(1.69753 -1.24442 -0.670469)
(1.1045 2.96263 -0.98185)
(0.833929 1.87383 -2.27596)
(1.53347 1.92582 -2.08553)
(1.01842 1.44266 -2.18153)
(1.29063 0.54137 -2.06233)
(1.85629 0.487454 -1.81305)
(0.967814 -0.106057 -2.00779)
(1.60339 -0.170803 -1.13121)
(1.77208 -0.437071 -1.05108)
(1.81996 -0.796797 -0.755952)
(1.71803 -1.10819 -1.31004)
(1.67283 -1.42009 -1.19415)
(1.70911 -1.14307 -0.705536)
(1.68035 -1.26702 -0.675681)
(1.33552 -2.06363 -0.699294)
(0.920367 3.48532 -0.386259)
(0.957588 2.85762 -1.03871)
(1.14848 2.79427 -1.29119)
(0.638537 1.81438 -1.91405)
(1.32576 1.86604 -1.96131)
(1.42449 1.23958 -2.1389)
(1.07171 1.3991 -2.10449)
(1.47309 0.519848 -1.7917)
(1.49693 0.308728 -1.8451)
(1.85644 0.0734262 -1.01855)
(1.00481 -0.153247 -1.86891)
(1.63475 -0.23262 -1.04144)
(1.68173 -0.474969 -0.987563)
(1.79972 -0.873579 -0.70583)
(1.02609 -1.38304 -0.70646)
(1.70837 -1.11804 -1.31453)
(1.68286 -1.4539 -1.17771)
(1.73158 -1.18161 -0.71652)
(1.65132 -1.28328 -0.662589)
(1.33864 -2.06649 -0.694755)
(0.955559 -1.96633 -0.743121)
(0.656079 3.63351 0.669452)
(0.947219 3.50744 -0.123775)
(1.07674 3.29356 -0.200806)
(0.404706 2.78176 -1.01314)
(1.11022 2.73646 -1.27114)
(1.34297 2.42438 -0.664264)
(0.383199 1.70102 -1.69601)
(1.21985 1.77372 -1.7313)
(1.59621 1.16041 -1.6292)
(1.77183 0.547283 -1.19788)
(0.892436 1.42201 -2.00908)
(1.62752 0.51864 -1.56165)
(1.42529 0.18455 -1.66764)
(1.58073 -0.0139845 -1.171)
(1.09618 -0.536054 -1.3157)
(1.1725 -0.133962 -1.70295)
(1.65723 -0.302163 -0.991135)
(1.62052 -0.481541 -0.928491)
(1.79292 -0.785681 -0.786431)
(0.946634 -1.37512 -0.820979)
(0.989225 -1.44201 -1.25826)
(1.71515 -1.13927 -1.29311)
(1.67887 -1.48161 -1.16495)
(1.73009 -1.19237 -0.710693)
(1.67751 -1.274 -0.653349)
(1.32232 -2.06322 -0.681607)
(0.930507 -1.9503 -0.763479)
(0.608975 -1.85548 -1.16909)
(0.204209 3.64044 1.37377)
(0.449049 4.14923 -0.58147)
(1.15534 4.01446 0.0165198)
(0.871163 3.43994 0.0611684)
(1.07442 3.38743 -0.375338)
(1.28256 3.25152 -0.811328)
(0.384651 2.82661 -0.866772)
(0.981449 2.67227 -1.34399)
(1.07347 2.21558 -1.04731)
(1.43911 1.76656 0.00328674)
(0.365553 1.65724 -1.507)
(0.978627 1.67674 -1.62628)
(1.43663 1.21007 -1.23128)
(1.54762 0.515103 -1.2811)
(0.693948 0.32368 -1.58467)
(0.871552 1.22683 -2.00203)
(1.65544 0.482533 -1.42147)
(1.44331 0.254994 -1.38372)
(1.45129 -0.0877914 -1.1963)
(1.06495 -0.509461 -1.28452)
(0.681628 -0.887066 -1.09426)
(1.35081 -0.0922121 -1.525)
(1.64619 -0.356065 -0.959326)
(1.57824 -0.513097 -0.867152)
(1.73876 -0.879892 -0.743456)
(1.00886 -1.33757 -0.801298)
(0.794276 -1.563 -1.28053)
(0.684629 -1.53005 -1.20924)
(1.70031 -1.13425 -1.29179)
(1.64854 -1.46086 -1.14598)
(1.70613 -1.19802 -0.700956)
(1.70028 -1.30749 -0.658494)
(1.31458 -2.07371 -0.680883)
(0.911052 -1.95307 -0.816961)
(0.579506 -1.86277 -1.1505)
(0.145545 -1.82223 -1.25858)
(0.571667 3.54845 2.56158)
(0.667661 3.45286 2.60812)
(0.626994 4.10402 0.623451)
(0.177408 4.18995 -1.14895)
(1.06228 4.00127 0.0966724)
(1.76709 3.86996 0.111984)
(0.425518 3.3762 0.254859)
(0.940946 3.41993 -0.875633)
(1.11273 3.44755 -1.01006)
(1.30294 1.91131 -2.45454)
(-0.0162029 2.77466 -1.09728)
(0.648588 2.61909 -1.43206)
(1.04605 2.08986 -1.33112)
(1.61302 1.73776 -0.284955)
(1.39241 1.09023 -0.709571)
(0.411444 1.6971 -1.45071)
(0.695209 1.58056 -1.61577)
(1.31069 0.992397 -1.14413)
(1.31987 0.404105 -1.30687)
(0.707172 0.244872 -1.34331)
(0.536385 -0.115805 -1.34007)
(0.701002 1.20365 -1.9065)
(1.42754 0.389626 -1.3928)
(1.47753 0.0772206 -1.23913)
(1.41898 -0.137417 -1.12795)
(1.04098 -0.544802 -1.18946)
(0.604483 -0.877248 -1.08369)
(0.35895 -0.764849 -1.45216)
(1.51252 -0.0383992 -1.31401)
(1.62308 -0.472578 -0.920363)
(1.5238 -0.63718 -0.816852)
(1.70534 -0.830016 -0.817889)
(0.975642 -1.35026 -0.807985)
(0.912538 -1.32917 -1.4247)
(0.381313 -1.64341 -1.22165)
(0.31739 -1.61995 -1.18396)
(1.72941 -1.18593 -1.26214)
(1.6619 -1.52985 -1.10851)
(1.68924 -1.24 -0.688643)
(1.66497 -1.32057 -0.666837)
(1.29321 -2.07792 -0.698575)
(0.93598 -1.98065 -0.798575)
(0.571362 -1.89364 -1.13521)
(0.125535 -1.83674 -1.23324)
(-0.123365 -1.93304 -0.752342)
(0.560198 3.27965 2.88494)
(0.564541 3.5787 2.43955)
(1.55108 3.66405 2.65324)
(0.405114 4.32789 0.86367)
(0.817259 4.21256 0.508668)
(1.65572 4.18959 0.383173)
(0.106491 3.88871 -0.964773)
(0.8678 3.8582 0.442699)
(1.65698 3.66095 -0.0975657)
(2.12932 3.29315 -0.00419566)
(0.0794727 3.32248 0.290528)
(0.835412 3.46157 -0.844603)
(1.19053 3.44136 -0.937205)
(1.19503 2.0014 -1.95576)
(1.20928 1.36246 -0.288784)
(-0.472334 2.58538 -1.46821)
(0.608228 2.61804 -1.23345)
(0.898707 1.76296 -2.03915)
(1.41425 1.70883 -0.602223)
(1.05989 1.08106 -0.810397)
(0.693923 0.666928 -1.01092)
(0.42178 1.78933 -1.3713)
(0.642808 1.45355 -1.48076)
(1.24247 1.02584 -1.15619)
(1.24253 0.357894 -1.28665)
(0.722143 0.209576 -1.13557)
(0.468394 -0.0716916 -1.16292)
(-0.227902 -0.169759 -1.65367)
(0.637716 1.00158 -1.94577)
(1.12053 0.199664 -1.45459)
(1.39121 0.11587 -1.17876)
(1.38719 -0.16909 -1.0581)
(0.991061 -0.589311 -1.10626)
(0.547673 -0.859609 -1.12236)
(0.20675 -0.764033 -1.48432)
(-0.0104568 -0.848921 -1.41925)
(1.64272 0.00855058 -1.04257)
(1.51181 -0.551586 -1.01745)
(1.47723 -0.60169 -0.880298)
(1.66609 -0.894466 -0.78109)
(0.93126 -1.35889 -0.834651)
(0.872814 -1.46196 -1.25243)
(0.555269 -1.56012 -1.2217)
(0.292769 -1.64873 -1.18892)
(0.342851 -1.74912 -1.31498)
(1.75081 -1.2003 -1.26033)
(1.70333 -1.53998 -1.13415)
(1.63322 -1.29178 -0.665423)
(1.62594 -1.3685 -0.666936)
(1.24801 -2.10158 -0.711537)
(0.965975 -1.95121 -0.836538)
(0.529757 -1.88924 -1.08422)
(0.11909 -1.83323 -1.2129)
(-0.0935026 -1.94898 -0.722574)
(-0.370399 -1.61419 -1.30069)
(0.149618 3.06645 3.10407)
(0.474309 3.49107 2.63542)
(0.929497 3.40728 3.15594)
(0.501632 3.92871 1.7701)
(0.793909 4.65047 1.02732)
(1.20743 4.21776 1.27524)
(0.248084 4.47493 0.38298)
(0.783989 4.43466 0.480902)
(1.52375 4.2008 0.175792)
(1.25529 4.08506 1.02572)
(0.226369 3.63146 -0.312911)
(0.860061 3.52322 0.35789)
(1.45858 3.51335 -0.0998444)
(1.43843 2.96074 0.0342963)
(0.944018 2.61608 -0.181913)
(0.159277 3.3827 0.229189)
(0.680663 3.37914 -0.817479)
(1.28456 3.34221 -0.48538)
(1.03331 1.83868 -0.991657)
(0.634999 1.19465 -0.322903)
(0.555004 0.714843 -0.819622)
(-1.08514 2.12915 -2.13475)
(0.750445 2.6144 -0.956693)
(0.791168 1.66592 -1.90817)
(1.13101 1.42411 -0.88454)
(0.744895 1.05423 -0.855534)
(0.467099 0.673109 -1.11984)
(-0.395219 0.314354 -1.39317)
(0.320638 1.88136 -1.27797)
(0.582167 1.41908 -1.2908)
(1.09352 0.93643 -1.19512)
(1.24975 0.411201 -1.25063)
(0.680753 0.193674 -1.1199)
(0.381372 -0.0855758 -1.09463)
(-0.426296 -0.196499 -1.70425)
(-0.498581 0.0305039 -1.93973)
(0.482994 0.998809 -1.82265)
(0.944184 0.0603437 -1.36999)
(1.2921 -0.00772884 -1.10057)
(1.32693 -0.256919 -0.967897)
(0.975054 -0.598096 -1.06218)
(0.272163 -0.903972 -1.21104)
(-0.102097 -0.759786 -1.54635)
(-0.585937 -0.832487 -1.38065)
(0.068179 -1.087 -1.88352)
(1.6042 -0.0432016 -0.885773)
(1.49092 -0.609764 -0.952502)
(1.44156 -0.662269 -0.887317)
(1.62854 -0.888488 -0.842241)
(0.909167 -1.36038 -0.828518)
(0.696426 -1.47102 -1.34591)
(0.275018 -1.61273 -1.19567)
(-0.271218 -1.64458 -1.16779)
(0.273239 -1.7926 -1.26669)
(0.080327 -1.62105 -1.54682)
(1.75607 -1.20581 -1.24043)
(1.68885 -1.51888 -1.11795)
(1.56817 -1.29777 -0.64333)
(1.60771 -1.38453 -0.680492)
(1.22975 -2.12194 -0.722331)
(0.974165 -1.95494 -0.822682)
(0.527092 -1.82683 -1.10068)
(0.127043 -1.86643 -1.20923)
(-0.103779 -1.97602 -0.710635)
(-0.378962 -1.62561 -1.29691)
(-0.643989 -0.894947 -1.58905)
(0.175248 2.97927 3.21149)
(0.728692 3.22558 2.93597)
(0.990675 2.95248 3.66878)
(0.553316 3.56095 2.38848)
(0.731837 4.09092 2.49506)
(1.5184 4.30033 1.3089)
(0.304578 3.90188 2.12864)
(1.13792 4.6932 0.310854)
(1.17946 4.40177 1.14769)
(1.25031 4.4098 0.972816)
(0.153967 4.49415 -0.756033)
(0.985982 4.61598 -0.00859682)
(1.31452 4.07605 0.143621)
(1.21374 3.99099 1.06657)
(0.930674 3.84795 1.32563)
(0.187663 3.26969 0.372264)
(0.927593 3.29592 0.130517)
(1.01594 3.55134 0.0489964)
(1.26937 2.77232 -0.334108)
(0.622185 2.47096 0.167193)
(0.434618 1.71051 -0.00512478)
(0.326006 3.49448 0.208953)
(0.450782 3.22286 -0.738396)
(1.12444 3.06407 -0.299962)
(0.816871 1.64596 -0.493815)
(0.641744 1.00328 -0.526137)
(0.425105 0.778144 -0.740806)
(-0.13529 0.845966 -1.24035)
(-1.16639 1.97876 -2.36958)
(0.54136 2.45542 -0.926305)
(0.861063 1.60677 -1.27412)
(0.651192 1.22426 -0.98416)
(0.438205 0.903995 -1.04807)
(0.226624 0.679717 -1.17845)
(-0.585107 0.367876 -1.4899)
(-0.420922 0.74572 -1.83699)
(0.174063 1.90797 -1.2895)
(0.525696 1.16244 -1.47246)
(0.979222 0.706617 -1.27352)
(1.17747 0.426306 -1.21259)
(0.509887 0.0734879 -1.25838)
(0.24596 -0.0734041 -1.06184)
(-0.686793 -0.0859992 -1.75765)
(-1.01344 0.116305 -1.69909)
(-0.622629 -0.0462085 -2.07901)
(0.402663 0.814271 -1.768)
(1.03428 0.0498679 -1.13255)
(1.18972 -0.126861 -1.02495)
(1.19072 -0.359959 -0.975312)
(0.8693 -0.648198 -1.09514)
(0.107492 -0.984925 -1.30574)
(-0.507505 -0.719768 -1.53536)
(-0.643138 -0.81034 -1.48212)
(0.0765754 -1.12668 -1.83703)
(0.0525935 -1.16996 -1.79538)
(1.59685 -0.143157 -0.684866)
(1.46936 -0.682421 -0.874694)
(1.38848 -0.674054 -0.975719)
(1.53524 -1.01521 -0.867893)
(0.847564 -1.40426 -0.844676)
(0.290209 -1.51499 -1.32945)
(0.430697 -1.49988 -1.24182)
(0.0296015 -1.57313 -1.17082)
(0.29089 -1.735 -1.31394)
(0.0450693 -1.66679 -1.4896)
(-0.452519 -1.17984 -1.4452)
(1.7847 -1.21407 -1.2167)
(1.7323 -1.5178 -1.11162)
(1.57615 -1.35667 -0.627821)
(1.52712 -1.44096 -0.693905)
(1.28321 -2.08514 -0.725528)
(0.963226 -1.93555 -0.865856)
(0.526366 -1.92706 -1.08347)
(0.106432 -1.92549 -1.10666)
(-0.0902673 -1.98348 -0.645841)
(-0.411592 -1.65938 -1.25123)
(-0.644171 -0.911217 -1.57803)
(-0.811727 -0.761608 -1.30804)
(-0.416134 2.78463 3.23989)
(0.308119 3.17681 3.11503)
(0.53683 2.99322 3.28257)
(0.315754 3.3891 2.85071)
(0.804945 4.03621 2.57571)
(2.25945 3.88934 1.97373)
(0.130227 3.75549 2.30081)
(0.485826 4.05465 2.48083)
(0.929085 4.4326 1.32452)
(1.19161 4.91178 0.850072)
(0.307675 4.47545 1.1511)
(-0.544503 4.58615 1.81582)
(0.922157 4.5503 0.861722)
(0.771085 4.43342 1.15884)
(0.943524 4.28315 1.00236)
(0.0654961 4.419 -0.898183)
(0.142962 4.63429 0.265967)
(1.06732 3.8821 0.210166)
(1.0235 3.80967 0.964717)
(1.02653 3.8782 1.10801)
(0.814856 3.31003 0.506878)
(-0.0879275 2.75947 0.794222)
(0.582005 3.19501 0.435437)
(0.889467 3.43648 -0.221048)
(1.32629 2.73618 -0.0936529)
(0.500729 2.15317 0.286747)
(0.0400519 1.36444 0.438285)
(-0.0321935 1.17938 0.234498)
(0.296758 3.41396 0.168137)
(0.142612 3.06989 -0.459597)
(0.276141 2.53726 -0.094509)
(0.357961 1.40332 -0.0806677)
(0.537682 1.04432 -0.558665)
(0.364971 0.786009 -0.728983)
(-1.10583 0.573744 -0.699924)
(-0.979233 0.736841 -0.794747)
(-1.18971 1.92986 -1.87532)
(0.471504 2.16386 -1.05363)
(0.395356 1.48365 -1.04232)
(0.53725 1.07622 -0.906488)
(0.2346 0.870229 -1.10167)
(-0.0785106 0.629751 -1.27924)
(-1.19458 0.343528 -1.1068)
(-1.09474 0.723946 -1.52764)
(-1.05687 0.966431 -1.8192)
(-0.123427 1.81859 -1.41898)
(0.384166 1.16027 -1.45205)
(0.661738 0.656819 -1.34106)
(0.901839 0.406806 -1.322)
(0.252443 0.0499683 -1.47817)
(-0.108591 -0.186333 -1.13984)
(-0.899455 0.023793 -1.76184)
(-0.788755 0.0561964 -2.12735)
(-0.863032 0.0231164 -2.0984)
(-0.776123 -0.0328695 -1.57395)
(0.312387 0.798325 -1.66156)
(1.0712 0.0127793 -0.953085)
(1.06189 -0.233299 -0.98696)
(0.988947 -0.476049 -1.0667)
(0.689652 -0.695651 -1.25435)
(-0.140253 -0.967479 -1.47507)
(-0.487306 -0.781141 -1.62166)
(-0.554751 -0.770506 -1.66433)
(-0.252186 -0.975555 -1.84573)
(-0.00047762 -1.15087 -1.80663)
(-0.215466 -1.12724 -1.52337)
(1.59237 -0.204734 -0.51745)
(1.40256 -0.740601 -0.922396)
(1.31809 -0.748629 -1.05815)
(1.31098 -1.02618 -1.14634)
(0.762164 -1.4392 -0.929838)
(0.60276 -1.46981 -1.1209)
(0.213839 -1.60066 -1.21917)
(-0.0991496 -1.6874 -1.1067)
(0.224306 -1.80607 -1.18205)
(0.00560172 -1.68269 -1.46976)
(-0.457126 -1.19733 -1.43163)
(-0.826293 -0.820304 -1.23618)
(1.8468 -1.1355 -1.2138)
(1.75295 -1.55898 -1.10562)
(1.61232 -1.36253 -0.650579)
(1.46762 -1.51614 -0.730186)
(1.284 -2.08612 -0.725179)
(0.964639 -1.93828 -0.840202)
(0.563509 -1.95579 -1.04032)
(0.0702314 -1.84393 -1.13412)
(-0.0977669 -1.96171 -0.656768)
(-0.385634 -1.64849 -1.24563)
(-0.668188 -0.9007 -1.56465)
(-0.848259 -0.773249 -1.28173)
(-0.796055 -0.746771 -1.36708)
(0.54952 2.80183 3.01767)
(0.982243 2.78446 3.18779)
(0.0480966 3.00902 3.14366)
(0.196249 3.2377 3.09146)
(0.0468058 3.31998 3.21732)
(1.11725 3.4606 3.05961)
(-0.159192 3.26202 3.2028)
(0.436798 3.93512 2.59103)
(0.319631 4.14886 2.81568)
(0.435384 4.11131 2.98081)
(-0.259983 4.06176 2.44672)
(0.794648 4.50662 2.26633)
(0.515581 4.70754 1.04183)
(0.52777 4.90145 1.01998)
(0.197384 4.84025 1.18124)
(-0.121438 4.78807 0.545479)
(0.747702 4.82569 0.379755)
(0.47377 4.53086 1.14488)
(0.564602 4.50016 1.03341)
(0.600026 4.25057 1.12732)
(-0.0483761 4.01386 1.4309)
(-0.394144 4.30294 -0.254339)
(0.359468 4.01445 -0.0036574)
(0.769371 3.58791 1.10414)
(0.568699 3.55592 1.19023)
(0.929558 3.73865 0.920705)
(0.366986 3.26099 0.870001)
(-0.623684 1.93262 1.2709)
(-0.679088 2.3993 0.857594)
(0.298805 2.91793 0.74096)
(0.947786 3.32177 -0.0360948)
(0.846419 2.44604 0.472856)
(-0.145966 1.48697 0.609472)
(-0.198794 1.254 0.599456)
(-0.216448 1.25675 0.723258)
(-0.651697 1.03946 -0.122452)
(-0.228759 3.16045 0.0551018)
(-0.192055 2.90905 -0.374847)
(0.0592669 2.00659 -0.208077)
(-0.149215 1.12457 0.219535)
(0.212587 0.964099 -0.470144)
(0.0866257 0.721049 -0.522533)
(-1.47624 0.32403 -0.57697)
(-1.2001 0.717172 -0.799602)
(-1.45805 1.03128 -0.981845)
(-1.05047 1.9955 -1.20492)
(-0.182837 1.71781 -0.976102)
(0.117123 1.2966 -1.07416)
(-0.125286 1.08327 -0.797569)
(0.0322603 0.849297 -1.06345)
(-0.461987 0.517527 -1.2547)
(-1.06304 0.414823 -1.51256)
(-1.27703 0.733508 -1.51982)
(-1.18826 1.07349 -1.89683)
(-1.20892 1.213 -1.737)
(-0.116469 1.77937 -1.43522)
(0.248493 0.964919 -1.43288)
(0.567827 0.451779 -1.42074)
(0.693508 0.36617 -1.31052)
(0.475382 0.0376505 -1.56739)
(-0.474357 -0.229152 -1.30822)
(-1.03118 -0.0139772 -1.83009)
(-1.22618 0.160643 -2.00047)
(-0.868057 0.0337787 -2.27554)
(-0.966616 -0.0617788 -1.61246)
(-1.13504 0.0479024 -1.40008)
(0.442863 0.811087 -1.51592)
(1.03127 -0.105337 -0.876416)
(1.0012 -0.411353 -0.95828)
(0.86929 -0.558231 -1.05926)
(0.54672 -0.790116 -1.39859)
(-0.248853 -0.923173 -1.64665)
(-0.725223 -0.670189 -1.82024)
(-0.815648 -0.817838 -1.74612)
(-0.301394 -0.977866 -1.74458)
(-0.184749 -1.16082 -1.76139)
(-0.29431 -1.21526 -1.47971)
(-0.79355 -0.943016 -1.22866)
(1.56046 -0.284811 -0.482383)
(1.31168 -0.885616 -0.984248)
(1.29033 -0.781383 -1.12387)
(1.56107 -0.920244 -0.786166)
(0.766289 -1.43691 -1.02258)
(0.379302 -1.45149 -1.12184)
(0.124283 -1.63436 -1.27328)
(-0.205895 -1.66147 -1.17611)
(0.191764 -1.78615 -1.08602)
(-0.0209215 -1.70758 -1.41107)
(-0.50471 -1.26038 -1.38964)
(-0.869593 -0.838839 -1.18942)
(-1.00309 -0.514555 -0.974647)
(1.94502 -1.04725 -1.2172)
(1.74513 -1.58981 -1.07246)
(1.54022 -1.41934 -0.625239)
(1.54573 -1.4696 -0.700086)
(1.26733 -2.11124 -0.722498)
(0.955421 -1.96391 -0.852148)
(0.498735 -1.83652 -1.10748)
(0.061008 -1.90553 -1.06298)
(-0.106159 -2.01616 -0.598863)
(-0.366027 -1.62414 -1.26159)
(-0.679435 -0.912862 -1.55411)
(-0.826212 -0.768259 -1.30199)
(-0.805953 -0.747366 -1.36427)
(-0.846514 -0.327401 -1.42356)
(0.199393 2.54381 3.23515)
(0.417945 2.72887 3.04243)
(0.0465365 2.83495 3.17942)
(-0.207391 2.86844 3.28632)
(0.536837 3.17737 3.13059)
(0.206167 3.09299 3.43378)
(0.181139 3.18526 3.15235)
(-0.0597132 3.31228 3.18499)
(0.110998 3.79927 3.23465)
(0.661287 3.67403 3.60636)
(-0.407247 3.63198 3.01376)
(0.254159 4.0757 2.53596)
(0.742257 4.21682 2.82546)
(0.374634 4.416 2.6141)
(0.186334 4.46435 2.62975)
(-0.391418 4.53368 2.08831)
(0.0676038 4.74471 1.96724)
(0.3625 5.08132 1.04829)
(0.191495 4.89174 1.17232)
(-0.0691827 4.78407 1.1163)
(-0.247122 4.56594 1.55053)
(-0.774221 4.87385 0.996496)
(0.572917 5.01013 -0.929386)
(-0.0792341 4.79801 1.17013)
(0.193301 4.63398 0.521378)
(0.30853 4.41492 0.951485)
(-0.147897 4.08115 1.32925)
(-0.488557 3.73544 1.7015)
(-1.1986 4.06589 0.67288)
(0.256757 3.46129 -0.885271)
(0.514386 3.48652 1.23223)
(0.11908 3.41923 0.757041)
(0.691787 3.57725 0.875546)
(-0.286736 2.88884 1.21173)
(-1.11067 1.79042 1.32014)
(-1.08975 1.88431 1.30994)
(-0.823024 2.19332 1.04201)
(-0.0342913 2.62939 0.761152)
(0.621066 2.80991 0.738703)
(-0.314029 1.60635 0.976402)
(-0.235106 1.28178 0.819696)
(-0.560893 1.07783 0.81422)
(-0.216502 1.1377 1.28906)
(-1.10158 0.90271 0.029587)
(-1.49977 0.843566 0.815335)
(-0.564925 2.84286 0.394305)
(-0.895257 2.50661 0.200739)
(-0.561538 1.46498 0.0383256)
(-0.523463 1.05135 0.473892)
(-0.136126 0.99714 -0.262198)
(-0.176622 0.718695 -0.272698)
(-1.40915 0.266059 -0.977533)
(-1.38789 0.769503 -0.85873)
(-1.37723 1.21152 -1.40741)
(-1.54401 1.64085 -1.07649)
(-1.31221 1.74979 -0.905144)
(-0.245238 1.61255 -0.926134)
(-0.158648 1.19485 -1.05396)
(0.208992 1.12348 -0.822055)
(0.118357 0.819941 -1.1307)
(-0.778928 0.31243 -1.13396)
(-1.45976 0.37115 -1.19623)
(-1.30908 0.851937 -1.69764)
(-1.57742 0.908513 -1.85187)
(-1.63024 1.09787 -1.53209)
(-2.01817 1.12829 -0.954167)
(-0.595434 1.53255 -1.27071)
(0.341823 1.01058 -1.12374)
(0.3595 0.440922 -1.30734)
(0.529035 0.292565 -1.32208)
(-0.208473 -0.326833 -1.636)
(-1.12576 -0.632434 -1.40753)
(-1.19121 0.156488 -1.96522)
(-1.3112 0.104348 -2.04608)
(-1.33007 -0.0982145 -2.18077)
(-1.21313 -0.00445899 -1.65109)
(-1.53635 0.30873 -1.34561)
(-1.69207 0.282042 -1.0044)
(0.3937 0.778854 -1.41199)
(0.946894 -0.287825 -0.831974)
(0.876467 -0.349031 -1.03675)
(0.673642 -0.703349 -1.12651)
(0.43541 -0.751233 -1.54145)
(-0.45818 -0.927735 -1.7524)
(-0.767829 -0.740005 -2.0277)
(-1.09669 -0.840667 -1.77375)
(-0.433562 -0.929469 -1.72245)
(-0.299216 -1.21795 -1.71957)
(-0.50539 -1.15324 -1.4304)
(-0.922872 -0.930598 -1.13302)
(-0.976491 -0.665288 -0.894349)
(1.56089 -0.487785 -0.551516)
(1.23551 -0.938269 -1.06179)
(1.28647 -0.77988 -1.13452)
(1.32257 -1.09671 -0.950403)
(0.801949 -1.45429 -1.08269)
(0.430467 -1.40824 -1.05186)
(0.0828588 -1.61054 -1.33352)
(-0.323831 -1.64429 -1.16492)
(0.23625 -1.7331 -0.974414)
(-0.0359611 -1.69913 -1.36079)
(-0.547216 -1.25507 -1.40669)
(-0.877276 -0.839965 -1.18378)
(-1.04738 -0.522721 -0.943111)
(-1.14173 -0.0691385 -0.748836)
(1.93435 -1.11916 -1.23199)
(1.71494 -1.66114 -1.02427)
(1.50124 -1.47028 -0.611161)
(1.51676 -1.49765 -0.700492)
(1.25188 -2.12255 -0.727702)
(0.96506 -1.94301 -0.878241)
(0.493869 -1.90802 -1.06707)
(0.0457184 -1.98518 -0.950035)
(-0.0806072 -2.03228 -0.624119)
(-0.387469 -1.64091 -1.24883)
(-0.704606 -0.927514 -1.53915)
(-0.85154 -0.778182 -1.28537)
(-0.817774 -0.742558 -1.35955)
(-0.832648 -0.315124 -1.45268)
(-1.04586 0.00443282 -1.37108)
(-0.117615 2.47722 3.13331)
(0.10659 2.61787 3.13459)
(0.0423061 2.38107 3.41174)
(0.0723085 2.76999 3.07585)
(0.00627647 2.81625 3.21553)
(0.220297 3.05211 3.34229)
(-0.284852 2.85199 3.31897)
(-0.0651013 3.08098 3.28015)
(0.0852277 3.18929 3.49349)
(0.188666 3.20032 3.77257)
(-0.440208 3.13704 3.26122)
(0.0245975 3.44333 3.15645)
(0.0168908 3.70393 3.25026)
(0.325823 3.65592 3.5633)
(-0.0842108 3.7932 3.76691)
(-0.392097 3.81126 2.79904)
(-0.227107 4.44118 2.41402)
(-0.259913 4.45057 2.64054)
(0.0860912 4.4325 2.65134)
(-0.126125 4.63515 2.50421)
(-0.370159 4.33077 2.78772)
(-0.356083 4.73948 1.68772)
(-0.637419 4.74125 2.08651)
(-0.433474 5.04004 1.63384)
(-0.386188 4.86974 1.30203)
(-0.402194 4.74538 1.07534)
(-0.642665 4.41238 1.63016)
(-1.1911 4.19953 1.82842)
(-1.12025 4.71288 1.62942)
(-0.972742 4.95651 -1.04803)
(-0.304765 5.09123 -0.585021)
(0.00161868 4.7812 -0.0192049)
(-0.00427654 4.51452 0.726813)
(-0.486212 3.92848 1.60224)
(-1.26897 3.44984 1.85471)
(-1.74227 3.09485 2.03227)
(-0.760858 3.73056 -0.222658)
(-1.0522 3.30545 0.00205183)
(0.224213 3.30469 0.459848)
(0.0432246 3.19026 0.278036)
(-0.66142 2.68404 1.06335)
(-0.965557 2.51998 1.28844)
(-1.45536 1.7542 1.34597)
(-1.62334 1.83749 1.36132)
(-2.15927 1.55302 1.71215)
(-0.705336 2.03479 0.901902)
(-0.517628 2.30982 0.702577)
(-0.0851976 2.3038 0.663625)
(-0.936955 0.926356 1.21322)
(-1.24597 0.928193 0.609244)
(-1.04125 0.96948 0.784534)
(-0.738608 1.04314 1.45715)
(-1.30685 0.823007 0.327968)
(-2.03632 1.1828 1.15908)
(-1.77254 1.51599 0.0472488)
(-0.894733 2.63416 0.287424)
(-1.12618 2.23716 0.260187)
(-0.896963 1.20602 0.169509)
(-0.0865215 1.51188 -0.176684)
(-0.367274 1.00577 -0.270341)
(-0.568599 0.607599 -0.138071)
(-1.53141 0.203926 -0.619344)
(-1.47026 0.926491 -1.13904)
(-1.58535 1.29772 -1.68642)
(-1.75269 1.70904 -1.06679)
(-1.72363 1.66538 -1.13543)
(-1.65517 1.3743 -0.571184)
(-0.941745 1.19078 -0.575508)
(-0.495924 1.11772 -0.996125)
(-0.349571 1.00036 -0.926757)
(-0.249 0.781494 -1.10205)
(-1.117 0.282526 -1.12474)
(-1.38577 0.520332 -1.44197)
(-1.41284 0.828135 -1.93774)
(-1.39712 1.15319 -1.8766)
(-1.75169 0.966209 -1.48009)
(-1.97891 1.21299 -1.05501)
(-1.88332 1.3272 -1.45591)
(-0.852163 1.34154 -1.05653)
(-0.131677 0.924232 -1.06294)
(0.170951 0.127658 -1.14989)
(0.455529 0.176127 -1.29257)
(-0.500841 -0.500348 -1.61116)
(-1.04171 -0.412111 -1.78514)
(-1.2696 0.120961 -2.20335)
(-1.12553 0.127338 -2.3927)
(-1.46452 -0.0880864 -2.07237)
(-1.32316 -0.0148966 -1.85317)
(-1.74914 0.0858596 -1.25839)
(-1.83901 0.248753 -0.828596)
(-1.72923 -0.275403 -0.585345)
(0.195791 0.631723 -1.37037)
(0.892513 -0.410896 -0.79868)
(0.596514 -0.726132 -1.07432)
(0.810811 -0.502492 -1.14197)
(0.245031 -0.730164 -1.65438)
(-0.582514 -0.91175 -1.89061)
(-0.984056 -0.786885 -2.06498)
(-1.02524 -0.932671 -1.89727)
(-0.61798 -1.0458 -1.6368)
(-0.524423 -1.21064 -1.63368)
(-0.585119 -1.19943 -1.405)
(-1.00494 -0.937308 -1.0441)
(-1.05561 -0.666582 -0.843066)
(-1.22265 -0.26869 -0.539063)
(1.55587 -0.440005 -0.775312)
(1.12224 -1.03032 -1.12539)
(1.18708 -0.873668 -1.14907)
(1.32819 -1.128 -0.913361)
(0.699757 -1.50005 -1.11932)
(0.366661 -1.42344 -1.04879)
(-0.131632 -1.73614 -1.20736)
(-0.166589 -1.7898 -1.01325)
(0.276774 -1.72058 -0.88795)
(-0.0685836 -1.68333 -1.28299)
(-0.560736 -1.28164 -1.38893)
(-0.890178 -0.836686 -1.17221)
(-1.07398 -0.517027 -0.942099)
(-1.11658 -0.0402836 -0.861744)
(-1.73318 0.283718 -0.206506)
(1.96686 -1.09223 -1.21437)
(1.72437 -1.70753 -0.977044)
(1.62589 -1.39159 -0.636868)
(1.51907 -1.50575 -0.684066)
(1.26069 -2.11545 -0.716858)
(0.960403 -1.9123 -0.875634)
(0.474822 -1.89385 -1.08389)
(0.0488203 -1.88044 -1.04921)
(-0.110076 -2.04824 -0.613862)
(-0.366801 -1.61466 -1.30907)
(-0.722442 -0.936219 -1.52586)
(-0.853739 -0.784962 -1.28617)
(-0.823443 -0.740003 -1.36014)
(-0.82022 -0.308691 -1.48209)
(-1.02137 0.00663939 -1.43667)
(-1.30005 -0.213136 -1.04122)
(-0.0522447 2.326 2.77278)
(-0.192849 2.46481 3.12354)
(-0.0788854 2.45412 3.22781)
(-0.22238 2.57093 3.12511)
(0.27795 2.36533 3.44811)
(-0.23845 2.46467 3.49066)
(-0.343168 2.74001 3.21493)
(-0.155621 2.85872 3.28205)
(-0.0815494 3.05688 3.36319)
(-0.0293908 2.89819 3.74362)
(-0.502382 2.86528 3.29375)
(-0.320732 2.99781 3.37217)
(-0.291765 3.0469 3.59741)
(0.143188 3.32976 3.71198)
(0.181308 3.43099 3.92635)
(-0.15682 3.46154 3.12243)
(-0.253421 3.72346 3.1337)
(0.252066 3.92585 3.28191)
(-0.142403 3.51738 3.77258)
(-0.307186 3.70265 3.88196)
(-0.554055 3.89428 3.87735)
(-0.584943 3.80753 2.72366)
(-0.613827 4.53022 2.43824)
(-0.547359 4.4263 2.8038)
(-0.25627 4.5607 2.68606)
(-0.485201 4.47264 2.7641)
(-0.885363 4.20548 3.0819)
(-0.903903 4.22779 3.0212)
(-0.845015 4.43205 2.04798)
(-1.14446 4.73415 2.40596)
(-1.03762 4.82791 2.00764)
(-0.890576 4.78404 1.47782)
(-0.777374 4.8124 1.12906)
(-1.10775 4.33294 1.85043)
(-1.4186 4.13294 1.84368)
(-1.84203 3.86023 2.46105)
(-1.30723 4.59896 0.941473)
(-1.89934 4.60689 0.118089)
(-0.768318 4.851 -0.738711)
(-0.615114 4.81188 -0.288551)
(-0.867838 4.2522 0.840446)
(-1.23512 3.78996 1.23022)
(-1.77377 3.33411 1.62823)
(-1.28206 3.76057 1.60597)
(-2.22708 3.11735 1.95534)
(-0.524585 3.39979 -0.909322)
(-1.19413 3.03322 0.533996)
(-1.04351 2.27669 0.422745)
(-0.710571 2.71936 0.123638)
(-1.43191 2.23815 1.00133)
(-1.43092 2.23859 1.33597)
(-1.86821 1.86984 1.24964)
(-2.07038 1.74098 1.58875)
(-2.66575 1.45054 1.55714)
(-2.25303 1.83735 1.85027)
(-0.610495 2.08224 0.704221)
(-0.74792 2.15611 0.408978)
(-0.570509 1.77039 0.845385)
(-0.907721 0.903487 1.36475)
(-0.487629 1.39989 1.32092)
(-1.53789 0.75081 0.989051)
(-0.966128 1.00924 1.52775)
(-1.50542 0.874546 0.223251)
(-1.96247 1.4717 1.61446)
(-1.89581 1.66899 0.00717153)
(-2.19629 2.10587 0.529197)
(-1.00209 2.1593 0.835665)
(-1.50235 1.86307 0.419086)
(-1.21181 0.913546 0.421729)
(-0.944077 1.16701 0.0885821)
(-0.852485 1.01918 -0.200799)
(-0.8892 0.508055 -0.21392)
(-1.57009 0.369784 -0.608734)
(-1.69648 0.933301 -1.1474)
(-1.86096 1.29487 -1.77122)
(-1.74263 1.70437 -1.51124)
(-2.04767 1.5768 -0.926024)
(-1.94274 1.57271 -1.24769)
(-1.59228 1.27732 -0.53885)
(-1.64787 0.679653 -0.100312)
(-0.388329 1.25087 -1.12735)
(-0.286728 1.04852 -1.17569)
(-0.472824 0.581767 -1.20874)
(-1.2754 0.137954 -1.25431)
(-1.49334 0.511669 -1.69987)
(-1.44579 0.903809 -2.14462)
(-1.49273 0.909219 -1.87705)
(-1.75882 0.894626 -1.60211)
(-1.99264 1.14504 -1.18213)
(-2.00662 1.34981 -1.32117)
(-1.97289 1.1877 -1.09656)
(-0.903456 1.32663 -1.04075)
(-0.11864 0.711004 -1.18683)
(0.0142626 0.0102811 -0.972288)
(0.0440839 -0.00517008 -1.20643)
(-0.740008 -0.714187 -1.58328)
(-1.12212 -0.432025 -1.97231)
(-1.27216 0.284175 -2.48576)
(-1.29419 0.0820599 -2.49742)
(-1.15791 0.0925792 -2.35392)
(-1.61259 -0.11168 -1.78121)
(-1.85399 0.157891 -1.268)
(-1.92706 0.22663 -0.672135)
(-1.78516 -0.280565 -0.598835)
(-1.65989 -0.378212 -0.149115)
(0.11491 0.306703 -1.30461)
(0.80146 -0.689259 -0.709883)
(0.599531 -0.67875 -1.15712)
(0.530002 -0.650278 -1.13583)
(0.0290605 -0.858681 -1.70603)
(-0.601976 -0.875389 -2.06099)
(-1.07505 -0.856008 -2.0901)
(-1.13292 -0.980151 -1.92432)
(-1.00407 -1.10327 -1.51811)
(-0.629473 -1.21474 -1.55699)
(-0.651487 -1.1958 -1.39471)
(-1.09082 -0.941126 -0.957181)
(-1.09557 -0.712167 -0.809067)
(-1.40484 -0.30834 -0.389745)
(-1.74248 0.0644341 -0.265319)
(1.54588 -0.548742 -0.724031)
(1.2088 -1.0349 -1.11623)
(1.13979 -0.93713 -1.14167)
(1.14735 -1.27702 -0.893654)
(0.744251 -1.43946 -1.18504)
(0.255114 -1.48337 -1.03294)
(-0.167591 -1.74372 -1.24563)
(-0.567829 -1.72674 -1.02544)
(0.180257 -1.75232 -0.843025)
(-0.0693476 -1.65636 -1.20822)
(-0.597033 -1.29359 -1.36714)
(-0.945124 -0.859109 -1.11691)
(-1.09563 -0.51138 -0.940898)
(-1.09974 -0.0431059 -0.926071)
(-1.80985 0.288957 -0.192249)
(-1.39682 0.0510704 -0.807384)
(1.9492 -1.14424 -1.17796)
(1.77645 -1.63003 -1.053)
(1.58071 -1.48582 -0.615174)
(1.51721 -1.51006 -0.668944)
(1.27642 -2.11326 -0.715966)
(0.972376 -1.91544 -0.87595)
(0.474842 -1.89706 -1.0711)
(0.0261119 -1.94386 -0.863136)
(-0.0847051 -2.05305 -0.633441)
(-0.371249 -1.63219 -1.30155)
(-0.748394 -0.943144 -1.50862)
(-0.839233 -0.772178 -1.31211)
(-0.79666 -0.718723 -1.39373)
(-0.80596 -0.290046 -1.51924)
(-1.01987 0.0282464 -1.47353)
(-1.32003 -0.229173 -0.992329)
(-0.943828 -0.620683 -1.51498)
(-0.188119 2.18051 2.85247)
(0.0511483 2.40524 2.80084)
(-0.032549 2.44136 2.86448)
(-0.448591 2.48049 3.07481)
(-0.351106 2.44902 3.23393)
(-0.118129 2.58216 3.24049)
(-0.442749 2.52503 3.14557)
(-0.337764 2.4804 3.36492)
(0.0102218 2.53468 3.55593)
(0.128568 2.47197 3.75406)
(-0.390737 2.71571 3.22742)
(-0.310236 2.77055 3.38919)
(-0.406541 2.86047 3.51604)
(-0.280423 2.87612 3.73366)
(-0.183453 3.0479 3.8321)
(-0.319896 2.98042 3.32816)
(-0.51688 2.99134 3.48558)
(-0.552075 3.07554 3.68792)
(-0.369546 3.21309 3.90554)
(-0.448733 3.34223 4.03124)
(-0.380096 3.47614 4.05881)
(-0.524036 3.51651 3.10486)
(-0.552204 3.82596 3.05839)
(-0.84102 3.667 3.51387)
(-0.438644 3.58116 3.99041)
(-0.724193 3.67711 4.02985)
(-0.859281 3.79773 3.98802)
(-0.887218 3.73448 3.93429)
(-0.854861 3.87089 2.86916)
(-0.876395 4.33126 2.59534)
(-0.522511 4.58106 2.73419)
(-0.910082 4.31682 3.08412)
(-1.04324 4.26816 3.12347)
(-1.31259 3.98014 3.28199)
(-1.30459 3.91342 3.25307)
(-1.58424 3.63062 3.60404)
(-1.32229 4.1152 2.29508)
(-1.14249 4.59237 2.55696)
(-1.7677 4.55072 2.19048)
(-1.51291 4.7633 1.70936)
(-1.64 4.56112 1.7555)
(-1.92579 3.98308 2.20017)
(-1.9309 3.70415 2.24651)
(-1.96036 3.55512 2.58877)
(-2.08872 3.35603 2.97596)
(-1.61555 4.40363 0.482918)
(-1.70143 4.89302 0.405894)
(-1.86295 4.45166 -0.0813937)
(-2.07893 3.91268 0.423167)
(-2.24246 3.48373 0.601037)
(-2.22647 3.04319 1.47373)
(-2.10099 3.09351 1.65486)
(-2.60297 2.68086 2.07272)
(-2.47423 2.95393 2.21996)
(-2.23723 2.54664 2.42465)
(-1.20477 2.89693 -0.0258639)