/*--------------------------------*- C++ -*----------------------------------*\
  =========                 |
  \\      /  F ield         | OpenFOAM: The Open Source CFD Toolbox
   \\    /   O peration     | Website:  https://openfoam.org
    \\  /    A nd           | Version:  7
     \\/     M anipulation  |
\*---------------------------------------------------------------------------*/
FoamFile
{
    version     2.0;
    format      ascii;
    class       volScalarField;
    location    "2.5";
    object      nut;
}
// * * * * * * * * * * * * * * * * * * * * * * * * * * * * * * * * * * * * * //

dimensions      [0 2 -1 0 0 0 0];

internalField   nonuniform List<scalar> 
150000
(
0.00133097
0.00065375
0.00133044
0.00055297
0.00133413
0.00132623
0.000881968
0.000985101
0.000473182
0.00121906
0.000734662
0.000231899
0.000746196
0.00106887
0.00113468
0.0013373
0.00492912
0.0020243
0.000968546
0.000875606
0.000453023
0.00207061
0.000596897
0.00101882
0.000876779
0.000388417
0.000184694
0.000237416
0.000524773
0.000709458
0.00187989
0.00126539
0.000759834
0.00147949
0.00151046
0.000399728
0.000341464
0.000284667
0.00114166
0.00102267
0.000708995
0.000285825
0.00042303
0.000477949
0.00118785
0.000787441
0.000724454
0.000921076
0.000291785
0.000157435
6.83116e-05
0.000199629
0.000371701
0.000658503
0.000950634
0.00323291
0.0026261
0.00214344
0.00255456
0.00151189
0.000463165
0.00089423
0.000542492
0.00203452
0.0016209
0.000962187
0.00013735
0.000238096
0.000569397
0.00245132
0.00164747
0.000930117
0.000251795
0.000231621
0.000583909
0.000475479
0.000257651
0.00054406
0.000373247
0.000829872
0.000439233
0.000883655
0.000228294
0.000135196
7.40276e-05
0.000111197
0.000111484
0.000218516
0.000382579
0.000673548
0.00124409
0.00285533
0.00300278
0.000959406
0.0029588
0.00250552
0.00206065
0.00138959
0.00218982
0.00295501
0.00147449
0.00048274
0.00105031
0.000634325
0.000612001
0.0010242
0.00237679
0.00162306
0.00178279
0.000308999
0.000333231
0.000683452
0.000404924
0.000498149
0.000241532
0.00113431
0.000898581
0.00068096
0.00037527
0.00060561
0.000416748
0.000513518
0.000504484
0.000310728
0.000519024
0.000942573
0.00080516
0.000360509
0.000765344
0.000239894
0.00012204
9.16585e-05
0.0001172
0.000128597
0.000101791
0.000125457
0.000227569
0.000309139
0.000625973
0.00137481
0.00242753
0.0027021
0.00104205
0.00326323
0.00276087
0.00112469
0.000849521
0.000961918
0.00328429
0.00256206
0.000901568
0.0016013
0.00235405
0.00175708
0.00241413
0.00294445
0.00163832
0.000684113
0.00144648
0.000715664
0.000728074
0.000629883
0.000823458
0.00188409
0.00252009
0.00160952
0.000622148
0.000531451
0.000380405
0.000731834
0.000587221
0.000397243
0.000496002
0.00110229
0.00431755
0.00118486
0.000978023
0.000902647
0.000402873
0.000685734
0.000443879
0.000536028
0.000354314
0.00052904
0.000443173
0.000312972
0.000533021
0.0010763
0.000827478
0.00032314
0.000579794
0.000196362
7.15965e-05
0.000112328
8.04688e-05
0.000145572
0.000298779
0.000100096
9.43047e-05
0.000140292
0.000242592
0.000229819
0.000643703
0.00143448
0.00227484
0.00260698
0.00129307
0.00237648
0.00226504
0.000916582
0.00123672
0.000867435
0.0031421
0.00278751
0.00122162
0.000543087
0.00156916
0.000624935
0.00116822
0.00426972
0.00278474
0.0010727
0.00116863
0.00210427
0.00137538
0.00137002
0.00116481
0.00210738
0.00327195
0.0018523
0.00124995
0.00121608
0.000126607
0.00082778
0.000710159
0.000901611
0.000611654
0.000884777
0.000881635
0.00236239
0.00145654
0.000320301
0.000702348
0.000535232
0.000733434
0.000629424
0.000757189
0.000592439
0.000217873
0.000403764
0.000845516
0.0005784
0.00113583
0.000995592
0.000939848
0.000624825
0.000370879
0.000464464
0.000527725
0.000340155
0.000303887
0.000406875
0.00049636
0.000404895
0.000251818
0.000432471
0.000227235
0.0007666
0.000307829
0.000300805
0.000220855
9.38089e-05
0.000102297
9.62882e-05
0.000181511
0.000385156
0.000395651
0.000251915
8.36594e-05
8.50194e-05
0.00013454
0.000270134
0.000208525
0.000577311
0.00137876
0.00230915
0.0022659
0.000615221
0.00244281
0.0027634
0.000977382
0.000905337
0.00112792
0.00242307
0.00211654
0.00146342
0.000569807
0.000757324
0.000666991
0.00116447
0.00263255
0.00299435
0.00121985
0.00153684
0.00186316
0.00194405
0.00151976
0.000982311
0.0014403
0.00330903
0.00240942
0.000860117
0.00100718
0.0012597
0.000522515
0.000859607
0.00141172
0.00153226
0.000536264
0.00177667
0.00253227
0.0021036
0.00143633
0.000364463
0.00127952
0.000402917
0.000721692
0.00048504
0.000566322
0.000423273
0.000699697
0.00119245
0.000938218
0.00213974
0.0013005
0.000880414
0.000490674
0.00076623
0.000575825
0.000645637
0.000823496
0.000686768
0.000765808
0.000530942
0.000345402
0.000694028
0.00121921
0.00146312
0.00107254
0.000821503
0.000880661
0.000473713
0.000336639
0.000499159
0.000500842
0.000327208
0.000266737
0.00020617
0.000333178
0.000414121
0.000448862
0.000384009
0.000239129
0.000348991
0.000261256
0.00063361
0.000323909
0.000175666
0.000102386
0.000112148
0.000127117
0.000110655
0.000124922
0.000448069
0.000404563
0.000211876
0.000395528
0.000178131
0.000107497
8.1203e-05
0.000137107
0.000305755
0.000217507
0.000553878
0.00123464
0.0022529
0.00233938
0.000535665
0.00252803
0.00219304
0.000800538
0.000389667
0.000908236
0.00238976
0.00266452
0.00125764
0.00141601
0.00114266
0.000693865
0.000449628
0.00241849
0.00269586
0.00172826
0.00100992
0.00115755
0.000760478
0.00111212
0.00052447
0.00117616
0.00235679
0.00292966
0.0012698
0.00171528
0.00129987
0.00182794
0.00116595
0.00150977
0.00151144
0.00121032
0.00188635
0.00255965
0.00241627
0.000793688
0.000923283
0.00116408
0.000547526
0.000640934
0.00063868
0.000848448
0.00160036
0.00113529
0.000892955
0.00153751
0.00193771
0.00214382
0.00168321
0.000671584
0.000835198
0.000433224
0.00074041
0.000425403
0.000553074
0.000551055
0.000347176
0.000448226
0.000837922
0.00125457
0.00100443
0.00194889
0.0013149
0.000989086
0.000433281
0.000661423
0.000400611
0.000774424
0.000835188
0.000684981
0.000444095
0.000761592
0.000693534
0.000668289
0.000162826
0.000337048
0.00110494
0.00100137
0.00106182
0.000739747
0.000783765
0.000612095
0.000471036
0.000482975
0.000469046
0.000331322
0.000262719
0.000257908
0.000173777
0.000196057
0.000310852
0.000407998
0.000369027
0.000351413
0.000268116
0.000306289
0.000332263
0.000492957
0.000379992
0.000108094
0.000142083
7.53788e-05
0.000117123
0.000117578
0.000201415
0.000450081
0.000397654
0.00012589
0.000166023
0.00022828
0.000358693
0.000107195
8.77176e-05
7.07685e-05
0.00011681
0.000224187
0.000226497
0.000564726
0.00107254
0.00205042
0.00226718
0.000883305
0.00248929
0.00223257
0.000610234
0.000526974
0.000555915
0.00256338
0.00239425
0.000839729
0.000562572
0.000578469
0.000745528
0.000409868
0.00244488
0.00259989
0.000941211
0.00105758
0.000811662
0.0013542
0.00102414
0.000485017
0.000781795
0.00244607
0.0031267
0.00152114
0.00153301
0.000475096
0.000642876
0.000524335
0.00072239
0.0011338
0.00127258
0.00224027
0.00254077
0.00257002
0.00173859
0.000601369
0.000999811
0.000615063
0.000733789
0.000982015
0.00147352
0.00161778
0.000982673
0.000990653
0.00174393
0.00237941
0.00294697
0.000968795
0.00125034
0.00099107
0.000450198
0.000550602
0.000685591
0.000661735
0.00060879
0.00109403
0.00174779
0.00128899
0.000999642
0.00139595
0.00178293
0.00203217
0.00176429
0.000843805
0.000309658
0.000602218
0.000242259
0.000276873
0.000519101
0.00034323
0.000376205
0.000401995
0.000232892
0.000551058
0.000908536
0.000888293
0.000969531
0.00150274
0.00135751
0.000645169
0.00044148
0.000429874
0.000509862
0.000866032
0.000825472
0.000637535
0.000409111
0.000613444
0.000534933
0.000819982
0.000692522
0.000772777
0.000483161
0.000453966
0.000782445
0.0006862
0.000792111
0.000813753
0.000437429
0.0005182
0.000407185
0.000471244
0.000451898
0.000326076
0.000377677
0.000237894
0.000240339
0.000355275
0.000281907
0.000176353
0.000379657
0.000459495
0.000283543
0.000322867
0.000271996
0.000265799
0.000425363
0.000335559
0.000286012
0.000126942
0.000231954
6.61473e-05
0.000104713
0.000122898
0.000245887
0.000427954
0.000340426
8.59123e-05
0.000172918
0.000109031
0.000234693
0.00024864
0.000314199
0.000128184
9.2295e-05
7.93296e-05
0.000122651
0.000146673
0.000230845
0.000497275
0.000894862
0.00229679
0.00225014
0.000774887
0.00231016
0.00239554
0.00082316
0.000645827
0.000579432
0.00264503
0.00239137
0.000742167
0.000561866
0.000416054
0.000456474
0.00108035
0.00260342
0.00244758
0.000809324
0.000734819
0.000522559
0.00101355
0.00111833
0.000619647
0.000661552
0.00259544
0.00242224
0.000634518
0.00135957
0.00165937
0.0010888
0.00067334
0.000732028
0.000723741
0.00102232
0.000704836
0.00246832
0.00339041
0.0015769
0.00163693
0.0014531
0.000332931
0.000806808
0.000858541
0.000272563
0.000587059
0.00129923
0.00159762
0.00162424
0.00281976
0.00265107
0.00190355
0.000442911
0.000408562
0.000686575
0.000809089
0.000667334
0.000994399
0.00108689
0.00122734
0.0015751
0.000746179
0.00100801
0.00206001
0.00239389
0.00269279
0.001344
0.00118296
0.000699155
0.000605762
0.000717064
0.000444947
0.000557798
0.000415211
0.000533264
0.000783241
0.00113841
0.00152326
0.00124666
0.000644385
0.00131477
0.00196073
0.00230406
0.00152445
0.000654501
0.000742361
0.000256404
0.00054111
0.000309185
0.000458902
0.000510287
0.0003881
0.000410414
0.000253986
0.00039144
0.000365191
0.000580304
0.00082896
0.000795278
0.000965396
0.00198723
0.000985575
0.000439659
0.000753024
0.000723962
0.00055341
0.00087052
0.000766823
0.000597086
0.000360469
0.000333066
0.000452426
0.00057864
0.000581767
0.000882551
0.000750695
0.000964825
0.000378297
0.000229521
0.000532474
0.000912548
0.00117726
0.000795197
0.000394883
0.000326015
0.000358383
0.000518588
0.000431641
0.000333127
0.000292718
0.000210189
0.000398013
0.000341876
0.000119051
0.00029628
0.000215849
0.00019263
0.000303615
0.000504589
0.000243406
0.000306709
0.000245823
0.00027399
0.000438026
0.000398075
0.000275708
0.000172343
0.000268881
6.59191e-05
0.000114066
0.000127443
0.000272192
0.000407782
0.000298139
0.000136641
0.000124292
5.46653e-05
0.000129178
0.000238044
0.000257308
0.000333117
0.000241375
0.000154069
9.49889e-05
9.92952e-05
0.000134213
0.000144223
0.000168479
0.000437053
0.000724776
0.00218717
0.00235852
0.00097072
0.00240627
0.00230227
0.000909069
0.000543683
0.000440138
0.00235285
0.00226835
0.000721134
0.000715363
0.000335439
0.000422882
0.000778288
0.00249479
0.00235961
0.000849706
0.000542435
0.000659543
0.000398165
0.000517184
0.00059131
0.000865681
0.00272062
0.00226678
0.000943656
0.000680698
0.000730208
0.000616224
0.000577173
0.00101147
0.000475498
0.000700074
0.000947634
0.00270538
0.00249564
0.000835886
0.00131795
0.00142994
0.00127954
0.000752157
0.000790177
0.000756425
0.000697566
0.000916347
0.00101701
0.00128817
0.00271929
0.00291063
0.0019041
0.00207736
0.00172221
0.000892836
0.000374495
0.000963418
0.000850107
0.00078264
0.000321916
0.000501603
0.000351312
0.001554
0.00109064
0.00277683
0.00288331
0.00210044
0.00107484
0.000883538
0.000804441
0.000493314
0.000699005
0.000510885
0.000843888
0.00106151
0.00120488
0.00109111
0.00115656
0.000980581
0.00144798
0.00170489
0.00258663
0.0028077
0.00129349
0.00159707
0.00089591
0.000887949
0.000682725
0.000328653
0.000250477
0.000560464
0.000589364
0.000473499
0.000621578
0.000944518
0.0013324
0.00145002
0.00109231
0.000435993
0.00108726
0.00228235
0.00226222
0.00155034
0.000643984
0.00109206
0.000246683
0.000443077
0.000361421
0.00047042
0.000540058
0.000306898
0.000498047
0.000499341
0.000424441
0.000318249
0.000631555
0.000433268
0.000710552
0.00101794
0.000742825
0.000866525
0.00299541
0.000937465
0.000632334
0.000893882
0.000900379
0.000713904
0.000868775
0.000707845
0.000557607
0.000520162
0.000400673
0.00044387
0.000322066
0.000574399
0.000496013
0.000634709
0.000838916
0.000813654
0.00102309
0.000468653
0.000580621
0.000578326
0.000555807
0.00146726
0.000670935
0.000378578
0.000219122
0.000275719
0.000429522
0.000407491
0.000308923
0.000204055
0.000193654
0.000445239
0.000317273
0.000187233
0.000232464
0.000193719
0.000208533
0.000305507
0.000331066
0.000302025
0.000404022
0.000167323
0.000280692
0.000222501
0.000292094
0.00046281
0.000436459
0.000409295
0.000155519
0.00029992
9.04744e-05
0.000107686
0.000128576
0.000264739
0.000310111
0.000161397
0.000184968
0.000119556
7.30297e-05
0.000122087
0.000162846
0.000211463
0.000339167
0.000155143
0.000300227
0.000198421
0.00012934
8.21509e-05
8.97513e-05
9.78921e-05
0.000171734
0.000177736
0.0003897
0.000555698
0.00229941
0.00207646
0.000367309
0.00228399
0.00230245
0.000691917
0.000528033
0.000702732
0.002408
0.00221106
0.000872995
0.000468688
0.00058044
0.000461239
0.000461686
0.00225277
0.00233303
0.000638046
0.00067183
0.000649583
0.000576791
0.000232698
0.000492672
0.000787727
0.00249561
0.00238934
0.000653108
0.000784784
0.000879531
0.000597574
0.000908922
0.000742166
0.000312969
0.00043738
0.000636292
0.00272671
0.0023676
0.000770444
0.000930759
0.000898378
0.000825137
0.000927483
0.00101938
0.00101796
0.00070992
0.000605969
0.000754688
0.000551952
0.00275664
0.00266005
0.00122233
0.00130682
0.00129178
0.00129238
0.000837543
0.00057867
0.000813139
0.000563862
0.000747044
0.000702428
0.000996029
0.000642387
0.00119239
0.00298943
0.00268043
0.00196447
0.00160271
0.00121715
0.00106063
0.000923577
0.000628071
0.000840333
0.00158643
0.000917144
0.000855578
0.000386737
0.000799203
0.0012585
0.00165271
0.00201826
0.00303979
0.00254446
0.00216301
0.0015594
0.000739299
0.00125421
0.00101307
0.000582315
0.000966555
0.000608493
0.000505638
0.00106789
0.00115462
0.00120001
0.00139041
0.00147645
0.000780546
0.00159032
0.00220232
0.00293647
0.00311652
0.00107766
0.000902507
0.000884308
0.000838354
0.000694533
0.000379599
0.00019402
0.000443407
0.000611396
0.000415334
0.000418167
0.000241023
0.00111176
0.00106192
0.00123787
0.00143696
0.00059146
0.000416844
0.0011857
0.00247584
0.00172914
0.00155387
0.00107899
0.000923032
0.000379324
0.000450779
0.000410038
0.000404962
0.000454331
0.000444297
0.000639005
0.000300824
0.00048194
0.0004768
0.000525138
0.000401386
0.000969846
0.000645215
0.000688515
0.000866163
0.000907782
0.00114627
0.00230234
0.00085039
0.000492543
0.000767738
0.000753049
0.000656912
0.000853992
0.000656655
0.000552299
0.000462666
0.000560564
0.000425005
0.000333729
0.000422209
0.000423146
0.000616586
0.000280116
0.000627506
0.000816788
0.000954621
0.000622434
0.000860839
0.000952441
0.000696411
0.000865858
0.00107695
0.000609035
0.000593726
0.000217794
0.000279675
0.000333375
0.000397325
0.000339848
0.00021231
0.00021256
0.000371644
0.00029898
0.000189469
0.000234984
0.000313899
0.000235861
0.00023388
0.000167965
0.000423212
0.000370608
0.000483776
0.00026971
7.51285e-05
0.000231097
0.000268429
0.000263662
0.000427134
0.00048165
0.000368665
0.00015807
0.000316585
9.35602e-05
0.000114902
0.000130409
0.00021002
0.000220249
0.0001019
0.00024842
0.000173732
7.54788e-05
0.000187619
0.000134089
0.000117655
0.000172992
0.000282096
0.000244556
0.000114464
0.000274264
0.000162564
0.000133631
7.41096e-05
7.16821e-05
9.26832e-05
0.000188554
0.000337901
0.000328739
0.000450134
0.00224685
0.00231229
0.000611442
0.00244085
0.00210741
0.000584116
0.0004711
0.000556277
0.00235744
0.0023347
0.000608299
0.000593261
0.000361405
0.000556169
0.000666723
0.00240348
0.00221457
0.000590204
0.000602739
0.000524163
0.000544409
0.000383249
0.000622888
0.000574599
0.00223646
0.00233253
0.000506955
0.000687019
0.000397923
0.000547839
0.000524819
0.00052737
0.000472994
0.000333482
0.000339869
0.00240269
0.00244479
0.000474899
0.000901308
0.000668177
0.00080175
0.000541454
0.000680444
0.000665331
0.000717058
0.000298332
0.000346746
0.000698909
0.00271458
0.00252073
0.000982715
0.00103405
0.000558918
0.000678529
0.000809102
0.000692208
0.000751744
0.000792681
0.000764108
0.000946063
0.0006532
0.000716398
0.000609735
0.00279378
0.00308111
0.00114686
0.000954289
0.00104865
0.000814286
0.000855743
0.000822713
0.000737688
0.000769103
0.000942394
0.000810865
0.000868454
0.00079208
0.000482711
0.000950577
0.00114702
0.00279423
0.00263691
0.00112117
0.000932902
0.00194387
0.00134366
0.00171459
0.000799737
0.00127989
0.000352647
0.000814588
0.00129519
0.000857835
0.000690007
0.000864993
0.000664444
0.000847258
0.00140787
0.00162062
0.00335138
0.00243285
0.00196886
0.000778282
0.00159955
0.0010665
0.00109879
0.000994142
0.000845109
0.000539872
0.00130502
0.00068514
0.000796548
0.000749036
0.00110415
0.00116889
0.00142876
0.00108337
0.000991037
0.00144592
0.00184511
0.00325974
0.00274905
0.00115107
0.00122891
0.00117092
0.000973668
0.000421036
0.000627501
0.000520526
0.000351555
0.000684417
0.000436474
0.000536015
0.000560955
0.000321692
0.000280078
0.000816174
0.00126325
0.00132716
0.00131478
0.000436061
0.000530215
0.000824672
0.00260571
0.00163003
0.00139372
0.000836306
0.000978245
0.000386582
0.000545313
0.000454911
0.000340186
0.000514269
0.000587479
0.000442045
0.000374607
0.000465984
0.000480208
0.000656459
0.00050166
0.000461774
0.000699421
0.00129441
0.00049173
0.000741115
0.000860904
0.000899001
0.00167599
0.0024218
0.000709056
0.000198661
0.000312751
0.000514943
0.000533314
0.000796924
0.000565224
0.000612082
0.000575306
0.0003709
0.000325863
0.000356598
0.000354599
0.000266271
0.000406527
0.000423135
0.000513975
0.000296836
0.000645501
0.000722471
0.000960344
0.000370671
0.000494729
0.000703974
0.000741441
0.00103595
0.00103521
0.000579608
0.000452714
0.000150487
0.000222906
0.000329056
0.000380991
0.000323537
0.000240054
0.000239728
0.000305993
0.000287739
0.000176253
0.000274806
0.000252922
0.000297584
0.000305918
0.000207913
0.000214908
0.000167089
0.000487043
0.000482525
0.000488411
0.000189984
0.00011376
0.000254616
0.000294085
0.000206076
0.000421655
0.000420346
0.000278571
0.00015207
0.000251939
0.000101818
0.000137329
0.000151495
0.000182922
0.000228489
0.000333615
0.000290598
0.000192561
0.000100027
0.000155788
0.0001996
0.000122176
0.000165188
0.000127632
0.000176846
0.000252105
0.000199586
8.01854e-05
0.000246888
0.000131174
9.93991e-05
8.82703e-05
5.92818e-05
8.45428e-05
0.000195266
0.000356385
0.000297965
0.00040635
0.00217972
0.00226038
0.000306416
0.00233059
0.00222323
0.000637096
0.000591568
0.000582322
0.0023845
0.00213868
0.000561683
0.000496894
0.000416108
0.000364189
0.000503639
0.0024381
0.00231645
0.000703373
0.000618795
0.000225981
0.000398327
0.000520366
0.000401258
0.00058885
0.00239412
0.00218859
0.000553186
0.000537734
0.000492714
0.000297697
0.000566819
0.000662722
0.000373161
0.000609478
0.00049022
0.00226789
0.00218075
0.000584664
0.000621546
0.000444356
0.000409859
0.000565472
0.000596952
0.000451455
0.000379991
0.000392718
0.000643916
0.00069189
0.00236511
0.00241872
0.000610144
0.000656681
0.000558353
0.000638208
0.00073586
0.000668397
0.000449391
0.000782932
0.00092619
0.000551968
0.000509768
0.000423244
0.000551933
0.00257108
0.00232705
0.00104857
0.00068604
0.000629912
0.000684207
0.000437105
0.000639965
0.000800867
0.000524379
0.00098035
0.000762495
0.00126052
0.000799977
0.000635135
0.000475185
0.000707806
0.0027137
0.0029011
0.000984722
0.00123389
0.00120209
0.000992832
0.000216452
0.000686126
0.000940619
0.000764541
0.00152872
0.00133741
0.00069865
0.000878633
0.000819029
0.00059597
0.00139348
0.00119091
0.00125494
0.00273036
0.00238887
0.00168929
0.000787687
0.00107168
0.00126704
0.001157
0.000901775
0.000808609
0.00116437
0.00179228
0.00112752
0.00177321
0.000753243
0.00105182
0.000228064
0.000326137
0.000746275
0.000790734
0.00245291
0.00275727
0.00313425
0.00265313
0.0011385
0.00111926
0.00076196
0.000797943
0.00151733
0.000860025
0.000728583
0.00102862
0.00044187
0.00106916
0.000692528
0.000441381
0.000638019
0.0011708
0.00103521
0.00106308
0.0014716
0.00100387
0.000497689
0.000954075
0.00163975
0.00320816
0.00267194
0.00126897
0.000394757
0.000782013
0.000899226
0.000792948
0.00100962
0.000269844
0.00054235
0.000507874
0.000485516
0.000493516
0.000491212
0.000613484
0.000536615
0.000361649
0.000941115
0.0013724
0.00112377
0.00105825
0.00111608
0.000533957
0.000724262
0.000617675
0.00283504
0.00100945
0.0010258
0.000776645
0.00144149
0.000624357
0.000577374
0.000584305
0.000374156
0.00028395
0.000670607
0.000297763
0.000459947
0.0004775
0.000409079
0.000499306
0.000599012
0.000557853
0.000588267
0.000462461
0.000690427
0.00114143
0.000386349
0.000768948
0.000884995
0.000951378
0.00168226
0.00200024
0.000669465
0.000134407
0.000324708
0.000747858
0.000554458
0.000741061
0.000532846
0.000550612
0.000454066
0.000389932
0.000363617
0.000371448
0.000353197
0.000247183
0.000265057
0.000295388
0.00036929
0.00064027
0.000842248
0.000614379
0.000711502
0.000582167
0.000809697
0.000559065
0.000417888
0.000524689
0.000777962
0.000659856
0.00106678
0.00058281
0.000371043
0.000109118
0.0003523
0.00034291
0.00037635
0.000256342
0.000237158
0.000176818
0.000202156
0.000262031
0.000131821
0.000108247
0.000210282
0.00030327
0.000369575
0.000368791
0.000263664
0.000175982
0.000295156
0.000387278
0.00054053
0.000567808
0.000502678
0.000273852
0.000217006
0.00027785
0.000297672
0.000274295
0.000456648
0.000324093
0.000267619
0.000187972
0.000186472
9.3206e-05
0.000146551
0.000125148
0.000152628
0.000256473
0.000434013
0.000287252
0.000168542
0.000126917
0.000114532
0.000238621
0.000114343
0.000169233
0.00010332
0.000174518
0.000134754
0.000176896
0.000180199
0.000279377
7.81744e-05
0.000233141
0.000117964
0.00011892
0.000112814
7.01889e-05
0.00010395
0.00021946
0.000281247
0.000316335
0.000378831
0.00202816
0.00226037
0.000665174
0.00226297
0.00227987
0.000273206
0.000449855
0.000379635
0.00232535
0.00220791
0.000754163
0.000443077
0.000388222
0.000215129
0.000520429
0.0023634
0.00220212
0.000440581
0.00023814
0.000391908
0.00049114
0.000362621
0.000368502
0.000279915
0.00244938
0.00223707
0.000581647
0.00042617
0.00034256
0.000258741
0.000354553
0.000367744
0.000522077
0.000486471
0.00051497
0.00232941
0.00227527
0.000368962
0.000581767
0.000477953
0.000320107
0.000305217
0.000672539
0.000567113
0.000334729
0.000489905
0.000541497
0.000522778
0.00230903
0.00225162
0.000613159
0.000524871
0.00064756
0.000457493
0.000427867
0.000598304
0.000464364
0.000499971
0.000717603
0.000799505
0.000720092
0.000624801
0.000839576
0.00239241
0.00246838
0.000554992
0.000597045
0.00062275
0.000592397
0.000550724
0.000624662
0.000936467
0.00078004
0.00104555
0.000752609
0.000885484
0.000582493
0.000434927
0.000637429
0.000579237
0.00258143
0.0025247
0.000763747
0.000773359
0.000697903
0.000644989
0.000452307
0.000717755
0.00100884
0.000794655
0.000674624
0.000610759
0.00134747
0.00135501
0.000830567
0.000588912
0.000661374
0.000846796
0.000961923
0.00273884
0.00277013
0.00109123
0.00115415
0.000886455
0.00109999
0.00158726
0.000267451
0.000444171
0.00067908
0.000608231
0.00119006
0.00038978
0.000510332
0.000503403
0.000585108
0.000280787
0.000934194
0.000889975
0.00102682
0.000770278
0.00254365
0.00273221
0.00201552
0.000670561
0.000672707
0.00087197
0.0020367
0.000466129
0.00085345
0.00100277
0.000555262
0.000715338
0.00102899
0.0009422
0.000875343
0.0011312
0.00104962
0.000906817
0.000662168
0.00099225
0.00114448
0.00195377
0.00196681
0.00296111
0.00239118
0.00031467
0.00166608
0.000869837
0.00074714
0.00123753
0.00113078
0.000883624
0.000736228
0.000782742
0.000587686
0.000540611
0.000559768
0.000435083
0.000631715
0.00057221
0.00129868
0.00098106
0.00133907
0.00139179
0.000743615
0.000521994
0.000877451
0.0019201
0.0028818
0.00274811
0.000985001
0.000773189
0.0015039
0.000896058
0.000716008
0.000576459
0.00102886
0.000631975
0.000835427
0.000638249
0.0005746
0.000382159
0.000464426
0.000572418
0.000754744
0.000545983
0.000428708
0.000991622
0.00117265
0.00112803
0.000844991
0.000812072
0.000701413
0.000961404
0.0011928
0.00283435
0.00101159
0.00108798
0.000641189
0.000709258
0.00046515
0.000520578
0.000420151
0.000510031
0.000359166
0.000259251
0.000253741
0.000516128
0.000597282
0.000421327
0.000434035
0.000467072
0.000521158
0.000525894
0.000376826
0.000546475
0.000544304
0.000900319
0.00064024
0.000470901
0.000715129
0.00092532
0.000787761
0.00113007
0.00166288
0.000544605
0.000155677
0.000454699
0.0012598
0.000625479
0.000748176
0.000628687
0.000479677
0.000362128
0.000326047
0.000363665
0.000369416
0.000342261
0.000298963
0.00027005
0.000266482
0.000280103
0.000296523
0.00025378
0.000519506
0.000692239
0.000388931
0.000685518
0.000460277
0.000792769
0.000637484
0.000286823
0.000349839
0.0010289
0.000630521
0.00122753
0.000556
0.000321733
0.000262605
0.000616813
0.000358249
0.000377329
0.00023012
0.000233241
0.000153431
0.00013586
0.000246138
0.000141157
0.000109959
0.000296966
0.000291248
0.000353956
0.000259071
0.000396226
0.000373444
0.000223391
0.000214776
0.00030605
0.000529193
0.000540883
0.000548608
0.000410055
0.000231246
0.000297632
0.000320454
0.000306516
0.000308934
0.00051868
0.000408681
0.000281035
0.000189979
0.000207357
9.60334e-05
0.000152896
0.000117252
9.78119e-05
0.000367281
0.000504156
0.000292829
0.000165509
8.8336e-05
0.000153142
0.000164102
9.75427e-05
0.000171487
0.000107712
0.000141727
0.000130182
0.000180056
0.000147858
0.000191727
9.52451e-05
0.000171741
9.98443e-05
0.000225331
0.000107954
0.000176852
8.92685e-05
9.85838e-05
7.41092e-05
0.000259041
0.000258834
0.000311219
0.000358318
0.00201723
0.00204622
0.000236366
0.00221364
0.00233445
0.00077343
0.000332406
0.000803663
0.00220644
0.00223327
0.000512954
0.000317158
0.000364993
0.000350674
0.000316152
0.0022873
0.00216621
0.000530973
0.000487012
0.00039053
0.000193419
0.000257257
0.000493424
0.000443688
0.0023805
0.00221371
0.000325297
0.000484361
0.000389463
0.000163891
0.000610226
0.000581746
0.000494944
0.000465955
0.000351446
0.00253595
0.00222532
0.000440944
0.000666387
0.000549192
0.000411984
0.000200044
0.000596476
0.000396903
0.000404931
0.000271661
0.000524614
0.000732701
0.0024114
0.00217439
0.000382179
0.000559042
0.000508973
0.000516379
0.000420758
0.000362124
0.000636864
0.000525884
0.000199632
0.000322102
0.000810694
0.000722675
0.000786097
0.00245572
0.00221817
0.000586462
0.000507083
0.000558713
0.000745112
0.000333308
0.000436959
0.000680428
0.000513181
0.000606158
0.000655989
0.000696073
0.000613169
0.00052535
0.000710154
0.000848954
0.00232334
0.00242591
0.00043871
0.000778982
0.000660263
0.000708749
0.000526154
0.000483863
0.000743129
0.000713685
0.000576693
0.000726886
0.000819433
0.00073816
0.000658204
0.000520226
0.000755511
0.000556659
0.00115595
0.0025737
0.0025343
0.00048665
0.000809386
0.000507465
0.000427879
0.000632875
0.000857831
0.000803676
0.00069944
0.000532866
0.00042079
0.000556382
0.00174196
0.000997807
0.000449572
0.000673336
0.000767175
0.000485772
0.000798492
0.000768867
0.00274263
0.00277962
0.000976351
0.00114256
0.000694962
0.000589212
0.000839913
0.000712086
0.000499976
0.000823946
0.000538333
0.000613871
0.000804714
0.000473854
0.000885662
0.000859294
0.00061496
0.000879273
0.00103005
0.000748044
0.000870897
0.00149839
0.0011973
0.00242714
0.00289886
0.00200241
0.00161274
0.000850202
0.000754328
0.00121864
0.0007442
0.000563669
0.000836864
0.00035527
0.000511732
0.000736038
0.000652744
0.000894974
0.00090921
0.00110489
0.000874736
0.000890232
0.00082777
0.00116775
0.000492848
0.00142665
0.00187778
0.00189014
0.00246064
0.00248959
0.000732736
0.000519946
0.000386937
0.000184456
0.000872943
0.00113015
0.000779789
0.00076556
0.00063281
0.000875315
0.000464827
0.000570984
0.000673967
0.000902999
0.000326373
0.000463583
0.000798347
0.00128075
0.00102526
0.000792982
0.000792519
0.000644848
0.000483986
0.000655977
0.00159118
0.00285744
0.00213588
0.00113401
0.000703929
0.000986881
0.00193187
0.000814857
0.00103699
0.000749187
0.00042199
0.000480324
0.000207115
0.000435166
0.000429514
0.000389996
0.000322292
0.000530466
0.000775907
0.000682033
0.00043563
0.000474961
0.00116102
0.00118143
0.000823721
0.000700089
0.000747544
0.00088886
0.000854623
0.00068535
0.00266176
0.000923219
0.00094198
0.000533805
0.000944414
0.000656782
0.00052889
0.000847786
0.000306791
0.000577964
0.000211428
0.000390304
0.000632895
0.000515152
0.000358706
0.000562694
0.000430606
0.000408399
0.000562221
0.000169988
0.000377148
0.000355195
0.000536886
0.000558272
0.000649263
0.00036146
0.000469104
0.000724898
0.000913061
0.000738722
0.00128014
0.002076
0.000620086
0.000204217
0.000359438
0.00110896
0.000686309
0.000772037
0.000643826
0.000470862
0.000369921
0.000399883
0.000447871
0.000413301
0.000320482
0.000327698
0.000273966
0.000292414
0.000349115
0.0003506
0.000346231
0.000262113
0.000266907
0.000342516
0.000369967
0.000524177
0.000713413
0.000619171
0.000841934
0.000504877
0.000130147
0.000599387
0.000900551
0.000707398
0.00104693
0.00056142
0.000290678
0.000251571
0.000348766
0.000330136
0.000376019
0.000214958
0.000192867
0.000147171
0.000149494
0.000163595
0.000151328
0.000199651
0.000185995
0.000265323
0.000379565
0.000317058
0.000208959
0.000215745
0.000377155
0.000365823
0.000217827
0.000222535
0.00020401
0.000473756
0.000525538
0.000505666
0.000227305
0.000187089
0.000300746
0.000432677
0.000270478
0.000374123
0.000579765
0.000447515
0.000365366
0.000144253
7.06971e-05
9.92505e-05
0.000151832
0.00012101
0.000119958
0.000437058
0.000515996
0.000300861
0.000147908
6.92446e-05
0.000159907
0.00015467
9.42002e-05
0.000172223
0.000117229
8.48108e-05
5.64608e-05
0.000160412
0.000127213
0.000186461
0.000158775
0.00022443
0.000237665
0.000177169
0.00014046
0.000221549
0.000102951
0.000135575
5.50512e-05
0.000213664
0.000137524
0.000298975
0.000294408
0.00032643
0.000346762
0.00202374
0.00201307
0.000451093
0.00216184
0.0020395
0.000232792
0.000171895
0.000293029
0.00211791
0.00233035
0.000547905
0.000381594
0.000294225
0.000415392
0.000547425
0.00225837
0.00225231
0.000755903
0.000372467
0.000282783
0.000164154
0.000373472
0.000375684
0.000454434
0.00233555
0.00216694
0.000600962
0.000849418
0.000378172
0.000208143
0.000240008
0.000508134
0.000308382
0.000356477
0.000352174
0.0023663
0.00218361
0.000648784
0.000713889
0.000415784
0.000241754
0.00034712
0.000889245
0.000742998
0.000484151
0.000446491
0.000482235
0.000320396