/*--------------------------------*- C++ -*----------------------------------*\
  =========                 |
  \\      /  F ield         | OpenFOAM: The Open Source CFD Toolbox
   \\    /   O peration     | Website:  https://openfoam.org
    \\  /    A nd           | Version:  7
     \\/     M anipulation  |
\*---------------------------------------------------------------------------*/
FoamFile
{
    version     2.0;
    format      ascii;
    class       volScalarField;
    location    "2.5";
    object      p;
}
// * * * * * * * * * * * * * * * * * * * * * * * * * * * * * * * * * * * * * //

dimensions      [0 2 -2 0 0 0 0];

internalField   nonuniform List<scalar> 
150000
(
-65.0079
-65.9291
-65.3215
-66.9771
-64.7596
-64.9404
-66.0242
-66.889
-65.8765
-65.6704
-67.1076
-68.5776
-66.9123
-64.622
-66.0695
-65.2448
-62.35
-64.6624
-66.0954
-67.0912
-68.9635
-66.6693
-65.8283
-66.0084
-67.3109
-68.6086
-68.9187
-68.5508
-66.8679
-64.5806
-65.9252
-66.9501
-67.4239
-65.0016
-65.4383
-65.6364
-68.6155
-62.0991
-64.4658
-66.1133
-67.2394
-68.9764
-69.0743
-68.9563
-66.6127
-65.7943
-66.2851
-67.5795
-68.6469
-68.9029
-68.999
-68.9372
-68.5241
-66.8451
-64.5617
-64.3169
-67.2401
-66.6568
-64.1701
-67.1556
-68.191
-67.0781
-67.0817
-63.9952
-65.5227
-67.4523
-68.8446
-68.9041
-68.5304
-53.378
-64.4457
-66.1264
-67.3487
-69.0046
-69.0472
-68.8316
-69.1037
-68.9361
-66.7231
-65.8079
-66.4785
-67.869
-68.6815
-68.8895
-68.9873
-69.2837
-69.0069
-68.9506
-68.4991
-66.8471
-64.6142
-61.7996
-65.1547
-65.7933
-63.6676
-68.0139
-67.516
-66.2349
-66.0028
-63.923
-67.1138
-68.85
-67.292
-67.6533
-67.043
-66.8337
-63.726
-65.6011
-67.6568
-69.0771
-68.8949
-69.0802
-68.9227
-68.5767
-61.0162
-64.5098
-66.1752
-67.5956
-69.0454
-69.0335
-68.7912
-69.0805
-68.874
-69.1157
-68.9085
-66.74
-65.8745
-66.5702
-68.142
-68.7132
-68.8752
-68.9718
-69.2849
-69.5811
-69.2899
-69.0173
-68.9586
-68.4776
-66.8907
-64.7875
-61.1384
-62.1959
-63.1419
-61.6844
-65.9273
-65.9376
-65.1601
-65.7723
-63.7093
-67.8986
-68.5641
-66.4893
-66.4071
-66.7572
-65.2081
-63.4853
-66.7822
-69.428
-67.7768
-67.7102
-68.4211
-67.5901
-67.0452
-66.728
-63.7518
-65.5428
-67.8674
-69.1214
-68.8553
-69.0003
-69.0917
-69.1604
-69.039
-68.646
-61.2029
-64.6532
-66.2819
-67.9219
-69.0965
-69.0195
-68.7543
-69.0586
-69.3283
-69.1113
-68.9352
-69.108
-68.8872
-66.705
-65.97
-66.5871
-68.366
-68.7394
-68.8661
-68.9559
-69.2787
-69.5826
-69.6783
-69.5794
-69.2982
-69.0266
-68.962
-68.4605
-66.9494
-65.0632
-60.1928
-61.1146
-62.0418
-61.1394
-62.6679
-63.4694
-63.9116
-63.0568
-61.6023
-65.9362
-66.6825
-65.2011
-65.4606
-65.4218
-65.788
-63.3998
-67.3252
-69.6333
-67.2515
-66.5072
-66.4837
-66.3714
-67.5765
-65.6132
-63.2892
-66.1937
-69.2762
-68.4107
-67.8603
-68.5139
-69.1049
-68.3418
-67.6137
-67.2471
-67.0304
-64.2076
-65.4968
-68.1478
-69.1222
-68.7547
-68.8765
-68.9483
-69.1198
-69.2458
-69.3388
-69.1381
-68.7187
-63.3249
-64.8262
-66.4543
-68.186
-69.1537
-69.0237
-68.7507
-69.0454
-69.3337
-69.6643
-69.3302
-69.1514
-68.9893
-69.0827
-68.8709
-66.737
-66.1068
-66.657
-68.5196
-68.7608
-68.8635
-68.9414
-69.2727
-69.5877
-69.6875
-69.8738
-69.67
-69.5773
-69.3086
-69.0348
-68.9617
-68.4465
-67.0226
-65.4015
-59.206
-60.1656
-60.2726
-60.2603
-61.1483
-62.0294
-62.4333
-62.1608
-61.2623
-63.1628
-63.5735
-64.0246
-64.2772
-64.239
-63.2598
-62.5093
-65.5888
-67.583
-65.2541
-65.2983
-65.9013
-65.5474
-66.1944
-66.4716
-63.5336
-66.3382
-70.4148
-68.1766
-66.9295
-66.698
-67.5394
-66.4298
-66.737
-68.3703
-66.7698
-63.7906
-65.413
-68.9687
-69.1801
-67.9667
-68.7479
-69.1993
-69.3674
-69.0959
-68.2781
-67.6769
-67.4706
-67.2971
-64.8832
-65.4888
-68.3831
-69.2911
-68.6407
-68.7356
-68.8949
-69.1147
-69.1962
-69.1434
-69.394
-69.507
-69.235
-68.7459
-64.26
-64.9824
-66.6474
-68.4191
-69.2189
-69.0166
-68.7501
-69.0378
-69.3472
-69.7085
-70.1225
-69.6222
-69.3404
-69.1969
-69.0308
-69.0525
-68.8642
-66.8475
-66.2626
-66.8063
-68.6399
-68.7908
-68.8614
-68.93
-69.2674
-69.5944
-69.6956
-69.8923
-70.2251
-69.8568
-69.6635
-69.5746
-69.3204
-69.0422
-68.9579
-68.4372
-67.1145
-65.7483
-58.4803
-59.0835
-59.3393
-59.2029
-60.0622
-60.309
-60.5822
-60.5351
-60.3466
-61.2729
-61.8993
-62.3185
-62.3924
-62.7513
-62.4128
-61.3973
-63.1563
-63.5203
-64.2785
-64.1258
-64.5622
-64.3358
-64.2187
-63.0993
-62.5439
-64.7099
-68.9439
-65.4829
-65.8165
-66.2442
-66.8727
-65.7795
-65.8788
-66.4968
-67.1558
-63.5088
-65.1731
-70.8897
-69.028
-67.4075
-67.0759
-67.6925
-68.3048
-67.4343
-66.2795
-67.2746
-69.0652
-67.5138
-64.9043
-64.8731
-68.6756
-69.6536
-68.3118
-68.8406
-69.297
-69.4701
-69.469
-69.2721
-68.9965
-68.2604
-67.7313
-67.6971
-67.2372
-65.5306
-65.6399
-68.6717
-69.51
-68.5947
-68.6711
-68.8605
-69.1084
-69.3323
-70.0455
-69.0757
-69.1853
-69.5313
-69.6452
-69.3395
-68.8232
-64.8368
-65.1233
-66.8162
-68.5932
-69.2861
-68.9812
-68.7518
-69.0321
-69.3688
-69.7571
-70.1847
-70.4509
-70.0546
-69.5812
-69.3512
-69.242
-69.0629
-69.0283
-68.8636
-66.9801
-66.4117
-67.0083
-68.7409
-68.8046
-68.8532
-68.9187
-69.2627
-69.5983
-69.7057
-69.9154
-70.2389
-70.3017
-70.2158
-69.8431
-69.6586
-69.5722
-69.3338
-69.0472
-68.9541
-68.4319
-67.2256
-66.0585
-57.8286
-58.4279
-58.6198
-58.4276
-59.0506
-59.1954
-59.6342
-59.3924
-59.2962
-60.0933
-60.3979
-60.4407
-60.5173
-60.5639
-60.5595
-60.4156
-61.3383
-61.7722
-62.2402
-62.2846
-62.4165
-62.5235
-62.5366
-62.2962
-61.4999
-63.3715
-63.7293
-63.8714
-64.5646
-64.794
-65.1878
-64.5778
-64.4299
-64.1496
-62.9376
-62.2802
-64.5439
-69.3794
-66.3549
-66.2158
-66.5984
-67.1607
-67.1609
-66.7788
-65.8656
-66.5994
-67.4084
-67.4536
-63.6089
-64.6071
-70.9141
-69.5858
-67.8478
-67.4052
-67.927
-68.4067
-68.5438
-68.3048
-67.4759
-66.2819
-67.8672
-69.8813
-67.9786
-66.3556
-64.6755
-68.3599
-69.7722
-68.6637
-68.7262
-69.3476
-69.5661
-69.6196
-70.2578
-69.3027
-69.1319
-68.8821
-68.2353
-67.8015
-67.9771
-67.2252
-66.0608
-66.0421
-68.8549
-69.6529
-68.6027
-68.6124
-68.7794
-69.0941
-69.4784
-70.208
-71.0095
-69.8715
-68.9757
-69.1892
-69.6669
-69.761
-69.3634
-69.0206
-65.1722
-65.3039
-67.0054
-68.7065
-69.3438
-68.9428
-68.7475
-69.0256
-69.3965
-69.808
-70.2454
-70.5397
-70.6271
-70.361
-69.9851
-69.5456
-69.3604
-69.2793
-69.0862
-69.0187
-68.8214
-67.1359
-66.5507
-67.2212
-68.7537
-68.8035
-68.8424
-68.9108
-69.2588
-69.6029
-69.7226
-69.9431
-70.2505
-70.3206
-70.3861
-70.2736
-70.1972
-69.8329
-69.6567
-69.5692
-69.3484
-69.047
-68.9498
-68.431
-67.333
-66.3119
-57.3443
-57.7768
-57.6939
-57.8495
-58.4266
-58.6358
-58.5814
-58.7046
-58.4027
-59.1321
-59.2251
-59.4863
-59.5026
-59.6202
-59.4001
-59.3713
-60.1439
-60.4129
-60.1882
-60.7269
-61.0228
-60.7357
-61.0519
-60.5473
-60.3003
-61.544
-61.5982
-62.1234
-61.9449
-62.4143
-63.0134
-62.833
-62.6731
-62.4657
-62.4165
-61.5169
-63.7839
-63.8328
-63.7904
-64.9498
-65.0546
-65.3796
-65.3116
-65.4448
-64.5309
-64.6542
-64.5212
-63.3042
-62.5406
-64.8687
-69.6261
-67.1399
-66.8677
-66.9888
-67.0731
-67.2435
-67.0192
-66.9836
-66.7593
-66.3033
-67.5547
-68.5516
-67.7576
-64.2401
-64.4738
-70.4518
-69.7691
-68.4051
-67.6998
-68.083
-68.6291
-68.8106
-69.4103
-68.3382
-68.2606
-67.4716
-66.6885
-68.7315
-70.617
-68.3323
-67.7906
-64.6272
-68.0485
-69.8041
-68.7611
-68.8384
-69.3099
-69.6507
-69.7659
-70.4591
-71.0861
-70.0087
-69.1143
-68.9173
-68.766
-68.2627
-67.8426
-68.1509
-67.2277
-66.4097
-66.6435
-69.0163
-69.7142
-68.599
-68.5569
-68.7396
-69.1126
-69.6351
-70.3847
-71.1745
-71.7275
-70.8063
-69.6985
-68.874
-69.1074
-69.7426
-69.8123
-69.3285
-69.0288
-65.5024
-65.5012
-67.2388
-68.7586
-69.3782
-68.8904
-68.7383
-69.0204
-69.4067
-69.8644
-70.3094
-70.6261
-70.6981
-70.9575
-70.545
-70.2695
-69.915
-69.5186
-69.3722
-69.3061
-69.0973
-69.0119
-68.7198
-67.2118
-66.6712
-67.308
-68.7266
-68.82
-68.8341
-68.9047
-69.2559
-69.6097
-69.744
-69.963
-70.2587
-70.3372
-70.3979
-70.3212
-70.3724
-70.2463
-70.1627
-69.824
-69.658
-69.5653
-69.368
-69.042
-68.943
-68.4259
-67.4273
-66.5043
-57.0368
-57.3409
-57.3465
-57.3972
-57.8111
-57.6104
-57.9835
-57.9237
-57.8305
-58.5006
-58.4474
-58.5865
-58.8104
-58.6968
-58.5519
-58.5114
-59.079
-59.1665
-59.3968
-59.462
-59.8149
-59.5814
-59.7309
-59.5654
-59.36
-60.2193
-60.3691
-60.1185
-60.3906
-60.8878
-61.4838
-61.2009
-61.3675
-60.9663
-60.5633
-60.3336
-61.7413
-61.2859
-61.8006
-62.1961
-62.4803
-63.0896
-63.234
-63.0419
-62.775
-62.5159
-62.0887
-62.3479
-61.4113
-64.3522
-63.9466
-63.9504
-64.3164
-65.2192
-65.4103
-65.3641
-65.2499
-65.2775
-65.4123
-64.7135
-64.8086
-65.1774
-63.7693
-62.6411
-64.79
-69.8221
-67.3239
-67.581
-67.1797
-67.2411
-67.3883
-67.16
-67.6929
-67.0393
-66.8215
-66.5847
-66.9146
-68.06
-69.5046
-67.9939
-64.4934
-64.4414
-69.7276
-69.7735
-68.7423
-67.9291
-68.1902
-68.8192
-69.0455
-69.7078
-70.2332
-69.103
-68.1771
-68.3252
-67.5045
-67.17
-69.5232
-70.7141
-68.9309
-68.9
-64.8952
-67.7616
-69.9582
-68.8371
-68.9501
-69.3114
-69.7076
-69.9174
-70.6502
-71.4276
-71.8015
-70.8337
-69.7837
-68.9446
-68.6637
-68.7034
-68.2864
-67.8816
-68.096
-67.2785
-66.4
-67.1393
-69.2249
-69.7282
-68.5474
-68.5051
-68.7365
-69.1711
-69.768
-70.5602
-71.2579
-71.8693
-72.1343
-71.4336
-70.5657
-69.5467
-68.7889
-68.9927
-69.7367
-69.8096
-69.2589
-68.7253
-65.8878
-65.6289
-67.504
-68.8444
-69.3821
-68.8254
-68.7248
-69.0161
-69.4196
-69.9424
-70.3636
-70.6935
-70.7652
-71.018
-71.2475
-70.8878
-70.4608
-70.1927
-69.8518
-69.4963
-69.3843
-69.3261
-69.1146
-69.0017
-68.621
-67.1419
-66.7693
-67.3278
-68.7191
-68.8493
-68.8299
-68.9019
-69.2541
-69.6193
-69.7717
-69.977
-70.2769
-70.3499
-70.4086
-70.3243
-70.1806
-70.3151
-70.3587
-70.2363
-70.129
-69.8159
-69.6608
-69.562
-69.3918
-69.0462
-68.9369
-68.4161
-67.5081
-66.6414
-56.6499
-57.0229
-57.0902
-57.0232
-57.3708
-57.3203
-57.4651
-57.4309
-57.4153
-57.8831
-57.7295
-57.9479
-57.9372
-58.0141
-57.8514
-57.8008
-58.5455
-58.4764
-58.5314
-58.5508
-58.6993
-58.8726
-58.6242
-58.5627
-58.5678
-59.0699
-59.1818
-59.264
-59.3986
-59.7091
-59.9051
-59.5933
-59.7665
-59.7767
-59.4823
-59.3288
-60.1815
-60.4051
-60.0304
-60.2828
-60.7974
-61.5006
-61.7015
-61.3332
-61.2907
-61.3167
-60.8329
-60.667
-60.3343
-61.8904
-61.0239
-61.4062
-62.0425
-62.4414
-63.1035
-63.3423
-63.5674
-63.3629
-63.0978
-62.8393
-62.7353
-62.2726
-61.9687
-61.3592
-64.8154
-64.0536
-64.0449
-64.5544
-65.2489
-65.4112
-65.6141
-65.3698
-65.4016
-65.1649
-65.2412
-65.2024
-65.0253
-64.6913
-65.3107
-64.2608
-62.3887
-64.8739
-69.0422
-67.508
-68.195
-67.3418
-67.4918
-67.5198
-67.2978
-67.9827
-68.409
-67.3285
-66.8364
-66.9002
-66.6749
-67.3824
-68.3828
-70.1011
-68.1969
-64.0414
-64.4503
-68.49
-69.6428
-69.1316
-68.2114
-68.273
-68.9415
-69.2479
-69.9515
-70.575
-71.1005
-69.9196
-68.8458
-68.1735
-68.3264
-67.6677
-67.7765
-70.3481
-70.6919
-69.114
-68.6654
-65.5552
-67.6844
-69.7042
-69.1314
-68.9065
-69.3077
-69.7677
-70.0407
-70.8779
-71.7651
-72.0438
-72.5132
-71.5653
-70.5758
-69.552
-68.7715
-68.4303
-68.7571
-68.309
-67.914
-67.9244
-66.9599
-65.8097
-67.5956
-69.3334
-69.709
-68.3958
-68.4987
-68.7657
-69.2467
-69.9004
-70.7957
-71.3458
-71.9953
-72.2733
-72.439
-71.9408
-71.0757
-70.3479
-69.4636
-68.7116
-68.8779
-69.7303
-69.7785
-69.1655
-68.4331
-66.0808
-65.8067
-67.7443
-68.9364
-69.371
-68.7595
-68.7105
-69.0165
-69.4555
-70.0074
-70.4066
-70.7567
-70.83
-71.0746
-71.2977
-71.1354
-71.187
-70.8088
-70.3752
-70.1191
-69.8091
-69.4817
-69.3894
-69.3425
-69.122
-68.9798
-68.5104
-67.1116
-66.8637
-67.43
-68.7231
-68.8815
-68.8239
-68.9029
-69.2538
-69.6328
-69.7953
-69.9912
-70.301
-70.3596
-70.4199
-70.3265
-70.1795
-70.0493
-70.1804
-70.3055
-70.3455
-70.2175
-70.0986
-69.8092
-69.6652
-69.5592
-69.4062
-69.0581
-68.932
-68.4186
-67.5685
-66.7283
-56.4044
-56.6565
-56.6857
-56.6562
-57.0337
-57.0641
-57.1023
-56.8963
-56.9441
-57.383
-57.5546
-57.4626
-57.3876
-57.4058
-57.4411
-57.4772
-57.8642
-57.8619
-57.8546
-57.9333
-58.0346
-58.0015
-57.9639
-57.8483
-57.8203
-58.5526
-58.5575
-58.4722
-58.5848
-58.7055
-58.8274
-58.7676
-58.8815
-58.6866
-58.578
-58.5373
-59.0824
-59.2125
-59.1969
-59.3049
-59.5905
-59.7912
-59.9848
-59.8848
-59.7268
-59.8152
-59.7624
-59.4967
-59.4016
-59.9437
-60.2714
-60.1201
-60.5136
-60.7513
-61.3346
-61.62
-62.1303
-61.658
-61.2762
-61.3836
-61.1815
-60.8431
-60.5274
-60.1716
-61.3879
-61.073
-61.5928
-61.8578
-62.5122
-63.1231
-63.4829
-63.6004
-63.8285
-63.9313
-63.1263
-62.8668
-62.9862
-62.9159
-62.1783
-61.5949
-61.1655
-64.2792
-64.5686
-64.1302
-65.0471
-65.1002
-65.3268
-65.8614
-65.7973
-65.9234
-66.5395
-65.2226
-65.2233
-65.4207
-65.0271
-65.0446
-65.1459
-65.2852
-64.2195
-62.0627
-64.9183
-67.8318
-67.7834
-68.4494
-67.7561
-67.8479
-67.5195
-67.533
-68.2961
-68.7387
-68.8347
-67.9255
-66.9911
-66.591
-67.1354
-67.0052
-68.0695
-69.3571
-69.6509
-67.7644
-63.5851
-64.6842
-67.3902
-69.197
-69.0334
-68.2584
-68.3946
-69.1261
-69.4262
-70.1494
-70.8794
-71.4494
-71.5056
-70.7045
-69.6129
-68.5441
-68.1085
-68.1826
-67.972
-68.5485
-70.6521
-70.1802
-68.6755
-67.4098
-66.3336
-67.6565
-69.6575
-69.195
-68.8692
-69.2311
-69.7923
-70.1982
-71.1057
-72.1165
-72.2591
-72.7267
-73.522
-72.3017
-71.2916
-70.2559
-69.3405
-68.5714
-68.3207
-68.8152
-68.3903
-67.8187
-67.6892
-66.4053
-65.0289
-68.1483
-69.4133
-69.6802
-68.3251
-68.5181
-68.8122
-69.3276
-70.0567
-71.0093
-71.5315
-72.0888
-72.3823
-72.5825
-72.5322
-72.2842
-71.6852
-70.7899
-70.131
-69.434
-68.661
-68.8287
-69.7133
-69.6777
-69.0449
-68.193
-66.2763
-66.0562
-67.9447
-69.0151
-69.3536
-68.7
-68.7051
-69.0244
-69.5105
-70.0328
-70.4601
-70.8104
-70.8869
-71.1249
-71.3396
-71.1625
-70.7755
-71.097
-71.1162
-70.7318
-70.2833
-70.0465
-69.7767
-69.4741
-69.3834
-69.3526
-69.116
-68.9606
-68.3947
-67.1613
-66.957
-67.6514
-68.7159
-68.9112
-68.8188
-68.9033
-69.2546
-69.6503
-69.8131
-70.011
-70.315
-70.3683
-70.4299
-70.3276
-70.175
-70.0396
-69.7546
-70.0573
-70.1775
-70.2923
-70.3278
-70.1998
-70.072
-69.8033
-69.6708
-69.5567
-69.4125
-69.0695
-68.9275
-68.4287
-67.5867
-66.7825
-56.1333
-56.4403
-56.483
-56.3838
-56.6794
-56.8153
-56.6558
-56.6478
-56.5488
-57.0434
-57.0962
-57.098
-57.0582
-57.0331
-57.0206
-57.0787
-57.384
-57.4972
-57.479
-57.5187
-57.5634
-57.374
-57.4687
-57.5321
-57.4663
-57.8669
-57.8858
-57.8935
-57.9122
-58.0884
-58.1067
-58.0806
-58.0071
-57.9771
-57.8761
-57.841
-58.57
-58.5816
-58.5332
-58.5819
-58.6867
-58.8319
-58.8759
-58.917
-58.861
-58.8567
-58.6241
-58.446
-58.5212
-59.048
-59.1257
-59.1803
-59.3672
-59.6153
-59.7177
-59.9746
-60.2298
-59.986
-59.7681
-59.872
-59.859
-59.5536
-59.4865
-59.469
-59.6502
-60.2218
-60.207
-60.612
-60.7786
-61.2226
-61.5508
-62.0243
-62.1847
-62.2092
-61.4603
-61.1441
-61.431
-61.137
-60.8621
-60.3635
-60.0376
-61.0814
-61.3585
-61.6558
-61.5899
-62.449
-62.9021
-63.4066
-64.0168
-63.8073
-64.1806
-64.2697
-63.4737
-63.0671
-62.9904
-63.265
-63.0432
-62.0758
-61.4442
-61.126
-63.9695
-64.7681
-64.2632
-64.6362
-65.0158
-65.7961
-65.9152
-65.9156
-66.107
-66.7611
-66.5081
-66.3215
-65.8476
-65.2625
-65.4898
-65.2486
-65.1849
-65.6866
-64.8743
-63.8594
-61.4614
-64.8237
-67.1922
-68.4874
-68.4902
-67.8
-68.0091
-67.5981
-67.9119
-68.5819
-69.0182
-68.9018
-68.9177
-68.5693
-67.7876
-66.8832
-66.5788
-67.1048
-67.3201
-68.5916
-70.1665
-68.7481
-66.9256
-63.5935
-65.0092
-66.6812
-68.6565
-69.0676
-68.2201
-68.4305
-69.2364
-69.6518
-70.3252
-71.2384
-71.7181
-71.7608
-72.2893
-71.3433
-70.2954
-69.2745
-68.2283
-67.9521
-68.3912
-68.4362
-69.1914
-70.6227
-69.3936
-67.8861
-66.0617
-67.2372
-67.7958
-69.5223
-68.4691
-68.8212
-69.2212
-69.7726
-70.3839
-71.3553
-72.2727
-72.4421
-72.9354
-73.7692
-74.0707
-73.2577
-72.13
-71.0498
-69.9429
-69.0631
-68.4557
-68.3949
-68.8473
-68.4535
-67.7226
-67.5019
-66.107
-65.1709
-68.7104
-69.5418
-69.6356
-68.266
-68.5257
-68.8726
-69.4098
-70.2176
-71.0929
-71.6651
-72.0974
-72.464
-72.7128
-72.6782
-72.4419
-72.3603
-72.1121
-71.3847
-70.4635
-69.9564
-69.4198
-68.632
-68.8353
-69.68
-69.4728
-68.8638
-67.9589
-66.5125
-66.353
-68.0991
-69.0789
-69.3228
-68.6558
-68.7114
-69.0384
-69.5635
-70.0597
-70.5268
-70.8547
-70.9348
-71.1679
-71.3769
-71.1804
-70.7606
-70.3729
-70.7751
-71.0492
-71.0342
-70.6514
-70.1937
-69.9878
-69.7457
-69.4738
-69.3768
-69.3525
-69.1
-68.9464
-68.3252
-67.2197
-67.0616
-67.8518
-68.6906
-68.9332
-68.8132
-68.904
-69.2562
-69.667
-69.8375
-70.0412
-70.326
-70.3784
-70.4365
-70.3264
-70.1706
-70.028
-69.7414
-69.4718
-69.7675
-70.064
-70.173
-70.2824
-70.3046
-70.183
-70.0488
-69.7978
-69.6736
-69.5546
-69.4199
-69.0819
-68.9239
-68.4616
-67.5875
-66.822
-55.9506
-56.1488
-56.1344
-56.126
-56.4805
-56.4811
-56.4156
-56.431
-56.3264
-56.6743
-56.6815
-56.6338
-56.6846
-56.6771
-56.5467
-56.5716
-57.0234
-57.0538
-57.0762
-57.0882
-57.1512
-57.068
-57.1065
-57.0634
-57.0786
-57.4108
-57.5042
-57.5147
-57.5274
-57.5733
-57.5924
-57.4896
-57.7056
-57.454
-57.5322
-57.6278
-57.9027
-57.8835
-57.8725
-57.8964
-58.0318
-58.1268
-58.1583
-58.1562
-58.1565
-57.9924
-57.9543
-57.8226
-57.8063
-58.5394
-58.5413
-58.5535
-58.5464
-58.693
-58.7912
-58.9351
-59.0339
-59.0113
-58.9788
-58.8456
-58.7567
-58.6054
-58.4847
-58.5168
-59.0037
-59.1236
-59.1495
-59.3105
-59.5777
-59.7062
-60.0064
-60.1178
-60.3272
-59.7814
-60.0239
-60.0616
-60.0114
-59.8526
-59.5531
-59.2986
-59.3112
-59.7955
-60.2475
-60.2657
-60.4867
-60.6333
-61.121
-61.2811
-61.4812
-61.7735
-62.1255
-62.5605
-61.3862
-61.4676
-61.5945
-61.3514
-61.2158
-60.8329
-60.3149
-59.9421
-61.3256
-61.4507
-61.56
-61.7761
-62.2091
-62.3772
-63.4792
-63.8891
-63.9703
-63.9927
-64.9443
-64.6019
-64.1522
-63.2575
-63.3498
-63.3452
-63.2461
-63.1735
-61.8167
-61.0482
-61.2725
-63.4654
-64.4307
-64.4052
-64.7763
-65.3475
-66.1408
-66.1271
-66.0555
-66.3462
-66.9345
-66.6895
-66.7551
-67.1421
-66.3529
-65.5488
-65.3942
-65.702
-65.321
-65.6524
-65.7306
-64.4574
-63.6565
-61.4909
-64.6938
-66.7136
-68.1277
-67.8752
-67.5366
-67.5366
-67.7857
-68.0582
-68.8204
-69.1477
-69.0845
-69.1254
-69.4836
-68.8349
-68.3316
-67.539
-66.8599
-66.6878
-67.0021
-67.8236
-69.1808
-69.8499
-67.7535
-66.4361
-63.346
-65.1528
-66.2036
-68.1607
-68.675
-68.2563
-68.49
-69.2887
-69.8149
-70.5201
-71.3397
-71.91
-72.0066
-72.4354
-73.13
-72.1708
-71.078
-69.9237
-68.8594
-67.8915
-68.0997
-68.5317
-68.9485
-69.6436
-70.4213
-68.5576
-67.0968
-65.3432
-68.1111
-68.2137
-69.2457
-68.6272
-68.6651
-69.2271
-69.8125
-70.4694
-71.6306
-72.3701
-72.6264
-73.1548
-73.9819
-74.2804
-73.9411
-73.7828
-73.0187
-71.9061
-70.8015
-69.6466
-68.9412
-68.3698
-68.5898
-68.9668
-68.4801
-67.6753
-67.4346
-65.8961
-65.4041
-69.1954
-69.6659
-69.5402
-68.215
-68.5335
-68.918
-69.4791
-70.3155
-71.166
-71.7241
-72.1125
-72.5387
-72.8572
-72.7976
-72.5068
-71.6875
-72.3232
-72.1677
-71.9354
-71.1851
-70.1843
-69.8647
-69.4013
-68.6292
-68.8561
-69.6292
-69.2875
-68.632
-67.8274
-66.6111
-66.5873
-68.1956
-69.1253
-69.2609
-68.5981
-68.7297
-69.0598
-69.6112
-70.0916
-70.5618
-70.8873
-70.9702
-71.2019
-71.4048
-71.181
-70.7388
-70.3458
-69.9202
-70.3927
-70.7661
-71
-70.9447
-70.5683
-70.1261
-69.9362
-69.7233
-69.4738
-69.3786
-69.3493
-69.0687
-68.9391
-68.2758
-67.2989
-67.1797
-67.9438
-68.6765
-68.9502
-68.803
-68.9069
-69.2567
-69.6859
-69.8623
-70.0694
-70.3391
-70.3888
-70.439
-70.3222
-70.1653
-70.0166
-69.7278
-69.4576
-69.2846
-69.4849
-69.7797
-70.0691
-70.1671
-70.2755
-70.2857
-70.1647
-70.0283
-69.794
-69.6743
-69.5538
-69.4285
-69.0968
-68.9225
-68.5125
-67.6003
-66.8566
-55.8043
-55.9791
-55.9669
-55.937
-56.1516
-56.0982
-56.1636
-56.1135
-56.1028
-56.4834
-56.4841
-56.3839
-56.4484
-56.4842
-56.3425
-56.2885
-56.6775
-56.6986
-56.6746
-56.7186
-56.7392
-56.7151
-56.5094
-56.6565
-56.5964
-57.0344
-57.0607
-57.039
-57.1318
-57.0952
-57.1507
-57.0664
-57.0718
-57.0354
-57.0411
-57.0706
-57.4239
-57.4838
-57.3882
-57.4827
-57.5542
-57.6236
-57.5731
-57.5883
-57.527
-57.5487
-57.456
-57.494
-57.6329
-57.8898
-57.8938
-57.8549
-57.8527
-57.9458
-58.1228
-58.2433
-58.269
-58.1943
-58.2308
-58.0517
-57.9008
-57.9322
-57.8547
-57.7959
-58.5025
-58.5274
-58.5568
-58.5222
-58.6257
-58.8583
-58.951
-59.0087
-59.1403
-58.9659
-59.0292
-58.9869
-58.8247
-58.7512
-58.5258
-58.3919
-58.5066
-58.9775
-59.2409
-59.0819
-59.2348
-59.3696
-59.806
-59.9219
-59.9417
-60.2798
-60.5015
-60.1982
-59.9573
-60.0721
-60.0818
-60.0301
-59.8122
-59.5858
-59.354
-59.1393
-59.8472
-60.2017
-60.2654
-60.5211
-60.8178
-61.0172
-61.2718
-61.5377
-61.6768
-62.0472
-62.5932
-62.1625
-61.0427
-61.4905
-61.5222
-61.4964
-61.3809
-61.3124
-60.7328
-60.2056
-59.9596
-61.2614
-61.4655
-61.4435
-61.8621
-62.3634
-62.4484
-63.3666
-63.7731
-64.0284
-64.1792
-64.3757
-65.0833
-65.0881
-64.3262
-63.6266
-63.4027
-63.0459
-63.1793
-63.4702
-62.5694
-61.2869
-61.3916
-61.3167
-62.9809
-63.4815
-64.1695
-64.6379
-65.0704
-65.8269
-65.9624
-66.1155
-66.6415
-66.9574
-66.7667
-66.6474
-67.1262
-67.1849
-66.5231
-65.9333
-65.2957
-65.4489
-65.6939
-65.6731
-65.8222
-65.5051
-64.1062
-63.0569
-61.6704
-64.5377
-65.8257
-67.591
-67.5928
-67.4573
-67.696
-67.9127
-68.1021
-68.8365
-69.2318
-69.1493
-69.4015
-69.5348
-70.4968
-69.5749
-68.6495
-68.012
-67.0993
-66.6627
-66.6487
-67.2071
-68.635
-69.5143
-69.3426
-66.6994
-65.7362
-63.271
-65.4829
-66.3619
-67.8203
-68.4282
-68.0182
-68.4285
-69.2739
-69.9009
-70.693
-71.2718
-72.0589
-72.1958
-72.4864
-73.211
-73.5361
-72.9632
-72.2335
-70.657
-69.5253
-68.5131
-67.6141
-68.1808
-68.7158
-69.2637
-69.787
-70.0169
-67.9057
-66.4493
-64.8649
-68.9654
-68.544
-69.2163
-68.5757
-68.6257
-69.1878
-69.8492
-70.5861
-71.8705
-72.48
-72.7136
-73.3052
-74.1703
-74.4455
-74.0281
-73.3757
-73.7812
-73.5004
-72.8247
-71.6029
-70.4485
-69.3876
-68.8902
-68.3532
-68.7666
-69.2325
-68.4814
-67.6833
-67.3391
-65.8123
-65.4716
-69.5469
-69.7856
-69.4411
-68.1377
-68.527
-68.9457
-69.5431
-70.3546
-71.2082
-71.7056
-72.1167
-72.5953
-72.9654
-72.886
-72.5372
-71.6288
-70.858
-71.6971
-72.153
-71.9748
-71.7304
-71.0102
-69.9765
-69.7782
-69.3902
-68.6333
-68.8635
-69.5615
-69.1432
-68.414
-67.8224
-66.7894
-66.9493
-68.2742
-69.1494
-69.1892
-68.5501
-68.7619
-69.0905
-69.6649
-70.1341
-70.5703
-70.9098
-71
-71.2288
-71.421
-71.1736
-70.7146
-70.3145
-69.8898
-69.6939
-69.951
-70.4048
-70.7485
-70.9459
-70.8472
-70.4813
-70.0624
-69.8906
-69.7043
-69.4641
-69.3785
-69.3352
-69.0357
-68.9316
-68.247
-67.4014
-67.3204
-68.0481
-68.6725
-68.9348
-68.7912
-68.9105
-69.2578
-69.703
-69.8823
-70.0936
-70.3525
-70.3962
-70.4378
-70.3169
-70.1577
-70.0055
-69.7132
-69.4415
-69.2681
-68.8857
-69.3017
-69.4983
-69.7906
-70.0731
-70.1593
-70.2621
-70.2708
-70.1465
-70.01
-69.7889
-69.6768
-69.5542
-69.441
-69.1013
-68.9237
-68.5601
-67.6266
-66.8893
-55.6552
-55.8073
-55.8091
-55.7808
-55.9529
-55.9996
-55.9675
-55.9518
-55.9516
-56.1221
-56.1425
-56.1698
-56.1642
-56.1764
-56.1291
-56.0768
-56.4713
-56.5075
-56.4345
-56.479
-56.5141
-56.4728
-56.3709
-56.3921
-56.3295
-56.6929
-56.643
-56.6734
-56.7407
-56.7662
-56.7581
-56.6948
-56.6824
-56.6924
-56.6517
-56.4916
-57.0397
-57.0358
-56.962
-57.0543
-57.1561
-57.1856
-57.1645
-57.1161
-57.0659
-57.1024
-56.9522
-57.0891
-57.2298
-57.3834
-57.4288
-57.4176
-57.481
-57.5487
-57.6371
-57.609
-57.7079
-57.5972
-57.6181
-57.5081
-57.4387
-57.512
-57.4406
-57.4682
-57.8873
-57.8965
-57.8777
-57.9098
-57.9095
-58.0864
-58.1884
-58.2786
-58.4514
-58.2466
-58.2447
-57.9974
-57.9955
-57.8894
-57.891
-57.886
-57.7669
-58.4031
-58.5432
-58.5297
-58.516
-58.5841
-58.814
-58.9838
-59.0989
-59.2145
-59.3489
-59.1988
-59.056
-58.9248
-58.6388
-58.8129
-58.7473
-58.4588
-58.2751
-58.4438
-58.8368
-59.1982
-59.0501
-59.2681
-59.4328
-59.5759
-59.8685
-60.1047
-60.2452
-60.4645
-60.6227
-60.3684
-60.0448
-60.0686
-59.7951
-59.7767
-59.9483
-59.7659
-59.4628
-59.3695
-58.9824
-59.8971
-60.0935
-60.2711
-60.5237
-60.8805
-60.9906
-61.1648
-61.4858
-61.7245
-61.9779
-62.3556
-62.6003
-61.846
-61.8484
-61.2359
-61.5507
-61.31
-61.2998
-61.286
-61.0999
-60.563
-60.1354
-59.9507
-61.2762
-61.2523
-61.0123
-61.5169
-62.2542
-63.0274
-63.2288
-63.6615
-63.9136
-64.0558
-64.1688
-64.2946
-64.9126
-65.0071
-64.2577
-64.1326
-63.3494
-63.4509
-63.0528
-63.2864
-63.3839
-62.635
-61.6051
-61.1837
-61.5215
-62.6556
-63.2394
-64.4705
-64.5957
-64.8646
-65.3417
-65.7249
-66.1816
-66.6496
-67.0015
-66.7496
-66.8613
-67.0856
-67.2686
-67.1029
-66.7565
-66.2134
-65.8303
-65.1996
-65.5574
-65.8507
-66.0719
-66.0945
-65.7112
-63.6427
-63.2709
-61.8135
-64.2204
-65.3289
-67.262
-67.5505
-67.3923
-67.7752
-68.2284
-68.359
-68.8158
-69.1791
-69.2929
-69.5737
-69.5056
-70.5432
-71.8994
-70.5141
-69.5262
-68.5335
-67.751
-66.6463
-66.531
-66.8521
-67.6717
-69.0696
-69.6631
-68.9366
-66.1437
-65.5798
-63.2259
-66.2067
-66.668
-67.4012
-68.1987
-68.0937
-68.4301
-69.2826
-69.8939
-70.6754
-71.2491
-72.2906
-72.3211
-72.452
-73.1876
-73.519
-73.4181
-73.4524
-72.7581
-71.9046
-70.3746
-69.1052
-68.2455
-67.6602
-68.2896
-68.8568
-69.4306
-69.5935
-69.3824
-67.199
-65.9117
-64.7574
-69.6225
-68.818
-69.1451
-68.1523
-68.3959
-69.1441
-69.9243
-70.7086
-71.9853
-72.5547
-72.7622
-73.3561
-74.2896
-74.5625
-74.0238
-73.286
-72.4312
-73.4245
-73.5583
-73.2118
-72.4761
-71.2696
-70.0735
-69.1964
-68.8787
-68.4032
-68.8788
-69.116
-68.5195
-67.7483
-67.1605
-65.9672
-65.9958
-69.7396
-69.9202
-69.3212
-68.0556
-68.4776
-68.9707
-69.6286
-70.4201
-71.2271
-71.7062
-72.1054
-72.6185
-73.0062
-72.9544
-72.5414
-71.5161
-70.7575
-70.3358
-70.9185
-71.6727
-71.9458
-71.7678
-71.5111
-70.8062
-69.8228
-69.6956
-69.3785
-68.6353
-68.8531
-69.4815
-69.0061
-68.3068
-67.889
-67.1302
-67.5237
-68.3233
-69.1483
-69.12
-68.5517
-68.8009
-69.1291
-69.7177
-70.1725
-70.5727
-70.9224
-71.0226
-71.2498
-71.4271
-71.1636
-70.6773
-70.2821
-69.8498
-69.6496
-69.2373
-69.7379
-69.9803
-70.4107
-70.7247
-70.8859
-70.7529
-70.4003
-69.9984
-69.8542
-69.6934
-69.4454
-69.3883
-69.3156
-69.0089
-68.9275
-68.2665
-67.5214
-67.4911
-68.2413
-68.654
-68.8923
-68.7832
-68.9142
-69.2667
-69.7137
-69.9095
-70.1228
-70.3622
-70.3999
-70.434
-70.3111
-70.1481
-69.9934
-69.6976
-69.4245
-69.25
-68.8627
-68.6591
-68.9053
-69.3199
-69.5125
-69.8002
-70.0756
-70.1502
-70.2474
-70.2509
-70.1306
-69.9943
-69.7815
-69.6809
-69.5537
-69.4656
-69.0974
-68.9281
-68.6129
-67.6654
-66.9203
-55.5183
-55.6452
-55.7246
-55.6357
-55.7991
-55.8187
-55.8219
-55.7574
-55.7619
-55.9495
-55.9715
-56.0053
-56.033
-56.0004
-55.9457
-55.8851
-56.1533
-56.074
-56.1595
-56.1981
-56.2377
-56.1307
-56.261
-56.1017
-56.1133
-56.4552
-56.4846
-56.4583
-56.459
-56.5196
-56.5128
-56.4976
-56.4712
-56.298
-56.3671
-56.2938
-56.7006
-56.6396
-56.687
-56.6774
-56.7347
-56.7871
-56.7661
-56.7604
-56.6958
-56.6834
-56.6629
-56.6272
-56.4811
-57.042
-57.0087
-57.1249
-57.0891
-57.151
-57.1952
-57.2517
-57.2152
-57.2246
-57.1385
-57.1072
-57.041
-56.8748
-57.091
-57.0898
-57.3458
-57.4441
-57.4167
-57.4402
-57.5116
-57.5913
-57.6765
-57.6924
-57.8843
-57.7324
-57.6635
-57.5775
-57.4368
-57.4421
-57.4574
-57.4244
-57.5646
-57.8515
-57.9228
-57.8577
-57.8653
-58.002
-57.9957
-58.1684
-58.2507
-58.4769
-58.5371
-58.4243
-58.2316
-58.1615
-57.9686
-58.0329
-57.9203
-57.8172
-57.7897
-57.6795
-58.3499
-58.5337
-58.5059
-58.5013
-58.6821
-58.737
-58.9553
-59.1213
-59.2467
-59.3419
-59.4937
-59.3973
-59.2277
-59.0418
-58.8724
-58.7522
-58.8166
-58.6549
-58.5707
-58.4954
-58.3405
-58.7721
-59.13
-59.1516
-59.2448
-59.4239
-59.5758
-59.8457
-60.0705
-60.1782
-60.401
-60.5623
-60.7625
-60.5533
-60.4517
-60.2948
-59.8504
-59.7909
-59.8861
-59.9101
-59.7946
-59.3613
-59.2916
-58.8913
-60.0176
-59.9503
-60.2346
-60.4872
-60.7583
-61.0427
-61.1958
-61.5033
-61.677
-61.7775
-62.1303
-62.4737
-62.6232
-62.0711
-62.2679
-62.2378
-62.0813
-61.4492
-61.2341
-61.0207
-61.4315
-61.0737
-60.4669
-60.0589
-60.0382
-61.3036
-61.6791
-61.2146
-61.4905
-61.9204
-62.5784
-63.0253
-63.473
-63.9176
-64.1314
-64.1548
-64.2714
-64.5715
-64.8146
-64.595
-64.3691
-64.4912
-64.2265
-63.7232
-63.4501
-63.1315
-63.3768
-63.4577
-62.8363
-61.8524
-61.1295
-61.4873
-62.3301
-63.5822
-64.5046
-64.5302
-64.779
-65.2812
-65.7709
-66.1348
-66.6465
-66.8499
-66.7052
-66.9645
-67.0394
-67.2547
-67.946
-67.0847
-66.8235
-66.5252
-66.4533
-65.8121
-65.2013
-65.8438
-66.0978
-66.2336
-66.6711
-65.4508
-63.6444
-63.1321
-62.2152
-63.71
-64.9955
-66.6378
-67.162
-66.9716
-67.4469
-68.2104
-68.4441
-68.8491
-69.2152
-69.4092
-69.6143
-69.4645
-70.4667
-71.6373
-71.9231
-72.2109
-70.4084
-69.3312
-68.5338
-67.6112
-67.2507
-66.7495
-67.3585
-68.0781
-69.2463
-69.9326
-68.3147
-65.8549
-64.6252
-63.4136
-66.3325
-66.6725
-67.1726
-67.7957
-68.1315
-68.4691
-69.1555
-69.8643
-70.6869
-71.2484
-71.993
-72.3792
-72.4603
-73.1538
-73.3282
-73.1414
-73.6973
-73.5176
-73.269
-72.5389
-71.5961
-70.2595
-68.7226
-68.3911
-67.8237
-68.382
-68.9439
-69.484
-69.2725
-68.8603
-66.3828
-65.5851
-64.9933
-69.599
-69.1683
-68.9834
-67.8213
-68.2144
-69.1229
-70.0243
-70.851
-72.0349
-72.555
-72.7487
-73.4018
-74.3557
-74.5515
-73.9249
-73.1609
-72.3067
-71.4242
-72.4422
-73.3199
-73.3388
-72.8822
-72.0994
-70.9085
-69.7339
-69.0847
-68.9493
-68.533
-69.0019
-69.2322
-68.49
-67.8615
-66.8575
-66.2038
-66.5255
-69.9004
-70.0639
-69.2484
-67.9697
-68.4514
-68.9884
-69.7406
-70.4767
-71.2521
-71.6766
-72.0592
-72.5962
-73.0565
-72.9633
-72.4758
-71.3685
-70.6296
-70.2385
-69.9062
-70.4159
-70.9329
-71.607
-71.721
-71.5508
-71.2941
-70.5792
-69.7339
-69.6274
-69.3385
-68.6628
-68.8773
-69.4266
-68.857
-68.2623
-67.9287
-67.5938
-68.2595
-68.3379
-69.1159
-69.0533
-68.5743
-68.8426
-69.1733
-69.7632
-70.2076
-70.5695
-70.9275
-71.0364
-71.2612
-71.4184
-71.1356
-70.6314
-70.2539
-69.8056
-69.5974
-69.1684
-68.7422
-69.3021
-69.7776
-70.0063
-70.4077
-70.6996
-70.8229
-70.6797
-70.3415
-69.9621
-69.828
-69.6976
-69.4531
-69.4067
-69.3068
-68.9919
-68.908
-68.3413
-67.6583
-67.6753
-68.2966
-68.6392
-68.8782
-68.7785
-68.9169
-69.285
-69.7287
-69.9411
-70.1479
-70.3681
-70.4017
-70.4303
-70.3047
-70.1362
-69.9805
-69.6802
-69.4066
-69.2281
-68.8481
-68.6408
-68.6822
-68.6793
-68.9249
-69.337
-69.5256
-69.8081