/*--------------------------------*- C++ -*----------------------------------*\
  =========                 |
  \\      /  F ield         | OpenFOAM: The Open Source CFD Toolbox
   \\    /   O peration     | Website:  https://openfoam.org
    \\  /    A nd           | Version:  7
     \\/     M anipulation  |
\*---------------------------------------------------------------------------*/
FoamFile
{
    version     2.0;
    format      ascii;
    class       volScalarField;
    location    "7.5";
    object      nut;
}
// * * * * * * * * * * * * * * * * * * * * * * * * * * * * * * * * * * * * * //

dimensions      [0 2 -1 0 0 0 0];

internalField   nonuniform List<scalar> 
18630
(
0.000289286
0.000312905
0.000145429
0.000206859
0.000780428
0.000358598
0.00025067
0.000282332
0.000119871
0.000210141
0.000804551
0.000822383
0.000626533
0.000369478
0.000439237
0.000370269
0.000223849
0.000109375
0.000127939
0.000132945
0.000864402
0.000285644
0.000670842
0.000903675
0.000562272
0.000792698
0.000381337
0.000479406
0.000169145
6.01373e-05
5.7746e-05
0.000103125
0.000174909
0.000132748
0.000144955
0.000206056
0.000535111
0.000998805
0.000633948
0.000583812
0.00134338
0.00102374
0.000306714
0.000709491
0.000747529
0.000541016
0.000380597
0.000377814
0.000171141
0.000377953
0.000125492
0.000179133
0.000267767
0.000268072
8.86773e-05
0.000252602
0.000830434
0.000451834
0.00128903
0.000509596
0.000739045
0.00132374
0.0010623
0.00077014
0.00114345
0.000851692
0.000940124
0.000536886
0.000494585
0.00058346
0.000309061
0.000807567
0.000300938
0.000504912
0.000382976
0.000391472
0.00055465
0.00014505
0.0002006
0.000127418
0.000352056
0.000307824
9.25007e-05
0.000230493
0.000414856
0.000857253
0.000686583
0.000494261
0.000508616
0.00112275
0.00116807
0.00110766
0.00126974
0.000699335
0.000762358
0.00101775
0.000830359
0.000914417
0.000785159
0.000785853
0.000625968
0.000427575
0.000383924
0.000259158
0.000249177
0.000801559
0.000247909
0.000348045
0.000276895
0.000732822
0.000342663
0.000244164
0.000142571
0.000174076
0.000125884
0.000214742
0.000131693
0.000328133
9.13632e-05
0.000118678
0.000888274
0.000668835
0.0008846
0.000412143
0.000614088
0.000730142
0.000768564
0.000598229
0.000365718
0.000529904
0.000917367
0.00089889
0.000746028
0.00074753
0.000461847
0.000658522
0.00110202
0.000694475
0.000713261
0.000639296
0.000422444
0.000643427
0.000526501
0.000382544
0.000458153
0.000187537
0.000349849
0.000440118
0.000642139
0.000213464
0.000325886
0.00019217
0.00110692
0.000336006
0.000204433
0.000475524
0.0002016
0.000149715
0.000170784
0.000164374
0.000547594
0.0001804
0.000130927
0.000105262
0.00023392
0.000995023
0.000803267
0.00099479
0.000480221
0.000614487
0.000247939
0.000675386
0.000535045
0.000985375
0.00123739
0.000994019
0.00112527
0.000940542
0.000303975
0.000926969
0.000694082
0.00111056
0.00103915
0.000785817
0.00066037
0.00156635
0.00059495
0.00101577
0.000622883
0.000783165
0.000513054
0.000277388
0.000484522
0.000576271
0.000486592
0.000391869
0.000501122
0.000222482
0.000253253
0.000287708
0.000441656
0.000470148
0.00030485
0.000370336
0.000180205
0.000349137
0.000336627
0.000239577
0.000564184
0.000540837
0.0002294
0.000139545
6.04029e-05
0.000132576
0.000353014
7.20914e-05
0.000119742
0.000118912
0.000322216
6.10407e-05
0.000710128
0.000708796
0.000685016
0.000324928
0.000904563
0.00103571
0.000699242
0.0010918
0.000808376
0.000685532
0.000725211
0.000590704
0.00109724
0.000947261
0.00102226
0.00068518
0.00101559
0.000328823
0.000567922
0.00085106
0.000724709
0.000659395
0.000806394
0.000734324
0.00109365
0.000409876
0.000411346
0.000886809
0.000529894
0.00079283
0.000516087
0.000457046
0.000650941
0.000284735
0.000365811
0.000370519
0.000742498
0.000579126
0.000364664
0.000174078
0.000240092
0.000435323
0.000325214
0.000337524
0.000477898
0.000550277
0.000349394
0.000448866
0.000459594
0.000230698
0.00038386
0.000280082
0.000487209
0.000394902
0.00026653
0.000246325
0.000139736
0.000162819
0.000351832
0.000262146
0.000117738
6.53956e-05
0.000201307
9.96145e-05
0.000182272
0.000282322
0.000265398
0.000388055
0.000460514
0.000726903
0.000569141
0.000802806
0.000568032
0.00044307
0.000514074
0.000568568
0.00102204
0.00108392
0.000528738
0.000665911
0.00129435
0.000565444
0.000582795
0.000682934
0.000571553
0.00153195
0.000817512
0.000562947
0.000905822
0.000937024
0.000671638
0.000672841
0.000740456
0.000623678
0.000626738
0.000988377
0.00100992
0.000527384
0.000694356
0.000587427
0.000604094
0.000345543
0.000388873
0.000643223
0.000414325
0.000764487
0.000696785
0.000469782
0.000543869
0.000441517
0.000317273
0.00047253
0.000313563
0.00106248
0.000294889
0.000310133
0.000634708
0.000602236
0.000788818
0.000488905
0.000595117
0.00059478
0.00038842
0.000534825
0.000236976
0.000365597
0.000468453
0.000238409
0.000274494
0.000290107
0.000311042
0.000350873
0.000202916
0.000167081
0.000233638
0.000103063
0.000457979
0.000267462
0.000150815
9.4581e-05
7.52913e-05
7.06188e-05
0.000238767
8.03582e-05
0.000403585
0.000490586
0.000370194
0.000171942
0.000613716
0.000642596
0.000520881
0.000848777
0.000287053
0.000614508
0.000593669
0.000278445
0.000665008
0.000754278
0.000387819
0.000702338
0.000639902
0.000292771
0.000759008
0.0016092
0.000702204
0.000434657
0.000621768
0.000709759
0.00112699
0.00047356
0.00070626
0.000596209
0.000570512
0.000865542
0.00101095
0.000570731
0.00120422
0.00101865
0.000510306
0.000770195
0.000798029
0.000507845
0.00112743
0.000301339
0.00106351
0.000689752
0.000810464
0.000592636
0.000879467
0.000187762
0.000328298
0.000647976
0.000617688
0.000330381
0.000463868
0.00045458
0.000677132
0.000577737
0.000305621
0.00055804
0.000509256
0.000412449
0.000400551
0.000389757
0.000341995
0.000536442
0.000644834
0.000453935
0.000471052
0.000485419
0.000358315
0.000369961
0.000372105
0.000360483
0.000408039
0.000191205
0.000399851
0.000376393
0.000329427
0.000428474
0.000203874
0.000390312
0.000378489
0.000244918
0.000231107
8.1586e-05
6.82886e-05
0.000473219
0.000215591
0.000284587
9.05862e-05
0.000204128
4.89835e-05
0.000114045
0.00010748
0.000135967
0.000606335
0.000450376
0.000412872
0.000687757
0.000634154
0.000459928
0.000486882
0.000164571
0.000699593
0.000705797
0.000710462
0.000380865
0.000263943
0.000852333
0.000420207
0.00077582
0.000693097
0.000736986
0.000896329
0.000467082
0.000688467
0.000458337
0.000571082
0.000944397
0.000714155
0.00177283
0.0011895
0.00108295
0.000524712
0.000537135
0.000415748
0.000892868
0.00118335
0.00080734
0.000965308
0.000523614
0.000707302
0.000436492
0.000599144
0.000756228
0.000832469
0.00183454
0.000370221
0.00077355
0.00067118
0.000673143
0.000527129
0.000604216
0.00082036
0.000744594
0.000583903
0.00082232
0.000683888
0.00067812
0.000714131
0.000249196
0.000223419
0.000610018
0.000609552
0.00037906
0.000460433
0.000538807
0.000197662
0.000339218
0.00042213
0.000338345
0.000566565
0.000319946
0.000368348
0.000435664
0.000607454
0.000498364
0.000401754
0.000426829
0.000287777
0.000474479
0.00043576
0.000531263
0.000344965
0.000764697
0.000303486
0.000298607
0.000343813
0.000763397
0.000233712
0.00056797
0.000281057
0.000397487
0.000497332
0.000168461
0.000480754
0.000413265
0.000160171
0.000213111
0.000188608
0.000158949
0.000288028
0.00017237
0.000218099
5.293e-05
0.000244296
0.000125151
0.000141394
0.000221858
0.000105594
0.000108867
0.000157119
0.000590147
0.000673164
0.000363726
0.000506999
0.000227469
0.000347116
0.000499213
0.00036553
0.000744207
0.000407631
0.000525492
0.000408188
0.000444391
0.000508981
0.000720288
0.000602177
0.00060525
0.000481142
0.000509344
0.000480386
0.00123912
0.000540498
0.000373034
0.00038855
0.000391415
0.00111477
0.000327258
0.000392351
0.00128831
0.00112736
0.000517555
0.000298207
0.000932504
0.000838666
0.000430158
0.000726258
0.00180018
0.000586262
0.000569953
0.000485542
0.00110481
0.000420971
0.000272339
0.00121242
0.00058697
0.000565763
0.000655989
0.000326442
0.000670161
0.000444494
0.000408179
0.0015407
0.000265907
0.000565101
0.000572823
0.000569433
0.000517163
0.000552419
0.000438444
0.000657903
0.000539493
0.000441358
0.000811032
0.000748082
0.000696454
0.000544294
0.000668154
0.00045792
0.000485009
0.000947956
0.000465813
0.00063206
0.000758611
0.000425691
0.000504365
0.000276071
0.000257964
0.000523829
0.000345548
0.000684012
0.000624919
0.000601646
0.000323957
0.000277814
0.00134789
0.000894326
0.000345008
0.00115908
0.000444198
0.000313987
0.000479986
0.000548443
0.000111704
0.000377294
0.00068404
0.000332571
0.000217878
0.000253946
8.11606e-05
0.000131253
0.000421188
0.000357419
0.000340445
0.000292994
0.00019212
0.000747002
0.000505178
0.000305023
0.0002159
0.000280895
0.00030509
0.000317622
0.000129475
0.00023477
0.000178455
7.9923e-05
0.000335481
0.000101485
9.95363e-05
0.00015249
0.00018997
0.000183445
0.000136372
0.000161377
0.000484318
0.000332278
0.000328629
0.000412486
0.000440217
0.000242928
0.000329536
0.000476634
0.000332475
0.000368402
0.000523526
0.00042678
0.00034514
0.000360761
0.000627364
0.000502993
0.000417386
0.000272965
0.000637142
0.000510905
0.000651697
0.000339858
0.000147848
0.000377035
0.000544275
0.000398411
0.000536634
0.00046879
0.000379454
0.00112644
0.000311305
0.000371724
0.000348474
0.000434043
0.000267524
0.000302922
0.00125398
0.00141725
0.000676249
0.000807405
0.000621361
0.000391052
0.000335219
0.000565145
0.000471089
0.00233086
0.000215488
0.000808485
0.00058385
0.000678328
0.000295808
0.00102295
0.000738085
0.000340267
0.000476813
0.000572405
0.00024008
0.000604652
0.000500244
0.000614604
0.000320454
0.000582179
0.000643566
0.000545026
0.000822086
0.000698307
0.000666716
0.000704832
0.000632997
0.000430211
0.000448069
0.000515789
0.000399097
0.000626248
0.000478562
0.000605093
0.000870795
0.000767309
0.000549538
0.00076843
0.000351188
0.000670319
0.000535606
0.000330711
0.000272585
0.000506377
0.000634502
0.000529488
0.000595364
0.000122102
0.000581136
0.000545878
0.000387625
0.000624239
0.000539346
0.000861964
0.00158753
0.000302866
0.000362084
0.000258401
0.00014764
0.00041493
0.000983641
0.000693446
0.000436361
0.000468679
0.000397706
0.00039896
0.000439211
0.00073509
0.000381757
0.000348267
0.000382169
0.000217061
0.000292456
0.000233327
0.000338545
0.000329144
0.000401584
0.000272218
0.000254344
0.000808717
0.000426606
0.000314021
0.000290811
0.000162432
0.000200456
0.000183056
7.92227e-05
9.5057e-05
0.000107289
0.000191882
0.000160149
9.84816e-05
0.000140606
8.64701e-05
0.000208404
0.00013157
7.42404e-05
0.000389725
0.000169245
9.79269e-05
0.000409965
0.00054423
0.000361056
0.000310836
0.00035004
0.000267684
0.000259826
0.000388645
0.000269716
0.000235263
0.000485108
0.000495637
0.000368641
0.000447407
0.000513695
0.000313743
0.000351067
0.000450884
0.000570751
0.000205749
0.000267806
0.000282875
0.000439372
0.000709772
0.000649266
0.000397154
0.000374207
0.000586513
0.000631192
0.00023289
0.000552494
0.000282812
0.000109472
0.000202151
0.000530355
0.000541824
0.00045943
0.000475561
0.000388637
0.000322994
0.000351181
0.000580229
0.000599711
0.000281233
0.000811972
0.000483537
0.000587305
0.000534417
0.000886465
0.000576941
0.000396506
0.000413951
0.000321287
0.000774981
0.00079835
0.000629267
0.000324155
0.000974519
0.000352124
0.000503269
0.000337531
0.000678938
0.000657106
0.000597524
0.00105336
0.000484441
0.000465978
0.000422579
0.000369509
0.000430161
0.000530497
0.000442062
0.000662552
0.000440606
0.00049696
0.000813919
0.000798935
0.000671387
0.000778424
0.000732055
0.000661122
0.000474571
0.000576443
0.000373948
0.000358645
0.000357673
0.000518945
0.000579815
0.00047138
0.000607009
0.000851331
0.000990507
0.000889118
0.000540501
0.000478112
0.000321436
0.000845616
0.00081266
0.000770388
0.000428099
0.000489812
0.000451085
0.0010646
0.000330115
0.000318657
0.000608179
0.000433949
0.00042767
0.000515826
0.000631717
0.00138348
0.00140274
0.000808971
0.00043223
0.00030086
0.00032446
0.000380302
0.000529493
0.000559617
0.000344179
0.000442642
0.000471584
0.000398838
0.000545505
0.00050237
0.000657214
0.000431411
0.000299736
0.000351422
0.000297171
0.000326068
0.000479626
0.000358262
0.000287615
0.000640068
0.000415278
0.000293991
0.000376404
0.000795522
0.000367666
0.000225336
0.000356587
0.000131456
0.000211173
0.000232478
0.000117855
9.04619e-05
0.000180295
7.89581e-05
8.82245e-05
0.000121184
7.6923e-05
0.000118242
0.000113616
0.000141258
8.66798e-05
0.000114095
0.000272386
0.000223625
9.31495e-05
0.00012557
0.00055441
0.000474878
0.000412761
0.000468265
0.000460413
0.000546139
0.000400994
0.000285488
0.000385718
0.000331249
0.000258369
0.000337253
0.000332769
0.000380005
0.00028871
0.000434613
0.000524456
0.000311843
0.000324694
0.000339835
0.000483796
0.000540328
0.000400343
0.000490035
0.000311993
0.000513635
0.000549565
0.000473036
0.000407391
0.000153269
0.000333543
0.000506784
0.000567312
0.000486414
0.000775922
0.000422968
0.00041752
0.000473793
0.000150608
0.000435649
0.000419281
0.000327694
7.25316e-05
0.000265764
0.000105735
0.000196256
0.000383805
0.000445592
0.000707253
0.000529195
0.000500487
0.000395147
0.000269454
0.00049193
0.000313704
0.000862921
0.000766667
0.000711224
0.000874465
0.000745127
0.000578292
0.000393915
0.000510801
0.000329378
0.00025373
0.00104193
0.000813172
0.000496503
0.000368146
0.000575048
0.000552436
0.00052264
0.000549743
0.00065038
0.000338216
0.000382204
0.000438946
0.000776158
0.000564987
0.000689221
0.000324371
0.000312601
0.000425006
0.000595212
0.0005024
0.000709597
0.000290219
0.000367674
0.000697283
0.000714654
0.00124555
0.000809285
0.000649957
0.0006424
0.000499565
0.000660527
0.000405367
0.000318513
0.000496047
0.000514805
0.000715113
0.000593481
0.000521448
0.000747727
0.00072658
0.000594369
0.000881225
0.000659361
0.00054095
0.000690251
0.000454515
0.000955909
0.00123224
0.00111671
0.00062806
0.000578389
0.000551854
0.000455594
0.000354474
0.000535152
0.000555594
0.000508099
0.000254825
0.000461251
0.000616826
0.000639655
0.000767099
0.00112294
0.000470989
0.000533681
0.000439407
0.000300838
0.000442251
0.000724112
0.000205188
0.000577008
0.000431839
0.000554202
0.000491415
0.000436329
0.00110498
0.000467444
0.000942232
0.000384282
0.000426956
0.000387747
0.000424629
0.000308349
0.000301399
0.000682386
0.000537085
0.000236452
0.000991386
0.000223767
0.000246597
0.000196036
0.000940906
0.00046503
0.000188925
0.000321818
0.00013068
0.000185281
0.000199869
0.000364673
0.000132464
0.000205571
0.000139455
0.00018988
8.25658e-05
7.87417e-05
0.000264097
0.000114413
9.3313e-05
0.0003432
0.00019535
6.09388e-05
9.14782e-05
0.000158235
0.000129974
0.000135521
0.000145785
0.000642304
0.000518242
0.000495207
0.000465278
0.000435194
0.000439698
0.000367489
0.000334678
0.000468761
0.000460833
0.000218104
0.000324643
0.000382777
0.000280181
0.000248586
0.000379179
0.000206568
0.000173912
0.000538746
0.000575647
0.000414702
0.000343289
0.000588174
0.00043072
0.000508831
0.000311503
0.000330199
0.000395611
0.000583376
0.000410597
0.000559031
0.000324845
0.000204386
0.000441379
0.000580025
0.000429091
0.000397441
0.000416006
0.00037861
0.00016456
0.000304821
0.000193779
0.000482558
0.000642198
0.000383694
0.00034322
0.000478847
0.000384325
0.000252155
0.000259098
0.000706113
0.00051588
0.000497401
0.000403477
0.000138092
0.000248516
0.000271076
0.0005721
0.000429742
0.000363793
0.000597721
0.000714431
0.00055324
0.000442625
0.000485966
0.000383019
0.000335283
0.000496332
0.000714982
0.000621916
0.000490009
0.000726835
0.000572423
0.000482225
0.000477565
0.000201625
0.000304735
0.000354829
0.000597183
0.000933923
0.000306509
0.000740657
0.00052895
0.000255755
0.000684214
0.000426077
0.000355003
0.000547187
0.000319989
0.000313828
0.000661127
0.000568883
0.000675346
0.000665958
0.000405419
0.000310551
0.000519376
0.000693428
0.000397574
0.000409411
0.0004563
0.000283884
0.000568818
0.000994655
0.000708253
0.0007068
0.000697048
0.00065506
0.000734266
0.000632745
0.000554581
0.000553115
0.000401941
0.000686291
0.00077009
0.000897948
0.000861183
0.000470437
0.000514144
0.000939866
0.000628118
0.000605747
0.000582773
0.00102495
0.000286394
0.000472483
0.000487584
0.0008346
0.00112468
0.00073604
0.00033579
0.000471394
0.000231622
0.000800761
0.00044175
0.000582509
0.000542409
0.000522688
0.000481842
0.000247927
0.000475245
0.000439405
0.000413324
0.000511232
0.000944979
0.000500788
0.000372756
0.000167581
0.000381004
0.00029242
0.00050788
0.000476315
0.000294991
0.000386384
0.000567174
0.000301078
0.000438294
0.000303906
0.000452069
0.000379372
0.00073151
0.000394114
0.000344013
0.000766666
0.000169663
0.000375234
0.00034092
0.000268709
0.000259992
0.000228089
0.000236145
0.000128096
0.00038108
0.000398992
0.000169781
0.000681171
0.000418362
0.000311074
0.000390381
0.000203996
0.000226866
0.000265473
0.000109884
0.000128217
8.97871e-05
0.000129811
9.62011e-05
0.000209796
0.00020216
5.42098e-05
0.000122132
0.000180317
8.9698e-05
0.000165725
0.000262484
0.000153833
0.000172157
9.22658e-05
0.000135117
0.000178059
0.000282536
0.000146971
0.000966399
0.000681174
0.000610259
0.000514028
0.000505293
0.000476589
0.000295093
0.000321258
0.000406418
0.000373683
0.000328018
0.000249512
0.000212898
0.000528021
0.000526763
0.000157337
0.000322801
0.000320076
0.00024148
0.000336024
0.000383275
0.000301105
0.0001653
0.000293595
0.000451612
0.000381083
0.000425395
0.000480378
0.000368071
0.00061108
0.000552242
0.000590546
0.000451607
0.000391641
0.000446357
0.00042292
0.000321036
0.000562752
0.000414683
0.000254883
0.000202905
0.000313795
0.000499157
0.000478137
0.000389667
0.000222345
0.000375384
0.000520561
0.000363005
0.00034147
0.000357918
0.000321762
0.000199808
0.000280169
0.000270847
0.000502684
0.000581038
0.000400333
0.000456373
0.000303104
0.000412373
0.00030557
0.000383651
0.000457905
0.00048212
0.000707864
0.000298347
0.000410798
0.000128378
0.000505301
0.000359995
0.000395942
0.000505201
0.000555525
0.0006938
0.000373204
0.000380897
0.000367564
0.00044266
0.000391126
0.000544909
0.000507553
0.000610769
0.000676867
0.000588187
0.00039044
0.000469136
0.000282646
0.000316673
0.000557228
0.000315752
0.000263473
0.000658756
0.000949657
0.000345869
0.000661857
0.000678895
0.000476211
0.000377446
0.000514492
0.000545862
0.000655267
0.000322302
0.000225909
0.000747415
0.000628009
0.000282784
0.000938723
0.000633979
0.000500833
0.00041905
0.000589791
0.000397888
0.000584158
0.000383499
0.000440442
0.000304436
0.000490797
0.000403181
0.00055569
0.00103774
0.00058116
0.000691014
0.000673047
0.00071287
0.000657037
0.000546488
0.000621774
0.000342199
0.000608949
0.000777021
0.000923317
0.000627413
0.000570935
0.000843299
0.000515912
0.00074983
0.00053117
0.000994917
0.000311056
0.000779553
0.000720668
0.000570561
0.000504353
0.000573704
0.00058012
0.000714769
0.000257247
0.000323428
0.000369388
0.000293193
0.000435833
0.000658701
0.000660634
0.000156823
0.000763278
0.00021218
0.000460526
0.000385163
0.000680564
0.000741799
0.000510112
0.000429152
0.000573267
0.000337529
0.00044758
0.000202013
0.000373935
0.000622724
0.000522331
0.000355792
0.000452409
0.000320487
0.000425178
0.000457395
0.000279429
0.000169968
0.000295817
0.000347085
0.000371669
0.000479298
0.000350829
0.0004404
0.000200431
0.000227577
0.000296593
0.000342032
0.000320983
0.000497076
0.000364542
0.000229984
0.000445332
0.000236705
0.00043552
0.000134691
0.000889272
0.000362818
0.000282935
0.000213923
0.000307936
0.000240312
0.000257283
0.000187155
0.000287901
0.00034314
0.000104662
8.89096e-05
0.000146972
0.00017569
0.000153299
0.000129401
9.10759e-05
0.00012991
0.000111946
0.000220034
0.000173528
4.94055e-05
0.000200793
0.000101191
0.000138402
0.000176817
0.000341832
0.000175863
0.000159383
0.00136938
0.00104666
0.000915947
0.000696493
0.000611211
0.000682062
0.000509814
0.000446839
0.000506265
0.00047566
0.000401803
0.000323441
0.000304707
0.000483142
0.000284137
0.000284727
0.000271845
0.000156315
0.000395812
0.000461277
0.000437498
0.000226218
0.000201101
0.000343435
0.000499139
0.000337336
0.000394793
0.000427089
0.000333523
0.000370969
0.000292891
0.000241003
0.000221571
0.000462171
0.000536863
0.000433457
0.000590385
0.000457812
0.000615779
0.000463483
0.000405364
0.000341993
0.000365169
0.000346147
0.00052256
0.000379775
0.000474581
0.000214145
0.000198385
0.000389003
0.000260634
0.000365819
0.000501372
0.000515964
0.00040717
0.000314528
0.000252406
0.000272122
0.000390978
0.000230251
0.000450271
0.000512122
0.000336083
0.000557297
0.000378227
0.000324137
0.000258436
0.000179682
0.000310093
0.000256007
0.000347704
0.000168668
0.00032577
0.00038232
0.000480432
0.000309078
0.000320274
0.000366827
0.000219978
0.000353
0.000366765
0.000333607
0.000421812
0.000440507
0.000516632
0.000562704
0.00055485
0.000372901
0.000426707
0.000532213
0.00037502
0.000451274
0.000380691
0.000404523
0.000650191
0.000825839
0.000775495
0.000703635
0.000568427
0.00041658
0.000229524
0.000303238
0.000354217
0.000372421
0.000409784
0.000391704
0.000355166
0.000853176
0.000844834
0.000264594
0.00048316
0.000590647
0.000485528
0.000647249
0.000599612
0.000543952
0.000428539
0.000480964
0.000330078
0.000615616
0.000803893
0.000686333
0.000533265
0.000880347
0.000730571
0.000268503
0.000444909
0.000788417
0.000469237
0.000372108
0.000472028
0.000563487
0.000564973
0.000345534
0.000466174
0.000515855
0.000696374
0.000715926
0.000894424
0.000713704
0.000543005
0.000571887
0.000674833
0.00045963
0.000456899
0.000533826
0.000496028
0.000744716
0.000872427
0.000733465
0.000361853
0.000228029
0.000678358
0.000620812
0.000512116
0.000410175
0.000499695
0.000537301
0.00052485
0.00066916
0.000496813
0.000423953
0.000443698
0.000652269
0.00114915
0.0004481
0.000205738
0.000475771
0.000416104
0.000926977
0.000432872
0.00078413
0.000332085
0.00044888
0.000600498
0.000254734
0.000429268
0.000370143
0.00051359
0.000818612
0.000414705
0.00052992
0.000562082
0.000426124
0.000361737
0.00035328
0.000370849
0.000491671
0.00055723
0.000477592
0.000417747
0.000575689
0.000337148
0.000438927
0.000441615
0.000414297
0.000522603
0.000303042
0.000301131
0.00037754
0.00060013
0.000180207
0.000115744
0.000210131
0.000235368
0.000512839
0.000292771
0.000352244
0.000275143
0.000272232
0.000377095
0.000241033
0.000529523
0.00023984
0.000340956
0.000316178
0.000825177
0.000329231
0.000306454
0.000218286
0.000246825
0.000358571
0.00014193
0.000172771
0.00026483
0.000423096
0.000178567
9.06716e-05
0.000146951
7.97457e-05
0.000177533
6.88931e-05
5.46187e-05
0.000132064
0.000108591
0.000122866
0.0003635
0.000146638
5.762e-05
0.000358465
0.000229207
0.000215971
0.000191371
0.000427799
0.000263236
0.000150765
6.9019e-05
0.00112976
0.00132517
0.00128962
0.000930029
0.00078891
0.000951085
0.000590814
0.000502514
0.000503927
0.000606736
0.000521322
0.000396696
0.000359031
0.000387894
0.000414892
0.000367169
0.000433156
0.000299605
0.000271731
0.000432304
0.000473439
0.000201215
0.000231644
0.000253078
0.00031853
0.000590934
0.000586719
0.000471626
0.000314619
0.000232926
0.000489815
0.000561236
0.000564633
0.000641157
0.000628875
0.000380724
0.00049767
0.000478372
0.000236604
0.00035015
0.000190762
0.000187353
0.000414694
0.000434998
0.000406812
0.000569801
0.000643795
0.000508512
0.000582109
0.000400995
0.000348617
0.000304033
0.000340189
0.000326339
0.000458368
0.000602872
0.000255828
0.000280189
0.000255642
0.000159583
0.000367313
0.000423895
0.000290427
0.000353087
0.000285316
0.000340579
0.000361782
0.000450572
0.000228223
0.000260909
0.000364318
0.000304072
0.000443792
0.000332952
0.000480707
0.000484593
0.000391424
0.000550866
0.00031812
0.000281317
0.000276178
0.000322582
0.00035771
0.00026123
0.000196833
0.000197061
0.000202865
0.000462358
0.000521599
0.000513296
0.000334529
0.000363001
0.000429156
0.000376116
0.000407322
0.000270851
0.00048847
0.000578074
0.000482396
0.000345751
0.000410271
0.000389245
0.000427284
0.000255584
0.000269789
0.000419464
0.000431675
0.00025889
0.000178753
0.000461326
0.000681077
0.000427895
0.000306482
0.000394119
0.00038722
0.000324454
0.000581828
0.000404359
0.000445514
0.00049635
0.000292522
0.000303803
0.000699152
0.000709519
0.000506179
0.000602085
0.000565506
0.000415476
0.00044588
0.000574614
0.00067878
0.000473537
0.000541467
0.000490907
0.00037422
0.000459604
0.000620219
0.000417597
0.000840485
0.0003449
0.000655431
0.000519195
0.000420609
0.000603487
0.000544163
0.00053822
0.00062445
0.000796827
0.000735663
0.000621049
0.000630216
0.000429335
0.000571881
0.000540988
0.000777734
0.000655577
0.00114708
0.000664691
0.00059269
0.000516832
0.000638618
0.000576177
0.000668987
0.000488664
0.0004209
0.000524662
0.000472638
0.000494748
0.000337991
0.000236368
0.000335126
0.000886048
0.000697691
0.000642774
0.000449657
0.000677368
0.000461549
0.000581464
0.000800026
0.000496109
0.000431663
0.000710109
0.000531189
0.000807203
0.000415103
0.000308179
0.00058711
0.000422859
0.000426095
0.000871604
0.000669306
0.000319536
0.000543238
0.000602363
0.000487943
0.000384178
0.000437707
0.00041376
0.000555544
0.000385882
0.000470769
0.000529268
0.000412811
0.000491442
0.000279555
0.000393974
0.000323437
0.000217315
0.000298094
0.000362806
0.000471458
0.000294194
0.000568949
0.000325776
0.000550801
0.0003896
0.00060776
0.000570909
0.000356271
0.000343565
0.000234882
0.000644365
0.000156749
0.000159744
0.000183159
0.000315234
0.000530691
0.000489234
0.00021598
0.000387527
0.00022219
0.000188034
0.000303794
0.000258024
0.00016713
0.000399331
0.000358818
0.000443114
0.000289777
0.000262743
0.000334017
0.000353156
0.000200704
0.000525606
0.000260438
0.000173127
0.000408052
0.000455823
0.000288565
0.000349451
8.96499e-05
0.00015675
0.000204518
0.000241256
8.29213e-05
7.13919e-05
9.3884e-05
0.000128384
0.000116136
0.000506658
0.00017559
0.000136418
0.000549952
0.000179858
0.00028429
0.000210328
0.000478398
0.000378947
0.000243164
0.000129972
4.51249e-05
0.000558069
0.00208951
0.00115586
0.00106596
0.00129229
0.00122482
0.00130429
0.000912413
0.000867538
0.000849041
0.00100098
0.000627987
0.00062672
0.000569842
0.000556615
0.00053714
0.000448412
0.000429961
0.000388281
0.000366215
0.000382185
0.000436256
0.000312444
0.000340652
0.000307395
0.000355691
0.000443333
0.000416068
0.000416133
0.000202562
0.00024489
0.000251768
0.000366382
0.000418604
0.000386868
0.000472459
0.000334607
0.000333722
0.000324183
0.000306154
0.000426408
0.000537285
0.000417595
0.000394641
0.000389159
0.000259524
0.000539354
0.00048344
0.000329974
0.000331101
0.000206564
0.000398132
0.000225142
0.000402488
0.000328922
0.000389658
0.000383508
0.000347384
0.000426724
0.000512927
0.000493934
0.000335085
0.000317697
0.000405025
0.000356239
0.000395997
0.000414028
0.000353847
0.000228652
0.000456393
0.000300982
0.00024431
0.000325126
0.000295865
0.000250932
0.000252443
0.000262169
0.000357126
0.000350638
0.000426726
0.000538175
0.000292176
0.000393838
0.00025037
0.000386492
0.000326271
0.00041854
0.00044677
0.000475105
0.000396701
0.00032516
0.000234302
0.00047479
0.000498373
0.000190853
0.000363854
0.000333997
0.000208628
0.000118704
0.000301073
0.000463777
0.000274819
0.000400581
0.000203125
0.000607614
0.000311407
0.000340858
0.000188042
0.000390356
0.000402381
0.000406778
0.000183877
0.000341388
0.000417315
0.000149405
0.000374674
0.000415785
0.000234515
0.000349347
0.000440553
0.000284238
0.000419031
0.000514301
0.000357851
0.000150295
0.000611744
0.000546124
0.000334714
0.000333856
0.000456942
0.000479457
0.000565438
0.000266451
0.000457752
0.000204854
0.000360765
0.000450054
0.000324079
0.000300281
0.000755611
0.000767102
0.000715727
0.000514814
0.000678731
0.000596922
0.00065342
0.000581121
0.000663697
0.000717266
0.000541524
0.000860735
0.000704595
0.000436007
0.000532009
0.000349966
0.000505681
0.000695686
0.000672045
0.000663293
0.000615255
0.000502759
0.000495288
0.000673088
0.000613593
0.000508044
0.000657717
0.000612408
0.000489501
0.000359399
0.000693623
0.000545956
0.00072427
0.000418739
0.000352609
0.00085848
0.000974189
0.000740324
0.000681369
0.000699507
0.000478382
0.000476396
0.000903307
0.000599708
0.000310345
0.000311968
0.00042103
0.00066685
0.000532669
0.000260057
0.000126286
0.00056502
0.000554315
0.00172975
0.000605392
0.000622703
0.000502595
0.000810358
0.000448474
0.000454035
0.00129064
0.000832354
0.000626924
0.000736248
0.000590663
0.000444897
0.00042406
0.000368678
0.000576802
0.000403826
0.000281962
0.000384258
0.000648638
0.000581647
0.000645929
0.000596642
0.000538145
0.000798946
0.000222672
0.000670746
0.000314063
0.000388116
0.000262489
0.000418735
0.000768915
0.000348289
0.00045457
0.000270379
0.000437006
0.000272305
0.000151287
0.000562557
0.000568236
0.00042043
0.000677643
0.000620236
0.000577402
0.000257725
0.000330822
0.000298371
0.000484527
0.000515942
0.000409716
0.000376941
0.000209209
0.000248806
0.000105666
7.19686e-05
0.000187758
0.000290058
0.000523596
0.000309877
0.000406981
0.000331334
0.000378552
0.000606637
0.00031182
0.00027311
0.000276555
0.000251533
0.000530816
0.000275134
0.000348476
0.00032695
0.000299286
0.000202194
0.000491629
0.000219384
0.000425426
0.000279996
0.000230278
0.000285469
0.000448065
0.000339953
0.000321272
0.000288972
0.000559633
9.64037e-05
0.000113514
0.000133673
0.000567693
0.000339311
6.7847e-05
0.000118818
0.000102974
0.000146129
0.000232627
0.000234708
0.000135006
0.000182995
0.000104304
0.000343277
0.000229187
0.000411534
0.000195051
0.000381951
0.000219004
7.89124e-05
0.000149936
7.43659e-05
0.00197265
0.00202034
0.00118378
0.00111697
0.00102883
0.00119922
0.00135805
0.00124264
0.0011781
0.00092547
0.000926749
0.000848512
0.000859212
0.000904838
0.000489238
0.000626287
0.000597608
0.000515522
0.000607734
0.000669301
0.000356944
0.000373389
0.000393991
0.000420735
0.000371125
0.000481123
0.000569709
0.000382636
0.000276424
0.000207268
0.0003457
0.000467759
0.000705333
0.000474335
0.00035264
0.000359761
0.000245592
0.000297647
0.000475441
0.00047182
0.000470713
0.000511333
0.000306999
0.000368807
0.000388295
0.00026792
0.000255979
0.00043943
0.000256674
0.000291982
0.000341159
0.000260363
0.000454613
0.000406748
0.000407139
0.000507776
0.000413785
0.000324515
0.000427174