/*--------------------------------*- C++ -*----------------------------------*\
  =========                 |
  \\      /  F ield         | OpenFOAM: The Open Source CFD Toolbox
   \\    /   O peration     | Website:  https://openfoam.org
    \\  /    A nd           | Version:  7
     \\/     M anipulation  |
\*---------------------------------------------------------------------------*/
FoamFile
{
    version     2.0;
    format      ascii;
    class       volScalarField;
    location    "7.5";
    object      p;
}
// * * * * * * * * * * * * * * * * * * * * * * * * * * * * * * * * * * * * * //

dimensions      [0 2 -2 0 0 0 0];

internalField   nonuniform List<scalar> 
18630
(
-62.7353
-63.7504
-62.6801
-61.2796
-63.318
-63.7107
-62.5941
-62.6023
-61.2249
-60.421
-62.5562
-63.1843
-62.4728
-63.662
-62.3642
-60.492
-62.5174
-61.1665
-60.3428
-59.3563
-61.1347
-62.3583
-62.2408
-63.0211
-62.2863
-60.3853
-63.6034
-62.1252
-60.4499
-59.2893
-62.4745
-61.1067
-60.2572
-59.2487
-57.6847
-58.6624
-60.8516
-60.4575
-62.0678
-61.646
-60.1682
-62.841
-61.9827
-59.9307
-58.958
-63.4959
-61.9039
-60.3663
-59.1425
-57.472
-62.4674
-61.0587
-60.1736
-59.1498
-57.6952
-56.6581
-56.2993
-58.3168
-56.369
-60.5271
-59.959
-59.4266
-61.6766
-61.0179
-60.1719
-58.1212
-62.6388
-61.5246
-59.5708
-58.4695
-58.0103
-63.3382
-61.6761
-60.2809
-58.9261
-57.3154
-56.1356
-62.4616
-60.9937
-60.1056
-59.0484
-57.7099
-56.6087
-55.6727
-54.1128
-55.9287
-55.9832
-57.927
-56.0698
-55.4493
-59.974
-59.7418
-59.0321
-56.6886
-61.5129
-60.6608
-59.7062
-57.7431
-56.6191
-62.3771
-61.0779
-59.2442
-58.1593
-57.5602
-55.5844
-63.1571
-61.4456
-60.0914
-58.751
-57.1581
-55.9943
-55.1688
-62.454
-60.9274
-60.0365
-58.9801
-57.733
-56.5706
-55.6211
-54.5501
-52.8643
-53.7772
-53.3884
-55.5634
-55.4558
-55.1505
-57.3902
-55.8372
-54.615
-54.9052
-59.3208
-59.369
-58.2565
-56.2154
-54.2937
-61.2632
-60.5657
-59.1729
-57.4291
-56.1709
-54.4731
-62.0976
-60.7384
-59.0173
-57.8788
-57.124
-55.4023
-54.0076
-62.9578
-61.2372
-59.9001
-58.6213
-57.008
-55.8392
-55.0778
-54.1193
-62.4354
-60.8662
-59.9714
-58.9153
-57.722
-56.5397
-55.5882
-54.4919
-53.9325
-51.7228
-52.5026
-52.4073
-53.7069
-53.0351
-52.4402
-55.116
-55.1338
-54.4223
-53.6023
-56.7578
-55.2162
-54.2538
-54.3815
-53.6224
-58.9517
-58.6676
-57.7926
-55.7987
-54.0916
-52.9616
-60.815
-60.3321
-58.7035
-57.0713
-55.709
-54.1938
-53.3817
-61.8165
-60.4173
-58.8034
-57.553
-56.7292
-55.2024
-53.8039
-53.1268
-62.7518
-61.015
-59.7063
-58.4778
-56.8506
-55.6523
-54.942
-53.9779
-53.6543
-62.3954
-60.8097
-59.8897
-58.8223
-57.6891
-56.5194
-55.5045
-54.4198
-53.8894
-53.5652
-50.7632
-51.5764
-51.2299
-52.2381
-52.1738
-51.8269
-53.4591
-52.519
-52.2018
-51.8228
-54.7168
-54.5738
-54.025
-53.2028
-52.5221
-56.2628
-54.8519
-54.2558
-53.9853
-53.1427
-52.4015
-58.6397
-58.1614
-57.3973
-55.2831
-53.9794
-53.1615
-52.1273
-60.441
-59.9294
-58.2687
-56.6838
-55.4525
-53.9425
-53.1991
-52.1774
-61.5009
-60.1306
-58.5759
-57.263
-56.3845
-54.9975
-53.6382
-53.0144
-52.564
-62.5435
-60.7928
-59.4959
-58.3384
-56.7235
-55.4874
-54.747
-53.8687
-53.5257
-53.0466
-62.3502
-60.7539
-59.7596
-58.7265
-57.6611
-56.5099
-55.4214
-54.3672
-53.8619
-53.5325
-53.303
-50.153
-50.7589
-50.5481
-51.444
-51.1681
-50.8511
-51.9427
-51.8734
-51.8252
-51.417
-53.1633
-52.3272
-52.1492
-51.6011
-51.1394
-54.4588
-54.1472
-53.9974
-52.9131
-52.2046
-51.5996
-55.816
-54.5921
-53.9886
-53.9416
-52.796
-52.1306
-51.7406
-58.2768
-57.7503
-56.8809
-54.9339
-53.6983
-52.958
-51.9576
-51.7534
-60.1153
-59.4955
-57.8211
-56.2932
-55.09
-53.7344
-52.9981
-52.0661
-51.6777
-61.1357
-59.8761
-58.3003
-56.9715
-56.1632
-54.7459
-53.4537
-52.9268
-52.4782
-52.3017
-62.3378
-60.5708
-59.3269
-58.2092
-56.6113
-55.3383
-54.5855
-53.811
-53.4264
-53.0024
-52.884
-62.2968
-60.687
-59.6409
-58.651
-57.5818
-56.5303
-55.3467
-54.319
-53.8365
-53.5178
-53.2684
-53.0891
-49.1913
-49.5254
-50.061
-50.0916
-50.6235
-50.4412
-50.1878
-51.2186
-51.3108
-50.7035
-50.4248
-51.7746
-51.8234
-51.6394
-51.0472
-50.6681
-52.9583
-52.3244
-51.7918
-51.3883
-51.4302
-50.8807
-54.1933
-53.8644
-53.2962
-52.6733
-52.3002
-51.3739
-51.0354
-55.4378
-54.2656
-53.9036
-52.9453
-52.4994
-52.0011
-51.3161
-50.9437
-57.9239
-57.3078
-56.4559
-54.2944
-53.4549
-52.6305
-51.8561
-51.3554
-51.3061
-59.7616
-59.0047
-57.4209
-55.8947
-54.8654
-53.5032
-52.7644
-51.9297
-51.6444
-51.3447
-60.7605
-59.6242
-58.3584
-56.5844
-55.9314
-54.5437
-53.3123
-52.8116
-52.3893
-52.2672
-51.6728
-62.1329
-60.3342
-59.0885
-57.9078
-56.5036
-55.1966
-54.4911
-53.7312
-53.3475
-52.9646
-52.8398
-52.2661
-62.2364
-60.6085
-59.553
-58.5556
-57.5313
-56.4624
-55.2772
-54.2522
-53.7607
-53.5062
-53.2713
-53.0907
-52.8536
-48.8877
-49.0841
-49.2186
-49.4346
-49.4672
-49.8905
-49.8726
-49.8486
-50.394
-50.1776
-50.2474
-50.2001
-51.0027
-50.7654
-50.7387
-50.3549
-50.2023
-51.7287
-51.4487
-51.3009
-51.0172
-50.5948
-50.3292
-52.6051
-52.0816
-51.7008
-51.5133
-50.8211
-50.8068
-50.3122
-53.9116
-53.4788
-52.7374
-52.1581
-51.8056
-51.2787
-50.8547
-50.4715
-55.0877
-53.9481
-53.7179
-52.535
-52.2295
-51.7279
-51.1843
-50.8536
-50.6546
-57.6061
-56.8034
-55.9916
-54.1643
-53.1787
-52.3864
-51.7928
-51.2845
-51.154
-51.1147
-59.3571
-58.5266
-57.0013
-55.5953
-54.5828
-53.3269
-52.621
-51.8582
-51.5888
-51.287
-51.0977
-60.4763
-59.3378
-58.4389
-56.2981
-55.5837
-54.5469
-53.2337
-52.6835
-52.3088
-52.2374
-51.6642
-51.5017
-61.935
-60.1113
-58.8929
-57.645
-56.4231
-55.0534
-54.3924
-53.6219
-53.2824
-52.9458
-52.8032
-52.2563
-52.0774
-62.1773
-60.532
-59.4615
-58.4091
-57.5101
-56.3243
-55.2197
-54.1797
-53.6873
-53.4647
-53.2873
-53.1122
-52.8432
-52.4212
-48.4568
-48.5654
-48.7839
-48.8259
-49.0558
-49.1528
-49.1446
-49.3699
-49.3035
-49.3668
-49.7297
-49.8327
-49.7401
-49.6066
-50.2982
-49.9051
-50.0352
-50.1104
-49.8751
-50.7359
-50.5144
-50.547
-50.3323
-50.0308
-49.9368
-51.5443
-51.307
-50.7823
-50.796
-50.2738
-50.2704
-50.0276
-52.2936
-51.8954
-51.3034
-51.0481
-50.5355
-50.5323
-50.2386
-50.1187
-53.5816
-53.1475
-52.9055
-52.3194
-51.5422
-50.8734
-50.7561
-50.3581
-50.2024
-54.608
-53.8322
-53.2438
-52.8776
-52.0823
-51.4979
-51.2007
-50.7511
-50.5603
-50.4118
-57.2761
-56.4712
-55.5406
-53.8742
-52.9065
-52.2302
-51.6544
-51.3498
-50.9807
-51.0665
-50.5847
-58.9259
-58.1164
-56.7176
-55.3451
-54.2276
-53.2759
-52.5991
-51.7607
-51.5339
-51.2243
-51.0596
-51.0211
-60.1639
-58.965
-57.7262
-56.1922
-55.2216
-54.393
-53.1539
-52.5881
-52.227
-52.197
-51.6965
-51.4976
-51.7277
-61.727
-59.8899
-58.7266
-57.5494
-56.3285
-54.9132
-54.3177
-53.5194
-53.2294
-52.9415
-52.7797
-52.2465
-52.0763
-51.9749
-62.1164
-60.5027
-59.3787
-58.3143
-57.4168
-56.1993
-55.1604
-54.1326
-53.6168
-53.4257
-53.2926
-53.1425
-52.816
-52.4185
-52.2785
-48.2402
-48.4282
-48.52
-48.6141
-48.6567
-48.7257
-48.7624
-48.8471
-49.0325
-49.0894
-49.0794
-49.0034
-49.2698
-49.263
-49.1921
-49.151
-49.9238
-49.8145
-49.6066
-49.5
-49.3532
-50.2372
-50.0511
-49.7943
-49.9047
-49.7175
-49.6968
-50.7319
-50.7288
-50.003
-50.1813
-49.9056
-49.7876
-49.6381
-51.4709
-51.0844
-50.6168
-50.5624
-50.2017
-49.9326
-49.8556
-49.7413
-52.0752
-51.7894
-51.3183
-50.7334
-50.7889
-50.3024
-50.0729
-49.9918
-49.7425
-53.3219
-53.0353
-52.6402
-52.1469
-51.3977
-50.8905
-50.5095
-50.2813
-50.0798
-50.2041
-54.3706
-53.6263
-53.1084
-52.7038
-51.8977
-51.3337
-50.9882
-50.6678
-50.5109
-50.3598
-50.2455
-56.9497
-56.114
-55.0763
-53.6099
-52.6642
-52.0708
-51.4701
-51.2308
-50.9067
-50.8963
-50.7458
-50.5575
-58.5554
-57.5975
-56.3029
-55.1085
-54.0661
-53.1117
-52.4209
-51.7007
-51.5046
-51.2384
-51.0485
-51.0256
-50.8583
-59.8783
-58.6196
-57.3532
-56.0387
-55.0349
-54.2113
-52.9084
-52.4889
-52.1779
-52.1732
-51.731
-51.4946
-51.7085
-51.6398
-61.5049
-59.6623
-58.5374
-57.3895
-56.1933
-54.818
-54.2304
-53.4324
-53.1761
-52.9494
-52.7594
-52.2143
-52.0603
-51.9834
-52.0502
-62.0559
-60.5051
-59.3192
-58.2384
-57.3139
-56.1011
-55.0736
-54.1225
-53.5461
-53.3996
-53.3019
-53.1782
-52.7929
-52.422
-52.2891
-52.4432
-48.0777
-48.3393
-48.3341
-48.422
-48.5519
-48.5898
-48.5648
-48.591
-48.7398
-48.646
-48.7406
-48.7692
-48.7004
-48.9386
-48.9711
-49.0326
-48.9343
-48.8722
-49.1544
-49.1847
-49.2178
-49.0788
-49.0341
-49.7089
-49.6775
-49.5288
-49.4466
-49.2236
-49.1647
-50.0454
-49.8822
-49.9694
-49.7953
-49.5653
-49.2752
-49.2822
-50.661
-50.5427
-50.2921
-50.0163
-49.7292
-49.5772
-49.5685
-49.414
-51.0759
-50.9732
-50.7404
-50.1391
-50.1592
-49.9428
-49.6159
-49.6942
-49.5821
-52.0631
-51.5964
-51.1468
-50.5856
-50.6262
-50.2864
-50.0014
-49.8984
-49.6839
-49.4419
-53.1816
-52.7866
-52.2799
-51.9128
-51.1735
-50.8462
-50.3805
-50.1874
-50.0395
-49.976
-49.9191
-54.2718
-53.4021
-52.9849
-52.441
-51.6689
-51.1721
-50.8047
-50.5165
-50.4756
-50.278
-50.1629
-50.2382
-56.556
-55.6923
-54.7224
-53.4314
-52.3863
-51.9405
-51.4315
-51.0325
-50.9342
-50.8131
-50.7501
-50.5628
-50.5652
-58.3445
-57.1123
-55.9549
-54.795
-53.9032
-53.0623
-52.2688
-51.6002
-51.4975
-51.2692
-51.0534
-51.0666
-50.9101
-51.0034
-59.5705
-58.3537
-57.2068
-55.9371
-54.8195
-54.0805
-52.7862
-52.425
-52.1226
-52.14
-51.7882
-51.4961
-51.6831
-51.6419
-51.6204
-61.2737
-59.4414
-58.3923
-57.1638
-56.0537
-54.7284
-54.1132
-53.3207
-53.1113
-52.9573
-52.7578
-52.1933
-52.0599
-51.9974
-52.0702
-52.1904
-61.9974
-60.4617
-59.2478
-58.0988
-57.2493
-56.0122
-54.9932
-54.1339
-53.5068
-53.3987
-53.3307
-53.2188
-52.7998
-52.419
-52.3009
-52.4625
-52.641
-48.0467
-48.0756
-48.1604
-48.2173
-48.3309
-48.3479
-48.3472
-48.4785
-48.533
-48.476
-48.5097
-48.522
-48.6014
-48.6836
-48.6022
-48.6622
-48.6568
-48.6859
-48.7157
-48.8321
-48.8882
-48.8511
-48.8542
-48.8592
-48.7657
-49.0729
-49.0733
-49.1603
-49.0824
-48.9882
-48.8403
-49.5002
-49.3895
-49.3835
-49.3083
-49.2422
-49.089
-49.0251
-49.9029
-49.8349
-49.6779
-49.6403
-49.5687
-49.3508
-49.2466
-49.2219
-50.5008
-50.3666
-50.0694
-49.8355
-49.679
-49.5391
-49.4368
-49.2519
-49.1938
-50.9031
-50.7516
-50.5386
-50.1239
-50.1634
-49.8391
-49.6071
-49.6816
-49.5307
-49.3542
-51.7478
-51.3415
-50.9594
-50.7573
-50.4378
-50.1322
-49.9918
-49.8012
-49.6683
-49.5995
-49.5027
-52.9738
-52.4462
-52.1266
-51.6641
-51.0572
-50.7733
-50.3233
-50.0908
-49.9632
-49.8921
-49.9137
-49.8746
-54.1297
-53.1173
-52.578
-52.1692
-51.5136
-51.0917
-50.768
-50.4261
-50.3939
-50.2666
-50.1295
-50.2222
-50.2913
-56.1964
-55.4281
-54.3867
-53.1513
-52.2635
-51.7838
-51.3997
-50.9624
-50.8205
-50.8216
-50.4929
-50.6404
-50.6179
-50.7712
-58.0275
-56.7837
-55.683
-54.6262
-53.7212
-52.9438
-52.1129
-51.5625
-51.4815
-51.2833
-51.1213
-51.1621
-50.9979
-51.1159
-51.1709
-59.2771
-58.1345
-56.8793
-55.6919
-54.6382
-53.881
-52.8805
-52.2868
-52.0856
-52.1406
-51.8289
-51.5177
-51.6661
-51.6253
-51.6518
-51.8427
-61.0334
-59.2483
-58.2292
-56.9578
-55.9414
-54.6268
-53.992
-53.2613
-53.0679
-52.9463
-52.7443
-52.1833
-52.0682
-52.0105
-52.094
-52.2392
-52.2922
-61.9394
-60.3746
-59.1078
-57.9527
-57.1448
-55.9275
-54.9332
-54.0253
-53.4924
-53.4095
-53.3601
-53.2483
-52.8181
-52.4534
-52.3308
-52.4817
-52.6626
-52.6759
-47.9043
-48.0078
-48.119
-48.0569
-48.1523
-48.2395
-48.237
-48.2493
-48.2471
-48.3361
-48.3373
-48.4478
-48.4355
-48.4649
-48.4385
-48.3672
-48.5102
-48.5353
-48.5408
-48.5466
-48.5525
-48.6056
-48.5361
-48.5686
-48.5961
-48.5744
-48.7844
-48.7758
-48.773
-48.7636
-48.7271
-48.6794
-48.6519
-49.0708
-49.0266
-48.9104
-48.9664
-48.9602
-48.9522
-48.7958
-49.4502
-49.4189
-49.2869
-49.2133
-49.1096
-49.0326
-48.9938
-48.8302
-49.8239
-49.8028
-49.5107
-49.5706
-49.369
-49.2816
-49.2997
-49.1386
-49.1651
-50.3537
-50.1868
-49.9967
-49.7873
-49.4954
-49.4731
-49.347
-49.1346
-49.1447
-49.047
-50.8677
-50.5548
-50.2938
-50.2042
-50.0032
-49.6944
-49.5845
-49.6119
-49.4528
-49.3065
-49.2501
-51.6666
-51.1533
-50.8842
-50.5549
-50.3667
-50.0542
-49.8887
-49.702
-49.6903
-49.6774
-49.549
-49.588
-52.7436
-52.2482
-52.0271
-51.4875
-50.9603
-50.6156
-50.2626
-50.0089
-49.9029
-49.8536
-49.8694
-49.9137
-49.9492
-53.773
-52.9022
-52.3848
-51.9642
-51.4171
-50.9496
-50.6506
-50.482
-50.2675
-50.2954
-50.1174
-50.2726
-50.2749
-50.3914
-55.9429
-55.0654
-54.1189
-53.0259
-52.224
-51.658
-51.3824
-50.9834
-50.719
-50.7992
-50.4705
-50.6896
-50.7239
-50.8914
-51.0473
-57.7131
-56.4639
-55.4345
-54.4885
-53.4768
-52.7915
-52.0471
-51.574
-51.4901
-51.295
-51.165
-51.2909
-51.1357
-51.2174
-51.2526
-51.5991
-59.0491
-57.9102
-56.5465
-55.5031
-54.4885
-53.6833
-52.7777
-52.2028
-52.0645
-52.1305
-51.8658
-51.5422
-51.6594
-51.6483
-51.6826
-51.8686
-51.8713
-60.7889
-59.0288
-58.0176
-56.8064
-55.8206
-54.5456
-53.9861
-53.2078
-53.0364
-52.9474
-52.7275
-52.1537
-52.0551
-52.0198
-52.1183
-52.2734
-52.3234
-52.4736
-61.8834
-60.3306
-58.9802
-57.8153
-57.0487
-55.8732
-54.8535
-53.9309
-53.5147
-53.4153
-53.3977
-53.2662
-52.8234
-52.4704
-52.3782
-52.4985
-52.6778
-52.7199
-52.7464
-47.8664
-47.8723
-47.9641
-47.973
-48.0467
-48.1542
-48.1172
-48.1461
-48.203
-48.2387
-48.2024
-48.274
-48.2296
-48.2748
-48.3054
-48.267
-48.4161
-48.4234
-48.4476
-48.3947
-48.3714
-48.2542
-48.4378
-48.4716
-48.4381
-48.4881
-48.4529
-48.5023
-48.5266
-48.4327
-48.5135
-48.5114
-48.4973
-48.4656
-48.7048
-48.734
-48.7537
-48.7325
-48.5985
-48.6082
-48.5917
-48.5709
-49.0125
-48.9778
-48.9679
-48.885
-48.9221
-48.8168
-48.7484
-48.677
-49.3352
-49.356
-49.3245
-49.1955
-48.9244
-48.9019
-48.8478
-48.8022
-48.806
-49.6506
-49.6677
-49.6346
-49.4638
-49.255
-49.1372
-49.0701
-49.0631
-49.0294
-48.9741
-50.2119
-50.1267
-49.9524
-49.7086
-49.4271
-49.3972
-49.2651
-49.1528
-49.0745
-49.0391
-49.0121
-50.7582
-50.6253
-50.268
-49.9941
-49.9253
-49.589
-49.4975
-49.4822
-49.4275
-49.2056
-49.2377
-49.3225
-51.5381
-50.9769
-50.8158
-50.4565
-50.1137
-49.9097
-49.8338
-49.6039
-49.6156
-49.5981
-49.559
-49.601
-49.5755
-52.5727
-52.1036
-51.9014
-51.3724
-50.7889
-50.5175
-50.1878
-49.9874
-49.8672
-49.8494
-49.8565
-49.9468
-50.0457
-50.2688
-53.566
-52.7836
-52.3213
-51.7959
-51.27
-50.8248
-50.5597
-50.4069
-50.2372
-50.3156
-50.1624
-50.323
-50.4129
-50.6566
-50.9864
-55.6488
-54.9205
-53.8035
-52.9047
-52.0449
-51.679
-51.3661
-50.9183
-50.7384
-50.7884
-50.6442
-50.7595
-50.8546
-50.9931
-51.1319
-51.2027
-57.4818
-56.2643
-55.1538
-54.2413
-53.4267
-52.7052
-51.9613
-51.5265
-51.4571
-51.3159
-51.1891
-51.3476
-51.2518
-51.3208
-51.3421
-51.7004
-51.6281
-58.8132
-57.5946
-56.2775
-55.3216
-54.337
-53.5414
-52.6952
-52.1877
-52.0673
-52.1518
-51.8931
-51.5676
-51.701
-51.6883
-51.7167
-51.9438
-51.9507
-52.0253
-60.5564
-58.8275
-57.7982
-56.678
-55.6786
-54.4775
-53.9159
-53.1558
-53.0023
-52.9586
-52.6967
-52.1397
-52.0448
-52.0357
-52.1316
-52.3045
-52.3478
-52.5162
-52.6478
-61.8224
-60.2957
-58.8714
-57.7517
-56.9762
-55.8217
-54.8085
-53.9001
-53.5419
-53.4118
-53.4535
-53.2801
-52.815
-52.4749
-52.4124
-52.5168
-52.6971
-52.76
-52.7862
-52.9067
-47.7734
-47.8324
-47.921
-47.8914
-47.9492
-48.0613
-47.9826
-48.0697
-48.1017
-48.2372
-48.1119
-48.1413
-48.2376
-48.1767
-48.2697
-48.1623
-48.2164
-48.2521
-48.2321
-48.2617
-48.2072
-48.184
-48.3422
-48.3774
-48.4152
-48.409
-48.3618
-48.2487
-48.2492
-48.3399
-48.3703
-48.432
-48.4241
-48.3964
-48.2969
-48.4252
-48.4315
-48.5357
-48.3999
-48.4793
-48.4139
-48.3598
-48.3989
-48.6021
-48.6264
-48.6421
-48.6584
-48.5414
-48.5532
-48.5363
-48.5258
-48.4716
-48.8779
-48.8618
-48.8342
-48.8821
-48.8671
-48.6848
-48.6811
-48.6198
-48.5874
-49.2084
-49.1817
-49.179
-49.1124
-49.0017
-48.8724
-48.7944
-48.7812
-48.7227
-48.7522
-49.6887
-49.516
-49.511
-49.3638
-49.2946
-49.0924
-48.985
-48.9912
-48.9842
-48.879
-48.9115
-50.1404
-50.0536
-49.8475
-49.5419
-49.405
-49.2808
-49.2455
-49.1055
-49.0682
-48.9961
-48.9876
-49.0284
-50.5641
-50.4882
-50.0543
-49.9166
-49.8281
-49.5378
-49.4634
-49.368
-49.4302
-49.3585
-49.2072
-49.3293
-49.3271
-51.3701
-50.8762
-50.6906
-50.3855
-49.9702
-49.8966
-49.6971
-49.5658
-49.5026
-49.533
-49.5442
-49.6404
-49.5873
-49.7855
-52.5085
-52.0351
-51.6702
-51.233
-50.7533
-50.4956
-49.9998
-49.927
-49.8845
-49.8306
-49.8695
-49.9941
-50.1228
-50.472
-50.7361
-53.3544
-52.5558
-52.1486
-51.6718
-51.1863
-50.7271
-50.5091
-50.3135
-50.2752
-50.35
-50.2849
-50.3959
-50.5814
-50.8538
-51.1161
-51.1959
-55.3337
-54.7868
-53.5887
-52.7468
-52.0182
-51.6178
-51.2522
-50.8921
-50.733
-50.8338
-50.7223
-50.8082
-50.9257
-51.1212
-51.1964
-51.261
-51.406
-57.2131
-56.0014
-54.882
-54.0327
-53.3423
-52.5959
-51.8985
-51.5443
-51.4057
-51.3114
-51.1195
-51.4158
-51.3462
-51.417
-51.3995
-51.7018
-51.7181
-51.7675
-58.5808
-57.3508
-56.0613
-55.1274
-54.1776
-53.4057
-52.7076
-52.0827
-52.0966
-52.1438
-51.9195
-51.603
-51.7558
-51.7132
-51.7594
-52.0245
-52.0272
-52.1006
-51.8862
-60.3306
-58.656
-57.589
-56.527
-55.55
-54.4227
-53.8078
-53.1383
-52.9634
-52.9844
-52.6362
-52.119
-52.05
-52.0524
-52.1443
-52.3418
-52.379
-52.5571
-52.7345
-52.7268
-61.7202
-60.2177
-58.7985
-57.7365
-56.8953
-55.7492
-54.7965
-53.9171
-53.5581
-53.4119
-53.503
-53.3023
-52.8153
-52.4854
-52.4389
-52.5433
-52.728
-52.8083
-52.8341
-52.9825
-53.3967
-47.7171
-47.7788
-47.8264
-47.9061
-47.9409
-48.0396
-47.9177
-47.9681
-48.085
-48.152
-47.9507
-48.0203
-48.1494
-48.1585
-48.1608
-48.0985
-48.1092
-48.1827
-48.1778
-48.2004
-48.1936
-48.1368
-48.1732
-48.2077
-48.1902
-48.1255
-48.1768
-48.1582
-48.1247
-48.284
-48.2839
-48.3183
-48.3846
-48.293
-48.1442
-48.1888
-48.1905
-48.2331
-48.3171
-48.3186
-48.3539
-48.2706
-48.2541
-48.2529
-48.338
-48.343
-48.4001
-48.4578
-48.3722
-48.3188
-48.3224
-48.3057
-48.2933
-48.5915
-48.552
-48.5515
-48.5557
-48.5865
-48.5396
-48.4779
-48.4429
-48.4431
-48.3613
-48.8363
-48.7894
-48.7193
-48.7751
-48.7401
-48.6689
-48.6332
-48.5787
-48.5591
-48.5192
-49.2045
-49.1497
-49.0973
-48.9873
-48.8742
-48.8302
-48.7441
-48.7153
-48.6877
-48.6666
-48.7035
-49.5882
-49.5024
-49.3865
-49.2507
-49.1565
-49.1093
-48.9784
-48.9153
-48.896
-48.8072
-48.8433
-48.93
-50.0922
-49.8628
-49.7138
-49.5024
-49.3234
-49.2105
-49.2625
-49.0769
-49.0391
-49.0334
-48.9726
-49.0493
-49.1028
-50.4367
-50.1787
-50.025
-50.0433
-49.7285
-49.5244
-49.5114
-49.2334
-49.3885
-49.3128
-49.2324
-49.3267
-49.36
-49.5028
-51.2917
-50.7488
-50.6101
-50.2703
-49.9792
-49.7193
-49.742
-49.4298
-49.5627
-49.4934
-49.5495
-49.7418
-49.6531
-49.9834
-50.429
-52.3215
-52.0668
-51.3576
-51.1872
-50.6122
-50.395
-49.9522
-49.8647
-49.8809
-49.8602
-49.9315
-50.0659
-50.21
-50.6974
-50.9043
-51.0844
-53.2308
-52.3124
-51.8952
-51.4022
-51.1137
-50.5801
-50.4363
-50.272
-50.2602
-50.3878
-50.3637
-50.5551
-50.7268
-50.9528
-51.1814
-51.2604
-51.3048
-55.0595
-54.5575
-53.5855
-52.6611
-51.96
-51.5805
-51.1334
-50.8301
-50.7676
-50.8443
-50.775
-50.9081
-51.0531
-51.2553
-51.2334
-51.3472
-51.4602
-51.6744
-56.8716
-55.7262
-54.9047
-53.9688
-53.2518
-52.4857
-51.8051
-51.4968
-51.3844
-51.3023
-51.0965
-51.4598
-51.4484
-51.5
-51.4538
-51.7504
-51.7985
-51.8324
-52.0097
-58.3485
-57.1561
-55.8709
-55.0261
-53.9197
-53.3042
-52.5995
-52.0161
-52.1258
-52.1405
-51.9524
-51.6308
-51.7999
-51.7605
-51.8141
-52.1086
-52.1079
-52.1801
-51.9516
-52.1773
-60.1017
-58.4812
-57.4741
-56.4096
-55.4511
-54.3781
-53.7826
-53.1193
-52.9295
-53.0071
-52.5615
-52.0996
-52.0566
-52.0607
-52.1574
-52.3875
-52.4226
-52.6001
-52.783
-52.817
-53.0021
-61.5763
-60.1386
-58.7693
-57.7565
-56.7942
-55.6608
-54.7825
-53.9092
-53.5235
-53.4178
-53.5439
-53.3272
-52.8354
-52.5132
-52.4645
-52.5756
-52.7648
-52.8582
-52.8809
-53.039
-53.4452
-53.7525
-61.3031
-47.6476
-47.7025
-47.7801
-47.7894
-47.8961
-47.9504
-47.9264
-47.935
-48.0178
-48.1318
-47.9222
-47.9336
-48.0467
-48.1141
-48.2229
-47.973
-48.0211
-48.0849
-48.0624
-48.121
-48.1131
-48.0756
-48.0804
-48.1124
-48.1242
-48.1326
-48.1581
-48.077
-48.072
-48.119
-48.1379
-48.1626
-48.0788
-48.2001
-48.0271
-48.066
-48.064
-48.1876
-48.2273
-48.2539
-48.2839
-48.266
-48.1283
-48.1104
-48.1556
-48.1675
-48.1555
-48.2346
-48.2857
-48.2987
-48.1472
-48.2692
-48.2212
-48.21
-48.2782
-48.3341
-48.2914
-48.3615
-48.2897
-48.2599
-48.2933
-48.2447
-48.2631
-48.2171
-48.5773
-48.5559
-48.5398
-48.5067
-48.5304
-48.4846
-48.4197
-48.4043
-48.3291
-48.2849
-48.3748
-48.7785
-48.7583
-48.7243
-48.7283
-48.6092
-48.5461
-48.537
-48.5259
-48.4534
-48.5262
-48.3809
-49.1181
-49.0434
-49.0243
-48.9543
-48.7596
-48.7694
-48.6939
-48.7072
-48.6668
-48.6625
-48.7075
-48.6968
-49.4626
-49.4228
-49.3112
-49.2569
-49.0698
-48.917
-48.8801
-48.8971
-48.8278
-48.7558
-48.7261
-48.7038
-48.9124
-50.0684
-49.7949
-49.6496
-49.5134
-49.3418
-49.175
-49.1337
-49.1044
-49.024
-49.0316
-48.9994
-49.1155
-49.1318
-49.1078
-50.3957
-50.2132
-49.9829
-49.8755
-49.6482
-49.4416
-49.4289
-49.3075
-49.4159
-49.2541
-49.2757
-49.3509
-49.4133
-49.6196
-49.9668
-51.1871
-50.6044
-50.544
-50.1033
-49.8788
-49.5672
-49.6942
-49.4217
-49.5853
-49.5045
-49.5443
-49.7911
-49.759
-50.1784
-50.5936
-50.8718
-52.0551
-51.9064
-51.1331
-50.9858
-50.5337
-50.2753
-49.929
-49.8717
-49.7993
-49.9495
-50.0081
-50.2066
-50.3246
-50.8376
-50.9758
-51.1671
-51.2495
-52.9307
-52.1178
-51.6744
-51.0886
-51.0533
-50.6499
-50.408
-50.2197
-50.2403
-50.4437
-50.4301
-50.6618
-50.8945
-51.1298
-51.2773
-51.3374
-51.3118
-51.4004
-54.696
-54.2675
-53.4674
-52.5615
-51.8782
-51.4748
-51.043
-50.8041
-50.8284
-50.876
-50.8762
-51.0054
-51.2549
-51.4247
-51.276
-51.4367
-51.5639
-51.7691
-52.043
-56.6262
-55.5053
-54.7584
-53.8462
-53.1116
-52.3714
-51.811
-51.3849
-51.4271
-51.3676
-51.1042
-51.4337
-51.529
-51.5744
-51.5412
-51.8332
-51.8777
-51.9036
-52.1111
-52.0361
-58.1382
-56.986
-55.7007
-54.8089
-53.814
-53.1623
-52.5265
-52.0512
-52.1106
-52.1519
-51.9767
-51.6611
-51.8533
-51.8188
-51.8938
-52.203
-52.1815
-52.2676
-52.03
-52.2116
-52.3018
-59.9034
-58.3462
-57.2831
-56.2995
-55.3885
-54.3404
-53.736
-53.0909
-52.9072
-53.0296
-52.5147
-52.0816
-52.061
-52.0612
-52.1626
-52.4329
-52.469
-52.6393
-52.9074
-52.9063
-53.0595
-53.183
-59.5358
-61.4367
-60.0625
-58.7709
-57.8205
-56.6938
-55.5683
-54.7867
-53.8816
-53.4968
-53.4254
-53.6261
-53.3538
-52.8609
-52.562
-52.4881
-52.6106
-52.8025
-52.9032
-52.9435
-53.0851
-53.4875
-53.8178
-53.9979
-59.9416
-47.641
-47.7179
-47.7403
-47.7898
-47.8687
-47.807
-47.8247
-47.9553
-48.118
-47.9363
-47.9487
-47.9638
-48.0449
-48.1152
-47.928
-47.9152
-47.9955
-48.0644
-48.0693
-48.0631
-48.013
-48.0429
-48.047
-48.0179
-48.0462
-48.0195
-48.0026
-47.9937
-48.056
-48.0672
-48.0547
-48.0325
-48.055
-47.9976
-47.9895
-47.9645
-48.0801
-48.1494
-48.1612
-48.066
-48.0785
-48.018
-48.0046
-47.9837
-48.0408
-48.0871
-48.1538
-48.1541
-48.2204
-48.1653
-48.0746
-48.1229
-48.0805
-48.0622
-48.0788
-48.1016
-48.1751
-48.2293
-48.1814
-48.1291
-48.2598
-48.1813
-48.1187
-48.036
-48.2557
-48.2831
-48.2498
-48.2794
-48.2529
-48.2035
-48.2115
-48.2321
-48.2106
-48.1685
-48.0675
-48.4926
-48.4834
-48.476
-48.481
-48.4425
-48.374
-48.3073
-48.3581
-48.2843
-48.3204
-48.2752
-48.3069
-48.7398
-48.6825
-48.6274
-48.6803
-48.5316
-48.4283
-48.4318
-48.4696
-48.4356
-48.4539
-48.4435
-48.4651
-48.9563
-48.991
-48.9198
-48.8933
-48.8203
-48.7462
-48.6817
-48.66
-48.6523
-48.6444
-48.5913
-48.6687
-48.6532
-49.471
-49.4356
-49.2453
-49.1163
-49.0507
-48.9053
-48.8362
-48.705
-48.8096
-48.7869
-48.7627
-48.7041
-48.8183
-48.8696
-49.9164
-49.7039
-49.6007
-49.4446
-49.2919
-49.1279
-49.067
-49.1043
-49.074
-49.0237
-49.0094
-49.0862
-49.1271
-49.2289
-49.5042
-50.2906
-50.1906
-49.8747
-49.7873
-49.5232
-49.386
-49.3433
-49.3305
-49.2891
-49.2366
-49.248
-49.3639
-49.4538
-49.7674
-50.0816
-50.4211
-51.1099
-50.3436
-50.4532
-50.1179
-49.8764
-49.5828
-49.501
-49.4811
-49.4964
-49.5307
-49.6235
-49.7803
-49.9231
-50.3714
-50.6828
-51.0496
-51.1851
-51.7357
-51.7415
-51.009
-50.7935
-50.5541
-50.1271
-49.7868
-49.8794
-49.8738
-50.046
-50.1444
-50.327
-50.4568
-51.0069
-51.0154
-51.2584
-51.2739
-51.1462
-52.8013
-52.0137
-51.517
-51.0564
-50.999
-50.6765
-50.3818
-50.2009
-50.3102
-50.5147
-50.5384
-50.7733
-51.0106
-51.2773
-51.3284
-51.4071
-51.3846
-51.5185
-51.498
-54.9212
-54.0374
-53.3479
-52.5131
-51.8458
-51.4331
-51.0218
-50.7056
-50.8237
-50.9628
-50.9587
-51.0713
-51.4089
-51.5201
-51.3105
-51.4922
-51.6727
-51.8486
-52.1534
-52.0928
-56.3893
-55.32
-54.6577
-53.7133
-53.0337
-52.3137
-51.7812
-51.3166
-51.4612
-51.4537
-51.1039
-51.4161
-51.589
-51.6375
-51.6028
-51.9349
-51.9477
-51.9699
-52.2073
-52.2058
-51.8989
-57.9064
-56.8056
-55.4851
-54.6021
-53.7671
-53.0617
-52.5387
-52.0449
-52.0865
-52.1616
-51.9761
-51.6873
-51.9041
-51.8826
-51.9769
-52.2953
-52.2801
-52.3454
-52.1127
-52.2479
-52.3749
-52.3081
-57.4889
-59.7076
-58.197
-57.1268
-56.2076
-55.3189
-54.2999
-53.651
-53.0639
-52.9146
-53.0435
-52.4742
-52.0699
-52.0727
-52.067
-52.1711
-52.4813
-52.523
-52.6879
-52.9883
-52.9863
-53.1267
-53.2492
-53.3241
-57.9492
-59.9954
-58.7805
-57.8005
-56.6357
-55.5303
-54.7907
-53.8346
-53.5095
-53.4394
-53.6777
-53.3808
-52.8885
-52.6006
-52.5179
-52.6478
-52.8352
-52.9377
-53.0205
-53.1487
-53.5345
-53.8886
-54.0625
-54.2918
-58.6277
-47.6258
-47.7244
-47.7937
-47.7193
-47.7766
-47.8647
-47.983
-47.8149
-47.8359
-47.843
-48.011
-48.0277
-47.9998
-47.9309
-47.9405
-47.9737
-48.0195
-47.9946
-47.9348
-47.9038
-47.9759
-47.9601
-47.9765
-47.9703
-47.9459
-47.9547
-48.019
-48.0553
-47.9949
-47.953
-47.9611
-47.8959
-47.9147
-47.9356
-47.9827
-48.0165
-48.0205
-47.9586
-47.9025
-47.9686
-47.9104
-47.922
-47.9135
-48.0032
-48.0746
-48.0652
-48.0199
-48.039
-47.9217
-47.9449
-47.949
-47.8616
-48.0041
-48.0356
-48.0602
-48.1029
-48.1151
-48.0749
-48.0456
-47.976
-47.9725
-47.955
-47.9778
-48.0321
-48.0618
-48.1023
-48.1434
-48.1153
-48.0571
-48.1565
-48.0958
-48.0979
-47.9768
-47.9906
-48.2259
-48.2119
-48.1819
-48.2126
-48.2241
-48.1428
-48.1464
-48.1405
-48.1349
-48.1023
-48.079
-48.0661
-48.4073
-48.4167
-48.373
-48.3838
-48.4158
-48.3096
-48.2565
-48.2529
-48.2059
-48.3011
-48.2339
-48.2904
-48.2914
-48.733
-48.6445
-48.5719
-48.5106
-48.467
-48.4437
-48.3923
-48.4045
-48.3831
-48.3977
-48.3856
-48.4744
-48.4802
-48.9323
-48.9207
-48.8895
-48.8669
-48.7313
-48.6891
-48.6365
-48.6359
-48.6468
-48.6035
-48.5478
-48.4607
-48.6935
-48.6688
-49.4199
-49.2931
-49.1478
-49.0161
-48.9439
-48.8828
-48.845
-48.6477
-48.7377
-48.8485
-48.784
-48.8108
-48.8116
-48.9053
-49.1006
-49.8222
-49.6222
-49.5175
-49.408
-49.2444
-49.1065
-49.0653
-49.0281
-49.0592
-49.073
-49.0227
-49.0629
-49.1268
-49.3585
-49.5902
-49.8426
-50.1389
-50.1168
-49.7939
-49.7612
-49.5335
-49.3153
-49.266
-49.1945
-49.3483
-49.2052
-49.2734
-49.4026
-49.5238
-49.8082
-50.2705
-50.4759
-50.9235
-50.7788
-50.4945
-50.3306
-50.039
-49.8292
-49.5988
-49.4844
-49.4451
-49.5876
-49.6044
-49.7209
-49.8862
-50.0546
-50.598
-50.8118
-51.1808
-51.2169
-50.985
-51.7381
-51.7398
-50.8967
-50.6907
-50.5155
-50.0706
-49.8188
-49.7924
-49.984
-50.1544
-50.2736
-50.4291
-50.6202
-51.1553
-51.151
-51.3924
-51.3033
-51.2318
-51.0992
-52.7467
-51.9167
-51.289
-51.1014
-50.9169
-50.649
-50.3523
-50.1599
-50.4093
-50.6203
-50.6869
-50.8747
-51.1115
-51.3914
-51.3698
-51.4746
-51.4299
-51.3898
-51.5191
-51.8436
-54.5398
-53.9015
-53.1511
-52.4503
-51.8552
-51.4047
-50.9328
-50.7465
-50.8925
-51.0379
-50.9835
-51.1275
-51.5185
-51.5943
-51.3479
-51.5774
-51.8167
-51.9404
-52.2516
-52.2271
-52.0443
-56.0498
-55.1394
-54.297
-53.6576
-52.9677
-52.2438
-51.6889
-51.2935
-51.5217
-51.5119
-51.1439
-51.4045
-51.6176
-51.6908
-51.7151
-52.047
-52.0003
-52.0475
-52.286
-52.3638
-51.9724
-52.2276
-55.7057
-57.6822
-56.5991
-55.3901
-54.6106
-53.5812
-52.9922
-52.4954
-52.0187
-52.1046
-52.2018
-51.9875
-51.7061
-51.9503
-51.9511
-52.0729
-52.3866
-52.3964
-52.4179
-52.204
-52.3041
-52.4795
-52.3559
-52.6578
-56.3142
-58.0636
-56.9836
-56.1309
-55.2459
-54.2665
-53.5817
-53.0368
-52.9141
-53.0416
-52.4447
-52.068
-52.0817
-52.0738
-52.1877
-52.5442
-52.5842
-52.7534
-52.997
-53.0533
-53.199
-53.319
-53.3853
-53.5009
-56.8046
-58.691
-57.7193
-56.6126
-55.541
-54.7938
-53.7902
-53.5102
-53.452
-53.689
-53.4059
-52.9106
-52.6244
-52.5531
-52.6884
-52.8658
-52.9577
-53.0751
-53.1953
-53.5828
-53.9568
-54.1491
-54.3001
-54.8901
-57.6244
-47.6395
-47.6609
-47.7787
-47.8909
-47.7292
-47.7692
-47.7939
-47.9047
-47.9701
-47.799
-47.807
-47.8391
-47.8864
-47.9655
-47.9637
-47.9352
-47.893
-47.9054
-47.8825
-47.9199
-47.9118
-47.9273
-47.8228
-47.8391
-47.9096
-47.9246
-47.9084
-47.8868
-47.8074
-47.8226
-47.9295
-47.9218
-47.953
-47.9195
-47.8971
-47.9129
-47.8308
-47.8098
-47.898
-47.8798
-47.9136
-47.959
-47.9762
-47.9099
-47.858
-47.8529
-47.821
-47.8298
-47.8609
-47.9115
-47.9273
-47.9937
-47.9844
-47.9699
-47.9093
-47.8866
-47.8647
-47.8879
-47.8742
-47.8358
-47.9491
-47.9752
-47.9771
-48.0306
-47.981
-48.0754
-48.0191
-47.9357
-47.9287
-47.8607
-47.942
-47.8349
-47.9871
-48.0686
-47.9878
-48.0678
-48.0983
-48.0099
-48.0662
-48.004
-47.9897
-48.049
-47.9515
-48.0093
-48.1797
-48.1757
-48.1473
-48.1298
-48.1539
-48.1312
-48.0825
-48.1038
-48.0476
-47.9657
-47.9769
-48.0172
-48.0969
-48.4235
-48.397
-48.3496
-48.3604
-48.3495
-48.2635
-48.2222
-48.1889
-48.1908
-48.1954
-48.2033
-48.2465
-48.2823
-48.2912
-48.5911
-48.5807
-48.5591
-48.5047
-48.4159
-48.4144
-48.3964
-48.3366
-48.3292
-48.3409
-48.329
-48.3751
-48.4603
-48.3817
-48.8652
-48.864
-48.8493
-48.7357
-48.6518
-48.6369
-48.5765
-48.567
-48.5548
-48.6632
-48.5542
-48.5318
-48.5513
-48.6365
-48.7635
-49.2922
-49.1592
-49.0422
-49.0435
-48.8723
-48.7835
-48.7689
-48.7188
-48.7828
-48.8023
-48.7397
-48.7962
-48.8933
-48.8918
-49.1633
-49.2725
-49.7516
-49.5304
-49.4758
-49.3647
-49.2043
-49.0443
-49.0127
-48.9572
-49.0485
-49.1547
-49.0296
-49.1353
-49.1394
-49.3849
-49.6529
-49.8479
-50.1181
-50.0184
-49.9813
-49.7171
-49.6266
-49.5161
-49.3098
-49.2597
-49.1014
-49.3568
-49.3368
-49.355
-49.4817
-49.5648
-49.9455
-50.3787
-50.6635
-51.067
-50.8727
-50.601
-50.5266
-50.0928
-50.0338
-49.7104
-49.6249
-49.4146
-49.4057
-49.6894
-49.7676
-49.7465
-50.0261
-50.1971
-50.7658
-50.8923
-51.3434
-51.4197
-50.8799
-50.7583