/*--------------------------------*- C++ -*----------------------------------*\
  =========                 |
  \\      /  F ield         | OpenFOAM: The Open Source CFD Toolbox
   \\    /   O peration     | Website:  https://openfoam.org
    \\  /    A nd           | Version:  7
     \\/     M anipulation  |
\*---------------------------------------------------------------------------*/
FoamFile
{
    version     2.0;
    format      ascii;
    class       surfaceScalarField;
    location    "7.5";
    object      phi_0;
}
// * * * * * * * * * * * * * * * * * * * * * * * * * * * * * * * * * * * * * //

dimensions      [0 3 -1 0 0 0 0];

internalField   nonuniform List<scalar> 
53739
(
-9.51718e-05
-0.000377258
-2.73876e-05
-0.000217305
0.00144035
1.50881e-05
-0.00010463
-0.000283017
-2.77309e-05
-0.000244702
-0.000645399
-7.93957e-06
-0.000576177
0.00283363
0.000275888
-0.000233624
0.0014641
1.16699e-05
-0.000548095
0.000278044
7.54938e-05
-0.000116164
-0.000176785
-2.83908e-05
-0.000254479
-0.00040966
-8.99025e-06
-0.000351567
0.000634377
1.29588e-05
-0.000921676
0.00187947
0.000659549
-0.000573166
0.00290741
0.000283281
-0.000807073
0.00169783
0.000358617
-0.000258808
0.00150839
-7.30564e-07
-0.000603008
0.000573319
6.49233e-05
-0.000722496
0.00149646
8.19315e-05
-0.00012991
-5.6023e-05
-2.89169e-05
-0.000260978
-0.000167453
-9.62007e-06
-0.000353768
0.000966895
1.22595e-05
-0.000337272
0.00156573
1.38505e-05
-0.000897503
0.00543607
0.000587436
-0.00090805
0.00219273
0.000706097
-0.000979775
0.00326314
0.000446796
-0.00064298
0.00302821
0.000289577
-0.000902377
0.00191286
0.000367621
-0.000996927
0.00284535
0.000218257
-0.000284117
0.00157061
-1.28834e-05
-0.000634178
0.000882649
6.31397e-05
-0.000705867
0.00183982
7.36597e-05
-0.000693754
0.0028939
8.67559e-05
-0.000139281
7.46491e-05
-2.89159e-05
-0.000263686
7.76582e-05
-1.03424e-05
-0.000346634
0.0012912
1.27118e-05
-0.000332658
0.00189595
1.46915e-05
-0.000321842
0.00201616
-7.86538e-07
-0.000883941
0.00703582
0.00122594
-0.000973238
0.0057371
0.000735281
-0.00130051
0.00773682
0.000435475
-0.00111761
0.00260325
0.000662728
-0.0010432
0.00362622
0.000483837
-0.000678882
0.00426988
0.000165414
-0.0006133
0.00309414
0.000318593
-0.000990441
0.00219992
0.000358771
-0.000919162
0.00316971
0.000256556
-0.000992682
0.00346801
0.000118219
-0.000310905
0.00166263
-2.59342e-05
-0.000631645
0.00118743
5.02924e-05
-0.000675463
0.00214273
8.90575e-05
-0.000673205
0.003209
9.91078e-05
-0.000604046
0.00320807
5.51744e-05
-0.000150453
0.000216056
-2.89455e-05
-0.000264842
0.00032403
-1.04458e-05
-0.00034128
0.00160855
1.35838e-05
-0.000324617
0.00221821
1.50693e-05
-0.000312592
0.00234193
1.51239e-06
-0.000316473
0.00278783
-4.95293e-07
-0.00114827
0.00710592
0.00182173
-0.00111065
0.00712355
0.00132925
-0.00143274
0.00543642
0.00140779
-0.00112671
0.00586808
0.000539239
-0.00130164
0.008167
0.000563546
-0.000797713
0.00758438
0.000607296
-0.00106039
0.00305388
0.000699236
-0.000983693
0.00384928
0.00043292
-0.000929433
0.00455434
0.000209653
-0.00103071
0.00535729
0.000102954
-0.000643804
0.00317685
0.000338131
-0.00104419
0.00257248
0.000358581
-0.000874415
0.00347553
0.000251903
-0.000946593
0.0038583
0.000139655
-0.000925982
0.00403277
0.000183023
-0.000341175
0.00176754
-1.3264e-05
-0.000616072
0.00146645
4.62819e-05
-0.000655404
0.00241886
8.82884e-05
-0.000652061
0.00351535
0.000110144
-0.000585227
0.0035123
6.75089e-05
-0.000520939
0.00339692
4.5477e-05
-0.000159001
0.000366195
-2.87453e-05
-0.00026552
0.000570467
-9.86167e-06
-0.000335566
0.00192278
1.08889e-05
-0.000313138
0.00252708
1.78547e-05
-0.000310049
0.00266731
-2.59543e-07
-0.000306074
0.00309413
1.28381e-06
-0.000276632
0.00350527
6.40196e-06
-0.00119724
0.00629274
0.0021459
-0.00126848
0.00720265
0.00177417
-0.00131918
0.0067247
0.00179399
-0.00109187
0.00709423
0.00136095
-0.00146478
0.00544564
0.00148316
-0.00138031
0.00541468
0.00145432
-0.00116974
0.00614593
0.000510171
-0.00104357
0.00832268
0.000443436
-0.00118272
0.00773232
0.000668892
-0.00129284
0.00651211
0.000830118
-0.00111058
0.0036202
0.00067095
-0.000948503
0.00408058
0.000372247
-0.000789181
0.00471599
0.000186031
-0.00101835
0.00551095
0.00012775
-0.00112886
0.00646792
0.000190272
-0.000672135
0.00328071
0.000347072
-0.000985197
0.00294094
0.000338797
-0.000844621
0.0037745
0.000248821
-0.000890835
0.0042075
0.00014147
-0.0009005
0.00433107
0.000156625
-0.000723269
0.0049546
0.000205875
-0.000380511
0.00190884
1.11723e-06
-0.000594488
0.00173649
4.56557e-05
-0.000633269
0.00268115
8.16937e-05
-0.000624239
0.00377664
0.000138102
-0.000564637
0.00380284
7.41968e-05
-0.000513087
0.00362086
5.0583e-05
-0.00050674
0.00439673
4.54052e-05
-0.000163039
0.00052082
-3.01096e-05
-0.000265366
0.000817094
-1.00056e-05
-0.000327704
0.00222754
1.30853e-05
-0.000305915
0.0028319
1.19803e-05
-0.000295383
0.00298084
-2.89322e-07
-0.000301126
0.00339526
-2.62854e-07
-0.00026915
0.0037688
6.91017e-06
-0.000239668
0.00383119
3.34595e-06
-0.00117122
0.00594924
0.00239211
-0.00129423
0.00645488
0.00212178
-0.000916327
0.00663139
0.00198564
-0.00128334
0.00732789
0.0017459
-0.00141231
0.00684226
0.00160414
-0.00132001
0.00719011
0.00153453
-0.00106964
0.00702115
0.00139343
-0.001391
0.00570912
0.00144489
-0.00146297
0.00571392
0.00146417
-0.00147972
0.00550224
0.00125517
-0.00124893
0.00660919
0.00048249
-0.000810147
0.0082435
0.000450999
-0.00098987
0.0078125
0.000563952
-0.00126126
0.00661762
0.000806288
-0.00135425
0.00576254
0.000782256
-0.00104856
0.004086
0.000609056
-0.000989196
0.004414
0.000341536
-0.000943932
0.00498361
0.000203937
-0.000994618
0.00563961
0.000161156
-0.00108125
0.0065733
0.000203119
-0.00103712
0.00571796
0.000246424
-0.000735218
0.00345777
0.000347446
-0.0009095
0.00329472
0.000308307
-0.000817351
0.00405042
0.000246963
-0.000854086
0.00455007
0.000136099
-0.000868844
0.00461219
0.000164557
-0.000712465
0.00513653
0.000174073
-0.000641193
0.00503484
0.000186436
-0.00039843
0.00205991
1.77648e-05
-0.000578974
0.00201651
3.47091e-05
-0.000607782
0.00292607
8.08128e-05
-0.000602145
0.00401036
0.000144207
-0.000525026
0.0040702
0.000100381
-0.000494071
0.00383642
5.15806e-05
-0.000484707
0.00460971
5.31537e-05
-0.000374274
0.00410972
1.59334e-05
-0.000170118
0.000682417
-2.89863e-05
-0.000264453
0.00106203
-1.05939e-05
-0.000323901
0.0025295
1.19366e-05
-0.00029432
0.00312789
1.14198e-05
-0.000286617
0.00328381
-4.38132e-06
-0.000294339
0.00369056
-1.25312e-06
-0.000250351
0.00401159
7.29494e-06
-0.000218932
0.00405339
3.64429e-06
-0.000160925
0.00344641
-4.73352e-06
-0.000831087
0.00583143
0.00251545
-0.00137435
0.00603288
0.00218861
-0.000768866
0.00588497
0.00243826
-0.00122263
0.00658578
0.00205781
-0.00126576
0.00651518
0.00209144
-0.0013781
0.00623804
0.00200324
-0.00106443
0.00727668
0.00173511
-0.00115793
0.00672515
0.00162994
-0.00113525
0.00704477
0.00142175
-0.0011944
0.0069305
0.00124177
-0.00122603
0.00700264
0.00138748
-0.00131008
0.00607382
0.00152867
-0.00144196
0.0062017
0.00140919
-0.00144981
0.00587268
0.00128229
-0.00104096
0.00556708
0.00103731
-0.00121234
0.00707009
0.000541743
-0.000885907
0.00820694
0.000415758
-0.00115525
0.0078199
0.000654922
-0.00121443
0.00661543
0.000785948
-0.00137619
0.00611129
0.000752479
-0.00101619
0.00564825
0.000636922
-0.00109044
0.00456635
0.000568378
-0.000921693
0.00469703
0.000338211
-0.000880713
0.0051565
0.000232008
-0.00102754
0.00582517
0.000191829
-0.000998967
0.00663852
0.000226053
-0.00095823
0.00591403
0.000252818
-0.000831721
0.00585326
0.000310313
-0.000744837
0.0036253
0.000377309
-0.000879305
0.0036168
0.000325693
-0.000787612
0.00429964
0.000238922
-0.00081096
0.00484744
0.000158408
-0.000826811
0.00488574
0.000164329
-0.000664394
0.00529579
0.000175625
-0.000617478
0.00516364
0.000178042
-0.000362113
0.00523123
0.000141257
-0.00043769
0.00223724
2.80654e-05
-0.000556239
0.00228798
3.80772e-05
-0.000596987
0.00316582
6.80443e-05
-0.000576823
0.00423711
0.000136569
-0.000496636
0.00430857
0.000115861
-0.000471841
0.00405611
5.81895e-05
-0.000451149
0.00480094
6.11548e-05
-0.000326106
0.00425029
1.97584e-05
-0.000258575
0.00400052
-2.88203e-05
-0.000173589
0.00084686
-2.78934e-05
-0.000264829
0.00130887
-1.09995e-05
-0.000315376
0.00282252
1.17595e-05
-0.000283162
0.00341234
1.06429e-05
-0.000288639
0.0035897
-5.82249e-06
-0.000281731
0.00396962
-1.71344e-06
-0.000234037
0.00423668
7.6884e-06
-0.000203127
0.00426016
3.65168e-06
-0.000144303
0.00359907
-4.71436e-06
-5.63685e-05
0.00411956
-9.26695e-06
-0.000901262
0.00601681
0.0029454
-0.00102143
0.00552461
0.00253599
-0.000785415
0.00615387
0.0022912
-0.00124979
0.00597542
0.00220904
-0.00113378
0.00575786
0.00218374
-0.00108901
0.00562772
0.0020415
-0.00105027
0.00673276
0.00196033
-0.00103176
0.00638425
0.00206257
-0.00102455
0.00612761
0.00209117
-0.00112383
0.00560505
0.00181595
-0.00124517
0.00733008
0.00163636
-0.00139154
0.00690597
0.00163575
-0.001323
0.00707373
0.00148204
-0.00106688
0.00658001
0.00138931
-0.000760209
0.00640699
0.00114488
-0.00127029
0.00707035
0.00136913
-0.0013259
0.00644651
0.00145478
-0.00135498
0.00643825
0.00149185
-0.00134031
0.00622329
0.00118447
-0.00149279
0.00589681
0.00106915
-0.000928229
0.00566074
0.000978569
-0.00121381
0.00744606
0.00050818
-0.000918534
0.00823909
0.000506439
-0.00103604
0.00776854
0.000622445
-0.00124179
0.0067085
0.000776109
-0.00119256
0.00637508
0.000715752
-0.000994022
0.00582609
0.000610429
-0.000900767
0.00566123
0.000578858
-0.00109853
0.00500664
0.000572689
-0.000958434
0.00502938
0.000315158
-0.000984748
0.00543216
0.000259693
-0.000999952
0.00600608
0.000240092
-0.000931056
0.00669637
0.000238225
-0.000867386
0.0061096
0.000233477
-0.000790943
0.0059649
0.000314635
-0.00050184
0.00532016
0.000348006
-0.000778839
0.00379004
0.000370791
-0.000841335
0.00394661
0.0003326
-0.000770451
0.00455892
0.000239877
-0.000773423
0.00510886
0.000174104
-0.000790771
0.00514682
0.000191465
-0.00059548
0.00541508
0.000168679
-0.000547591
0.00526435
0.00017136
-0.000301131
0.00525277
0.000131523
-0.000196185
0.00489995
1.05817e-07
-0.000468036
0.00243419
3.86534e-05
-0.000543139
0.00254082
5.35435e-05
-0.000568943
0.0033914
6.60694e-05
-0.000557916
0.00442767
0.000152233
-0.000503338
0.0045518
0.000108035
-0.000429117
0.00425941
5.99479e-05
-0.000403021
0.00495873
6.93789e-05
-0.000291573
0.0043592
4.06956e-05
-0.000214738
0.00411028
-1.95654e-05
-7.25703e-05
0.00456218
-6.1663e-06
-0.000173359
0.0010115
-2.67468e-05
-0.00026538
0.00155691
-1.05533e-05
-0.000304239
0.00310405
1.17085e-05
-0.000274979
0.00368906
1.00217e-05
-0.000271182
0.00387737
-5.84561e-06
-0.000270677
0.00423554
-1.05629e-06
-0.000217471
0.00444445
7.98978e-06
-0.000190292
0.00445402
4.12164e-06
-0.000130368
0.00373821
-5.12167e-06
-4.43517e-05
0.00417048
-1.12887e-05
-2.36268e-05
0.00428597
-6.19191e-06
-0.000950115
0.00584781
0.00305628
-0.00085621
0.00587608
0.00288197
-0.000728902
0.0054707
0.00291785
-0.00112354
0.00541924
0.00255316
-0.000836383
0.00607031
0.00232216
-0.000877226
0.0061118
0.00223678
-0.00130534
0.00618723
0.00217213
-0.00120849
0.00607845
0.00206518
-0.00117954
0.00602296
0.0019435
-0.000936024
0.00602734
0.00179142
-0.0010256
0.00661826
0.00197911
-0.00118196
0.00631785
0.00181714
-0.00114155
0.00612095
0.00188778
-0.000896647
0.00564486
0.00188113
-0.000944384
0.0062484
0.00152476
-0.00124503
0.00735192
0.00160114
-0.00128303
0.0071736
0.00132586
-0.00101464
0.00683989
0.00152924
-0.0011648
0.00649178
0.00139476
-0.00119096
0.00618389
0.00131059
-0.000701692
0.00566093
0.00107661
-0.00128776
0.00719677
0.0012863
-0.00130822
0.00674109
0.00146422
-0.00129185
0.00689184
0.00125699
-0.00125402
0.0064636
0.00126377
-0.00105973
0.00598663
0.000961818
-0.000883474
0.00573596
0.000883381
-0.000780319
0.00486208
0.00088613
-0.00116553
0.00761773
0.000555177
-0.000992943
0.00828003
0.000501746
-0.00126705
0.00785152
0.000705752
-0.00101204
0.00661468
0.000728345
-0.00112006
0.00667458
0.00066561
-0.0008964
0.0059723
0.000598555
-0.000746048
0.00565157
0.000575189
-0.000443721
0.00556993
0.000466561
-0.00106688
0.00535312
0.000611119
-0.00099532
0.00538576
0.000370296
-0.000941893
0.00561482
0.000303936
-0.000985658
0.0062242
0.0002538
-0.000878017
0.00679905
0.000224655
-0.000787004
0.00631035
0.000228993
-0.000673567
0.00603126
0.000293096
-0.00036048
0.00533949
0.000354648
-0.000179853
0.00489893
0.000329002
-0.000802751
0.0039507
0.000354434
-0.000805165
0.00419706
0.000382369
-0.000705515
0.00478502
0.000243065
-0.000776726
0.00540922
0.000158329
-0.000748452
0.00534764
0.000218402
-0.000489781
0.00544299
0.000224212
-0.000442696
0.00534675
0.000125947
-0.000249242
0.00525401
0.000127788
-0.000136388
0.00497387
-2.07447e-05
-0.000113727
0.00508739
-1.18076e-06
-0.000465771
0.00262776
5.77449e-05
-0.000553563
0.00280637
6.12822e-05
-0.000587982
0.00364818
8.05023e-05
-0.00055362
0.00462476
0.000147625
-0.00045998
0.00477264
0.000120187
-0.000406429
0.00443597
6.72253e-05
-0.000369978
0.00510538
6.58056e-05
-0.000306232
0.00451012
3.43987e-05
-0.000184543
0.00421182
-6.67141e-06
-4.9819e-05
0.00454619
1.89789e-06
4.05567e-05
0.00507501
5.7416e-05
-0.000172228
0.00117417
-2.52783e-05
-0.000262207
0.00180272
-1.03488e-05
-0.000292887
0.00337513
1.12556e-05
-0.000249512
0.00393612
1.4159e-05
-0.00026158
0.00415487
-5.9026e-06
-0.000261196
0.00449199
-1.10773e-06
-0.000198308
0.00463322
8.47992e-06
-0.000171199
0.00462906
4.14749e-06
-0.00011316
0.00386094
-5.44673e-06
-2.57197e-05
0.00420171
-1.06232e-05
-5.1145e-06
0.00428769
-7.89525e-06
-5.86116e-05
0.00405309
-3.29551e-06
-0.00112843
0.00478734
0.00365421
-0.000901815
0.00537369
0.0033297
-0.000838261
0.00590321
0.00303702
-0.000687568
0.00578947
0.00301565
-0.000916214
0.00580992
0.00274978
-0.000645439
0.00529261
0.00286911
-0.000815684
0.00553718
0.00272938
-0.000900367
0.00521788
0.00237289
-0.000978731
0.00599061
0.00240309
-0.000935249
0.00577625
0.00241342
-0.00080235
0.00531376
0.00239902
-0.00119143
0.00639283
0.00214566
-0.00080537
0.00583605
0.00203794
-0.000954233
0.00605244
0.00184837
-0.000868792
0.00613252
0.00181047
-0.000860991
0.0055285
0.00178355
-0.000836918
0.00633346
0.00189733
-0.00120079
0.00639121
0.00182351
-0.000965784
0.00606716
0.00182207
-0.00107721
0.00602408
0.00142097
-0.000960129
0.00637931
0.00151938
-0.000577742
0.00613299
0.00147503
-0.00111631
0.00734702
0.00150641
-0.00108288
0.00711088
0.00143853
-0.00120606
0.00684322
0.00123675
-0.00124027
0.00653145
0.00147581
-0.000472125
0.00571672
0.00127432
-0.000707032
0.00572288
0.00107219
-0.000558607
0.00579436
0.000919413
-0.00100244
0.00703021
0.00137415
-0.00136107
0.00715519
0.00124033
-0.00143209
0.00722664
0.00129447
-0.000842579
0.00636089
0.00119025
-0.00103882
0.00609666
0.00107251
-0.000724334
0.00562955
0.000896169
-0.0005888
0.00484562
0.000742594
-0.000325426
0.00503654
0.000688607
-0.001141
0.00774211
0.000674901
-0.00101672
0.00829071
0.000565893
-0.000940125
0.00767198
0.000679526
-0.00130623
0.00691292
0.000728086
-0.000925428
0.00682637
0.000623968
-0.000772716
0.00608887
0.000534747
-0.000704712
0.00570763
0.000573647
-0.000407856
0.00572831
0.000464186
-0.000164393
0.00565899
0.000477587
-0.00100337
0.00555237
0.000593564
-0.00101001
0.00579843
0.000403298
-0.000919269
0.00592343
0.000275439
-0.00102247
0.00643893
0.000334951
-0.000835586
0.00689984
0.00024015
-0.000647892
0.00648438
0.000208734
-0.000513025
0.00605001
0.000280573
-0.000357464
0.00537834
0.000362475
-9.13967e-05
0.00489489
0.000313705
-8.68824e-05
0.00473355
0.000220063
-0.000777755
0.00413608
0.000342099
-0.000805349
0.00448925
0.000314025
-0.000776937
0.00513124
0.000225109
-0.000734272
0.00567191
0.000161027
-0.000697976
0.0055056
0.000238363
-0.000452975
0.00545994
0.000247996
-0.000386181
0.00540524
0.000181928
-0.000262845
0.00524518
9.13938e-05
-0.000101362
0.0050386
-2.01216e-05
-5.37558e-05
0.00507642
-5.8395e-06
0.000110496
0.00470074
-4.63727e-06
-0.000452023
0.00280683
6.71216e-05
-0.000546045
0.00307991
6.8041e-05
-0.000524871
0.00386597
7.54732e-05
-0.000475004
0.00478103
0.000149723
-0.000439096
0.00497748
0.000120301
-0.000367292
0.0045985
6.375e-05
-0.000323301
0.00522106
7.65371e-05
-0.000239586
0.00459119
5.31155e-05
-0.000150683
0.00430054
-1.67953e-05
-1.22358e-05
0.00452602
1.3777e-08
0.000101808
0.00490566
6.43299e-05
-7.59606e-05
0.00384466
8.52676e-05
-0.000173142
0.0013379
-2.38663e-05
-0.000260384
0.00204757
-9.73891e-06
-0.00027975
0.00363304
1.14929e-05
-0.00024398
0.00417876
1.25937e-05
-0.000242367
0.00441106
3.36112e-07
-0.000243294
0.00472945
-6.8147e-08
-0.000183551
0.00480703
8.63769e-06
-0.000149723
0.00478269
4.56643e-06
-0.000103573
0.00397417
-5.5044e-06
-7.72945e-06
0.00421384
-9.85277e-06
1.38207e-05
0.00427019
-6.94282e-06
-4.64626e-05
0.00409452
-2.85933e-06
-9.38849e-05
0.00336795
-2.8516e-06
-0.00099169
0.00462298
0.0036963
-0.00114081
0.00494343
0.00367463
-0.000799058
0.00464932
0.00368318
-0.000898268
0.00536079
0.00329067
-0.000688258
0.00524985
0.0033294
-0.000827995
0.00583782
0.00298356
-0.000605499
0.00583674
0.00294981
-0.000732925
0.00572929
0.00295237
-0.000481699
0.00551587
0.00273367
-0.000857393
0.00520993
0.00271112
-0.000438949
0.00530305
0.00260694
-0.000778341
0.00573522
0.00247478
-0.00129595
0.00534221
0.00251997
-0.000664448
0.00583683
0.00238575
-0.000920706
0.00562167
0.00252414
-0.00058789
0.00492173
0.00252455
-0.000669963
0.00464501
0.00246874
-0.000779957
0.00634139
0.00204512
-0.00110944
0.00594616
0.0019442
-0.000909123
0.00617261
0.00186111
-0.000876614
0.00597304
0.00180726
-0.000825556
0.00537537
0.00182903
-0.000673352
0.00581535
0.00181951
-0.000897121
0.00614255
0.00200179
-0.000897838
0.00629892
0.00180457
-0.000639857
0.00608759
0.00123688
-0.00129784
0.00626371
0.00164001
-0.000224861
0.00627943
0.00127358
-0.000497455
0.00600927
0.00143352
-0.000512845
0.0056351
0.00141221
-0.00103827
0.00734446
0.00169655
-0.00121289
0.00707542
0.00139369
-0.00112108
0.00657323
0.00139751
-0.00043589
0.00609651
0.00126499
-0.00101001
0.00585836
0.00130536
-0.000441509
0.005635
0.00107937
-0.000310521
0.00565248
0.000935799
-0.000347867
0.00499513
0.000900764
-0.00104082
0.00702308
0.00134781
-0.00112337
0.00741422
0.00122177
-0.00100439
0.00740875
0.00112249
-0.00127398
0.0063884
0.0012347
-0.000811468
0.00609674
0.00107621
-0.000628063
0.00563556
0.000921842
-0.000564361
0.0048503
0.000751129
-0.000419249
0.00516107
0.000629463
-8.33098e-05
0.00541359
0.000614788
-0.00103814
0.00778653
0.000692912
-0.00101344
0.00831101
0.000658024
-0.00100091
0.00766956
0.000649942
-0.00116696
0.00705633
0.00068061
-0.000840484
0.00696347
0.00059588
-0.000667047
0.00624189
0.000490106
-0.00054167
0.00586143
0.000409588
-0.00032448
0.00581055
0.000458424
-6.52403e-05
0.00563631
0.000460713
-1.98318e-05
0.00490405
0.000521967
-0.000993448
0.00579134
0.000599585
-0.000919462
0.00605032
0.000455786
-0.000926168
0.00610605
0.000369915
-0.000937743
0.00670474
0.000213097
-0.000756702
0.00704454
0.000248975
-0.000591747
0.00663579
0.000227512
-0.00041383
0.00601039
0.000276004
-0.000245494
0.00528376
0.000357802
-3.71312e-05
0.00487789
0.000315242
-4.6089e-05
0.00482834
0.000211243
0.000128187
0.00461781
0.000177168
-0.000695786
0.00429134
0.000325625
-0.000801222
0.00479885
0.000287678
-0.000660897
0.00536552
0.000215765
-0.000643737
0.00593202
0.000133727
-0.000624462
0.00564546
0.000206536
-0.000340579
0.00541658
0.00025501
-0.000337543
0.00551741
0.00015007
-0.000151961
0.00522332
0.000116161
-7.30854e-05
0.00504796
4.43425e-06
-2.01661e-05
0.00505632
7.91055e-06
0.000198092
0.00459812
4.97194e-07
-3.04791e-05
0.0031917
6.96553e-06
-0.000454506
0.00298378
6.72533e-05
-0.000538329
0.00335309
7.18836e-05
-0.000543244
0.00412182
7.5691e-05
-0.000493193
0.00496572
0.000139994
-0.000416121
0.00518316
0.000117795
-0.000340792
0.00475043
6.58766e-05
-0.000298983
0.00533016
7.00836e-05
-0.00023929
0.00470146
5.58356e-05
-0.000145769
0.00438938
6.47164e-06
1.24382e-05
0.0045005
-1.14499e-05
0.000145694
0.00470357
7.02322e-05
-6.0014e-05
0.00383361
8.89311e-05
-0.000124571
0.00288927
4.38034e-05
-0.000174208
0.00150049
-2.26216e-05
-0.000256004
0.00228854
-8.83655e-06
-0.000265401
0.00387825
1.04481e-05
-0.000231239
0.00440813
1.33653e-05
-0.000227834
0.00465122
2.62437e-07
-0.00022697
0.00495527
1.48493e-06
-0.000162148
0.00496087
8.24089e-06
-0.000129909
0.00491637
4.87518e-06
-8.0603e-05
0.00406506
-5.7256e-06
9.10975e-06
0.00420873
-9.5074e-06
2.82535e-05
0.00423784
-5.76381e-06
-3.5997e-05
0.00412506
-1.48719e-06
-8.02937e-05
0.00344574
-3.507e-07
-1.6881e-05
0.0032893
-6.95314e-06
-0.000552823
0.00436747
0.00400328
-0.000926923
0.00426754
0.00407859
-0.00122088
0.00470032
0.003666
-0.000778214
0.00455108
0.00372686
-0.000910277
0.0049625
0.00366285
-0.000792679
0.00479218
0.00363618
-0.00045225
0.00481236
0.00354095
-0.000860984
0.0053562
0.00326992
-0.000682403
0.00538962
0.0032278
-0.000566884
0.00523172
0.00319469
-0.000731578
0.00603773
0.00297584
-0.000759137
0.00573004
0.00299201
-0.000272074
0.00556887
0.00294335
-0.00055287
0.00544817
0.00286191
-0.0010052
0.00530105
0.0026786
-0.000819452
0.00543713
0.00266147
-0.000790355
0.00540205
0.00248177
-0.00041713
0.00577711
0.00239429
-0.000440651
0.00527907
0.00241063
-0.0010694
0.00558648
0.00258047
-0.000810117
0.00551153
0.00254594
-0.000594171
0.00511993
0.00257254
-0.000816655
0.00477967
0.00260624
-0.000665623
0.00450258
0.00250704
-0.000602228
0.00484425
0.00227091
-0.0010668
0.00652475
0.00201408
-0.00101153
0.00617911
0.00192587
-0.000485372
0.00616599
0.00179633
-0.00062602
0.00529894
0.00186339
-0.000431329
0.00555301
0.00183608
-0.000277033
0.00563342
0.00179054
-0.000324122
0.00525493
0.00174939
-0.00105407
0.00620676
0.00183893
-0.000915471
0.00625114
0.00175216
-0.0010307
0.0062116
0.00159018
-0.000393199
0.00636929
0.00108861
-0.000775837
0.00618222
0.00150305
-0.000353105
0.0058664
0.00132805
-0.000283299
0.00565563
0.00138577
-0.000195459
0.00529595
0.00132374
-0.00100649
0.00732676
0.00155597
-0.000945168
0.00702336
0.00157041
-0.00105391
0.00660338
0.00141306
-0.000996637
0.00599438
0.0012223
-0.000756415
0.00587396
0.00119434
-0.000575269
0.00583152
0.00105605
-0.000245276
0.00546975
0.000943014
-0.000280397
0.00487584
0.000916237
-0.000161448
0.00483834
0.000953089
-0.00110641
0.00714371
0.00132829
-0.000934675
0.00743532
0.00124794
-0.000924488
0.0073475
0.0012066
-0.00113333
0.00632624
0.00115102
-0.000721181
0.00614184
0.0010703
-0.000543539
0.00572402
0.000864243
-0.000517125
0.00507777
0.000669827
-0.000209016
0.00519631
0.00060042
-6.00314e-05
0.00540173
0.000636115
5.33252e-06
0.005159
0.000715868
-0.000983373
0.00777281
0.000741609
-0.000894959
0.00829231
0.000687111
-0.000960171
0.0077244
0.000637192
-0.00111422
0.00727167
0.000611077
-0.000668901
0.00696098
0.000595305
-0.000573997
0.00630191
0.000518111
-0.00041431
0.00597854
0.000373483
-0.000158056
0.00575661
0.000376088
-1.17295e-07
0.00556045
0.000497266
-6.27785e-06
0.0046862
0.000638758
0.000179404
0.00432489
0.000506273
-0.000894382
0.00598749
0.00060837
-0.000860534
0.00624168
0.000467536
-0.000871773
0.00649109
0.000281618
-0.000816693
0.00692013
0.000327489
-0.000672997
0.00709192
0.000214252
-0.000540362
0.00687685
0.000207696
-0.000372847
0.00599162
0.000281589
-0.000104541
0.00518918
0.000323159
-1.88963e-05
0.00487052
0.000310978
-5.42808e-05
0.0049819
0.0001958
0.000114999
0.00473964
0.000172509
0.000180944
0.00367109
0.000216644
-0.000679647
0.00446933
0.000317957
-0.000730361
0.00503482
0.000281684
-0.000663719
0.00554663
0.000227051
-0.000596191
0.00607235
0.000178434
-0.000577373
0.00574971
0.000190727
-0.000319937
0.00537555
0.000226715
-0.000280279
0.00557494
0.000178778
-0.000179469
0.00522282
9.07527e-05
-4.64342e-05
0.00504936
1.54224e-05
2.84159e-06
0.00505144
1.89028e-05
0.000273686
0.00447319
4.85288e-06
-9.45092e-06
0.00316434
-2.27017e-05
-5.59016e-05
0.00339095
5.55522e-05
-0.000462483
0.00316869
5.96857e-05
-0.000515261
0.00360406
7.5546e-05
-0.00051875
0.00437145
7.56023e-05
-0.000460271
0.0051323
0.000138149
-0.000382023
0.00536
0.000117352
-0.000371017
0.00493691
7.53558e-05
-0.000223002
0.00538789
6.90054e-05
-0.00016019
0.00475353
4.82972e-05
-0.000103655
0.00446415
4.12205e-06
4.68853e-05
0.00449517
-2.59654e-05
0.000170241
0.00448241
6.77155e-05
-5.04261e-05
0.0038261
9.21643e-05
-0.000124883
0.00298377
3.90255e-05
-2.77852e-06
0.00325923
-3.08918e-06
-0.00017594
0.00166508
-2.18581e-05
-0.000251446
0.00252615
-8.78183e-06
-0.000252413
0.00411208
9.74913e-06
-0.000214355
0.00462003
1.29057e-05
-0.000209197
0.00487274
1.04676e-06
-0.000202876
0.00515626
2.15491e-06
-0.000152479
0.00510555
9.27949e-06
-0.000110721
0.00503071
4.61757e-06
-6.48015e-05
0.00414066
-5.9255e-06
2.49136e-05
0.0041903
-1.22008e-05
3.92055e-05
0.0041946
-5.46657e-06
-3.03739e-05
0.00415069
-1.02466e-06
-6.38357e-05
0.00350891
-8.24434e-07
4.57727e-06
0.00328968
-5.3152e-06
5.1572e-05
0.00295591
-1.45278e-05
-0.000435714
0.00465085
0.00387841
-0.000862685
0.00432174
0.00400754
-0.000364922
0.00458039
0.00402535
-0.00113693
0.00420192
0.00405711
-0.00065116
0.00427036
0.00418786
-0.000972908
0.00476876
0.00365284
-0.00068892
0.00442143
0.00369189
-0.000448863
0.00434663
0.00371705
-0.000819143
0.00500768
0.00358296
-0.000685651
0.00497023
0.00348805
-0.000611158
0.00504269
0.00345012
-0.000487129
0.00488349
0.00345876
-0.000726169
0.00534324
0.00326879
-0.000720247
0.00541224
0.00320841
-0.000522365
0.00552553
0.00318428
-0.000522215
0.00514868
0.0031338
-0.000694955
0.0057724
0.00291405
-0.000725408
0.00562595
0.00298588
-0.000558684
0.005353
0.00297621
-0.000422344
0.0054457
0.00295104
-0.000295767
0.00506972
0.00289957
-0.000955453
0.00530056
0.00261322
-0.000815216
0.00551019
0.00261065
-0.000671822
0.00568256
0.00245861
-0.000595226
0.00569801
0.00233943
-0.000496546
0.00518158
0.00232271
-0.000103204
0.00500741
0.00222515
-0.000951152
0.00546239
0.00261974
-0.000810401
0.00532837
0.0025625
-0.000740945
0.0053084
0.00261305
-0.000632452
0.00475254
0.0026061
-0.000349267
0.00456639
0.00246037
-0.000268422
0.00507419
0.00226849
-0.00021943
0.00515788
0.00210849
-0.000959872
0.00647025
0.00190324
-0.000922923
0.00620917
0.00199146
-0.000826553
0.00591291
0.00197481
-0.000836561
0.00550566
0.00203297
-0.000405919
0.005243
0.00180349
-0.000297098
0.00565368
0.00175981
-0.000326097
0.00533331
0.00175496
-6.16385e-05
0.00559089
0.00166313
-0.000898888
0.00617604
0.00179193
-0.000806949
0.00629984
0.001652
-0.000847949
0.00616388
0.00159391
-0.000712913
0.00613521
0.00154055
-0.000646649
0.00585628
0.00130478
-0.000526621
0.00592298
0.00139783
-0.000169326
0.00553251
0.00137522
-7.0217e-05
0.00513323
0.00133832
-0.000102657
0.00480038
0.00138542
-0.00110933
0.00737561
0.0014688
-0.000789353
0.00695626
0.00147775
-0.00084153
0.00667332
0.0014175
-0.000975774
0.00604591
0.00120397
-0.000695498
0.0059513
0.00111927
-0.000453336
0.00585203
0.00108363
-0.000244531
0.0053145
0.000938707
-0.00024865
0.00493055
0.000927936
-0.000121003
0.00490202
0.000913528
2.21853e-06
0.00488905
0.00104445
-0.00104794
0.00742422
0.00131825
-0.000951794
0.00758898
0.00123147
-0.000817961
0.00726179
0.00119144
-0.00102684
0.00627288
0.00117259
-0.000511825
0.00609575
0.00104003
-0.000383684
0.00578366
0.000820338
-0.000350204
0.00525453
0.000623379
-9.38426e-05
0.00521208
0.000589843
-1.06103e-05
0.00532992
0.000682722
0.000142521
0.00489765
0.000748665
0.000139856
0.00473077
0.000822722
-0.00092966
0.00787042
0.000684109
-0.000804827
0.00826545
0.000712762
-0.000940106
0.00783537
0.000644473
-0.000909337
0.00742966
0.000571844
-0.000611714
0.0069809
0.00052987
-0.000543644
0.00641441
0.000486088
-0.000348404
0.00611968
0.000352523
1.97643e-05
0.00559999
0.000405802
3.45624e-05
0.00534311
0.000539974
-2.07229e-05
0.00457192
0.000577985
0.000134713
0.00433532
0.000608615
0.000362947
0.00420534
0.000472727
-0.000850357
0.0062208
0.000592327
-0.000769143
0.00641524
0.000473599
-0.000796628
0.00671415
0.000377387
-0.000642883
0.00702294
0.000225498
-0.000594301
0.00720273
0.000233608
-0.000422267
0.00693667
0.000256763
-0.000172259
0.00582042
0.000270869
-3.77004e-05
0.00500117
0.000327831
2.87313e-05
0.0048247
0.000293812
-1.58589e-05
0.00512731
0.000184267
0.000257649
0.0048617
8.97709e-05
0.000221164
0.00351259
0.000100394
0.000195529
0.0032891
8.20709e-05
-0.000667856
0.00463229
0.000294152
-0.000711607
0.00527474
0.000274384
-0.000629619
0.005708
0.000231177
-0.000553037
0.00619921
0.000192959
-0.000484941
0.00586043
0.00017063
-0.000356103
0.00533255
0.000218817
-0.000164488
0.00558767
0.000155469
-4.5532e-05
0.00514554
0.000141402
-3.28839e-05
0.00503851
3.08342e-05
5.80013e-05
0.00503675
1.89977e-05
0.000306159
0.00437012
-1.3946e-05
3.14944e-05
0.00313734
-5.00719e-05
-2.97945e-05
0.00323662
3.65424e-05
0.000116501
0.00364161
4.74964e-06
-0.000461177
0.00335052
5.45933e-05
-0.000494283
0.00384116
6.54195e-05
-0.000486712
0.00460765
7.36439e-05
-0.00041872
0.00527477
0.000137492
-0.000337419
0.0055055
0.000120866
-0.000334922
0.00512427
6.20392e-05
-0.000233582
0.00545681
8.75327e-05
-0.000153326
0.00481391
5.1231e-05
-6.9693e-05
0.00450246
1.48779e-05
7.82235e-05
0.00447566
-2.96873e-05
0.000175428
0.00426482
5.54073e-05
-4.10883e-05
0.00380899
9.55386e-05
-0.000109325
0.00309673
2.46888e-05
-1.19356e-06
0.00330865
-4.62252e-06
0.000121652
0.003167
-2.3835e-05
-0.000177999
0.00183156
-2.08154e-05
-0.000244887
0.0027573
-8.12515e-06
-0.000233721
0.00432807
8.94489e-06
-0.000199354
0.00481766
1.14746e-05
-0.000187974
0.00507153
2.08964e-06
-0.000179935
0.0053348
2.44299e-06
-0.000110649
0.00520906
9.30133e-06
-8.50333e-05
0.00511961
5.40806e-06
-4.97979e-05
0.00420106
-5.97992e-06
3.88515e-05
0.00415752
-1.2005e-05
4.06181e-05
0.00414946
-7.68607e-06
-1.85741e-05
0.00416546
-1.66086e-06
-4.9554e-05
0.00355852
-1.0823e-06
1.38609e-05
0.00328343
-8.43517e-06
6.45573e-05
0.00290091
-1.48704e-05
0.000120488
0.00195313
-1.45006e-05
-0.000474876
0.00430198
0.00405057
-0.000417329
0.00432868