/*--------------------------------*- C++ -*----------------------------------*\
  =========                 |
  \\      /  F ield         | OpenFOAM: The Open Source CFD Toolbox
   \\    /   O peration     | Website:  https://openfoam.org
    \\  /    A nd           | Version:  7
     \\/     M anipulation  |
\*---------------------------------------------------------------------------*/
FoamFile
{
    version     2.0;
    format      ascii;
    class       volVectorField;
    location    "7.5";
    object      U;
}
// * * * * * * * * * * * * * * * * * * * * * * * * * * * * * * * * * * * * * //

dimensions      [0 1 -1 0 0 0 0];

internalField   nonuniform List<vector> 
18630
(
(0.438012 -0.903228 -0.699854)
(-0.582158 -0.731622 -0.678706)
(0.466495 -0.953238 -0.69308)
(0.826955 -1.84562 -0.488494)
(-1.12082 -1.51824 0.445399)
(-0.514291 -0.846906 -0.650861)
(0.420123 -2.29326 0.940283)
(0.477978 -1.0233 -0.689985)
(0.830997 -1.86559 -0.507892)
(0.404407 -2.85701 0.113456)
(-0.504488 -2.12297 2.17085)
(-1.02617 -1.6035 0.609297)
(-0.333724 -2.1968 2.04492)
(-0.432848 -0.995513 -0.648476)
(0.470611 -2.41388 0.867624)
(0.0300256 -3.14508 0.255681)
(0.547825 -1.09534 -0.689585)
(0.829318 -1.87714 -0.541335)
(0.417476 -2.85991 0.0848726)
(-0.067522 -2.87219 0.489593)
(-2.26571 -2.47624 1.62401)
(-0.362957 -2.07961 2.42726)
(-1.02854 -2.79032 1.91559)
(-0.98452 -1.75284 0.751103)
(-0.233833 -2.59533 1.94823)
(-0.696592 -2.92763 1.30023)
(-0.34941 -1.16829 -0.663297)
(0.497632 -2.49783 0.675085)
(0.078425 -3.23001 0.140233)
(-0.704034 -3.05751 0.916996)
(0.550441 -1.1423 -0.684905)
(0.827014 -1.88598 -0.558098)
(0.418314 -2.84549 0.0927406)
(-0.0453304 -2.8677 0.483882)
(-0.275137 -2.82825 0.139215)
(-3.27546 -1.60225 2.42457)
(-2.11906 -2.55975 2.08771)
(-3.41898 -2.33224 1.17363)
(-0.524316 -2.5496 2.19792)
(-0.954909 -2.97007 1.963)
(-1.52812 -3.36977 0.962156)
(-0.887954 -1.85997 1.03914)
(-0.125054 -2.83009 1.86481)
(-0.770527 -2.79865 1.46751)
(-0.997893 -3.10965 0.593285)
(-0.253671 -1.32723 -0.732332)
(0.509322 -2.5169 0.538997)
(-0.000454388 -3.1833 0.276442)
(-0.724136 -3.10176 0.904265)
(-0.970757 -2.6769 0.432126)
(0.582754 -1.13473 -0.695469)
(0.839875 -1.89504 -0.553429)
(0.435395 -2.83121 0.0769621)
(-0.0660856 -2.8569 0.493248)
(-0.343579 -2.85449 0.162945)
(-0.665928 -2.86856 -0.188426)
(-3.07491 -2.26759 3.01369)
(-3.06989 -2.04184 2.42871)
(-2.15628 -2.96461 2.62565)
(-2.03383 -3.27914 1.29962)
(-3.30417 -2.71967 1.45815)
(-3.85453 -0.510687 0.977185)
(-0.454897 -2.37103 2.65846)
(-0.871162 -3.3455 1.89857)
(-1.3353 -3.25318 1.14091)
(-2.03873 -3.20692 0.11721)
(-0.77436 -1.97859 1.30088)
(-0.0872172 -2.83961 1.84352)
(-0.76034 -2.76748 1.42735)
(-0.989807 -3.06251 0.777315)
(-1.31515 -3.09118 0.374014)
(-0.0989792 -1.54873 -0.547823)
(0.503735 -2.52437 0.423034)
(0.105117 -3.16147 0.217096)
(-0.696623 -3.10458 0.991366)
(-0.978187 -2.66773 0.597108)
(-1.06669 -2.75265 0.344743)
(0.582044 -1.14638 -0.696798)
(0.857468 -1.90492 -0.537155)
(0.458623 -2.81112 0.0666053)
(-0.0473016 -2.83263 0.560545)
(-0.27215 -2.89513 0.146228)
(-0.697175 -2.86335 -0.106865)
(-1.10216 -2.62353 0.145725)
(-2.74718 -1.67458 3.26071)
(-2.90466 -2.79752 2.89186)
(-2.94391 -2.32583 3.10111)
(-3.01835 -2.18049 2.63282)
(-1.88502 -2.97727 2.99235)
(-1.92066 -3.31386 2.92851)
(-1.85359 -3.36564 1.52681)
(-3.49775 -2.46579 1.32321)
(-3.26926 -1.85288 1.31235)
(-2.85483 -2.05651 2.09131)
(-0.530842 -2.61297 2.71228)
(-0.522185 -3.79294 1.62077)
(-1.34445 -3.23497 0.897409)
(-1.87657 -3.21248 0.2287)
(-2.65034 -2.85975 0.52612)
(-0.70109 -2.04834 1.50413)
(-0.155797 -2.78935 1.76891)
(-0.816101 -2.73821 1.40865)
(-1.05235 -3.06209 0.784049)
(-1.26335 -3.12054 0.395809)
(-1.98366 -2.24147 1.3233)
(0.0320833 -1.71846 -0.330387)
(0.539323 -2.51394 0.394064)
(0.125459 -3.11998 0.279112)
(-0.677197 -3.07706 1.05073)
(-0.990471 -2.70231 0.638812)
(-1.03213 -2.75819 0.380149)
(-1.61896 -2.60296 0.29962)
(0.604386 -1.13399 -0.736114)
(0.87464 -1.91441 -0.519992)
(0.429442 -2.80038 0.0833405)
(-0.0209459 -2.81722 0.446542)
(-0.289426 -2.9093 0.231145)
(-0.668976 -2.87218 -0.161743)
(-1.0346 -2.63702 0.146525)
(-1.33904 -2.2756 0.161949)
(-2.64937 -2.05854 2.86411)
(-2.77877 -1.78488 3.22161)
(-3.05196 -1.95423 2.97455)
(-2.7765 -3.00836 2.85206)
(-2.70063 -2.64288 3.05191)
(-3.13325 -1.81887 3.00586)
(-2.77072 -2.53512 2.75213)
(-1.94574 -2.98425 2.88653)
(-1.86151 -3.37519 2.88215)
(-2.03203 -3.27776 2.82082)
(-1.66464 -3.54576 1.59329)
(-3.7296 -2.00592 0.918345)
(-3.63366 -1.76671 0.897059)
(-2.68024 -2.28409 2.05593)
(-2.2659 -2.83047 2.0553)
(-0.645065 -2.97278 2.42295)
(-0.499792 -3.82148 1.40428)
(-1.24847 -3.29745 0.78389)
(-1.83901 -3.19816 0.35474)
(-2.53397 -2.95172 0.515606)
(-2.2326 -2.74062 0.753662)
(-0.515016 -2.24482 1.5526)
(-0.223799 -2.75141 1.63426)
(-0.795453 -2.76629 1.27963)
(-1.07107 -3.07027 0.779059)
(-1.27081 -3.1496 0.412088)
(-1.93107 -2.38545 1.0653)
(-1.99672 -2.29617 0.535016)
(0.136804 -1.8333 -0.0911969)
(0.544815 -2.52667 0.361799)
(0.146828 -3.1 0.274161)
(-0.598631 -3.11301 0.918002)
(-1.03597 -2.57679 1.0088)
(-0.987026 -2.78491 0.410833)
(-1.56523 -2.62982 0.354949)
(-1.49521 -2.40169 0.407274)
(0.618478 -1.169 -0.673042)
(0.890079 -1.91407 -0.524042)
(0.454952 -2.77912 0.0602518)
(-0.0324752 -2.80242 0.517266)
(-0.257162 -2.96497 0.103872)
(-0.651181 -2.87643 -0.219517)
(-1.10682 -2.60414 0.155467)
(-1.37223 -2.25249 0.170336)
(-1.3441 -1.67779 -0.0205206)
(-2.74094 -1.28514 2.97658)
(-2.37845 -2.40391 2.69105)
(-2.53835 -1.23343 3.23151)
(-2.64067 -2.06163 3.22112)
(-2.71066 -2.14622 2.97103)
(-2.58179 -2.43127 2.81256)
(-2.75213 -2.896 2.85528)
(-2.62976 -2.80147 2.94887)
(-3.0941 -2.30764 2.40036)
(-3.19842 -2.04953 2.24495)
(-2.50194 -2.89295 2.6914)
(-1.83182 -3.04221 2.91597)
(-1.97373 -3.42532 2.81283)
(-1.9048 -3.24046 2.91804)
(-2.37705 -2.79871 2.26295)
(-2.0031 -3.48841 1.81919)
(-3.36174 -2.35126 0.716054)
(-3.01783 -2.57919 1.30539)
(-2.67605 -2.49441 1.96644)
(-2.19057 -2.86831 1.96048)
(-2.05708 -2.42258 1.82683)
(-0.465538 -3.18767 2.24184)
(-0.573441 -3.64444 1.29106)
(-1.19149 -3.30372 0.814887)
(-1.74799 -3.22521 0.514214)
(-2.39992 -3.048 0.621431)
(-2.18054 -2.77492 0.800816)
(-2.40346 -2.29239 0.78598)
(-0.4668 -2.38055 1.63018)
(-0.243135 -2.77487 1.56138)
(-0.830211 -2.7991 1.11995)
(-1.11059 -3.05347 0.88834)
(-1.22371 -3.18679 0.357677)
(-1.87016 -2.42152 1.08863)
(-1.95133 -2.33784 0.521253)
(-2.3014 -1.36507 1.10778)
(0.23444 -1.92687 0.0312309)
(0.560433 -2.52901 0.394646)
(0.254619 -3.13253 0.166719)
(-0.622527 -3.10839 0.892326)
(-1.07199 -2.52071 1.27141)
(-0.933304 -2.84006 0.435035)
(-1.56864 -2.61073 0.340283)
(-1.51015 -2.27785 0.434239)
(-1.60715 -1.65132 -0.161577)
(0.622166 -1.17214 -0.652458)
(0.898363 -1.90965 -0.542934)
(0.446413 -2.77191 0.0405837)
(-0.111024 -2.81371 0.496732)
(-0.218874 -3.02459 -0.0105191)
(-0.667893 -2.89329 -0.261081)
(-1.09225 -2.58543 0.161394)
(-1.40073 -2.24696 0.172047)
(-1.29039 -1.66762 -0.0170396)
(-1.85753 -0.97387 -0.1995)
(-2.65651 -1.22679 2.98934)
(-2.38087 -1.5665 3.03237)
(-2.69438 -1.32615 2.7659)
(-2.32547 -2.27233 2.78154)
(-2.44099 -2.08103 2.79303)
(-2.2883 -1.62359 2.93648)
(-2.78854 -2.09477 2.96117)
(-2.82497 -1.72421 2.84428)
(-2.68415 -1.84693 3.04214)
(-2.34241 -1.9054 2.99888)
(-2.37151 -3.22321 2.73051)
(-2.45059 -2.81116 2.92008)
(-2.70962 -2.55712 2.57475)
(-2.701 -2.20195 2.34939)
(-3.38961 -1.33021 1.95024)
(-2.10536 -3.24919 2.68196)
(-1.84065 -3.24355 2.91243)
(-1.91238 -3.36272 3.03201)
(-2.10876 -3.27138 2.76325)
(-1.91993 -2.99695 2.28815)
(-2.44676 -2.03785 1.92679)
(-1.95061 -3.70572 1.62074)
(-3.214 -2.58547 0.783639)
(-3.11293 -2.69658 1.27112)
(-2.33416 -2.85799 1.99543)
(-2.28387 -2.82292 1.87487)
(-2.22235 -2.49667 1.71283)
(-2.34474 -2.12018 1.29666)
(-0.499278 -3.37828 2.1176)
(-0.54053 -3.63397 1.19811)
(-1.14483 -3.34409 0.899878)
(-1.62737 -3.27473 0.632357)
(-2.34589 -3.06725 0.634627)
(-2.17864 -2.78383 0.841446)
(-2.32992 -2.3917 0.767856)
(-2.30224 -1.64398 1.217)
(-0.200951 -2.61454 1.50512)
(-0.268319 -2.74679 1.72557)
(-0.761421 -2.77361 1.30199)
(-1.05456 -3.09182 0.987127)
(-1.17921 -3.22284 0.433559)
(-1.88504 -2.42159 1.10823)
(-1.91241 -2.35864 0.490742)
(-2.2992 -1.39399 1.05853)
(-2.16931 -1.21852 0.14288)
(0.339064 -2.02097 0.102214)
(0.600779 -2.55159 0.433975)
(0.306282 -3.13585 0.133685)
(-0.531409 -3.12978 0.841823)
(-0.954206 -2.7235 1.16516)
(-0.890465 -2.86529 0.432401)
(-1.53493 -2.57212 0.408157)
(-1.45442 -2.23866 0.592669)
(-1.63153 -1.55576 -0.208884)
(-2.13229 -0.752212 -0.229833)
(0.643198 -1.18311 -0.602609)
(0.909195 -1.91309 -0.524804)
(0.415245 -2.77877 0.0448941)
(-0.0567364 -2.7765 0.497519)
(-0.192332 -3.0743 -0.031838)
(-0.684972 -2.91892 -0.242251)
(-1.11061 -2.57196 0.167057)
(-1.37487 -2.23326 0.188294)
(-1.2959 -1.64929 -0.0194643)
(-1.84206 -0.963717 -0.204314)
(-2.00118 -0.749986 -0.187397)
(-2.60905 -1.31162 2.8514)
(-2.63878 -1.52484 2.91919)
(-2.45566 -1.09601 3.05233)
(-2.27533 -1.78799 2.94758)
(-2.73018 -1.44484 2.68176)
(-2.81187 -1.41669 2.42307)
(-2.245 -2.29189 2.83511)
(-2.20734 -2.37655 2.77282)
(-2.37955 -1.86469 2.7649)
(-2.59607 -1.60959 2.2854)
(-2.46943 -2.31666 2.95102)
(-2.24668 -2.45645 2.73529)
(-2.2402 -2.24164 3.01747)
(-2.31855 -1.67217 3.06237)
(-2.60933 -1.72879 2.29654)
(-2.36861 -3.28391 2.69919)
(-2.34468 -3.01906 2.67565)
(-2.56105 -2.65481 2.54417)
(-2.64892 -2.28558 2.36479)
(-2.20521 -2.3633 2.34561)
(-2.4936 -1.58939 1.94454)
(-2.08925 -3.45378 2.41636)
(-1.79347 -3.51165 2.80471)
(-2.06685 -3.42853 2.73502)
(-1.84107 -3.21959 2.89114)
(-2.23971 -2.83418 2.03645)
(-2.24364 -2.07477 1.974)
(-1.96849 -1.87943 1.94118)
(-1.79274 -3.89887 1.53748)
(-2.93551 -3.04579 0.811001)
(-2.49697 -3.2277 1.61208)
(-2.23715 -3.00991 1.83905)
(-2.28671 -2.89809 1.77036)
(-2.30037 -2.47455 1.61879)
(-2.24714 -2.14294 1.3198)
(-2.5439 -1.5358 1.51584)
(-0.485092 -3.4397 2.19102)
(-0.472265 -3.68052 1.30646)
(-0.993807 -3.4775 0.826738)
(-1.64561 -3.32824 0.696341)
(-2.1697 -3.10016 0.840736)
(-2.15229 -2.77065 0.876979)
(-2.36646 -2.35105 0.614314)
(-2.29566 -1.60821 1.258)
(-2.27368 -0.802764 0.948576)
(-0.00486664 -2.81283 1.32731)
(-0.33804 -2.81939 1.80778)
(-0.93899 -2.84749 1.20351)
(-1.05945 -3.19339 0.785351)
(-1.17008 -3.26778 0.505266)
(-1.89683 -2.29395 1.22345)
(-1.93231 -2.27986 0.377863)
(-2.27348 -1.37406 1.04453)
(-2.16872 -1.22163 0.123528)
(-2.35523 -0.815463 -0.130144)
(0.39367 -2.06807 0.32454)
(0.661094 -2.59123 0.516221)
(0.344 -3.09371 0.311934)
(-0.40895 -3.16555 0.80686)
(-1.04837 -2.63653 1.40648)
(-0.83831 -2.88541 0.437864)
(-1.50595 -2.58438 0.443444)
(-1.40107 -2.27833 0.623128)
(-1.61615 -1.54686 -0.0261181)
(-2.08866 -0.817023 -0.117963)
(-2.46266 -0.550706 0.138377)
(0.647579 -1.19646 -0.565948)
(0.904723 -1.9209 -0.515062)
(0.453964 -2.74327 0.0423059)
(-0.0848516 -2.75963 0.481979)
(-0.166611 -3.06062 -0.0819497)
(-0.652587 -2.92622 -0.241086)
(-1.13583 -2.57356 0.169817)
(-1.39007 -2.21509 0.193676)
(-1.35172 -1.64558 -0.0187377)
(-1.83481 -0.951449 -0.218157)
(-1.97396 -0.751533 -0.275342)
(-1.8308 -0.945968 -0.0777252)
(-2.1816 -0.987257 2.80634)
(-2.49687 -1.0732 2.78871)
(-2.64742 -1.27387 2.84945)
(-2.65973 -1.1399 2.81502)
(-2.42615 -1.73132 2.82829)
(-2.38473 -1.37467 2.98418)
(-2.46676 -1.18918 2.90416)
(-1.92623 -2.07259 2.89403)
(-2.4935 -1.60808 2.75563)
(-2.50694 -1.64095 2.59818)
(-2.49873 -1.14759 2.65975)
(-2.2984 -2.32429 2.76697)
(-2.38637 -2.1952 2.62139)
(-2.64966 -1.96295 2.44976)
(-2.60911 -1.64954 2.22856)
(-2.42659 -1.39146 2.30626)
(-2.2449 -2.62793 2.77612)
(-2.30474 -2.42354 2.69835)
(-2.71886 -1.89939 2.56547)
(-2.3395 -2.22736 2.47167)
(-2.52933 -1.85154 2.35475)
(-2.80099 -1.22991 2.08203)
(-2.03061 -3.48918 2.68826)
(-2.35867 -3.08962 2.56141)
(-2.56671 -2.86962 1.83395)
(-2.42424 -2.28115 2.55827)
(-2.56112 -1.97214 2.28754)
(-2.361 -1.70406 2.01851)
(-2.64679 -1.26751 1.64638)
(-1.8607 -3.31556 2.72866)
(-1.72289 -3.65745 2.67637)
(-1.68627 -3.72283 2.84142)
(-2.60036 -2.81442 2.33368)
(-1.95644 -2.79236 2.2081)
(-2.27703 -2.17191 1.75938)
(-2.15482 -1.62355 1.55583)
(-2.33729 -0.914056 1.64969)
(-1.61071 -4.00001 1.74178)
(-2.62528 -3.41924 1.0601)
(-2.49437 -3.36149 1.56719)
(-1.96296 -3.19319 1.90653)
(-2.25817 -2.9726 1.6826)
(-2.1622 -2.44465 1.49292)
(-2.20411 -2.08251 1.34372)
(-2.54248 -1.25801 1.50534)
(-2.59792 -1.02605 0.801027)
(-0.402535 -3.57749 2.0088)
(-0.492701 -3.74843 1.47542)
(-1.02326 -3.44346 1.04204)
(-1.38067 -3.48445 1.04166)
(-2.0982 -3.18175 0.860273)
(-2.22109 -2.68255 0.571459)
(-2.30705 -2.18529 0.547725)
(-2.21149 -1.60691 1.27906)
(-2.28147 -0.772535 0.942815)
(-2.16997 -0.747593 1.18266)
(0.12187 -2.84166 1.43899)
(-0.0945146 -2.93574 1.85155)
(-0.342618 -2.96581 1.6146)
(-0.915308 -3.29057 0.898135)
(-1.05825 -3.27151 0.575972)
(-1.78225 -2.28341 1.39803)
(-1.80301 -2.25514 0.737714)
(-2.07127 -1.69557 0.694012)
(-2.16257 -1.25783 0.108509)
(-2.35238 -0.833298 -0.310278)
(-2.33642 -0.115875 0.131313)
(0.446121 -2.09762 0.43045)
(0.698333 -2.62026 0.572693)
(0.32806 -3.07091 0.336178)
(-0.619668 -3.04942 0.856185)
(-0.96355 -2.72438 1.37325)
(-0.738536 -2.94774 0.377452)
(-1.5132 -2.55524 0.533947)
(-1.40043 -2.2615 0.547065)
(-1.64067 -1.52006 -0.140274)
(-2.0777 -0.778551 -0.0856406)
(-2.41054 -0.484898 0.119694)
(-1.76953 -0.709658 0.732583)
(0.666087 -1.20759 -0.537714)
(0.922613 -1.92269 -0.490314)
(0.434884 -2.74068 0.0516245)
(-0.13257 -2.79838 0.460179)
(-0.186751 -3.00307 0.0861847)
(-0.640881 -2.91432 -0.210925)
(-1.09267 -2.5504 0.172284)
(-1.4114 -2.21159 0.196876)
(-1.33659 -1.63799 -0.021482)
(-1.85345 -0.951769 -0.228205)
(-1.9836 -0.719866 -0.272045)
(-1.80961 -0.951334 -0.0621686)
(-1.40609 -1.1205 -0.0626981)
(-2.08592 -1.00881 2.6983)
(-2.14708 -1.10876 2.82383)
(-2.14284 -0.854485 2.90002)
(-2.32653 -1.27422 2.78959)
(-2.42015 -0.868993 2.87552)
(-2.50582 -1.42507 2.71563)
(-2.6718 -1.04258 2.76255)
(-2.56076 -1.15602 2.78834)
(-2.47054 -1.26082 2.83725)
(-2.16035 -1.61251 2.79768)
(-2.38388 -1.33818 2.82748)
(-2.51082 -1.33153 2.6286)
(-1.80775 -2.13615 2.79408)
(-2.74406 -1.47506 2.45756)
(-2.39093 -1.61162 2.69789)
(-2.21904 -1.29453 2.83906)
(-2.10328 -1.14262 2.78972)
(-2.52259 -2.02791 2.72006)
(-1.88067 -2.41474 2.6585)
(-2.03952 -2.33284 2.5228)
(-2.52864 -1.80085 2.23401)
(-2.33285 -1.48173 2.36359)
(-2.61906 -1.11207 2.23674)
(-2.21294 -2.2622 2.95853)
(-2.34364 -2.30477 2.65391)
(-2.05403 -2.30911 2.58092)
(-1.86715 -2.6494 2.57374)
(-3.27251 -1.1008 1.69671)
(-2.65335 -1.41951 2.10683)
(-2.4834 -1.12971 2.27542)
(-2.21125 -3.21776 2.76481)
(-2.04058 -3.38528 2.24026)
(-2.02581 -2.82535 2.28948)
(-2.49044 -2.29662 2.18722)
(-2.11881 -2.02956 2.4226)
(-2.43635 -1.54718 2.0072)
(-2.53487 -1.35216 1.58525)
(-2.24716 -1.00287 1.49177)
(-1.65616 -3.43518 2.75548)
(-1.68786 -3.68992 2.59831)
(-2.49393 -3.39973 2.15905)
(-1.29853 -3.4565 2.38515)
(-2.12699 -2.47711 2.34527)
(-2.08994 -2.02646 2.00849)
(-1.7316 -1.71848 1.82489)
(-2.08708 -1.43953 1.42904)
(-2.54651 -0.601761 1.13177)
(-1.61389 -3.98388 1.75048)
(-2.2369 -3.72775 1.44374)
(-2.11712 -3.50504 1.62836)
(-1.87895 -3.43119 1.7897)
(-2.1746 -3.05989 1.57906)
(-2.19711 -2.36095 1.35662)
(-2.25387 -1.93536 1.16203)
(-2.30673 -1.51348 1.46827)
(-2.61912 -0.995403 0.781708)
(-2.3135 -0.59842 1.50226)
(-0.273443 -3.54617 2.07564)
(-0.577955 -3.74832 1.55744)
(-0.863617 -3.59571 1.05967)
(-1.5421 -3.51827 0.654264)
(-2.02663 -3.18315 1.02612)
(-2.10452 -2.75427 0.63712)
(-2.23101 -2.10248 0.73383)
(-2.15578 -1.58303 1.23383)
(-2.2435 -0.815244 0.96143)
(-2.21554 -0.717236 1.07118)
(-2.22117 -0.311284 0.242302)
(0.156128 -2.84574 1.41528)
(-0.0555554 -3.13335 1.54255)
(-0.993574 -3.13337 1.01194)
(-1.1645 -3.29003 0.442496)
(-1.06768 -3.22931 0.439564)
(-1.86539 -2.15545 1.50342)
(-1.83486 -2.23427 0.782072)
(-2.14418 -1.45597 0.861881)
(-2.14617 -1.29107 0.1178)
(-2.32709 -0.85935 -0.314732)
(-2.36428 0.0656668 0.255595)
(-1.46236 -0.602891 -0.164112)
(0.551507 -2.1442 0.416119)
(0.767967 -2.63813 0.610956)
(0.404267 -3.0509 0.386217)
(-0.318602 -3.07203 0.771939)
(-0.954614 -2.78318 1.32816)
(-0.760628 -2.89839 0.421627)
(-1.41431 -2.55185 0.554756)
(-1.38658 -2.16673 0.61848)
(-1.55322 -1.60856 0.17936)
(-2.08446 -0.747568 -0.11867)
(-2.34186 -0.458038 0.095206)
(-1.73334 -0.745567 0.856723)
(-1.23022 -0.902333 0.506125)
(0.695106 -1.22676 -0.490075)
(0.928832 -1.93696 -0.449782)
(0.408324 -2.75691 0.0552064)
(-0.12438 -2.78151 0.463136)
(-0.2229 -2.99576 0.108941)
(-0.662819 -2.91586 -0.150809)
(-1.09818 -2.53249 0.172357)
(-1.43351 -2.20021 0.216076)
(-1.34475 -1.60887 -0.0141425)
(-1.84818 -0.948463 -0.227789)
(-1.99463 -0.70799 -0.232849)
(-1.81239 -0.94973 -0.0618441)
(-1.41234 -1.101 -0.0783686)
(-1.52855 -0.469283 -0.0422761)
(-2.08217 -0.533096 2.51148)
(-2.00838 -0.701073 2.76249)
(-2.0297 -1.14049 2.57493)
(-2.12161 -0.706394 2.65367)
(-2.15914 -1.17187 2.84179)
(-2.06359 -1.01101 2.90639)
(-2.18769 -0.586779 2.85987)
(-2.23848 -1.39238 2.79617)
(-2.30889 -1.17825 2.76275)
(-2.40009 -0.888473 2.74913)
(-2.45986 -1.56597 2.67985)
(-2.43608 -1.36359 2.73363)
(-2.71479 -0.753944 2.68663)
(-2.58619 -0.895701 2.68035)
(-1.92291 -2.02259 2.73666)
(-2.04484 -1.6368 2.75157)
(-2.1698 -1.5286 2.6639)
(-2.64534 -1.09268 2.47412)
(-2.45737 -0.97514 2.49269)
(-1.89421 -2.10833 2.79664)
(-2.09018 -1.75365 2.83331)
(-2.3512 -1.25781 2.83565)
(-1.95579 -1.41416 2.95386)
(-1.91446 -1.26378 2.87798)
(-2.04263 -1.14737 2.77379)
(-1.94827 -2.66312 2.48117)
(-2.10159 -2.37235 2.42551)
(-2.80454 -1.54401 2.16365)
(-2.34323 -1.82848 2.21945)
(-2.36021 -1.35805 2.38261)
(-2.61949 -1.06742 2.26779)
(-2.46064 -1.04135 2.38359)
(-1.72889 -2.66762 2.75533)
(-2.00621 -2.43571 2.71227)
(-2.03421 -2.46122 2.42643)
(-3.2235 -1.55345 1.07831)
(-2.06884 -2.14113 2.29026)
(-2.66928 -1.28565 1.92466)
(-2.66107 -0.831806 2.07122)
(-2.5365 -0.858922 1.84112)
(-1.9253 -3.29379 2.64315)
(-1.95593 -2.96371 2.73677)
(-1.9433 -2.90891 2.3528)
(-1.94732 -2.44668 2.26812)
(-2.18301 -2.10862 2.10391)
(-2.31419 -1.64346 1.91751)
(-2.39614 -1.32674 1.599)
(-2.21806 -0.926076 1.55209)
(-2.25833 -0.662622 1.5305)
(-1.53827 -3.50759 2.70942)
(-1.70982 -3.6894 2.46725)
(-1.91515 -3.33882 2.21188)
(-1.69306 -3.34986 2.22605)
(-2.06127 -2.46458 2.39505)
(-2.04694 -2.10512 1.93961)
(-1.91786 -1.72558 1.61595)
(-2.30093 -1.18989 1.20026)
(-2.50994 -0.65529 1.07717)
(-2.50931 -0.475235 1.30689)
(-1.25629 -4.05446 1.82747)
(-2.08882 -3.84603 1.5516)
(-1.93361 -3.57909 1.67134)
(-1.79042 -3.55961 1.54597)
(-2.10408 -3.08411 1.47594)
(-2.21321 -2.39029 1.30426)
(-2.28986 -1.92321 1.03153)
(-2.54027 -1.48869 0.865119)
(-2.53708 -0.976355 0.805979)
(-2.27759 -0.746503 1.44534)
(-2.20474 -0.11296 1.11271)
(-0.446492 -3.48347 2.07106)
(-0.386066 -3.73235 1.52906)
(-0.800758 -3.66655 1.2807)
(-1.35177 -3.49372 1.18495)
(-1.99936 -3.21406 0.686601)
(-2.21201 -2.74542 0.500425)
(-2.18269 -2.16765 0.77557)
(-2.14978 -1.55665 1.02441)
(-2.18701 -0.927974 0.988145)
(-2.22272 -0.799755 1.0478)
(-2.26398 -0.293997 0.292721)
(-1.81661 -0.241824 0.859206)
(0.249336 -2.85172 1.39528)
(0.0156528 -3.18386 1.42317)
(-0.4715 -3.21974 1.01426)
(-0.823892 -3.28185 0.790335)
(-0.956782 -3.19792 0.704774)
(-1.70674 -2.16881 1.38855)
(-1.76479 -2.29167 0.750795)
(-1.92419 -1.82167 0.527602)
(-2.09444 -1.35993 0.149058)
(-2.26687 -0.967724 -0.109338)
(-2.39713 0.13926 0.374617)
(-1.42971 -0.635114 -0.267189)
(-1.5711 -0.726356 0.26267)
(0.6365 -2.19987 0.430707)
(0.772706 -2.67345 0.646443)
(0.416495 -3.05716 0.395897)
(-0.260252 -3.15153 0.713066)
(-0.882358 -2.86673 1.24457)
(-0.639507 -2.8807 0.442667)
(-1.44081 -2.5325 0.498712)
(-1.38666 -2.12609 0.52435)
(-1.64254 -1.54117 0.175882)
(-2.09092 -0.736581 -0.123593)
(-2.24897 -0.482726 -0.0347111)
(-1.69675 -0.81859 0.974188)
(-1.24249 -0.894594 0.439842)
(-1.5015 -0.459962 0.162123)
(0.717715 -1.24321 -0.475039)
(0.933714 -1.93433 -0.443553)
(0.434922 -2.71413 0.0555308)
(-0.107733 -2.76067 0.416559)
(-0.208375 -2.98132 0.113696)
(-0.669153 -2.92221 -0.102986)
(-1.11767 -2.54507 0.17379)
(-1.38364 -2.18298 0.194772)
(-1.36801 -1.60562 -0.0106934)
(-1.83532 -0.936256 -0.243828)
(-2.0042 -0.672395 -0.166492)
(-1.7969 -0.989916 -0.0553375)
(-1.42402 -1.0688 -0.0258507)
(-1.59245 -0.372049 0.0555954)
(-1.47644 0.0277327 -0.260084)
(-2.24101 -0.395175 2.2544)
(-1.92051 -0.857543 2.50847)
(-2.20952 -0.393061 2.50585)
(-1.7975 -1.05751 2.74609)
(-1.97019 -0.796355 2.74214)
(-2.05392 -1.07889 2.59089)
(-1.99597 -0.776671 2.69588)
(-1.9875 -0.557538 2.75008)
(-2.11554 -1.26748 2.82061)
(-2.15631 -0.983762 2.86202)
(-2.20144 -0.851224 2.75272)
(-2.22144 -0.671514 2.71171)
(-2.2497 -1.44949 2.74599)
(-2.308 -1.32456 2.71687)
(-2.3532 -1.02829 2.69882)
(-2.28637 -0.906668 2.67871)
(-2.38573 -1.76524 2.66231)
(-2.37338 -1.55932 2.72179)
(-2.28098 -1.25308 2.81003)
(-2.38309 -0.90968 2.74274)
(-2.41976 -0.703928 2.63927)
(-1.82269 -2.04181 2.71566)
(-2.09214 -1.7714 2.6745)
(-2.21063 -1.6392 2.57491)
(-2.38472 -1.50378 2.34928)
(-2.30703 -1.05925 2.42831)
(-2.37615 -0.82394 2.38475)
(-1.86038 -2.12599 2.87785)
(-1.87101 -2.01668 2.8825)
(-1.94189 -1.6954 2.8881)
(-2.02112 -1.24085 2.94857)
(-1.95591 -0.993623 2.93554)
(-2.24513 -0.821761 2.74065)
(-2.49663 -0.617761 2.40354)
(-1.97201 -2.78226 2.29766)
(-2.02268 -2.43756 2.53503)
(-1.99757 -2.21492 2.42324)
(-1.80199 -1.91972 2.45463)
(-2.25188 -1.38144 2.40848)
(-2.46235 -1.18662 2.2295)
(-2.30251 -1.16343 2.32551)
(-2.61368 -0.657525 2.08621)
(-1.7077 -2.76716 2.69129)
(-1.99348 -2.59776 2.449)
(-2.09256 -2.5261 2.26845)
(-1.95682 -2.20219 2.18619)
(-2.38736 -2.08379 1.97081)
(-2.33163 -1.72724 1.94358)
(-2.5446 -0.955222 1.93601)
(-2.32434 -0.989694 1.95448)
(-2.23043 -0.654493 1.99429)
(-1.51035 -3.65598 2.3763)
(-2.17031 -3.01738 2.43248)
(-1.99199 -2.80735 2.42366)
(-1.76271 -2.58833 2.28669)
(-2.1157 -2.19349 1.8096)
(-2.35319 -1.69916 1.84613)
(-2.22423 -1.47714 1.59897)
(-2.17715 -0.962348 1.54855)
(-2.20216 -0.828345 1.5366)
(-2.28855 -0.555831 1.65901)
(-1.53078 -3.43281 2.79882)
(-1.71051 -3.63309 2.41141)
(-1.76555 -3.43874 2.33004)
(-1.42405 -3.25018 2.39484)
(-2.14715 -2.2445 2.33508)
(-2.05578 -2.13079 1.86415)
(-2.01551 -1.68629 1.46915)
(-2.29915 -1.06974 1.08644)
(-2.4987 -0.748914 1.17014)
(-2.37379 -0.539589 1.43486)
(-2.31501 -0.289294 1.57659)
(-1.10866 -4.1321 1.78357)
(-1.93868 -3.79648 1.71178)
(-1.82284 -3.67125 1.70665)
(-1.81946 -3.41164 1.42638)
(-2.01451 -3.02535 1.42029)
(-2.01109 -2.56942 1.38276)
(-2.2362 -2.0247 1.19621)
(-2.5147 -1.21449 0.785381)
(-2.41785 -1.07294 1.00482)
(-2.04263 -0.928523 1.56514)
(-1.85414 -0.426499 1.73807)
(-2.17541 0.166158 1.34578)
(-0.287572 -3.50762 2.04851)
(-0.558766 -3.65058 1.59763)
(-0.972695 -3.60256 1.3816)
(-1.56935 -3.51706 0.469031)
(-1.83911 -3.25385 0.799407)
(-2.14374 -2.80302 0.625988)
(-2.16733 -2.09976 0.785289)
(-2.00403 -1.52684 1.00195)
(-2.17516 -0.974233 0.969778)
(-2.28493 -0.898225 0.989382)
(-2.33745 -0.244488 0.215701)
(-1.72612 -0.280468 0.794622)
(-1.61162 -0.201064 0.598483)
(0.403414 -2.95124 1.19509)
(0.0608532 -3.21493 1.38019)
(-0.320438 -3.26891 1.03697)
(-0.814371 -3.37847 0.896673)
(-1.03262 -3.16584 0.700627)
(-1.27751 -2.55701 0.96344)
(-1.95086 -2.06211 0.610976)
(-2.05254 -1.52797 0.81632)
(-2.02081 -1.44808 0.248846)
(-2.25978 -0.992605 -0.0538567)
(-2.39102 0.134355 0.281481)
(-1.39454 -0.661326 -0.334685)
(-1.4231 -0.911424 0.0657962)
(-1.7821 -0.245586 0.270174)
(0.775243 -2.23549 0.435562)
(0.851347 -2.69536 0.517242)
(0.46337 -3.05908 0.41863)
(-0.264746 -3.16297 0.701655)
(-0.881133 -2.85707 1.2675)
(-0.7106 -2.83767 0.494462)
(-1.23524 -2.64478 0.602625)
(-1.39362 -2.07473 0.507346)
(-1.6294 -1.53679 0.166831)
(-2.09877 -0.746707 -0.151146)
(-2.11659 -0.559643 -0.249228)
(-1.63044 -0.924545 1.08316)
(-1.24205 -0.881693 0.362313)
(-1.52413 -0.454314 0.172647)
(-1.61722 0.187033 -0.214816)
(0.766641 -1.26636 -0.397087)
(0.96994 -1.91988 -0.404232)
(0.420001 -2.69826 0.0513519)
(-0.127162 -2.80029 0.383205)
(-0.209987 -2.97424 0.153857)
(-0.664758 -2.91166 -0.0856674)
(-1.12447 -2.52362 0.173945)
(-1.40968 -2.14034 0.228421)
(-1.37382 -1.59109 -0.00829699)
(-1.84415 -0.936777 -0.251177)
(-1.96244 -0.72523 -0.278429)
(-1.78115 -1.01152 -0.0556836)
(-1.42757 -1.0582 0.0108288)
(-1.58819 -0.411513 -0.0239545)
(-1.50375 0.0538157 -0.270871)
(-1.13607 0.60859 -0.394404)
(-1.99915 -0.370765 2.25)
(-2.06877 -0.598786 2.28668)
(-2.20904 -0.35573 2.31491)
(-1.92326 -0.932945 2.49795)
(-2.0648 -0.505522 2.52015)
(-2.20543 -0.105312 2.58862)
(-1.79916 -1.11536 2.73047)
(-1.89102 -0.831836 2.72262)
(-1.86699 -0.537419 2.87215)
(-2.05082 -1.1561 2.62026)
(-1.96207 -0.965624 2.66841)
(-1.99489 -0.748413 2.65004)
(-2.10532 -0.535178 2.63737)
(-2.06294 -1.32298 2.77251)
(-2.16418 -1.1894 2.71875)
(-2.33322 -0.988946 2.57067)
(-2.24448 -0.748819 2.66026)
(-2.18612 -0.386315 2.69856)
(-2.14903 -1.43584 2.77067)
(-2.26401 -1.37529 2.7207)
(-2.43813 -1.1788 2.64649)
(-2.30289 -0.995917 2.65606)
(-2.22705 -0.70741 2.62046)
(-2.1586 -1.83879 2.58938)
(-2.18758 -1.67182 2.67829)
(-2.25582 -1.31563 2.77834)
(-2.42091 -1.06816 2.63494)
(-2.17313 -0.906682 2.72929)
(-2.23068 -0.286689 2.71289)
(-1.75414 -2.04785 2.63259)
(-2.20491 -1.74236 2.53715)
(-2.22551 -1.73433 2.55889)
(-2.26847 -1.67028 2.38083)
(-2.25243 -1.07519 2.42112)
(-2.26241 -0.872737 2.33604)
(-2.39607 -0.811967 2.20938)
(-1.68328 -2.10853 2.99146)
(-1.81445 -2.06064 2.88278)
(-1.9515 -1.77146 2.85818)
(-1.79313 -1.55591 2.90126)
(-1.93353 -1.0963 2.91277)
(-2.30666 -1.02531 2.58042)
(-2.32279 -0.720074 2.42751)
(-2.27171 -0.509902 2.38443)
(-1.97925 -2.67277 2.18878)
(-2.02066 -2.45855 2.46633)
(-2.01857 -2.22287 2.44485)
(-2.11014 -1.80261 2.47262)
(-2.05278 -1.49416 2.52854)
(-2.34054 -1.36027 2.17321)
(-2.31958 -1.07583 2.24222)
(-2.64621 -0.534991 2.08104)
(-2.3194 -0.5477 2.15739)
(-1.57697 -2.75544 2.73513)
(-1.79572 -2.61259 2.3963)
(-1.91382 -2.42513 2.26376)
(-1.988 -2.44959 2.24634)
(-2.12503 -2.00168 2.05122)
(-2.34799 -1.7528 1.85352)
(-2.38003 -1.05477 2.04937)
(-2.14576 -1.13432 2.03954)
(-2.26454 -0.69397 1.92864)
(-2.14623 -0.388872 2.03093)
(-1.26328 -3.87164 2.20695)
(-1.57494 -3.18685 2.41208)
(-2.04009 -2.70969 2.4051)
(-1.82411 -2.64272 2.22671)
(-2.02782 -2.18105 1.7239)
(-2.37966 -1.59822 1.85571)
(-2.14612 -1.39156 1.78189)
(-2.14752 -1.07041 1.51114)
(-2.17977 -0.902935 1.54917)
(-2.39026 -0.38846 1.50085)
(-2.28767 -0.331396 1.89063)
(-1.47183 -3.62183 2.64411)
(-1.58663 -3.69955 2.2644)
(-1.61273 -3.64467 2.30079)
(-1.39843 -3.1564 2.3195)
(-1.91663 -2.32565 2.26282)
(-2.02732 -2.1003 1.77169)
(-2.00692 -1.68357 1.36957)
(-2.26171 -1.06741 1.0196)
(-2.46102 -0.839389 1.22424)
(-2.2385 -0.594137 1.52754)
(-2.24523 -0.23695 1.5803)
(-2.22108 0.0585645 1.71016)
(-0.994528 -4.15953 1.69495)
(-1.67688 -3.90218 1.52719)
(-1.57357 -3.86214 1.66973)
(-1.91974 -3.335 1.39762)
(-2.00774 -2.96182 1.32548)
(-2.14063 -2.46903 1.12564)
(-2.46458 -1.77166 0.991154)
(-2.4449 -1.13067 0.493217)
(-2.3421 -1.09936 1.17743)
(-1.94729 -0.956601 1.59113)
(-2.2455 -0.311467 1.29173)
(-2.10506 0.164352 1.26012)
(-2.06738 0.188741 1.0085)
(-0.284111 -3.61827 1.89602)
(-0.358941 -3.69722 1.53608)
(-0.911083 -3.5738 1.35333)
(-1.40651 -3.36985 0.885836)
(-1.84289 -3.2414 0.92875)
(-2.15114 -2.78994 0.602321)
(-1.96896 -2.02258 0.97781)
(-1.9725 -1.41798 0.900559)
(-2.08271 -1.07546 1.00534)
(-2.3691 -0.908844 0.875938)
(-2.4393 -0.389325 0.195524)
(-1.68168 -0.218866 0.387438)
(-1.60168 -0.0167801 -0.120539)
(-1.753 0.160778 -0.000418255)
(0.492749 -2.95576 1.12898)
(0.101771 -3.19206 1.37353)
(-0.354775 -3.33587 0.992239)
(-0.821468 -3.40841 0.928856)
(-0.940629 -3.06783 0.763179)
(-1.16854 -2.64544 0.779034)
(-1.68996 -2.11528 1.00176)
(-1.82946 -1.77476 0.720435)
(-2.00581 -1.43981 0.369428)
(-2.26068 -0.995807 -0.0103901)
(-2.35725 0.0687983 0.210197)
(-1.36829 -0.653984 -0.388337)
(-1.29482 -0.962025 -0.115407)
(-1.68933 -0.451076 0.289545)
(-1.43645 0.151478 -0.217597)
(0.874983 -2.273 0.468453)
(0.900118 -2.70406 0.420641)
(0.445458 -3.06233 0.40719)
(-0.14829 -3.13453 0.63975)
(-0.913426 -2.80958 1.28979)
(-0.784091 -2.78884 0.499869)
(-1.56569 -2.37828 0.401477)
(-1.42821 -1.97833 0.684286)
(-1.58677 -1.56492 0.1839)
(-2.07485 -0.834493 0.027846)
(-1.95328 -0.705015 -0.330538)
(-1.59343 -0.964712 1.11815)
(-1.28631 -0.868751 0.30831)
(-1.56017 -0.428289 0.0301404)
(-1.62626 0.180594 -0.234602)
(-1.60515 0.856643 -0.149639)
(0.775662 -1.27883 -0.424518)
(0.957936 -1.92999 -0.432528)
(0.396642 -2.73256 0.056757)
(-0.123202 -2.79371 0.355064)
(-0.214918 -3.00391 0.137152)
(-0.651931 -2.90406 -0.0689168)
(-1.10488 -2.51137 0.169917)
(-1.45718 -2.18264 0.226862)
(-1.36816 -1.58691 -0.00963106)
(-1.84956 -0.925003 -0.261125)
(-1.98813 -0.705101 -0.259463)
(-1.78005 -1.02053 -0.0552311)
(-1.41367 -1.07981 -0.0150211)
(-1.54348 -0.435254 -0.0511511)
(-1.50696 0.0353174 -0.335914)
(-1.13725 0.616993 -0.391641)
(-1.04407 0.871801 -0.262901)
(-1.8019 -0.395045 2.03306)
(-2.01691 -0.378909 2.18237)
(-1.97231 -0.304296 2.26509)
(-1.89092 -0.748947 2.33166)
(-2.11051 -0.477956 2.26295)
(-2.0936 -0.233928 2.37561)
(-1.76451 -0.969416 2.60244)
(-1.95933 -0.670051 2.46949)
(-2.17818 -0.298137 2.4589)
(-2.39272 -0.15123 2.4256)
(-1.8039 -1.13729 2.67628)
(-1.73223 -1.08285 2.70731)
(-1.78486 -0.81437 2.74692)
(-2.14834 -0.42772 2.66219)
(-2.05881 -1.06846 2.66199)
(-2.03707 -0.958113 2.62389)
(-1.96398 -0.818867 2.6249)
(-2.04402 -0.646378 2.63637)
(-2.06662 -0.417874 2.69664)
(-1.98062 -1.46839 2.6804)
(-2.05005 -1.31668 2.60416)
(-2.24495 -0.892549 2.60438)
(-2.10604 -0.849797 2.70255)
(-2.13151 -0.680431 2.65645)
(-2.13743 -0.433923 2.55871)
(-2.0377 -1.62218 2.74233)
(-2.35003 -1.23215 2.63718)
(-2.26488 -1.29678 2.6053)
(-2.32228 -1.07403 2.61246)
(-2.2595 -0.796945 2.64499)
(-2.194 -0.538652 2.60046)
(-1.86374 -2.02092 2.57047)
(-1.87292 -1.7909 2.65878)
(-2.10456 -1.46192 2.64135)