/*--------------------------------*- C++ -*----------------------------------*\
  =========                 |
  \\      /  F ield         | OpenFOAM: The Open Source CFD Toolbox
   \\    /   O peration     | Website:  https://openfoam.org
    \\  /    A nd           | Version:  7
     \\/     M anipulation  |
\*---------------------------------------------------------------------------*/
FoamFile
{
    version     2.0;
    format      ascii;
    class       volScalarField;
    location    "9";
    object      nut;
}
// * * * * * * * * * * * * * * * * * * * * * * * * * * * * * * * * * * * * * //

dimensions      [0 2 -1 0 0 0 0];

internalField   nonuniform List<scalar> 
18630
(
0.000187332
0.000453323
0.000192024
0.000248861
0.000714913
0.000460583
0.000490337
0.000165348
0.000293894
0.000324008
0.000694144
0.000565406
0.000445972
0.000367996
0.000526992
0.000408684
0.000141732
0.000209325
0.000335574
0.000274703
0.000602128
0.000356621
0.000470284
0.000433185
0.000599053
0.000305102
0.000314696
0.000416523
0.00033647
0.000285711
0.000142458
0.000192038
0.000104102
0.000125524
6.53552e-05
0.00044814
0.000735817
0.00094215
0.000354257
0.000472144
0.000737261
0.000545576
0.000445681
0.000365094
0.000534577
0.000352349
0.000329124
0.000317049
0.000258661
0.000242307
0.000143304
0.000223112
0.000143752
4.32439e-05
9.67612e-05
0.000255239
0.000435206
0.000615475
0.000618746
0.000663849
0.00098034
0.00101916
0.000408825
0.000624648
0.000647045
0.00102538
0.000656573
0.000420346
0.000423471
0.000638532
0.000705434
0.000359078
0.00037583
0.000262315
0.000344573
0.00040892
0.000363811
0.000165663
0.000161025
0.000304756
0.000140443
5.16665e-05
0.00020483
9.54895e-05
0.000437927
0.000363213
0.000485467
0.000684334
0.00109376
0.00112062
0.000707068
0.000826986
0.000787864
0.000597314
0.000756853
0.000565112
0.000731609
0.00112654
0.000854699
0.000568721
0.000461008
0.000409757
0.000726964
0.00057398
0.000273875
0.000496049
0.000389341
0.000293262
0.000211897
0.000314018
0.000724429
0.000366314
0.000146682
0.000127443
8.32481e-05
7.06391e-05
0.0001778
2.27439e-05
5.0611e-05
7.76544e-05
0.000427819
0.000468349
0.000454117
0.000460757
0.000404139
0.000748002
0.000930732
0.0011479
0.00111613
0.000888121
0.000756412
0.00091955
0.000674635
0.000739314
0.000574879
0.000820986
0.000361813
0.000784975
0.00124229
0.000930083
0.000519003
0.000687107
0.000453731
0.000466141
0.000593344
0.000548523
0.000235711
0.000222399
0.000609586
0.000316431
0.000284353
0.000506644
0.000210568
0.000702551
0.000371837
0.000450865
0.000148206
0.000106567
0.000297642
0.000170513
9.83595e-05
0.000154344
2.97885e-05
8.66419e-05
0.000223584
0.000483345
0.00039355
0.000553333
0.000536313
0.000484841
0.000432214
0.000786086
0.000480189
0.00118494
0.00145768
0.00136863
0.000988727
0.00086484
0.000997753
0.00127615
0.00102844
0.0010523
0.000707413
0.000746011
0.000545931
0.000365105
0.000847615
0.000612557
0.00061324
0.000813347
0.000968823
0.000536026
0.000384108
0.000897015
0.000377268
0.000490358
0.000684332
0.000496706
0.000165409
0.000220306
0.000303893
0.000450268
0.000277404
0.000329375
0.00049362
0.000160612
0.000334637
0.000332797
0.000368208
0.000178284
0.000139196
0.000168259
0.000406278
0.00019568
0.000208732
0.000151396
0.000198934
0.000126938
0.000242479
0.000293132
0.000429466
0.000575241
0.000760735
0.000353758
0.00052837
0.000339176
0.000556808
0.000647375
0.000748745
0.0010113
0.00070427
0.000677934
0.000974359
0.00115303
0.000684896
0.000852385
0.00101445
0.000998856
0.00157392
0.00138452
0.000540636
0.00110383
0.00092365
0.000590693
0.000684852
0.00050891
0.000475803
0.000316116
0.000431858
0.000927708
0.000744204
0.000742826
0.000727054
0.000447363
0.00034855
0.000452636
0.00112678
0.000459729
0.000524061
0.000737427
0.000609879
0.000169497
0.000250106
0.000223449
0.000175831
0.000358277
0.000519896
0.000275393
0.00033184
0.000329936
0.000114786
0.000305291
0.000284859
0.000146919
0.000214131
0.000155611
0.00023765
9.90639e-05
5.9239e-05
0.000134383
2.96089e-05
2.60802e-05
0.000162005
0.000272357
0.000259142
6.86041e-05
0.000347014
0.000838387
0.0003653
0.000551439
0.000616127
0.00091142
0.000667403
0.000396528
0.000285198
0.000435205
0.000684757
0.00066962
0.000937745
0.00111604
0.000542011
0.00097364
0.000770496
0.00092846
0.000672168
0.000531612
0.000621944
0.00124264
0.00119568
0.00115993
0.0014195
0.000803882
0.000447095
0.000536359
0.000768117
0.000796476
0.00055984
0.000554025
0.000896733
0.000465878
0.000304727
0.000725308
0.000344513
0.000439066
0.000853219
0.000855951
0.000520385
0.000402277
0.000348692
0.000383859
0.00022733
0.00105838
0.000609304
0.000593229
0.000816961
0.000786052
0.000194623
0.000235521
0.000195492
0.000210341
0.000233372
0.000515196
0.000497328
0.000347543
0.000295713
0.000399654
0.000253384
0.000233899
0.00025662
0.000138328
0.000194995
0.00020284
0.000207611
0.000197812
0.000350355
0.000174843
0.000205825
0.000174053
4.56235e-05
0.000189337
0.000265058
0.000287955
8.35874e-05
0.000144681
0.000666825
0.00067925
0.00107724
0.000129665
0.000691755
0.000488144
0.000271415
0.000506679
0.00043147
0.000773268
0.000541221
0.000590572
0.000339563
0.000729583
0.000574563
0.000701864
0.000595289
0.000442929
0.000825266
0.000833436
0.000463759
0.000584646
0.000668378
0.00140708
0.00242505
0.00103007
0.000741369
0.000618418
0.000812218
0.000836878
0.00112309
0.00105318
0.000960872
0.00059614
0.000376257
0.000537041
0.000511863
0.000673502
0.000466423
0.00061238
0.000696272
0.000892191
0.000468212
0.000502178
0.000638063
0.000441927
0.000568796
0.000297904
0.000845026
0.000607628
0.000378597
0.000366165
0.000379812
0.000442469
0.000233327
0.000335366
0.00102589
0.00105902
0.00071865
0.000554879
0.000592442
0.000160024
0.000215736
0.000187255
0.00021238
0.00022688
0.000241615
0.000425843
0.000353247
0.000305943
0.000436657
0.000386979
0.000165847
0.000185974
0.000170254
0.000209693
0.000128332
0.000185727
0.00021899
0.000197621
0.000132438
0.000419796
0.000110871
0.000274363
0.000237249
4.42968e-05
0.000193179
0.00024567
0.000261581
8.02997e-05
0.000156832
0.000117822
0.000695682
0.000829024
0.000448258
0.000290691
0.000348838
0.000377551
0.000940109
0.000453009
0.000453961
0.000579566
0.000526062
0.000796163
0.000469643
0.000402872
0.000676244
0.000453693
0.000585129
0.000537649
0.000432552
0.00109301
0.00086674
0.000884665
0.000808393
0.000516083
0.000913864
0.00113532
0.000531047
0.000514488
0.00042101
0.000952608
0.000828671
0.00135211
0.00159711
0.00100243
0.00101141
0.000665075
0.000734653
0.00125424
0.00103106
0.000982062
0.000937295
0.000552046
0.000756762
0.00057586
0.000516032
0.000453294
0.000504446
0.000617943
0.00055192
0.000708369
0.000663199
0.000608508
0.000379436
0.000376414
0.000697707
0.000443802
0.000420838
0.000699688
0.000717867
0.000605363
0.000658361
0.000413713
0.000279584
0.000342064
0.000309699
0.000312802
0.00029203
0.00024303
0.001062
0.00105096
0.000743216
0.000631866
0.000226372
0.000258365
0.000205221
0.000212975
0.000202219
0.000243479
0.000248413
0.000252428
0.000439046
0.000405318
0.000161295
0.00015143
0.000462909
0.000245626
0.000213286
0.000192519
0.000350293
0.000107661
0.000174226
0.000202988
0.000140066
0.000161184
0.00014965
8.06479e-05
0.000245165
0.000188767
4.87043e-05
7.49582e-06
0.000241795
0.000194587
0.000164282
8.36766e-05
0.000193989
0.000115779
0.000164629
0.000596213
0.00035655
0.00092657
0.000841768
0.000819604
0.00058151
0.000796614
0.000455773
0.00094294
0.000441435
0.000518744
0.000815987
0.000833535
0.000693979
0.000495634
0.000364091
0.000528817
0.000758051
0.000764993
0.00063765
0.000286121
0.000557023
0.000768068
0.000398512
0.00046426
0.000471306
0.000566629
0.000800174
0.000634392
0.000802531
0.000508038
0.00132445
0.000601962
0.00106879
0.0012735
0.000794941
0.000673222
0.000491451
0.00106168
0.00129093
0.000871542
0.00127547
0.000656766
0.000812555
0.00101096
0.000671302
0.000688053
0.000717295
0.000251693
0.00103967
0.00114384
0.00101649
0.000638991
0.000641689
0.000944344
0.000565212
0.000483309
0.000524576
0.000518322
0.000673258
0.00103551
0.000785104
0.00059672
0.000570692
0.000426435
0.000468187
0.000501122
0.000325183
0.000356621
0.000246323
0.00079771
0.000987846
0.000882928
0.00042637
0.00031475
0.000247755
0.0002069
0.000258479
0.00037551
0.000265814
0.000270758
0.000309026
0.000501312
0.00103998
0.000732607
0.000585378
0.000397702
0.000342512
0.000226207
0.000214236
0.000193422
0.000256711
0.000255236
0.000317351
0.00011213
0.000270523
0.000257503
0.000175979
0.000172582
0.000345685
0.000428485
0.000261059
0.000187299
0.000295022
0.00012643
0.000186925
0.000189313
0.000151774
0.000232356
0.000143103
0.000174423
0.000154141
0.000107458
0.000143813
7.39033e-05
0.000159097
0.000267973
0.000179432
5.2359e-05
8.73331e-05
0.000234764
0.000109615
0.000153791
0.000138903
0.000361961
0.000748832
0.00026376
0.00113275
0.000388607
0.000793232
0.000893864
0.000571088
0.000393068
0.000679376
0.00073603
0.000577087
0.00055274
0.000302386
0.000748726
0.000900479
0.000444904
0.000520226
0.000721316
0.00082455
0.000736149
0.000456472
0.000635283
0.000570565
0.00124423
0.000708825
0.000520002
0.000652417
0.000402343
0.00108992
0.00116239
0.000547505
0.000467087
0.000844676
0.000792136
0.000438821
0.000737801
0.000990408
0.000749932
0.000332639
0.00117498
0.00171884
0.000602538
0.000988878
0.000939675
0.000826553
0.000480181
0.000625997
0.000911041
0.00131382
0.000197638
0.000912474
0.0009968
0.000725609
0.000921184
0.000747275
0.000587886
0.000622983
0.000608574
0.000366229
0.000373583
0.00097139
0.00104895
0.000831557
0.000706258
0.00107065
0.00108584
0.00048499
0.000482976
0.000534257
0.000387637
0.000346756
0.000817084
0.000872468
0.000617884
0.000459512
0.000551891
0.000353507
0.000520595
0.000341651
0.000296627
0.000315351
0.00019609
0.000300946
0.000889544
0.00069719
0.00128646
0.000458492
0.000336065
0.000283386
0.000190088
0.000352207
0.000376165
0.00031521
0.00028013
0.000308655
0.000248139
0.000785939
0.00105668
0.000480255
0.000620116
0.000570714
0.00033774
0.000282669
0.00018959
0.00019628
0.000261866
0.000275896
0.000314316
0.00019868
0.000297023
0.000294022
0.000299241
7.96657e-05
0.000298957
0.000229861
0.000331458
0.000302536
0.000185843
0.00010919
0.000111076
0.000210307
0.000189229
0.000171768
0.000287438
0.000215023
0.000138338
0.000118194
0.000140451
2.23935e-05
0.000360462
0.000211501
5.7639e-05
0.000232591
0.000216252
5.02178e-05
7.16773e-05
0.000254886
0.000148499
0.000134424
0.000143286
8.06177e-05
0.000372511
0.000416729
0.000401511
0.000796332
0.00012635
0.000370067
0.000797077
0.000310706
0.000910691
0.000734719
0.000405195
0.000919271
0.000829023
0.000473494
0.00076666
0.000706333
0.000533158
0.000656794
0.00106445
0.000941239
0.000552276
0.000561648
0.000771663
0.000380152
0.000341627
0.000369484
0.00078654
0.000866362
0.00040479
0.000484371
0.000406462
0.000458868
0.00078265
0.000656123
0.000230823
0.000256971
0.000598408
0.000457753
0.000819459
0.000556343
0.000638885
0.000619019
0.000849363
0.00210281
0.000609269
0.000704685
0.000942523
0.000883927
0.000650342
0.000445753
0.000822677
0.00123402
0.000743468
0.000936806
0.000935447
0.00104737
0.000970445
0.000756864
0.000747416
0.00078625
0.000948169
0.000659122
0.000476173
0.00102956
0.000952153
0.000860176
0.000562173
0.000646765
0.000595693
0.000485338
0.000657888
0.00050387
0.00027004
0.000517561
0.000934969
0.000883921
0.000562925
0.000885975
0.00109918
0.000528457
0.000516671
0.00061987
0.000621599
0.000316196
0.000249611
0.000612063
0.000699343
0.000355659
0.000518592
0.000327503
0.000532114
0.000297188
0.000406496
0.000230685
0.000311474
0.000322315
0.000380889
0.00031925
0.0003169
0.000975848
0.00101514
0.00107191
0.000753481
0.000228846
0.000165756
0.00013645
0.000461064
0.000385536
0.000350168
0.00026452
0.00032082
0.0002742
0.000222006
0.000489276
0.00050969
0.000432553
0.00057502
0.00040335
0.000333371
0.000325491
0.0001506
0.000127719
0.000242666
0.00025903
0.000255603
0.000242132
0.00030248
0.000503802
0.000259223
0.000199028
0.000102774
0.00028885
0.000313582
0.000120584
0.000262286
0.000168008
0.000160322
9.05604e-05
0.000211659
0.000192724
0.000196801
0.000266211
0.000238713
0.000197363
0.000159835
8.09793e-05
0.000199506
3.27225e-05
0.000392233
0.000297327
7.94245e-05
0.000229022
0.000217439
5.23351e-05
6.35966e-05
0.000248875
0.0001518
0.000120251
0.000156118
7.1403e-05
0.000188725
0.000375756
0.000519135
0.000345942
0.000280488
0.000412148
0.000377315
0.000270802
0.000225955
0.000590339
0.000341638
0.00043237
0.000495769
0.000828918
0.000456332
0.000701536
0.000280521
0.000414136
0.000502789
0.000629092
0.000747211
0.000947292
0.000417451
0.000623319
0.000612443
0.00066764
0.000161839
0.000757085
0.000586741
0.000588707
0.000339633
0.000545279
0.00061558
0.000270268
0.000534884
0.000512723
0.000499238
0.000359871
0.000189929
0.000465453
0.000784269
0.000432239
0.000490842
0.000641655
0.000368483
0.000721117
0.00102918
0.000573844
0.000675133
0.000439687
0.000310753
0.000680164
0.000705473
0.000917977
0.00109628
0.00152408
0.000731225
0.000746102
0.000756019
0.000617346
0.00100046
0.000796135
0.00062931
0.00130919
0.00117487
0.000577499
0.000669756
0.000851094
0.00103844
0.000774422
0.00087946
0.000700303
0.000692106
0.000923526
0.000816398
0.00035327
0.000481949
0.00094255
0.00118936
0.000837672
0.000789269
0.000732116
0.000797716
0.00056607
0.000700076
0.000618952
0.000330666
0.00041437
0.000407548
0.00129332
0.000789325
0.0008794
0.000763898
0.000730662
0.000513402
0.000588768
0.000616828
0.000507287
0.000267015
0.000251339
0.000441431
0.000479591
0.00106859
0.000681988
0.000727532
0.000385396
0.000472589
0.000346865
0.000362823
0.000175338
0.000169942
0.000304204
0.000429051
0.000402656
0.000214094
0.000318462
0.000702353
0.00125571
0.000909434
0.000669674
0.000552404
0.000229617
0.000114575
0.00039216
0.000381824
0.000388632
0.000269911
0.000281592
0.000293396
0.000274053
0.000246048
0.000328707
0.000412989
0.000517706
0.000517261
0.000188108
0.000299316
0.000348841
0.000165882
0.000110179
0.000215336
0.000266568
0.000222819
0.000336375
0.000238379
0.000459078
0.000320625
0.000247666
0.000138253
0.000103341
0.000187963
0.000367837
0.000174781
0.000197746
0.000162756
0.000213172
8.54132e-05
0.000187602
0.000195261
0.000187701
0.000221341
0.000281166
0.000175517
0.000288051
0.000159528
0.000146672
0.000127613
3.42479e-05
0.000306597
0.000485099
0.000239695
0.000238166
0.000163433
5.15938e-05
6.36694e-05
0.000220407
0.000137799
0.000127432
0.000193932
4.42623e-05
0.000119956
9.29235e-05
0.000491584
0.00044609
0.000639327
0.000407061
0.000433509
0.000562512
0.000415222
0.000403284
0.00025344
0.000315886
0.000352753
0.000567308
0.000417126
0.000412153
0.000218862
0.000450066
0.000539087
0.000852476
0.000908024
0.00056351
0.000346754
0.000192798
0.000441054
0.000497182
0.000553181
0.000573508
0.000967618
0.000440486
0.000639871
0.000503043
0.000281132
0.000757855
0.000629313
0.00115374
0.000636261
0.000621607
0.000347757
0.000569941
0.000544494
0.000621232
0.000708382
0.000457912
0.000430225
0.000472101
0.000546092
0.000240131
0.000167283
0.000432565
0.000446455
0.000439684
0.000808662
0.000675835
0.000777869
0.000510884
0.00102776
0.00126366
0.00251723
0.000560473
0.000564011
0.000660208
0.000569638
0.000754327
0.000569436
0.000696908
0.00097836
0.00152464
0.000819619
0.000544985
0.000760814
0.000748253
0.000834434
0.00130721
0.000748082
0.000706315
0.000762767
0.00107906
0.000944534
0.000623957
0.000680489
0.000808444
0.000802896
0.000910097
0.000833923
0.000570472
0.00099522
0.000902695
0.000998686
0.000675459
0.000718701
0.000984384
0.000637182
0.00110323
0.00107222
0.000847421
0.00103694
0.000830346
0.000821005
0.000461393
0.000524308
0.000469855
0.000351565
0.000343089
0.000369981
0.0011319
0.00105789
0.000998207
0.000278734
0.000542691
0.000585292
0.000669054
0.000459942
0.000294746
0.000311655
0.000398654
0.00029685
0.000454962
0.000529289
0.000888818
0.00113155
0.000569962
0.000554673
0.000674106
0.000371715
0.000388785
0.000225388
0.000197111
0.000393513
0.00042043
0.000310838
0.000159381
0.000302759
0.00043323
0.000741121
0.00103915
0.000538215
0.000341
0.000665036
0.000391895
0.000245531
0.000379809
0.000439956
0.000399584
0.000201368
0.000294328
0.000358191
0.00027265
0.000305236
0.000626784
0.000422982
0.000334056
0.000429003
0.000705088
0.000393641
0.000220504
0.000311467
0.00016199
0.000115678
0.000219841
0.00026442
0.000210079
0.00028225
0.000132235
0.000472523
0.000302604
0.000375121
0.00026741
6.79175e-05
0.000117905
0.000324978
0.000254637
0.000273274
0.000187003
0.000168018
0.000218316
7.50338e-05
0.000154943
0.000214307
0.000162608
0.000172842
0.00033308
0.000179753
0.000320358
0.000292566
0.000147807
9.08296e-05
6.09942e-05
4.25271e-05
0.00037934
0.000497739
0.000328336
0.000276127
0.000104988
6.86896e-05
9.08584e-05
0.000183176
0.000168448
0.000124831
0.000185405
4.91141e-05
0.000171625
0.000155221
4.87033e-05
0.000693955
0.00048101
0.000725691
0.00023435
0.00053565
0.000630594
0.000333875
0.000351975
0.000732462
0.000490081
0.000320506
0.000304384
0.000490077
0.000312959
5.31617e-05
0.000313754
0.000437448
0.000528633
0.000539667
0.000510827
0.000363263
0.000187973
0.000414741
0.000530794
0.000703763
0.000652323
0.00068648
0.0010375
0.000189411
0.000400317
0.000608714
0.000102749
0.000803075
0.000544593
0.000931734
0.00051636
0.00046629
0.000549057
0.000458059
0.000394823
0.000585705
0.00032365
0.00080583
0.000821455
0.000333379
0.000548947
0.000498753
0.000747145
0.000284633
0.000608326
0.000787096
0.00055402
0.000625538
0.000776109
0.000385113
0.000534993
0.000301336
0.000849929
0.00121969
0.000657857
0.000500157
0.000922288
0.000441624
0.00072664
0.000440772
0.000779118
0.00108136
0.00159947
0.00226696
0.000449261
0.000865664
0.000772048
0.000639738
0.000700935
0.000635405
0.000532842
0.00101955
0.00128317
0.00153761
0.000936505
0.000851874
0.000813777
0.000786211
0.00103451
0.00107496
0.000898588
0.000650318
0.000669495
0.0010863
0.00103482
0.000607458
0.000845313
0.000658256
0.000707871
0.000851978
0.00102527
0.000809266
0.000593016
0.000804368
0.000621332
0.000765406
0.000739122
0.000988599
0.000911653
0.000854925
0.000955804
0.00104015
0.00101637
0.000887788
0.00100065
0.000684916
0.000773964
0.000531257
0.000658442
0.000579643
0.000408612
0.00039724
0.000568939
0.000584548
0.00107137
0.000673266
0.000855788
0.000613243
0.000729924
0.000470031
0.000701733
0.000519513
0.000534562
0.000399398
0.000410093
0.000344383
0.000528465
0.000593415
0.000548218
0.00083273
0.000830333
0.000799284
0.000723461
0.000539739
0.000297203
0.000313935
0.000199693
0.000311093
0.000296454
0.00040708
0.000278321
0.000193651
0.000280653
0.000442304
0.000371548
0.00109816
0.0006363
0.000698971
0.000593081
0.000719839
0.000177554
0.000275014
0.000361082
0.000440833
0.000463371
0.00025951
0.000262041
0.000335395
0.000187358
0.000212478
0.000389195
0.000498368
0.000483664
0.000316833
0.000372482
0.000530822
0.000578039
0.000332313
0.000295283
0.000212116
0.000154638
0.000220092
0.000251225
0.000194154
6.94799e-05
0.000161444
0.000377903
0.000359766
0.000406396
0.000535118
0.000261989
5.98588e-05
0.000201884
8.93001e-05
0.00042091
0.000284717
0.000216492
0.000182467
0.000215028
8.38936e-05
0.00016778
0.000233063
0.000146813
0.000198518
0.000254319
0.000244593
0.000341773
0.000249834
0.000271258
0.000127828
6.15138e-05
0.000198614
0.000197453
0.000117859
0.000347399
0.000237203
0.000300461
0.000130525
9.34057e-05
0.000115756
0.00016877
0.000164935
0.000133999
0.000148686
0.000101142
0.000149755
0.000101914
7.61265e-05
5.18975e-05
0.00125622
0.000849996
0.000938335
0.000514114
0.000649325
0.00085502
0.000402525
0.000281031
0.000692066
0.000379182
0.000286377
0.000407228
0.000585259
0.000674888
0.000388666
0.000298705
0.000354337
0.000486153
0.000310053
0.00071531
0.000691888
0.000334777
0.00047868
0.000691401
0.000799137
0.000601936
0.000730516
0.000536752
0.000566906
0.000557071
0.000765352
0.000780174
0.000781473
0.000730607
0.000767543
0.000631334
0.000854556
0.000569056
0.000556514
0.000717377
0.000520068
0.000577848
0.000330304
0.000809197
0.000972531
0.000879154
0.000506095
0.000916779
0.000578853
0.000102082
0.000245504
0.000318392
0.000772529
0.00073178
0.000518592
0.00100418
0.00103904
0.000695739
0.000556289
0.000418036
0.000916104
0.000615299
0.00048875
0.000966811
0.00112851
0.000430619
0.000378253
0.00105968
0.00123892
0.00145031
0.0016969
0.000589074
0.000585666
0.00106248
0.000310284
0.000803492
0.000773479
0.00070355
0.000703942
0.00117298
0.00185725
0.00125148
0.000748433
0.000587135
0.000587949
0.000617652
0.00068995
0.000470498
0.000505363
0.000683097
0.00125832
0.00109922
0.000756021
0.00117304
0.000568025
0.000852208
0.00103837
0.00120355
0.00116242
0.000811179
0.000287689
0.00082107
0.00122904
0.00111971
0.000782541
0.000684718
0.000928475
0.000759696
0.000650096
0.000963242
0.00122314
0.0010372
0.000637216
0.000696699
0.000755118
0.000935104
0.000537479
0.000935708
0.00103732
0.000992562
0.00108904
0.000829064
0.000915602
0.00100573
0.00114827
0.000714144
0.000495517
0.000751986
0.000786889
0.000587364
0.000822339
0.000427115
0.000614918
0.00062556
0.000641671
0.000615138
0.00091916
0.00103915
0.000625311
0.000741293
0.000646117
0.000493526
0.000684535
0.000497888
0.00052757
0.000599585
0.000378731
0.000465757
0.000408792
0.000545815
0.000707096
0.000765729
0.00078888
0.000791039
0.000874275
0.000632941
0.000552852
0.000321879
0.000333383
0.000320073
0.000422265
0.000420989
0.000406792
0.000383142
0.000513921
0.000343177
0.000452308
0.000393551
0.000742453
0.000958351
0.000735344
0.000762826
0.00115948
0.000253217
0.000120945
0.000706647
0.000310937
0.000476529
0.000484769
0.000349719
0.00021492
0.000327282
0.000269019
0.000114561
0.00056796
0.000444984
0.000791659
0.000634647
0.000387845
0.000515948
0.000261193
0.000488583
0.000326296
0.000159665
0.0002478
0.000235812
0.000212526
0.0002165
0.000208042
7.76887e-05
0.000462853
0.00028592
0.000502429
0.000389804
0.000525607
0.000510684
0.00020766
0.000104859
0.000132241
0.000449232
0.000645793
0.00020972
0.000186495
0.000147599
0.000231158
0.000113959
0.000202466
0.000213263
0.000135658
0.000412895
0.000249607
0.000156885
0.000330675
0.000283012
0.000242239
0.000264336
0.000132543
8.9624e-05
0.000238045
9.26873e-05
0.000100899
0.000493023
0.0003123
0.000271012
9.52206e-05
9.69012e-05
9.62331e-05
0.000196985
0.00016016
0.00015843
0.000137418
0.000122943
0.000109956
0.000102499
0.000101659
0.000106515
0.000184499
0.00118248
0.0012319
0.00110813
0.000524959
0.000879925
0.000632638
0.000426723
0.000781966
0.000401054
0.00020501
0.000360089
0.000495451
0.000355182
0.000371364
0.000371756
0.000409317
0.0005032
0.000683085
0.000768868
0.000788861
0.000471994
0.00038465
0.000347833
0.000706873
0.000513483
0.000570393
0.000788917
0.00101541
0.000414632
0.000570219
0.000910436
0.000803853
0.00130133
0.00058649
0.000765507
0.000893792
0.000598165
0.000968353
0.000815355
0.000869893
0.0012839
0.000759987
0.000600054
0.000773441
0.000561209
0.000574272
0.000632416
0.000794606
0.000897379
0.000755434
0.000128252
0.000775087
0.000565348
0.000267356
0.000278111
0.000697601
0.000502064
0.000901838
0.000608659
0.000548184
0.00059732
0.000708654
0.000725171
0.000270593
0.000721368
0.00070062
0.000934545
0.000908028
0.000788503
0.000654717
0.000919116
0.00133668
0.00155471
0.000495876
0.000568456
0.00101858
0.000944337
0.0012817
0.000545894
0.000860623
0.00125123
0.00114473
0.00131676
0.00204577
0.00045765
0.000520847
0.000760071
0.000433749
0.000656847
0.000815281
0.000396996
0.000486636
0.00100866
0.00118601
0.00133495
0.00122609
0.000686974
0.00127949
0.00100409
0.00105693
0.0010036
0.000396818
0.000284882
0.000379429
0.00108973
0.00132046
0.0011869
0.000855216
0.00081316
0.000800742
0.000872825
0.000771063
0.00131151
0.00123241
0.00104458
0.000606308
0.000996068
0.000566541
0.000901837
0.000805808
0.00106845
0.000779081
0.00100865
0.000788266
0.00112924
0.000873707
0.00153983
0.00122541
0.000732192
0.000889503
0.00103399
0.000552588
0.000790831
0.00085845
0.000899626
0.00109908
0.00150525
0.000710595
0.000776728
0.000896307
0.000778249
0.000726599
0.000530638
0.000277467
0.000847007
0.000777968
0.000541663
0.00102687
0.000638312
0.000768338
0.000651963
0.000893039
0.000629211
0.000551301
0.000677696
0.00124667
0.000851553
0.00108863
0.000625538
0.000458502
0.000663973
0.000702968
0.000383607
0.000839294
0.000484698
0.000555966
0.000405132
0.000477668
0.000700253
0.00069571
0.000575788
0.00106764
0.00100535
0.000929246
0.000588447
0.000446318
0.000266191
0.000193047
0.000418002
0.000391179
0.000608425
0.000554642
0.000358658
0.000213996
0.000342861
0.000417079
0.000476131
0.000628562
0.000597298
0.00081497
0.000680009
0.000675544
0.00105604
0.000605083
0.000372446
0.000478986
0.000239623
0.000470535
0.000398143
0.000322337
0.00032082
0.000336801
0.00037753
0.000354794
0.000717389
0.000545459
0.000730137
0.00078025
0.000615272
0.000180274
0.000763554
0.00035822
0.00034621
0.000386817
0.00020353
0.000278098
0.000364148
0.000237514
0.000171894
0.000260018
0.000273821
0.000416459
0.000329601
0.000396609
0.000383209
0.000537218
0.000498518
0.000687014
0.000243321
6.91315e-05
0.000154481
0.000331605
0.000480245
0.000227644
0.000135509
0.000210921
9.19165e-05
8.15841e-05
0.000220912
0.000186345
0.000215684
0.000471626
0.000227246
0.000203183
0.000249911
0.000243189
0.00024266
0.000813787
0.00031645
9.96447e-05
0.000122294
0.000110453
3.11601e-05
6.50629e-05
0.000496719
0.000375402
0.00021016
7.262e-05
0.00010333
4.00497e-05
0.000211415
0.000145287
0.000173719
0.000130917
9.42485e-05
0.000100173
0.000156377
3.94555e-06
0.000167505
5.58054e-05
0.000202842
6.27689e-05
0.00328031
0.00128743
0.0010905
0.0010715
0.00103783
0.0010273
0.000608746
0.000654348
0.000623149
0.000460812
0.000512273
0.000589979
0.000539746
0.000400341
0.000650903
0.000481519
0.000579574
0.000409645
0.000427726
0.000503683
0.000569198
0.000511537
0.000541859
0.000731727
0.000749085
0.000626998
0.000643261
0.000465973
0.000378282
0.000522799
0.000541185
0.000863591
0.000688976
0.000457104
0.000702619
0.00051517
0.000430041
0.000568021
0.000806272
0.000766103
0.000875346
0.00078999
0.000444781
0.000679946
0.000431654
0.000537699
0.000586261
0.0009353
0.000787426
0.000872682
0.00122372
0.00078508
0.000388511
0.00053147
0.000370782
0.000527866
0.000796765
0.000708427
0.000760093
0.00121432
0.000466546
0.000382381
0.000427055
0.000432429
0.000709022
0.000703399
0.000800724
0.000311679
0.00121683
0.00143896
0.0004268
0.000696776
0.000855073
0.00110568
0.00105627
0.000381324
0.000564916
0.000663735
0.000466559
0.00130114
0.000649764
0.00101071
0.00176052
0.00135022
0.00136138
0.00122613
0.000356119
0.000443777
0.00119759
0.000940248
0.00129264
0.000458231
0.0010244
0.000848512
0.000871119
0.00120086
0.00167353
0.00148402
0.000416836
0.000396381
0.000853854
0.0010152
0.000859499
0.000491943
0.000648865
0.000625862
0.000820438
0.000930881
0.00114153
0.000831992
0.00133863
0.000795615
0.00137
0.00105234
0.001197
0.00136387
0.000550262
0.000644167
0.000380757
0.0011562
0.00119656
0.00122984
0.000863589
0.000825584
0.000951674
0.00072104
0.000989406
0.000794415
0.00136099
0.00182948
0.00126574
0.00076236
0.000928717
0.000326232
0.00108216
0.000621454
0.00175254
0.000493349
0.000459954
0.000600212
0.000793258
0.000732906
0.000793154
0.000867976
0.000960016
0.000675843
0.000929632
0.00118951
0.00046047
0.000743885
0.000883558
0.000756947
0.000819496
0.000911084
0.00076427
0.00055278
0.000714925
0.000679909
0.000838975
0.00115184
0.00054645
0.000298343
0.000864047
0.000749742
0.000721666
0.00105263
0.000859382
0.000552612
0.000811636
0.000810143
0.000766608
0.000615118
0.000667314
0.000752579
0.000988503
0.000947246
0.000858597
0.000733437
0.000470899
0.0005725
0.000907391
0.00102327
0.000726837
0.000657542
0.000721147
0.00044265
0.00048952
0.000694067
0.000830698
0.000715013
0.000672968
0.00139193
0.00114095
0.000790144
0.000532337
0.000310073
0.000271115
0.000290878
0.000623149
0.000239934
0.000606034
0.000563956
0.000288882
0.000388834
0.000419055
0.000522966
0.000455008
0.000720413
0.000804739
0.000902616
0.000950681
0.000878448
0.000908636
0.000354489
0.000365518
0.00027283
0.000290305
0.000354372
0.000630635
0.000321304
0.000287169
0.000343988
0.000215383
0.000368969
0.000444069
0.000577345
0.000578678
0.000685279
0.000740187
0.000859286
0.000477253
0.000221995
0.00030929
0.000162948
0.000358217
0.000325494
0.000243593
0.000171729
0.000333187
0.000286653
0.000270322
0.000360916
0.000286349
0.000163468
0.000414567
0.000394982
0.000341804
0.000466894
0.000616552
0.000666013
0.000353697
0.000278366
5.65181e-05
0.000127303
0.000226837
0.000309574
0.000308559
0.000102977
0.000128176
8.8549e-05
0.000304128
0.000166613
0.000196075
0.000305938
0.000219089
0.00021726
0.000274864
0.000265794
0.000230478
0.000296187
0.00025733
0.000335314
0.000374467
0.00015395
5.49513e-05
0.000326171
7.28445e-05
9.25851e-05
5.54285e-05
0.000268646
0.00035583
0.000165836
0.000103872
7.34997e-05
5.20192e-05
0.000154554
0.000137951
0.000148673
0.000114407
0.000143238
9.12761e-05
0.000106958
5.85547e-05
9.66443e-05
0.000131008
0.000126072
0.000150669
0.000201019
0.00313297
0.00352231
0.00108485
0.00111115
0.00100262
0.00104465
0.00112318
0.00112951
0.00103921
0.000621101
0.000728981
0.000913909
0.000708184
0.000897051
0.000638738
0.000885262
0.000727047
0.000619117
0.000674388
0.000871021
0.000541888
0.000630563
0.00057772
0.000543977
0.000317084
0.000688468
0.000613287
0.000536744
0.000556262
0.000599748
0.000716295
0.000506863
0.000454839
0.00065132
0.000432095
0.000503633
0.000498322
0.000784107
0.00066371
0.000758155
0.000368946
0.000500938
0.000584325
0.000318064
0.000490663
0.000652391
0.000821895
0.00056072
0.000826056
0.000679727
0.000586512
0.000289836
0.00021942
0.000371911
0.000644632
0.00102796
0.000969056
0.000583113
0.000726861
0.000758243
0.000588346
0.000242204
0.000413841
0.000220207
0.000780932
0.000863322
0.000969909
0.000580431
0.000502185
0.000734731
0.000736557