/*--------------------------------*- C++ -*----------------------------------*\
  =========                 |
  \\      /  F ield         | OpenFOAM: The Open Source CFD Toolbox
   \\    /   O peration     | Website:  https://openfoam.org
    \\  /    A nd           | Version:  7
     \\/     M anipulation  |
\*---------------------------------------------------------------------------*/
FoamFile
{
    version     2.0;
    format      ascii;
    class       surfaceScalarField;
    location    "9";
    object      phi_0;
}
// * * * * * * * * * * * * * * * * * * * * * * * * * * * * * * * * * * * * * //

dimensions      [0 3 -1 0 0 0 0];

internalField   nonuniform List<scalar> 
53739
(
-6.55221e-05
0.00104784
-8.55668e-05
-0.000100804
0.00158651
-0.000182282
-6.57323e-05
0.00111414
-8.6955e-05
-8.51809e-05
0.00160921
-8.95765e-05
5.06367e-05
0.00345348
-9.85317e-05
-0.000105074
0.00160804
-0.000179382
-0.00010019
0.00260858
-0.000225639
-6.3469e-05
0.00117832
-8.76831e-05
-7.99584e-05
0.00169218
-8.99696e-05
-9.02127e-05
0.0024127
-9.32266e-05
0.00012705
0.00608025
0.000128517
3.53196e-05
0.00336942
-5.42641e-05
8.45862e-05
0.00434544
-0.000215902
-0.000114692
0.00164585
-0.000184622
-0.00011203
0.00269268
-0.00023141
-8.08415e-05
0.00296684
-0.000245375
-6.04613e-05
0.00123944
-8.8169e-05
-7.89807e-05
0.0017742
-9.07202e-05
-0.000109014
0.00252498
-9.32284e-05
-9.78386e-05
0.00234073
-8.84108e-05
0.000413964
0.00611869
0.000505603
0.000175205
0.00608195
0.0001428
0.000147094
0.00624165
-1.32534e-06
2.91092e-05
0.00327549
-7.83032e-05
5.02089e-05
0.00434231
-0.000213369
-4.73188e-05
0.00382682
-0.000259535
-0.000102503
0.00167822
-0.000187207
-9.9957e-05
0.00276628
-0.000237243
-8.8084e-05
0.00296756
-0.000253065
-0.000122407
0.00334875
-0.000242041
-5.69347e-05
0.00129672
-8.835e-05
-7.40684e-05
0.00185075
-9.06568e-05
-9.26295e-05
0.00262082
-9.39359e-05
-9.4893e-05
0.00243184
-8.9443e-05
-8.67871e-05
0.0036084
-7.26454e-05
0.000590608
0.0068219
0.000985961
0.000488953
0.0059186
0.000406145
0.000501242
0.00582187
0.000174905
0.000238809
0.00600405
0.000130842
0.000176424
0.00624883
9.41353e-06
6.7625e-05
0.00515507
-9.4772e-05
4.30735e-05
0.00318084
-8.82177e-05
4.65736e-05
0.00434081
-0.000223336
-2.53955e-05
0.00382685
-0.000276086
-2.89122e-05
0.00393382
-0.000295444
-0.000111978
0.0017248
-0.000189246
-0.000100485
0.00284454
-0.00023905
-8.90385e-05
0.00298727
-0.000260538
-0.000121822
0.0033603
-0.000237691
-0.000149715
0.00338695
-0.000250481
-5.30156e-05
0.00135
-8.90184e-05
-7.44049e-05
0.00192861
-9.18014e-05
-0.000100799
0.00272536
-9.43928e-05
-8.20727e-05
0.00250984
-8.98594e-05
-6.90553e-05
0.00366079
-7.27792e-05
5.40193e-05
0.00325393
-6.0553e-05
0.000760298
0.00686644
0.00119874
0.000723712
0.00669005
0.000974264
0.000903814
0.00637809
0.000730893
0.000505268
0.00576274
0.00031913
0.000547521
0.00574802
0.000108888
0.000534078
0.00471381
-0.00017059
0.00020742
0.00595045
9.50839e-05
0.000188613
0.00625315
-1.55262e-05
0.000112512
0.00520643
-0.000179859
0.000235124
0.00369729
-0.000249369
2.84746e-05
0.00307911
-0.000113148
4.54261e-05
0.00434151
-0.000234828
-1.07963e-05
0.00383251
-0.000307236
2.36223e-05
0.00382278
-0.000310497
3.14253e-05
0.00279172
-0.000368059
-0.000109783
0.00177309
-0.000195269
-8.83409e-05
0.00290906
-0.00023983
-8.86574e-05
0.00300173
-0.000265658
-9.3597e-05
0.00335906
-0.000247775
-0.000119232
0.0034388
-0.000239363
0.000165145
0.00205092
-0.000228501
-4.96829e-05
0.00140017
-8.93353e-05
-6.86314e-05
0.0020004
-9.21743e-05
-7.69393e-05
0.002807
-9.65047e-05
-8.38935e-05
0.00259052
-9.11775e-05
-4.78163e-05
0.00369167
-7.29204e-05
5.63485e-05
0.00318562
-6.08092e-05
9.25197e-05
0.00245684
-5.7718e-05
0.00101238
0.00677707
0.00127669
0.000887799
0.00684747
0.00118398
0.0012651
0.00616189
0.00103152
0.000730575
0.00662422
0.000795746
0.000931393
0.00640254
0.000565941
0.000966676
0.00564621
0.000453036
0.000525171
0.00559312
0.000302185
0.000610798
0.00559129
5.36784e-05
0.000502287
0.00462106
-0.000188129
0.000347083
0.00342543
-0.000426452
0.000232836
0.00581099
5.73526e-05
0.000225992
0.0062421
-7.44266e-05
0.000167221
0.00524444
-0.000231552
0.000293764
0.00359222
-0.000344934
0.000360635
0.00312065
-0.000451618
7.51164e-05
0.00291322
-0.000134133
8.6207e-05
0.00429221
-0.000238398
9.02288e-07
0.0038428
-0.000334676
4.33974e-05
0.00372022
-0.000341665
6.31666e-05
0.00267226
-0.000373434
0.000182629
0.00135785
-0.000400499
-0.000108615
0.00182202
-0.000205058
-8.18523e-05
0.00296981
-0.000242804
-6.98473e-05
0.00302744
-0.000272624
-0.000104423
0.00336323
-0.000249299
-6.62842e-05
0.00346062
-0.000251129
0.000152605
0.00194837
-0.000233071
0.000203558
0.00184453
-0.00019815
-4.47042e-05
0.00144637
-8.95935e-05
-6.41966e-05
0.00206803
-9.27718e-05
-6.90261e-05
0.00288121
-9.73631e-05
-6.09181e-05
0.00264786
-9.29349e-05
-3.1867e-05
0.00370656
-7.42018e-05
5.71219e-05
0.00311679
-6.12137e-05
9.91576e-05
0.00235512
-5.82418e-05
9.07755e-05
0.00141252
-6.35073e-05
0.00120891
0.00667872
0.00164281
0.00102832
0.00678338
0.00136203
0.00141266
0.00625345
0.00127273
0.00101313
0.00672775
0.00116796
0.00117808
0.00600597
0.00109322
0.00114408
0.00557534
0.000883549
0.000909731
0.00637862
0.000688792
0.00105675
0.0062931
0.000459235
0.000927663
0.00544167
0.000345105
0.000779165
0.00483667
0.000210438
0.000674213
0.00534327
0.000201009
0.000613502
0.00546679
3.91732e-05
0.000502905
0.00454642
-0.000207372
0.000361355
0.00357735
-0.000407641
0.00054248
0.00244262
-0.000635771
0.00033444
0.00558863
-2.37412e-06
0.000228046
0.00623134
-7.37312e-05
0.00020391
0.0052907
-0.00032369
0.000352003
0.00350023
-0.000448171
0.000409263
0.00292225
-0.000492636
0.000437328
0.00175149
-0.000609301
4.70638e-05
0.00276805
-0.000164397
0.000103124
0.00422627
-0.000253173
3.23675e-05
0.00386959
-0.000367404
3.78008e-05
0.00360858
-0.000365259
6.32915e-05
0.00258374
-0.000382725
0.00017533
0.00136074
-0.000399054
0.000181174
0.000573967
-0.00039261
-9.07312e-05
0.00185775
-0.000219865
-7.73992e-05
0.00302539
-0.000247437
-5.60502e-05
0.00305602
-0.000284363
-2.93671e-05
0.0033169
-0.000257842
-4.22011e-05
0.00347472
-0.000253061
0.000131589
0.00186352
-0.000240753
0.000203594
0.00171451
-0.000207482
0.000192124
0.000938616
-0.000215275
-4.19401e-05
0.00148965
-8.93366e-05
-5.66848e-05
0.00212805
-9.29229e-05
-6.03283e-05
0.00294686
-9.8085e-05
-4.93966e-05
0.00269272
-9.28264e-05
-2.20718e-05
0.00371169
-7.59951e-05
6.66732e-05
0.00303799
-6.20815e-05
0.000105951
0.00224647
-5.85165e-05
9.32282e-05
0.00132593
-6.48816e-05
9.95593e-05
0.000992151
-6.96086e-05
0.0013282
0.00634658
0.00208592
0.0012388
0.00658743
0.00171071
0.00142924
0.00615098
0.00170754
0.00127659
0.00665955
0.00139373
0.00142905
0.00599083
0.00137369
0.00128453
0.00534633
0.0012067
0.00131428
0.00644962
0.00107384
0.00125948
0.00591387
0.00105732
0.00118049
0.00576277
0.000652956
0.00145045
0.00487723
0.000513581
0.00119719
0.00606053
0.000516873
0.00104696
0.00615121
0.000397229
0.000861358
0.00527087
0.000271589
0.000879033
0.0045108
0.000153291
0.000935609
0.00352367
-0.000101511
0.00074003
0.00504455
8.9012e-05
0.000525865
0.00539779
-2.78084e-05
0.000508819
0.0045465
-0.000265818
0.000529735
0.00356918
-0.000376928
0.000588445
0.00249204
-0.000636248
0.00055676
0.00143248
-0.000739444
0.000246392
0.00550087
-0.000121657
0.000266275
0.00613495
-6.91309e-05
0.000267296
0.00529315
-0.000311113
0.000318369
0.00343389
-0.000537912
0.000369623
0.00272126
-0.000553511
0.000391621
0.00166494
-0.000622377
0.000165764
0.000988408
-0.000682785
3.19166e-05
0.00265558
-0.000206481
8.02995e-05
0.00417412
-0.000269944
5.14701e-05
0.00390814
-0.000399251
0.000109236
0.00349761
-0.000395036
9.18704e-05
0.00247578
-0.000391369
0.000168959
0.00133956
-0.000398913
0.000184794
0.00058519
-0.000391478
0.00016209
0.000531986
-0.000376144
-7.7108e-05
0.00188987
-0.0002405
-6.08739e-05
0.00306507
-0.00025535
-3.94256e-05
0.00308107
-0.000293389
-6.12151e-06
0.00325497
-0.000265708
-1.60131e-05
0.0034663
-0.000255485
0.000131721
0.00179011
-0.000244691
0.000206274
0.00158579
-0.00021236
0.000178902
0.000863807
-0.000218347
0.00016643
0.000579573
-0.000222019
-4.08297e-05
0.00153072
-8.87875e-05
-4.83716e-05
0.00218081
-9.37312e-05
-6.92223e-05
0.00302202
-9.88631e-05
-4.97716e-05
0.00273821
-9.37986e-05
4.40602e-06
0.00368992
-7.54569e-05
7.96262e-05
0.00294489
-6.25227e-05
0.000111665
0.00213182
-5.90957e-05
9.78912e-05
0.00123612
-6.65972e-05
0.000108303
0.00089034
-7.13732e-05
0.000108135
0.000481528
-6.6826e-05
0.00178303
0.00542589
0.00248454
0.00139635
0.00627541
0.00206135
0.00122987
0.0062622
0.00221331
0.00141109
0.00649551
0.00175623
0.00142142
0.00606722
0.00180209
0.00135409
0.00605687
0.00167721
0.00154063
0.00649463
0.00140334
0.00135243
0.00587864
0.00141296
0.00136134
0.00543854
0.00110063
0.0018789
0.00515295
0.000768196
0.00147958
0.00622398
0.00100053
0.00116751
0.00578705
0.00108011
0.00120722
0.00585464
0.000619594
0.00150971
0.00457248
0.000327035
0.00140343
0.00385389
0.000211246
0.00117035
0.00585634
0.0002984
0.000931148
0.00591884
0.00034396
0.000848791
0.00524809
8.00318e-05
0.00106293
0.00426765
-1.84608e-05
0.00095893
0.00350427
-0.000197791
0.00078745
0.00205174
-0.000274261
0.000495624
0.00490283
-4.5712e-05
0.000470289
0.00539594
-0.000113145
0.000538818
0.00451566
-0.00026849
0.000560719
0.00349454
-0.000433533
0.000578287
0.00251395
-0.000607506
0.000488813
0.00146712
-0.000768072
9.151e-05
0.00177452
-0.000829326
0.000184712
0.00546217
-0.000205419
0.000212811
0.00604255
-0.000161768
0.000320698
0.00528707
-0.000332279
0.000368418
0.00341123
-0.000547634
0.000389497
0.00247873
-0.000593009
0.000352366
0.00156671
-0.000638685
0.000149925
0.001086
-0.0006851
1.74788e-05
0.000934949
-0.000648797
6.95549e-05
0.00252446
-0.000275378
0.000110367
0.004094
-0.000297598
8.4333e-05
0.00393269
-0.000418249
0.000109256
0.003407
-0.000424019
0.000108111
0.00236172
-0.0004051
0.00017388
0.00130203
-0.000396001
0.000180019
0.000603711
-0.000391178
0.000158233
0.00053776
-0.000376585
0.000206007
0.000399464
-0.000393793
-6.61652e-05
0.00191729
-0.000262196
-2.84362e-05
0.0030708
-0.00026617
-5.19814e-05
0.00310722
-0.000298745
-3.68631e-05
0.00322319
-0.00027452
5.66827e-05
0.00340166
-0.000253338
0.000143677
0.00171244
-0.000241872
0.000203273
0.00146493
-0.000215441
0.000174438
0.000798575
-0.000223675
0.000182574
0.000508077
-0.000221121
0.000166399
8.99677e-05
-0.00021548
-3.76823e-05
0.00156787
-8.85783e-05
-4.30624e-05
0.00222972
-9.46375e-05
-5.5428e-05
0.00308346
-9.97448e-05
-4.64606e-05
0.00278017
-9.43643e-05
2.33096e-05
0.0036488
-7.59912e-05
9.92724e-05
0.00283216
-6.19957e-05
0.000118456
0.00201067
-5.98283e-05
0.000103029
0.00114244
-6.84427e-05
0.000114065
0.000782587
-7.29102e-05
0.000104743
0.000372754
-6.73422e-05
7.19112e-05
-0.000408617
-7.19691e-05
0.00204682
0.00500313
0.00264004
0.00138673
0.00546882
0.00240084
0.0013767
0.00580579
0.0024719
0.00154132
0.00622028
0.00202125
0.00139688
0.00619899
0.0021491
0.00184307
0.0059898
0.00188302
0.00150731
0.00652622
0.00174262
0.00142732
0.0058787
0.00186987
0.00164432
0.00577381
0.00180217
0.00233843
0.00548671
0.00138772
0.00148874
0.00647816
0.00141135
0.00135636
0.00569882
0.00139431
0.00162105
0.005384
0.00105366
0.0017966
0.00526823
0.000698453
0.00166235
0.00435913
0.000609905
0.00129594
0.0062799
0.000805781
0.00113734
0.0057004
0.000880984
0.00141525
0.00559717
0.000771118
0.00153598
0.00439029
0.000328741
0.00137316
0.0035391
0.000227594
0.00122664
0.00222644
-2.17932e-05
0.000907628
0.00572696
0.000261537
0.000956474
0.00556627
0.000164783
0.000926872
0.00521258
-8.58139e-06
0.000863433
0.00417607
-0.000131098
0.000927991
0.00340021
-0.000264111
0.000690758
0.00192593
-0.000273919
0.000139543
0.00223833
-0.000541503
0.000375931
0.0048901
-0.000142167
0.000379659
0.00535983
-0.000176456
0.000553661
0.00445189
-0.000282333
0.000648402
0.00345453
-0.000508459
0.000633638
0.0024485
-0.000612218
0.000473823
0.00152685
-0.000788693
8.32477e-05
0.00192564
-0.000852519
-0.000209946
0.00199957
-0.000833046
0.000213204
0.00544019
-0.000209683
0.000234035
0.00595695
-0.000243488
0.000382523
0.00518609
-0.000358982
0.000361108
0.00341026
-0.000583171
0.000340048
0.00233213
-0.000632969
0.000334946
0.00147073
-0.0006581
0.000133234
0.00118056
-0.000686458
6.27935e-05
0.00100492
-0.000659633
0.000223889
2.15938e-05
-0.000636712
9.74556e-05
0.0023952
-0.00037247
0.00016015
0.0039708
-0.000340762
0.000114861
0.00391207
-0.000443815
5.01375e-05
0.00335084
-0.000449091
0.000182856
0.00222841
-0.000416886
0.000179184
0.00125476
-0.000393333
0.000184552
0.000618112
-0.000391681
0.000163722
0.000531669
-0.000374371
0.000204025
0.000393057
-0.000391628
0.000205055
-9.90461e-05
-0.000444278
-6.34127e-05
0.0019489
-0.000280937
-1.03007e-05
0.00306004
-0.000284197
-2.84512e-05
0.00312573
-0.000311652
-6.36732e-05
0.00322078
-0.000279121
0.000123264
0.0032818
-0.000254622
0.000171941
0.00162475
-0.000238313
0.000201835
0.00135329
-0.000213603
0.000178678
0.000738496
-0.000231012
0.000191149
0.000430649
-0.00022333
0.000159417
2.9541e-05
-0.000215368
0.000117239
-0.000134449
-0.000249872
-3.70135e-05
0.00160422
-8.92267e-05
-3.72078e-05
0.00227331
-9.49562e-05
-3.66736e-05
0.00312625
-0.000100755
-3.16142e-05
0.00280698
-9.49404e-05
3.47165e-05
0.00359526
-7.55466e-05
0.000111015
0.00270765
-6.24957e-05
0.000124833
0.00188458
-6.07407e-05
0.000109473
0.00104345
-7.03076e-05
0.000117887
0.000670348
-7.40905e-05
9.94947e-05
0.000267821
-6.74712e-05
7.10386e-05
-0.000475376
-7.16223e-05
5.23699e-05
-0.000380012
-8.72984e-05
0.000965729
0.00509295
0.00341926
0.0020381
0.00508706
0.00307175
0.00123312
0.00508466
0.00299022
0.00166243
0.00502199
0.00264802
0.00154066
0.00559325
0.00238581
0.00143403
0.00580663
0.00236285
0.00211858
0.00569219
0.00243634
0.00165525
0.00613562
0.00199658
0.00167653
0.00596227
0.00200876
0.00217675
0.00570966
0.00189682
0.00270675
0.00613937
0.00169765
0.00156125
0.0064254
0.00177546
0.00168031
0.00558269
0.00171467
0.00196726
0.00556171
0.00173576
0.00224059
0.00536003
0.00148486
0.00182561
0.00453322
0.00139502
0.00143338
0.00633845
0.00144352
0.00142953
0.00541504
0.00140294
0.00192828
0.00525902
0.00100626
0.00188832
0.00527963
0.000689922
0.00154067
0.00405182
0.000838256
0.00144823
0.00282333
0.000501694
0.00124707
0.00607405
0.000741866
0.00133395
0.00582387
0.000304841
0.00145869
0.00542214
0.000524199
0.00123355
0.00439091
0.000400379
0.0013274
0.0031943
0.000274138
0.00102251
0.00220588
-8.35935e-05
0.000235051
0.00240765
-0.000506321
0.000742346
0.00543046
0.000322498
0.000780263
0.00543127
-4.06142e-06
0.00101294
0.005105
-0.000186909
0.000883742
0.00410401
-0.000171861
0.000979018
0.0031234
-0.000199669
0.000699891
0.00169762
-0.000261867
0.000189255
0.00238662
-0.000528225
-0.000212643
0.00232493
-0.000689047
0.000340894
0.00486015
-0.000139116
0.000404603
0.00529378
-0.000246685
0.00066976
0.00435012
-0.000361925
0.00057139
0.00348775
-0.000525842
0.000534513
0.00241882
-0.000673243
0.000458358
0.00160619
-0.000814972
-2.29423e-07
0.00212951
-0.000859104
-0.00012071
0.00217354
-0.000842987
8.56065e-05
0.000430068
-0.000792435
0.000215111
0.00536574
-0.0002175
0.000336287
0.00582611
-0.000254982
0.000473741
0.00499141
-0.00040768
0.000335305
0.00337122
-0.000605102
0.000328995
0.00225216
-0.000649341
0.000319709
0.00137368
-0.000676438
0.000162661
0.00122891
-0.000684562
0.000113856
0.00103817
-0.000669837
0.000179313
3.48415e-05
-0.000648169
0.000123476
-0.000321677
-0.000604436
7.28163e-05
0.00231728
-0.000480416
0.000199962
0.0037956
-0.000407534
0.000159307
0.0038572
-0.00047365
5.50933e-05
0.00325251
-0.000464248
0.000258932
0.00208151
-0.000437852
0.000177736
0.00122386
-0.000391778
0.000195762
0.00062196
-0.000391108
0.00019801
0.000492304
-0.000371648
0.000209867
0.000388118
-0.00038815
0.000206377
-9.46177e-05
-0.000443018
9.49317e-05
-0.000219688
-0.00046885
-0.00011209
0.00203583
-0.000302218
-9.79365e-06
0.00305083
-0.000299139
-1.10115e-05
0.00313731
-0.000321443
-1.18978e-05
0.00318111
-0.000291692
0.000163546
0.00312833
-0.000254481
0.000205991
0.00151268
-0.000237529
0.00020356
0.00124749
-0.000211241
0.000185286
0.000686745
-0.000237664
0.000191475
0.000352889
-0.00022684
0.000151237
-2.94186e-05
-0.000216113
0.000117294
-0.000147522
-0.000248551
7.5281e-05
-0.000158139
-0.000284873
-3.68665e-05
0.00164002
-8.97846e-05
-3.01859e-05
0.00230986
-9.55912e-05
-1.49507e-05
0.00314738
-0.000101132
-2.01466e-05
0.00282214
-9.57727e-05
4.32886e-05
0.00353282
-7.57863e-05
0.000120516
0.0025735
-6.19156e-05
0.000134056
0.00175003
-6.20055e-05
0.00011905
0.000935878
-7.22223e-05
0.000118837
0.000556414
-7.52105e-05
9.60455e-05
0.000164878
-6.71938e-05
7.0876e-05
-0.000542445
-7.12779e-05
5.38349e-05
-0.000418055
-8.74141e-05
-1.22241e-05
-0.000736202
-9.37396e-05
0.000926814
0.00523184
0.00377981
0.00153191
0.00521057
0.00361235
0.000966444
0.0048423
0.00348144
0.00132329
0.00505394
0.00328301
0.00173904
0.00539833
0.0029604
0.00136874
0.005237
0.00298859
0.00131273
0.00524896
0.00288455
0.00224772
0.00522753
0.00276204
0.00180082
0.00560037
0.00232933
0.00163517
0.0058578
0.00237601
0.00224554
0.00559868
0.00238758
0.00260915
0.00579016
0.00268638
0.00177777
0.00590391
0.00198533
0.00183474
0.00583774
0.00196668
0.00236111
0.00551632
0.00180825
0.00275568
0.00569097
0.00183013
0.001718
0.00512584
0.00205793
0.00177061
0.00612499
0.00175231
0.00170356
0.00551582
0.0015683
0.00221402
0.00553452
0.00145613
0.00233672
0.00533907
0.00130833
0.00177174
0.00438363
0.00140338
0.00158983
0.00339136
0.0012432
0.00154163
0.006076
0.00137805
0.00154628
0.0054316
0.00121463
0.00198412
0.00525512
0.000881406
0.00179395
0.00496957
0.000755917
0.00167552
0.00356714
0.000826478
0.00131414
0.00269302
0.000676925
0.000727471
0.0025257
-0.000149091
0.00124346
0.0057306
0.000674832
0.00120183
0.00590102
0.00024314
0.00169439
0.00504159
3.92513e-06
0.00124372
0.00423195
0.000323178
0.00126918
0.00315073
0.000153786
0.00103053
0.00223106
-8.16885e-05
0.000294919
0.00274711
-0.000528716
-0.000249842
0.00288227
-0.000890889
0.000668224
0.00504372
0.000252247
0.000848379
0.00545321
-0.000143224
0.00105428
0.00482918
-0.000112757
0.000668576
0.00397963
-0.000159713
0.000832897
0.00290137
-0.000248208
0.000662597
0.00164097
-0.000347266
9.751e-05
0.0025423
-0.000515286
-0.00011075
0.00247321
-0.000686459
-0.000134563
0.00132038
-0.00069225
0.000319254
0.00482967
-0.000233057
0.000518731
0.00525259
-0.000280367
0.000766999
0.00418793
-0.000377755
0.000610698
0.00342359
-0.000573158
0.000566463
0.00238118
-0.000725668
0.000451135
0.00160004
-0.00079852
0.000139322
0.00224317
-0.000905284
-2.96569e-05
0.00230854
-0.000850596
5.61367e-05
0.000506335
-0.000796078
-6.55563e-05
0.000500742
-0.000665307
0.000246906
0.00527267
-0.000343848
0.000446598
0.00557235
-0.000210378
0.000545867
0.00476064
-0.000410775
0.000360294
0.00326702
-0.000608686
0.000387275
0.00219084
-0.00067212
0.000275692
0.00131891
-0.00069253
0.000212951
0.00122332
-0.000688035
0.000198271
0.00102883
-0.000675491
0.00014759
8.22607e-05
-0.000654978
0.00013171
-0.00027844
-0.000616739
-6.43804e-06
5.33917e-05
-0.000583702
3.1378e-05
0.00223131
-0.00056331
0.000158614
0.00363153
-0.000484753
0.000207845
0.00374129
-0.000510485
0.000110507
0.00313123
-0.00047478
0.000288255
0.00194992
-0.000457373
0.00019235
0.00118869
-0.00038904
0.000196175
0.000626018
-0.000388451
0.000202482
0.000455829
-0.00037183
0.000214867
0.000375549
-0.000382471
0.000191877
-8.33158e-05
-0.000440092
0.000102229
-0.000175115
-0.000472525
6.39388e-06
-0.000291666
-0.000451465
-0.000141801
0.0021576
-0.000320337
-1.92975e-05
0.00304852
-0.0003108
-7.23962e-06
0.00316199
-0.000331529
2.08026e-05
0.00311761
-0.000298899
0.000175554
0.00295816
-0.000253784
0.000209939
0.00140634
-0.000237565
0.000212283
0.00114496
-0.000213228
0.000203906
0.000632281
-0.000241633
0.000186126
0.000279494
-0.000231559
0.000149551
-9.16953e-05
-0.000218069
0.0001188
-0.000163395
-0.000248164
8.36044e-05
-0.000149274
-0.000287185
-4.09985e-05
2.29808e-05
-0.0002745
-3.35729e-05
0.00167231
-9.08531e-05
-1.15156e-05
0.00232802
-9.64302e-05
2.72485e-06
0.00315101
-0.000101952
-1.48013e-06
0.0028184
-9.59098e-05
5.36273e-05
0.00345962
-7.62018e-05
0.000123318
0.00243603
-6.1634e-05
0.000141308
0.00160994
-6.31341e-05
0.000126559
0.000820504
-7.31898e-05
0.000114373
0.000446196
-7.63769e-05
9.4326e-05
6.20601e-05
-6.67182e-05
7.07023e-05
-0.00060946
-7.08813e-05
5.51591e-05
-0.000456953
-8.75387e-05
-1.2609e-05
-0.00071639
-9.46172e-05
-9.93942e-05
-0.000242538
-8.64794e-05
0.000173287
0.00416676
0.00474288
0.00102477
0.00448916
0.00406577
0.000973664
0.00526801
0.00394683
0.000512861
0.0049186
0.0040212
0.00107648
0.00521539
0.00363783
0.00159811
0.00491614
0.00367945
0.00180113
0.00519968
0.00353087
0.0012409
0.00509242
0.00338511
0.00132288
0.0053337
0.00333748
0.0021696
0.0052412
0.00313777
0.00178
0.00534941
0.00270638
0.00141091
0.00554358
0.00291821
0.00217518
0.0052969
0.00288555
0.00241625
0.00545947
0.00297337
0.00199472
0.00538672
0.00244129
0.00200593
0.00561504
0.00240089
0.00238099
0.00549601
0.0024588
0.00272505
0.00557324
0.00263513
0.00232372
0.00573048
0.00263006
0.0019294
0.00573085
0.00199207
0.00180712
0.00564305
0.00207646
0.00245842
0.00524625
0.00199234
0.00257454
0.0052834
0.00197799
0.00177771
0.00487542
0.00207458
0.00203493
0.00364608
0.00192813
0.00169552
0.00595007
0.00179586
0.00179362
0.00553669
0.00148411
0.00225423
0.00546253
0.00137017
0.00207835
0.00518559
0.00132522
0.00183268
0.00423847
0.00129633
0.00173544
0.00328769
0.00108575
0.00144943
0.00301897
0.000359121
0.00152446
0.00589607
0.00123316
0.00143559
0.00554083
0.00103507
0.00213354
0.00533373
0.000696883
0.00168103
0.00466211
0.000751562
0.00153913
0.00329063
0.00076248
0.00136866
0.00258971
0.000591672
0.000566545
0.00293417
-3.16795e-06
-0.000213276
0.00329331
-0.000859542
0.00111319
0.0054387
0.000583329
0.00137231
0.00585854
0.000193387
0.00150841
0.00484682
-1.62145e-05
0.00102788
0.00372488
0.000151692
0.00115646
0.00309272
5.76269e-05
0.000969081
0.00227621
-0.000197844
0.000332151
0.00296649
-0.000535709
-6.36026e-05
0.00310238
-0.00079597
-0.000269474
0.00180678
-0.000773424
0.000628429
0.00487675
-3.18967e-05
0.000869822
0.00557152
-0.000217144
0.00115604
0.0046205
-0.000323589
0.000778725
0.00381177
-0.000112931
0.000918064
0.00269962
-0.000309566
0.000654298
0.00160229
-0.000412687
0.000268251
0.00265934
-0.00059323
-5.05983e-06
0.0026186
-0.000685279
-0.000105395
0.0015309
-0.000735447
-0.000239473
0.00115839
-0.000710637
0.000435207
0.00481334
-0.000399517
0.000626498
0.00520348
-0.000363853
0.000822511
0.00411206
-0.000481138
0.000578126
0.0033649
-0.000536888
0.000543276
0.00239718
-0.000745168
0.000321893
0.00164288
-0.000814708
0.000149445
0.00239968
-0.000891527
6.4809e-05
0.00240104
-0.000864321
1.99347e-05
0.00058011
-0.000796715
-3.92587e-05
0.000536502
-0.000660869
2.43027e-06
0.000231123
-0.000660347
0.000255447
0.00513891
-0.000410014
0.000404023
0.00533681
-0.000353712
0.000629859
0.00448882
-0.000360573
0.000368486
0.00317791
-0.000579646
0.000371898
0.00218124
-0.000682738
0.000248285
0.00129315
-0.0007023
0.000230264
0.00118903
-0.000692327
0.000182706
0.00103927
-0.00067869
0.000138857
0.000140667
-0.000657887
0.000116897
-0.000226449
-0.000631989
-2.2059e-06
0.000130113
-0.000589024
-0.000121984
0.000135162
-0.000561274
2.19475e-05
0.00212569
-0.000619992
0.000149763
0.00344246
-0.000543308
0.000155854
0.00363174
-0.000538296
0.000181718
0.00294466
-0.000484832
0.000275954
0.00183582
-0.000461076
0.000169893
0.00116752
-0.000396155
0.000201638
0.000632494
-0.00038487
0.000218454
0.000426846
-0.000374016
0.000229026
0.000335962
-0.000375144
0.000172905
-5.65968e-05
-0.000432544
0.000113178
-0.000135174
-0.000474411
2.55368e-05
-0.00024603
-0.000460093
-0.000118537
-0.000186974
-0.000432167
-0.000129505
0.00226533
-0.00033301
-4.17654e-05
0.0030803
-0.00032186
-8.40265e-09
0.0031891
-0.000335173
4.88206e-05
0.00303985
-0.000304069
0.00016703
0.00279948
-0.000253621
0.000210259
0.00130203
-0.000236409
0.000223439
0.00104301
-0.000217748
0.000214251
0.000573955
-0.000242595
0.000164909
0.000225172
-0.000237847
0.000152037
-0.000159015
-0.00022195
0.00012344
-0.000184827
-0.000249374
9.40532e-05
-0.000146676
-0.000289657
-3.70705e-05
4.13735e-05
-0.000281116
-0.000227055
0.000607705
-0.000238338
-2.9325e-05
0.00170007
-9.20696e-05
-5.60822e-08
0.00233457
-9.73451e-05
9.7831e-06
0.00314766
-0.00010286
1.07721e-05
0.00280052
-9.48381e-05
6.73869e-05
0.00337308
-7.67542e-05
0.000128204
0.00229337
-6.17445e-05
0.000147777
0.00146462
-6.40831e-05
0.000132003
0.000699478
-7.41113e-05
0.000113076
0.000336438
-7.65071e-05
9.52847e-05
-4.3085e-05
-6.65165e-05
7.1532e-05
-0.000677391
-7.03193e-05
5.72984e-05
-0.000497551
-8.75818e-05
-1.20937e-05
-0.000696379
-9.54553e-05
-9.43707e-05
-0.000155269
-8.75153e-05
-0.000147412
-0.000272732
-7.89672e-05
0.000138091
0.00448314
0.00460669
0.000502038
0.00425742
0.00481527
0.000488498
0.00471449
0.00468737
0.000633228
0.00445011
0.0042794
0.000246083
0.00501152
0.00428907
0.000637597
0.00522493
0.00398927
0.00102331
0.0053746
0.00406563
0.00168832
0.00503623
0.00401676
0.00103207
0.00522436
0.00361427
0.000907939
0.00520141
0.0037675
0.00207937
0.00528945
0.00367991
0.00226189
0.00557778
0.00365773
0.0015694
0.00524959
0.00330285
0.00140247
0.00525976
0.00346749
0.00196115
0.00538154
0.00341116
0.0022903
0.00540359
0.0035376
0.00201584
0.00541309
0.00274132
0.00199221
0.00550389
0.0027598
0.00225361
0.0053537
0.00298879
0.00247404
0.00535154
0.00324449
0.00278961
0.00508958
0.0030002
0.00198154
0.00534283
0.00251789
0.00209666
0.00516903
0.00259776
0.0024988
0.0051734
0.00268312
0.00249936
0.00535911
0.00274811
0.00205511
0.00528043
0.00280777
0.00249267
0.00408677
0.00251725
0.00185102
0.0055887
0.00195455
0.00191609
0.00542315
0.00208949
0.0021249
0.00523064
0.0022214
0.0019191
0.00516638
0.00226861
0.00177508
0.00467117
0.00223985
0.001989
0.00363832
0.00182878
0.00163582
0.00344707
0.00140534
0.00164428
0.00577328
0.00171519
0.00177516
0.00529421
0.00169876
0.00229772
0.00529898
0.00148348
0.00177695
0.00498157
0.00147826
0.0015885
0.00410168
0.00141264
0.00166572
0.00320399
0.00108297
0.000979585
0.00338686
0.000304823
0.00018079
0.00387186
-0.000734301
0.0013474
0.00572924
0.00130322
0.00174813
0.00545522
0.000942944
0.00187953
0.00531472
0.000682947
0.00125622
0.00440219
0.000728457
0.00142877
0.0029876
0.000782271
0.00135365
0.00256642
0.000401203
0.000528921
0.0033075
2.15719e-05
-6.87702e-05
0.00393287
-0.000637561
-0.000436696
0.00280239
-0.000807439
0.00105362
0.0053187
0.000422539
0.00123822
0.00578369
0.000289781
0.00160865
0.00462962
-4.20153e-05
0.000866701
0.00347437
0.000146322
0.00116863
0.00299378
6.18459e-08
0.000911988
0.00232257
-0.000246424
0.000367458
0.00322583
-0.000556388
3.38012e-05
0.00321912
-0.000691312
-0.00022437
0.00188556
-0.000755777
-0.000340557
0.00061584
-0.00057988
0.000728297
0.00491782
-0.00012451
0.000992725
0.00554966
-0.000376268
0.0010118
0.00461872
-0.000404657
0.000698657
0.00360915
-0.0002415
0.000786058
0.0028052
-0.000461293
0.00054176
0.0016152
-0.000542343
0.000198183
0.00281741
-0.000619494
0.000109893
0.00269323
-0.000712946
-3.47561e-05
0.00166409
-0.000763775
-0.000182577
0.00128018
-0.000713922
-3.34006e-05
0.00118767
-0.000755437
0.000445775
0.00480965
-0.000455388
0.000663146
0.00505295
-0.000508111
0.00083806
0.00405157
-0.000511566
0.00055341
0.00326387
-0.000565038
0.000524992
0.00244824
-0.000741035
0.000237538
0.00174282
-0.000834365
0.000183904
0.00251474
-0.000883415
0.000102223
0.00246661
-0.000876613
5.20539e-05
0.000594247
-0.000791655
-4.68217e-05
0.000566566
-0.000663061
-2.07711e-05
0.000247176
-0.000658357
-0.000182722
0.000470619
-0.000674292
0.000552275
0.00470175
-0.000441983
0.000494365
0.00500675
-0.000424559
0.000511556
0.0042361
-0.000456692
0.00048211
0.00306052
-0.000543569
0.000319885
0.00222183
-0.000664165
0.00024709
0.00125591
-0.000722694
0.000243883
0.00113361
-0.000689129
0.000205612
0.00102961
-0.000669833
0.000156406
0.000188822
-0.000654224
6.95056e-05
-0.000136697
-0.000644239
1.94666e-05
0.000190718
-0.000598883
-8.2098e-05
0.000222005
-0.000568232
-0.000173357
0.000316972
-0.000564057
-3.44617e-06
0.00204591
-0.000634398
0.000140065
0.00322674
-0.000586093
0.000124006
0.0035272
-0.000562782
0.000223071
0.00272769
-0.000495569
0.000246616
0.00173672
-0.000465319
0.000174258
0.00114118
-0.000398735
0.000194928
0.000647782
-0.000382932
0.000235875
0.000396833
-0.000376481
0.000223929
0.000275436
-0.000372509
0.00016111
-1.98357e-05
-0.000420978
0.000128383
-9.92981e-05
-0.000473362
5.82113e-05
-0.000213862
-0.000470738
-0.000106277
-0.00013414
-0.00044372
-0.00028543
0.000330679
-0.000422766
-0.000168189
0.00241379
-0.000340146
-2.56259e-05
0.00309968
-0.000326825
3.76564e-05
0.00318024
-0.000340871
7.36603e-05
0.00294416
-0.000302373
0.000169609
0.00264561
-0.000252424
0.000206822
0.00120457
-0.000234788
0.00022916
0.000948284
-0.000223067
0.000218893
0.00051128
-0.000241964
0.000157514
0.000179115
-0.000240977
0.000156264
-0.000231437
-0.000226405
0.000128561
-0.000211701
-0.000252105
0.000101462
-0.000148195
-0.000292019
-2.47894e-05
5.15807e-05
-0.000287168
-0.000201902
0.000679318
-0.000245198
-0.000279425
0.000675912
-0.000235403
-2.13817e-05
0.00172003
-9.34171e-05
7.74026e-06
0.00233323
-9.84752e-05
1.84494e-05
0.00313514
-0.000103275
1.986e-05
0.00277456
-9.67669e-05
9.07092e-05
0.00326362
-7.60905e-05
0.000139218
0.00213961
-6.22082e-05
0.000151989
0.00131607
-6.5184e-05
0.000136831
0.000573657
-7.50926e-05
0.000112613
0.000225828
-7.61138e-05
9.65234e-05
-0.000149732
-6.63838e-05
7.20257e-05
-0.000746215
-6.97187e-05
6.0255e-05
-0.000540668
-8.74571e-05
-1.14934e-05
-0.000676306
-9.61621e-05
-8.97948e-05
-7.2401e-05
-8.85289e-05
-0.000143862
-0.00013708
-7.93046e-05
-0.000171705
-0.000524419
-8.26584e-05