/*--------------------------------*- C++ -*----------------------------------*\
  =========                 |
  \\      /  F ield         | OpenFOAM: The Open Source CFD Toolbox
   \\    /   O peration     | Website:  https://openfoam.org
    \\  /    A nd           | Version:  7
     \\/     M anipulation  |
\*---------------------------------------------------------------------------*/
FoamFile
{
    version     2.0;
    format      ascii;
    class       volVectorField;
    location    "9";
    object      U;
}
// * * * * * * * * * * * * * * * * * * * * * * * * * * * * * * * * * * * * * //

dimensions      [0 1 -1 0 0 0 0];

internalField   nonuniform List<vector> 
18630
(
(-0.427322 -0.369781 -1.86842)
(-0.555824 -1.19329 -1.33486)
(-0.43477 -0.405396 -1.87898)
(-0.69075 -0.529168 -2.07415)
(-1.79102 -0.0677871 -0.377192)
(-0.49048 -1.19803 -1.25897)
(-0.982276 -1.5229 -1.48111)
(-0.442111 -0.435889 -1.8861)
(-0.6772 -0.57076 -2.11966)
(-1.01865 -1.02466 -1.93806)
(-2.96945 -0.621378 0.685093)
(-1.71115 -0.249583 -0.0179733)
(-2.26096 0.11751 -0.569575)
(-0.446905 -1.16015 -1.27668)
(-0.987762 -1.4426 -1.49548)
(-1.32203 -0.930549 -1.85594)
(-0.45124 -0.462921 -1.88848)
(-0.689066 -0.677924 -2.12094)
(-0.843875 -1.23352 -1.90595)
(-0.932839 -1.08639 -2.26975)
(-3.16642 -0.0932056 1.37452)
(-2.93186 -0.822243 0.522053)
(-3.02592 -0.746673 0.17308)
(-1.57399 -0.50079 -0.186385)
(-2.17217 -0.308486 -0.521635)
(-1.86812 -0.391508 -1.31693)
(-0.4309 -1.14356 -1.29562)
(-0.953758 -1.39631 -1.54314)
(-1.24383 -1.05218 -1.91259)
(-1.52144 -0.993235 -1.86342)
(-0.463185 -0.472545 -1.89561)
(-0.678901 -0.681522 -2.13384)
(-0.962939 -1.15362 -1.9314)
(-0.915871 -1.05893 -2.30691)
(-1.61763 -1.00673 -1.74114)
(-3.58562 0.101834 2.00043)
(-3.11724 -0.0848828 1.11444)
(-2.98125 0.0739166 1.15005)
(-2.91203 -0.853321 0.572738)
(-3.00685 -0.821753 0.399578)
(-2.45212 -0.805351 -0.204169)
(-1.55864 -0.549781 -0.234674)
(-2.14133 -0.461972 -0.540448)
(-1.85591 -0.519608 -1.35475)
(-1.8483 -0.7505 -1.05744)
(-0.389173 -1.1416 -1.35295)
(-0.935448 -1.41862 -1.54615)
(-1.2101 -1.08947 -1.95087)
(-1.4099 -1.12152 -1.90724)
(-1.44496 -1.12994 -1.76002)
(-0.467721 -0.477414 -1.91356)
(-0.673182 -0.768658 -2.10721)
(-0.847001 -1.32699 -1.89384)
(-0.90309 -1.12125 -2.30418)
(-1.61936 -0.998277 -1.74662)
(-1.62132 -0.221099 -1.55016)
(-3.44948 0.00312006 2.30071)
(-3.41542 -0.0184679 2.02327)
(-3.35814 0.314744 2.00381)
(-3.03068 -0.113649 0.924589)
(-2.96986 -0.116203 0.932796)
(-2.42802 0.0400952 -0.250116)
(-2.84581 -0.981586 0.529606)
(-2.96651 -0.986961 0.289267)
(-2.43302 -0.811843 -0.346209)
(-1.8761 -0.179353 -0.396353)
(-1.39134 -0.730967 -0.515113)
(-2.08824 -0.670744 -0.57457)
(-1.78747 -0.692906 -1.41264)
(-1.81903 -0.790981 -1.14683)
(-1.29297 -0.671935 -1.55187)
(-0.360004 -1.13555 -1.44106)
(-0.896444 -1.46088 -1.51601)
(-1.1347 -1.17102 -1.96854)
(-1.48152 -0.966381 -1.96785)
(-1.4938 -1.07087 -1.62535)
(-1.25508 0.822922 -2.05087)
(-0.471738 -0.526596 -1.91961)
(-0.672163 -0.798052 -2.09767)
(-0.932885 -1.19872 -1.95469)
(-0.905589 -1.09913 -2.33527)
(-1.60397 -0.998452 -1.74879)
(-1.56654 -0.221459 -1.53477)
(-1.36106 0.337434 -1.25485)
(-3.45738 0.328656 2.23684)
(-3.57858 0.0935306 2.07457)
(-3.33816 0.76471 1.81546)
(-3.41263 -0.338298 1.78213)
(-3.33883 0.288041 1.93425)
(-3.05247 0.674164 0.949989)
(-2.90205 -0.442644 0.835101)
(-2.92644 -0.234177 0.668064)
(-2.38278 -0.0667195 -0.359574)
(-1.76606 0.330299 -0.641641)
(-2.77361 -1.09905 0.30746)
(-2.91827 -1.10434 0.0986677)
(-2.47542 -0.822791 -0.362051)
(-1.84906 -0.041535 -0.793229)
(-1.6634 0.295886 -1.16211)
(-1.28738 -0.821758 -0.654348)
(-2.0575 -0.731051 -0.514555)
(-1.74415 -0.793632 -1.4698)
(-1.65817 -0.920893 -1.34554)
(-1.23211 -0.681486 -1.59378)
(-0.710806 0.0949679 -1.82277)
(-0.352097 -1.12056 -1.55403)
(-0.862079 -1.46666 -1.49493)
(-1.11761 -1.16548 -1.99661)
(-1.28884 -1.21074 -2.01321)
(-1.50464 -0.85285 -1.70535)
(-1.24205 0.653171 -2.01936)
(-1.14833 0.811885 -1.41268)
(-0.471425 -0.56401 -1.90889)
(-0.658226 -0.833636 -2.08635)
(-0.925447 -1.20913 -1.97558)
(-0.897709 -1.10284 -2.35423)
(-1.61851 -0.98017 -1.74864)
(-1.57209 -0.239961 -1.52381)
(-1.34738 0.338402 -1.26846)
(-0.849744 0.453729 -1.35859)
(-3.44719 0.34697 2.26288)
(-3.5152 0.0765086 2.22923)
(-3.40236 0.778673 1.51268)
(-3.55692 0.00637305 2.12261)
(-3.23319 0.501506 1.98648)
(-2.97263 0.758331 1.69707)
(-3.40073 -0.323472 1.63282)
(-3.42265 0.220997 1.4624)
(-2.99411 0.370918 0.379572)
(-2.49436 -0.0055311 0.871481)
(-2.80186 -0.552718 0.704767)
(-2.82348 -0.30255 0.665653)
(-2.36357 -0.156894 -0.388168)
(-1.84776 0.187032 -0.606027)
(-1.3479 0.511984 -1.44233)
(-2.76191 -0.928493 -0.0422528)
(-2.91111 -1.12533 0.0807436)
(-2.44521 -0.934296 -0.549728)
(-1.88907 0.0321261 -1.12235)
(-1.67993 0.316581 -1.35598)
(-1.05173 0.640377 -1.75908)
(-1.11864 -0.907955 -0.833738)
(-1.96739 -0.846427 -0.536681)
(-1.72565 -0.847129 -1.5504)
(-1.62051 -0.880962 -1.50534)
(-1.1636 -0.630011 -1.66532)
(-0.714344 0.0836757 -1.81101)
(-0.393044 0.523026 -1.80135)
(-0.335898 -1.07574 -1.73014)
(-0.830064 -1.46691 -1.50433)
(-1.10255 -1.13364 -2.05036)
(-1.4203 -1.0177 -2.07172)
(-1.54396 -0.863162 -1.67529)
(-1.16463 0.433541 -2.09024)
(-1.13433 0.7579 -1.50091)
(-0.692195 0.840548 -1.54374)
(-0.459329 -0.583174 -1.90591)
(-0.671843 -0.853965 -2.08385)
(-0.920956 -1.21599 -1.99484)
(-0.921403 -1.0825 -2.36694)
(-1.57578 -0.986676 -1.80309)
(-1.57847 -0.202313 -1.54571)
(-1.35523 0.33277 -1.2571)
(-0.850018 0.4695 -1.36274)
(-0.707005 0.76837 -1.5383)
(-3.29987 0.462727 2.38946)
(-3.44864 0.186765 2.31855)
(-3.26301 0.803586 1.96518)
(-3.56043 0.0312405 2.13868)
(-3.27003 0.521071 1.76634)
(-2.83738 0.753939 2.18211)
(-3.61484 0.044115 1.87954)
(-3.2723 0.499637 1.87372)
(-2.99842 0.567036 1.67959)
(-2.74475 1.00355 1.25899)
(-3.39142 -0.0661969 1.05367)
(-3.37277 -0.0195633 1.16373)
(-2.8341 0.187185 0.418033)
(-2.37377 -0.0772739 1.02142)
(-1.91907 0.657741 -0.0213831)
(-2.67132 -0.562249 0.490978)
(-2.7194 -0.634527 0.320136)
(-2.35006 -0.18701 -0.457064)
(-1.93613 0.0975478 -0.662729)
(-1.38492 0.513394 -1.37012)
(-0.883995 0.71149 -1.77138)
(-2.59908 -1.09056 -0.316186)
(-2.91216 -1.16903 0.0745899)
(-2.46454 -0.968062 -0.554073)
(-1.7393 -0.243458 -1.54608)
(-1.52095 0.13479 -1.66595)
(-1.02444 0.496659 -1.81788)
(-0.541176 0.340563 -2.16781)
(-1.03866 -0.888113 -1.08528)
(-1.85516 -1.01925 -0.626636)
(-1.6843 -0.971236 -1.62963)
(-1.62315 -0.746851 -1.67992)
(-1.11519 -0.609605 -1.72818)
(-0.719352 0.0514936 -1.80657)
(-0.446255 0.491336 -1.78279)
(-0.376401 0.498165 -1.69887)
(-0.301842 -1.07143 -1.9298)
(-0.806688 -1.49106 -1.52886)
(-1.11058 -1.1327 -2.0967)
(-1.33572 -0.960035 -2.17165)
(-1.4873 -0.876721 -1.71009)
(-1.11875 0.356897 -2.13159)
(-1.12054 0.715059 -1.52875)
(-0.669323 0.743639 -1.59436)
(-0.43798 0.587196 -1.7194)
(-0.447526 -0.604894 -1.90772)
(-0.665391 -0.876099 -2.07737)
(-0.840473 -1.32318 -1.97988)
(-0.837289 -1.17062 -2.36241)
(-1.62465 -0.942417 -1.77352)
(-1.57118 -0.173936 -1.55475)
(-1.34574 0.356766 -1.25437)
(-0.858478 0.487054 -1.37448)
(-0.721013 0.78274 -1.58482)
(-0.480308 0.918268 -1.61478)
(-2.93658 0.438002 2.44537)
(-3.28941 0.24771 2.34501)
(-3.2175 0.47612 2.35037)
(-3.46284 0.267746 2.24718)
(-3.29988 0.690669 2.05817)
(-3.19476 0.589335 2.34268)
(-3.58491 0.289049 1.88974)
(-3.19374 0.372861 1.93697)
(-2.94363 0.664429 2.2021)
(-2.82777 1.35618 1.31517)
(-3.58872 0.271035 1.50228)
(-3.28567 0.34739 1.79375)
(-3.14391 0.185911 1.63129)
(-2.69114 1.0628 0.484686)
(-2.20644 1.05369 0.571068)
(-3.3496 -0.0925597 0.397981)
(-3.22128 -0.263918 1.07245)
(-2.76566 -0.076479 0.446049)
(-2.35531 0.327666 0.671001)
(-1.94854 0.603481 -0.393542)
(-1.19779 0.739014 -0.409217)
(-2.37857 -0.864013 0.0300618)
(-2.64411 -0.790692 -0.0206196)
(-2.38913 -0.249049 -0.41565)
(-1.91259 0.074694 -0.875807)
(-1.46884 0.388737 -1.15355)
(-0.896095 0.564856 -1.8388)
(-0.832323 -0.0126359 -1.95119)
(-2.36946 -1.39674 -0.598547)
(-2.73179 -1.38638 -0.351968)
(-2.46399 -1.00783 -0.483063)
(-1.83418 -0.23287 -1.47081)
(-1.44862 0.133304 -1.81755)
(-0.980073 0.392752 -1.88579)
(-0.612752 0.307652 -2.16384)
(-0.496246 0.243132 -2.1367)
(-0.983701 -0.843059 -1.46272)
(-1.8117 -1.04467 -0.716135)
(-1.67411 -1.0531 -1.69507)
(-1.57372 -0.696553 -1.85844)
(-1.08482 -0.520731 -1.83042)
(-0.751121 0.0410127 -1.79283)
(-0.481078 0.480031 -1.7757)
(-0.397459 0.437361 -1.70268)
(-0.348331 0.653855 -1.6731)
(-0.276654 -1.1219 -2.07758)
(-0.824729 -1.45435 -1.60108)
(-0.986152 -1.2676 -2.15929)
(-1.28709 -0.97093 -2.24142)
(-1.55446 -0.81526 -1.70157)
(-1.14254 0.307878 -2.126)
(-1.09288 0.638478 -1.52514)
(-0.68228 0.69204 -1.63415)
(-0.473169 0.668957 -1.69538)
(-0.204763 0.65528 -1.61067)
(-0.437995 -0.636629 -1.9123)
(-0.631393 -0.905001 -2.06009)
(-0.804946 -1.36675 -1.99257)
(-0.853667 -1.15509 -2.38363)
(-1.61256 -0.891957 -1.80264)
(-1.59065 -0.122785 -1.55589)
(-1.33195 0.376226 -1.25989)
(-0.868123 0.512171 -1.39226)
(-0.732368 0.798426 -1.63734)
(-0.474979 0.881771 -1.63588)
(0.0376707 0.649341 -1.42546)
(-2.90283 0.998284 2.2917)
(-2.84597 0.462847 2.39909)
(-2.97977 0.259906 2.61416)
(-3.27722 0.13207 2.24943)
(-3.26631 0.188391 2.34894)
(-3.17491 0.640622 2.71786)
(-3.52033 0.113001 2.06884)
(-3.26613 0.297456 2.24754)
(-3.18482 0.447792 2.4946)
(-3.05336 1.23202 1.89086)
(-3.60773 0.0731998 1.65462)
(-3.12207 -0.0528885 2.2269)
(-3.05663 0.697044 2.10353)
(-2.95927 1.09649 0.959852)
(-2.50983 1.23329 0.959357)
(-3.48167 -0.0800038 1.36935)
(-3.14236 -0.0423288 1.90391)
(-3.12612 0.0589207 1.77004)
(-2.64205 0.905394 0.394385)
(-2.15275 0.945001 0.685399)
(-1.34382 0.921442 0.0924973)
(-3.0206 -0.696858 0.711089)
(-2.97876 -0.568016 0.831473)
(-2.75307 -0.270101 0.309997)
(-2.35103 0.197382 -0.124175)
(-1.9719 0.450396 -0.710929)
(-1.18477 0.520351 -0.428686)
(-1.07713 -0.0743211 -0.727387)
(-2.2263 -1.08806 -0.258156)
(-2.52044 -1.04873 -0.199004)
(-2.38735 -0.32251 -0.485836)
(-1.91236 0.0118302 -0.925861)
(-1.48617 0.335946 -1.19782)
(-0.908953 0.412497 -1.90161)
(-0.887676 -0.161439 -2.00937)
(-0.827841 -0.493131 -2.04872)
(-2.36323 -1.44018 -0.60112)
(-2.64496 -1.46082 -0.620724)
(-2.44967 -1.02388 -0.601444)
(-1.65351 -0.390251 -1.65317)
(-1.30581 0.0210607 -1.96372)
(-0.945017 0.317412 -1.97668)
(-0.678802 0.195128 -2.17361)
(-0.547536 0.212262 -2.1463)
(-0.0854348 0.373438 -2.03604)
(-0.947362 -0.785582 -1.93842)
(-1.79847 -1.02743 -0.900049)
(-1.59006 -1.15416 -1.82145)
(-1.34654 -1.04917 -1.93521)
(-1.18895 -0.224681 -1.91615)
(-0.733398 0.076064 -1.78664)
(-0.499748 0.457772 -1.77103)
(-0.42752 0.398658 -1.69141)
(-0.381665 0.641818 -1.65956)
(-0.088144 0.650861 -1.85506)
(-0.244218 -1.10922 -2.21718)
(-0.768041 -1.39115 -1.75128)
(-1.02528 -1.2409 -2.22911)
(-1.17904 -1.20604 -2.23911)
(-1.57755 -0.634457 -1.75747)
(-1.19466 0.413776 -2.09036)
(-1.08458 0.602801 -1.46243)
(-0.685516 0.64818 -1.68462)
(-0.48541 0.690233 -1.71205)
(-0.201808 0.6062 -1.61423)
(-0.0479608 0.515999 -1.63681)
(-0.414356 -0.672218 -1.92184)
(-0.60258 -0.974189 -2.02638)
(-0.827367 -1.34171 -2.02994)
(-0.843216 -1.16112 -2.38483)
(-1.60453 -0.9189 -1.7956)
(-1.58471 -0.13737 -1.54799)
(-1.35787 0.356037 -1.2547)
(-0.887672 0.540394 -1.41096)
(-0.743341 0.817405 -1.69101)
(-0.461987 0.819889 -1.64034)
(0.0296297 0.656226 -1.41446)
(0.0700562 0.480096 -1.84816)
(-2.47622 0.443611 2.64738)
(-2.59278 0.713393 2.68898)
(-2.49032 0.158098 2.76131)
(-2.77611 0.592553 2.56959)
(-2.91481 0.36671 2.47518)
(-3.03564 0.386794 2.44222)
(-3.1041 1.00459 2.45429)
(-3.29004 0.0317299 2.20804)
(-3.19929 0.233793 2.34344)
(-3.17899 0.913823 2.51707)
(-3.49878 1.76931 1.50516)
(-3.51879 -0.212824 1.96358)
(-3.17177 0.394225 2.37265)
(-3.07682 0.608729 2.47923)
(-3.01281 0.963337 2.02234)
(-2.59117 1.21099 1.69636)
(-3.48453 -0.382932 1.73802)
(-3.01161 -0.0199752 2.46527)
(-3.15179 0.884675 1.73043)
(-3.06261 0.958082 0.907385)
(-2.4515 1.04367 1.09166)
(-1.71974 1.31137 0.737182)
(-3.39687 -0.518315 1.32474)
(-3.24413 0.0285921 1.37201)
(-3.10907 0.154849 1.07842)
(-2.48941 0.288158 0.786332)
(-2.05052 0.813719 0.750203)
(-1.34103 0.751539 0.01964)
(-1.10086 -0.0217041 -0.169044)
(-2.68496 -1.08553 1.01647)
(-2.69237 -0.828845 0.333516)
(-2.69127 -0.469209 -0.14838)
(-2.36896 0.27665 -0.338622)
(-1.95088 0.48795 -0.385441)
(-1.10243 0.537976 -0.391325)
(-1.12828 -0.0899201 -0.691689)
(-1.01801 -0.603543 -1.38882)
(-2.16549 -1.23234 -0.363285)
(-2.41959 -1.18979 -0.413745)
(-2.37777 -0.352331 -0.617013)
(-1.96673 -0.00173229 -0.895321)
(-1.35817 0.172533 -1.55392)
(-0.969101 0.300871 -1.86356)
(-0.998486 -0.265453 -2.00951)
(-0.908512 -0.39462 -2.0793)
(-0.333071 0.455017 -2.12329)
(-2.30671 -1.52684 -0.711219)
(-2.61588 -1.5035 -0.67161)
(-2.44612 -0.992895 -0.837767)
(-1.69946 -0.545861 -1.67657)
(-1.31285 -0.0638505 -1.97946)
(-0.898332 0.208944 -2.06343)
(-0.708424 0.162701 -2.17708)
(-0.612779 0.197018 -2.14841)
(-0.108484 0.346949 -2.07155)
(0.058676 0.465857 -1.97398)
(-0.877182 -0.843971 -2.35458)
(-1.73552 -1.05323 -1.22219)
(-1.52928 -1.22566 -1.98126)
(-1.20973 -1.1747 -1.99546)
(-1.26673 0.00136248 -2.07776)
(-0.739928 0.0812782 -1.77767)
(-0.544156 0.376837 -1.74459)
(-0.457687 0.433566 -1.67415)
(-0.42291 0.635668 -1.63783)
(-0.128857 0.628735 -1.83547)
(0.0258905 0.424947 -2.12423)
(-0.175104 -1.10614 -2.36924)
(-0.764985 -1.39423 -1.87804)
(-1.02099 -1.20244 -2.31308)
(-1.16427 -1.07598 -2.33625)
(-1.56339 -0.618768 -1.79525)
(-1.26424 0.491387 -2.04213)
(-1.08419 0.587277 -1.42633)
(-0.699385 0.6244 -1.71988)
(-0.494603 0.669607 -1.74958)
(-0.19935 0.569126 -1.62215)
(-0.0692632 0.494661 -1.61702)
(-0.000482281 0.378763 -2.10472)
(-0.379209 -0.711128 -1.93765)
(-0.56928 -0.998218 -2.02603)
(-0.931706 -1.25516 -2.06037)
(-0.796871 -1.17256 -2.38319)
(-1.54547 -0.941318 -1.8114)
(-1.54631 -0.1374 -1.52653)
(-1.34841 0.385566 -1.27153)
(-0.905867 0.568352 -1.43758)
(-0.758981 0.823124 -1.74472)
(-0.444132 0.760479 -1.62634)
(0.0197999 0.665162 -1.40273)
(0.0567097 0.49493 -1.8321)
(0.381905 -0.0613732 -2.12744)
(-2.61838 -0.0788998 2.58876)
(-2.69671 0.758709 2.5048)
(-2.52854 0.199586 2.69443)
(-2.61272 0.169811 2.81731)
(-2.96652 0.46873 2.45903)
(-2.66358 0.0705374 2.79981)
(-2.55115 0.254298 2.75097)
(-2.87474 0.962351 2.39487)
(-3.13771 0.162239 2.39171)
(-3.1109 0.429599 2.39142)
(-3.10402 0.967548 2.39819)
(-3.20338 1.33735 2.54995)
(-3.33938 -0.0207101 2.11759)
(-3.2132 0.260645 2.30718)
(-3.27323 0.962206 2.179)
(-3.43934 1.49443 1.75141)
(-2.82721 0.970496 2.34226)
(-3.42455 -0.230788 2.01064)
(-3.08803 0.206202 2.50593)
(-3.21397 0.699404 1.97034)
(-3.06177 0.94068 1.87834)
(-2.50166 0.895998 1.83434)
(-1.85155 1.01156 1.78098)
(-3.37976 -0.4235 1.76919)
(-2.98913 -0.0181452 2.43978)
(-3.15567 0.461746 1.51488)
(-3.02885 0.525764 1.15081)
(-2.28566 0.89738 1.11533)
(-1.6328 0.83002 1.25237)
(-1.22704 0.088126 0.683956)
(-3.1191 -0.724544 1.4289)
(-3.1866 -0.502098 1.16673)
(-3.07765 0.306089 -0.350694)
(-2.37027 0.0281276 0.723381)
(-1.93533 0.759971 0.589128)
(-1.33852 0.657901 0.11433)
(-1.27581 -0.0667485 -0.317904)
(-1.32921 -0.502762 -1.48954)
(-2.41429 -1.21496 0.80339)
(-2.62401 -0.924945 0.252509)
(-2.70616 -0.379997 -0.319932)
(-2.24472 -0.231613 -0.579751)
(-1.81236 0.253797 -0.325268)
(-1.0855 0.471021 -0.464379)
(-1.15063 -0.482775 -0.653986)
(-1.0436 -0.566126 -1.36662)
(-0.533651 -0.357473 -1.40748)
(-2.0154 -1.41372 -0.546077)
(-2.48593 -1.14529 -0.276673)
(-2.4158 -0.334027 -0.744503)
(-1.89996 -0.205933 -1.14477)
(-1.39797 -0.00526243 -1.68606)
(-1.02506 0.243902 -1.77741)
(-1.01052 -0.228871 -2.1541)
(-1.07582 -0.337208 -2.10272)
(-0.299979 0.270308 -2.13042)
(-0.225097 -0.0203653 -1.72345)
(-2.09061 -1.71828 -1.02395)
(-2.58588 -1.47087 -0.551722)
(-2.4246 -0.895966 -0.90896)
(-1.65639 -0.564372 -1.73397)
(-1.28102 0.004006 -2.07722)
(-0.817299 0.119147 -2.12954)
(-0.768035 0.202881 -2.17451)
(-0.638278 0.281443 -2.15063)
(-0.149358 0.361533 -2.08711)
(0.0228932 0.488203 -1.99812)
(-0.0233218 0.0860712 -1.90195)
(-0.443985 -1.12614 -2.70062)
(-1.49047 -1.1118 -1.72777)
(-1.42293 -1.26269 -2.20562)
(-1.18431 -1.06298 -2.07826)
(-1.33953 0.127065 -2.15623)
(-0.808689 0.119212 -1.75868)
(-0.544035 0.330243 -1.72229)
(-0.486129 0.457898 -1.67792)
(-0.461887 0.601351 -1.61901)
(-0.155487 0.584467 -1.81433)
(-0.0220669 0.440526 -2.11635)
(0.106477 0.217766 -2.09329)
(-0.170722 -1.18993 -2.49745)
(-0.731169 -1.37653 -2.02276)
(-1.00195 -1.22497 -2.38336)
(-1.18928 -1.05189 -2.37114)
(-1.50246 -0.584104 -1.86597)
(-1.28979 0.529219 -1.98299)
(-1.09776 0.588856 -1.4377)
(-0.767021 0.660577 -1.70768)
(-0.483035 0.617426 -1.79442)
(-0.209475 0.571187 -1.62901)
(-0.0890552 0.485564 -1.6052)
(-0.0341377 0.392996 -2.09015)
(0.0056923 -0.0639357 -2.2446)
(-0.35714 -0.740711 -1.96288)
(-0.639899 -0.959821 -2.0265)
(-0.982245 -1.21302 -2.08302)
(-0.884194 -1.12389 -2.36136)
(-1.52207 -0.955694 -1.82489)
(-1.52992 -0.136664 -1.50022)
(-1.36766 0.371471 -1.25757)
(-0.932375 0.586814 -1.46724)
(-0.759819 0.803677 -1.79253)
(-0.423226 0.717788 -1.6067)
(0.0142155 0.667972 -1.39117)
(0.0398002 0.517455 -1.81668)
(0.380415 -0.0526333 -2.13303)
(0.288477 -0.65583 -2.13682)
(-1.92349 -0.0471065 2.95904)
(-2.36079 0.340023 2.62998)
(-2.52562 -0.0445492 2.6668)
(-2.38136 0.173047 2.93248)
(-2.6428 0.10084 2.69742)
(-2.29159 0.670774 3.03642)
(-2.55234 0.653452 2.76582)
(-2.64946 0.101511 2.77317)
(-2.69336 0.174876 2.79672)
(-2.82582 0.862219 2.56047)
(-2.9403 0.196949 2.5194)
(-2.77593 0.0537444 2.7466)
(-2.79435 0.843983 2.55395)
(-3.01808 1.21808 2.68034)
(-3.01796 0.0781926 2.42814)
(-3.21611 0.24795 2.35024)
(-3.13533 0.85006 2.40606)
(-3.23167 1.32643 2.4539)
(-3.12431 0.679982 2.86978)
(-3.23964 0.0742115 2.16586)
(-3.19625 0.134254 2.32522)
(-3.21249 0.958866 2.10071)
(-3.26299 1.36684 1.87231)
(-2.74431 0.889178 2.38336)
(-2.07205 1.01306 2.28211)
(-3.32523 -0.278591 2.0463)
(-3.17224 0.0686896 2.379)
(-3.39616 0.841182 1.45153)
(-3.14621 0.831376 1.67528)
(-2.55527 1.09587 1.51006)
(-1.97348 0.993626 1.64958)
(-1.57816 0.842062 1.33196)
(-3.32902 -0.460528 1.64827)
(-3.09035 -0.268452 2.19173)
(-3.19423 0.581405 0.986913)
(-2.86406 0.602693 1.02195)
(-2.11974 0.700033 1.0782)
(-1.60672 0.783065 1.20035)
(-1.343 0.0527895 0.716112)
(-1.27401 -0.637983 -1.09647)
(-2.858 -0.888703 1.17989)
(-3.18017 -0.57765 0.82997)
(-2.98976 0.00660542 -0.39809)
(-2.1758 -0.230053 0.393802)
(-1.93911 0.374374 0.39971)
(-1.38914 0.440081 -0.106422)
(-1.43729 -0.134172 -0.401825)
(-1.39158 -0.417931 -1.4034)
(-0.799067 -0.308726 -1.56229)
(-2.19022 -1.2452 0.218798)
(-2.69036 -1.06886 0.220482)
(-2.63327 -0.35226 -0.818561)
(-2.20359 -0.0904383 -0.0976191)
(-1.70649 0.413899 -0.0299839)
(-1.06818 0.369012 -0.706266)
(-1.22443 -0.189657 -0.920044)
(-1.12008 -0.529146 -1.34347)
(-0.622666 -0.338368 -1.42535)
(-0.45174 -0.350689 -1.34664)
(-2.07883 -1.31795 -0.734849)
(-2.56247 -1.08183 -0.521232)
(-2.33799 -0.38777 -1.06122)
(-1.90679 -0.301131 -1.06673)
(-1.42035 0.0291755 -1.65172)
(-0.968149 0.116282 -1.86316)
(-1.18853 -0.270601 -2.13418)
(-1.11104 -0.189683 -2.17299)
(-0.300175 0.0786418 -2.13324)
(-0.247954 -0.0314654 -1.71339)
(-0.0909303 -0.154533 -1.59923)
(-2.12624 -1.64968 -1.25024)
(-2.27002 -1.59264 -0.982521)
(-2.48906 -0.783393 -0.718974)
(-1.61306 -0.536059 -1.69855)
(-1.25482 -0.119196 -2.06316)
(-0.807338 0.0251379 -2.15871)
(-0.777713 0.170341 -2.1922)
(-0.664797 0.188433 -2.17317)
(-0.213564 0.372223 -2.08495)
(-0.0188101 0.430525 -2.02458)
(-0.0767873 0.0902868 -1.91868)
(-0.00411574 -0.186448 -1.80853)
(-0.0975608 -1.27615 -2.87367)
(-1.28598 -1.32694 -2.08954)
(-1.28381 -1.34756 -2.35654)
(-1.17293 -0.978228 -2.15133)
(-1.30105 0.079787 -2.15092)
(-0.749237 0.0422286 -1.81676)
(-0.58112 0.307157 -1.69225)
(-0.531853 0.486321 -1.67001)
(-0.489597 0.573761 -1.5988)
(-0.188061 0.543276 -1.77439)
(-0.0754127 0.446457 -2.09578)
(0.0613996 0.265956 -2.11614)
(0.161519 -0.268036 -1.9946)
(-0.137081 -1.18816 -2.62771)
(-0.721236 -1.3529 -2.15152)
(-1.05837 -1.22951 -2.41038)
(-1.12989 -1.07606 -2.42028)
(-1.45626 -0.574821 -1.92782)
(-1.25236 0.413272 -1.89182)
(-1.11985 0.584053 -1.48038)
(-0.805239 0.677293 -1.70974)
(-0.428397 0.512456 -1.85209)
(-0.224688 0.590493 -1.64462)
(-0.113682 0.486153 -1.61298)
(-0.0603636 0.389889 -2.08082)
(-0.00411298 -0.0526068 -2.27821)
(-0.0532319 -1.04548 -1.88432)
(-0.357192 -0.746462 -1.99525)
(-0.613923 -0.973902 -2.03957)
(-0.954467 -1.2521 -2.10275)
(-0.894539 -1.09002 -2.35994)
(-1.49038 -0.960274 -1.84614)
(-1.542 -0.127965 -1.49414)
(-1.35925 0.392544 -1.24906)
(-0.936683 0.605733 -1.51893)
(-0.753803 0.779749 -1.79435)
(-0.414536 0.709968 -1.59757)
(0.0055258 0.675248 -1.37603)
(0.0172028 0.548522 -1.79836)
(0.378186 -0.0429951 -2.13771)
(0.280542 -0.634416 -2.15442)
(0.413811 -1.1059 -1.78091)
(-2.08231 -0.136326 2.78083)
(-2.03428 0.0827155 2.96723)
(-2.23651 0.0549574 2.99189)
(-2.2009 0.142874 2.75611)
(-2.41227 -0.371322 2.79499)
(-2.58834 -0.228073 2.70377)
(-2.43762 0.224796 2.96512)
(-2.51195 0.637274 2.84958)
(-2.59586 -0.30568 2.6766)
(-2.67529 -0.015798 2.91105)
(-2.75043 0.770127 2.75303)
(-2.86872 1.11163 2.70309)
(-2.66009 0.0819637 2.75159)
(-2.6661 0.0999524 2.90914)
(-2.78553 0.61137 2.73973)
(-2.88783 0.920701 2.80456)
(-2.96961 0.254239 2.51345)
(-3.11783 0.293327 2.43606)
(-3.0135 0.726568 2.60089)
(-2.99285 1.08837 2.75676)
(-2.98394 1.51747 2.78234)
(-2.94601 -0.0119861 2.50894)
(-2.98848 0.0988749 2.51859)
(-3.13387 0.68765 2.45714)
(-3.13325 0.903951 2.57059)
(-2.98407 0.593006 2.90956)
(-2.28621 1.4659 2.45952)
(-3.19522 -0.362209 2.10766)
(-3.16735 0.0367569 2.27935)
(-3.08964 0.501559 2.33275)
(-3.02471 0.699509 2.3133)
(-2.63315 0.524313 2.56045)
(-2.10068 1.07618 2.26303)
(-1.74412 1.08146 2.01734)
(-3.2229 -0.615316 2.00177)
(-3.0411 -0.324308 2.44041)
(-3.46196 0.653755 1.3407)
(-2.92939 0.355704 1.91011)
(-2.51741 0.735737 1.72947)
(-1.9932 0.951524 1.68311)
(-1.72687 0.307649 1.11409)
(-1.62666 -0.439438 -0.367661)
(-3.09163 -0.778331 1.77202)
(-3.21051 -0.243942 1.86002)
(-3.26009 0.0144324 0.701309)
(-2.67693 0.196752 0.997639)
(-1.98402 0.653844 1.19932)
(-1.63018 0.681456 1.0237)
(-1.55358 -0.103954 0.527735)
(-1.64527 -0.592852 -0.729818)
(-1.18152 -0.780317 -1.46854)
(-2.64243 -1.09812 0.981598)
(-3.08708 -0.814437 0.747114)
(-2.86643 0.0823078 -0.241262)
(-1.95939 -0.180966 0.346042)
(-1.88345 0.361787 0.145501)
(-1.40645 0.35985 -0.225266)
(-1.53474 -0.191493 -0.547861)
(-1.46322 -0.374908 -1.33745)
(-0.828565 -0.371696 -1.33992)
(-0.222022 -0.461075 -1.01337)
(-2.16657 -1.28345 -0.00649953)
(-2.71194 -1.20058 -0.315473)
(-2.64135 -0.375957 -1.06191)
(-2.03667 -0.319695 -0.419745)
(-1.71146 0.0542294 -0.331975)
(-0.925597 0.0108455 -1.24338)
(-1.32577 -0.408159 -0.928815)
(-1.18754 -0.538419 -1.371)
(-0.695303 -0.354164 -1.44549)
(-0.520792 -0.314194 -1.475)
(-0.541088 0.0410233 -1.50127)
(-1.85383 -1.68919 -0.891714)
(-2.43492 -1.23926 -1.12256)
(-2.34914 -0.492957 -1.18848)
(-1.74754 -0.430567 -1.22386)
(-1.42295 -0.0617079 -1.5549)
(-0.968663 -0.0218567 -1.98811)
(-1.21716 -0.292206 -2.10149)
(-1.20747 -0.328918 -2.14299)
(-0.330837 -0.0377709 -2.11223)
(-0.268987 -0.0608438 -1.69246)
(-0.058059 -0.152937 -1.56634)
(-0.140269 -0.367064 -1.63472)
(-2.16639 -1.54639 -1.30051)
(-2.21776 -1.56957 -1.17956)
(-2.13492 -0.973789 -1.14956)
(-1.72441 -0.469333 -1.5578)
(-1.22054 -0.258138 -1.92722)
(-0.738052 -0.0538155 -2.21704)
(-0.789434 0.117841 -2.2002)
(-0.687984 0.156949 -2.15589)
(-0.289472 0.422504 -2.06107)
(-0.0402014 0.353028 -2.03632)
(-0.116103 0.116423 -1.95385)
(-0.048883 -0.14439 -1.82332)
(-0.0700759 -0.352307 -1.78554)
(-0.0601484 -1.23584 -2.82846)
(-0.820391 -1.46607 -2.40998)
(-1.0508 -1.42948 -2.49166)
(-1.19821 -0.836011 -2.223)
(-1.16166 -0.102229 -2.14628)
(-0.817979 0.054448 -1.82369)
(-0.624871 0.309077 -1.67685)
(-0.558342 0.47331 -1.66666)
(-0.455973 0.507626 -1.6128)
(-0.224252 0.513264 -1.71863)
(-0.131965 0.46116 -2.04996)
(-0.00230355 0.34871 -2.13801)
(0.144877 -0.246254 -2.03333)
(0.0371152 -0.833784 -1.92022)
(-0.0995153 -1.29139 -2.62469)
(-0.822091 -1.35726 -2.21156)
(-1.0508 -1.20938 -2.43213)
(-1.12642 -1.04974 -2.4206)
(-1.45288 -0.517368 -1.96013)
(-1.17851 0.307224 -1.81226)
(-1.12639 0.552616 -1.53773)
(-0.840097 0.671455 -1.71739)
(-0.431555 0.474614 -1.85909)
(-0.240512 0.608985 -1.66527)
(-0.139632 0.501321 -1.64146)
(-0.0867254 0.386207 -2.07632)
(-0.0188156 -0.0239068 -2.30805)
(-0.0543221 -0.968699 -1.93455)
(-0.0305857 -1.25108 -1.66898)
(-0.357614 -0.773674 -2.01505)
(-0.557035 -1.00559 -2.05731)
(-0.926556 -1.27113 -2.11439)
(-0.88648 -1.09319 -2.36293)
(-1.53803 -0.90613 -1.77542)
(-1.56925 -0.0876956 -1.49147)
(-1.35994 0.403157 -1.24501)
(-0.959375 0.613433 -1.5646)
(-0.740276 0.738413 -1.77153)
(-0.421726 0.717904 -1.58964)
(7.27707e-06 0.678927 -1.36253)
(-0.0108464 0.584566 -1.77579)
(0.378063 -0.0387937 -2.14093)
(0.273367 -0.615289 -2.17028)
(0.413341 -1.08259 -1.79457)
(0.599108 -1.33344 -1.81652)
(-1.99962 -0.0988166 2.55321)
(-2.17393 -0.242219 2.73741)
(-2.24057 0.0195992 2.72514)
(-2.07389 -0.415384 2.94254)
(-2.22611 -0.0753593 3.01507)
(-2.2536 0.187518 2.96753)
(-2.05436 -0.353726 3.05357)
(-2.3687 -0.160665 2.91329)
(-2.11427 0.508579 3.05907)
(-2.55165 -0.171342 2.80861)
(-2.70436 -0.408906 2.92469)
(-2.62392 0.560945 2.95835)
(-2.69051 0.729485 2.95098)
(-2.59627 -0.16803 2.71273)
(-2.60482 -0.0926053 2.90631)
(-2.7283 0.379155 2.97741)
(-2.89287 0.702059 2.93091)
(-2.74306 1.16353 3.04492)
(-2.89031 -0.119886 2.64922)
(-2.88555 0.132464 2.75308)
(-2.9239 0.425262 2.87284)
(-2.82397 0.761687 3.03516)
(-2.6154 1.1532 3.11443)
(-2.98104 -0.0664727 2.61784)
(-3.04838 0.34021 2.50949)
(-3.04753 0.715888 2.5957)
(-3.00332 0.850179 2.89347)
(-2.67437 0.939068 3.19397)
(-2.59722 1.26776 2.78639)
(-3.0147 -0.192011 2.36139)
(-2.80813 0.123823 2.57034)
(-2.8677 0.369514 2.66501)
(-2.841 0.24827 2.97169)
(-2.76709 0.724304 2.95578)
(-2.33591 1.02187 2.71241)
(-2.01176 0.884196 2.61805)
(-2.99056 -0.379549 2.29173)
(-3.09079 0.0867782 2.23677)
(-3.10043 0.317616 2.38499)
(-2.93975 0.376069 2.54607)
(-2.51805 0.217914 2.78384)
(-2.14278 0.750783 2.41748)
(-1.99815 0.451602 1.80628)
(-1.84329 0.0572462 1.25297)
(-2.95516 -0.764107 2.11862)
(-3.0407 -0.0748772 2.26351)
(-3.20249 0.358387 1.75734)
(-2.62899 -0.273252 2.28598)
(-2.39259 0.408675 1.85807)
(-1.97613 0.812509 1.73453)
(-1.79564 0.10348 1.05186)
(-1.9238 -0.54701 -0.312339)
(-1.419 -0.654964 -1.55754)
(-2.99951 -0.967074 1.72723)
(-3.00415 -0.592053 1.92365)
(-3.2176 0.02353 0.747086)
(-2.34828 -0.294978 1.23365)
(-1.95414 0.513771 1.14344)
(-1.63416 0.469783 0.946014)
(-1.73075 -0.26756 0.15784)
(-1.88051 -0.713706 -0.452985)
(-1.22796 -0.776916 -1.20611)
(-0.437885 -0.513029 -0.866914)
(-2.65767 -1.13222 0.910949)
(-3.12288 -0.794202 0.372074)
(-2.63166 -0.5716 0.1528)
(-1.83044 -0.253299 0.0867614)
(-1.82779 0.120449 0.163528)
(-1.4773 0.27452 -0.14508)
(-1.59672 -0.425772 -0.573825)
(-1.58758 -0.308455 -1.25723)
(-0.87213 -0.288885 -1.04271)
(-0.169951 -0.399288 -1.16258)
(-0.718474 -0.426208 -0.932275)
(-2.34033 -1.23465 -0.0911867)
(-2.72894 -1.20449 -0.474166)
(-2.58929 -0.559904 -1.16763)
(-1.97177 -0.416388 -0.491436)
(-1.66883 -0.0928751 -0.480928)
(-0.769015 -0.219526 -1.54649)
(-1.35262 -0.486371 -0.877853)
(-1.23675 -0.486397 -1.4605)
(-0.820109 -0.245065 -1.52689)
(-0.554548 -0.377789 -1.54219)
(-0.607552 -0.0828917 -1.37445)
(-0.449026 -0.345923 -1.54516)
(-2.41 -1.05515 -0.959493)
(-2.44257 -1.20112 -1.27256)
(-2.15063 -0.728399 -1.25929)
(-1.8452 -0.363832 -1.23098)
(-1.37437 -0.329994 -1.51657)
(-1.05486 -0.067792 -2.04459)
(-1.24353 -0.331583 -2.07005)
(-1.18625 -0.314676 -2.14193)
(-0.264754 -0.0491774 -2.18136)
(-0.223646 -0.187104 -1.67488)
(-0.106216 -0.131483 -1.57828)
(-0.168868 -0.271658 -1.65465)
(-0.375805 -0.472126 -1.68395)
(-1.76953 -1.59073 -1.56877)
(-2.26875 -1.37235 -1.30873)
(-1.96461 -1.0781 -1.37941)
(-1.63497 -0.511804 -1.67013)
(-1.20527 -0.311024 -1.82921)
(-0.663421 -0.158049 -2.2275)
(-0.670596 0.0316997 -2.25207)
(-0.697823 0.194947 -2.1158)
(-0.362313 0.426017 -2.01793)
(-0.102898 0.280902 -2.01436)
(-0.186012 0.14041 -1.99305)
(-0.106291 -0.0797584 -1.85498)
(-0.0861533 -0.31614 -1.79821)
(-0.392813 -0.756029 -1.84714)
(0.376959 -1.26707 -2.70852)
(-0.601456 -1.47738 -2.57842)
(-1.09662 -1.38061 -2.54463)
(-1.13655 -0.759024 -2.29083)
(-1.00289 -0.221686 -2.15548)
(-0.841941 0.0789644 -1.84335)
(-0.670665 0.294076 -1.67766)
(-0.560461 0.445956 -1.66453)
(-0.441906 0.453159 -1.62645)
(-0.283553 0.491087 -1.66364)
(-0.178775 0.460421 -1.9861)
(-0.0584038 0.397964 -2.15949)
(0.122422 -0.177912 -2.08914)
(0.0168478 -0.726683 -1.96955)
(-0.227141 -1.098 -1.84405)
(-0.121457 -1.30744 -2.61546)
(-0.880847 -1.30122 -2.28455)
(-1.0317 -1.2522 -2.41075)
(-1.06557 -1.00653 -2.46319)
(-1.52559 -0.430077 -1.93533)
(-1.16925 0.280689 -1.73828)
(-1.11328 0.506052 -1.58579)
(-0.87364 0.654953 -1.72161)
(-0.460458 0.48065 -1.83735)
(-0.246693 0.609538 -1.68475)
(-0.17292 0.519901 -1.67406)
(-0.109347 0.389396 -2.07391)
(-0.0358509 0.0137241 -2.33085)
(-0.0521045 -0.903665 -1.97938)
(-0.021531 -1.19678 -1.70829)
(0.32089 -1.24657 -1.90299)
(-0.336396 -0.779583 -2.04534)
(-0.549019 -1.00823 -2.08159)
(-0.898591 -1.2929 -2.09906)
(-0.879186 -1.10258 -2.36255)
(-1.47114 -0.874564 -1.81472)
(-1.60732 -0.0467402 -1.517)
(-1.37715 0.389003 -1.25248)
(-0.973601 0.624312 -1.6077)
(-0.71683 0.698052 -1.75432)
(-0.427819 0.723487 -1.58258)
(-0.00519596 0.679203 -1.35192)
(-0.0414373 0.617451 -1.75026)
(0.370289 -0.00995269 -2.14106)
(0.264762 -0.598718 -2.18532)
(0.402695 -1.06218 -1.80667)
(0.607447 -1.32973 -1.80523)
(0.641225 -1.92918 -1.93473)
(-2.08775 -0.129368 2.18617)
(-2.00502 -0.157761 2.45065)
(-1.98421 0.0331793 2.55936)
(-2.14738 -0.474552 2.74997)
(-2.2142 -0.150247 2.74447)
(-2.29162 0.246096 2.71368)
(-2.12942 -0.464057 2.92341)