/*--------------------------------*- C++ -*----------------------------------*\
  =========                 |
  \\      /  F ield         | OpenFOAM: The Open Source CFD Toolbox
   \\    /   O peration     | Website:  https://openfoam.org
    \\  /    A nd           | Version:  7
     \\/     M anipulation  |
\*---------------------------------------------------------------------------*/
FoamFile
{
    version     2.0;
    format      ascii;
    class       volVectorField;
    location    "9";
    object      U_0;
}
// * * * * * * * * * * * * * * * * * * * * * * * * * * * * * * * * * * * * * //

dimensions      [0 1 -1 0 0 0 0];

internalField   nonuniform List<vector> 
18630
(
(-0.431213 -0.370713 -1.86817)
(-0.557422 -1.19507 -1.32695)
(-0.438396 -0.406282 -1.87745)
(-0.691418 -0.524769 -2.08184)
(-1.79085 -0.0840543 -0.350294)
(-0.491693 -1.19753 -1.25671)
(-0.990648 -1.51513 -1.47584)
(-0.446177 -0.436191 -1.88389)
(-0.674524 -0.582877 -2.11953)
(-1.02065 -1.01954 -1.93852)
(-2.97576 -0.633001 0.665372)
(-1.70892 -0.258754 -8.59653e-05)
(-2.25835 0.105133 -0.557672)
(-0.450114 -1.1587 -1.2771)
(-0.990132 -1.43074 -1.49744)
(-1.3192 -0.937217 -1.85555)
(-0.456187 -0.461498 -1.88617)
(-0.687321 -0.683258 -2.11892)
(-0.838135 -1.25642 -1.89261)
(-0.932358 -1.07108 -2.27462)
(-3.16119 -0.0967676 1.37232)
(-2.93828 -0.810571 0.531012)
(-3.03428 -0.743778 0.194908)
(-1.57401 -0.500322 -0.186855)
(-2.17266 -0.319725 -0.50127)
(-1.86982 -0.385375 -1.31172)
(-0.433893 -1.14412 -1.29609)
(-0.957229 -1.39726 -1.53767)
(-1.24012 -1.05874 -1.90945)
(-1.5167 -0.991268 -1.86744)
(-0.46798 -0.46908 -1.89466)
(-0.679831 -0.690457 -2.12463)
(-0.963712 -1.16844 -1.91904)
(-0.909988 -1.0628 -2.3049)
(-1.61226 -1.00205 -1.74384)
(-3.58411 0.104018 2.00084)
(-3.11626 -0.0707029 1.09958)
(-2.98216 0.0756558 1.14738)
(-2.91567 -0.84276 0.581655)
(-3.01404 -0.809448 0.41927)
(-2.45812 -0.795507 -0.200858)
(-1.5576 -0.55021 -0.242216)
(-2.14243 -0.469461 -0.528042)
(-1.85477 -0.520715 -1.34991)
(-1.84811 -0.742939 -1.06293)
(-0.390479 -1.14286 -1.35691)
(-0.936324 -1.42277 -1.53888)
(-1.20568 -1.09456 -1.94477)
(-1.40771 -1.1131 -1.91323)
(-1.44678 -1.11749 -1.74953)
(-0.472353 -0.478084 -1.91254)
(-0.675299 -0.769538 -2.10006)
(-0.854129 -1.32107 -1.89112)
(-0.89977 -1.12211 -2.30372)
(-1.61501 -0.988841 -1.74799)
(-1.61743 -0.231622 -1.53897)
(-3.45454 0.0184553 2.28991)
(-3.41341 -0.0230031 2.01974)
(-3.35826 0.322987 2.00436)
(-3.02775 -0.115238 0.919277)
(-2.97142 -0.115388 0.920241)
(-2.42589 0.0475011 -0.252952)
(-2.84665 -0.981454 0.522921)
(-2.96823 -0.998312 0.27601)
(-2.44027 -0.803323 -0.352826)
(-1.87551 -0.161561 -0.417215)
(-1.3891 -0.730048 -0.523518)
(-2.09159 -0.673432 -0.559256)
(-1.78719 -0.69226 -1.40717)
(-1.81568 -0.788307 -1.15648)
(-1.28725 -0.67239 -1.55271)
(-0.362453 -1.13607 -1.44698)
(-0.895645 -1.46667 -1.50516)
(-1.13351 -1.17038 -1.96133)
(-1.47728 -0.962586 -1.97344)
(-1.50356 -1.04932 -1.61623)
(-1.24766 0.802415 -2.05003)
(-0.475936 -0.525977 -1.91742)
(-0.673522 -0.794544 -2.09157)
(-0.950739 -1.17369 -1.95698)
(-0.90395 -1.0939 -2.33717)
(-1.59919 -0.994226 -1.74886)
(-1.56029 -0.230179 -1.52819)
(-1.35499 0.338904 -1.25692)
(-3.45685 0.332745 2.23634)
(-3.58021 0.102835 2.07115)
(-3.33501 0.773751 1.81162)
(-3.41688 -0.333416 1.77286)
(-3.34262 0.29906 1.91933)
(-3.04606 0.658221 0.945228)
(-2.89948 -0.442848 0.832467)
(-2.92488 -0.22774 0.664184)
(-2.38292 -0.0632779 -0.360058)
(-1.77537 0.329791 -0.625686)
(-2.77812 -1.08267 0.284436)
(-2.92457 -1.09706 0.0966874)
(-2.483 -0.820282 -0.363503)
(-1.84999 -0.0272475 -0.814166)
(-1.6615 0.300323 -1.17413)
(-1.28272 -0.821176 -0.66272)
(-2.06022 -0.727811 -0.495555)
(-1.74665 -0.788813 -1.46488)
(-1.65456 -0.91544 -1.35732)
(-1.23371 -0.678032 -1.59157)
(-0.713397 0.0914831 -1.82116)
(-0.3552 -1.11931 -1.56282)
(-0.862166 -1.46844 -1.48766)
(-1.11868 -1.16083 -1.99051)
(-1.28158 -1.21105 -2.02025)
(-1.50589 -0.843312 -1.70346)
(-1.22913 0.63224 -2.02317)
(-1.1441 0.813331 -1.42077)
(-0.474332 -0.563961 -1.90573)
(-0.659803 -0.831841 -2.07984)
(-0.924531 -1.2128 -1.97023)
(-0.900539 -1.09741 -2.35293)
(-1.61349 -0.972223 -1.76238)
(-1.57511 -0.235953 -1.52732)
(-1.3474 0.339727 -1.26588)
(-0.848781 0.457587 -1.35666)
(-3.44488 0.349034 2.26577)
(-3.51593 0.0799412 2.22742)
(-3.39608 0.778438 1.51893)
(-3.5584 0.0216013 2.11778)
(-3.22914 0.505241 1.98681)
(-2.97067 0.747738 1.69936)
(-3.40577 -0.300072 1.61465)
(-3.42451 0.228094 1.43823)
(-2.98705 0.361882 0.365748)
(-2.48833 -0.0115429 0.886267)
(-2.80178 -0.540232 0.69703)
(-2.81905 -0.303423 0.660953)
(-2.36597 -0.148826 -0.384465)
(-1.85492 0.185276 -0.601482)
(-1.35183 0.514031 -1.43598)
(-2.7632 -0.912568 -0.0699226)
(-2.91958 -1.11501 0.0903648)
(-2.4511 -0.932433 -0.54938)
(-1.88698 0.0327705 -1.14173)
(-1.67909 0.316044 -1.36696)
(-1.05287 0.639375 -1.75754)
(-1.11364 -0.905714 -0.845714)
(-1.95821 -0.860247 -0.533895)
(-1.7289 -0.843733 -1.54655)
(-1.62433 -0.863081 -1.51535)
(-1.1633 -0.624889 -1.66574)
(-0.715962 0.080793 -1.80984)
(-0.390803 0.52099 -1.80361)
(-0.338441 -1.07409 -1.74197)
(-0.832453 -1.46812 -1.49866)
(-1.10522 -1.12903 -2.04523)
(-1.42657 -0.992764 -2.08092)
(-1.54781 -0.856224 -1.66831)
(-1.15695 0.419347 -2.09194)
(-1.13017 0.757962 -1.50606)
(-0.687131 0.836015 -1.54479)
(-0.461538 -0.584792 -1.90213)
(-0.675815 -0.844627 -2.07892)
(-0.911602 -1.23605 -1.98378)
(-0.910042 -1.09352 -2.36245)
(-1.57231 -0.981028 -1.81003)
(-1.58003 -0.197609 -1.54959)
(-1.35409 0.339891 -1.25384)
(-0.850131 0.473706 -1.3611)
(-0.704637 0.770577 -1.54013)
(-3.29807 0.466212 2.38619)
(-3.44677 0.195156 2.31745)
(-3.26163 0.806867 1.96939)
(-3.56275 0.04628 2.12738)
(-3.26755 0.523558 1.77107)
(-2.83645 0.754272 2.18818)
(-3.6173 0.0652754 1.86045)
(-3.27195 0.503995 1.86792)
(-2.99832 0.567613 1.68243)
(-2.73856 1.01755 1.22002)
(-3.39651 -0.0388564 1.00684)
(-3.36815 -0.023256 1.15676)
(-2.82831 0.177691 0.427831)
(-2.37159 -0.0597262 1.01716)
(-1.92065 0.6658 -0.0300619)
(-2.66519 -0.557359 0.472092)
(-2.71434 -0.64462 0.29429)
(-2.35403 -0.180734 -0.455666)
(-1.94201 0.099214 -0.664121)
(-1.38848 0.514744 -1.36192)
(-0.882074 0.709324 -1.7717)
(-2.57876 -1.1173 -0.350118)
(-2.91311 -1.16674 0.0674848)
(-2.47217 -0.964035 -0.538045)
(-1.73869 -0.244658 -1.55053)
(-1.51563 0.133721 -1.67602)
(-1.02258 0.496468 -1.81953)
(-0.539998 0.33883 -2.16813)
(-1.04124 -0.879062 -1.10117)
(-1.86318 -1.0077 -0.612673)
(-1.68795 -0.970485 -1.62471)
(-1.62793 -0.729593 -1.68909)
(-1.11585 -0.603657 -1.73071)
(-0.720048 0.0502357 -1.80541)
(-0.444544 0.489533 -1.78432)
(-0.372866 0.496701 -1.69947)
(-0.302265 -1.07317 -1.94008)
(-0.809781 -1.49077 -1.52812)
(-1.10708 -1.13813 -2.09163)
(-1.32848 -0.951707 -2.18077)
(-1.48719 -0.87709 -1.70877)
(-1.11217 0.338659 -2.13249)
(-1.11505 0.711311 -1.53235)
(-0.66536 0.745097 -1.59348)
(-0.437805 0.591738 -1.71694)
(-0.449878 -0.606718 -1.90458)
(-0.660908 -0.875541 -2.0674)
(-0.825385 -1.34918 -1.96694)
(-0.828388 -1.17961 -2.36028)
(-1.63195 -0.908705 -1.77392)
(-1.57307 -0.158177 -1.55815)
(-1.34173 0.362041 -1.25445)
(-0.858736 0.491308 -1.37375)
(-0.719473 0.783761 -1.58707)
(-0.478898 0.918057 -1.61592)
(-2.93114 0.447966 2.44241)
(-3.28633 0.250553 2.33921)
(-3.21933 0.46396 2.35447)
(-3.46066 0.279099 2.2405)
(-3.29762 0.682449 2.06836)
(-3.19626 0.585509 2.35147)
(-3.58556 0.303489 1.87487)
(-3.18776 0.362713 1.95431)
(-2.9475 0.668396 2.20342)
(-2.8301 1.35475 1.29412)
(-3.58644 0.277333 1.48908)
(-3.2786 0.338233 1.8002)
(-3.14481 0.177212 1.63794)
(-2.68537 1.07069 0.455221)
(-2.20419 1.05583 0.572522)
(-3.34581 -0.098931 0.394233)
(-3.21156 -0.27071 1.0727)
(-2.76525 -0.0831812 0.448204)
(-2.35498 0.346865 0.641947)
(-1.95212 0.606367 -0.406491)
(-1.19582 0.739495 -0.408379)
(-2.36353 -0.878879 -0.000990455)
(-2.63987 -0.799597 -0.0339436)
(-2.39333 -0.244943 -0.411093)
(-1.91607 0.0776475 -0.87741)
(-1.47257 0.38998 -1.14455)
(-0.894653 0.566374 -1.83783)
(-0.832462 -0.00901923 -1.94806)
(-2.37841 -1.38522 -0.590699)
(-2.72724 -1.38899 -0.374042)
(-2.47182 -0.999541 -0.476715)
(-1.83425 -0.232517 -1.46753)
(-1.44432 0.131912 -1.82232)
(-0.978188 0.392974 -1.88799)
(-0.612316 0.306057 -2.16403)
(-0.497421 0.241393 -2.13881)
(-0.985366 -0.83118 -1.48631)
(-1.81629 -1.03317 -0.717576)
(-1.67785 -1.05115 -1.69115)
(-1.56605 -0.707589 -1.86358)
(-1.08885 -0.507048 -1.83468)
(-0.751315 0.0409841 -1.79212)
(-0.478324 0.478429 -1.77755)
(-0.393979 0.436674 -1.70273)
(-0.34553 0.652021 -1.67205)
(-0.277184 -1.12511 -2.08355)
(-0.828283 -1.44811 -1.60851)
(-0.980467 -1.27201 -2.15755)
(-1.27413 -0.981595 -2.24563)
(-1.56512 -0.779352 -1.70657)
(-1.13913 0.311179 -2.12717)
(-1.08796 0.635269 -1.52435)
(-0.679315 0.692422 -1.63369)
(-0.472444 0.671616 -1.69353)
(-0.202959 0.654988 -1.60982)
(-0.439019 -0.639607 -1.90986)
(-0.625321 -0.913366 -2.04509)
(-0.810675 -1.36428 -1.99179)
(-0.85599 -1.14565 -2.38272)
(-1.59839 -0.898016 -1.80505)
(-1.59278 -0.116279 -1.55476)
(-1.33169 0.377212 -1.2584)
(-0.868373 0.516371 -1.39185)
(-0.729865 0.800358 -1.63996)
(-0.472573 0.880896 -1.63667)
(0.0396293 0.65039 -1.42386)
(-2.90008 0.995042 2.29317)
(-2.84165 0.469732 2.39937)
(-2.97948 0.266846 2.61436)
(-3.27493 0.136613 2.24386)
(-3.26542 0.193839 2.34944)
(-3.1741 0.654654 2.71582)
(-3.51787 0.110165 2.063)
(-3.26216 0.300033 2.25556)
(-3.18377 0.45518 2.49864)
(-3.05149 1.23445 1.88624)
(-3.60053 0.0587285 1.65817)
(-3.11565 -0.0548103 2.24454)
(-3.05807 0.711071 2.09608)
(-2.96099 1.09669 0.951611)
(-2.5057 1.22936 0.959791)
(-3.47758 -0.101027 1.37071)
(-3.13886 -0.0460675 1.90096)
(-3.12443 0.0748078 1.76052)
(-2.63734 0.899899 0.395153)
(-2.14701 0.944933 0.692557)
(-1.34161 0.922489 0.0892697)
(-3.00325 -0.72236 0.741888)
(-2.96375 -0.575595 0.814994)
(-2.75242 -0.269752 0.300012)
(-2.35031 0.200209 -0.140565)
(-1.97325 0.45391 -0.710794)
(-1.18115 0.521684 -0.428635)
(-1.07811 -0.0729458 -0.723204)
(-2.23225 -1.07745 -0.252474)
(-2.51862 -1.05094 -0.205795)
(-2.38913 -0.316318 -0.487032)
(-1.91761 0.016891 -0.920256)
(-1.48463 0.336106 -1.20235)
(-0.907394 0.414378 -1.89925)
(-0.888228 -0.161808 -2.00799)
(-0.829203 -0.492732 -2.0487)
(-2.37067 -1.434 -0.597049)
(-2.64176 -1.45984 -0.647102)
(-2.45697 -1.01439 -0.607919)
(-1.65384 -0.394847 -1.65149)
(-1.30417 0.0221146 -1.96449)
(-0.942556 0.317684 -1.97983)
(-0.677578 0.19307 -2.17417)
(-0.548773 0.211055 -2.148)
(-0.0854371 0.370408 -2.03777)
(-0.951721 -0.777624 -1.9618)
(-1.80538 -1.01657 -0.912182)
(-1.59298 -1.15219 -1.82127)
(-1.33733 -1.06388 -1.93417)
(-1.19697 -0.204139 -1.92248)
(-0.732857 0.0767208 -1.78657)
(-0.49698 0.456067 -1.77285)
(-0.424292 0.399102 -1.69108)
(-0.378882 0.63932 -1.6587)
(-0.0880941 0.651252 -1.85218)
(-0.242938 -1.11038 -2.22454)
(-0.767801 -1.386 -1.76199)
(-1.03075 -1.23292 -2.22765)
(-1.17026 -1.21026 -2.24443)
(-1.57882 -0.635401 -1.7577)
(-1.1984 0.413433 -2.08682)
(-1.08087 0.601948 -1.4592)
(-0.682182 0.649132 -1.68399)
(-0.483932 0.691227 -1.7112)
(-0.200043 0.606396 -1.61329)
(-0.0471933 0.515605 -1.63437)
(-0.413925 -0.675817 -1.92032)
(-0.603203 -0.971703 -2.01559)
(-0.861193 -1.31314 -2.03236)
(-0.83294 -1.16191 -2.379)
(-1.58806 -0.926961 -1.79532)
(-1.57993 -0.147107 -1.54258)
(-1.35709 0.359819 -1.25434)
(-0.887905 0.544316 -1.41069)
(-0.741662 0.819713 -1.69347)
(-0.460023 0.818603 -1.64)
(0.0316832 0.656931 -1.41311)
(0.0704512 0.48401 -1.84501)
(-2.47762 0.442302 2.64604)
(-2.59816 0.717995 2.68569)
(-2.48262 0.144577 2.77103)
(-2.77564 0.596379 2.56412)
(-2.91895 0.371252 2.47379)
(-3.0375 0.399447 2.43715)
(-3.10375 1.02258 2.44334)
(-3.28875 0.0417185 2.20554)
(-3.19879 0.246237 2.34075)
(-3.17836 0.93691 2.503)
(-3.49938 1.78126 1.49618)
(-3.5126 -0.208142 1.96697)
(-3.16794 0.401846 2.37725)
(-3.07742 0.629512 2.46424)
(-3.01095 0.969464 2.01779)
(-2.58307 1.19935 1.70417)
(-3.47687 -0.381484 1.74886)
(-3.01052 -0.00866567 2.46904)
(-3.15264 0.891473 1.70715)
(-3.0644 0.952238 0.908983)
(-2.44275 1.0392 1.09655)
(-1.71582 1.30453 0.750189)
(-3.39134 -0.520741 1.33324)
(-3.24675 0.0238964 1.3561)
(-3.10924 0.173106 1.00439)
(-2.48275 0.27178 0.792502)
(-2.04344 0.814086 0.752743)
(-1.34029 0.752851 0.0215757)
(-1.10522 -0.0200939 -0.170069)
(-2.67471 -1.08799 1.0278)
(-2.68414 -0.834013 0.318441)
(-2.69111 -0.46543 -0.164987)
(-2.36733 0.279418 -0.341698)
(-1.95029 0.491853 -0.368761)
(-1.0985 0.540347 -0.39261)
(-1.12859 -0.0916713 -0.687952)
(-1.0186 -0.604531 -1.38657)
(-2.15834 -1.24187 -0.375487)
(-2.42156 -1.18464 -0.412944)
(-2.38092 -0.344063 -0.620879)
(-1.97183 -0.000450054 -0.891593)
(-1.35729 0.17095 -1.55758)
(-0.970024 0.302689 -1.85641)
(-0.997782 -0.264401 -2.00983)
(-0.912245 -0.394967 -2.07958)
(-0.335182 0.44443 -2.12424)
(-2.30514 -1.52841 -0.722603)
(-2.62479 -1.49337 -0.657963)
(-2.45351 -0.979618 -0.84215)
(-1.69944 -0.544826 -1.67592)
(-1.31408 -0.0617278 -1.97997)
(-0.894426 0.207711 -2.06644)
(-0.707036 0.161581 -2.17777)
(-0.613807 0.195722 -2.14992)
(-0.108598 0.343291 -2.07303)
(0.0594423 0.465807 -1.97403)
(-0.867332 -0.848091 -2.37866)
(-1.73041 -1.04691 -1.25194)
(-1.53133 -1.22179 -1.98646)
(-1.20977 -1.16617 -1.9985)
(-1.27095 0.0117113 -2.08665)
(-0.74005 0.0823003 -1.77801)
(-0.541559 0.375228 -1.74614)
(-0.453735 0.43256 -1.6745)
(-0.42031 0.632989 -1.63698)
(-0.128937 0.629438 -1.83229)
(0.0257949 0.425351 -2.12378)
(-0.172693 -1.11084 -2.37673)
(-0.767563 -1.39236 -1.88637)
(-1.02129 -1.19741 -2.31299)
(-1.16747 -1.06138 -2.3426)
(-1.55705 -0.610324 -1.80402)
(-1.26353 0.500975 -2.04258)
(-1.08064 0.587846 -1.42587)
(-0.698009 0.626706 -1.71756)
(-0.493417 0.66948 -1.74866)
(-0.19762 0.569664 -1.62136)
(-0.0683081 0.494056 -1.61449)
(1.11543e-05 0.38174 -2.10245)
(-0.378491 -0.715013 -1.93768)
(-0.571385 -0.99071 -2.01965)
(-0.962756 -1.23022 -2.05853)
(-0.802922 -1.16273 -2.37423)
(-1.52831 -0.94426 -1.8127)
(-1.53626 -0.139777 -1.51704)
(-1.34658 0.389827 -1.26889)
(-0.905911 0.571652 -1.43733)
(-0.756987 0.824488 -1.74731)
(-0.441978 0.759763 -1.62546)
(0.0218283 0.665784 -1.4016)
(0.0571615 0.498448 -1.82886)
(0.382606 -0.0564278 -2.12544)
(-2.61499 -0.0880039 2.59658)
(-2.69758 0.753167 2.50885)
(-2.52993 0.200418 2.69673)
(-2.61423 0.16732 2.81885)
(-2.97129 0.470396 2.45715)
(-2.66316 0.069169 2.80444)
(-2.55227 0.25688 2.75213)
(-2.87494 0.969702 2.39321)
(-3.14054 0.165302 2.38832)
(-3.11483 0.435721 2.38778)
(-3.10313 0.977464 2.39388)
(-3.20136 1.33888 2.55338)
(-3.33473 -0.00775284 2.11914)
(-3.21239 0.267686 2.3055)
(-3.27325 0.976979 2.16419)
(-3.43385 1.49835 1.75398)
(-2.81732 0.954769 2.35711)
(-3.4182 -0.217989 2.01409)
(-3.09063 0.21076 2.49901)
(-3.22353 0.714757 1.93387)
(-3.06311 0.948891 1.86745)
(-2.49709 0.897221 1.83055)
(-1.84889 1.00646 1.78509)
(-3.37536 -0.41398 1.77178)
(-2.99199 -0.0145053 2.43257)
(-3.15685 0.467121 1.48556)
(-3.02248 0.521393 1.15541)
(-2.27681 0.895922 1.11449)
(-1.62939 0.826775 1.25895)
(-1.22859 0.0903679 0.686097)
(-3.10871 -0.723042 1.42871)
(-3.18725 -0.506277 1.16057)
(-3.07504 0.314621 -0.377388)
(-2.36222 0.0240073 0.713253)
(-1.93172 0.756907 0.584796)
(-1.33874 0.658816 0.113715)
(-1.27922 -0.0649931 -0.317524)
(-1.33357 -0.499918 -1.48711)
(-2.40423 -1.21043 0.787547)
(-2.63116 -0.917336 0.257643)
(-2.70761 -0.364658 -0.341339)
(-2.23913 -0.243287 -0.577187)
(-1.80904 0.256416 -0.317272)
(-1.08358 0.47403 -0.465558)
(-1.15042 -0.482365 -0.654128)
(-1.04585 -0.566013 -1.36369)
(-0.534527 -0.359217 -1.40603)
(-2.02322 -1.40119 -0.542888)
(-2.49695 -1.13148 -0.269715)
(-2.41662 -0.325895 -0.756371)
(-1.90309 -0.205677 -1.1392)
(-1.40041 -0.00299444 -1.68338)
(-1.02279 0.246562 -1.77388)
(-1.01046 -0.228365 -2.15433)
(-1.07961 -0.336551 -2.1034)
(-0.302561 0.264016 -2.13204)
(-0.22657 -0.0188046 -1.72504)
(-2.09068 -1.71531 -1.04248)
(-2.58089 -1.46701 -0.555389)
(-2.43477 -0.874094 -0.895751)
(-1.65909 -0.558392 -1.72711)
(-1.28411 0.0053455 -2.07481)
(-0.814184 0.118398 -2.13163)
(-0.766223 0.20229 -2.17572)
(-0.638737 0.279133 -2.15262)
(-0.149649 0.357338 -2.08839)
(0.0239412 0.488313 -1.99824)
(-0.0232714 0.0878054 -1.90218)
(-0.420387 -1.13865 -2.71712)
(-1.48126 -1.11392 -1.7565)
(-1.42042 -1.26032 -2.21225)
(-1.18965 -1.05326 -2.07744)
(-1.33728 0.126002 -2.15861)
(-0.80915 0.120338 -1.76044)
(-0.541321 0.329768 -1.72357)
(-0.482481 0.457537 -1.67799)
(-0.459793 0.600713 -1.61753)
(-0.155555 0.585174 -1.81097)
(-0.021657 0.440511 -2.11566)
(0.105936 0.221475 -2.09464)
(-0.170693 -1.19565 -2.50394)
(-0.731018 -1.37219 -2.03148)
(-1.00697 -1.22277 -2.38108)
(-1.18673 -1.04512 -2.37472)
(-1.49657 -0.583161 -1.87395)
(-1.28732 0.523079 -1.97927)
(-1.09549 0.589973 -1.43884)
(-0.764999 0.662939 -1.70536)
(-0.480997 0.616679 -1.79337)
(-0.207779 0.572068 -1.6282)
(-0.0880246 0.484974 -1.60254)
(-0.0335866 0.395652 -2.08738)
(0.00623482 -0.0575092 -2.24756)
(-0.360943 -0.741468 -1.96444)
(-0.653557 -0.951118 -2.02134)
(-0.986375 -1.21242 -2.08054)
(-0.901999 -1.10415 -2.35288)
(-1.50696 -0.958149 -1.83041)
(-1.52672 -0.140992 -1.49799)
(-1.36398 0.374272 -1.25658)
(-0.93193 0.589539 -1.46706)
(-0.757261 0.803991 -1.79305)
(-0.421297 0.718142 -1.60625)
(0.0164085 0.668331 -1.39031)
(0.0404339 0.520363 -1.81356)
(0.38102 -0.0476383 -2.13079)
(0.28878 -0.650759 -2.14113)
(-1.92092 -0.0510454 2.96518)
(-2.36076 0.339772 2.63113)
(-2.52282 -0.0442992 2.67177)
(-2.38145 0.180684 2.93427)
(-2.64158 0.0975647 2.6981)
(-2.28941 0.672839 3.04522)
(-2.55769 0.663232 2.76436)
(-2.65094 0.103609 2.77132)
(-2.69595 0.178118 2.79806)
(-2.82529 0.86344 2.56543)
(-2.95054 0.207164 2.51089)
(-2.78885 0.0625255 2.7387)
(-2.79771 0.851139 2.55547)
(-3.01464 1.2193 2.68598)
(-3.01448 0.0826345 2.43054)
(-3.21499 0.251334 2.35032)
(-3.13434 0.852341 2.40821)
(-3.23071 1.32746 2.45246)
(-3.11424 0.688325 2.87033)
(-3.23238 0.0802656 2.16851)
(-3.19448 0.136085 2.32254)
(-3.20755 0.958621 2.10435)
(-3.25195 1.35513 1.88597)
(-2.73304 0.87966 2.39398)
(-2.06466 1.02212 2.28232)
(-3.31711 -0.278411 2.04909)
(-3.17454 0.0659526 2.36974)
(-3.39761 0.843532 1.4437)
(-3.1394 0.827583 1.67791)
(-2.55098 1.09245 1.51376)
(-1.97169 0.998245 1.64704)
(-1.58267 0.843567 1.32229)
(-3.32316 -0.457647 1.65095)
(-3.09613 -0.266706 2.17823)
(-3.19741 0.578552 0.967178)
(-2.85405 0.602737 1.02178)
(-2.11194 0.698618 1.08073)
(-1.60634 0.784143 1.19907)
(-1.34723 0.0524622 0.714132)
(-1.2847 -0.633505 -1.09135)
(-2.84946 -0.889134 1.1715)
(-3.18177 -0.576138 0.824436)
(-2.98475 0.0102301 -0.392644)
(-2.16468 -0.228633 0.388548)
(-1.93688 0.373743 0.394256)
(-1.38924 0.44094 -0.108931)
(-1.44007 -0.132949 -0.401613)
(-1.39574 -0.414867 -1.40036)
(-0.801055 -0.309407 -1.56143)
(-2.19196 -1.23798 0.207565)
(-2.69992 -1.06875 0.205805)
(-2.63457 -0.342636 -0.83611)
(-2.19779 -0.0874212 -0.09302)
(-1.70637 0.412561 -0.0301651)
(-1.06546 0.369061 -0.714317)
(-1.22504 -0.183779 -0.921169)
(-1.12238 -0.529175 -1.34086)
(-0.622755 -0.339734 -1.42355)
(-0.452691 -0.353273 -1.34677)
(-2.08318 -1.31315 -0.736196)
(-2.56668 -1.07487 -0.547965)
(-2.33935 -0.383896 -1.07081)
(-1.90813 -0.303706 -1.05842)
(-1.42151 0.0335111 -1.64481)
(-0.963298 0.115744 -1.86516)
(-1.18824 -0.270255 -2.13191)
(-1.11402 -0.191825 -2.17307)
(-0.302709 0.0744259 -2.13489)
(-0.249344 -0.0310431 -1.71448)
(-0.0921714 -0.153732 -1.5983)
(-2.14089 -1.63435 -1.2542)
(-2.2655 -1.58851 -0.99583)
(-2.48953 -0.773507 -0.717392)
(-1.62036 -0.527491 -1.68574)
(-1.25485 -0.124019 -2.05617)
(-0.804501 0.0237731 -2.1614)
(-0.775451 0.168733 -2.19379)
(-0.665276 0.184604 -2.17492)
(-0.213632 0.368783 -2.08595)
(-0.0178819 0.430761 -2.02455)
(-0.0767692 0.0920103 -1.91887)
(-0.00403306 -0.183862 -1.80905)
(-0.0930858 -1.2784 -2.87629)
(-1.26552 -1.33826 -2.11147)
(-1.27367 -1.3499 -2.36028)
(-1.17817 -0.966509 -2.15361)
(-1.29225 0.0714758 -2.15164)
(-0.748165 0.0417417 -1.82028)
(-0.578498 0.305402 -1.69395)
(-0.528386 0.484941 -1.67001)
(-0.4871 0.572704 -1.59777)
(-0.187937 0.543866 -1.77096)
(-0.0755876 0.447105 -2.09447)
(0.06031 0.270053 -2.11706)
(0.161708 -0.262838 -1.99635)
(-0.133365 -1.19527 -2.62848)
(-0.728926 -1.34783 -2.15606)
(-1.06458 -1.22271 -2.4076)
(-1.12803 -1.07162 -2.42078)
(-1.45074 -0.570032 -1.93727)
(-1.24414 0.406369 -1.88821)
(-1.11723 0.585068 -1.48246)
(-0.803374 0.678961 -1.70755)
(-0.427908 0.512718 -1.84979)
(-0.222815 0.591397 -1.64366)
(-0.112399 0.485618 -1.61017)
(-0.0599924 0.392533 -2.07765)
(-0.00380177 -0.046317 -2.28089)
(-0.0537395 -1.03904 -1.88947)
(-0.363572 -0.746985 -1.99599)
(-0.603772 -0.977704 -2.03764)
(-0.942636 -1.26387 -2.09943)
(-0.897508 -1.08271 -2.35566)
(-1.48894 -0.954329 -1.83968)
(-1.54651 -0.125012 -1.4909)
(-1.36027 0.392366 -1.2463)
(-0.936223 0.608319 -1.51862)
(-0.750601 0.778953 -1.7925)
(-0.413635 0.711814 -1.5984)
(0.00778632 0.675514 -1.37539)
(0.0180056 0.551009 -1.7955)
(0.378807 -0.0380702 -2.1354)
(0.280853 -0.629546 -2.15861)
(0.41483 -1.10484 -1.78301)
(-2.08398 -0.138085 2.78099)
(-2.03351 0.0754486 2.97088)
(-2.23953 0.0555858 2.99181)
(-2.19539 0.136309 2.76473)
(-2.41039 -0.374503 2.79837)
(-2.58739 -0.231101 2.70893)
(-2.44179 0.224453 2.96693)
(-2.51485 0.643088 2.85034)
(-2.59586 -0.311094 2.67787)
(-2.67929 -0.019421 2.91166)
(-2.75642 0.770023 2.75493)
(-2.87103 1.11643 2.7073)
(-2.66329 0.0803048 2.75031)
(-2.67101 0.105982 2.90872)
(-2.78846 0.610226 2.74599)
(-2.88012 0.922307 2.81673)
(-2.97284 0.257858 2.51381)
(-3.12029 0.305086 2.43458)
(-3.01701 0.734049 2.60294)
(-2.98694 1.08682 2.76847)
(-2.9722 1.5185 2.78401)
(-2.94468 -0.0106661 2.50805)
(-2.97953 0.103651 2.52419)
(-3.12467 0.68204 2.46732)
(-3.12107 0.879162 2.58919)
(-2.96808 0.592854 2.91891)
(-2.27809 1.47351 2.46011)
(-3.18674 -0.358261 2.11131)
(-3.16269 0.0424759 2.27901)
(-3.08117 0.496015 2.34648)
(-3.01485 0.68441 2.32956)
(-2.62511 0.516074 2.57285)
(-2.09794 1.07744 2.26188)
(-1.74835 1.07463 2.01242)
(-3.21248 -0.612635 2.00629)
(-3.04018 -0.320437 2.43358)
(-3.4558 0.649864 1.35441)
(-2.90642 0.324061 1.93666)
(-2.51018 0.730093 1.73838)
(-1.99226 0.95116 1.68362)
(-1.73001 0.302133 1.10677)
(-1.6378 -0.440778 -0.366348)
(-3.0817 -0.780323 1.78089)
(-3.20904 -0.239959 1.85924)
(-3.25945 0.0137939 0.703405)
(-2.66303 0.181742 1.00897)
(-1.98015 0.654497 1.20115)
(-1.63128 0.681552 1.02197)
(-1.55776 -0.106125 0.519151)
(-1.65278 -0.591749 -0.722457)
(-1.18345 -0.780415 -1.46878)
(-2.64543 -1.09389 0.983436)
(-3.09047 -0.808094 0.739237)
(-2.85895 0.078182 -0.22371)
(-1.95024 -0.177553 0.3414)
(-1.88143 0.362532 0.142418)
(-1.40689 0.360901 -0.226466)
(-1.53647 -0.193536 -0.546546)
(-1.4669 -0.371356 -1.33439)
(-0.83024 -0.370982 -1.33559)
(-0.221831 -0.460446 -1.01438)
(-2.17773 -1.27582 -0.0146705)
(-2.71922 -1.19652 -0.333038)
(-2.64175 -0.380946 -1.07172)
(-2.02991 -0.321748 -0.428921)
(-1.71206 0.0581418 -0.332194)
(-0.923166 0.0084104 -1.24911)
(-1.32556 -0.411206 -0.924001)
(-1.18808 -0.538573 -1.37022)
(-0.695717 -0.354061 -1.44373)
(-0.52131 -0.316657 -1.47571)
(-0.542733 0.0394778 -1.49784)
(-1.87005 -1.6769 -0.888154)
(-2.43476 -1.23546 -1.15049)
(-2.34919 -0.495391 -1.19097)
(-1.74926 -0.426597 -1.22195)
(-1.42392 -0.0649763 -1.54603)
(-0.968747 -0.0202568 -1.98782)
(-1.21676 -0.293599 -2.09782)
(-1.21002 -0.332698 -2.14146)
(-0.333185 -0.0395807 -2.11404)
(-0.270188 -0.0617941 -1.69283)
(-0.0593168 -0.152797 -1.56514)
(-0.140076 -0.365683 -1.63364)
(-2.17225 -1.52805 -1.30369)
(-2.22575 -1.55447 -1.18939)
(-2.12261 -0.975584 -1.16491)
(-1.7318 -0.462348 -1.54893)
(-1.22177 -0.260255 -1.91747)
(-0.735657 -0.0543305 -2.21886)
(-0.786547 0.115298 -2.2023)
(-0.688052 0.153422 -2.15719)
(-0.289315 0.419395 -2.06223)
(-0.039192 0.353482 -2.0359)
(-0.11602 0.11781 -1.95404)
(-0.0489946 -0.141853 -1.82372)
(-0.0687708 -0.349661 -1.78566)
(-0.053551 -1.23157 -2.82071)
(-0.798593 -1.46884 -2.42007)
(-1.0492 -1.42601 -2.49203)
(-1.2009 -0.825218 -2.2258)
(-1.15242 -0.110892 -2.14749)
(-0.818781 0.0564267 -1.82643)
(-0.622391 0.307643 -1.67853)
(-0.554717 0.473309 -1.66605)
(-0.45319 0.507102 -1.61174)
(-0.224363 0.51389 -1.71516)
(-0.131888 0.461373 -2.04802)
(-0.00292902 0.35138 -2.1385)
(0.144902 -0.241664 -2.0349)
(0.0393757 -0.830793 -1.92078)
(-0.103415 -1.29546 -2.6188)
(-0.834861 -1.34913 -2.21422)
(-1.05362 -1.20676 -2.42432)
(-1.1223 -1.0428 -2.42241)
(-1.45345 -0.509809 -1.96266)
(-1.17188 0.302925 -1.80954)
(-1.12291 0.551866 -1.53957)
(-0.838612 0.673183 -1.715)
(-0.431313 0.4757 -1.85638)
(-0.238441 0.609483 -1.66417)
(-0.138298 0.500897 -1.63868)
(-0.0864283 0.388634 -2.07295)
(-0.0186445 -0.0178872 -2.31035)
(-0.0549751 -0.9622 -1.93954)
(-0.0332328 -1.25332 -1.66692)
(-0.361441 -0.774677 -2.01565)
(-0.551373 -1.007 -2.05736)
(-0.921332 -1.27791 -2.1021)
(-0.885478 -1.09001 -2.35956)
(-1.53318 -0.897046 -1.77)
(-1.57417 -0.0795005 -1.49362)
(-1.35928 0.404444 -1.24325)
(-0.959041 0.616427 -1.56385)
(-0.736669 0.737931 -1.76866)
(-0.421369 0.719911 -1.59062)
(0.00220076 0.679478 -1.36199)
(-0.0100015 0.587034 -1.77316)
(0.37889 -0.0343811 -2.13867)
(0.273697 -0.610591 -2.17435)
(0.41412 -1.08271 -1.79608)
(0.596197 -1.33144 -1.81537)
(-1.99924 -0.10029 2.5515)
(-2.17432 -0.243399 2.73812)
(-2.24211 0.0209225 2.72416)
(-2.07282 -0.418535 2.94624)
(-2.22792 -0.0747389 3.01494)
(-2.25434 0.1904 2.96727)
(-2.05363 -0.36418 3.05916)
(-2.37355 -0.157915 2.91328)
(-2.11524 0.512931 3.06245)
(-2.55276 -0.178362 2.81038)
(-2.70786 -0.405503 2.92559)
(-2.62865 0.561804 2.96046)
(-2.69587 0.731407 2.95489)
(-2.59673 -0.174343 2.71507)
(-2.60555 -0.0881752 2.9092)
(-2.7292 0.383454 2.98202)
(-2.89302 0.702723 2.9384)
(-2.73827 1.16218 3.05279)
(-2.90042 -0.114936 2.64511)
(-2.89101 0.137782 2.75366)
(-2.92481 0.431821 2.87774)
(-2.81813 0.760241 3.04746)
(-2.61096 1.15581 3.11504)
(-2.9857 -0.0636683 2.61472)
(-3.04915 0.345428 2.50813)
(-3.04154 0.718962 2.59983)
(-2.99956 0.84795 2.89753)
(-2.66805 0.934686 3.19482)
(-2.59021 1.26441 2.78877)
(-3.01211 -0.191824 2.35768)
(-2.80302 0.129188 2.56793)
(-2.86115 0.369877 2.66644)
(-2.83436 0.246538 2.97695)
(-2.75338 0.732216 2.96062)
(-2.33135 1.02113 2.71385)
(-2.01344 0.878151 2.62204)
(-2.98304 -0.373534 2.29251)
(-3.08687 0.0924251 2.23226)
(-3.09778 0.317733 2.38902)
(-2.93249 0.370619 2.55723)
(-2.51355 0.219466 2.78759)
(-2.14324 0.750309 2.41525)
(-2.0029 0.44419 1.80081)
(-1.85075 0.0511804 1.24679)
(-2.94363 -0.762575 2.11966)
(-3.03808 -0.0725395 2.25472)
(-3.18782 0.355481 1.78211)
(-2.61626 -0.270936 2.30057)
(-2.38691 0.404403 1.8628)
(-1.9762 0.811537 1.73298)
(-1.79686 0.0983514 1.04973)
(-1.93289 -0.547102 -0.299265)
(-1.42181 -0.654718 -1.5521)
(-2.98895 -0.971298 1.73537)
(-2.99897 -0.59486 1.92477)
(-3.21258 0.0201578 0.767553)
(-2.33478 -0.296642 1.2453)
(-1.95092 0.514175 1.14594)
(-1.63686 0.466642 0.942619)
(-1.7346 -0.268886 0.149278)
(-1.88573 -0.716504 -0.445456)
(-1.23463 -0.774157 -1.19153)
(-0.432296 -0.512122 -0.860103)
(-2.66072 -1.1356 0.920317)
(-3.12538 -0.788936 0.376222)
(-2.62498 -0.582258 0.172689)
(-1.82404 -0.250779 0.086778)
(-1.82597 0.123002 0.166917)
(-1.47597 0.276114 -0.146192)
(-1.596 -0.431177 -0.572481)
(-1.59148 -0.304799 -1.25348)
(-0.872557 -0.287524 -1.03959)
(-0.169476 -0.399211 -1.16196)
(-0.719041 -0.427647 -0.927932)
(-2.34009 -1.2466 -0.0794066)
(-2.73419 -1.19916 -0.46601)
(-2.59091 -0.557993 -1.1584)
(-1.9657 -0.414834 -0.497656)
(-1.67117 -0.0949006 -0.484513)
(-0.768682 -0.215379 -1.54753)
(-1.34972 -0.484372 -0.875825)
(-1.23694 -0.48529 -1.45992)
(-0.819363 -0.24466 -1.5267)
(-0.554366 -0.38103 -1.54192)
(-0.608257 -0.0859853 -1.37199)
(-0.449022 -0.342472 -1.54266)
(-2.41009 -1.0598 -0.962276)
(-2.44893 -1.19359 -1.26365)
(-2.13782 -0.736082 -1.25599)
(-1.84889 -0.362555 -1.23059)
(-1.37728 -0.326399 -1.51121)
(-1.05371 -0.0639716 -2.04479)
(-1.24088 -0.33155 -2.06834)
(-1.18776 -0.317263 -2.13927)
(-0.266516 -0.0518374 -2.18314)
(-0.223973 -0.189892 -1.67434)
(-0.10785 -0.131672 -1.57694)
(-0.168756 -0.269854 -1.65386)
(-0.374202 -0.469315 -1.68298)
(-1.76224 -1.58924 -1.57364)
(-2.27677 -1.34946 -1.31613)
(-1.94721 -1.08349 -1.39869)
(-1.63485 -0.511115 -1.67347)
(-1.20607 -0.308555 -1.82447)
(-0.661379 -0.15945 -2.2262)
(-0.665884 0.0282031 -2.25483)
(-0.698251 0.19199 -2.11672)
(-0.362121 0.422984 -2.01876)
(-0.102977 0.280448 -2.01353)
(-0.18613 0.141204 -1.99314)
(-0.106516 -0.0771725 -1.8553)
(-0.0850778 -0.31305 -1.79849)
(-0.389629 -0.755244 -1.84525)
(0.382954 -1.26736 -2.69835)
(-0.598947 -1.47488 -2.58151)
(-1.10397 -1.37279 -2.54365)
(-1.13447 -0.754239 -2.29308)
(-0.996821 -0.225489 -2.1568)
(-0.841128 0.080744 -1.8462)
(-0.667867 0.292951 -1.67927)
(-0.557234 0.445436 -1.66356)
(-0.440571 0.453568 -1.62472)
(-0.283822 0.49145 -1.66063)
(-0.178562 0.460765 -1.98327)
(-0.0593501 0.400982 -2.15927)
(0.121996 -0.173161 -2.09051)
(0.018776 -0.722855 -1.97015)
(-0.224981 -1.09423 -1.84439)
(-0.126126 -1.31012 -2.60952)
(-0.884008 -1.2973 -2.28645)
(-1.03196 -1.24897 -2.40238)
(-1.05904 -1.00531 -2.46363)
(-1.52977 -0.419633 -1.93547)
(-1.16613 0.279547 -1.73865)
(-1.10982 0.505682 -1.58558)
(-0.871656 0.656412 -1.71924)
(-0.459983 0.481765 -1.8349)
(-0.24452 0.609864 -1.68344)
(-0.171484 0.519595 -1.67145)
(-0.109091 0.39163 -2.07054)
(-0.035711 0.0194755 -2.33264)
(-0.052699 -0.897187 -1.98439)
(-0.0240808 -1.19813 -1.70721)
(0.318742 -1.2449 -1.89923)
(-0.345691 -0.778277 -2.04592)
(-0.559502 -1.00372 -2.0797)
(-0.875314 -1.30925 -2.0882)
(-0.87726 -1.09894 -2.35923)
(-1.42818 -0.905868 -1.82814)
(-1.6161 -0.0378534 -1.52186)
(-1.37584 0.389992 -1.25183)
(-0.973653 0.627 -1.60648)
(-0.713637 0.697841 -1.75196)
(-0.427334 0.725698 -1.5832)
(-0.00320484 0.679941 -1.35151)
(-0.0407782 0.620336 -1.74771)
(0.370959 -0.00519238 -2.13874)
(0.26493 -0.594233 -2.18923)
(0.40452 -1.06134 -1.80842)
(0.604185 -1.32731 -1.80454)
(0.641026 -1.92793 -1.93256)
(-2.08756 -0.128663 2.18621)
(-2.00458 -0.158019 2.44927)
(-1.98435 0.0353789 2.55746)
(-2.14718 -0.4724 2.74923)
(-2.21501 -0.14654 2.7428)
(-2.29317 0.247843 2.71356)
(-2.12773 -0.464018 2.92579)