/*--------------------------------*- C++ -*----------------------------------*\
  =========                 |
  \\      /  F ield         | OpenFOAM: The Open Source CFD Toolbox
   \\    /   O peration     | Website:  https://openfoam.org
    \\  /    A nd           | Version:  7
     \\/     M anipulation  |
\*---------------------------------------------------------------------------*/
FoamFile
{
    version     2.0;
    format      ascii;
    class       volScalarField;
    location    "7.5";
    object      nut;
}
// * * * * * * * * * * * * * * * * * * * * * * * * * * * * * * * * * * * * * //

dimensions      [0 2 -1 0 0 0 0];

internalField   nonuniform List<scalar> 
18780
(
0.000116509
0.00043872
0.000117271
0.000251577
0.000272307
0.000285149
0.000474402
0.000153969
0.000218851
0.000502448
0.000966733
0.000535537
0.000696062
0.000565332
0.000684235
0.000456141
0.000125404
0.000128962
0.000655695
0.000628131
0.000638344
0.00110956
0.00119299
0.000217006
0.000822419
0.000807495
0.000853431
0.000682916
0.000374582
0.000554423
0.000112379
0.000138393
0.000549879
0.000509888
0.000484284
0.000484826
0.000645777
0.00111902
0.000893987
0.00118642
0.000788541
0.000176759
0.0011428
0.000906151
0.00063066
0.000757105
0.000542744
0.000459603
0.000232877
0.000525879
0.000156055
0.000485784
0.00033601
0.000198735
9.87915e-05
0.000332933
0.000257484
0.000717666
0.00110001
0.000326974
0.00118949
0.000922904
0.000779208
0.00106545
0.000951849
0.00114596
0.000514524
0.000533831
0.000893657
0.000825415
0.000271614
0.000489979
0.000393938
0.000430205
0.000310083
0.000506528
0.000384652
0.000384031
0.000115884
0.000233743
0.000530806
0.000545079
0.000461549
0.000212519
0.000719394
0.00155224
0.000430801
0.000330998
0.00110923
0.00141132
0.00112415
0.00134273
0.000436877
0.00175126
0.000504733
0.00107143
0.000966036
0.000769606
0.00112289
0.00103782
0.000444005
0.0006436
0.000750411
0.000343473
0.00243416
0.00058958
0.00034562
0.000482178
0.000643273
0.000308224
0.000337587
0.000537775
0.000268867
8.42621e-05
0.000230941
0.000609058
0.000543107
0.000446629
0.000275416
0.0003322
0.000939584
0.000688194
0.00103746
0.00101664
0.000693187
0.00158327
0.000887919
0.00116651
0.00163445
0.00111937
0.00109689
0.00101243
0.000628238
0.000516162
0.000562169
0.00074312
0.00101743
0.00105061
0.00100037
0.00109922
0.00148414
0.000771372
0.000442245
0.00067606
0.000649444
0.000543827
0.00130996
0.00176439
0.000416109
0.000324009
0.000688116
0.000567951
0.000299196
0.000618467
0.000466509
0.000712228
0.000144375
0.000384122
0.000169253
0.00050099
0.000260166
0.000372743
0.000301145
0.000234215
0.000165426
0.000724441
0.000686122
0.000806767
0.000769936
0.00114702
0.000750983
0.00133268
0.00117676
0.00051559
0.00183765
0.0018721
0.000995853
0.00122405
0.00176465
0.00132027
0.00136209
0.000474786
0.000678318
0.000456221
0.00076996
0.0012837
0.000950083
0.000865281
0.0011254
0.000907262
0.00191713
0.000367877
0.000960156
0.000623433
0.000385299
0.000640098
0.000803885
0.000904239
0.000612647
0.000689602
0.00154572
0.000962997
0.000426306
0.000256927
0.000594761
0.000430352
0.000453476
0.000706851
0.000157728
0.00104699
0.000290576
9.71956e-05
0.000203287
9.35688e-05
0.000426996
0.00016157
0.00034286
0.000300221
0.000393277
0.000357578
0.000148136
0.00046017
0.000594197
0.00050432
0.000865721
0.000677588
0.000881842
0.00142485
0.000559635
0.000737879
0.000992561
0.000944281
0.00105643
0.00113777
0.00044169
0.00139008
0.00215939
0.000849985
0.00125037
0.000923761
0.00160246
0.000756319
0.000480713
0.000840552
0.000492133
0.000764271
0.000596728
0.00120419
0.00108125
0.00154391
0.000537857
0.00136732
0.000962805
0.000881084
0.000782489
0.000309883
0.0010455
0.000681556
0.000581223
0.000253536
0.000656657
0.000430884
0.000715503
0.00053423
0.000366246
0.000767301
0.000321933
0.000573118
0.000440721
0.000291066
0.000358716
0.000322409
0.000672927
0.000439584
0.000440267
0.000737815
0.000481243
0.000286072
0.000125953
8.10835e-05
0.000119513
0.000403349
4.99024e-05
0.000557952
0.000231484
0.000337844
0.000230128
9.35618e-05
0.000275021
0.000520766
0.000491402
0.000847112
0.000468458
0.000435191
0.000391702
0.000397353
0.000853414
0.000353595
0.000522245
0.00113435
0.000538
0.000650352
0.000525504
0.0006806
0.000753329
0.001495
0.00145034
0.000890762
0.000787651
0.00170258
0.00192162
0.00105532
0.000826778
0.00116482
0.000712708
0.00170037
0.000838373
0.000795804
0.00135366
0.000698068
0.000617022
0.000517618
0.000763594
0.000667806
0.000938722
0.001151
0.000581451
0.000732937
0.00163583
0.000977822
0.000679022
0.000964263
0.00117917
0.000724375
0.000614534
0.00103695
0.000382506
0.000461485
0.000375339
0.000618936
0.000697406
0.000544962
0.000599894
0.00059518
0.000611346
0.000503915
0.00104705
0.000660055
0.000242832
0.000400287
0.000298323
0.000806466
0.00035865
0.00045414
0.000659245
0.000585825
0.000184683
0.000230663
0.000356353
6.53329e-05
0.000231007
0.000332552
0.00018801
0.000628852
0.000253687
0.000385825
0.000108445
0.000138552
0.000173276
0.000283321
0.000395605
0.000584484
0.000791869
0.000459511
0.000643989
0.000594767
0.000719294
0.000454928
0.00114747
0.000431254
0.000559683
0.000497202
0.000728091
0.000566367
0.00040275
0.00059381
0.000717198
0.000852077
0.000888279
0.00095837
0.00057825
0.000715976
0.000839745
0.00129103
0.00146455
0.00138755
0.000884305
0.000583098
0.00120892
0.00215799
0.00150929
0.000798991
0.000404584
0.00127214
0.000845723
0.00157175
0.000776887
0.000462229
0.000857931
0.00090831
0.000509725
0.0013418
0.000391903
0.00103412
0.000207615
0.00119148
0.00133468
0.000546706
0.000679996
0.000559615
0.000814838
0.00104536
0.000839886
0.000892785
0.000417922
0.000831221
0.000687676
0.000748343
0.000329647
0.000338839
0.000451106
0.000338822
0.000827787
0.00101172
0.000622829
0.000487231
0.000513335
0.00093839
0.000499212
0.000786846
0.000446763
0.000512221
0.000242446
0.000292189
0.00029401
0.000417546
0.00039383
0.000400375
0.0012554
0.000467874
0.000458608
0.000574083
0.000226289
0.000117163
7.68312e-05
0.000221913
0.000227053
0.000224886
0.000473022
0.000347118
0.000789999
0.000183434
7.53404e-05
0.000268701
0.000232962
8.82497e-05
0.000371249
0.000476246
0.000442189
0.000302695
0.0006564
0.000882975
0.000618035
0.000622298
0.000425755
0.000464687
0.000350328
0.000944427
0.000562267
0.00038664
0.000527295
0.000672221
0.00111893
0.000441749
0.000343466
0.000580515
0.000629721
0.0008423
0.000625041
0.000668774
0.000965739
0.000802674
0.000853666
0.00145411
0.000144943
0.000953541
0.00105718
0.00121185
0.00129353
0.00141076
0.000802604
0.00100423
0.000919738
0.00133275
0.00158547
0.00105197
0.000968618
0.000473224
0.000394925
0.0012013
0.000764808
0.000988691
0.00130375
0.000468721
0.000673997
0.000722706
0.00057512
0.000493031
0.00114814
0.00136626
0.000604029
0.000315005
0.000962193
0.000899442
0.000676838
0.000439561
0.000613104
0.000537859
0.000460625
0.000879624
0.000818713
0.000943818
0.000536361
0.00103238
0.000316794
0.000776097
0.000510295
0.000558907
0.000335076
0.000472001
0.00034812
0.000685082
0.000871003
0.000623964
0.00023218
0.000355939
0.000582848
0.000525261
0.00056267
0.000249541
0.000374026
0.000616285
0.000236354
8.26094e-05
0.000220265
0.000191235
0.000430677
0.000443901
0.000913819
0.000280075
0.0006021
0.000251089
0.000248064
0.00027951
0.000115648
9.17697e-05
0.000180201
0.000179546
0.000194477
0.000164569
0.000198246
0.000910325
0.000370977
0.000106472
0.000236558
0.000170885
0.000216717
8.37614e-05
0.000564046
0.000435458
0.000783339
0.000455566
0.000522536
0.000508933
0.000399505
0.000993231
0.000594067
0.000678608
0.000428894
0.000284989
0.000893047
0.000314606
0.000641018
0.00037865
0.000801755
0.00111683
0.000473872
0.000714977
0.000367271
0.000613151
0.000976142
0.000947492
0.000559124
0.000847258
0.000738097
0.000708819
0.00105768
0.00114811
0.000596939
0.00076655
0.000624534
0.0010339
0.00078633
0.00145149
0.00112816
0.000483019
0.000545791
0.000829858
0.0012208
0.000997612
0.00151467
0.00121354
0.000720571
0.00146525
0.000760603
0.00152461
0.00196879
0.00096402
0.00105333
0.000755671
0.000440774
0.000526577
0.00139337
0.00118174
0.000829256
0.000624532
0.000951341
0.000715317
0.000652565
0.000601725
0.000733248
0.000418631
0.00150863
0.00222377
0.000964687
0.00030027
0.000910193
0.000618101
0.000580667
0.000282779
0.000641946
0.000466844
0.000501237
0.000906362
0.000824447
0.000890968
0.000382928
0.00114979
0.000613543
0.000503812
0.000456097
0.000691863
0.000564763
0.000407261
0.00052344
0.000485323
0.000477293
0.000447282
0.000781738
0.000718801
0.000503937
0.000309251
0.00037131
0.000779156
0.0004051
0.000446516
0.000441038
0.00043628
0.000591398
0.00024368
9.28628e-05
0.000218337
0.000334977
0.000335567
0.000467632
0.000417021
0.000187909
0.000335815
0.000188385
0.000229821
0.000352249
0.000313884
0.000275977
8.44099e-05
0.000118929
0.000222083
0.000133943
0.000205511
0.000415742
0.000922262
0.000701159
0.000109116
0.00011883
0.000221108
0.000230615
0.000150411
0.000189922
0.000338972
0.000576731
0.000794062
0.000385423
0.000467514
0.000660158
0.000129425
0.000466034
0.000332936
0.000628229
0.000809419
0.000767369
0.000601062
0.000652643
0.000563421
0.000684403
0.000428606
0.000508455
0.00159653
0.000533999
0.000461253
0.000306969
0.000642553
0.00123747
0.00101263
0.000578951
0.000229609
0.000351205
0.000434146
0.000922953
0.00115158
0.000569774
0.000434833
0.000576618
0.000559606
0.000370202
0.000800805
0.00119911
0.00056994
0.000587515
0.000682276
0.000938359
0.000768252
0.000874652
0.00160309
0.00152969
0.000608185
0.000774516
0.000661949
0.00103641
0.00147451
0.00102716
0.000880173
0.00107049
0.000740621
0.000484545
0.000939416
0.00118136
0.00122029
0.00133523
0.000794442
0.000925549
0.000986621
0.000483265
0.000529239
0.000767552
0.00139023
0.000682773
0.000664205
0.000978867
0.000752108
0.000909138
0.000773669
0.000704328
0.000537232
0.000352068
0.000555364
0.0019199
0.00150214
0.000963842
0.000349278
0.00083763
0.00111982
0.000764063
0.000372538
0.000673347
0.000525654
0.000450861
0.000469472
0.00116609
0.000968271
0.000877981
0.000643905
0.000583717
0.000845565
0.000726675
0.000680347
0.00063728
0.00050337
0.000437368
0.000538886
0.000394701
0.000574354
0.000782258
0.000522989
0.00101172
0.000858319
0.000464591
0.000374384
0.000601998
0.000577055
0.000341693
0.000648348
0.000455293
0.000516931
0.000249364
0.000446187
0.000371167
0.000148443
0.000355135
0.00043637
0.000232421
0.000544025
0.00045258
0.000497378
0.000382232
0.000181394
0.000212465
0.000317915
0.000300046
0.000249953
8.08727e-05
0.000124173
6.56203e-05
0.000169684
0.000104336
0.000130379
0.000767116
0.000878636
0.00103678
7.15339e-05
0.000247998
0.000236471
0.000196533
0.000116002
0.000143359
6.96555e-05
0.00053885
0.000524834
0.00040825
0.000636695
0.000638235
0.000670901
0.000428725
0.000675215
0.000536629
0.000519134
0.000219051
0.00078904
0.000723731
0.000231791
0.000646502
0.00036278
0.000551531
0.000229475
0.000486704
0.00117375
0.000472986
0.000782973
0.000687201
0.000771135
0.00117789
0.00147755
0.000686959
0.000520017
0.000457962
0.000251959
0.00111301
0.00118139
0.00109257
0.000450492
0.000479807
0.00084695
0.000316787
0.000798183
0.00140931
0.000665472
0.000513417
0.000631576
0.000526124
0.000590697
0.000557041
0.000625879
0.00151376
0.000663238
0.000782038
0.000647038
0.000866152
0.000723086
0.00058783
0.00100325
0.00140697
0.00196842
0.000412396
0.000437026
0.00125257
0.000810997
0.00153955
0.00126942
0.00101959
0.000789961
0.00117514
0.00062387
0.000557774
0.000535482
0.000886244
0.00139484
0.00120103
0.00117511
0.000739851
0.0009488
0.00100622
0.000662696
0.000544909
0.000702232
0.000744665
0.000891951
0.000673864
0.0013968
0.000731221
0.000736508
0.000647265
0.000599754
0.000632619
0.000419077
0.000453054
0.000876602
0.000580837
0.00134875
0.000497308
0.00130731
0.000131268
0.0012902
0.000929734
0.000495188
0.000425521
0.000673818
0.000447689
0.000518982
0.000522723
0.000505908
0.00098681
0.000837429
0.000463516
0.000758216
0.00116494
0.000765998
0.00060556
0.000790867
0.000553711
0.00047078
0.000384675
0.000517419
0.000513668
0.000300193
0.000630962
0.000907151
0.000836545
0.000553167
0.000510868
0.000559104
0.000684245
0.0009404
0.000385436
0.000280146
0.000403474
0.000441411
0.000526295
0.000392172
0.000277348
0.000164213
0.000328724
0.000400507
0.000319185
0.000377988
0.000342767
0.000634206
0.000622157
0.000612514
0.000656741
0.000243003
0.000222015
0.000390306
0.000198629
0.00021226
0.000299733
0.000365763
8.78447e-05
0.000207092
0.000145106
9.80596e-05
7.89524e-05
0.000768923
0.000597411
0.00113382
0.00014273
0.000326426
0.000277299
0.000240493
0.000107857
0.000147151
9.20565e-05
6.77855e-05
0.00064415
0.000286057
0.000554422
0.000331968
0.000434627
0.000447433
0.000581552
0.000482317
0.000835375
0.000291666
0.000265706
0.000707597
0.000701675
0.000498295
0.000460115
0.000427583
0.000555368
0.000577925
0.000354848
0.000822042
0.00073426
0.000491188
0.000573334
0.000554449
0.000693252
0.00111619
0.00124152
0.000342986
0.000274322
0.0004266
0.000468589
0.000594085
0.00153783
0.00142465
0.000675861
0.000663741
0.000559306
0.000450462
0.00114146
0.00108701
0.00124139
0.00136864
0.000546228
0.000725212
0.000569522
0.000293147
0.000640406
0.0012939
0.000797591
0.000521181
0.000768414
0.000743307
0.000730657
0.00064173
0.000627245
0.000394351
0.00123167
0.00103506
0.00110984
0.000969318
0.000728137
0.000657643
0.000812507
0.000462657
0.000498204
0.00122526
0.00175381
0.00117872
0.000707364
0.000746063
0.000960997
0.000766699
0.000723056
0.00108502
0.00105249
0.000963975
0.00124187
0.00062592
0.000697557
0.000581264
0.000664627
0.00080836
0.00120158
0.000747803
0.0014383
0.0010396
0.00090537
0.000949059
0.000771623
0.000781305
0.000657079
0.000769706
0.000580698
0.000840721
0.00101358
0.00107469
0.000495607
0.00116537
0.000762333
0.000784865
0.0005493
0.000521044
0.000563529
0.000970768
0.000740899
0.00042347
0.000972634
0.000828463
0.00139122
0.000644245
0.00048638
0.000815492
0.000766828
0.000466861
0.000483411
0.000488997
0.000531236
0.000545169
0.000506638
0.000525171
0.000802893
0.00117557
0.000376433
0.000757146
0.000571357
0.00059069
0.000645675
0.000483596
0.0004314
0.000276058
0.000353048
0.000551796
0.000515367
0.000484878
0.00054943
0.00048352
0.000697592
0.000543743
0.000385285
0.000476052
0.000662832
0.00101199
0.000422729
0.000566718
0.000256428
0.000352827
0.000469574
0.000438841
0.000453773
0.000319321
0.000335298
0.000351783
0.000266681
0.000259155
0.000200007
0.000442441
0.000847867
0.000530859
0.000387238
0.000488731
0.00041717
0.000447627
0.000341719
0.000429966
0.000267378
0.000198751
0.00037202
0.000296296
0.000157317
0.000199749
0.000110334
0.000318941
9.17949e-05
0.00031873
0.000632772
0.000377015
0.00110617
0.000215588
0.00043738
0.000398893
0.000231803
0.000143676
0.000170878
0.00011196
5.21716e-05
8.55259e-05
0.000428678
0.000577534
0.000595973
0.000598852
0.000609182
0.000531108
0.000524692
0.000153062
0.000584896
0.00027552
0.000422353
0.00027615
0.000777744
0.000641523
0.000331669
0.000498444
0.000467583
0.000745102
0.000413323
0.00057482
0.000762471
0.000499675
0.000712396
0.000807879
0.000479581
0.000625998
0.000519262
0.000586219
0.000410239
0.000293336
0.000316913
0.000481012
0.00107999
0.00142649
0.00104169
0.000776886
0.000695673
0.000315722
0.000640994
0.000702697
0.00168387
0.00150735
0.00165794
0.000350844
0.000602395
0.000531701
0.000461829
0.000827086
0.00135867
0.00111266
0.000828615
0.000528477
0.000642544
0.000589764
0.000552362
0.000530081
0.000592656
0.000969434
0.00122178
0.000783668
0.000685643
0.00132779
0.000629139
0.000863478
0.000599858
0.000456041
0.000210786
0.00110212
0.00119599
0.000976751
0.000986276
0.000788353
0.000888028
0.000879348
0.000559261
0.00138016
0.000522031
0.00110299
0.00127805
0.00216353
0.000773189
0.000999523
0.000732413
0.00100873
0.00119511
0.000514852
0.00206097
0.000627335
0.000701026
0.000947172
0.00107351
0.000740341
0.00067314
0.000650967
0.000641436
0.000728072
0.000609821
0.00084443
0.00160167
0.00110118
0.00080776
0.00080751
0.000910518
0.000438146
0.000822149
0.000399168
0.000566139
0.000413886
0.000941185
0.000696188
0.00111355
0.000568976
0.00051793
0.000644646
0.000781549
0.000589207
0.00033065
0.00029443
0.000654016
0.000733952
0.000601501
0.00070673
0.00119788
0.00122332
0.00121956
0.000501368
0.000218421
0.000887162
0.000573406
0.000247299
0.000399327
0.000324439
0.000528184
0.000649488
0.000600271
0.00050798
0.000640093
0.000692637
0.00127188
0.000575988
0.000671952
0.000601083
0.000441326
0.00056584
0.000868647
0.000552358
0.000351282
0.000473392
0.000577161
0.000464414
0.000462009
0.000551108
0.000401403
0.00044969
0.000506749
0.000273489
0.000381863
0.000535003
0.000562048
0.000572336
0.00033528
0.000419199
0.00021167
0.000465577
0.000579857
0.000438621
0.000318416
0.000345076
0.000415489
0.000423373
0.000153637
0.000278498
7.9406e-05
0.000316749
0.000190212
0.000621124
0.00052232
0.000426909
0.000464147
0.000436789
0.000535186
0.000430224
0.000365203
0.000276599
0.000269887
0.000280081
0.000275775
0.000271482
0.000186643
0.000156217
0.00010583
0.000130788
0.000175482
0.000382638
0.000499536
0.000307713
0.000902522
0.000182868
0.000373337
0.000507943
6.4675e-05
0.000117175
0.000145415
6.05346e-05
0.000126107
5.20717e-05
4.45047e-05
0.000679291
0.000887687
0.000397679
0.000191891
0.000711227
0.000339351
0.000407891
0.000577452
0.000413242
0.000673764
0.000525219
0.000244434
0.000457476
0.000520389
0.000643303
0.000566902
0.000584493
0.000728119
0.00074398
0.000444489
0.000442754
0.000341214
0.000832453
0.00102528
0.000834041
0.000677771
0.000328837
0.000640228
0.000433604
0.000246832
0.000172154
0.000548186
0.00090572
0.000447553
0.000671885
0.000508153
0.000514211
0.000507289
0.000814641
0.000505292
0.00112928
0.00151868
0.00107069
0.000965193
0.000557483
0.000745613
0.000571607
0.000489988
0.000600646
0.0012608
0.00153336
0.0011873
0.00136853
0.000604914
0.000569589
0.000574717
0.000546079
0.000555852
0.00119121
0.000622962
0.00107365
0.00148496
0.000725725
0.000595394
0.000745051
0.000528508
0.000532607
0.000265833
0.00113924
0.000859248
0.000951666
0.00100817
0.000751315
0.00139882
0.000695946
0.000691834
0.000625669
0.000234818
0.00046517
0.000790349
0.00148122
0.000808777
0.00178252
0.00102317
0.00126296
0.00109763
0.000991208
0.000461606
0.000740795
0.000374183
0.00103766
0.00149246
0.00149986
0.000708615
0.00104215
0.00101323
0.000558153
0.000929504
0.00114191
0.000636115
0.00106681
0.0011189
0.00108634
0.00107871
0.00116685
0.000580476
0.000770779
0.000691435
0.000923474
0.000462281
0.000887664
0.000760672
0.000970814
0.000751326
0.00091084
0.000710368
0.000636044
0.000980186
0.000477752
0.000528997
0.00077932
0.000674502
0.000483084
0.000346656
0.000898718
0.00108986
0.000931909
0.000505986
0.000520218
0.00114066
0.00093005
0.000672808
0.000652934
0.00105901
0.000254811
0.000526834
0.000537547
0.000699196
0.000537934
0.000833304
0.00125134
0.000712771
0.00107783
0.000561142
0.000642847
0.000691974
0.00031398
0.000601689
0.000300973
0.000473476
0.000529828
0.000580244
0.000561662
0.000789901
0.000550052
0.000700528
0.000903031
0.000776725
0.000405662
0.000625717
0.00102207
0.000660639
0.00128313
0.000877451
0.000312608
0.000414097
0.000544395
0.00044917
0.000414928
0.000480147
0.000489098
0.000508471
0.000456641
0.000647355
0.000807016
0.000528387
0.000460035
0.000686959
0.000740076
0.000411834
0.000801132
0.000765974
0.000440442
0.000557468
0.000491592
0.000406308
0.000252755
0.000432163
0.000765481
0.000627606
0.000554704
0.000283099
0.000254841
0.000303959
0.0001226
0.000507613
0.000387541
0.000416121
0.000464674
0.000641263
0.000497727
0.000433832
0.000325948
0.000275384
0.000302254
0.000263566
0.000321853
0.000229457
0.000247151
0.000136437
0.000117436
0.000102553
0.000107452
0.000262672
0.000262911
0.000276421
0.000339468
0.000460994
0.000375263
0.000181823
0.000568924
0.000106112
0.000141386
0.000105844
0.000134337
0.000165595
0.000130322
6.65358e-05
0.000374919
0.00119217
0.000637233
0.000640952
0.00041423
0.000584849
0.000463417
0.000649392
0.000306055
0.000456794
0.000888468
0.000587264
0.00062168
0.000473086
0.000310281
0.000823893
0.000493535
0.000173937
0.000646829
0.000373235
0.000491849
0.000653425
0.000599629
0.000724719
0.000805797
0.00101082
0.000898703
0.000432337
0.000617715
0.000362297
0.000413052
0.000515587
0.000936333
0.000560436
0.000819497
0.000894742
0.00095728
0.000541281
0.000238935
0.00067752
0.000552409
0.000832206
0.000819857
0.000783657
0.00050047
0.000551355
0.000423643
0.000344875
0.000800786
0.000575653
0.000711265
0.00112151
0.00148663
0.000957541
0.00138787
0.000426189
0.000636367
0.000782577
0.000334067
0.000384542
0.00122707
0.00111073
0.00112988
0.00129942
0.000550644
0.000528557
0.000586976
0.000414678
0.000460768
0.000260436
0.00152869
0.000698827
0.00092524
0.00123523
0.000921919
0.00159426
0.000629108
0.00088062
0.000711262
0.000585777
0.000344524
0.00114488
0.00124401
0.000934333
0.00119406
0.00102182
0.000790883
0.00104682
0.000741668
0.000537165
0.000486358
0.000371916
0.000261921
0.000533586
0.00160926
0.000622827
0.00135473
0.00139385
0.000991595
0.00114923
0.00118348
0.00129209
0.000734449
0.000881339
0.000194208
0.00070262
0.00138278
0.000462282
0.00221945
0.000562246
0.000993588
0.000651248
0.000390264
0.00110269
0.000927384
0.000654572
0.00124728
0.000908421
0.00131308
0.00114091
0.00119759
0.000647031
0.000940088
0.00118792
0.00118571
0.000686413
0.000453389
0.00098333
0.000905048
0.000836024
0.00123848
0.000798488
0.000722757
0.000746151
0.000849647
0.000633917
0.000910852
0.000752925
0.000227927
0.000521725
0.000373589
0.000479113
0.000843577
0.00141109
0.0010948
0.00039407
0.00099954
0.000372271
0.00070898
0.000472992
0.000756663
0.000561536
0.000340363
0.00037104
0.000517466
0.000729999
0.000461994
0.000333973
0.000780079
0.000946353
0.000659411
0.00129019
0.000256534
0.000750778
0.000661079
0.000446912
0.000517995
0.000558893
0.000348542
0.00047741
0.000492867
0.000634333
0.000709902
0.000530633
0.000320224
0.000655649
0.000736895
0.00107392
0.00034513
0.000965398
0.000576878
0.0016742
0.000387218
0.000758753
0.000564577
0.0004192
0.000486978
0.00054924
0.000426458
0.000367376
0.000379367
0.000728124
0.000581599
0.000761462
0.000783118
0.000904164
0.000467717
0.000911575
0.00134699
0.000412292
0.000518153
0.000808643
0.000754341
0.000478656
0.000445874
0.000485703
0.000397234
0.00024886
0.000294123
0.000703737
0.000591977
0.000364792
0.000521953
0.000332461
0.000290854
0.000313199
0.000387512
0.000418403
0.000433484
0.000427163
0.000460172
0.000471838
0.000426091
0.000442475
0.000328342
0.000264196
0.000315356
0.000251138
0.000293149
0.000357055
0.00029395
0.000197027
0.000115218
0.000126525
8.95491e-05
0.000169654
0.000180171
0.000208971
0.000177189
0.000299229
0.0004612
0.000676492
0.000494641
0.000623322
0.000161922
8.4157e-05
0.000112844
0.000128914
9.96726e-05
0.000161408
0.000294876
0.000111518
0.000262324
0.00131538
0.0010902
0.00107418
0.000777318
0.000603386
0.000645262
0.000536187
0.00052326
0.000347913
0.000753771
0.000617902
0.000471853
0.00044258
0.000386228
0.000435433
0.000346247
0.000407758
0.000614731
0.000356881
0.00070199
0.000445831
0.000380007
0.000514039
0.000199113
0.000399881
0.000667589
0.000855869
0.000863809
0.000666805
0.000383367
0.00103487
0.000701404
0.000330763
0.000429164
0.000281034
0.000806481
0.00047251
0.000328381
0.000382414
0.000908619
0.00140821
0.000931905
0.000815354
0.000203258
0.000439159
0.000405668
0.000377387
0.00106739
0.000914362
0.000666831
0.00162236
0.000851613
0.000807611
0.00044169
0.000804071
0.000355739
0.000437033
0.000471405
0.000282279
0.000331759
0.00116951
0.00134183
0.000736052
0.000900858
0.000867532
0.000586463
0.000468529
0.000661444
0.000512455
0.000272262
0.00106482
0.000722363
0.00102367
0.00160773
0.00136831
0.00168962
0.00046591
0.000672748
0.000483699
0.000643428
0.000403294
0.000786632
0.000764845
0.00117308
0.0017474
0.00112451
0.00139491
0.00179775
0.000590013
0.000620908
0.000636168
0.00038713
0.000321815
0.00123594
0.00130962
0.000849067
0.000878105
0.000854493
0.00147507
0.00111119
0.000258821
0.000993983
0.000973839
0.000437833
0.000493757
0.000297668
0.000888464
0.00128851
0.000535887
0.000822031
0.00171932
0.000796331
0.00108999
0.000529458
0.000925938
0.00123303
0.00080534
0.0012076
0.00047604
0.000545858
0.00129552
0.000731724
0.00140255
0.00107234
0.00109784
0.000526941
0.000500173
0.000349064
0.000591261
0.000674982
0.000884808
0.000828258
0.00108408
0.00114545
0.00103496
0.00101469
0.00132769
0.000438349
0.00116314
0.00157936
0.000571533
0.000534038
0.00042047
0.000711726
0.00124589
0.000728123
0.000803172
0.00125947
0.000837421
0.000632797
0.00070834
0.000859207
0.000591629
0.000495895
0.000687345
0.000948541
0.000528322
0.000385739
0.000335097
0.000441654
0.00107764
0.000952134
0.000817745
0.000447891
0.000757957
0.00055463
0.000712002
0.000647524
0.000772408
0.000608312
0.000550839
0.000561328
0.000820068
0.00044918
0.000358536
0.000514675
0.000423053
0.000977737
0.00132561
0.00104557
0.000254173
0.00124589
0.000811808
0.000585223
0.000485125
0.00052949
0.000705946
0.000447282
0.000391227
0.000664273
0.000606856
0.000550969
0.000435354
0.000562332
0.000429183
0.00079074
0.00122726
0.000286176
0.000968336
0.000576952
0.000505373
0.000418278
0.000930616
0.000789364
0.000336606
0.000321881
0.000452505
0.000443736
0.000480743
0.000816586
0.000898778
0.000558518
0.000629942
0.000723845
0.000564065
0.000631045
0.000455925
0.00114614
0.000638351
0.00115001
0.000527486
0.000176206
0.000415663
0.000527429
0.000370067
0.000411402
0.000342457
0.00034961
0.000470122
0.0011021
0.000438107
0.000501763
0.000740313
0.000375696
0.00039207
0.000321031
0.000165745
0.000426852
0.000407285
0.000361584
0.000536893
0.000399984
0.000395621
0.000365441
0.000400746
0.00037048
0.000229341
0.000296557
0.000342987
0.000315262
0.00032771
0.000237425
0.000218851
0.000321482
0.000182177
7.76489e-05
8.40649e-05
0.000130821
0.000107552
0.000160439
0.000225556
0.000329331
0.000749811
0.000820734
0.000627328
0.000596017
0.00014709
8.29855e-05
0.000120202
9.41145e-05
0.000124816
6.73003e-05
0.000154477
0.000123561
0.000226841
0.000162423
0.00341097
0.00142474
0.00103073
0.000923063
0.00105226
0.00102555
0.000585851
0.000484384
0.000542388
0.000676213
0.000406712
0.000420499
0.00049934
0.000558203
0.000477085
0.000578769
0.000220916
0.000489694
0.000527456
0.000724958
0.000445138
0.00029723
0.000640708
0.000564851
0.000248187
0.000728922
0.000548703
0.000459932
0.000399231
0.000806331
0.000352636
0.000533426
0.000600396
0.00061922
0.0002429
0.000273672
0.000340635
0.000228721
0.000348875
0.000680878
0.000867343
0.000895671
0.000749288
0.000598408
0.000691138
0.000568496
0.000346312
0.000672031
0.00102381
0.00104009
0.000954905
0.000748005
0.00106066
0.000683459
0.00116825
0.00025138
0.000317936
0.000186442
0.000140457
0.000510886
0.00115289
0.000725871
0.000816849
0.000329184
0.000807083
0.000930984
0.00039732
0.000344965
0.000540735
0.000743348
0.00108659
0.000617632
0.00127031
0.000785758
0.00178673
0.000964043
0.00170337
0.000588644
0.000461471
0.000658989
0.00062098
0.000590536
0.000762495
0.00109974
0.00119914
0.0014426
0.000844884
0.00189497
0.000828747
0.000498412
0.000834797
0.000541296
0.000672956
0.000287621
0.000963699
0.000996449
0.000784458
0.00106093
0.000888736
0.000945952
0.0012753
0.00133624
0.000792942
0.000690747
0.000574433
0.000260734
0.000462986
0.00117155
0.00114841
0.00131308
0.00106134
0.000712991
0.00176192
0.00105215
0.000931174
0.00101021
0.000775951
0.000913616
0.000489775
0.000444857
0.000370511
0.000711777
0.00132536
0.000890643
0.000791777
0.00149877
0.000836677
0.0012391
0.000546568
0.0008744
0.00106345
0.0014512
0.00113227
0.000870257
0.000602058
0.000373566
0.00126988
0.000886534
0.000823097
0.00121716
0.00112746
0.000614494
0.000959246
0.000123579
0.000406261
0.000964294
0.00094865
0.000649464
0.000745885
0.000775814
0.00115086
0.000834719
0.00196779
0.00107152
0.000310548
0.000669121
0.000980001
0.000573034
0.000595782
0.000336727
0.000805376
0.000373092
0.00109566
0.00112526
0.000929976
0.000497664
0.000776321
0.00106928
0.00112394
0.000193754
0.000663526
0.000691771
0.000906571
0.00087666
0.000481884
0.000475494
0.000328617
0.000540093
0.000819769
0.000874605
0.000728057
0.00169022
0.000188751
0.000873738
0.000561754
0.000294972
0.00031638
0.000715491
0.000576552
0.000515737
0.000538438
0.000879472
0.000638692
0.000489391
0.000465142
0.000930573
0.000486078
0.000937097
0.00154337
0.000591911
0.000432893
0.000767561
0.000651465
0.000447196
0.000221984
0.000479016
0.000720931
0.000594057
0.00034076
0.000718061
0.000676939
0.000706938
0.000503379
0.000645601
0.000651293
0.000411208
0.000579952
0.00142332
0.000851815
0.000783257
0.000302853
0.000530797
0.00129915
0.000521545
0.000969949
0.000111845
0.000199376
0.00039034
0.000402939
0.000493184
0.00123042
0.000710627
0.00049911
0.000667854
0.000580435
0.000557071
0.000406328
0.000635815
0.000700022
0.00117125
0.000876269
0.000801541
0.000539006
0.000347562
0.000583802
0.000529121
0.000286544
0.000390999
0.000370056
0.000269098
0.000365254
0.000620705
0.000465588
0.000393599
0.000807485
0.000380825
0.000225736
0.000308108
0.000431191
0.000197095
0.000283292
0.000277119
0.000305663
0.000651692
0.000370377
0.000572167
0.000268751
0.00033602
0.000267957
0.000245788
0.00029607
0.00027324
0.000360135
0.000189163
0.000237702
0.000227139
0.00027185
0.000329267
0.000252166
7.90674e-05
0.000147137
0.000281381
0.00015892
0.000153558
9.29488e-05
0.000272557
0.000730372
0.000849749
0.000656502
0.000557353
0.000256897
9.60372e-05
0.000119333
0.000154353
0.000107737
0.000114688
6.22144e-05
0.000309867
0.000324136
0.000161514
9.44411e-05
0.0034536
0.00353099
0.00115822
0.00106415
0.00112884
0.00137372
0.000993387
0.000992087
0.000924128
0.000580569
0.000678285
0.000677259
0.000892229
0.000615459
0.000530621
0.000433321
0.000492013
0.000669713
0.000674283
0.00104805
0.000321744
0.000446659
0.000523146
0.000283476
0.00087047