/*--------------------------------*- C++ -*----------------------------------*\
  =========                 |
  \\      /  F ield         | OpenFOAM: The Open Source CFD Toolbox
   \\    /   O peration     | Website:  https://openfoam.org
    \\  /    A nd           | Version:  7
     \\/     M anipulation  |
\*---------------------------------------------------------------------------*/
FoamFile
{
    version     2.0;
    format      ascii;
    class       volScalarField;
    location    "7.5";
    object      p;
}
// * * * * * * * * * * * * * * * * * * * * * * * * * * * * * * * * * * * * * //

dimensions      [0 2 -2 0 0 0 0];

internalField   nonuniform List<scalar> 
18780
(
-60.8767
-59.0212
-60.8914
-60.144
-58.0073
-58.8282
-58.9261
-60.9371
-60.0666
-59.4822
-56.2771
-57.9777
-57.4494
-58.6852
-58.7878
-58.4955
-60.9793
-59.9936
-59.3635
-59.14
-55.922
-56.1315
-56.2778
-57.8856
-57.206
-57.6913
-58.5632
-58.6174
-58.3079
-58.3391
-60.9999
-59.888
-59.2388
-59.005
-57.8632
-54.9646
-55.9665
-54.747
-55.9616
-56.0839
-56.6966
-57.7801
-56.8739
-57.4827
-57.8505
-58.459
-58.4367
-58.1184
-58.0666
-57.6917
-60.9986
-59.7837
-59.1247
-58.8904
-57.7625
-57.2172
-52.6621
-54.9642
-53.1547
-55.8108
-54.6714
-54.4328
-55.7364
-55.8587
-56.2222
-56.2828
-57.6892
-56.8183
-57.1849
-57.5558
-57.6208
-58.3827
-58.2658
-57.9303
-57.9188
-57.5055
-57.2007
-60.9703
-59.7319
-59.0222
-58.7876
-57.6668
-57.0996
-56.5022
-51.8105
-52.1456
-52.2356
-55.1259
-53.2661
-52.3858
-55.8085
-54.7294
-54.2942
-55.4665
-55.6109
-55.717
-55.6816
-55.9358
-56.2197
-57.5465
-56.7792
-56.9358
-57.1064
-57.3041
-56.5504
-58.3242
-58.1104
-57.7411
-57.7111
-57.3102
-57.0851
-56.6085
-60.9313
-59.685
-58.9214
-58.6763
-57.5515
-56.9746
-56.3571
-55.9753
-50.4877
-51.7279
-51.3049
-52.3728
-52.007
-51.5652
-55.241
-53.594
-52.2617
-53.4348
-55.7811
-54.6369
-54.1084
-55.1382
-55.6268
-55.4268
-55.6039
-55.3949
-55.6605
-55.9026
-56.339
-57.3928
-56.6944
-56.6369
-56.7333
-56.9171
-56.2795
-56.5587
-58.3152
-57.9517
-57.5731
-57.5083
-57.1143
-56.8494
-56.4219
-56.0247
-60.9074
-59.6522
-58.8155
-58.5552
-57.445
-56.8439
-56.2484
-55.8889
-55.6243
-49.2003
-49.7626
-50.4449
-50.2275
-51.3394
-51.2141
-51.5087
-52.8489
-52.1702
-51.3934
-52.1064
-55.0117
-53.7112
-52.1361
-52.9943
-54.4207
-55.4097
-54.6224
-53.9573
-54.5497
-54.9926
-55.7292
-55.3283
-55.4084
-55.446
-55.7159
-55.6302
-55.9032
-56.3331
-57.1877
-56.5832
-56.3858
-56.3785
-56.557
-56.0376
-56.1356
-56.2162
-58.3167
-57.8382
-57.4123
-57.3064
-56.9263
-56.5788
-56.2629
-55.8294
-55.8245
-60.8996
-59.638
-58.6986
-58.4421
-57.3607
-56.7621
-56.1445
-55.763
-55.5601
-54.9853
-48.5533
-49.135
-49.344
-49.4948
-49.7608
-50.2461
-50.3943
-50.5779
-51.4235
-51.0927
-51.176
-51.5639
-52.5634
-52.2774
-51.6298
-52.7779
-53.8984
-54.8003
-53.957
-52.1255
-53.1181
-54.1682
-55.1492
-54.9813
-54.5981
-53.9149
-54.4522
-54.6562
-55.3286
-56.005
-55.157
-55.165
-55.2021
-55.3312
-55.3155
-55.4318
-55.9481
-56.7048
-57.0321
-56.4271
-56.2732
-56.183
-56.2159
-55.8702
-55.8217
-56.1146
-56.5588
-58.3126
-57.7589
-57.2826
-57.1209
-56.7368
-56.3572
-56.1369
-55.6203
-55.6764
-55.6136
-60.8859
-59.6256
-58.6297
-58.342
-57.2842
-56.6373
-56.0475
-55.6617
-55.5068
-54.9972
-54.5473
-48.0008
-48.3183
-48.7336
-48.724
-49.2855
-49.5257
-49.465
-49.7655
-49.9113
-50.3251
-50.4951
-50.4218
-51.0722
-51.49
-51.353
-51.1613
-51.8756
-52.5899
-52.5093
-52.0558
-51.4696
-52.25
-53.6034
-54.1806
-54.5593
-54.1359
-52.0426
-52.889
-53.7676
-54.3407
-55.3371
-54.62
-54.5191
-53.8033
-54.1396
-54.2857
-54.7448
-55.5215
-56.2964
-54.9951
-54.8791
-55.0824
-55.2306
-55.0054
-55.0029
-55.5694
-56.2918
-56.8128
-56.8963
-56.2313
-56.0916
-55.9913
-55.9238
-55.6395
-55.5279
-55.9191
-56.2173
-56.3222
-58.3413
-57.6822
-57.1567
-56.97
-56.5466
-56.1424
-56.0514
-55.4034
-55.5244
-55.4556
-55.4852
-60.8644
-59.6155
-58.659
-58.247
-57.2067
-56.508
-55.9486
-55.5811
-55.4762
-54.9702
-54.5044
-53.8097
-47.5157
-47.6727
-48.0927
-48.3495
-48.2901
-48.6787
-48.8771
-48.863
-49.0059
-49.478
-49.8989
-49.3402
-49.7234
-49.8881
-50.3812
-50.2424
-50.0528
-50.1369
-50.9188
-51.8506
-51.4858
-51.5531
-51.0737
-51.5483
-52.7375
-52.9575
-52.5102
-52.3759
-51.9778
-51.599
-53.2736
-53.8397
-54.659
-54.124
-54.1804
-52.2553
-52.7431
-53.7732
-54.3317
-54.7973
-55.9012
-54.0584
-54.4786
-53.7342
-53.8829
-54.0403
-54.3197
-55.1623
-55.9056
-56.7188
-54.8937
-54.6911
-54.8511
-54.9704
-54.767
-54.6597
-55.1676
-55.9179
-56.4522
-56.9279
-56.7784
-56.0835
-55.9239
-55.7671
-55.6946
-55.4484
-55.2456
-55.7084
-55.882
-56.0865
-56.4007
-58.3837
-57.6187
-57.0177
-56.8198
-56.3627
-55.9345
-55.9929
-55.2288
-55.3883
-55.2879
-55.3328
-55.1491
-60.875
-59.6058
-58.6976
-58.1556
-57.1258
-56.3849
-55.8474
-55.4816
-55.4331
-54.9202
-54.4342
-53.7727
-53.861
-47.3716
-47.4639
-47.654
-47.7936
-47.772
-48.0086
-48.1939
-48.4277
-48.2989
-48.501
-48.9448
-49.1548
-48.8219
-49.0625
-49.4093
-49.721
-50.3658
-49.3468
-49.4697
-49.8081
-50.2353
-50.949
-50.2868
-50.1754
-49.8899
-50.4115
-51.3098
-52.2062
-51.3986
-51.7529
-50.9566
-51.2968
-52.5671
-52.6864
-53.7502
-52.373
-52.4732
-51.8553
-51.8299
-53.347
-53.643
-54.2062
-55.48
-53.5417
-54.3317
-52.4154
-52.4847
-53.6545
-54.0454
-54.4096
-55.4178
-56.6442
-53.6856
-54.4091
-53.7449
-53.6523
-53.8681
-54.4303
-54.9951
-55.489
-56.2477
-56.7242
-54.7297
-54.578
-54.7033
-54.4656
-54.3836
-54.5565
-54.8773
-55.5587
-56.1562
-56.5578
-56.757
-56.6463
-55.9639
-55.7612
-55.537
-55.6121
-55.2637
-54.9921
-55.4737
-55.6572
-55.8543
-56.1943
-55.8746
-58.4085
-57.5702
-56.9008
-56.6589
-56.2024
-55.7284
-55.853
-55.1028
-55.2545
-55.1364
-55.2064
-55.0722
-54.8081
-60.9021
-59.5833
-58.6905
-58.0624
-57.0525
-56.2891
-55.7462
-55.3823
-55.359
-54.8662
-54.3704
-53.7497
-53.8242
-53.7048
-47.0915
-47.2632
-47.3855
-47.4435
-47.5055
-47.8558
-47.6991
-47.6562
-48.1051
-47.8146
-48.2241
-48.538
-48.5978
-48.2101
-48.417
-48.8322
-49.1636
-49.7282
-48.6047
-49.0297
-49.3138
-49.6801
-50.1504
-51.4919
-49.3614
-49.4938
-49.7286
-50.0724
-50.5028
-51.7086
-50.2943
-50.4767
-50.1935
-50.4583
-51.0154
-51.8238
-53.2655
-51.4121
-51.8486
-50.9346
-51.0654
-52.1016
-52.3018
-53.1911
-54.7933
-52.1283
-52.4704
-51.5211
-51.2127
-52.9892
-53.3782
-53.7003
-54.9612
-56.0405
-53.1363
-54.188
-52.4052
-52.3124
-53.7049
-53.9493
-54.1021
-54.9057
-55.9699
-56.9921
-53.3967
-54.2586
-53.6296
-53.4514
-53.7237
-54.2385
-54.646
-55.1071
-55.7318
-56.3559
-57.1826
-54.6251
-54.2889
-54.5298
-54.4825
-54.2783
-54.2429
-54.5596
-55.2305
-55.7989
-56.1719
-56.4322
-56.4507
-56.5462
-55.8561
-55.574
-55.2884
-55.2745
-54.9964
-54.7702
-55.2315
-55.4929
-55.7001
-55.9303
-55.6612
-55.4773
-58.4538
-57.5267
-56.7923
-56.5307
-56.0451
-55.5407
-55.6693
-54.9752
-55.0813
-55.0096
-55.0886
-54.9882
-54.7313
-54.3885
-60.9262
-59.5686
-58.6568
-57.9743
-56.9847
-56.2216
-55.6442
-55.2996
-55.2537
-54.7962
-54.3196
-53.7297
-53.7953
-53.6749
-53.5248
-46.9897
-47.0113
-47.133
-47.1009
-47.3405
-47.5788
-47.505
-47.4297
-47.7533
-48.0691
-47.5137
-47.7156
-48.0337
-48.2065
-47.8238
-47.9517
-48.3833
-48.5855
-49.0561
-48.1502
-48.4407
-48.7747
-49.1021
-49.3183
-50.9069
-48.6216
-48.9942
-49.2331
-49.453
-49.8589
-50.9692
-52.873
-49.3155
-49.4907
-49.7586
-50.0287
-50.3366
-51.239
-52.8204
-50.1571
-50.3208
-50.2077
-50.5868
-51.1236
-51.3673
-52.5435
-54.5524
-51.2125
-51.7179
-51.0589
-50.8044
-51.9866
-52.2754
-52.6698
-54.2273
-55.6619
-51.9277
-52.2775
-51.7401
-51.3233
-52.8709
-53.3264
-53.3174
-54.3886
-55.5473
-56.6898
-52.9109
-53.8237
-52.5437
-52.0487
-53.383
-53.7678
-53.7937
-54.4909
-55.4242
-56.5495
-57.3842
-53.1558
-54.0433
-53.4234
-53.3239
-53.546
-53.8623
-54.1444
-54.7593
-55.2684
-56.0119
-56.756
-57.2787
-54.5466
-54.0976
-54.2522
-54.4305
-54.1441
-53.896
-54.2308
-54.8658
-55.4067
-55.7595
-56.154
-56.2998
-56.3108
-56.4688
-55.763
-55.3502
-55.2069
-54.9392
-54.8582
-54.6058
-54.978
-55.3197
-55.5539
-55.6512
-55.4449
-55.3198
-55.1642
-58.4977
-57.4998
-56.6956
-56.4383
-55.9119
-55.3744
-55.5053
-54.8218
-54.8847
-54.8803
-54.951
-54.8945
-54.6555
-54.3269
-54.1364
-60.9587
-59.5639
-58.617
-57.902
-56.9051
-56.1368
-55.5267
-55.2249
-55.1296
-54.736
-54.269
-53.7058
-53.7821
-53.6435
-53.5222
-53.4629
-46.8109
-46.9934
-46.9902
-46.9341
-47.1406
-47.339
-47.0766
-47.2029
-47.4421
-47.7686
-47.3701
-47.2704
-47.605
-48.0101
-48.3892
-47.5418
-47.642
-47.9662
-48.1491
-48.515
-47.8109
-47.8751
-48.3163
-48.3726
-49.0628
-50.2381
-48.1198
-48.3205
-48.7187
-48.8735
-49.1011
-50.4284
-52.4085
-48.5487
-48.7963
-49.0817
-49.4244
-49.7516
-50.5449
-52.3556
-53.9938
-49.1752
-49.4264
-49.7533
-49.9087
-50.3127
-50.7936
-52.1509
-53.8777
-50.0369
-50.4039
-50.2406
-50.5494
-51.2196
-51.2875
-51.7769
-53.876
-55.5865
-51.0472
-51.717
-50.9982
-51.4544
-51.9433
-52.2401
-52.2535
-53.6735
-55.1078
-56.6517
-51.6217
-52.2948
-52.1065
-51.4482
-52.5667
-53.0799
-52.9325
-53.914
-55.0789
-56.2035
-57.506
-52.5172
-53.3602
-52.3791
-52.3039
-52.9471
-53.4868
-53.5389
-54.0774
-54.9069
-56.0076
-56.9113
-57.6221
-52.9996
-53.6036
-53.2229
-53.3156
-53.3762
-53.7793
-53.8631
-54.4111
-54.8722
-55.6544
-56.2827
-56.8159
-57.1375
-54.4831
-53.9393
-54.0249
-54.3461
-53.9152
-53.7181
-53.9918
-54.5404
-55.0247
-55.3998
-55.887
-56.006
-56.0721
-56.0742
-56.4528
-55.6666
-55.2503
-55.0019
-54.9296
-54.6063
-54.4893
-54.7357
-55.1362
-55.2939
-55.4134
-55.236
-55.1692
-55.0566
-54.8437
-58.5128
-57.4953
-56.6185
-56.3318
-55.7997
-55.1854
-55.3384
-54.6783
-54.7129
-54.7483
-54.8172
-54.799
-54.5817
-54.2724
-54.1168
-53.9643
-61.0049
-59.5916
-58.5984
-57.8394
-56.8021
-56.0194
-55.4176
-55.1181
-55.0128
-54.7023
-54.2219
-53.6805
-53.7608
-53.6113
-53.5172
-53.47
-53.2623
-46.6497
-46.9783
-46.8593
-46.8723
-46.9365
-47.1416
-46.907
-47.083
-47.171
-47.537
-47.2945
-47.1211
-47.3547
-47.7216
-48.1162
-47.2503
-47.4059
-47.5229
-47.9622
-48.2172
-49.1612
-47.4538
-47.6338
-47.7995
-48.1263
-48.4997
-49.442
-47.7262
-47.8536
-48.2146
-48.411
-48.9863
-49.6824
-51.4479
-48.0539
-48.2223
-48.5997
-48.8083
-49.0894
-50.1249
-51.8349
-52.9838
-48.5232
-48.6761
-48.9158
-49.2668
-49.804
-50.332
-51.7989
-53.4353
-54.8777
-49.1368
-49.3941
-49.6327
-49.8767
-50.189
-50.5722
-51.6669
-53.398
-54.8601
-49.8735
-50.2397
-50.2441
-50.6503
-51.0357
-51.3941
-51.387
-53.2354
-54.9642
-56.0941
-50.768
-51.7007
-51.3793
-51.2931
-51.9053
-52.1416
-51.9473
-53.2085
-54.6323
-56.0287
-57.4671
-51.4517
-52.1608
-52.2248
-51.3797
-52.5313
-53.0098
-52.5816
-53.4236
-54.6002
-55.6814
-57.0444
-58.0286
-52.445
-52.9897
-52.3252
-52.2569
-52.8204
-53.2337
-53.2955
-53.7767
-54.4441
-55.5498
-56.4286
-57.1719
-57.8481
-52.9971
-53.3004
-53.1789
-53.2216
-53.2517
-53.5204
-53.7178
-54.1259
-54.5407
-55.2819
-55.8893
-56.3644
-56.8101
-56.8754
-54.4422
-53.8086
-53.8139
-54.1332
-53.7328
-53.5484
-53.7624
-54.3011
-54.6754
-55.1238
-55.6265
-55.7276
-55.8289
-55.8635
-55.6645
-56.4529
-55.6202
-55.2149
-54.7787
-54.6842
-54.3685
-54.4562
-54.5152
-54.9813
-55.0176
-55.1958
-55.047
-55.0176
-54.9262
-54.7808
-54.6388
-58.596
-57.4732
-56.5755
-56.2486
-55.7032
-55.0047
-55.1802
-54.553
-54.5702
-54.6125
-54.6822
-54.6987
-54.5005
-54.1873
-54.0926
-53.9605
-53.8382
-61.059
-59.6665
-58.5679
-57.8093
-56.7142
-55.8882
-55.3126
-55.0386
-54.9048
-54.6798
-54.177
-53.6536
-53.729
-53.5871
-53.5082
-53.4732
-53.3003
-53.3683
-46.7694
-46.6609
-46.752
-46.887
-46.85
-47.0049
-46.9156
-46.9747
-47.0247
-47.3382
-46.941
-47.0118
-47.0694
-47.4494
-47.8076
-47.0696
-47.1273
-47.2936
-47.636
-47.9743
-48.4997
-47.1781
-47.3406
-47.4194
-47.8031
-48.1844
-48.8783
-49.9216
-47.3969
-47.571
-47.7799
-48.0334
-48.4175
-49.1427
-50.405
-47.6337
-47.7273
-48.0892
-48.2862
-48.7297
-49.5135
-50.8924
-52.0899
-48.0534
-48.1971
-48.4572
-48.7474
-49.1241
-49.9339
-51.4322
-52.6413
-53.7327
-48.3622
-48.6139
-48.9012
-49.2854
-49.7523
-50.0401
-51.2529
-52.733
-54.2372
-55.3619
-48.9663
-49.3456
-49.5404
-49.9621
-50.1456
-50.433
-51.2355
-52.8781
-54.3205
-56.045
-49.5898
-50.1176
-50.3756
-50.2194
-51.05
-51.3067
-51.1938
-52.8004
-54.37
-55.5773
-56.967
-50.4978
-51.3144
-51.6875
-50.9391
-51.9915
-52.1636
-51.7587
-52.8473
-54.1879
-55.4601
-56.794
-58.1579
-51.2789
-51.8096
-52.0121
-51.8066
-52.4805
-52.9475
-52.4134
-53.0324
-54.2326
-55.2924
-56.5924
-57.4737
-58.4121
-52.123
-52.7152
-52.2895
-52.2134
-52.7173
-53.1563
-53.1339
-53.4767
-54.14
-55.1696
-56.1068
-56.7704
-57.4406
-57.8227
-52.9713
-53.0679
-52.9466
-53.1257
-53.1137
-53.251
-53.491
-53.9121
-54.264
-54.9752
-55.5451
-55.9979
-56.4801
-56.6506
-56.5811
-54.469
-53.731
-53.5921
-53.9656
-53.6363
-53.3379
-53.4993
-54.0044
-54.369
-54.8378
-55.3517
-55.4672
-55.6063
-55.6717
-55.5469
-55.3474
-56.4808
-55.6146
-55.1155
-54.6221
-54.3977
-54.3751
-54.1994
-54.3055
-54.7336
-54.7644
-54.9848
-54.8606
-54.8586
-54.8358
-54.7229
-54.6243
-54.3969
-58.6771
-57.4723
-56.535
-56.1731
-55.6061
-54.8388
-54.9935
-54.4027
-54.4265
-54.4788
-54.5405
-54.5927
-54.4212
-54.1165
-54.0621
-53.9598
-53.8575
-53.8269
-61.1202
-59.7137
-58.5488
-57.7753
-56.6593
-55.8068
-55.2115
-54.9705
-54.8191
-54.6441
-54.1538
-53.6348
-53.7031
-53.5729
-53.4992
-53.4794
-53.328
-53.4191
-53.7083
-46.6053
-46.5811
-46.7811
-46.8189
-46.7004
-46.8532
-46.8491
-46.7649
-46.8915
-47.0337
-46.7508
-46.8851
-47.0101
-47.2185
-47.385
-46.918
-46.8952
-47.0192
-47.3227
-47.651
-48.1371
-47.0215
-46.9874
-47.1513
-47.482
-47.8614
-48.522
-49.0534
-47.1964
-47.3218
-47.7153
-47.6178
-47.9875
-48.6727
-49.6196
-50.4197
-47.3641
-47.5253
-47.6037
-47.9142
-48.0567
-49.2054
-50.0059
-50.9942
-47.6592
-47.8484
-48.0112
-48.3327
-48.5946
-49.6019
-50.4935
-51.8503
-52.7764
-47.9294
-48.1403
-48.4414
-48.6737
-49.1048
-49.5008
-51.0439
-52.3263
-53.0734
-54.8367
-48.3165
-48.4943
-48.9474
-49.2279
-49.635
-49.7125
-50.7895
-51.9594
-53.5264
-55.1288
-56.3225
-48.8764
-49.0738
-49.5439
-49.804
-50.1267
-50.3243
-50.7701
-52.2802
-53.7205
-55.4286
-56.9314
-49.4369
-49.9448
-50.4637
-50.5039
-51.1524
-51.1046
-50.8155
-52.3912
-53.8171
-55.034
-56.3803
-58.0814
-50.2361
-51.0195
-51.7441
-51.3151
-51.9317
-51.9624
-51.4308
-52.4052
-53.8452
-55.034
-56.1208
-57.5105
-58.9421
-51.0472
-51.4378
-51.9876
-51.817
-52.1648
-52.8634
-52.3603
-52.6927
-53.786
-54.8849
-56.1022
-57.0588
-57.884
-58.7014
-51.8327
-52.1002
-52.1559
-52.1489
-52.5004
-53.1954
-52.9189
-53.2442
-53.8743
-54.7919
-55.8015
-56.4328
-57.026
-57.4355
-57.6557
-53.0405
-52.8355
-52.7246
-53.0109
-52.948
-53.1903
-53.0779
-53.6866
-54.0127
-54.7116
-55.259
-55.7037
-56.1953
-56.3751
-56.3673
-56.2231
-54.5646
-53.6532
-53.4173
-53.7677
-53.6455
-53.207
-53.2615
-53.715
-54.0588
-54.5693
-55.1016
-55.2464
-55.4076
-55.5136
-55.4215
-55.2817
-55.0628
-56.5838
-55.6258
-55.0231
-54.4776
-54.2178
-54.2633
-54.073
-54.1443
-54.4689
-54.5052
-54.7767
-54.6872
-54.6993
-54.7223
-54.6701
-54.5841
-54.3814
-54.197
-58.7381
-57.4899
-56.5114
-56.0958
-55.5139
-54.6747
-54.8517
-54.2453
-54.2979
-54.3726
-54.404
-54.466
-54.3424
-54.0609
-54.0301
-53.9606
-53.8866
-53.8951
-54.1782
-61.1513
-59.7468
-58.5416
-57.7356
-56.6098
-55.7483
-55.1167
-54.9014
-54.7598
-54.5945
-54.1476
-53.6132
-53.67
-53.5511
-53.492
-53.4854
-53.3499
-53.4621
-53.7528
-53.981
-46.5469
-46.5784
-46.5694
-46.7312
-46.6037
-46.7806
-46.6923
-46.717
-46.7484
-46.8021
-46.729
-46.7875
-46.839
-47.0012
-47.1177
-46.8639
-46.8508
-46.9181
-47.2065
-47.3561
-47.7254
-46.7726
-46.7372
-46.9756
-47.1936
-47.4952
-47.98
-48.4511
-47.0047
-47.0918
-47.2022
-47.3793
-47.7485
-48.2635
-48.8493
-49.5505
-47.1519
-47.3717
-47.36
-47.5523
-47.7351
-48.558
-49.3337
-50.1816
-50.797
-47.3575
-47.4992
-47.5803
-47.9011
-47.9493
-48.7991
-49.7164
-50.6844
-51.6253
-47.6035
-47.7583
-48.0113
-48.2262
-48.5465
-49.1369
-50.4936
-51.4803
-52.3108
-53.1859
-47.9397
-47.9893
-48.3715
-48.4942
-48.9842
-49.1732
-50.6315
-51.9935
-52.4212
-54.0107
-55.077
-48.2791
-48.3653
-48.8611
-49.0942
-49.4715
-49.5035
-50.3145
-51.8544
-52.8205
-54.6336
-55.9048
-58.3602
-48.8032
-49.1145
-49.4918
-49.796
-50.0693
-50.203
-50.3722
-51.7661
-53.2292
-54.7462
-56.5041
-57.8353
-49.2896
-49.8615
-50.3968
-50.4676
-51.1214
-51.1853
-50.8006
-51.8603
-53.1198
-54.4859
-55.9615
-57.6253
-59.2247
-50.0829
-50.9509
-51.6649
-51.2039
-51.7655
-51.8278
-51.3714
-51.9501
-53.2792
-54.5561
-55.5888
-56.9523
-58.4424
-59.377
-50.9246
-51.0835
-51.9552
-51.5637
-51.972
-52.7833
-52.3323
-52.4499
-53.3746
-54.3797
-55.5357
-56.7405
-57.3259
-58.2764
-58.6641
-51.7969
-51.6888
-51.9492
-51.9915
-52.2908
-52.9294
-52.8918
-52.9962
-53.5378
-54.4292
-55.2744
-56.0772
-56.6234
-57.0528
-57.4
-57.299
-53.141
-52.7251
-52.5733
-52.8469
-52.7999
-53.0018
-52.9318
-53.4463
-53.7764
-54.4086
-54.9536
-55.4193
-55.9392
-56.0887
-56.2144
-56.1328
-55.986
-54.6824
-53.63
-53.2828
-53.5244
-53.4876
-53.147
-53.2882
-53.5656
-53.8107
-54.3721
-54.8604
-55.0367
-55.1975
-55.35
-55.3036
-55.2066
-55.0803
-54.7498
-56.6284
-55.6607
-54.9541
-54.3629
-54.1129
-54.067
-53.927
-53.9376
-54.2537
-54.2871
-54.5696
-54.5252
-54.5427
-54.6053
-54.6055
-54.54
-54.4124
-54.3025
-54.6011
-58.8576
-57.5122
-56.5109
-56.025
-55.4269
-54.5383
-54.761
-54.0844
-54.1638
-54.251
-54.2783
-54.3424
-54.2517
-53.9926
-53.9949
-53.9555
-53.8951
-53.9465
-54.2718
-54.6407
-61.1576
-59.7747
-58.5326
-57.7167
-56.5675
-55.6878
-55.0309
-54.825
-54.7076
-54.5405
-54.126
-53.5772
-53.6282
-53.5279
-53.4788
-53.4893
-53.37
-53.4999
-53.7818
-54.0268
-54.3603
-46.3768
-46.5835
-46.5319
-46.5394
-46.5806
-46.6157
-46.6824
-46.6922
-46.6865
-46.6608
-46.6588
-46.7001
-46.7626
-46.8782
-46.9357
-46.7223
-46.8063
-46.7645
-47.0334
-47.04
-47.4116
-46.856
-46.9135
-46.9755
-47.0515
-47.3172
-47.5987
-48.0701
-46.7517
-46.9583
-46.8836
-47.1242
-47.5242
-47.8117
-48.3745
-48.7926
-46.9844
-47.0769
-47.1861
-47.255
-47.3822
-48.1216
-48.7251
-49.4826
-49.9531
-47.1545
-47.2348
-47.2074
-47.4327
-47.674
-48.0413
-49.129
-49.9382
-50.7112
-51.2355
-47.3529
-47.4927
-47.5775
-47.8754
-48.1127
-48.4382
-49.8209
-50.5705
-51.3014
-52.1579
-47.5015
-47.6979
-47.7884
-48.1906
-48.5081
-48.9051
-50.1603
-51.1256
-51.8337
-52.6846
-53.6955
-47.7248
-47.999
-48.2648
-48.5041
-48.8982
-49.1171
-50.2904
-51.5174
-52.2515
-53.5186
-54.531
-57.3042
-48.0414
-48.384
-48.7569
-49.079
-49.3668
-49.3292
-50.5195
-51.5142
-52.4752
-54.2691
-55.2646
-57.5423
-60.8437
-48.6336
-49.098
-49.4398
-49.744
-49.9745
-50.1777
-50.4972
-51.3396
-52.6078
-53.9208
-55.8955
-57.2894
-59.6125
-49.0834
-49.7363
-50.3359
-50.4755
-50.9662
-51.1927
-50.7243
-51.5135
-52.6995
-53.8406
-55.3457
-57.2891
-58.6147
-60.1055
-50.0612
-50.5377
-51.5277
-51.3001
-51.6294
-52.1607
-51.3522
-51.6336
-52.7537
-54.3327
-55.1614
-56.398
-57.963
-58.8934
-59.6938
-50.83
-50.8781
-51.5916
-51.6473
-52.1089
-52.5324
-52.399
-52.2682
-53.0289
-53.9324
-55.0813
-56.2594
-56.8199
-57.8577
-58.3456
-58.4116
-51.7634
-51.593
-51.822
-51.9178
-52.2628
-52.6001
-52.7774
-52.7183
-53.2589
-54.0557
-54.9088
-55.6918
-56.2911
-56.7217
-57.1669
-57.1663
-56.6674
-53.218
-52.6646
-52.4228
-52.648
-52.7444
-53.0716
-53.2179
-53.2275
-53.5649
-54.1839
-54.6927
-55.1743
-55.7089
-55.8256
-56.0335
-56.0218
-55.988
-55.3145
-54.7825
-53.682
-53.227
-53.3547
-53.2719
-53.0391
-53.1341
-53.3759
-53.8356
-54.1204
-54.6339
-54.834
-55.0499
-55.1936
-55.1748
-55.1246
-55.0687
-54.8645
-54.8255
-56.7026
-55.7183
-54.8997
-54.2867
-53.9822
-53.9036
-53.6068
-53.6645
-54.0974
-54.0957
-54.3715
-54.3707
-54.3992
-54.5041
-54.5377
-54.4785
-54.4647
-54.448
-54.8085
-54.9434
-58.9694
-57.5416
-56.5037
-55.9532
-55.3798
-54.4167
-54.5804
-53.9135
-54.0284
-54.1272
-54.1721
-54.2142
-54.155
-53.9265
-53.9586
-53.9326
-53.9242
-54.0063
-54.3773
-54.7956
-55.1504
-61.1639
-59.7882
-58.5404
-57.6977
-56.5198
-55.6463
-54.9784
-54.7436
-54.6458
-54.4819
-54.0865
-53.5444
-53.5896
-53.5043
-53.4629
-53.4958
-53.3829
-53.5373
-53.8186
-54.0759
-54.4324
-54.896
-46.2356
-46.3751
-46.5351
-46.5783
-46.5708
-46.4748
-46.5833
-46.5738
-46.5695
-46.6742
-46.6568
-46.6669
-46.6579
-46.7208
-46.7842
-46.6248
-46.727
-46.6917
-46.7572
-46.9639
-47.1277
-46.7118
-46.7636
-46.7427
-46.9539
-46.9169
-47.2809
-47.6641
-46.7505
-46.8707
-46.9946
-46.9994
-47.2152
-47.4425
-48.0575
-48.2942
-46.7995
-46.9168
-46.9949
-47.003
-47.2594
-47.7808
-48.2141
-48.5993
-49.2537
-46.9766
-47.0318
-47.1221
-47.0509
-47.3867
-47.6425
-48.535
-49.0577
-49.8325
-50.0502
-47.1867
-47.2251
-47.4393
-47.521
-47.7188
-47.8936
-49.103
-49.6226
-50.3577
-50.9849
-51.7003
-47.2647
-47.4206
-47.5288
-47.7403
-47.8869
-48.5871
-49.5526
-50.3654
-50.839
-51.7132
-52.3225
-47.4907
-47.6111
-47.7245
-48.1561
-48.3245
-48.6815
-49.7095
-50.9305
-51.5176
-52.4145
-53.2819
-56.2052
-47.6416
-47.881
-48.2569
-48.3314
-48.8611
-48.9582
-50.2174
-51.308
-51.9858
-53.0002
-54.2962
-56.7527
-60.7267
-48.0554
-48.3828
-48.7279
-49.0558
-49.3541
-49.2453
-50.1133
-50.9974
-51.9942
-53.6486
-54.4828
-56.7142
-59.5845
-61.9541
-48.7381
-48.9907
-49.4642
-49.7468
-49.912
-50.1725
-50.1728
-51.0527
-51.9327
-53.3904
-55.1821
-56.561
-58.8039
-60.7683
-49.0169
-49.4231
-50.2367
-50.5103
-51.0467
-51.1281
-50.6796
-51.3538
-52.2628
-53.3452
-55.0169
-56.6458
-57.9607
-59.5328
-60.4051
-49.7318
-50.2116
-51.3871
-51.3636
-51.9445
-51.827
-51.3935
-51.1295
-52.6343
-54.1063
-54.7901
-55.9808
-57.2951
-58.3575
-59.2695
-59.0799
-50.7034
-50.8833
-51.1915
-51.5773
-52.1791
-52.5077
-52.1503
-52.3685
-52.7935
-53.5744
-54.6284
-55.7677
-56.4537
-57.4798
-57.9418
-58.2254
-57.9213
-51.716
-51.5421
-51.6437
-51.8046
-52.1751
-52.5131
-52.5822
-52.8151
-52.9768
-53.8155
-54.653
-55.3705
-56.0061
-56.426
-56.9287
-56.9918
-56.6496
-55.8576
-53.2746
-52.6902
-52.279
-52.4442
-52.6941
-52.7817
-52.9687
-53.0768
-53.376
-53.9428
-54.476
-54.9073
-55.4517
-55.6101
-55.8408
-55.8653
-56.0021
-55.4743
-55.1141
-54.8181
-53.6966
-53.1268
-53.2053
-53.106
-53.0716
-53.0261
-53.1263
-53.6
-53.8421
-54.4398
-54.6276
-54.8947
-55.0521
-55.0541
-55.0884
-55.1472
-55.0341
-55.0852
-55.1635
-56.823
-55.7292
-54.8836
-54.239
-53.8267
-53.6497
-53.5287
-53.5563
-53.9365
-53.9096
-54.1897
-54.2292
-54.2734
-54.3923
-54.4678
-54.4467
-54.4677
-54.5354
-55.0318
-55.2543
-55.3991
-59.0849
-57.5882
-56.5056
-55.9093
-55.3419
-54.3086
-54.3735
-53.7915
-53.9107
-54.0124
-54.0781
-54.0813
-54.0564
-53.8592
-53.9187
-53.9027
-53.9652
-54.0792
-54.4802
-54.9324
-55.3322
-55.9278
-61.1733
-59.8088
-58.5377
-57.6703
-56.4685
-55.6271
-54.9454
-54.6656
-54.5819
-54.4227
-54.0452
-53.5198
-53.5435
-53.4858
-53.444
-53.5018
-53.3919
-53.568
-53.8804
-54.0986
-54.4517
-54.9851
-55.2913
-46.2446
-46.2438
-46.4804
-46.5188
-46.4109
-46.5509
-46.5268
-46.3869
-46.4514
-46.612
-46.4867
-46.4815
-46.4873
-46.6294
-46.5706
-46.6589
-46.6251
-46.5639
-46.7191
-46.7014
-46.5886
-46.6134
-46.7224
-46.778
-46.7326
-47.0573
-47.2867
-46.6385
-46.4557
-46.765
-46.8267
-46.9013
-47.0483
-47.5761
-47.8064
-46.7259
-46.796
-46.954
-46.8899
-47.0458
-47.29
-47.8067
-48.159
-48.3801
-46.7751
-46.863
-47.0769
-46.9994
-47.0714
-47.5456
-48.1518
-48.4326
-48.9951
-49.501
-47.0336
-46.903
-47.1505
-47.1087
-47.4167
-47.4917
-48.3361
-49.1029
-49.5387
-49.8252
-50.5338
-47.1186
-47.2124
-47.2671
-47.4951
-47.6343
-48.0231
-48.8809
-49.3409
-50.0998
-50.6452
-51.3852
-52.6603
-47.3325
-47.3558
-47.53
-47.6815
-47.8007
-48.4455
-49.0924
-49.9974
-50.7452
-51.2801
-52.1933
-53.9075
-47.5117
-47.5587
-47.9108
-47.9527
-48.3952
-48.609
-49.5377
-50.7172
-50.891
-51.8428
-53.0008
-55.3666
-57.9433
-47.9135
-47.9778
-48.2294
-48.3373
-48.7343
-48.8617
-49.2832
-50.9592
-51.3943
-52.5005
-53.4507
-56.0571
-59.6292
-63.0539
-48.1838
-48.3065
-48.7362
-49.012
-49.2735
-49.3286
-49.6163
-50.8954
-51.7058
-53.1754
-54.0869
-55.804
-58.4528
-61.6871
-61.4613
-48.8614
-48.7693
-49.2932
-49.7312
-49.9228
-50.1003
-50.1194
-50.8166
-51.6905
-52.7221
-54.6696
-56.115
-57.8129
-60.2471
-60.7688
-49.1728
-49.3167
-49.9855
-50.5823
-51.1295
-50.9692
-50.6593
-50.998
-52.1022
-52.933
-54.5917
-56.1378
-57.4223
-58.8058
-60.0555
-60.1521
-49.6737
-49.7421
-50.8608
-51.3477
-51.7009
-51.6559
-51.3562
-51.1379
-52.207
-53.3839
-54.4655
-55.5486
-56.7412
-57.8329
-58.817
-58.9276
-58.7967
-50.7265
-50.3622
-50.8594
-51.4131
-51.696
-52.1725
-52.0362
-52.2543
-52.5191
-53.3855
-54.4592
-55.4028
-56.1107
-57.069
-57.5609
-57.9843
-57.7117
-56.7166
-51.8528
-51.45
-51.4613
-51.7637
-51.9243
-52.184
-52.232
-52.636
-52.7296
-53.6847
-54.3321
-55.0916
-55.7208
-56.1362
-56.7
-56.8112
-56.6384
-56.0005
-55.0253
-53.3578
-52.7611
-52.2204
-52.2962
-52.5554
-52.5791
-52.462
-52.9893
-53.1893
-53.6814
-54.2486
-54.6548
-55.1818
-55.43
-55.6707
-55.8087
-56.0432
-55.577
-55.3364
-54.9268
-54.9891
-53.8075
-53.0701
-53.084
-52.9086
-53.0328
-52.8121
-53.0421
-53.3426
-53.6244
-54.2223
-54.4097
-54.712
-54.9285
-54.9516
-55.086
-55.2055
-55.2126
-55.4701
-55.4859
-55.4583
-56.9319
-55.7932
-54.8788
-54.2158
-53.7303
-53.567
-53.3917
-53.5314
-53.7411
-53.7664
-54.0361
-54.0782
-54.1595
-54.2905
-54.3982
-54.4463
-54.4864
-54.6486
-55.2674
-55.537
-55.7119
-56.6197
-59.2455
-57.6548
-56.5345
-55.8717
-55.3055
-54.2141
-54.2774
-53.706
-53.8041
-53.9138
-53.9827
-53.9464
-53.9589
-53.7927
-53.8665
-53.8898
-54.0128
-54.1213
-54.5794
-55.0383
-55.5044
-56.1063
-56.5552
-61.2186
-59.8369
-58.5222
-57.6422
-56.4367
-55.5968
-54.9184
-54.5931
-54.5205
-54.3738
-54.0056
-53.4955
-53.4957
-53.4557
-53.4225
-53.4991
-53.3959
-53.5703
-53.9312
-54.1304
-54.4342
-55.0295
-55.3716
-55.3644
-46.2269
-46.2116
-46.0918
-46.3278
-46.2834
-46.2757
-46.2996
-46.6279
-46.5122
-46.3042
-46.2345
-46.3973
-46.5215
-46.4705
-46.5838
-46.4456
-46.5398
-46.6146
-46.4862
-46.5824
-46.545
-46.5852
-46.5709
-46.8284
-46.9681
-46.6243
-46.5989
-46.6915
-46.6908
-46.6496
-46.9771
-47.1993
-47.3523
-46.6554
-46.648
-46.6771
-46.9308
-46.8347
-46.9937
-47.5165
-47.6483
-47.9394
-46.6646
-46.7307
-46.8052
-46.9685
-46.8953
-47.4559
-47.6487
-48.1087
-48.3212
-48.9041
-46.8359
-46.8534
-46.9791
-47.055
-46.9784
-47.3345
-47.7922
-48.4192
-48.8105
-49.3598
-49.701
-46.9936
-46.9842
-47.1566
-47.2821
-47.399
-47.5344
-48.2212
-48.865
-49.3675
-49.8652
-50.3373
-51.0223
-47.0063
-47.1862
-47.3397
-47.2542
-47.5238
-47.8245
-48.6794
-49.202
-49.8008
-50.2655
-51.3322
-52.014
-54.1176
-47.5094
-47.3374
-47.5582
-47.6466
-48.0243
-48.0855
-49.0677
-49.7482
-50.1118
-51.0376
-51.9257
-53.2882
-56.2446
-47.5124
-47.5307
-47.7868
-47.9619
-48.1783
-48.506
-49.1938
-50.4471
-50.8722
-51.527
-52.4666
-54.644
-57.7685
-60.6637
-47.6364
-47.7714
-48.1032
-48.5008
-48.5762
-48.7371
-49.3381
-50.7351
-51.1537
-51.9942
-53.1989
-55.0525
-58.4818
-62.5395
-61.5963
-48.1494
-48.2196
-48.5213
-49.1507
-49.1836
-49.153
-49.5071
-50.5962
-51.5111
-52.8184
-53.8095
-55.0465
-57.3675
-61.0515
-61.5221
-61.1903
-48.7797
-48.8599
-49.0756
-49.7588
-49.9331
-49.9352
-49.8399
-50.4475
-51.5154
-52.1425
-54.4498
-55.7635
-57.1076
-59.4481
-60.6804
-60.2635
-49.1563
-49.0345
-49.6028
-50.5653
-50.6979
-51.0119
-50.5618
-50.6854
-51.8194
-52.6671
-54.1447
-55.6827
-56.9456
-58.1149
-59.5899
-59.7663
-59.5017
-49.7732
-49.472
-50.3998
-51.1957
-51.365
-51.8111
-51.4542
-50.9487
-51.3836
-52.9958
-54.2215
-55.2115
-56.3328
-57.4265
-58.3553
-58.6818
-58.5658
-57.4383
-50.9816
-50.3603
-50.7019
-51.2456
-51.6465
-51.8785
-51.9949
-51.9374
-52.3882
-53.1456
-54.1951
-55.0946
-55.7496
-56.6729
-57.2209
-57.7155
-57.357
-56.647
-55.2976
-52.0171
-51.4261
-51.3117
-51.5487
-51.7615
-52.0492
-52.1417
-52.4338
-52.5817
-53.2787
-54.0378
-54.8309
-55.4626
-55.9005
-56.4812
-56.6078
-56.6305
-56.1797
-55.4161
-54.5041
-53.399
-52.7855
-52.2218
-52.1677
-52.3641
-52.4199
-52.3179
-52.7421
-53.0663
-53.4558
-54.0413
-54.4458
-55.0118
-55.2819
-55.5139
-55.8103
-56.0884
-55.7373
-55.6141
-55.3125
-55.2163
-55.1749
-53.9958
-53.1774
-53.0422
-52.8063
-52.9654
-52.4317
-52.7637
-53.165
-53.4555
-53.9854
-54.2196
-54.5419
-54.8031
-54.8632
-55.0785
-55.2716
-55.4132
-55.8211
-56.0222
-56.1503
-56.3569
-57.0895
-55.9078
-54.8651
-54.1932
-53.6587
-53.4734
-53.2698
-53.3927
-53.542
-53.6548
-53.8885
-53.9275
-54.0379
-54.2053
-54.3341
-54.4453
-54.5337
-54.7898
-55.4883
-55.8796
-56.0979
-57.0249
-57.3599
-59.3937
-57.7386
-56.5713
-55.864
-55.2952
-54.1615
-54.0898
-53.5318
-53.6962
-53.8254
-53.8811
-53.8231
-53.8693
-53.7231
-53.817
-53.8783
-54.0349
-54.1615
-54.6687
-55.1562
-55.669
-56.2895
-56.7852
-56.7579
-59.8844
-58.5311
-57.6019
-56.4228
-55.5599
-54.8908
-54.5331
-54.4613
-54.3419
-53.9682
-53.4723
-53.4492
-53.4142
-53.3988
-53.4943
-53.3985
-53.6344
-53.9768
-54.2363
-54.5816
-55.0556
-55.4819
-55.3698
-57.1096
-46.2071
-46.2597
-46.1127
-46.0339
-46.4655
-46.4039
-46.2575
-46.1972
-46.1917
-46.498
-46.4734
-46.3174
-46.1744
-46.2806
-46.3354
-46.4492
-46.472
-46.4459
-46.4455
-46.4758
-46.5706
-46.7029
-46.5272
-46.4691
-46.5725
-46.5635
-46.5086
-46.8098
-46.9294
-46.9665
-46.7765
-46.6059
-46.5722
-46.7325
-46.7055
-46.7553
-47.2153
-47.1922
-47.5311
-46.7695
-46.6423
-46.6757
-46.826
-46.711
-46.9934
-47.2087
-47.6255
-47.8619
-48.189
-46.6603
-46.8326
-46.7756
-46.9031
-46.8865
-47.0601
-47.4379
-47.9709
-48.2475
-48.6615
-49.1849
-46.7781
-46.8089
-46.9658
-47.0405
-47.1478
-47.2685
-47.7327
-48.2331
-48.6691
-49.2121
-49.5868
-50.2065
-46.8994
-46.9571
-47.1763
-47.0459
-47.2905
-47.4716
-48.2543
-48.7563
-49.2785
-49.7063
-50.1972
-50.8157
-52.5215
-47.0258
-47.1419
-47.181
-47.3646
-47.6899
-47.6427
-48.6708
-48.8704
-49.2561
-50.0599
-50.8906
-51.8186
-53.8971
-54.6906
-47.3298
-47.4216
-47.4935
-47.646
-47.9468
-48.1945
-48.8365
-49.5619
-50.1261
-50.6201
-51.4228
-53.0855
-55.5658
-57.0922
-47.4736
-47.5475
-47.8006
-48.0582
-48.065
-48.2548
-49.0136
-50.348
-50.8048
-51.3714
-52.2768
-53.6705
-56.9562
-60.7645
-61.2323
-47.8579
-47.8117
-48.0224
-48.4361
-48.636
-48.6385
-49.1077
-50.5096
-51.025
-51.7011
-52.4957
-53.9119
-58.1948
-61.7207
-62.0892
-60.0491
-48.0181
-48.254
-48.493
-49.0715