/*--------------------------------*- C++ -*----------------------------------*\
  =========                 |
  \\      /  F ield         | OpenFOAM: The Open Source CFD Toolbox
   \\    /   O peration     | Website:  https://openfoam.org
    \\  /    A nd           | Version:  7
     \\/     M anipulation  |
\*---------------------------------------------------------------------------*/
FoamFile
{
    version     2.0;
    format      ascii;
    class       surfaceScalarField;
    location    "7.5";
    object      phi;
}
// * * * * * * * * * * * * * * * * * * * * * * * * * * * * * * * * * * * * * //

dimensions      [0 3 -1 0 0 0 0];

internalField   nonuniform List<scalar> 
54184
(
0.000142843
-0.00252187
-2.79644e-05
0.000340714
-0.00297731
-0.000107467
0.000148546
-0.0026704
-3.04322e-05
0.000201226
-0.00216353
-3.7721e-05
0.000432275
-0.00412404
-2.73986e-05
0.000382451
-0.00320484
-0.000132677
0.000415484
-0.0025231
-8.57574e-05
0.000139908
-0.00281115
-2.9209e-05
0.00022015
-0.00237664
-3.74722e-05
0.000262601
-0.00115674
-3.29265e-05
0.000182116
-0.00424465
-9.50779e-05
0.000435813
-0.00421102
-1.70038e-05
0.000516855
-0.00271832
-7.80844e-05
0.000353357
-0.00343075
-0.000123411
0.000466048
-0.00280441
-9.72588e-05
0.000546607
-0.0017398
-0.000131747
0.000130439
-0.00294276
-2.74262e-05
0.000221932
-0.00259426
-3.35156e-05
0.000288832
-0.00144637
-3.66797e-05
0.000294698
-0.000306499
-1.48005e-05
-1.32735e-06
-0.00365105
6.48847e-05
0.000141388
-0.00406076
-9.59394e-05
6.04319e-05
-0.00497882
6.37445e-05
0.000400817
-0.00431644
-1.37828e-05
0.000615173
-0.0028086
-7.58528e-05
0.00071653
-0.00212651
-0.000188834
0.000321299
-0.00363262
-9.93956e-05
0.000421792
-0.00303396
-9.37259e-05
0.000601923
-0.00200553
-0.000144618
0.000576064
-0.000929804
-0.000132615
0.000114448
-0.00305752
-2.76988e-05
0.0002203
-0.00281085
-3.11398e-05
0.000292122
-0.0017371
-3.49076e-05
0.000317429
-0.000643157
-1.74511e-05
0.000347665
0.000276343
-1.0438e-06
0.000298607
-0.00652271
0.000756001
0.00013084
-0.00387484
0.000103367
-8.56053e-07
-0.0049646
-1.84445e-05
0.000200108
-0.00395323
-0.000155669
0.000133423
-0.00468599
9.29817e-05
0.000539528
-0.00466439
7.61994e-05
0.00034677
-0.00441027
-1.41198e-05
0.000514803
-0.00288545
-2.99393e-05
0.000780089
-0.00221321
-0.000167322
0.000670337
-0.00260833
-0.00027324
0.00027339
-0.00382325
-7.82521e-05
0.000411936
-0.00323645
-8.85422e-05
0.000583501
-0.00224759
-0.000143039
0.000633648
-0.00122971
-0.000160927
0.000603111
-0.000328035
-9.46426e-05
9.83894e-05
-0.00315819
-2.76506e-05
0.000211391
-0.00301999
-2.99501e-05
0.00029487
-0.00203204
-3.1065e-05
0.000319378
-0.00097569
-2.17524e-05
0.000379069
-0.000123185
3.00776e-06
0.000336264
0.00117712
-1.15632e-05
0.000545815
-0.00634541
0.00101965
0.000269841
-0.00649417
0.000925937
0.000324979
-0.00509207
0.000327886
0.000225152
-0.00391846
-4.29036e-05
1.49321e-05
-0.00465047
-9.22686e-05
0.000554461
-0.00522283
-0.000174137
0.000203544
-0.00392581
-0.000178534
6.09423e-05
-0.00445153
6.37289e-05
0.000505019
-0.00440915
0.000112812
0.000888888
-0.00344709
-8.21694e-05
0.000294195
-0.00450691
-2.90705e-05
0.000464491
-0.00293163
-2.04963e-05
0.000763729
-0.00234353
-7.98454e-05
0.000770147
-0.00263555
-0.000276608
0.000746156
-0.00244425
-0.000240557
0.000252505
-0.00399286
-6.19521e-05
0.000409176
-0.00343178
-8.07056e-05
0.000578078
-0.00248723
-0.000132118
0.000630461
-0.00151493
-0.000168901
0.000658387
-0.000653432
-0.000114847
0.000622339
-9.44457e-06
-0.000114004
8.73676e-05
-0.00324803
-2.8582e-05
0.000195674
-0.00321615
-2.71638e-05
0.0002936
-0.00232834
-2.72459e-05
0.000319667
-0.00130308
-2.33459e-05
0.000378806
-0.000526385
2.64192e-06
0.000378354
0.000812166
-1.03927e-05
0.000294668
0.0022425
-1.64914e-05
0.000989151
-0.00661073
0.0011315
0.000391657
-0.006469
0.00121889
0.000461586
-0.00602469
0.000926885
0.000630548
-0.00669887
0.000843961
0.000325787
-0.00495656
0.00047958
0.000962508
-0.00525248
-0.0002043
0.00024315
-0.00380527
-0.000157665
-6.68398e-05
-0.00435129
-0.000214305
0.000473368
-0.00528652
3.06885e-06
0.00107553
-0.00373556
-0.000420993
0.000381582
-0.00420203
-0.00019906
6.52726e-05
-0.00430406
7.32139e-05
0.000529458
-0.00412955
1.8394e-05
0.00101466
-0.00358921
1.04095e-05
0.00111298
-0.00295077
-0.000304236
0.000290867
-0.00456961
-7.81385e-05
0.000497998
-0.00303148
-1.80404e-05
0.000698283
-0.00240803
-7.62031e-05
0.000812841
-0.00266406
-0.000233717
0.000812716
-0.00255434
-0.000320846
0.0010204
-0.000894593
-0.00013092
0.000261199
-0.00419424
-4.95203e-05
0.000412274
-0.00364262
-6.77138e-05
0.000567332
-0.00272702
-0.000114644
0.000614607
-0.00178685
-0.000155143
0.000669525
-0.000991702
-0.000121352
0.000620172
-0.000255754
-0.000110356
0.000606959
0.000361839
-9.62608e-05
8.08863e-05
-0.00333326
-2.31954e-05
0.000183903
-0.00340178
-2.68602e-05
0.000288488
-0.00262017
-2.38227e-05
0.000319786
-0.001628
-2.21133e-05
0.000380757
-0.000931792
1.30513e-06
0.000388636
0.000433116
-6.94493e-06
0.000333289
0.00191803
-1.92116e-05
0.000265563
0.00208283
-1.32815e-05
0.00122268
-0.00676874
0.00146585
0.00100568
-0.00719992
0.00143257
0.000874627
-0.00606666
0.00115087
0.000703549
-0.00628208
0.000702108
0.000324518
-0.00592908
0.00112455
0.00133042
-0.00570144
0.000328487
0.000356601
-0.00659488
0.00082603
0.000416636
-0.00489247
0.000296388
0.000865068
-0.00498384
-0.000180757
0.00128317
-0.00444405
-0.00057231
0.000455593
-0.00400166
-3.60645e-05
-1.52009e-05
-0.00415301
-0.000275468
0.000384383
-0.00516189
-0.000193861
0.00116376
-0.00384042
-4.11659e-05
0.00117779
-0.00426351
-0.000511731
0.000411218
-0.00453603
-0.000237971
0.000236665
-0.00432818
8.6398e-05
0.000468659
-0.00387747
5.07593e-05
0.000911512
-0.00363794
-3.15377e-05
0.00112877
-0.00316211
-9.43016e-05
0.00128093
-0.00287058
-0.000473145
0.000334119
-0.00471048
-0.000137022
0.00055616
-0.00323245
-2.10534e-05
0.000737556
-0.00250907
-8.72268e-05
0.000794128
-0.00268917
-0.000230613
0.000792182
-0.0025933
-0.000317415
0.00106624
-0.00139119
-0.000270315
0.00102866
-0.000698229
-0.000100602
0.000254706
-0.00438529
-2.89744e-05
0.000412138
-0.00387574
-4.46371e-05
0.000517276
-0.00292853
-9.49904e-05
0.000617848
-0.00206363
-0.000135922
0.000685254
-0.00134147
-0.00010987
0.000604805
-0.000491394
-0.00010188
0.000618933
3.75198e-05
-7.16796e-05
0.000612552
0.000601793
-4.92235e-05
6.9864e-05
-0.00340901
-2.39565e-05
0.000170084
-0.00356964
-2.54103e-05
0.000279819
-0.00290627
-2.05809e-05
0.000317739
-0.00195023
-1.93265e-05
0.000377321
-0.00133186
6.32539e-07
0.000399646
3.8004e-05
-3.22861e-06
0.00034458
0.00158523
-1.87204e-05
0.000299468
0.00178046
-1.63154e-05
0.000242317
0.00236992
-1.79574e-05
0.00131125
-0.00643459
0.00194807
0.00127074
-0.00663918
0.0019033
0.00123507
-0.00681391
0.00188596
0.00129232
-0.00571327
0.00143725
0.000739634
-0.00701635
0.00139688
0.000603269
-0.00656998
0.00165715
0.00144988
-0.0057678
0.00091527
0.000604921
-0.00627095
0.0012783
0.000337286
-0.00621461
0.00106699
0.00113565
-0.00535384
0.000506372
0.00156215
-0.00546371
-0.000405532
0.000394209
-0.0061937
0.000771976
0.000526494
-0.00483839
0.000230261
0.00069637
-0.00458414
-0.000415299
0.0013902
-0.0041319
-0.000719355
0.00115906
-0.00412348
-0.000985529
0.000686576
-0.00425529
-0.000283091
0.000136405
-0.00396194
-0.000126882
0.00032011
-0.00523361
-5.52049e-05
0.000951264
-0.00375782
-0.000316213
0.00125569
-0.00392283
-0.00050876
0.00110964
-0.00420813
-0.000457072
0.000432693
-0.00483293
-0.00023223
0.00025017
-0.00435028
9.01101e-05
0.000470825
-0.00389369
0.000369356
0.000917609
-0.00362525
-8.5419e-05
0.00107859
-0.00340406
-7.59888e-05
0.00137297
-0.00296261
-0.000309006
0.00120815
-0.00311601
-0.00041951
0.000353868
-0.00486092
-0.000189903
0.00059415
-0.00350769
-4.37933e-05
0.000683315
-0.00262805
-6.81094e-05
0.00076042
-0.00268054
-0.000238421
0.000790414
-0.00262507
-0.000303998
0.000956939
-0.00178767
-0.000273065
0.00102121
-0.00120454
-0.000166291
0.000983614
-0.00119167
-5.63121e-05
0.000241154
-0.00457415
-4.85617e-05
0.00039887
-0.004098
-3.54981e-05
0.000499307
-0.00312259
-7.00689e-05
0.000613426
-0.00234322
-0.000111085
0.000691328
-0.00168931
-0.000102088
0.000633998
-0.000738095
-9.75213e-05
0.000602975
-0.000285206
-3.75493e-05
0.000702216
0.000159632
-3.22664e-05
0.000585024
0.00140361
-8.38811e-05
5.55635e-05
-0.00346996
-2.39057e-05
0.00015802
-0.00372876
-2.28638e-05
0.000266535
-0.00317993
-1.82923e-05
0.000313836
-0.00226735
-1.7297e-05
0.000368277
-0.00171925
-2.14979e-07
0.000400765
-0.00036095
-1.17801e-06
0.000347043
0.00125551
-2.0554e-05
0.000310295
0.00146872
-1.72752e-05
0.000268741
0.0021042
-1.93407e-05
0.000187369
0.00324899
-2.75807e-05
0.00132707
-0.0060309
0.00251757
0.00143536
-0.00633207
0.00204115
0.00169952
-0.00625479
0.00180695
0.00131126
-0.00639202
0.00200837
0.0017244
-0.00597054
0.00165298
0.00109417
-0.00698793
0.00198842
0.00153811
-0.00643328
0.00167113
0.00164233
-0.00516451
0.00130817
0.00106453
-0.00706287
0.00153493
0.000562451
-0.00693704
0.00153877
0.00128573
-0.00558021
0.00131948
0.00166595
-0.00590583
0.000545467
0.000525274
-0.0060845
0.00111779
0.00070421
-0.00617015
0.00105612
0.000959719
-0.00545704
0.000906841
0.00161362
-0.00477354
-0.00040722
0.00112035
-0.00515761
-0.000685945
0.000697252
-0.00615145
0.000538833
0.000478384
-0.00474822
0.000339823
0.000576498
-0.00421825
-0.000392017
0.00158943
-0.00447771
-0.000707648
0.00134535
-0.00408295
-0.000849547
0.000880559
-0.00434231
-0.0010411
0.000761588
-0.00458247
-0.000277914
0.000143882
-0.00381891
-0.000319829
0.000251236
-0.00515258
1.16814e-05
0.00106364
-0.00378314
-0.000175925
0.00120521
-0.00363596
-0.000729701
0.00132439
-0.00408468
-0.00058363
0.0012742
-0.00382797
-0.000493148
0.000407726
-0.0050095
-0.000204194
0.000357672
-0.00437014
2.41095e-05
0.000515678
-0.00368937
5.3418e-05
0.000833929
-0.00356203
0.000232631
0.00101109
-0.00358274
-0.000127421
0.00111448
-0.00285931
-0.000336833
0.0012592
-0.00319897
-0.000464032
0.00114321
-0.00233926
-0.000207009
0.000441807
-0.00509327
-0.000221569
0.000596171
-0.0037973
-9.7597e-05
0.00066748
-0.00276317
-7.68441e-05
0.000738799
-0.00265803
-0.000215993
0.000798832
-0.00270338
-0.000267615
0.000895331
-0.00209353
-0.000259478
0.000933746
-0.00163432
-0.000174051
0.00102289
-0.00160817
-7.04693e-05
0.000998426
0.00053918
-9.81628e-05
0.000194761
-0.00472789
-5.83356e-05
0.000389355
-0.00434017
-3.77238e-05
0.000497485
-0.00332788
-6.11526e-05
0.000599016
-0.00261083
-8.76451e-05
0.000678177
-0.00201754
-9.27586e-05
0.00066942
-0.00101167
-9.71666e-05
0.000576093
-0.000572946
-3.88319e-05
0.000723776
-0.00029884
7.44295e-06
0.000654086
0.00107369
-8.76906e-05
0.000470428
0.00234702
-0.000119712
4.14374e-05
-0.00351832
-2.33187e-05
0.000145524
-0.00387537
-2.28174e-05
0.000254777
-0.0034415
-1.60618e-05
0.000307393
-0.00257697
-1.60645e-05
0.000356922
-0.00209076
-2.70705e-06
0.000391831
-0.000750827
-2.16946e-06
0.000349022
0.000924469
-1.91605e-05
0.000310326
0.00115751
-1.96664e-05
0.00026905
0.0018376
-1.97286e-05
0.000220269
0.00304024
-3.08536e-05
0.000190792
0.00290348
-2.41284e-05
0.00132601
-0.00618933
0.00284676
0.00144348
-0.00600096
0.00240803
0.00190281
-0.00606916
0.00224768
0.00134206
-0.00618756
0.00230027
0.0020336
-0.00630511
0.00178226
0.00171398
-0.00555617
0.00178756
0.00129429
-0.00676309
0.00239765
0.0019886
-0.0061144
0.00170174
0.00174882
-0.00517994
0.00156262
0.00101362
-0.00707471
0.00214961
0.000972391
-0.0066196
0.0017648
0.00160981
-0.00540579
0.00158832
0.00161369
-0.0057789
0.00131562
0.000724187
-0.00700714
0.0016696
0.000899106
-0.00715495
0.00155794
0.00119296
-0.00572821
0.00145352
0.00179031
-0.00553833
0.000775292
0.00150842
-0.00576262
1.00611e-05
0.000912275
-0.00607596
0.00127926
0.000421552
-0.00592223
0.000926701
0.000896505
-0.00534958
0.000628648
0.00215843
-0.00449682
6.11287e-05
0.00136136
-0.004888
-0.000692839
0.00108913
-0.00535618
-0.0006305
0.000784988
-0.00612381
0.000410506
0.000553501
-0.00491676
0.000297754
0.000583406
-0.0038895
-0.000321098
0.0010528
-0.00417854
-0.000680346
0.00119926
-0.00393509
-0.000849562
0.0012238
-0.00435695
-0.000734322
0.00130299
-0.00437556
-0.000757905
0.000824517
-0.00494817
-0.000336834
0.000223601
-0.00374217
-0.000220585
0.000253383
-0.00509444
-0.00011567
0.00094767
-0.00380751
-7.76881e-05
0.00117138
-0.00340161
-0.000570571
0.000858722
-0.00379857
-0.000760052
0.00127902
-0.00381525
-0.000616171
0.00127252
-0.00259544
-0.000371323
0.000608385
-0.0052534
-0.000132385
0.000360257
-0.00432214
-1.62804e-05
0.000542902
-0.00377902
0.000238347
0.000745993
-0.00348643
-2.93798e-05
0.000954828
-0.00334904
-0.000157067
0.00116582
-0.00294451
-0.000312702
0.00114979
-0.00321179
-0.000540062
0.00108673
-0.00259394
-0.000273195
0.00130081
-0.00051054
-0.000209549
0.000458591
-0.00535825
-0.000236995
0.000593897
-0.0040547
-0.000168713
0.000647928
-0.00294628
-6.49321e-05
0.000782769
-0.00272861
-0.000190018
0.000814495
-0.00281959
-0.000236105
0.000865473
-0.00230926
-0.000247941
0.000887806
-0.00201475
-0.000190756
0.000936403
-0.00189319
-0.000101659
0.00111709
3.56212e-05
-2.99176e-05
0.000803895
0.00113283
-0.000177931
0.00015021
-0.0048503
-3.89304e-05
0.000369384
-0.00458627
-3.60933e-05
0.000488481
-0.00355138
-4.79266e-05
0.000577798
-0.00287827
-6.41187e-05
0.000670499
-0.00234239
-7.63717e-05
0.000683092
-0.0012872
-0.000108492
0.000542743
-0.000790938
-7.28954e-05
0.000704126
-0.000752935
2.1463e-05
0.000649932
0.000772378
-7.2129e-05
0.000570355
0.00203541
-0.000126161
0.000488477
0.00191543
-9.25968e-05
2.9453e-05
-0.00355492
-2.27507e-05
0.000133348
-0.00401081
-2.12248e-05
0.000242678
-0.0036929
-1.41045e-05
0.000298453
-0.00287813
-1.3358e-05
0.000346701
-0.0024478
-5.72538e-06
0.000378298
-0.00112546
-6.36867e-06
0.000352063
0.000585609
-1.5372e-05
0.000301261
0.000856832
-1.97457e-05
0.000274951
0.0015618
-1.88149e-05
0.000231659
0.00281943
-3.05768e-05
0.000230235
0.00267007
-2.7671e-05
0.000189006
0.0027267
-1.60942e-05
0.00139103
-0.00534953
0.0038313
0.00124895
-0.00552739
0.00321627
0.00111275
-0.0058345
0.00268451
0.00194924
-0.00589708
0.00278937
0.0013087
-0.00598236
0.00269852
0.00213991
-0.00602171
0.00225426
0.00206274
-0.00575686
0.00198417
0.00126058
-0.00622146
0.00255426
0.00183763
-0.00611004
0.00225616
0.00178225
-0.00559174
0.00178441
0.00197333
-0.00539157
0.00145777
0.00111115
-0.00695344
0.00221736
0.00117788
-0.00630737
0.00238513
0.00171456
-0.00547647
0.00189352
0.00167252
-0.00542642
0.00152974
0.000914508
-0.00699875
0.00192379
0.00118703
-0.00703064
0.00227273
0.00134791
-0.00561302
0.00181708
0.00174559
-0.00555872
0.00141287
0.00184417
-0.00597658
0.000795503
0.000987438
-0.00700179
0.00184521
0.00035162
-0.00704182
0.00162641
0.00112075
-0.00581472
0.00142021
0.00185235
-0.00509618
0.00131745
0.00150663
-0.00544508
0.000312479
0.00158955
-0.0056364
-0.000556753
0.000912676
-0.00606823
0.00122633
0.000716024
-0.00597894
0.00117345
0.000762742
-0.0052111
0.000608881
0.00145022
-0.00422946
-3.61391e-05
0.00137386
-0.00442049
-0.000580978
0.00102885
-0.00515995
-0.00069413
0.00130638
-0.00518411
-0.000462181
0.00100674
-0.00636003
0.000269527
0.000510061
-0.00496275
0.000170036
0.000603581
-0.00377896
-0.00016299
0.00128271
-0.00408921
-0.000745469
0.00135204
-0.00391396
-0.000882126
0.000819622
-0.004341
-0.000826411
0.00125525
-0.00424881
-0.000837298
0.0013066
-0.00291495
-0.000642356
0.00103379
-0.00527363
-0.000331617
0.000256293
-0.00380194
-0.000173092
0.000260319
-0.00501424
-1.82116e-05
0.000904831
-0.00394784
-0.000134179
0.00105819
-0.00303106
-0.000551596
0.00101047
-0.00359159
-0.000622205
0.00120848
-0.00398354
-0.000650439
0.00124374
-0.00288089
-0.000487719
0.00154044
-0.00124498
-0.000358554
0.000823896
-0.00559603
-0.00010433
0.000398094
-0.00420637
-5.23439e-05
0.000488553
-0.00372973
9.37985e-05
0.000820635
-0.00342941
0.000143465
0.000963422
-0.00342966
-9.76835e-05
0.00111408
-0.00302777
-0.000322418
0.00109296
-0.0032188
-0.00051084
0.000922644
-0.00275907
-0.000361169
0.00138863
-0.000807578
-0.000247697
0.00111477
-9.31947e-05
-0.000325857
0.000394988
-0.0055559
-0.00023179
0.000605324
-0.00432821
-0.000199426
0.000683848
-0.0032477
-6.2657e-05
0.000701583
-0.00276604
-0.000151289
0.000770702
-0.00290295
-0.000206865
0.000835094
-0.00246873
-0.000228637
0.000836461
-0.00232887
-0.000227542
0.000884136
-0.00213207
-0.000131884
0.00105898
-0.000393415
-8.16692e-05
0.000955209
0.000802382
-8.43265e-05
0.000825747
0.00054577
-0.000173571
0.000111878
-0.00494103
-3.49519e-05
0.000338132
-0.00479467
-3.53181e-05
0.000499076
-0.00380368
-4.01984e-05
0.000551241
-0.00311575
-6.32313e-05
0.000649907
-0.00265885
-5.08644e-05
0.000682525
-0.00155752
-0.000110277
0.000528764
-0.000975416
-0.000100717
0.000636469
-0.00116131
2.72906e-07
0.000646225
0.00047716
-5.45926e-05
0.000592154
0.00172189
-0.000119109
0.00059003
0.00153117
-0.000101695
0.000473423
0.00191815
-9.18778e-05
1.60217e-05
-0.00357742
-1.9307e-05
0.000119873
-0.00413291
-2.05267e-05
0.000228095
-0.00393026
-1.19501e-05
0.000286165
-0.00316598
-1.24186e-05
0.000331702
-0.0027866
-6.26359e-06
0.000363354
-0.00148358
-1.09613e-05
0.000361169
0.000229856
-1.17846e-05
0.000290643
0.000565234
-1.44173e-05
0.000278354
0.00128318
-1.94783e-05
0.000241818
0.00259051
-3.17191e-05
0.000242844
0.00242431
-2.76654e-05
0.000222464
0.00249374
-1.71725e-05
0.00015286
0.00312122
-1.4865e-05
0.00115468
-0.00561945
0.00372512
0.00129071
-0.00544396
0.00370547
0.00176768
-0.00569338
0.00389935
0.00120634
-0.00551982
0.00319366
0.00178619
-0.00578482
0.00334816
0.000875038
-0.00547658
0.0032714
0.00198994
-0.00576188
0.00269928
0.00216509
-0.00557116
0.00269167
0.00129038
-0.00601787
0.0026809
0.00185903
-0.0060227
0.00267811
0.00203398
-0.00595679
0.00220247
0.00232406
-0.00532979
0.00160876
0.00115381
-0.00633964
0.00255111
0.00136043
-0.00621083
0.00247249
0.00176108
-0.00558122
0.00219911
0.00167484
-0.00520502
0.00159555
0.00308387
-0.0059865
0.000700766
0.00102932
-0.0070914
0.00215867
0.00139989
-0.00650997
0.00220711
0.00157068
-0.00557006
0.00225595
0.0017307
-0.00529357
0.00177556
0.00226838
-0.00585089
0.000984886
0.000932314
-0.00704003
0.00222241
0.000788695
-0.00725856
0.00171463
0.0015073
-0.00575778
0.00203093
0.00170141
-0.00539179
0.00180109
0.00178839
-0.00579418
0.000948712
0.00223925
-0.00608622
-8.72239e-05
0.000979801
-0.00716212
0.0019333
0.000777263
-0.00689207
0.00163423
0.00105439
-0.00601637
0.00153641
0.00163757
-0.00475753
0.000894212
0.00147499
-0.00497207
0.00074331
0.00150282
-0.00559871
-0.000199182
0.00155307
-0.00529107
-0.000807452
0.000968492
-0.00605927
0.00122333
0.00063385
-0.00573419
0.000857795
0.000912477
-0.00496095
0.000614411
0.00181188
-0.00430511
0.000155359
0.00142811
-0.00425885
-0.000273849
0.000820685
-0.00505937
-0.000682618
0.0013156
-0.00530216
-0.000636424
0.00136523
-0.00425433
-0.000387079
0.00117558
-0.00640033
5.48855e-05
0.000610311
-0.00535874
0.0003115
0.000455978
-0.00369787
-0.00010671
0.00113951
-0.00399438
-0.000492494
0.00130618
-0.0040596
-0.000847822
0.000862337
-0.00427989
-0.0007951
0.00120172
-0.0043445
-0.000723956
0.0014
-0.00316118
-0.000747332
0.0015352
-0.00221215
-0.000543111
0.0012077
-0.00556743
-0.0001531
0.000477001
-0.00405138
-0.000161092
0.000392485
-0.00510528
1.40158e-05
0.000912893
-0.00403717
-2.11383e-05
0.00114392
-0.00292766
-0.000418079
0.00101736
-0.00349682
-0.000549647
0.00104489
-0.00387934
-0.000678338
0.00109656
-0.00317116
-0.000534086
0.00157669
-0.00150285
-0.000417902
0.0014669
-0.0011734
-0.000527947
0.000776762
-0.00594313
-0.000136027
0.000678307
-0.00428954
-9.4149e-05
0.000541518
-0.00374127
0.000101525
0.000726855
-0.00341712
5.62306e-05
0.00092198
-0.00343344
-4.03531e-06
0.00114809
-0.0030773
-0.00036115
0.00117267
-0.00344645
-0.000430979
0.000862271
-0.00285961
-0.000388438
0.00131481
-0.00122125
-0.000203326
0.0012287
-0.000221181
-0.000393203
0.00112414
-0.000117876
-0.000399034
0.000304605
-0.00566994
-0.00021293
0.000613801
-0.00459619
-0.000239476
0.000738021
-0.00364279
-4.32878e-05
0.000697309
-0.00286557
-0.000109192
0.000744598
-0.00294485
-0.000204076
0.000878169
-0.00267248
-0.000198753
0.000762884
-0.00256827
-0.000223357
0.000833959
-0.00236772
-0.000189381
0.000986399
-0.000756881
-0.000108592
0.000992298
0.000436066
-0.000115496
0.000953172
0.000268883
-0.000170581
0.000693654
0.00101836
-0.000209389
6.46599e-05
-0.00499398
-6.82687e-05
0.000313254
-0.00498016
-4.28423e-05
0.000482518
-0.00405711
-3.63045e-05
0.00053493
-0.00334153
-6.3183e-05
0.000632115
-0.00296872
-5.37798e-05
0.000674745
-0.0018168
-0.000102977
0.00055425
-0.00116436
-0.000114417
0.000601667
-0.00155458
-1.84683e-05
0.00063378
0.00015793
-3.59233e-05
0.000605313
0.00141033
-0.000106522
0.000610164
0.00114682
-0.000102083
0.000531493
0.0016101
-0.000102672
0.000335291
0.00253626
-9.54057e-05
-3.29774e-06
-0.00358046
-2.21016e-05
0.000102443
-0.00423515
-1.95057e-05
0.000213839
-0.00415417
-1.04566e-05
0.000276827
-0.00344225
-1.2504e-05
0.00031968
-0.00311239
-6.30485e-06
0.000350839
-0.00182842
-1.22618e-05
0.000367182
-0.000139128
-9.15973e-06
0.000285701
0.000274468
-6.72019e-06
0.000279915
0.00100692
-1.80761e-05
0.000250118
0.00235311
-3.21898e-05
0.0002487
0.00217332
-2.94276e-05
0.000231852
0.0022507
-1.64765e-05
0.000181515
0.00293824
-1.5702e-05
8.54297e-05
0.00303216
-1.70146e-05
0.00100458
-0.00521574
0.00423512
0.00112812
-0.00544115
0.00376452
0.00145904
-0.00555685
0.00398389
0.00139451
-0.00542715
0.00340693
0.00174558
-0.00575689
0.00380957
0.00188874
-0.00565305
0.00409016
0.0011352
-0.00557656
0.00344624
0.00186068
-0.00560107
0.00313916
0.00207566
-0.00565164
0.00339679
0.00111734
-0.00549139
0.00330005
0.00202413
-0.00570885
0.00305326
0.00244304
-0.00594223
0.00266129
0.00222201
-0.00520909
0.0026345
0.00113882
-0.00600087
0.00271632
0.00133727
-0.0059142
0.00259557
0.00199624
-0.00597772
0.00246388
0.00179208
-0.00522244
0.00197788
0.00315373
-0.00571982
0.0012264
0.00102866
-0.00645098
0.00244416
0.00145445
-0.00606428
0.00235001
0.00199976
-0.00590665
0.00236885
0.0019663
-0.00517344
0.00193192
0.00269942
-0.00576666
0.00094467
0.00331438
-0.00618525
9.76797e-05
0.000885031
-0.00707575
0.00207156
0.00125355
-0.00679257
0.00197641
0.00180409
-0.00592842
0.00226868
0.00164287
-0.0050587
0.00207961
0.00225414
-0.00563503
0.00109396
0.00275298
-0.00600765
0.000261845
0.000919143
-0.00702747
0.00216195
0.000789282
-0.0071999
0.00215174
0.00151627
-0.00646231
0.00195728
0.0016366
-0.00516114
0.00180126
0.00170301
-0.00556607
0.00134495
0.00231695
-0.00601448
6.28398e-05
0.00228816
-0.00581957
-0.000779067
0.000908505
-0.00716984
0.00191317
0.000715502
-0.00679439
0.00175396
0.00107457
-0.00593179
0.00138755
0.00188747
-0.00449146
0.00119476
0.00141311
-0.00472922
0.000666354
0.00128907
-0.00541199
8.81998e-05
0.00180106
-0.00543447
-0.000541244
0.00140447
-0.00452653
-0.000556728
0.00103225
-0.00588987
0.00102053
0.000865601
-0.00575946
0.000993309
0.000769422
-0.00475771
0.000341111
0.00158222
-0.00394162
-0.000191793
0.00174239
-0.00432593
-0.000213774
0.000809534
-0.00489198
-0.000388437
0.00116258
-0.00528775
-0.000657893
0.0014454
-0.00439478
-0.000541376
0.00175616
-0.0032599
-0.00051314
0.00137307
-0.00635623
3.3472e-05
0.000951254
-0.00571195
-6.61518e-05
0.000719665
-0.00379175
7.81963e-05
0.00120934
-0.00411942
-0.000278123
0.00117818
-0.00385265
-0.0007337
0.000867295
-0.00422953
-0.00074811
0.000993703
-0.00441431
-0.00067411
0.0013958
-0.00347879
-0.000705572
0.00160939
-0.00234397
-0.0006482
0.0015556
-0.00165841
-0.000628157
0.00111819
-0.00577173
-8.37372e-05
0.000924127
-0.00446249
1.21968e-05
0.00016591
-0.00491693
2.61662e-05
0.000793495
-0.00408801
-1.78603e-06
0.00127107
-0.00290058
-0.000397314
0.00117667
-0.00340123
-0.000542244
0.00115349
-0.00380542
-0.00060439
0.000989467
-0.00340042
-0.00057628
0.00147635
-0.00180828
-0.000390199
0.00155247
-0.00134515
-0.000569922
0.00126153
-0.000705196
-0.000630381
0.000598513
-0.00617482
-9.85814e-05
0.000993179
-0.00470535
-9.95943e-05
0.000642821
-0.00380861
6.83929e-05
0.000746941
-0.00356221
0.000196988
0.000885687
-0.00339953
-0.000118764
0.00110209
-0.00310686
-0.000198395
0.000951975
-0.00349883
-0.000497858
0.000889474
-0.0029595
-0.000386601
0.00119556
-0.00157464
-0.000244217
0.00124814
-0.000343728
-0.000336617
0.00121028
-0.000329137
-0.000439054
0.000876822
3.12328e-05
-0.00043566
0.000217263
-0.00575701
-0.000168758
0.000573866
-0.00482699
-0.00024274
0.000774507
-0.00398264
-0.000191606
0.000728427
-0.00304961
-5.27516e-05
0.000731739
-0.00295033
-0.000203341
0.000756127
-0.00275688
-0.00020106
0.000753259
-0.00275881
-0.000207222
0.000757793
-0.00252615
-0.000221058
0.000900802
-0.00106499
-0.000148294
0.000964606
0.000133087
-0.000164906
0.000962606
-1.9406e-05
-0.00017965
0.000778697
0.000840432
-0.000239856
0.000540286
0.00139589
-0.000225032
2.6668e-05
-0.00503497
-5.93547e-05
0.00027936
-0.00518001
-4.5336e-05
0.000446608
-0.00429085
-4.18756e-05
0.000500369
-0.00355498
-4.64017e-05
0.000584879
-0.00324083
-5.62679e-05
0.000654601
-0.00208226
-9.2081e-05
0.00056881
-0.00135501
-0.000113951
0.000563921
-0.00191025
-3.69694e-05
0.000622908
-0.000166833
-3.66989e-05
0.000605832
0.00111371
-9.50228e-05
0.000604524
0.000785401
-0.000100926
0.000532733
0.00131675
-0.00010961
0.000375638
0.00234391
-0.000104452
0.000203394
0.00257891
-8.83768e-05
-1.26078e-05
-0.00357497
-1.96005e-05
8.53872e-05
-0.00432295
-1.96907e-05
0.000197295
-0.00436278
-8.19152e-06
0.000264684
-0.00370561
-1.17847e-05
0.000307349
-0.00342567
-6.57662e-06
0.000341288
-0.0021676
-8.41029e-06
0.000371321
-0.000518894
-3.81613e-06
0.000287193
-2.48847e-05
2.99986e-06
0.000283491
0.000732265
-1.55519e-05
0.00025601
0.002112
-3.29856e-05
0.000255498
0.0019162
-3.05624e-05
0.00024045
0.00199787
-1.70554e-05
0.00019136
0.00274597
-1.55679e-05
0.000105152
0.00292999
-1.86865e-05
2.55667e-05
0.00302617
-2.05136e-05
0.00103936
-0.00483278
0.00450505
0.00100097
-0.00519082
0.00419079
0.00113386
-0.00510167
0.00446555
0.00134801
-0.00530906
0.00370102
0.0016256
-0.00558111
0.00390876
0.00164999
-0.00558211
0.00429093
0.00134208
-0.00540393
0.00380137
0.00166949
-0.00573338
0.00357461
0.00200913
-0.00576637
0.00398943
0.00204131
-0.00543197
0.00434025
0.000888548
-0.00534424
0.00353454
0.00202317
-0.00550961
0.00335574
0.00236012
-0.00567011
0.00324057
0.00211294
-0.00544036
0.00343151
0.00123712
-0.00555773
0.00295213
0.00140279
-0.00561254
0.00313822
0.0024165
-0.00609753
0.00278829
0.00208112
-0.00538484
0.00254798
0.00277037
-0.00535888
0.00262462
0.0010154
-0.00602893
0.00270907
0.00153351
-0.00581256
0.00253561
0.00221972
-0.00614125
0.00253914
0.00221569
-0.00520183
0.00219389
0.00290725
-0.00543627
0.00148651
0.00344314
-0.00634549
0.00104336
0.000782149
-0.00644434
0.00245194
0.00133856
-0.00612978
0.00242465
0.00200987
-0.00595339
0.00219098
0.00175385
-0.00524669
0.00233113
0.00264701
-0.00555177
0.00132416
0.00321812
-0.00595058
0.000244863
0.00288178
-0.00609737
3.0781e-05
0.000873408
-0.00703489
0.00203041
0.000877504
-0.0070907
0.00228146
0.0017643
-0.00621132
0.00201127
0.00171355
-0.00502407
0.0021571
0.00202162
-0.00545735
0.00158332
0.00294498
-0.00585983
0.00031811
0.00282494
-0.00600818
-1.37492e-05
0.000884241
-0.00715497
0.00227162
0.00084728
-0.00717109
0.00200135
0.00126887
-0.00655252
0.00204765
0.00184704
-0.005154
0.00199058
0.00151632
-0.00527275
0.00140473
0.00206219
-0.00579247
0.000349819
0.00256951
-0.00555574
-0.000969435
0.00175511
-0.00468054
-0.000900691
0.00100505
-0.00714347
0.00173965
0.00108151
-0.0068196
0.00172247
0.00104284
-0.00588318
0.00143194
0.00189326
-0.00431727
0.000902317
0.00173396
-0.00443799
0.00091196
0.00109995
-0.00534917
0.000313118
0.00158331
-0.00543596
-0.000331047
0.0017202
-0.0048888
-0.000453774
0.00190119
-0.00385687
-0.000379077
0.00151888
-0.00595377
0.000793516
0.00114154
-0.00573602
0.000806803
0.000812869
-0.00443321
0.000575603
0.00159775
-0.00387462
-0.000114294
0.0012646
-0.00439532
-0.000208814
0.000761472
-0.00471505
-0.000284878
0.000985696
-0.00511304
-0.000555145
0.00148021
-0.00450559
-0.000631505
0.00174951
-0.00337008
-0.000571324
0.00173428
-0.00235461
-0.000773645
0.0011581
-0.00622332
0.000324945
0.00121395
-0.0060706
0.000102287
0.000385249
-0.0038985
-0.000178733
0.000923095
-0.00388236
-0.00028847
0.00149563
-0.00365704
-0.000698288
0.000950935
-0.00398808
-0.000749421
0.000966712
-0.0043763
-0.000599336
0.00129863
-0.00375913
-0.000702935
0.00148506
-0.00244315
-0.00061511
0.00168605
-0.0017362
-0.00070399
0.00131924
-0.00169551
-0.000700527
0.000978502
-0.00587116
2.88469e-05
0.00130513
-0.00484831
-9.87573e-06
0.000409752
-0.0047327
6.10379e-05
0.000796287
-0.00417943
6.82468e-05
0.00115536
-0.00291798
-0.000254065
0.000965956
-0.00309883
-0.000563582
0.000965204
-0.00371378
-0.000647113
0.000955539
-0.0034519
-0.000618977
0.00136105
-0.00214859
-0.000401451
0.0015111
-0.00147394
-0.000524368
0.00140789
-0.000820177
-0.000652546
0.000932934
-0.00093656
-0.000587038
0.000388005
-0.00625251
-1.57472e-05
0.00106136
-0.00520722
-8.42007e-05
0.000775385
-0.00393234
2.32613e-05
0.00071077
-0.00354774
7.15822e-05
0.000800959
-0.00334154
6.97815e-05
0.00101802
-0.00316231
-0.000325208
0.000950895
-0.00340721
-0.000487653
0.000747526
-0.00298292
-0.000464169
0.00106302
-0.0018197
-0.000303748
0.00122752
-0.000509087
-0.000341773
0.00118871
-0.000461386
-0.000430472
0.000926538
-8.16086e-05
-0.000474052
0.000649933
0.000521703
-0.000392165
0.000135504
-0.00580262
-0.000122147
0.000509422
-0.00504684
-0.000178971
0.000762235
-0.00437337
-0.000167638
0.00073023
-0.00332242
-0.000148655
0.000699453
-0.0029619
-0.000155749
0.000743785
-0.00284998
-0.000199424
0.000727633
-0.00287272
-0.000245968
0.000712452
-0.00263884
-0.000243064
0.000824228
-0.00132563
-0.000161741
0.000920815
-0.000134742
-0.000195448
0.000941272
-0.00031722
-0.00020384
0.00077877