/*--------------------------------*- C++ -*----------------------------------*\
  =========                 |
  \\      /  F ield         | OpenFOAM: The Open Source CFD Toolbox
   \\    /   O peration     | Website:  https://openfoam.org
    \\  /    A nd           | Version:  7
     \\/     M anipulation  |
\*---------------------------------------------------------------------------*/
FoamFile
{
    version     2.0;
    format      ascii;
    class       surfaceScalarField;
    location    "8";
    object      phi_0;
}
// * * * * * * * * * * * * * * * * * * * * * * * * * * * * * * * * * * * * * //

dimensions      [0 3 -1 0 0 0 0];

internalField   nonuniform List<scalar> 
54451
(
-6.65234e-06
0.000261327
-6.63783e-05
-0.000106189
0.000751581
-0.000213334
-8.75786e-06
0.00027488
-6.77404e-05
-3.7813e-06
0.00106154
-7.20759e-05
-4.68761e-06
0.00349232
-0.000230807
-0.000108168
0.000837734
-0.000215331
-6.02822e-05
0.0017036
-0.000207956
-1.25778e-05
0.000292376
-6.89372e-05
1.82356e-05
0.00104891
-7.33398e-05
-1.76089e-05
0.00148591
-7.10327e-05
0.00024046
0.00624551
-7.44782e-05
-7.55211e-05
0.00345774
-0.000270748
-4.65048e-05
0.00375925
-0.000190631
-0.000123631
0.000940555
-0.000222485
2.35764e-05
0.00169022
-0.000207297
-8.34117e-05
0.00281261
-0.000200868
-1.59763e-05
0.00031307
-6.99038e-05
1.24775e-05
0.00104202
-7.45243e-05
-1.39125e-05
0.00149754
-7.10598e-05
-3.76406e-05
0.00189997
-6.2039e-05
0.000267563
0.00759597
0.000493519
0.000145481
0.00617781
-0.000151165
0.000105489
0.00612076
-0.000210261
-9.61656e-05
0.0034213
-0.00027671
-4.90057e-06
0.00373348
-0.000216498
-5.77305e-05
0.00375111
-0.000167328
-0.000127846
0.001044
-0.00022382
-3.39922e-07
0.00169125
-0.000210696
-7.53633e-05
0.00286151
-0.00019474
-0.000129539
0.00298061
-0.000142211
-1.81047e-05
0.000335635
-7.09078e-05
9.20196e-06
0.00103844
-7.55318e-05
-4.56863e-06
0.00149904
-7.14509e-05
-3.75148e-05
0.0019293
-6.28714e-05
-4.84771e-05
0.00233887
-4.66057e-05
0.00066828
0.00684443
0.000963266
0.000276439
0.00743731
0.000493933
0.000317535
0.00677296
0.000434115
0.000109268
0.00619352
-0.000244022
0.000118306
0.00612173
-0.000275341
0.000169011
0.005848
-0.000279518
-8.87663e-05
0.003372
-0.000295138
2.74094e-05
0.00364503
-0.000216008
-1.65509e-05
0.0036494
-0.000173596
-0.000149615
0.00466308
-0.000147323
-0.000129536
0.00114551
-0.000223658
-1.45226e-05
0.00169978
-0.000208619
-5.27665e-05
0.00289246
-0.000193451
-0.00010086
0.00298969
-0.000140474
-6.4574e-06
0.00421252
-9.45818e-05
-2.41873e-05
0.000363735
-7.17004e-05
9.69365e-06
0.00103476
-7.69149e-05
1.17394e-05
0.00148374
-7.19734e-05
-2.46047e-05
0.0019456
-6.31422e-05
-3.32946e-05
0.00235488
-4.55898e-05
-2.46315e-05
0.00389647
-2.64439e-05
0.000878943
0.00703403
0.00127725
0.000664215
0.00681718
0.000811283
0.000629279
0.00648102
0.000752568
0.000237176
0.00738485
0.0004181
0.000292557
0.00665646
0.000436176
0.000487359
0.00606618
0.000282164
0.00011828
0.00620544
-0.000341088
0.000170711
0.00602946
-0.000295048
0.000211443
0.0056135
-0.000268837
2.95789e-05
0.0049148
-0.000222974
-1.75396e-05
0.00323214
-0.000298177
4.95203e-05
0.00351059
-0.000224746
-2.36569e-05
0.00358796
-0.000183678
-7.46031e-05
0.00463302
-0.000169796
0.000143432
0.00492985
-0.000183853
-0.000172403
0.00128239
-0.000225042
-5.76837e-06
0.00170023
-0.000208654
-1.15195e-05
0.00290047
-0.000193367
-5.78396e-05
0.0029863
-0.000156834
2.82969e-05
0.00410986
-9.94084e-05
9.81676e-05
0.00469724
-9.2341e-05
-2.12435e-05
0.000388045
-7.23024e-05
1.57217e-05
0.00102555
-7.82133e-05
2.33554e-05
0.00145597
-7.24975e-05
-1.40079e-05
0.00195159
-6.39616e-05
-2.15174e-05
0.00236163
-4.83719e-05
-1.33982e-05
0.00389125
-2.69691e-05
4.58134e-05
0.00394957
-1.27267e-05
0.000899967
0.00703056
0.00171913
0.000829175
0.00721487
0.00112829
0.000848573
0.00663544
0.00106122
0.000560472
0.00684898
0.000667251
0.000534155
0.00639911
0.000651594
0.000607208
0.00614017
0.000715893
0.000124701
0.00748214
0.000367764
0.000210179
0.00665474
0.000380353
0.000537479
0.00588092
0.000295399
0.000514722
0.00503691
6.42626e-05
0.000272232
0.00603507
-0.000320399
0.000249807
0.00569164
-0.000203562
0.000153768
0.00532068
-0.000179656
-1.68448e-05
0.00473503
-0.000146828
0.000254149
0.00457562
-0.000242474
-9.82219e-05
0.00309835
-0.000270149
-7.08399e-05
0.00350453
-0.000227045
-0.000176573
0.00371636
-0.000188091
-3.3092e-05
0.00460302
-0.000178421
0.000147864
0.00486714
-0.00022665
0.000387842
0.00438462
-0.000170203
-0.000155667
0.00140686
-0.000225897
-9.32318e-06
0.00171072
-0.000210479
1.96882e-05
0.00289017
-0.00019469
-2.1943e-05
0.00296365
-0.000162777
5.9749e-05
0.00399026
-0.000118502
0.000138999
0.00454846
-0.000103023
0.000340832
0.00416062
-0.000103172
-1.96893e-05
0.000410082
-7.32266e-05
2.0055e-05
0.00101214
-7.89497e-05
3.20114e-05
0.00141893
-7.31884e-05
-8.08802e-07
0.00194396
-6.40603e-05
-7.67386e-06
0.00235494
-4.95977e-05
7.0553e-07
0.00386881
-2.66383e-05
5.99348e-05
0.0038763
-1.36384e-05
0.000129723
0.00355421
-6.58155e-06
0.000791065
0.00661783
0.00204369
0.000730718
0.00719804
0.00169926
0.000915528
0.00657439
0.00165012
0.000719937
0.00732874
0.00118399
0.000767194
0.00646206
0.00106863
0.000729911
0.00596046
0.00109054
0.000389347
0.00683985
0.000595599
0.000357578
0.0063116
0.000607366
0.000655151
0.006051
0.000623098
0.00084973
0.0054983
0.000618425
0.00011465
0.00769579
0.000357756
0.000292352
0.00662967
0.000350289
0.000429284
0.00570954
0.00027622
0.000324143
0.00491235
7.89728e-05
0.000354823
0.00469752
-8.04205e-05
0.000214408
0.00567607
-0.000235151
0.000133033
0.00528718
-0.000119811
-0.000119809
0.00513316
-7.28049e-05
5.42868e-05
0.0046178
-0.000149806
0.000272444
0.00454014
-0.000235919
0.000593823
0.00434558
-0.000280566
-0.000281189
0.0031431
-0.000260925
-0.000266382
0.00369761
-0.000206161
-0.000145701
0.00384004
-0.000185341
3.40208e-05
0.00451793
-0.000158962
0.000238672
0.0047426
-0.000232802
0.000408082
0.00418926
-0.000300365
0.000716602
0.00364315
-0.000209568
-0.000144692
0.00152014
-0.000226158
-1.43724e-05
0.00173051
-0.000211262
5.28711e-05
0.0028547
-0.000195867
1.54623e-05
0.00292509
-0.000172406
8.7637e-05
0.0038662
-0.000134024
0.000175443
0.00436992
-0.000114705
0.000338313
0.00389842
-0.000119203
0.000409567
0.00314488
-0.000164253
-1.67151e-05
0.000428477
-7.43384e-05
2.3491e-05
0.000995069
-7.96476e-05
4.32139e-05
0.00137064
-7.38736e-05
1.02584e-05
0.00192458
-6.40634e-05
2.55385e-06
0.00233825
-4.99222e-05
1.64355e-05
0.00383247
-2.96889e-05
8.07137e-05
0.00377955
-1.06e-05
0.00015279
0.00339583
-8.05236e-06
0.000150255
0.00202445
-1.96863e-05
0.000591358
0.00624969
0.00230706
0.000668986
0.00672908
0.00200698
0.000868703
0.00642459
0.00201197
0.000804423
0.00720778
0.00170518
0.000889931
0.0065863
0.00156462
0.00100584
0.00595455
0.0015251
0.00079013
0.00720427
0.00113455
0.000697565
0.00625498
0.00105109
0.000827016
0.00583594
0.00102129
0.00107098
0.00531436
0.00102942
0.000267178
0.00673482
0.000626701
0.000387652
0.00629711
0.000514789
0.000677441
0.00585226
0.000557948
0.000792005
0.00514422
0.000509316
0.000683318
0.00515979
0.000354863
0.00011977
0.00781124
0.00038953
0.000370933
0.0065011
0.000248428
0.000478945
0.00526053
0.000200544
0.000378854
0.00485762
6.38354e-06
0.000490979
0.00468809
-0.000130129
0.000738758
0.00481543
-0.000131279
1.60357e-05
0.00536301
-0.000134631
-0.00015787
0.00502677
-8.32457e-05
-0.0002015
0.00512924
-6.00888e-05
9.82237e-05
0.00465714
-0.000176347
0.000345946
0.0044795
-0.000196442
0.00060164
0.00422882
-0.000312718
0.000854657
0.00347275
-0.000367308
-0.000383233
0.00329225
-0.000260403
-0.000234253
0.00385043
-0.000193867
-8.94635e-05
0.00395062
-0.000174404
4.8237e-05
0.0044607
-0.00016089
0.000284434
0.00458143
-0.000194588
0.000488232
0.00396206
-0.000318391
0.000630361
0.00338787
-0.000337134
0.000517927
0.00267114
-0.000354743
-0.00012222
0.00161387
-0.000226965
9.81303e-07
0.00174572
-0.000218858
9.69435e-05
0.00278838
-0.000198671
5.26364e-05
0.00286982
-0.000182969
0.00012858
0.00371638
-0.000148609
0.000226686
0.00416002
-0.000134372
0.000387397
0.00360739
-0.00013036
0.000396663
0.00295207
-0.000170272
0.000279499
0.00219168
-0.000225307
-1.1595e-05
0.000440722
-7.51119e-05
2.75387e-05
0.000974031
-8.08395e-05
4.16983e-05
0.00132418
-7.48837e-05
2.10919e-05
0.00189437
-6.47568e-05
1.27024e-05
0.00231412
-5.26343e-05
3.29122e-05
0.0037801
-3.04653e-05
0.000112869
0.00365079
-1.37994e-05
0.000172488
0.0032243
-1.15586e-05
0.000160163
0.00188294
-2.67067e-05
0.000139263
0.00152006
-4.2641e-05
0.000607283
0.00590114
0.0023684
0.000784359
0.00617613
0.00222299
0.000925303
0.00586177
0.00231479
0.000818312
0.00674507
0.00202381
0.000916601
0.00645373
0.00195117
0.00109704
0.0059784
0.00193945
0.00099165
0.00708003
0.00169866
0.000895014
0.00648713
0.0016069
0.00116368
0.00569634
0.00148617
0.00125997
0.0054803
0.00139827
0.000704104
0.00699791
0.00111327
0.000608229
0.00616403
0.00100492
0.000998999
0.00564604
0.000919429
0.00111806
0.00520129
0.000808305
0.00095652
0.00494263
0.000821615
0.000259816
0.00654007
0.000669968
0.000416233
0.00636342
0.000515092
0.000785573
0.00567705
0.000383368
0.000769172
0.00497726
0.000334589
0.000749015
0.00507157
0.000339508
0.000916299
0.00539887
0.00012789
0.000162726
0.00764795
0.000393942
0.000333502
0.00620133
0.000197931
0.000311474
0.00483615
0.000159832
0.000318375
0.00487275
-3.47364e-05
0.000520789
0.00475576
-0.00023613
0.000796567
0.00474165
-0.000251276
0.00102747
0.00426791
-0.00022325
-0.000148956
0.00512425
-0.000182789
-0.000201365
0.00498045
-0.000121205
-0.000142022
0.00517499
-7.64394e-05
0.000121773
0.00470287
-0.000179361
0.000412431
0.00437891
-0.000203755
0.000742511
0.00403691
-0.00025882
0.000852711
0.00330862
-0.000370938
0.000551517
0.00333525
-0.000475221
-0.00036643
0.00342314
-0.000253407
-0.000185136
0.00397268
-0.000196537
3.12352e-05
0.00398753
-0.000165068
0.000105452
0.00439323
-0.000159753
0.00034181
0.0043979
-0.000190598
0.00056011
0.00374792
-0.000313879
0.000646647
0.00316013
-0.0003499
0.000392144
0.00269428
-0.000355756
0.000115682
0.00267891
-0.000351849
-9.35504e-05
0.00168695
-0.000230715
-3.86786e-07
0.00176689
-0.000220213
8.66569e-05
0.00273302
-0.000208458
8.76048e-05
0.00280257
-0.000197934
0.000158438
0.00355449
-0.000166818
0.000272828
0.00392391
-0.000152415
0.000437021
0.00329875
-0.000149884
0.00044999
0.00271924
-0.000175033
0.000254191
0.00214522
-0.000217836
0.000233253
0.00214695
-0.000265306
-4.32925e-06
0.000444723
-7.5881e-05
3.17605e-05
0.00094864
-8.14813e-05
4.74206e-05
0.00127258
-7.66552e-05
3.30895e-05
0.00185194
-6.55398e-05
2.50442e-05
0.00227827
-5.39516e-05
5.34811e-05
0.00370699
-3.30068e-05
0.000135242
0.00350017
-1.50895e-05
0.000183084
0.0030434
-1.59828e-05
0.000169196
0.00173762
-3.54286e-05
0.000141419
0.00140408
-5.21469e-05
0.000137798
0.00171044
-5.03994e-05
0.000640385
0.00538501
0.00263124
0.000940982
0.00562999
0.00256135
0.000975945
0.00558408
0.00247359
0.000826212
0.00615787
0.00225421
0.000615333
0.00605005
0.00233598
0.00110234
0.00576031
0.00226609
0.000975111
0.00682307
0.00199631
0.000999551
0.0064086
0.0019644
0.00118771
0.00599436
0.00191118
0.00132311
0.00574448
0.00195571
0.000937145
0.00697575
0.00165071
0.000899441
0.00628087
0.00161371
0.00120769
0.00566376
0.00143079
0.00136685
0.00524545
0.00147223
0.00106623
0.00506325
0.00129984
0.000523142
0.00690974
0.00102692
0.000643092
0.00602309
0.00102736
0.000964804
0.00561053
0.000861192
0.00112977
0.00504423
0.000715893
0.000947728
0.00492618
0.000626043
0.00116529
0.00529828
0.000498995
0.000175092
0.00645809
0.000653442
0.000400578
0.00638474
0.000581575
0.000658683
0.0055356
0.000309333
0.000689954
0.00474563
0.000243419
0.000799974
0.00489957
0.000227396
0.000984317
0.00536914
0.000181487
0.00121075
0.00479966
0.000147449
0.000191729
0.00729543
0.000429211
0.000285835
0.00591059
0.000197476
0.000200621
0.00458644
0.000104993
0.000342672
0.00475191
5.9768e-05
0.000606432
0.00472745
-0.000200433
0.000908981
0.0046161
-0.000277048
0.00101788
0.00410092
-0.000249465
0.000730192
0.0044441
-0.000357252
-0.000163992
0.00503302
-0.000196322
-0.00027463
0.00508838
-0.000201224
-2.86792e-05
0.00519
-7.63001e-05
0.000220172
0.0046662
-0.000154484
0.00059171
0.00422009
-0.000270447
0.000825665
0.00385006
-0.00028246
0.000840204
0.00323778
-0.000381536
0.000479968
0.00335912
-0.000482634
5.77208e-05
0.00359552
-0.000482408
-0.000290698
0.00349949
-0.000269931
-0.000139138
0.00405638
-0.000198354
7.23575e-05
0.00397363
-0.000168336
0.000187974
0.00429195
-0.000164157
0.000396246
0.00421391
-0.000213562
0.00056481
0.00358468
-0.000319341
0.000662261
0.00300762
-0.000386614
0.000423485
0.00272572
-0.000354833
7.00497e-05
0.00284459
-0.000337295
0.000152012
0.00303251
-0.000310099
-6.14309e-05
0.00173915
-0.000237679
-8.68947e-07
0.0017941
-0.000225295
9.9445e-05
0.00266996
-0.000209184
0.000121438
0.00271661
-0.000210846
0.000186158
0.00338595
-0.000190507
0.000316771
0.00367257
-0.000178768
0.000485898
0.00296198
-0.000166302
0.000413784
0.00252503
-0.000186366
0.000256842
0.00209576
-0.000213225
0.00023236
0.00209655
-0.000258376
0.000239521
0.00205694
-0.000249345
3.73747e-06
0.000439518
-7.63748e-05
3.69151e-05
0.000917744
-8.19001e-05
5.64119e-05
0.00121235
-7.76671e-05
4.51111e-05
0.00179714
-6.69715e-05
4.076e-05
0.00222758
-5.56127e-05
7.40489e-05
0.00361116
-3.21764e-05
0.000154072
0.00332953
-1.64357e-05
0.000195247
0.00285501
-2.19496e-05
0.000180148
0.00158684
-4.53514e-05
0.000144411
0.00128615
-6.19103e-05
0.000141299
0.00157458
-5.75825e-05
0.000118306
0.0013608
-3.15449e-05
0.00069419
0.00515659
0.00301891
0.000870133
0.00542109
0.00262215
0.000870303
0.00553461
0.00269903
0.00070732
0.00575165
0.00245258
0.000519032
0.00570614
0.00253559
0.000918326
0.00591013
0.00241822
0.000845822
0.00621162
0.00231522
0.00102616
0.00599982
0.00227783
0.00102099
0.00596913
0.00229387
0.00131871
0.0060039
0.00226044
0.000855909
0.00692189
0.00204576
0.000788512
0.00651235
0.00200349
0.00116921
0.00605193
0.00194531
0.00136492
0.00568658
0.00197101
0.00119365
0.0055391
0.00190393
0.000827951
0.00688417
0.00155998
0.000820123
0.00625835
0.00149619
0.00113179
0.00569623
0.00141425
0.00136969
0.00522318
0.00121314
0.0010934
0.00514819
0.00124161
0.00135648
0.00538398
0.00112534
0.000554251
0.00666882
0.00100077
0.000740071
0.00582076
0.000889756
0.000990045
0.00553882
0.000767706
0.00102683
0.00492561
0.000642941
0.00106589
0.00493871
0.000437446
0.00135354
0.00514404
0.000411059
0.00134999
0.00511732
0.000255113
0.000191008
0.00654124
0.000530908
0.000486132
0.00623323
0.000604648
0.000632727
0.00529486
0.000390213
0.00068293
0.00452382
0.000190886
0.000878684
0.00473651
0.000134225
0.00111199
0.00515626
0.000237273
0.0011419
0.00470475
0.000152387
0.000856435
0.00469763
0.00021727
0.000186534
0.00697854
0.000389797
0.000261129
0.00562295
0.000181101
0.000109815
0.00461464
3.07832e-05
0.000487407
0.00453608
5.35855e-05
0.000842442
0.00466507
-0.000128577
0.00100552
0.00444421
-0.000208401
0.000944046
0.00396484
-0.000244804
0.000702731
0.00430801
-0.000336129
0.00017034
0.00457761
-0.000429819
-3.17074e-05
0.00491883
-0.000265925
-0.000192987
0.00507654
-0.000130638
0.000320919
0.00488185
-0.000141631
0.000340676
0.00459719
-0.000159999
0.000564237
0.0041381
-0.000240475
0.000807154
0.00372833
-0.00039106
0.000814318
0.00321499
-0.000411728
0.000412273
0.00347057
-0.000481775
5.09632e-05
0.00362396
-0.00049199
0.000183754
0.00316447
-0.000394217
-0.000269433
0.0035987
-0.000288949
-9.55278e-05
0.00408438
-0.000203276
0.000126813
0.00394012
-0.000192213
0.00029405
0.00413637
-0.000185363
0.00044169
0.00403744
-0.000243221
0.00067137
0.0033755
-0.000358982
0.000647774
0.00292912
-0.000402709
0.000333948
0.00280363
-0.000384689
0.0001071
0.00297183
-0.00033233
0.000169308
0.00306556
-0.0003073
0.00032108
0.00239965
-0.000321216
-1.96836e-05
0.00176041
-0.000244293
2.15752e-05
0.00180629
-0.000234532
0.000131557
0.00258571
-0.000216186
0.000154918
0.0026112
-0.000213581
0.000234518
0.00319615
-0.000214803
0.000374401
0.00339762
-0.000215904
0.000518815
0.00262877
-0.000210295
0.000414875
0.00233308
-0.000193988
0.000301578
0.00199842
-0.000210451
0.000238455
0.00204202
-0.00025274
0.000247287
0.0019322
-0.000239626
0.000130086
0.00146156
-0.000178743
1.1303e-05
0.000425474
-7.65828e-05
4.6771e-05
0.000876629
-8.20302e-05
6.63229e-05
0.00114198
-7.78539e-05
5.57841e-05
0.00173185
-6.81524e-05
6.31991e-05
0.00215475
-5.73404e-05
9.92022e-05
0.00349254
-3.61951e-05
0.00017123
0.00314197
-1.58423e-05
0.000191271
0.00267615
-2.88462e-05
0.000191028
0.0014297
-5.58445e-05
0.00014785
0.00116441
-7.14578e-05
0.000141029
0.0014367
-6.50615e-05
0.000127615
0.00120544
-2.98344e-05
0.00017738
0.000316668
-4.46847e-06
0.000704933
0.00510659
0.00342349
0.000703218
0.00523664
0.00303386
0.000865377
0.00519693
0.00305474
0.00060242
0.00540673
0.00276408
0.000823516
0.00531115
0.00254113
0.000826472
0.00553611
0.00266745
0.00075721
0.00583155
0.00249964
0.000770599
0.00602928
0.00238501
0.00131082
0.00597354
0.00218235
0.00136783
0.00598939
0.00230464
0.000791319
0.00625843
0.00226885
0.000704875
0.00607225
0.00232642
0.00108695
0.00603663
0.00229258
0.00136771
0.00598679
0.00230819
0.00137383
0.00578704
0.00224643
0.00101735
0.00677794
0.0020213
0.00139992
0.00601215
0.00196616
0.00120198
0.00608412
0.00190111
0.00131556
0.00566948
0.00201653
0.00125854
0.0054488
0.00189617
0.001591
0.00574072
0.00166495
0.000836139
0.00685906
0.00153487
0.000943672
0.00624464
0.00137008
0.00137898
0.00553424
0.00126926
0.00130932
0.00512488
0.00123006
0.00118544
0.00526231
0.000979468
0.00161217
0.00535881
0.00100815
0.00155569
0.00507791
0.000964481
0.000575513
0.00659797
0.000945331
0.000801795
0.00573407
0.000771794
0.00112027
0.00538471
0.000556319
0.00108611
0.00484521
0.000444931
0.00116579
0.00489008
0.000404468
0.00145525
0.00486053
0.000377699
0.0012446
0.00509784
0.000327835
0.000850422
0.00518601
0.000199431
0.000250649
0.00662979
0.000470361
0.000657558
0.00597776
0.000389948
0.000658484
0.00500191
0.000348923
0.000805809
0.00441199
0.000183643
0.00101468
0.00472827
2.68938e-05
0.0011817
0.0049821
0.000132203
0.00103787
0.00469151
0.000156683
0.000750868
0.00463103
0.000170857
0.000385574
0.00498403
0.000135214
0.000366989
0.00675835
0.00014065
0.000269101
0.00535741
0.000193249
0.000628189
0.00453287
-4.43926e-05
0.000560001
0.00446107
-0.000113524
0.000762472
0.0046588
-0.000138388
0.00102202
0.00425562
-0.000154851
0.00087338
0.0039491
-0.000251724
0.000517683
0.004244
-0.000286204
0.000175659
0.00456287
-0.000446084
0.000296704
0.00384882
-0.000300449
-0.000130114
0.0049268
-0.000322163
-0.000136363
0.00505453
-0.000203075
0.000142888
0.00478631
-5.11772e-05
0.000451412
0.00445971
-0.000161505
0.000633998
0.00407974
-0.000293955
0.00091343
0.00363837
-0.000392575
0.00072376
0.00323825
-0.000490303
0.000344157
0.00353027
-0.000481639
0.000119394
0.0036261
-0.0004962
0.000217836
0.00301113
-0.000387181
0.000447868
0.00246951
-0.000430357
-0.000136571
0.00359681
-0.000307043
-3.61469e-05
0.00405906
-0.000205901
0.00019398
0.00387423
-0.000199808
0.000353351
0.00401259
-0.000266868
0.000521325
0.00385547
-0.000290201
0.000652922
0.00325269
-0.000398932
0.000646711
0.00287525
-0.000433018
0.000362459
0.00283685
-0.000383511
0.000212019
0.00301716
-0.000340458
0.000206464
0.0030613
-0.000296076
0.000334907
0.00233571
-0.000330978
0.000278938
0.00166593
-0.000392551
1.66544e-05
0.00175519
-0.000251232
6.48756e-05
0.00178766
-0.000243759
0.000175061
0.00247438
-0.000231937
0.000190039
0.00249151
-0.000230753
0.000267407
0.00302451
-0.000246149
0.000430675
0.00310663
-0.000255287
0.000533521
0.00228761
-0.000237034
0.000386741
0.00215429
-0.000226968
0.000315759
0.00189399
-0.000214294
0.000248768
0.00198007
-0.00024942
0.000248854
0.00180454
-0.000232907
0.000126168
0.00139766
-0.000174273
0.000220793
0.00026609
-0.000107498
1.85014e-05
0.000402891
-7.63715e-05
5.12601e-05
0.000830378
-8.15924e-05
7.46073e-05
0.00106326
-7.79187e-05
6.7744e-05
0.0016556
-6.93511e-05
7.97236e-05
0.00206551
-5.86334e-05
0.000114774
0.0033597
-3.92715e-05
0.000178656
0.00294756
-2.04461e-05
0.000199957
0.00249571
-3.53588e-05
0.00019907
0.00126801
-6.6221e-05
0.000149911
0.0010391
-8.04523e-05
0.000138211
0.00129766
-7.06264e-05
0.000131123
0.00103745
-2.82001e-05
0.00018032
0.00010734
-8.26297e-07
0.000178844
-0.000665373
-4.14791e-06
0.000707149
0.00490142
0.00374921
0.000735231
0.00506836
0.00340658
0.000857406
0.0050382
0.00342538
0.000612372
0.00515401
0.00309032
0.000984189
0.00505804
0.00301208
0.000935317
0.00509994
0.00306703
0.000776853
0.00549465
0.00260771
0.00068729
0.00530721
0.00285133
0.00139881
0.0053293
0.00265995
0.0012195
0.00549873
0.00272232
0.000836171
0.00584448
0.00246917
0.00120704
0.00561431
0.00241243
0.0010274
0.00598982
0.00242829
0.00110686
0.00609406
0.00233852
0.0015328
0.00564569
0.00235019
0.000860403
0.00636189
0.00232456
0.00151726
0.00601876
0.002205
0.00119143
0.00609367
0.00227993
0.00126493
0.00601616
0.00231384
0.00148632
0.00569468
0.00217277
0.00184949
0.00573175
0.00194766
0.0010087
0.0067165
0.00197464
0.0010492
0.00602721
0.00190072
0.00153521
0.00603906
0.00185498
0.00143753
0.00565204
0.00179035
0.0012567
0.00553181
0.00186225
0.00189162
0.00563546
0.00172198
0.00189367
0.00552145
0.00151797
0.00086233
0.00683671
0.00154195
0.00115585
0.00614005
0.0012854
0.00142622
0.00546448
0.00113389
0.00134478
0.00499224
0.00114323
0.00139228
0.00519381
0.00107206
0.00174119
0.00520614
0.000846209
0.00136644
0.00511577
0.000848438
0.0010887
0.00513018
0.000628619
0.000743307
0.00643171
0.000958177
0.000923865
0.00570004
0.000713059
0.0010317
0.00524574
0.000537553
0.00119489
0.00465728
0.000355165
0.00121928
0.00480244
0.00032797
0.0013822
0.00469256
0.000371933
0.00118205
0.00486242
0.000468945
0.000780759
0.00515514
0.000328813
0.000541161
0.00494868
3.42456e-05
0.000350335
0.00674095
0.000561073
0.000692513
0.00574618
0.000278528
0.000746263
0.00504493
0.000228864
0.000751397
0.00447962
8.9891e-05
0.00104142
0.00471702
-8.40576e-05
0.00112338
0.00486536
4.22679e-05
0.00091163
0.00472206
6.33977e-05
0.0004813
0.004738
8.60871e-05
0.000419885
0.00489448
1.61829e-05
0.000534418
0.00492226
-8.04082e-05
0.000307867
0.00653368
0.000120191
0.000124677
0.00523533
1.68544e-06
0.000122796
0.00478464
-3.84348e-05
0.000580058
0.00445202
-0.000163994
0.000863043
0.00455428
-0.000238042
0.000972283
0.00420635
-0.000147964
0.000774402
0.00394395
-0.000200348
0.000500029
0.00419243
-0.000356029
0.000272598
0.00448956
-0.000366096
0.000407206
0.00356247
-0.000349102
0.000634201
0.00363813
-0.000219245
-0.000114034
0.00499529
-0.00036084
9.75627e-06
0.00490876
-0.000222293
0.000251105
0.0046499
-0.000123792
0.000551273
0.00439378
-0.000183169
0.000730155
0.00400917
-0.000299767
0.000809121
0.00362931
-0.000441091
0.000693467
0.00332705
-0.000528128
0.000429107
0.00351427
-0.00054095
0.000206229
0.00363026
-0.000480019
0.000278259
0.00284466
-0.000401525
0.000463086
0.00238078
-0.000426633
0.000577974
0.00159504
-0.000598817
-2.39555e-05
0.00354444
-0.000318246
0.000101918
0.0039458
-0.000230826
0.000268317
0.00378319
-0.000208123
0.000456588
0.00376248
-0.000216248
0.000542268
0.00371441
-0.000400674
0.000697976
0.00314752
-0.000452332
0.000622929
0.00284122
-0.0004543
0.000248422
0.00294283
-0.000400681
0.00022058
0.00306961
-0.000340779
0.000306737
0.00296577
-0.000302893
0.000328962
0.00229012
-0.000330592
0.000276244
0.00160405
-0.000419179
0.000332519
0.000544422
-0.000451189
5.11728e-05
0.00171862
-0.000251257
0.000109081
0.00173056
-0.000251959
0.000212653
0.00234294
-0.00025037
0.000231674
0.0023578
-0.000262151
0.000357109
0.00277261
-0.000256235
0.000439788
0.00284569
-0.000310229
0.000519084
0.00195341
-0.000261516
0.0003788
0.00197581
-0.000237403
0.000354589
0.00173359
-0.000222087
0.000256461
0.00190743
-0.000248206
0.000207251
0.00171617
-0.000230088
0.000126362
0.00133748
-0.000167967
0.000217859
0.000165823
-0.000111545
0.000290292
-0.000488111
-9.98124e-05
2.60368e-05
0.000373126
-7.7231e-05
5.97233e-05
0.000774831
-8.05481e-05
8.18088e-05
0.000978001
-7.81414e-05
7.95354e-05
0.00156852
-7.03735e-05
9.38778e-05
0.00196408
-6.1804e-05
0.000145237
0.00319774
-4.19138e-05
0.000174838
0.00275848
-2.50263e-05
0.000210361
0.00230732
-4.24186e-05
0.000201828
0.00110621
-7.53926e-05
0.000158188
0.00090298
-8.82859e-05
0.000134958
0.00115588
-7.36321e-05
0.000129943
0.000862208
-2.53254e-05
0.000183436
-0.000107798
3.50185e-06
0.00017126
-0.000832229
-5.23035e-06
0.000158299
-0.000947948
-1.12406e-05
0.000606959
0.00492038
0.00385291
0.000713651
0.0049063
0.00368041
0.000912011
0.00484013
0.00372613
0.000696042
0.00493316
0.00346775
0.00104856
0.00498274
0.00339768
0.00106386
0.00491815
0.00340818
0.000592709
0.005272
0.00305439
0.000641514
0.00505152
0.00314261
0.00106725
0.00525062
0.00319296
0.00110302
0.0053599
0.00306618
0.000934101
0.00546445
0.00266524
0.00119241
0.00531717
0.00261238
0.000921391
0.00553717
0.00274946
0.000776546
0.00554388
0.00294512
0.00144794
0.00535789
0.00276284
0.000794428
0.0059278
0.00247735
0.00112647
0.00599103
0.00248325
0.0013063
0.00584506
0.00244233
0.00147884
0.00586536
0.00244308
0.00147339
0.00567231
0.00232483
0.0017215
0.00556504
0.00225134
0.000905171
0.00638867
0.00234324
0.00107844
0.0060986
0.00221548
0.00155909
0.00607368
0.00220111
0.00137637
0.0060828
0.00227444
0.00137795
0.00572057
0.00216671
0.00192775
0.00596433
0.00190407
0.00205055
0.00599927
0.00186496
0.00100094
0.00669363
0.00195184
0.00131374
0.00591685
0.0019271
0.00165535
0.00604334
0.00166732
0.00145754
0.00558514
0.00180912
0.00141098
0.00568681
0.00161665
0.00181377
0.00579713
0.001628
0.00158276
0.00549989
0.00152723
0.00139549
0.00499942
0.00104755
0.00114069
0.00668882
0.00151036
0.0014007
0.00590314
0.00130202
0.00110947
0.00559231
0.00107981
0.00137028
0.0050758
0.000874928
0.00128132
0.0052214
0.00105359
0.00161049
0.00511423
0.000935676
0.00127039
0.00504499
0.00082864
0.000980531
0.00528125
0.000497597
0.000907546
0.00471558
0.000243932
0.000748502
0.00607341
0.000925627
0.00098725
0.00562933
0.000734145
0.000927972
0.00524717
0.000529914
0.00102258
0.0046184
0.000305254
0.00128263
0.00463773
0.000278672
0.00125347
0.00453505
0.000355383
0.000995573
0.00473242
0.000417992
0.000563755
0.00515219
0.000389445
0.000601608
0.00501686
7.89118e-05
0.000799865
0.00456143
-0.000123221
0.000401243
0.00679126
0.00056889
0.000590026
0.00549658
0.000345324
0.000438176
0.00485136
0.000156713
0.000722607
0.00454178
2.41628e-05
0.00108084
0.00470825
-0.000119128
0.00103435
0.00470302
1.62151e-05
0.000725292
0.00473769
7.57559e-05
0.000534071
0.004763
4.3566e-06
0.000455274
0.00486451
-6.66174e-05
0.00071283
0.00476472
-0.000131901
0.00104862
0.00413818
-9.48371e-05
0.000206119
0.00653277
-6.00949e-06
0.000163504
0.00520145
3.27942e-07
0.000344506
0.0047565
-6.35761e-05
0.000685148
0.0044786
-0.000198886
0.000921793
0.00442696
-0.000228315
0.000949695
0.00396764
-0.000139911
0.000678919
0.00397774
-0.000167202
0.000451514
0.00429864
-0.000328968
0.00032475
0.00438188
-0.000366874
0.000518649
0.00331944
-0.000363464
0.000712279
0.003328
-0.000288172
0.000964913
0.00260517
-0.000322014
-1.72965e-05
0.00505529
-0.000402141
5.43402e-05
0.00484524
-0.00024975
0.00029394
0.00454792
-0.000145939
0.000629347
0.00427822
-0.000180989
0.000802974
0.00389834
-0.000333045
0.000764325
0.00370078
-0.000437588
0.000574875
0.00347221
-0.000538203
0.000266599
0.0035555
-0.00058753
0.000246177
0.00357517
-0.000511449
0.000434499
0.00263644
-0.000399557
0.000461862
0.00229885
-0.000452491
0.000584835
0.00147445
-0.00061464
0.000538361
0.000915135
-0.000660273
3.49623e-05
0.00346177
-0.000330921
0.000195914
0.00378157
-0.00024085
0.000328054
0.00367759
-0.00024062
0.000506529
0.00354281
-0.000263308
0.000682933
0.0035426
-0.000370259
0.000676036
0.00302449
-0.000513892
0.000572901
0.00281662
-0.000481558
0.0002318
0.00302719
-0.00039166
0.000269166
0.00311729
-0.000362941
0.000336349
0.00285425
-0.000309153
0.000307539
0.00223129
-0.00034435
0.000281759
0.00155698
-0.000438912
0.000327709
0.000480294
-0.0004649
0.00037521
-0.000846616
-0.000469864
8.59668e-05
0.00164709
-0.000247651
0.000147574
0.00164266
-0.000251203
0.000253855
0.00217915
-0.000260212
0.000272327
0.00220394
-0.000289309
0.000369258
0.00254022
-0.000305141
0.000487306
0.00256865
-0.000321259
0.000470711
0.00163147
-0.000284162
0.000379934
0.00178488
-0.000240159
0.000340971
0.00158943
-0.00023238
0.000242102
0.00184625
-0.000244812
0.000181899
0.00164956
-0.000228538
0.000131418
0.00126722
-0.000161305
0.000218825
7.42428e-05
-0.000111776
0.000278486
-0.000599787
-0.000107096
0.000277083
-0.00038289
-0.000132184
3.47064e-05
0.000336893
-7.90898e-05
7.05353e-05
0.000708469
-8.14037e-05
8.72905e-05
0.000888419
-7.82562e-05
9.29172e-05
0.00146852
-7.10621e-05
0.000108245
0.0018496
-6.41392e-05
0.000145069
0.00303795
-4.70838e-05
0.000174235
0.00257327
-3.09456e-05
0.000219345
0.00211014
-4.71861e-05
0.000198028
0.000946561
-8.07931e-05
0.000166643
0.000755934
-9.49893e-05
0.000132048
0.00100968
-7.41415e-05
0.000126243
0.000683933
-2.16009e-05
0.000184997
-0.000325736
7.61546e-06
0.000165886
-0.000989365
-5.24841e-06
0.000152648
-0.00109378
-1.20482e-05
0.000151238
-0.00120469
-1.98012e-05
0.000339573
0.00471717
0.004038
0.000725091
0.00486141
0.0038772
0.000885977
0.00484531
0.0038792
0.000720481
0.00482974
0.00372147
0.000929668
0.00489822
0.00374122
0.00114605
0.00471424
0.00376206
0.0006073
0.00489964
0.00347033
0.000651383
0.00500465
0.00343597
0.00102601
0.00489152
0.00346555
0.00115103
0.00494236
0.00341044
0.000871051
0.00528526
0.00301605
0.000910655
0.00528958
0.00309808
0.00115059
0.00508786
0.00307618
0.00100207
0.0052034
0.00312393
0.00145278
0.0051923
0.00307715
0.00090519
0.00534194
0.00271048
0.000964942
0.0055036
0.00264034
0.0012308
0.0055525
0.00267253
0.00157316
0.00545825
0.00274077
0.00145395