/*--------------------------------*- C++ -*----------------------------------*\
  =========                 |
  \\      /  F ield         | OpenFOAM: The Open Source CFD Toolbox
   \\    /   O peration     | Website:  https://openfoam.org
    \\  /    A nd           | Version:  7
     \\/     M anipulation  |
\*---------------------------------------------------------------------------*/
FoamFile
{
    version     2.0;
    format      ascii;
    class       volVectorField;
    location    "8";
    object      U;
}
// * * * * * * * * * * * * * * * * * * * * * * * * * * * * * * * * * * * * * //

dimensions      [0 1 -1 0 0 0 0];

internalField   nonuniform List<vector> 
18870
(
(0.051198 0.129601 -1.42999)
(-0.306509 0.304522 -1.58382)
(0.00567671 0.130033 -1.4397)
(-0.0427207 0.513284 -1.58647)
(-1.01306 1.65124 -1.06931)
(-0.313305 0.331169 -1.58685)
(-0.272802 0.81677 -1.62273)
(-0.0302631 0.129645 -1.44757)
(-0.0691434 0.505095 -1.62669)
(-0.127524 0.689764 -1.70223)
(0.356653 3.26511 -0.11853)
(-1.12221 1.53847 -1.20882)
(-0.719826 1.82465 -0.952652)
(-0.377538 0.345386 -1.59564)
(0.16888 0.866521 -1.65941)
(-0.530275 1.30742 -1.50528)
(-0.0588244 0.130279 -1.45694)
(-0.0824391 0.498527 -1.66267)
(-0.147578 0.702889 -1.70345)
(-0.220857 0.875826 -1.52787)
(-0.350204 3.84485 1.07365)
(-0.184399 3.14033 -0.345541)
(-0.239135 3.06357 -0.342451)
(-1.30343 1.43659 -1.30393)
(-0.648011 1.74778 -1.16432)
(-0.702942 1.80048 -0.754212)
(-0.452221 0.355656 -1.593)
(-0.0115929 0.866501 -1.75606)
(-0.597184 1.32245 -1.43201)
(-0.837338 1.33516 -1.54223)
(-0.0880715 0.128995 -1.4694)
(-0.0861784 0.501282 -1.68742)
(-0.137473 0.714848 -1.70804)
(-0.361266 0.87885 -1.52092)
(-0.699772 1.0066 -1.32213)
(0.13585 3.46758 2.46939)
(-0.573932 3.72205 1.23807)
(-0.277471 3.41726 1.36331)
(-0.43458 3.09318 -0.445418)
(-0.384701 3.0396 -0.549964)
(-0.31288 2.95183 -1.02499)
(-1.3687 1.31946 -1.41848)
(-0.751363 1.73205 -1.13067)
(-0.747398 1.73483 -0.767108)
(-0.803676 2.23221 -0.753074)
(-0.510821 0.389145 -1.57397)
(-0.206836 0.850521 -1.76127)
(-0.616683 1.33259 -1.36154)
(-0.825108 1.36912 -1.51267)
(-0.487774 2.04572 -0.650558)
(-0.119411 0.126369 -1.48409)
(-0.106536 0.493837 -1.71013)
(-0.106416 0.732337 -1.71392)
(-0.376236 0.872306 -1.51896)
(-0.665855 1.04663 -1.33735)
(-0.632648 1.84796 -0.773709)
(0.644999 3.49993 2.64256)
(-0.0234184 3.47073 2.03172)
(0.305852 3.36255 1.46722)
(-0.902343 3.57066 1.19623)
(-0.43855 3.31842 1.21949)
(0.141972 3.13255 0.762632)
(-0.623217 3.06002 -0.860746)
(-0.400956 3.05501 -1.04091)
(-0.303802 2.86066 -1.20902)
(-0.739773 2.4248 -0.738058)
(-1.43249 1.25707 -1.39375)
(-0.819676 1.60159 -1.17986)
(-0.727211 1.65758 -0.791247)
(-0.803966 2.20118 -0.802316)
(-0.247381 2.48608 -0.557743)
(-0.620753 0.322819 -1.57924)
(-0.249898 0.809233 -1.76685)
(-0.453893 1.35843 -1.33392)
(-0.713709 1.34626 -1.54662)
(-0.483246 2.05339 -0.639238)
(-0.287626 2.33896 -0.732463)
(-0.149284 0.122395 -1.502)
(-0.078922 0.508439 -1.72147)
(-0.0741757 0.734966 -1.7339)
(-0.372943 0.860645 -1.52485)
(-0.644488 1.04747 -1.34569)
(-0.636295 1.85122 -0.71896)
(-0.160018 1.99736 -0.369678)
(0.381412 3.58965 2.53704)
(0.349413 3.72155 2.20594)
(0.449116 3.38039 1.77098)
(-0.217669 3.46225 1.57887)
(0.0277045 3.24734 1.28658)
(0.501712 3.14916 1.58404)
(-1.10869 3.52011 1.01089)
(-0.605414 3.26662 0.899872)
(0.00571122 3.0135 0.938807)
(0.131964 2.61073 0.59473)
(-0.438843 3.18153 -1.18045)
(-0.424819 2.99703 -1.26504)
(-0.547557 2.73256 -0.855552)
(-0.583487 2.31419 -0.534245)
(0.297039 2.30425 -0.708583)
(-1.69733 0.93073 -1.25315)
(-0.815281 1.53132 -1.25295)
(-0.746845 1.64486 -0.794404)
(-0.782018 2.16384 -0.869244)
(-0.197529 2.44193 -0.71163)
(0.444258 2.35808 -1.07475)
(-0.624018 0.436854 -1.56497)
(-0.27218 0.809568 -1.77589)
(-0.403484 1.39074 -1.31989)
(-0.668807 1.33698 -1.57169)
(-0.47613 1.95301 -0.813392)
(-0.348757 2.30897 -0.803921)
(0.47366 2.25675 -0.639411)
(-0.173164 0.115662 -1.52574)
(-0.0562786 0.539009 -1.71886)
(-0.0769633 0.726774 -1.7676)
(-0.370215 0.874944 -1.51408)
(-0.598136 1.01822 -1.3652)
(-0.637132 1.80017 -0.827459)
(-0.172903 1.93884 -0.471786)
(0.431327 1.90403 -0.194442)
(0.477528 3.28699 2.6513)
(0.103903 3.60539 2.54216)
(0.516586 3.35251 2.48311)
(-0.171788 3.72329 2.09694)
(0.109524 3.38491 1.6666)
(0.236457 3.07826 1.80884)
(-0.824505 3.33248 1.22754)
(-0.49261 3.14373 1.11482)
(0.460498 3.178 1.32461)
(0.765716 2.92062 1.31741)
(-1.12681 3.598 0.921122)
(-0.606877 3.28756 0.812316)
(-0.273365 2.94543 0.969255)
(-0.503514 2.43926 0.490552)
(0.086245 2.33914 -0.266726)
(-0.668946 2.97502 -1.0737)
(-1.13751 2.59091 -0.869642)
(-1.58392 2.17844 -0.0772331)
(-0.651208 2.22031 -0.363963)
(-0.0384294 2.37353 -0.441748)
(0.970381 2.35324 -0.853705)
(-1.70529 0.806087 -1.2605)
(-0.999015 1.52582 -1.14559)
(-0.78781 1.70916 -0.744296)
(-0.743333 2.15963 -0.915162)
(-0.188234 2.43376 -0.736755)
(0.600886 2.29845 -1.30195)
(1.74966 2.15321 -0.421016)
(-0.628967 0.466611 -1.55581)
(-0.328563 0.796785 -1.79558)
(-0.343806 1.42734 -1.31388)
(-0.603634 1.34507 -1.58924)
(-0.470893 1.93171 -0.869811)
(-0.389645 2.22971 -0.875762)
(0.566302 2.18617 -0.716755)
(1.47011 1.87024 -0.894957)
(-0.184955 0.114813 -1.55232)
(-0.0603576 0.547785 -1.72289)
(-0.106829 0.715222 -1.79597)
(-0.352034 0.876195 -1.49558)
(-0.587046 1.02132 -1.37051)
(-0.6618 1.79922 -0.866108)
(-0.212945 1.95682 -0.266404)
(0.473162 1.90308 -0.17432)
(0.766775 1.19361 -0.0815352)
(0.0473275 2.98283 2.64272)
(-0.0893336 3.4239 2.58761)
(0.421152 3.23592 2.60708)
(-0.124025 3.66403 2.57545)
(0.262899 3.38727 2.41518)
(0.554821 2.99662 2.36637)
(-0.439043 3.69073 1.97414)
(-0.19886 3.15981 1.90727)
(0.0717278 2.98146 1.90718)
(0.717662 2.75051 1.85453)
(-1.30436 3.14128 1.13113)
(-0.64985 3.08725 1.14548)
(0.0197112 3.11834 1.30281)
(0.504903 2.77487 1.18572)
(0.297793 2.68789 1.19663)
(-1.46791 3.6178 1.00222)
(-0.522059 3.35135 0.825426)
(-0.456248 2.74464 0.922511)
(-0.388087 2.36336 0.373147)
(0.203528 2.40655 -0.0816823)
(0.790508 2.52914 -0.126938)
(-1.71018 2.31453 -0.208943)
(-2.2614 1.71602 -0.422705)
(-1.71629 2.06829 0.0432351)
(-0.573264 2.20343 -0.453657)
(0.187154 2.29161 -0.584189)
(0.666619 2.33183 -1.07871)
(1.54943 1.97397 -0.963481)
(-1.74206 0.771287 -1.27493)
(-1.16673 1.50164 -1.04209)
(-0.825555 1.76369 -0.670855)
(-0.706922 2.13044 -0.944916)
(-0.225444 2.42481 -0.517337)
(0.671331 2.28913 -1.36979)
(1.34854 2.09234 -1.39433)
(1.38289 1.43627 -1.4689)
(-0.633435 0.492045 -1.55953)
(-0.375569 0.798856 -1.79578)
(-0.213065 1.52142 -1.26949)
(-0.551255 1.35507 -1.60267)
(-0.470424 1.86594 -0.998103)
(-0.285045 2.14142 -1.08769)
(0.719194 2.1469 -0.781792)
(1.55671 1.89438 -1.06656)
(1.50221 1.34947 -1.5652)
(-0.182393 0.123643 -1.57833)
(-0.0528238 0.556583 -1.73292)
(-0.111398 0.717258 -1.80885)
(-0.33645 0.881193 -1.48519)
(-0.560262 1.01783 -1.38994)
(-0.674439 1.80338 -0.853753)
(-0.0789009 1.93678 -0.421536)
(0.518762 1.89231 -0.184921)
(0.836022 1.20116 -0.158915)
(0.885076 0.943038 -0.784643)
(0.0379927 2.91246 2.46001)
(-0.0915594 3.1678 2.52185)
(0.235087 2.94119 2.62372)
(-0.124761 3.38185 2.58909)
(0.191851 3.28622 2.5369)
(0.6076 3.04915 2.55244)
(-0.159209 3.71787 2.48391)
(0.0539786 3.39125 2.38823)
(0.558756 3.12017 2.14527)
(0.935586 2.91978 2.04503)
(-0.667952 3.50687 1.91966)
(-0.390879 3.13093 1.83103)
(0.220032 3.01666 1.61446)
(0.54294 2.79457 1.53501)
(0.820761 2.56702 1.67388)
(-1.36366 3.02878 1.16426)
(-0.858258 3.02888 1.32629)
(0.113334 3.0258 0.899398)
(0.24828 2.67337 0.967496)
(0.306592 2.60967 0.893775)
(0.815738 2.78737 0.263346)
(-1.41318 3.70257 1.0083)
(-0.702544 3.21941 0.885572)
(-0.923945 2.37043 0.429488)
(-0.565715 2.37776 0.0789661)
(-0.0177112 2.42737 -0.338363)
(0.837481 2.58681 -0.545577)
(1.36551 2.35344 -0.53701)
(-2.33188 1.55991 -0.338501)
(-2.15457 1.64921 -0.640734)
(-1.66646 2.02017 -0.104016)
(-0.816828 2.19843 -0.44183)
(0.148613 2.3935 -0.678639)
(0.805167 2.32723 -0.670459)
(1.31719 2.01218 -0.960173)
(0.907156 1.76866 -1.45143)
(-1.73766 0.820442 -1.33183)
(-1.18669 1.54044 -1.02789)
(-0.848156 1.79501 -0.656278)
(-0.680488 2.12367 -0.918874)
(-0.0883836 2.36337 -0.483264)
(0.743175 2.29505 -1.2653)
(1.34321 2.07333 -1.50319)
(0.926374 1.62359 -1.62816)
(0.316422 1.18346 -1.70425)
(-0.646029 0.539818 -1.57335)
(-0.41096 0.783876 -1.79496)
(-0.3729 1.40901 -1.37244)
(-0.504927 1.34745 -1.67493)
(-0.475091 1.79625 -1.12235)
(-0.209216 2.12156 -1.16279)
(0.922714 2.15255 -0.89311)
(1.61786 1.92899 -1.15922)
(1.4041 1.4055 -1.47319)
(1.16358 1.26126 -1.8808)
(-0.17013 0.139758 -1.6031)
(-0.0314942 0.599239 -1.73004)
(-0.0986552 0.711614 -1.83642)
(-0.311572 0.895345 -1.49695)
(-0.520392 1.01258 -1.41339)
(-0.65347 1.75412 -0.946048)
(-0.0928986 1.9284 -0.452992)
(0.520537 1.87644 -0.180546)
(0.904465 1.21491 -0.303623)
(0.880398 0.948824 -1.01155)
(0.947069 1.04823 -1.07421)
(0.042049 2.62992 2.48327)
(0.0851025 2.90201 2.47305)
(0.449784 2.91242 2.41502)
(-0.135487 3.09662 2.5166)
(0.176807 3.00669 2.57263)
(0.494022 2.87446 2.65272)
(-0.185714 3.42092 2.58626)
(-0.0179377 3.26728 2.54321)
(0.556492 3.10406 2.45101)
(0.826331 2.96857 2.43487)
(-0.417548 3.56583 2.46847)
(-0.302458 3.21979 2.45521)
(0.48869 2.96832 2.25716)
(0.876707 2.81538 2.13315)
(0.652193 2.65143 2.066)
(-0.994058 3.40937 1.55596)
(-0.465292 3.09723 1.80242)
(0.11904 2.94059 1.52866)
(0.456314 2.70521 1.46982)
(0.666639 2.619 1.23196)
(0.853841 2.76885 1.12486)
(-1.6713 2.75879 1.12235)
(-1.12336 2.99323 1.45984)
(-0.150717 2.92545 0.673127)
(-0.0340223 2.56576 0.677825)
(0.32671 2.62747 0.375633)
(0.629565 2.86824 0.48932)
(1.29944 2.59604 0.208271)
(-1.53818 3.49521 1.17412)
(-1.1778 2.83898 0.906499)
(-0.984416 2.09409 0.0970536)
(-0.510898 2.33867 0.340618)
(-0.0373812 2.48314 -0.23769)
(0.942523 2.63767 -0.834047)
(1.31102 2.36219 -0.727019)
(0.812222 2.33996 -0.621235)
(-2.44061 1.38268 -0.390503)
(-2.12218 1.59379 -0.789546)
(-1.29587 2.22247 -0.0962411)
(-0.82816 2.21331 -0.395292)
(0.0922891 2.39203 -0.703247)
(0.885751 2.35424 -0.594566)
(1.18811 1.9868 -1.03792)
(0.48847 1.79114 -1.47157)
(-0.138049 1.70791 -1.53567)
(-1.67387 0.855057 -1.44754)
(-1.35541 1.52729 -0.898085)
(-0.927031 1.78849 -0.678948)
(-0.657511 2.13865 -0.838246)
(-0.0554668 2.36482 -0.499399)
(0.787329 2.29549 -1.2322)
(1.30754 2.06548 -1.57184)
(1.1278 1.65038 -1.61147)
(-0.0198838 1.47038 -1.52704)
(0.284749 1.53741 -1.44086)
(-0.637019 0.582727 -1.59955)
(-0.494018 0.744373 -1.82075)
(-0.419162 1.37971 -1.39319)
(-0.466104 1.34865 -1.71986)
(-0.466107 1.75004 -1.26316)
(-0.0598695 2.09955 -1.28513)
(1.12169 2.16976 -1.06641)
(1.57325 1.93888 -1.32307)
(1.28171 1.45442 -1.43448)
(1.05051 1.30309 -1.85158)
(0.99735 1.21132 -2.1356)
(-0.150588 0.163005 -1.62681)
(-0.0299193 0.615759 -1.72623)
(-0.0711347 0.738497 -1.85672)
(-0.279533 0.911136 -1.53157)
(-0.507931 1.0246 -1.42231)
(-0.664699 1.73987 -0.980381)
(-0.0901534 1.90566 -0.48668)
(0.518199 1.863 -0.18903)
(0.95817 1.2369 -0.501875)
(0.880752 0.956156 -1.24815)
(0.943271 1.05199 -1.27249)
(1.10546 0.904439 -1.15085)
(0.0611097 2.54452 2.57127)
(0.170654 2.73515 2.33982)
(0.156949 2.7393 2.4066)
(-0.132654 2.82007 2.49698)
(-0.350294 2.59428 2.81401)
(0.481526 2.7657 2.62223)
(-0.173098 3.09285 2.50331)
(0.147561 3.0889 2.53521)
(0.337525 2.99217 2.69593)
(0.620281 3.11485 2.49977)
(-0.473162 3.49848 2.57691)
(-0.035422 3.32858 2.47729)
(0.361226 3.16211 2.46602)
(0.790332 2.97894 2.43274)
(0.75132 2.82551 2.55039)
(-0.930002 3.36781 2.46241)
(-0.4846 3.12865 2.33432)
(0.163185 3.00919 2.17459)
(0.68267 2.90071 1.85781)
(0.482147 2.57259 2.20219)
(1.03422 2.77501 1.72691)
(-1.16809 3.19416 1.77139)
(-0.593935 2.94945 1.81658)
(-0.298879 2.85895 1.60192)
(0.202765 2.6792 1.33539)
(0.480429 2.64458 0.95021)
(0.873825 2.81275 0.913661)
(1.237 2.65839 0.524642)
(-1.74861 2.69014 1.17378)
(-1.06016 3.01139 1.43252)
(-0.663359 2.72481 0.81467)
(-0.244961 2.37661 0.567426)
(0.273032 2.62289 0.27786)
(0.588628 2.86663 0.56618)
(1.07325 2.59893 0.196326)
(0.923571 2.53168 0.343299)
(-1.66637 3.20637 1.19995)
(-1.69327 2.35896 0.919874)
(-1.26171 1.9351 0.0546783)
(-0.429776 2.37162 0.403007)
(0.470535 2.5766 -0.0606318)
(0.896399 2.67087 -0.779072)
(1.1175 2.37047 -0.595449)
(0.698013 2.32053 -0.556707)
(-0.231116 2.22565 -1.12579)
(-2.28848 1.32224 -0.808837)
(-2.01748 1.68738 -0.822547)
(-1.23869 2.20818 -0.488242)
(-0.710923 2.24825 -0.379953)
(0.143606 2.325 -0.583684)
(0.606522 2.35697 -0.994041)
(1.09363 2.03126 -1.23883)
(0.226239 1.80031 -1.43769)
(-0.277369 1.75543 -1.54074)
(0.0849048 1.60513 -1.50751)
(-1.61643 0.900488 -1.54378)
(-1.43063 1.47185 -0.900914)
(-0.978876 1.7394 -0.812572)
(-0.610918 2.11825 -0.822388)
(-0.0509122 2.34645 -0.61129)
(0.751271 2.29821 -1.39066)
(1.26845 2.11907 -1.63245)
(0.611532 1.67934 -1.85236)
(-0.0412087 1.48739 -1.5012)
(0.217478 1.56967 -1.48749)
(0.585838 1.27305 -1.39425)
(-0.616866 0.631753 -1.62903)
(-0.529518 0.752522 -1.87876)
(-0.425487 1.37964 -1.42079)
(-0.439758 1.35281 -1.69954)
(-0.367443 1.73923 -1.40813)
(0.106774 2.10012 -1.48539)
(1.26626 2.18609 -1.31411)
(1.60128 1.96963 -1.35022)
(1.23681 1.50414 -1.43089)
(0.952449 1.32714 -1.80212)
(0.922176 1.20897 -2.0516)
(0.374279 0.809393 -1.61433)
(-0.127085 0.192149 -1.64984)
(-0.0288653 0.634175 -1.71221)
(-0.0628532 0.744419 -1.86645)
(-0.268081 0.92183 -1.54998)
(-0.463122 1.03389 -1.43884)
(-0.630028 1.72463 -1.02566)
(-0.0507725 1.89502 -0.407808)
(0.520972 1.83814 -0.243897)
(0.991238 1.26031 -0.737556)
(0.889803 0.970621 -1.48584)
(0.936378 1.05338 -1.47175)
(1.16887 0.92636 -1.2749)
(1.71201 0.488758 -0.260197)
(0.0451791 2.50036 2.68682)
(-0.096833 2.56489 2.52549)
(0.231502 2.57494 2.55105)
(-0.277915 2.64422 2.48538)
(0.0019377 2.69492 2.48736)
(0.0981368 2.60383 2.59911)
(-0.436289 2.83557 2.54427)
(-0.115662 2.9988 2.46162)
(0.0642621 3.11076 2.31063)
(0.678227 2.9777 2.36185)
(-0.570239 3.09207 2.54579)
(-0.623468 2.97061 2.67646)
(0.0758002 3.08999 2.64365)
(0.440002 3.06282 2.53764)
(0.506575 2.99714 2.64359)
(-0.586787 3.5146 2.53231)
(-0.404274 3.22956 2.56755)
(0.128379 3.16694 2.58951)
(0.590285 3.0141 2.4572)
(0.643433 2.86342 2.57482)
(0.904304 2.99524 2.34844)
(-1.03511 3.30879 2.49608)
(-0.516291 3.17738 2.03335)
(0.258868 3.13187 1.94728)
(0.402987 2.75763 1.92284)
(0.538653 2.83726 1.72372)
(1.07401 2.89911 1.38116)
(1.13139 2.65634 1.51698)
(-1.40065 3.01123 1.88453)
(-0.787864 2.83534 1.51322)
(-0.191709 2.94574 1.14994)
(0.135184 2.64626 0.991571)
(0.42135 2.68556 0.843485)
(0.935583 2.79494 0.52595)
(0.918475 2.78524 0.456978)
(0.621737 2.63737 0.314825)
(-1.95422 2.64509 1.19998)
(-0.844652 3.08923 0.892051)
(-0.873062 2.47985 0.988624)
(-0.109423 2.31744 0.723435)
(0.276776 2.60263 0.171355)
(0.684363 2.82685 0.284926)
(0.761127 2.59335 0.357659)
(0.690917 2.42789 0.388533)
(0.108267 2.50814 0.563442)
(-1.55782 3.1434 0.770548)
(-1.74113 2.1169 0.757251)
(-0.155637 2.43642 -0.087986)
(-0.333508 2.38126 0.111078)
(-0.0586832 2.70274 -0.137295)
(0.797783 2.65961 -0.605642)
(0.875071 2.34132 -0.291479)
(0.412414 2.29495 -0.638589)
(-0.369643 2.18408 -1.08076)
(0.115402 1.9904 -0.963173)
(-2.38076 1.1219 -1.05115)
(-1.95164 1.68503 -0.829769)
(-1.11745 2.21682 0.0002039)
(-0.459245 2.34565 -0.40866)
(0.0894405 2.38394 -0.634653)
(1.07156 2.34245 -0.956209)
(0.780559 2.07713 -1.51751)
(0.0430125 1.85154 -1.39577)
(-0.301705 1.76174 -1.5631)
(0.0546526 1.56305 -1.56356)
(0.788015 1.37054 -1.04517)
(-1.52602 1.02688 -1.60524)
(-1.42053 1.4679 -0.95178)
(-0.941803 1.76432 -0.851823)
(-0.56279 2.10913 -0.883182)
(0.022694 2.36183 -0.785543)
(0.807587 2.35319 -1.53621)
(1.15707 2.16714 -1.80544)
(0.404033 1.6982 -1.90482)
(0.19374 1.53396 -1.52187)
(0.191217 1.61756 -1.49798)
(0.573866 1.33019 -1.31456)
(0.473406 0.923103 -1.47035)
(-0.609431 0.662442 -1.66244)
(-0.482881 0.829546 -1.92606)
(-0.37234 1.40107 -1.48234)
(-0.400681 1.34453 -1.75671)
(-0.178441 1.81795 -1.45698)
(0.287308 2.16422 -1.69136)
(1.32253 2.18 -1.63852)
(1.2681 1.89399 -1.75711)
(1.2283 1.56269 -1.47286)
(0.84936 1.35914 -1.74532)
(0.782371 1.1849 -2.00282)
(0.34203 0.800422 -1.53785)
(0.863792 0.295077 -1.09564)
(-0.100958 0.225413 -1.67084)
(-0.024512 0.656895 -1.68577)
(-0.0806113 0.729884 -1.87261)
(-0.263368 0.932828 -1.5405)
(-0.445504 1.03354 -1.46006)
(-0.596286 1.70715 -1.07385)
(-0.0310941 1.82759 -0.507815)
(0.528321 1.83036 -0.27642)
(1.00362 1.27614 -0.997437)
(0.909384 0.991828 -1.71222)
(0.934574 1.0597 -1.66075)
(1.19485 0.935655 -1.40485)
(1.73629 0.499393 -0.0577568)
(1.6077 -0.00963311 0.0618908)
(0.0500899 2.38052 2.72612)
(-0.111035 2.51271 2.665)
(0.114254 2.475 2.69568)
(-0.298955 2.5131 2.59262)
(0.02908 2.5543 2.56199)
(0.231304 2.53109 2.64577)
(-0.282317 2.70677 2.44273)
(-0.250783 2.57377 2.60058)
(0.622817 2.90834 2.23258)
(0.520851 2.79852 2.39696)
(-0.534654 2.87443 2.56318)
(-0.241459 2.94297 2.49202)
(0.0907443 3.00841 2.44968)
(0.498652 3.17959 2.19519)
(0.887197 2.92823 2.36511)
(-0.613689 3.12325 2.54762)
(0.439384 3.21995 2.48728)
(-0.00557895 3.10674 2.58989)
(0.212855 3.05406 2.54599)
(0.454693 2.92235 2.68863)
(1.06889 2.89388 2.49715)
(-0.808766 3.31281 2.60167)
(-0.378972 3.04985 2.61481)
(0.104635 3.24455 2.41379)
(0.417043 3.11923 2.23854)
(0.362404 2.81554 2.68976)
(1.06519 2.96895 2.25048)
(1.25602 2.93164 1.86866)
(-1.13921 3.30121 2.48584)
(-0.552939 3.20022 1.8709)
(0.126351 3.02317 1.87689)
(0.259001 2.79822 1.70395)
(0.49558 2.8294 1.65057)
(0.914166 2.98428 1.06475)
(0.854891 2.71558 1.54461)
(0.616323 2.51585 1.33134)
(-1.45042 2.98684 1.78604)
(-0.901117 2.80487 1.216)
(-0.144276 2.87022 1.0424)
(0.0872789 2.63792 0.727487)
(0.458214 2.76318 0.488142)
(0.755025 2.72915 0.522824)
(0.647496 2.70545 0.717291)
(0.308708 2.63422 0.610661)
(0.194745 2.44294 0.395878)
(-1.87264 2.74773 1.23834)
(-0.943305 2.95157 0.589775)
(-0.579992 2.47751 0.714755)
(-0.344462 2.37806 0.373227)
(0.153273 2.64807 0.0014223)
(0.546828 2.83875 -0.0455128)
(0.491153 2.59237 0.227816)
(0.0833846 2.39408 0.253591)
(-0.00943027 2.45452 0.344291)
(0.219642 2.45248 0.0151735)
(-1.92872 2.80044 0.680306)
(-1.7908 1.89729 -0.0270113)
(-1.36529 2.05409 0.180348)
(-0.423761 2.32621 -0.130494)
(0.0402792 2.61234 -0.599791)
(0.56359 2.59565 -0.565456)
(0.547145 2.33543 -0.201216)
(0.0536528 2.17584 -0.979643)
(-0.308487 2.2278 -0.72257)
(0.11492 1.85221 -1.1134)
(0.548837 1.94841 -0.520695)
(-2.17201 1.28137 -1.23802)
(-1.89497 1.62438 -0.941422)
(-1.02532 2.14427 -0.401289)
(-0.499581 2.42304 -0.347606)
(0.132985 2.51439 -0.619659)
(0.504838 2.4736 -1.22502)
(0.648606 2.08435 -1.56387)
(0.23104 1.90274 -1.57378)
(-0.163096 1.79741 -1.59477)
(0.0827519 1.50216 -1.58529)
(0.698811 1.34757 -0.933915)
(0.735698 0.980842 -1.70771)
(-1.45793 1.08962 -1.61586)
(-1.37151 1.50149 -1.04214)
(-0.869724 1.82852 -0.819077)
(-0.51474 2.14384 -0.914235)
(-0.151818 2.24076 -1.45417)
(0.795848 2.42096 -1.75376)
(1.01513 2.19836 -2.00885)
(0.337989 1.68856 -1.96763)
(0.0356372 1.71117 -1.46852)
(0.208157 1.63581 -1.52655)
(0.626765 1.34221 -1.17127)
(0.380641 0.873314 -1.63805)
(0.858039 0.45208 -2.11156)
(-0.609156 0.670895 -1.68838)
(-0.496247 0.79118 -1.97843)
(-0.324704 1.42952 -1.56219)
(-0.354548 1.36864 -1.91124)
(-0.0563656 1.86413 -1.62382)
(0.382123 2.07733 -2.1098)
(1.27487 2.11331 -1.98655)
(1.20683 1.87569 -1.81006)
(1.2185 1.60148 -1.56232)
(0.708515 1.34912 -1.73565)
(0.589511 1.12276 -1.99736)
(0.280398 0.782936 -1.46725)
(0.841126 0.295788 -1.09687)
(1.23192 -0.0122192 -0.536663)
(-0.0708867 0.271355 -1.68471)
(-0.00993854 0.698769 -1.64144)
(-0.0792512 0.729069 -1.86845)
(-0.235784 0.947946 -1.52326)
(-0.406987 1.04465 -1.50902)
(-0.577464 1.70616 -1.09335)
(-0.0255667 1.79663 -0.58686)
(0.562176 1.85237 -0.346292)
(0.988049 1.28403 -1.24775)
(0.936983 1.02021 -1.90964)
(0.933051 1.06717 -1.83457)
(1.16404 0.925509 -1.47824)
(1.75237 0.508582 0.153416)
(1.55117 -0.00561135 0.0236455)
(1.38192 -0.188761 -0.252272)
(0.00405697 2.39066 2.56277)
(-0.0569476 2.41448 2.66034)
(0.156643 2.36481 2.72355)
(-0.280477 2.41685 2.67761)
(0.160563 2.49487 2.65249)
(0.213741 2.46136 2.66576)
(-0.419027 2.52436 2.52001)
(-0.185893 2.45853 2.63814)
(0.155444 2.577 2.58789)
(0.281456 2.67001 2.57947)
(-0.445376 2.7155 2.39696)
(0.191018 2.78626 2.35571)
(-0.113361 2.60044 2.67594)
(-0.0428956 2.61365 2.71935)
(0.575415 2.63305 2.64685)
(-0.74771 2.81733 2.5186)
(-0.247033 2.88403 2.48912)
(-0.0662625 3.00364 2.43625)
(0.192632 3.05038 2.44874)
(0.754271 2.90683 2.5241)
(1.11222 2.78051 2.4603)
(-0.791652 3.17772 2.53543)
(-0.632222 3.12301 2.60529)
(0.163695 3.24035 2.4941)
(0.144624 3.12696 2.53117)
(0.395193 2.95517 2.6809)
(1.07197 3.09437 2.24049)
(1.31244 3.1218 1.96527)
(-1.10874 3.23808 2.49036)
(-0.358173 3.1644 2.37727)
(0.0037758 3.35409 2.10237)
(0.32049 3.01771 2.28401)
(0.462899 3.05961 2.30086)
(1.09966 3.11469 2.00607)
(0.826725 2.87083 2.13344)
(0.892556 2.47174 2.07782)
(-1.15904 3.33185 2.35467)
(-0.535165 3.19381 1.86378)
(-0.400153 2.91509 1.79401)
(0.26173 2.82958 1.37893)
(0.223187 2.81979 1.6063)
(0.672261 2.82681 1.37134)
(0.692532 2.7461 1.3747)
(0.447193 2.71747 0.961355)
(0.352734 2.35496 0.564178)
(-1.61681 2.74979 1.7332)
(-0.972253 2.77294 1.33269)
(-0.489036 2.76206 1.10049)
(-0.0993998 2.55696 0.754363)
(0.340008 2.75011 0.435954)
(0.465495 2.62629 0.608967)
(0.306023 2.55308 0.688322)
(-0.135507 2.56512 0.851404)
(0.0941003 2.47761 0.515722)
(0.457265 2.32977 -0.285316)
(-1.99343 2.76034 1.26259)
(-1.39468 2.47473 0.914691)
(-1.29132 2.17002 0.511889)
(-0.459975 2.361 0.179335)
(0.0416073 2.71527 -0.0189422)
(0.322094 2.79529 -0.307866)
(0.184435 2.57214 0.207894)
(0.112076 2.45235 0.0264553)
(-0.0589772 2.42289 0.112452)
(0.32417 2.4812 -0.25824)
(0.909186 2.2566 -0.330182)
(-2.33351 2.26359 0.584177)
(-1.58773 2.0657 -0.0857675)
(-1.21787 2.05628 0.064612)
(-0.344228 2.42661 -0.352472)
(0.0203943 2.62742 -0.669977)
(0.394166 2.52181 -0.567133)
(0.313586 2.30299 -0.189501)
(-0.0241254 2.24529 -0.79736)
(-0.328684 2.15926 -0.719275)
(0.16084 1.79283 -1.09653)
(0.532901 1.82336 -0.606627)
(1.25832 1.51133 -0.556538)
(-2.01478 1.4807 -1.41515)
(-1.57021 1.85759 -0.985478)
(-1.04315 2.17695 -0.412095)
(-0.291444 2.51945 -0.379336)
(0.184292 2.55267 -0.810766)
(0.518061 2.46468 -1.24812)
(0.379592 2.12893 -1.59699)
(-0.558476 1.71701 -1.75584)
(-0.207372 1.82786 -1.72783)
(0.428591 1.54351 -1.45961)
(0.451456 1.31875 -0.984587)
(0.746697 0.911465 -1.77778)
(0.763055 0.588649 -2.1683)
(-1.33443 1.14232 -1.66357)
(-1.1581 1.63852 -1.12972)
(-0.825619 1.85614 -0.928056)
(-0.394761 2.1582 -1.00015)
(0.150691 2.56669 -0.982203)
(0.627318 2.3713 -2.08992)
(0.779301 2.19604 -2.24763)
(0.0798423 1.7723 -1.92988)
(0.2069 1.71089 -1.54851)
(0.258739 1.66243 -1.54847)
(0.375997 1.29028 -1.18423)
(0.34272 0.91667 -1.77465)
(0.845905 0.408411 -2.15431)
(1.17726 -0.262442 -2.01084)
(-0.601932 0.656709 -1.71924)
(-0.492559 0.781435 -1.94451)
(-0.316157 1.43189 -1.62517)
(-0.302411 1.36165 -2.09681)
(-0.00452763 1.84929 -1.91565)
(0.593316 2.40209 -2.07015)
(1.03095 1.92334 -2.37203)
(1.13372 1.86914 -1.80748)
(1.15845 1.6172 -1.66398)
(0.692106 1.34914 -1.7449)
(0.388774 1.06275 -1.97805)
(0.216262 0.764221 -1.40972)
(0.847164 0.300398 -1.06458)
(1.19037 -0.00490311 -0.585286)
(1.19783 0.0243165 -0.965514)
(-0.0382686 0.326659 -1.6866)
(-0.0113352 0.708743 -1.64713)
(-0.0540731 0.746655 -1.85365)
(-0.220738 0.965717 -1.52194)
(-0.365538 1.06482 -1.55936)
(-0.544793 1.66289 -1.16213)
(-0.00299242 1.79343 -0.680132)
(0.607373 1.88499 -0.453203)
(0.936039 1.2743 -1.47506)
(0.992772 1.07059 -2.06663)
(0.90971 1.06667 -1.9833)
(1.09823 0.896561 -1.43733)
(1.75394 0.518373 0.345148)
(1.51357 0.000590124 0.00804067)
(1.36849 -0.182997 -0.261321)
(1.2961 -0.34478 -0.25158)
(-0.0682083 2.23174 2.4788)
(-0.174843 2.37382 2.57768)
(0.125769 2.35223 2.61211)
(-0.203719 2.38208 2.67712)
(0.0354075 2.39429 2.66862)
(0.302255 2.35913 2.67687)
(-0.494274 2.34347 2.67258)
(-0.351612 2.39492 2.6961)
(0.132784 2.41569 2.67523)
(0.356374 2.47657 2.6548)
(-0.40767 2.59074 2.44756)
(-0.344272 2.50683 2.58911)
(-0.066424 2.57375 2.64244)
(-0.0168935 2.53683 2.76411)
(0.576453 2.58293 2.64698)
(-0.636995 2.62366 2.50102)
(-0.341675 2.69133 2.47815)
(0.034232 2.89266 2.42018)
(0.391594 2.97316 2.39579)
(0.292332 2.73374 2.70412)
(0.611574 2.85148 2.47457)
(-0.926289 2.7919 2.49711)
(-0.382216 3.02125 2.41442)
(-0.022122 3.04862 2.46061)
(0.0988689 2.99649 2.50984)
(0.213657 3.00684 2.50891)
(0.833924 3.02806 2.27133)
(1.10334 2.97784 2.18576)
(-0.918747 3.12079 2.56179)
(-0.530246 3.0661 2.70094)
(-0.0198057 3.33862 2.38463)
(-0.0940936 3.20585 2.44368)
(0.149862 3.01614 2.62717)
(0.530316 3.24497 2.21028)
(0.86252 3.13654 2.13046)
(0.806565 2.91233 2.31224)
(-0.997868 3.35769 2.30884)
(-0.288066 3.21875 2.38869)
(-0.408792 3.0647 2.38278)
(-0.0402158 3.05746 2.0964)
(0.155849 3.07352 2.25071)
(0.694567 3.32477 1.75269)
(0.447638 2.89417 2.15055)
(0.437468 2.66652 1.82057)
(0.832056 2.35962 0.681736)
(-1.21559 3.24323 2.35302)
(-0.6209 3.13476 1.89866)
(-0.6134 2.86954 1.82525)
(-0.265715 2.76707 1.28385)
(0.108458 2.94859 1.13197)
(0.342643 2.83896 1.37044)
(0.358459 2.70094 1.31687)
(0.0823091 2.68539 1.07238)
(0.309692 2.37202 0.524512)
(0.795498 1.8513 0.127822)
(-1.59391 2.48293 2.12789)
(-0.963742 2.79808 1.27149)
(-0.844641 2.62464 1.04614)
(-0.380798 2.47503 0.67214)
(0.254182 2.7012 0.230888)
(0.191503 2.52533 0.508459)
(-0.177308 2.42502 0.548654)
(-0.350023 2.52943 0.735346)
(-0.0762393 2.52328 0.498963)
(0.575912 2.35346 -0.270111)
(1.31359 1.87883 -0.12178)
(-2.08023 2.75177 1.19437)
(-1.74276 2.09779 0.966753)
(-1.00543 2.2012 0.419727)
(-0.54231 2.37501 0.105846)
(-0.0399962 2.73814 -0.0825867)
(0.182889 2.68636 -0.443618)
(-0.180044 2.49315 0.36621)
(-0.326522 2.43881 0.0891201)
(-0.155494 2.43542 0.00128843)
(0.389221 2.4465 -0.372893)
(0.963908 2.13939 -0.268242)
(1.39421 1.65084 -0.0645889)
(-2.51424 2.05009 0.528419)
(-2.03906 1.68264 -0.63045)
(-1.3427 2.00379 0.0937086)
(-0.629282 2.48222 -0.379449)
(-0.0646816 2.65529 -0.615334)
(-0.0551499 2.33851 -0.439639)
(-0.187138 2.21225 -0.122199)
(-0.14998 2.25236 -0.649146)
(-0.361679 2.13425 -0.773379)
(0.28672 1.73445 -1.09844)
(0.609943 1.73941 -0.713067)
(1.13555 1.4615 -0.799309)
(1.0641 1.42728 -1.08849)
(-2.10127 1.4885 -1.43235)
(-1.58684 1.83888 -1.06766)
(-1.03679 2.18151 -0.533625)
(-0.448969 2.51805 -0.503157)
(0.156896 2.63708 -0.763962)
(0.334793 2.50251 -1.26567)
(0.0814332 2.11636 -1.57077)
(-0.605625 1.66079 -1.75549)
(-0.281303 1.78515 -1.86007)
(0.355008 1.49988 -1.51982)
(0.485476 1.30415 -1.06307)
(0.706964 0.901962 -1.881)
(0.70073 0.556533 -2.19097)
(0.823583 0.200968 -2.11803)
(-1.26093 1.24519 -1.67012)
(-1.05647 1.73457 -1.18215)
(-0.739519 1.96942 -0.932675)
(-0.269525 2.21151 -1.15624)
(0.0581779 2.46116 -1.27793)
(0.363166 2.31412 -2.30277)
(0.533338 2.13588 -2.44874)
(-0.0351702 1.77081 -1.90638)
(-0.0992454 1.7614 -1.51302)
(0.0265892 1.55165 -1.62963)
(0.245336 1.28173 -1.21051)
(0.37392 0.901616 -1.87864)
(0.809979 0.463828 -2.18104)
(1.12876 -0.151914 -2.08641)
(1.12936 -0.250015 -2.18703)
(-0.581262 0.645509 -1.76343)
(-0.412185 0.865252 -1.84218)
(-0.337877 1.37382 -1.64406)
(-0.232902 1.40431 -2.17312)
(0.0251857 1.85799 -2.11914)
(0.508421 2.1832 -2.44148)
(0.871993 1.70506 -2.56868)
(1.0357 1.83902 -1.75684)
(1.08054 1.57559 -1.69961)
(0.598241 1.3701 -1.79382)
(0.246008 1.02121 -1.90489)
(0.1785 0.730394 -1.39601)
(0.854811 0.314677 -1.01326)
(1.17179 0.00328231 -0.61274)
(1.13097 0.0414917 -1.02156)
(1.28547 -0.442196 -0.978098)
(-0.0221394 0.361037 -1.67574)
(-0.0241773 0.699748 -1.70998)
(-0.0374213 0.764218 -1.86366)
(-0.18801 0.995552 -1.52816)
(-0.326721 1.07329 -1.58076)
(-0.544065 1.63786 -1.20786)
(0.0489434 1.82039 -0.821821)
(0.649227 1.9217 -0.611474)
(0.861149 1.23488 -1.60096)
(1.03358 1.10823 -2.07411)
(0.822672 1.03206 -2.12036)
(1.05732 0.868293 -1.30682)
(1.73836 0.523541 0.471163)
(1.4836 0.006143 0.00330346)
(1.3606 -0.173526 -0.243498)
(1.29437 -0.336363 -0.27726)
(1.3112 -0.880279 -0.670178)
(-0.260047 1.97379 2.46327)
(-0.0702931 2.2899 2.52611)
(0.0895694 2.26749 2.576)
(-0.289323 2.29744 2.70322)
(-0.0384907 2.36242 2.61122)
(0.244256 2.34073 2.62055)
(-0.363628 2.29553 2.72411)
(-0.188488 2.36977 2.65226)
(0.0667132 2.28548 2.74008)
(0.238959 2.32689 2.76403)
(-0.47802 2.34619 2.66286)
(-0.20521 2.44446 2.66164)
(0.170087 2.44398 2.65675)
(0.250456 2.43974 2.68555)
(0.524077 2.46015 2.70999)
(-0.580243 2.59186 2.45091)
(-0.438114 2.58786 2.58448)
(-0.150752 2.5514 2.63798)
(0.203164 2.6911 2.56089)
(0.530776 2.68951 2.58975)
(0.536989 2.73913 2.55943)
(-0.466939 2.66395 2.6095)
(-0.219113 2.8618 2.44338)
(-0.0335339 2.88615 2.35763)
(0.0477055 2.7374 2.53024)
(0.149579 2.795 2.66492)
(0.420115 2.85442 2.55823)
(0.965823 2.74453 2.4889)
(-0.829674 2.91055 2.38677)
(-0.63795 2.97139 2.4649)
(-0.286577 3.09519 2.38408)
(-0.109178 3.01619 2.50164)
(0.154114 3.01665 2.5193)
(0.550947 3.12381 2.21454)
(0.95722 2.96412 2.31185)
(1.45294 2.49018 2.54218)
(-1.13122 3.05181 2.47913)
(-1.03228 3.13921 2.4161)
(-0.28194 3.30628 2.35725)
(-0.185974 3.16551 2.44967)
(0.0521147 3.02838 2.64615)
(0.445661 3.18912 2.27874)
(0.742912 2.76896 2.61952)
(0.786375 2.76584 2.51233)
(1.28804 2.5856 1.24107)
(-1.28037 3.17557 2.51871)
(-0.846751 3.0876 2.52447)
(-0.46716 3.0426 2.4661)
(-0.131204 2.90822 2.31443)
(0.0933158 3.01632 2.27593)
(0.517338 3.02894 2.058)
(0.0948992 2.73847 2.32819)
(0.295312 2.69914 1.83642)
(0.618334 2.31008 0.678716)
(0.92603 1.8254 0.367057)
(-1.47083 3.00052 2.41094)
(-0.978256 2.8556 1.99582)
(-0.783885 2.77129 1.92154)
(-0.387142 2.69428 1.4245)
(0.147774 2.83993 1.12371)
(0.252729 2.75454 1.24395)
(-0.0601197 2.60381 1.3935)
(-0.176968 2.53959 1.30288)
(0.152573 2.37045 0.670058)
(0.829233 1.90967 0.124511)
(1.38503 1.48372 0.112355)
(-1.91405 2.61973 1.6566)
(-1.06883 2.75298 1.18701)
(-0.691054 2.58162 0.736211)