/*--------------------------------*- C++ -*----------------------------------*\
  =========                 |
  \\      /  F ield         | OpenFOAM: The Open Source CFD Toolbox
   \\    /   O peration     | Website:  https://openfoam.org
    \\  /    A nd           | Version:  7
     \\/     M anipulation  |
\*---------------------------------------------------------------------------*/
FoamFile
{
    version     2.0;
    format      ascii;
    class       volVectorField;
    location    "8";
    object      U_0;
}
// * * * * * * * * * * * * * * * * * * * * * * * * * * * * * * * * * * * * * //

dimensions      [0 1 -1 0 0 0 0];

internalField   nonuniform List<vector> 
18870
(
(0.0487871 0.130821 -1.42922)
(-0.30858 0.310644 -1.58228)
(0.00356778 0.131345 -1.43856)
(-0.0421825 0.516261 -1.58942)
(-1.00834 1.65153 -1.0698)
(-0.316524 0.336749 -1.58512)
(-0.264799 0.825121 -1.62258)
(-0.0316831 0.131217 -1.44615)
(-0.0695352 0.506918 -1.62996)
(-0.127864 0.699361 -1.70242)
(0.345008 3.26171 -0.11545)
(-1.12949 1.53524 -1.21612)
(-0.712431 1.82856 -0.960356)
(-0.382155 0.350698 -1.59328)
(0.191486 0.873592 -1.65914)
(-0.523126 1.31828 -1.49608)
(-0.0597792 0.132065 -1.45549)
(-0.0817366 0.501418 -1.66467)
(-0.141624 0.712588 -1.70395)
(-0.233862 0.883506 -1.53024)
(-0.36195 3.84276 1.09903)
(-0.220834 3.13383 -0.358549)
(-0.226464 3.06788 -0.336867)
(-1.31247 1.43095 -1.3122)
(-0.642022 1.75259 -1.16862)
(-0.694783 1.80363 -0.752499)
(-0.456097 0.361775 -1.58985)
(-0.0308934 0.869136 -1.756)
(-0.590437 1.33368 -1.42212)
(-0.820981 1.34516 -1.54002)
(-0.0888218 0.130927 -1.468)
(-0.0865194 0.50424 -1.6881)
(-0.126742 0.724776 -1.70894)
(-0.364277 0.885281 -1.52067)
(-0.677892 1.00455 -1.3321)
(0.155808 3.4682 2.43998)
(-0.579734 3.71329 1.25948)
(-0.270067 3.41109 1.36827)
(-0.430696 3.09811 -0.45303)
(-0.376412 3.04404 -0.578363)
(-0.294641 2.94624 -1.03249)
(-1.3677 1.32025 -1.41615)
(-0.749756 1.73651 -1.12526)
(-0.736724 1.73734 -0.761038)
(-0.792281 2.23678 -0.76109)
(-0.514863 0.395031 -1.57074)
(-0.204611 0.85381 -1.75994)
(-0.596904 1.3452 -1.35489)
(-0.806427 1.37768 -1.51212)
(-0.476314 2.04636 -0.660768)
(-0.120206 0.128339 -1.48284)
(-0.104092 0.496795 -1.7099)
(-0.0926947 0.742878 -1.71565)
(-0.370343 0.874453 -1.52043)
(-0.64316 1.05033 -1.3477)
(-0.621701 1.84154 -0.7999)
(0.643418 3.50487 2.6188)
(-0.0230626 3.47223 1.98886)
(0.311728 3.36076 1.44751)
(-0.913954 3.56783 1.18592)
(-0.435368 3.31582 1.20134)
(0.152446 3.12684 0.77459)
(-0.607679 3.06996 -0.895268)
(-0.382101 3.05613 -1.08084)
(-0.293499 2.85865 -1.18817)
(-0.713864 2.41686 -0.733326)
(-1.44338 1.24827 -1.38224)
(-0.816659 1.59675 -1.18397)
(-0.715681 1.66418 -0.784758)
(-0.788021 2.20372 -0.80647)
(-0.22604 2.48433 -0.562349)
(-0.624966 0.32922 -1.57646)
(-0.250616 0.81271 -1.76599)
(-0.434018 1.37305 -1.32616)
(-0.689784 1.35208 -1.55345)
(-0.468778 2.04958 -0.650978)
(-0.278843 2.33671 -0.735043)
(-0.15005 0.124247 -1.50115)
(-0.073075 0.515272 -1.71899)
(-0.0634992 0.74223 -1.73892)
(-0.364573 0.867607 -1.52479)
(-0.625106 1.05139 -1.35383)
(-0.637467 1.84735 -0.730053)
(-0.148411 1.98865 -0.384543)
(0.373192 3.59296 2.53434)
(0.331058 3.72724 2.18386)
(0.449904 3.38303 1.75968)
(-0.234695 3.45912 1.54477)
(0.0122044 3.24132 1.27411)
(0.513802 3.14817 1.57674)
(-1.09298 3.53088 1.00905)
(-0.591898 3.27038 0.890679)
(0.00549355 3.01135 0.951099)
(0.128169 2.60248 0.596533)
(-0.409761 3.1914 -1.18182)
(-0.43256 2.99153 -1.24177)
(-0.598993 2.70629 -0.782821)
(-0.565022 2.30878 -0.51096)
(0.29851 2.30587 -0.695311)
(-1.71064 0.914212 -1.24225)
(-0.813584 1.54164 -1.24787)
(-0.738458 1.65769 -0.787319)
(-0.763081 2.16853 -0.872875)
(-0.18095 2.43938 -0.716958)
(0.475403 2.35013 -1.09692)
(-0.623268 0.448115 -1.56153)
(-0.273055 0.813364 -1.77616)
(-0.384156 1.40585 -1.31157)
(-0.650541 1.34691 -1.57121)
(-0.457402 1.95069 -0.830166)
(-0.344223 2.30201 -0.812688)
(0.498627 2.24783 -0.645975)
(-0.1734 0.117625 -1.52533)
(-0.0539492 0.54402 -1.71602)
(-0.0746422 0.73104 -1.7738)
(-0.360706 0.884418 -1.50987)
(-0.57963 1.02069 -1.37241)
(-0.629438 1.79539 -0.845245)
(-0.178424 1.93586 -0.441088)
(0.454681 1.8978 -0.191655)
(0.465868 3.29357 2.64856)
(0.106641 3.60714 2.54396)
(0.51431 3.35203 2.48076)
(-0.18622 3.72141 2.0887)
(0.0968447 3.37725 1.67626)
(0.230648 3.07297 1.81215)
(-0.856956 3.32076 1.20934)
(-0.502987 3.1374 1.11632)
(0.455661 3.17517 1.3216)
(0.767702 2.9113 1.3071)
(-1.12048 3.61395 0.928532)
(-0.582319 3.29793 0.811268)
(-0.273323 2.94006 0.974268)
(-0.5113 2.43259 0.483981)
(0.0919121 2.34175 -0.262321)
(-0.719548 2.93965 -1.01172)
(-1.27184 2.5003 -0.793178)
(-1.62988 2.15056 -0.0257254)
(-0.633172 2.22055 -0.360903)
(-0.0347489 2.37575 -0.428544)
(0.973872 2.3515 -0.850925)
(-1.70473 0.81171 -1.25865)
(-1.01196 1.53725 -1.13055)
(-0.780792 1.72649 -0.731303)
(-0.727638 2.16474 -0.911538)
(-0.176062 2.43394 -0.721519)
(0.623785 2.29294 -1.31764)
(1.77269 2.13958 -0.456799)
(-0.627814 0.475653 -1.55301)
(-0.332434 0.7999 -1.79627)
(-0.323245 1.4431 -1.30522)
(-0.586259 1.35197 -1.59201)
(-0.454631 1.92967 -0.886828)
(-0.365395 2.21425 -0.915699)
(0.597129 2.1767 -0.724931)
(1.49316 1.86349 -0.923342)
(-0.184196 0.117387 -1.55211)
(-0.0576489 0.55183 -1.72085)
(-0.103798 0.721951 -1.7984)
(-0.342268 0.887289 -1.48993)
(-0.569739 1.02426 -1.37767)
(-0.647121 1.80169 -0.870675)
(-0.161286 1.95095 -0.288558)
(0.501202 1.88965 -0.177341)
(0.790465 1.18679 -0.0921885)
(0.0478172 2.98525 2.6418)
(-0.0848364 3.42532 2.58638)
(0.420121 3.2357 2.6052)
(-0.123097 3.66534 2.57722)
(0.261127 3.38624 2.41367)
(0.569629 2.99285 2.36224)
(-0.442111 3.6834 1.96787)
(-0.202381 3.15037 1.9155)
(0.0840273 2.97935 1.90321)
(0.715903 2.74625 1.85209)
(-1.30153 3.13703 1.13604)
(-0.639549 3.08868 1.15456)
(0.0203328 3.11307 1.29394)
(0.501425 2.7656 1.17787)
(0.301581 2.6882 1.18223)
(-1.46205 3.63365 1.0176)
(-0.500024 3.35287 0.834684)
(-0.464269 2.72538 0.906199)
(-0.370195 2.3649 0.372519)
(0.213 2.40912 -0.077485)
(0.805762 2.5308 -0.132426)
(-1.81609 2.22295 -0.164489)
(-2.24984 1.71817 -0.424007)
(-1.70299 2.07582 0.0422599)
(-0.566524 2.20771 -0.448201)
(0.209895 2.29128 -0.590721)
(0.668456 2.33136 -1.0721)
(1.55034 1.96848 -0.968848)
(-1.74272 0.781391 -1.27479)
(-1.17122 1.51237 -1.03164)
(-0.81794 1.77831 -0.66002)
(-0.691801 2.13407 -0.942011)
(-0.206295 2.4237 -0.49511)
(0.686172 2.2846 -1.36409)
(1.35526 2.08043 -1.41603)
(1.38994 1.42717 -1.4735)
(-0.632361 0.502314 -1.55686)
(-0.375944 0.803056 -1.79499)
(-0.206577 1.53004 -1.26718)
(-0.531935 1.36549 -1.60584)
(-0.454719 1.86617 -1.01004)
(-0.263804 2.14123 -1.08841)
(0.763089 2.14127 -0.79547)
(1.57976 1.88726 -1.08509)
(1.50275 1.3482 -1.55849)
(-0.180755 0.126731 -1.57828)
(-0.0482128 0.562704 -1.73057)
(-0.105116 0.724903 -1.81095)
(-0.328302 0.891639 -1.48546)
(-0.541944 1.02212 -1.39737)
(-0.661269 1.79856 -0.871383)
(-0.0634753 1.93157 -0.432327)
(0.539142 1.88243 -0.186394)
(0.862791 1.19512 -0.178687)
(0.889863 0.938964 -0.824862)
(0.0407722 2.91158 2.45979)
(-0.0863118 3.16956 2.51882)
(0.234073 2.94157 2.62274)
(-0.119315 3.38205 2.58849)
(0.190068 3.28478 2.53529)
(0.614928 3.04893 2.54706)
(-0.154238 3.71573 2.47928)
(0.0531168 3.38538 2.3896)
(0.570247 3.11579 2.14362)
(0.938707 2.91798 2.0449)
(-0.675159 3.49461 1.9054)
(-0.384761 3.128 1.83111)
(0.234502 3.01586 1.60374)
(0.547226 2.79247 1.52384)
(0.822304 2.56664 1.65638)
(-1.36278 3.02167 1.16958)
(-0.864383 3.02971 1.3449)
(0.122091 3.02216 0.878646)
(0.246193 2.66689 0.954175)
(0.317313 2.6083 0.86776)
(0.817269 2.79025 0.270262)
(-1.3933 3.70415 1.02187)
(-0.714452 3.19682 0.895747)
(-0.931576 2.34759 0.397531)
(-0.564602 2.38136 0.0645398)
(-0.0159636 2.43091 -0.338547)
(0.851821 2.59009 -0.565294)
(1.368 2.35443 -0.541393)
(-2.3245 1.56279 -0.338446)
(-2.13545 1.65354 -0.658955)
(-1.63153 2.04214 -0.107342)
(-0.818526 2.20287 -0.432678)
(0.158711 2.39903 -0.679386)
(0.82565 2.32811 -0.646678)
(1.31197 2.01001 -0.957979)
(0.896643 1.77121 -1.45094)
(-1.732 0.833642 -1.337)
(-1.18933 1.55145 -1.01681)
(-0.84422 1.80679 -0.649669)
(-0.664853 2.13135 -0.907666)
(-0.0641615 2.36387 -0.477378)
(0.762662 2.29105 -1.25041)
(1.35338 2.06241 -1.51241)
(0.907932 1.62447 -1.63976)
(0.311138 1.185 -1.7056)
(-0.643628 0.550293 -1.57099)
(-0.411451 0.789165 -1.7936)
(-0.374278 1.41306 -1.37144)
(-0.486866 1.35479 -1.68271)
(-0.459865 1.79235 -1.14235)
(-0.174231 2.11854 -1.1728)
(0.962734 2.14915 -0.915089)
(1.63321 1.92265 -1.17613)
(1.39887 1.40329 -1.46916)
(1.1624 1.26005 -1.8787)
(-0.167601 0.143434 -1.60324)
(-0.0274307 0.60627 -1.72647)
(-0.089218 0.721014 -1.84017)
(-0.296542 0.90662 -1.50372)
(-0.504142 1.01814 -1.4185)
(-0.636165 1.75144 -0.964208)
(-0.0743363 1.92046 -0.460753)
(0.535303 1.87029 -0.183018)
(0.930905 1.21028 -0.331598)
(0.885546 0.945217 -1.05209)
(0.950351 1.04432 -1.11661)
(0.0458654 2.6302 2.48146)
(0.0893828 2.89809 2.47542)
(0.447807 2.90947 2.41919)
(-0.130268 3.09642 2.51597)
(0.182408 3.00729 2.57298)
(0.498331 2.87636 2.65332)
(-0.182914 3.42308 2.58522)
(-0.0128458 3.26628 2.54268)
(0.561184 3.10426 2.45122)
(0.832665 2.96854 2.43589)
(-0.432669 3.55352 2.46928)
(-0.307798 3.21073 2.45555)
(0.488627 2.96501 2.25835)
(0.878794 2.81077 2.13518)
(0.644765 2.65307 2.06638)
(-1.00284 3.39395 1.55854)
(-0.458006 3.09342 1.80573)
(0.107949 2.93569 1.53309)
(0.458343 2.70194 1.46562)
(0.665044 2.61913 1.21467)
(0.854911 2.77133 1.12629)
(-1.67151 2.75567 1.1256)
(-1.11914 2.99758 1.46887)
(-0.161496 2.91731 0.675151)
(-0.0377299 2.55949 0.669722)
(0.336262 2.62634 0.364389)
(0.632813 2.86789 0.503311)
(1.30213 2.59043 0.217688)
(-1.53424 3.47559 1.19505)
(-1.21156 2.80439 0.911575)
(-0.972661 2.09103 0.0893594)
(-0.492038 2.33771 0.359227)
(-0.0146504 2.48841 -0.225198)
(0.954007 2.63854 -0.832148)
(1.31439 2.36014 -0.718053)
(0.808233 2.34075 -0.60936)
(-2.43269 1.37919 -0.403345)
(-2.10969 1.60933 -0.788544)
(-1.26699 2.23765 -0.111955)
(-0.811227 2.22128 -0.388762)
(0.101984 2.39322 -0.695939)
(0.895545 2.35807 -0.593552)
(1.19365 1.98381 -1.0363)
(0.470916 1.79284 -1.46674)
(-0.142106 1.7127 -1.53358)
(-1.66601 0.867859 -1.45354)
(-1.36401 1.53276 -0.886653)
(-0.92566 1.79576 -0.680261)
(-0.64113 2.1462 -0.825942)
(-0.0380788 2.36512 -0.502543)
(0.80422 2.29309 -1.22932)
(1.3181 2.0597 -1.57526)
(1.10893 1.64543 -1.62857)
(-0.0311869 1.47549 -1.52209)
(0.275212 1.53926 -1.44085)
(-0.633503 0.593212 -1.5973)
(-0.497465 0.746602 -1.82328)
(-0.41405 1.3876 -1.39063)
(-0.451236 1.35833 -1.71589)
(-0.445274 1.75352 -1.27839)
(-0.0225045 2.09867 -1.3028)
(1.15677 2.16544 -1.09617)
(1.58513 1.93197 -1.33741)
(1.28363 1.45141 -1.43528)
(1.05032 1.30192 -1.84479)
(0.999705 1.20559 -2.13254)
(-0.147254 0.167319 -1.62718)
(-0.0273589 0.620716 -1.72264)
(-0.0634865 0.748564 -1.85844)
(-0.268321 0.921927 -1.53858)
(-0.488423 1.03003 -1.42696)
(-0.644618 1.74412 -0.990814)
(-0.061259 1.89783 -0.475647)
(0.534465 1.84332 -0.210914)
(0.983026 1.23283 -0.53625)
(0.886703 0.953109 -1.28746)
(0.944993 1.04747 -1.31342)
(1.11807 0.89954 -1.17899)
(0.0606111 2.54339 2.57184)
(0.171928 2.7353 2.34035)
(0.155152 2.73894 2.40714)
(-0.134229 2.82116 2.49734)
(-0.35719 2.59808 2.81251)
(0.480002 2.77361 2.61349)
(-0.176424 3.09312 2.50349)
(0.139892 3.08856 2.53733)
(0.328531 2.99869 2.69442)
(0.620377 3.11836 2.49682)
(-0.472069 3.49983 2.57543)
(-0.0323936 3.32673 2.47688)
(0.356263 3.16386 2.47062)
(0.789443 2.97999 2.43615)
(0.753531 2.82815 2.55268)
(-0.93532 3.36023 2.46413)
(-0.479356 3.12741 2.3218)
(0.171207 3.01241 2.1683)
(0.677877 2.90127 1.85378)
(0.485453 2.57766 2.19771)
(1.04537 2.77662 1.7215)
(-1.16734 3.18539 1.77913)
(-0.588326 2.94349 1.8112)
(-0.287082 2.86147 1.59451)
(0.205597 2.6783 1.32592)
(0.485486 2.64527 0.9471)
(0.886921 2.81178 0.894916)
(1.22264 2.66145 0.533458)
(-1.74282 2.69512 1.18194)
(-1.03065 3.02096 1.41936)
(-0.667192 2.71532 0.824419)
(-0.233445 2.37087 0.573673)
(0.283847 2.62175 0.275683)
(0.601606 2.86335 0.559384)
(1.06513 2.59623 0.198426)
(0.918766 2.52677 0.350241)
(-1.6531 3.1983 1.18816)
(-1.70122 2.34083 0.913822)
(-1.2422 1.94054 0.0504315)
(-0.406251 2.37531 0.40273)
(0.485884 2.58084 -0.0542221)
(0.90334 2.66875 -0.777325)
(1.11175 2.36935 -0.571977)
(0.697089 2.32121 -0.548641)
(-0.225339 2.22886 -1.1196)
(-2.27171 1.33234 -0.829946)
(-1.99968 1.70496 -0.816923)
(-1.22291 2.21557 -0.482917)
(-0.68368 2.26025 -0.375632)
(0.152841 2.32649 -0.575008)
(0.615364 2.35871 -1.00284)
(1.0898 2.03312 -1.24431)
(0.22766 1.80248 -1.432)
(-0.274714 1.76065 -1.53814)
(0.0842368 1.60374 -1.51396)
(-1.60509 0.917403 -1.54867)
(-1.43 1.47982 -0.899388)
(-0.971866 1.74907 -0.81507)
(-0.595807 2.12569 -0.815765)
(-0.0355889 2.34792 -0.619301)
(0.764466 2.29719 -1.40001)
(1.27501 2.11618 -1.6395)
(0.60151 1.67612 -1.85792)
(-0.0393096 1.49021 -1.49838)
(0.214057 1.57163 -1.48738)
(0.581585 1.27191 -1.38792)
(-0.613684 0.641576 -1.62674)
(-0.528762 0.759555 -1.88265)
(-0.416574 1.39174 -1.4194)
(-0.423338 1.36186 -1.69476)
(-0.336594 1.74739 -1.41862)
(0.143955 2.10268 -1.50979)
(1.29223 2.17994 -1.35167)
(1.59204 1.95607 -1.38881)
(1.2427 1.50615 -1.4332)
(0.953531 1.32631 -1.79365)
(0.921334 1.203 -2.04779)
(0.37334 0.803468 -1.61516)
(-0.123107 0.197044 -1.6505)
(-0.025326 0.640114 -1.70752)
(-0.0583652 0.751378 -1.86587)
(-0.261939 0.930369 -1.55065)
(-0.44647 1.03761 -1.44339)
(-0.595218 1.73253 -1.04624)
(-0.0242226 1.88924 -0.41068)
(0.536981 1.82577 -0.255523)
(1.01392 1.25585 -0.776224)
(0.897201 0.968169 -1.52228)
(0.936344 1.04911 -1.51004)
(1.18061 0.922841 -1.29868)
(1.71082 0.477522 -0.263843)
(0.0478448 2.49972 2.68653)
(-0.0962067 2.56494 2.52582)
(0.232191 2.57484 2.5514)
(-0.2841 2.64224 2.48919)
(0.00461845 2.69425 2.48811)
(0.108505 2.60602 2.5952)
(-0.437541 2.83871 2.54419)
(-0.109062 3.00524 2.4556)
(0.0706498 3.11443 2.3059)
(0.681722 2.98244 2.35547)
(-0.568019 3.09275 2.54633)
(-0.619343 2.97102 2.67733)
(0.0799368 3.09162 2.64319)
(0.430797 3.0661 2.53499)
(0.511955 2.9939 2.64489)
(-0.584395 3.50993 2.53087)
(-0.404876 3.2216 2.57002)
(0.130633 3.16692 2.59026)
(0.580778 3.01301 2.46102)
(0.635755 2.86447 2.57998)
(0.913145 3.00167 2.33996)
(-1.02451 3.30908 2.49456)
(-0.503747 3.18044 2.01887)
(0.270217 3.13197 1.94166)
(0.403106 2.75784 1.91804)
(0.546136 2.84608 1.71289)
(1.07954 2.90108 1.37101)
(1.12616 2.65583 1.52654)
(-1.39196 3.01028 1.88379)
(-0.783018 2.83362 1.49213)
(-0.173672 2.94922 1.13228)
(0.142883 2.64724 0.976121)
(0.429947 2.69195 0.825539)
(0.942906 2.79104 0.51345)
(0.91225 2.78363 0.464485)
(0.622585 2.6383 0.312483)
(-1.94409 2.65722 1.2054)
(-0.822887 3.0929 0.859129)
(-0.858757 2.4789 0.984615)
(-0.103239 2.32011 0.713227)
(0.283496 2.60376 0.167505)
(0.69032 2.82522 0.274447)
(0.752336 2.59129 0.359757)
(0.673094 2.42466 0.389313)
(0.108543 2.50527 0.557101)
(-1.55647 3.13394 0.751196)
(-1.73372 2.10817 0.719019)
(-0.159519 2.43798 -0.0722492)
(-0.321676 2.3838 0.0907465)
(-0.064234 2.70802 -0.137382)
(0.798044 2.65789 -0.592509)
(0.866736 2.33932 -0.275628)
(0.398606 2.29152 -0.648687)
(-0.363041 2.18978 -1.06056)
(0.117977 1.98613 -0.967578)
(-2.38264 1.12174 -1.05921)
(-1.93791 1.69306 -0.83132)
(-1.09779 2.22592 0.0103082)
(-0.433745 2.35843 -0.404333)
(0.0987101 2.39212 -0.634763)
(1.0769 2.34562 -0.958627)
(0.778514 2.07715 -1.51739)
(0.0433222 1.85753 -1.3917)
(-0.295631 1.76577 -1.56155)
(0.0548993 1.56258 -1.56567)
(0.788047 1.37189 -1.03791)
(-1.51788 1.0424 -1.60449)
(-1.41503 1.47894 -0.955388)
(-0.927902 1.77997 -0.845726)
(-0.54482 2.1176 -0.883946)
(0.0345758 2.36086 -0.813174)
(0.823019 2.35677 -1.54355)
(1.15895 2.16407 -1.81659)
(0.391049 1.69643 -1.91101)
(0.201228 1.53757 -1.52063)
(0.190885 1.6192 -1.49896)
(0.579844 1.33219 -1.2994)
(0.472979 0.920842 -1.46955)
(-0.606471 0.670972 -1.66003)
(-0.480843 0.83664 -1.92881)
(-0.358963 1.41512 -1.48298)
(-0.38356 1.35359 -1.76169)
(-0.148056 1.82968 -1.4628)
(0.322884 2.16554 -1.72369)
(1.33535 2.1682 -1.68295)
(1.27329 1.88492 -1.77248)
(1.23839 1.5633 -1.47888)
(0.848989 1.35946 -1.73814)
(0.777275 1.1778 -2.001)
(0.340871 0.795498 -1.53733)
(0.858181 0.289063 -1.10664)
(-0.0963921 0.230825 -1.67169)
(-0.0201234 0.66372 -1.67975)
(-0.0751391 0.736111 -1.87255)
(-0.251671 0.942282 -1.53853)
(-0.427812 1.03907 -1.47078)
(-0.569124 1.7125 -1.0948)
(-0.00872521 1.82069 -0.536021)
(0.551296 1.82865 -0.294471)
(1.02315 1.27075 -1.03815)
(0.918557 0.990151 -1.74414)
(0.936542 1.05507 -1.69385)
(1.19671 0.926238 -1.4304)
(1.73575 0.486334 -0.0612148)
(1.60722 -0.0210368 0.0603124)
(0.0520377 2.37989 2.72597)
(-0.109976 2.51073 2.665)
(0.115062 2.47521 2.69517)
(-0.300163 2.51166 2.59416)
(0.0267508 2.55217 2.56384)
(0.230303 2.53035 2.64669)
(-0.273041 2.71008 2.44039)
(-0.247282 2.57264 2.60182)
(0.624491 2.90715 2.23547)
(0.520986 2.80066 2.39719)
(-0.531274 2.87517 2.56298)
(-0.237211 2.94267 2.49095)
(0.0985219 3.00732 2.4513)
(0.498652 3.17825 2.19839)
(0.894834 2.92484 2.36642)
(-0.60745 3.12577 2.54687)
(0.447027 3.222 2.48557)
(0.00834595 3.11173 2.58415)
(0.217938 3.05605 2.54385)
(0.461062 2.92118 2.68856)
(1.08112 2.89653 2.48639)
(-0.811298 3.30542 2.60008)
(-0.368489 3.05403 2.60365)
(0.11036 3.2496 2.40299)
(0.41703 3.12204 2.23318)
(0.372598 2.82178 2.68343)
(1.0764 2.97363 2.24232)
(1.2494 2.92953 1.87636)
(-1.12911 3.30399 2.47972)
(-0.538574 3.20207 1.86816)
(0.11976 3.0195 1.874)
(0.263014 2.79989 1.69598)
(0.496483 2.83002 1.65347)
(0.912974 2.98212 1.07025)
(0.847149 2.7148 1.54887)
(0.612554 2.52079 1.32289)
(-1.44306 2.98396 1.78042)
(-0.890771 2.80801 1.21146)
(-0.143698 2.86754 1.04334)
(0.0919406 2.63756 0.723886)
(0.465189 2.7641 0.489844)
(0.751722 2.72289 0.527004)
(0.63645 2.69718 0.728508)
(0.288341 2.63087 0.634126)
(0.198274 2.44185 0.395299)
(-1.85975 2.75981 1.24523)
(-0.94616 2.93715 0.593844)
(-0.588797 2.46917 0.702648)
(-0.339952 2.38111 0.363192)
(0.158589 2.65109 -0.00573744)
(0.546273 2.83591 -0.0583266)
(0.480621 2.59139 0.227899)
(0.0743947 2.3941 0.25484)
(-0.00647129 2.45313 0.330935)
(0.229453 2.45386 0.00911132)
(-1.94716 2.77404 0.679555)
(-1.76995 1.90853 -0.0588052)
(-1.35785 2.06051 0.180406)
(-0.413667 2.33047 -0.137665)
(0.0554444 2.61299 -0.627666)
(0.557803 2.5915 -0.563464)
(0.540814 2.3349 -0.192644)
(0.0517634 2.18081 -0.968992)
(-0.29902 2.2325 -0.702582)
(0.120275 1.84872 -1.11495)
(0.546202 1.94573 -0.520806)
(-2.14225 1.31765 -1.2529)
(-1.87132 1.64204 -0.944083)
(-1.01165 2.15143 -0.411566)
(-0.481512 2.43491 -0.341822)
(0.148596 2.52335 -0.62308)
(0.502559 2.47552 -1.22206)
(0.646192 2.08807 -1.55402)
(0.203136 1.8934 -1.58501)
(-0.156971 1.80307 -1.5965)
(0.0955345 1.50201 -1.58366)
(0.693852 1.34652 -0.929169)
(0.740037 0.978933 -1.70585)
(-1.44246 1.10531 -1.61783)
(-1.35458 1.51972 -1.04899)
(-0.857131 1.84307 -0.814448)
(-0.495396 2.15425 -0.913882)
(-0.128328 2.25533 -1.45246)
(0.803242 2.42109 -1.76659)
(1.01451 2.1937 -2.02178)
(0.33009 1.68484 -1.96981)
(0.0331812 1.7125 -1.46822)
(0.214063 1.63732 -1.52774)
(0.625762 1.34042 -1.15922)
(0.378551 0.869834 -1.64222)
(0.855341 0.452632 -2.11576)
(-0.606151 0.677631 -1.68629)
(-0.495807 0.794211 -1.97747)
(-0.312348 1.44185 -1.56233)
(-0.336479 1.3812 -1.92005)
(-0.0323068 1.86831 -1.64081)
(0.415275 2.08092 -2.13844)
(1.27337 2.09289 -2.03236)
(1.21329 1.86898 -1.81989)
(1.22469 1.60164 -1.57189)
(0.709865 1.34683 -1.73326)
(0.581217 1.11454 -1.99692)
(0.27698 0.778229 -1.46656)
(0.835751 0.289793 -1.10854)
(1.22927 -0.0183857 -0.541878)
(-0.0655586 0.277874 -1.68522)
(-0.00570819 0.705769 -1.63571)
(-0.0719482 0.737617 -1.8669)
(-0.226955 0.957012 -1.52353)
(-0.3864 1.05412 -1.52484)
(-0.555079 1.70767 -1.11219)
(-0.00268659 1.78893 -0.622769)
(0.591277 1.85111 -0.371587)
(1.00295 1.27774 -1.28588)
(0.947582 1.02008 -1.93559)
(0.934994 1.06251 -1.86272)
(1.16231 0.914359 -1.48605)
(1.75218 0.496246 0.149992)
(1.55312 -0.0165206 0.0237116)
(1.38191 -0.194948 -0.25148)
(0.00650876 2.3911 2.56311)
(-0.0557783 2.41514 2.65877)
(0.158563 2.36474 2.7224)
(-0.283114 2.41418 2.67794)
(0.16004 2.4934 2.65263)
(0.214119 2.46037 2.6654)
(-0.418102 2.52511 2.51855)
(-0.183976 2.45949 2.63827)
(0.15423 2.57753 2.58962)
(0.283315 2.66766 2.58273)
(-0.444774 2.71765 2.39429)
(0.199455 2.79036 2.35282)
(-0.113773 2.60291 2.67704)
(-0.0463957 2.61182 2.72538)
(0.575095 2.63361 2.649)
(-0.747407 2.81832 2.51608)
(-0.244108 2.88565 2.48721)
(-0.0650341 3.00473 2.43555)
(0.192641 3.04911 2.4511)
(0.740816 2.90749 2.52589)
(1.10944 2.7871 2.45212)
(-0.79113 3.17851 2.53522)
(-0.633948 3.12528 2.60475)
(0.161417 3.24656 2.48585)
(0.141689 3.12994 2.52784)
(0.400158 2.95792 2.67838)
(1.06869 3.10233 2.22903)
(1.3079 3.12436 1.96374)
(-1.09865 3.24208 2.48151)
(-0.349476 3.16555 2.37721)
(-0.00519935 3.35132 2.10511)
(0.316816 3.01821 2.28363)
(0.462825 3.06762 2.29282)
(1.09559 3.12164 2.00118)
(0.814175 2.8703 2.1385)
(0.886695 2.4735 2.07443)
(-1.14555 3.33372 2.34799)
(-0.523129 3.19439 1.86676)
(-0.40496 2.91366 1.79476)
(0.254981 2.8309 1.37291)
(0.220243 2.82297 1.60209)
(0.664558 2.82487 1.38184)
(0.685123 2.74405 1.37568)
(0.446299 2.71709 0.963132)
(0.357156 2.35275 0.558679)
(-1.61102 2.74384 1.73655)
(-0.964281 2.7754 1.33915)
(-0.493649 2.75763 1.1033)
(-0.101866 2.55543 0.754078)
(0.343531 2.74992 0.43366)
(0.457354 2.61895 0.614449)
(0.288964 2.5436 0.685964)
(-0.145704 2.5624 0.857275)
(0.0958937 2.47778 0.518564)
(0.467593 2.32576 -0.290607)
(-1.98784 2.76885 1.26253)
(-1.40881 2.45146 0.92864)
(-1.28588 2.16644 0.506819)
(-0.455554 2.36485 0.173947)
(0.0460367 2.71794 -0.0207702)
(0.318718 2.79079 -0.317115)
(0.172612 2.57039 0.212513)
(0.104307 2.45523 0.0217656)
(-0.0520568 2.42418 0.112079)
(0.333707 2.48092 -0.263851)
(0.91934 2.24774 -0.332352)
(-2.35619 2.23236 0.580363)
(-1.58451 2.06683 -0.0946786)
(-1.20408 2.06548 0.0620909)
(-0.33722 2.43389 -0.360108)
(0.0249985 2.63209 -0.66488)
(0.389124 2.51591 -0.563443)
(0.302387 2.30249 -0.180173)
(-0.019343 2.2491 -0.787239)
(-0.323701 2.16291 -0.713203)
(0.169847 1.79212 -1.09286)
(0.540441 1.81939 -0.612325)
(1.26673 1.50699 -0.554434)
(-2.00182 1.50591 -1.42044)
(-1.54498 1.8772 -0.985017)
(-1.02984 2.18497 -0.416253)
(-0.28056 2.52655 -0.383447)
(0.196082 2.55839 -0.811152)
(0.520547 2.46668 -1.23854)
(0.374339 2.13098 -1.58399)
(-0.556006 1.71906 -1.74975)
(-0.209396 1.82959 -1.73609)
(0.437371 1.54345 -1.45973)
(0.449959 1.31838 -0.982534)
(0.750503 0.910826 -1.77474)
(0.760261 0.586741 -2.1678)
(-1.32461 1.15424 -1.66391)
(-1.14062 1.65564 -1.13297)
(-0.81221 1.87133 -0.928155)
(-0.375438 2.16732 -1.00448)
(0.16803 2.57709 -0.968171)
(0.621245 2.36581 -2.10165)
(0.772378 2.18898 -2.26294)
(0.0632558 1.77087 -1.92698)
(0.192483 1.70862 -1.54977)
(0.26161 1.6628 -1.54965)
(0.3654 1.28742 -1.17937)
(0.345938 0.916831 -1.77497)
(0.842383 0.408119 -2.15831)
(1.17162 -0.264713 -2.01527)
(-0.598628 0.662219 -1.71877)
(-0.48567 0.792665 -1.93452)
(-0.30766 1.44197 -1.61946)
(-0.282812 1.37463 -2.10171)
(0.0136903 1.85221 -1.93213)
(0.618525 2.40731 -2.08944)
(1.03124 1.90613 -2.39972)
(1.14014 1.86197 -1.81328)
(1.16267 1.61637 -1.66822)
(0.694577 1.34916 -1.74354)
(0.384188 1.05769 -1.97218)
(0.212518 0.758992 -1.41075)
(0.84229 0.294567 -1.07689)
(1.1876 -0.0109805 -0.590395)
(1.19608 0.019405 -0.968252)
(-0.0332647 0.332659 -1.68633)
(-0.00823844 0.713389 -1.64621)
(-0.0462714 0.756357 -1.85196)
(-0.209476 0.978205 -1.52509)
(-0.342411 1.07001 -1.57025)
(-0.528026 1.66259 -1.18437)
(0.0259269 1.79043 -0.715767)
(0.638242 1.88544 -0.48385)
(0.94005 1.25894 -1.51666)
(1.00928 1.07224 -2.08336)
(0.907228 1.06121 -2.00628)
(1.09156 0.885735 -1.43925)
(1.75345 0.50702 0.34028)
(1.51673 -0.0100219 0.00817682)
(1.36826 -0.189462 -0.262377)
(1.29673 -0.349128 -0.24843)
(-0.0649787 2.23181 2.47993)
(-0.172072 2.37447 2.57863)
(0.125962 2.35217 2.61154)
(-0.206793 2.37957 2.67837)
(0.0345912 2.39343 2.66818)
(0.301499 2.35795 2.67733)
(-0.491782 2.34356 2.67215)
(-0.35248 2.39445 2.69599)
(0.134176 2.41416 2.67556)
(0.359265 2.47536 2.65541)
(-0.404569 2.59273 2.44627)
(-0.343537 2.50963 2.58913)
(-0.0624694 2.57609 2.64148)
(-0.0102603 2.5373 2.76337)
(0.578344 2.58512 2.64516)
(-0.628258 2.62479 2.50418)
(-0.344108 2.69257 2.4795)
(0.0378392 2.89684 2.41629)
(0.399264 2.97597 2.39232)
(0.291081 2.73716 2.70178)
(0.612291 2.85366 2.47358)
(-0.925011 2.79367 2.49445)
(-0.382439 3.02325 2.41134)
(-0.0165804 3.04937 2.46008)
(0.0988394 2.99434 2.51147)
(0.216586 3.00803 2.50668)
(0.825142 3.03053 2.26898)
(1.10063 2.97594 2.18938)
(-0.917341 3.12052 2.56016)
(-0.528567 3.06895 2.69939)
(-0.0128157 3.34066 2.38207)
(-0.0958207 3.20634 2.44256)
(0.145828 3.01943 2.62299)
(0.52616 3.24634 2.20807)
(0.854829 3.12341 2.15106)
(0.808433 2.91044 2.31087)
(-0.988411 3.35882 2.3068)
(-0.291184 3.21662 2.39413)
(-0.408955 3.06159 2.38919)
(-0.0446739 3.05927 2.09675)
(0.153727 3.07461 2.25293)
(0.684869 3.32295 1.75738)
(0.434525 2.88867 2.16045)
(0.433889 2.66896 1.81694)
(0.832547 2.35734 0.667256)
(-1.21024 3.23661 2.35505)
(-0.620992 3.12775 1.90426)
(-0.618785 2.86663 1.83113)
(-0.26894 2.76892 1.2847)
(0.111388 2.9515 1.12697)
(0.341609 2.83819 1.37375)
(0.343663 2.69649 1.32354)
(0.0745661 2.68238 1.08129)
(0.314809 2.36979 0.522484)
(0.806627 1.84407 0.124434)
(-1.5845 2.47892 2.14001)
(-0.951892 2.80255 1.26648)
(-0.840023 2.62263 1.03993)
(-0.378935 2.47633 0.671212)
(0.252107 2.69842 0.227512)
(0.180607 2.51701 0.508153)
(-0.191884 2.41927 0.538887)
(-0.35109 2.53063 0.734065)
(-0.0756873 2.52541 0.497471)
(0.588359 2.34907 -0.268974)
(1.32101 1.8661 -0.11664)
(-2.06877 2.75465 1.19697)
(-1.73488 2.0948 0.965837)
(-0.986183 2.20787 0.418029)
(-0.538001 2.38009 0.108063)
(-0.0364286 2.73907 -0.0855057)
(0.173294 2.68049 -0.440392)
(-0.194215 2.48855 0.37335)
(-0.32914 2.44097 0.0957687)
(-0.152679 2.43767 -0.00045856)
(0.398966 2.44344 -0.377716)
(0.971909 2.13063 -0.265578)
(1.39186 1.64452 -0.0689195)
(-2.50885 2.05721 0.53253)
(-2.02262 1.69967 -0.608116)
(-1.33636 2.00777 0.0954287)
(-0.627951 2.4874 -0.37957)
(-0.0588339 2.65684 -0.611967)
(-0.0639336 2.32736 -0.450233)
(-0.191787 2.21349 -0.113539)
(-0.149959 2.25481 -0.637784)
(-0.358316 2.13807 -0.76871)
(0.290983 1.73449 -1.09686)
(0.616219 1.7381 -0.71089)
(1.13604 1.45977 -0.798873)
(1.05998 1.42694 -1.08583)
(-2.11064 1.48496 -1.42792)
(-1.57503 1.84717 -1.06837)
(-1.02548 2.18804 -0.535978)
(-0.441064 2.52285 -0.504203)
(0.155761 2.64285 -0.750318)
(0.321751 2.50257 -1.26227)
(0.0737366 2.11635 -1.54623)
(-0.602502 1.66452 -1.74859)
(-0.285961 1.78405 -1.86222)
(0.362229 1.4997 -1.51882)
(0.485302 1.30199 -1.06576)
(0.708205 0.901385 -1.87909)
(0.698876 0.555113 -2.19024)
(0.815324 0.200116 -2.11964)
(-1.24962 1.26298 -1.66749)
(-1.04233 1.74569 -1.19218)
(-0.726818 1.98664 -0.921439)
(-0.253332 2.22139 -1.16285)
(0.0638881 2.45924 -1.28585)
(0.356334 2.30951 -2.30385)
(0.534615 2.12862 -2.45309)
(-0.0445504 1.76514 -1.90549)
(-0.107378 1.75992 -1.51048)
(0.0192722 1.54615 -1.63186)
(0.247474 1.28007 -1.20535)
(0.376678 0.901301 -1.87839)
(0.805848 0.46446 -2.1853)
(1.12182 -0.153315 -2.09093)
(1.12244 -0.253972 -2.19138)
(-0.575752 0.651613 -1.76369)
(-0.404012 0.878006 -1.83282)
(-0.333985 1.37363 -1.63818)
(-0.215937 1.41216 -2.17558)
(0.0405096 1.86329 -2.12257)
(0.499243 2.15147 -2.48147)
(0.866483 1.68238 -2.58945)
(1.04044 1.83049 -1.76172)
(1.07809 1.57203 -1.69968)
(0.600103 1.36941 -1.79158)
(0.244802 1.01721 -1.89583)
(0.177211 0.726649 -1.39924)
(0.850211 0.309795 -1.02584)
(1.16897 -0.00287306 -0.617515)
(1.12963 0.0369157 -1.02361)
(1.28 -0.443953 -0.981346)
(-0.0173877 0.3666 -1.67408)
(-0.0213791 0.702967 -1.71216)
(-0.0300606 0.774232 -1.86475)
(-0.1765 1.00604 -1.53247)
(-0.310545 1.07481 -1.58536)
(-0.52768 1.63683 -1.22968)
(0.083419 1.8242 -0.865995)
(0.679789 1.92276 -0.647846)
(0.871193 1.22099 -1.6071)
(1.04188 1.10265 -2.07638)
(0.812438 1.0192 -2.14215)
(1.05238 0.856844 -1.30515)
(1.73806 0.511448 0.463519)
(1.48696 -0.0043689 0.00313659)
(1.36039 -0.180072 -0.245432)
(1.29352 -0.341902 -0.271401)
(1.31263 -0.881774 -0.658754)
(-0.260506 1.97224 2.46413)
(-0.0678783 2.29062 2.52789)
(0.0911413 2.26864 2.57846)
(-0.291341 2.29563 2.70518)
(-0.0403586 2.36198 2.61188)
(0.244714 2.34027 2.62063)
(-0.360787 2.29506 2.72387)
(-0.187884 2.3689 2.65201)
(0.0647866 2.28447 2.74025)
(0.240238 2.32645 2.76477)
(-0.474749 2.34717 2.66216)
(-0.20076 2.4467 2.65965)
(0.1772 2.44429 2.65609)
(0.25399 2.43865 2.68679)
(0.525028 2.46003 2.71085)
(-0.581753 2.59188 2.45239)
(-0.436555 2.58982 2.58642)
(-0.147804 2.55228 2.63818)
(0.210559 2.69174 2.55866)
(0.533515 2.68956 2.58857)
(0.542684 2.73945 2.55811)
(-0.476174 2.65948 2.61281)
(-0.222155 2.86185 2.44574)
(-0.0319748 2.88562 2.35797)
(0.0434745 2.7302 2.53606)
(0.153412 2.79364 2.66519)
(0.42442 2.85491 2.55758)
(0.968882 2.74389 2.48945)
(-0.821447 2.91851 2.38225)
(-0.63516 2.97602 2.4616)
(-0.291403 3.09628 2.38156)
(-0.109066 3.01753 2.50157)
(0.155935 3.01874 2.51763)
(0.555193 3.11967 2.21876)
(0.95817 2.95701 2.32091)
(1.46697 2.48551 2.54285)
(-1.13 3.05338 2.47612)
(-1.03889 3.14099 2.41124)
(-0.290753 3.30147 2.36031)
(-0.190209 3.15992 2.45572)
(0.0500481 3.02872 2.64501)
(0.451467 3.19019 2.27381)
(0.745375 2.76346 2.62476)
(0.795153 2.75699 2.51943)
(1.29808 2.58317 1.23627)
(-1.28276 3.17466 2.51599)
(-0.854457 3.08366 2.53194)
(-0.469387 3.04303 2.47013)
(-0.133485 2.91193 2.31368)
(0.0985791 3.02137 2.27126)
(0.514892 3.02042 2.0671)
(0.0888126 2.73093 2.33955)
(0.295292 2.70048 1.83705)
(0.627345 2.30562 0.674443)
(0.937935 1.8151 0.359159)
(-1.46889 2.99519 2.40484)
(-0.982415 2.85231 1.99358)
(-0.778187 2.77262 1.92106)
(-0.387353 2.69631 1.42961)
(0.150214 2.83994 1.12819)
(0.251315 2.74872 1.2475)
(-0.0666478 2.60011 1.39864)
(-0.177713 2.53607 1.30457)
(0.159278 2.3674 0.669592)
(0.842683 1.90116 0.123671)
(1.38652 1.47619 0.110964)
(-1.90961 2.6366 1.63361)
(-1.06303 2.75513 1.17664)
(-0.683856 2.58226 0.72544)
(-0.447664 2.46584 0.668855)