/*--------------------------------*- C++ -*----------------------------------*\
  =========                 |
  \\      /  F ield         | OpenFOAM: The Open Source CFD Toolbox
   \\    /   O peration     | Website:  https://openfoam.org
    \\  /    A nd           | Version:  7
     \\/     M anipulation  |
\*---------------------------------------------------------------------------*/
FoamFile
{
    version     2.0;
    format      ascii;
    class       volScalarField;
    location    "7.5";
    object      nut;
}
// * * * * * * * * * * * * * * * * * * * * * * * * * * * * * * * * * * * * * //

dimensions      [0 2 -1 0 0 0 0];

internalField   nonuniform List<scalar> 
18750
(
0.000170935
0.00130904
0.000211824
0.000739407
0.00219077
0.00112628
0.00171191
0.000312846
0.00034534
0.000474024
0.000634869
0.00146902
0.00250015
0.000628805
0.00119932
0.00240031
0.000371778
0.000372969
0.000237009
0.000334621
0.0017869
0.00100414
0.00196473
0.00116975
0.00106471
0.00231241
0.000359257
0.000710917
0.000654972
0.00149838
0.000410371
0.000258788
0.000409284
0.000285284
0.000760253
0.0020071
0.00136967
0.00153198
0.00135055
0.00118115
0.00195499
0.00187253
0.000687387
0.00123378
0.00161579
0.000670904
0.000597823
0.000392121
0.00065279
0.00205235
0.000274224
0.000379794
0.000229988
0.000381332
0.000517979
0.000364282
0.00309067
0.000945862
0.00209966
0.0016793
0.00107719
0.00149731
0.00258251
0.00115329
0.00104338
0.00300825
0.00112671
0.000837335
0.000858988
0.00112877
0.00173628
0.000401892
0.000541062
0.00060316
0.00036491
0.000472682
0.00199334
0.000171298
0.000261616
0.000360233
0.000249819
0.000491204
0.000355978
0.000286695
0.00267126
0.000799815
0.00246269
0.000812152
0.000465758
0.00304533
0.00207793
0.000786275
0.00143268
0.00292425
0.00137166
0.00201769
0.000569327
0.000821663
0.00247805
0.000583489
0.00120359
0.00034727
0.000492818
0.00109152
0.00191379
0.000594623
0.000429984
0.000454701
0.00052285
0.000247743
0.000399941
0.00122958
0.000281505
0.000172501
0.000259686
0.000324737
0.000247664
0.000450322
0.000350114
0.000423441
0.00249585
0.000868414
0.00261803
0.000662122
0.000619432
0.00285349
0.00145857
0.000643017
0.00101447
0.0020857
0.00098573
0.00170836
0.000426325
0.000794065
0.000935858
0.0020025
0.00104482
0.000804857
0.000584485
0.000788326
0.00188949
0.00138104
0.00068112
0.000904975
0.000608871
0.000600987
0.000444776
0.00187773
0.000570927
0.000520965
0.00033518
0.000412415
0.000483207
0.000301398
0.000351467
0.00208583
0.000223646
0.000273973
0.000201895
0.000280925
0.000304981
0.000258442
0.000467758
0.000398965
0.000398858
0.00248961
0.000476525
0.00255326
0.000613407
0.000543525
0.00251068
0.00151983
0.000562323
0.000769498
0.00247757
0.00113333
0.000568104
0.000624113
0.000712936
0.00267343
0.0014795
0.00106317
0.00100134
0.000511
0.00106294
0.00288674
0.00162689
0.00205322
0.00196353
0.000686572
0.000692385
0.000711545
0.00205496
0.000841982
0.00071136
0.00102846
0.000728734
0.000503683
0.000488615
0.000656604
0.00192322
0.000408284
0.000602094
0.000429424
0.00046874
0.000401323
0.000339676
0.000637075
0.000236988
0.00144342
0.000150266
0.000207025
0.000235049
0.000273996
0.0002786
0.000311082
0.000237567
0.000493813
0.000425315
0.000355696
0.00240917
0.000572614
0.00240999
0.000498277
0.00081458
0.0024817
0.000157211
0.000359348
0.00059886
0.00266982
0.000833759
0.000903394
0.000700623
0.00109935
0.00241275
0.00058458
0.000667181
0.000822971
0.000537779
0.00051145
0.00248145
0.00193493
0.00111939
0.00134614
0.000855432
0.000711148
0.00118402
0.00240698
0.00105362
0.00253079
0.00189929
0.00228686
0.00060774
0.000556514
0.000272926
0.00213338
0.000739733
0.000923989
0.0012445
0.00169766
0.000754241
0.000629314
0.000344645
0.000749758
0.00212069
0.000473808
0.000409052
0.000601092
0.000479961
0.000694234
0.000395548
0.000336766
0.000514887
0.000193072
0.000839556
0.000244032
0.000168834
0.000195072
0.000192167
0.000222348
0.000198728
0.00033375
0.000230484
0.000556081
0.00046698
0.000377002
0.00247516
0.000586159
0.00250535
0.000419466
0.000312183
0.00246321
0.000648921
0.000460762
0.000582712
0.00243134
0.000610091
0.000641101
0.000718376
0.00115701
0.0024308
0.00163411
0.00102124
0.00039461
0.000648705
0.000882342
0.00247436
0.00081777
0.00254944
0.00091107
0.000519294
0.000717231
0.00130486
0.00232793
0.00168055
0.000575518
0.00107255
0.00107534
0.000941657
0.000976257
0.000695606
0.00240479
0.00091094
0.00103763
0.00227462
0.00143994
0.00145414
0.000707466
0.00101195
0.000483081
0.00217878
0.000582397
0.000648329
0.00100213
0.00146138
0.00191481
0.0006948
0.000541109
0.000451795
0.000521898
0.00204932
0.000634734
0.000378664
0.00039875
0.000555152
0.000498926
0.000828177
0.000491064
0.000295394
0.000304643
0.00012472
0.00131607
0.000384665
0.000201075
0.000191573
0.000197874
0.000183633
0.000223706
0.000177064
0.000334898
0.000345529
0.000587651
0.000520367
0.000397663
0.00262166
0.000538215
0.00257098
0.00043398
0.000516135
0.00235108
0.000481756
0.000502778
0.000771615
0.0023924
0.000394966
0.000504723
0.000670882
0.000561754
0.00241768
0.000969273
0.000967996
0.000725956
0.00045236
0.000929538
0.00255357
0.000994326
0.000716648
0.00106654
0.00129857
0.000803056
0.00162997
0.00260339
0.000920649
0.000335208
0.000914399
0.000579756
0.00107317
0.00109735
0.00122212
0.00255244
0.000739495
0.000752093
0.000709482
0.00104179
0.000556542
0.000525889
0.000969734
0.000902095
0.00225402
0.0022336
0.000871836
0.000898772
0.0010388
0.00117389
0.00129478
0.000353305
0.000800125
0.00078988
0.00221883
0.000585034
0.000765865
0.000657646
0.00120902
0.00120055
0.00158936
0.000749917
0.000487102
0.000484113
0.00043384
0.00214871
0.000850968
0.000593904
0.000615703
0.000374212
0.000448273
0.000487988
0.000756093
0.000504181
0.000147737
0.000301963
9.7238e-05
0.00116863
0.00027943
0.000394809
0.000159777
0.000144836
0.000186949
0.000201609
0.000257118
0.000201623
0.000306069
0.000178506
0.00054291
0.000549542
0.000421794
0.00246246
0.00046937
0.00255636
0.000226105
0.00062014
0.00269275
0.000430252
0.000569478
0.000593049
0.00246014
0.000559929
0.000659277
0.000606483
0.000809145
0.00230995
0.000483765
0.000716809
0.000803409
0.000811028
0.00101252
0.00243532
0.00118538
0.00148783
0.000766844
0.000712535
0.000944267
0.000760574
0.00254722
0.0014836
0.000587754
0.000566134
0.000412388
0.000688144
0.000650791
0.00132284
0.00245407
0.000372729
0.000243112
0.000862373
0.00134973
0.00128886
0.00116209
0.000863675
0.00080493
0.00274188
0.00100582
0.00122845
0.000576099
0.00104013
0.00091873
0.00071101
0.000619696
0.000740147
0.00167821
0.00229993
0.000902903
0.0013801
0.000624534
0.000542241
0.000951425
0.00178963
0.00116538
0.000819823
0.000681675
0.000684172
0.00243533
0.000927059
0.000388692
0.000757626
0.000582835
0.00104149
0.00115424
0.0012041
0.000982445
0.00038547
0.000510405
0.000941845
0.0020994
0.000443216
0.000867339
0.000470841
0.000469009
0.000498354
0.000470282
0.000398742
0.000586455
0.000536384
0.000320841
0.000291446
0.000254832
0.00127047
0.000187721
0.000267916
0.000356395
0.000189911
0.000196591
0.000175216
0.000189732
0.000173164
0.000195369
0.00030463
0.000222035
0.000717195
0.000584816
0.000419824
0.00237119
0.00058895
0.00259527
0.000438566
0.000669457
0.00254011
0.00047438
0.000406891
0.000559936
0.00257557
0.000320537
0.000507991
0.000607354
0.00070585
0.00250522
0.000535384
0.000495643
0.000428689
0.000753612
0.000661349
0.00235607
0.000810317
0.000795045
0.00100981
0.000799304
0.000784104
0.000734252
0.00262335
0.000744553
0.000747959
0.000809043
0.000776609
0.000729149
0.000963393
0.00121052
0.00223519
0.00105147
0.000769568
0.000947587
0.000950524
0.000698179
0.000629534
0.00125909
0.000756091
0.00265345
0.0003895
0.000344129
0.00087414
0.00195482
0.000739572
0.0011044
0.000744607
0.000719194
0.00155398
0.00242357
0.000829324
0.00106216
0.00059595
0.000860362
0.000701942
0.00039015
0.000637291
0.000362399
0.0010258
0.0010197
0.00233797
0.000840659
0.000842674
0.000676825
0.000537455
0.00098296
0.00165541
0.00155407
0.000651017
0.000819914
0.000513323
0.000176181
0.00248676
0.000964103
0.000884164
0.000183491
0.000745868
0.000761999
0.00153656
0.000816089
0.00125383
0.000947145
0.000640972
0.000962575
0.00132149
0.00213166
0.000461358
0.000656472
0.000779478
0.000299927
0.000406611
0.000658936
0.000493997
0.000423685
0.000471627
0.000537815
0.000303331
0.00028769
0.000362568
0.000953063
0.000240098
0.000194823
0.000264835
0.000319202
0.000193967
0.000197942
0.0001773
0.000188519
0.000176661
0.000189292
0.000287386
0.000276309
0.000992236
0.000602467
0.000400288
0.00218401
0.000536029
0.00232643
0.000331044
0.000401008
0.00268915
0.000614531
0.000396463
0.000658026
0.00273971
0.000406268
0.000519064
0.000432509
0.000606209
0.0025768
0.000417222
0.000563472
0.000586753
0.000784778
0.000428117
0.00249319
0.000746174
0.000482829
0.000509183
0.000540257
0.000618452
0.000880824
0.00222435
0.000874319
0.000708552
0.00126145
0.000598109
0.000491908
0.000866843
0.000713412
0.00258672
0.00137555
0.00133461
0.000870227
0.00024619
0.000353534
0.000778781
0.000798334
0.000989968
0.00273185
0.00090387
0.000951998
0.000915754
0.000477455
0.00113479
0.00115513
0.00065635
0.000801964
0.00167496
0.00269312
0.000917945
0.00069552
0.000601468
0.000926945
0.000880954
0.000938132
0.000555365
0.000714546
0.00165171
0.00132728
0.00259703
0.000342756
0.000596381
0.00109699
0.000382751
0.000654768
0.00112804
0.000442976
0.000662378
0.000435251
0.000592143
0.000898169
0.00233744
0.000976621
0.000925157
0.00130913
0.000727438
0.000670468
0.00111476
0.00145016
0.000828559
0.000330683
0.00052801
0.000950708
0.000900163
0.00308044
0.000768367
0.0011365
0.000760152
0.000673031
0.000579003
0.000963871
0.00142229
0.000946143
0.00128135
0.000699837
0.0015179
0.000710335
0.000955611
0.00206207
0.000464959
0.00046773
0.000810289
0.000665099
0.000355145
0.00025906
0.000785234
0.000451677
0.000469027
0.000482767
0.000490888
0.000308881
0.000401298
0.00062037
0.00087688
0.000273689
0.00023222
0.000224669
0.000291948
0.00032697
0.000198799
0.000184965
0.000188892
0.000198943
0.000150492
0.000174477
0.000253922
0.000197076
0.000919805
0.00057841
0.000381454
0.00222505
0.000340467
0.00221134
0.000326808
0.000614294
0.0023979
0.00030132
0.000442334
0.000731308
0.00258005
0.000426601
0.000637612
0.00043651
0.000387497
0.00281589
0.00055145
0.000529053
0.000514599
0.000405059
0.000444443
0.00264874
0.000618051
0.000506919
0.000593273
0.000672734
0.0006204
0.000506385
0.00275657
0.000644291
0.000667611
0.000588699
0.000582481
0.000439782
0.000649226
0.000857607
0.00213349
0.000949579
0.000841167
0.000655199
0.000486562
0.000543828
0.000676829
0.000694843
0.00108263
0.00222958
0.000746865
0.000810433
0.000683456
0.000671141
0.000952074
0.000996606
0.000951205
0.000870159
0.000900308
0.00271716
0.000607958
0.000638541
0.000913853
0.00094104
0.00102719
0.000413523
0.000750418
0.000854597
0.000476453
0.00123744
0.00234635
0.000311912
0.000860794
0.000790033
0.000348059
0.0007941
0.000910323
0.000961777
0.000346895
0.000907042
0.000972111
0.000863067
0.00286047
0.000412491
0.000382482
0.000571715
0.000953167
0.000701249
0.000465256
0.000577588
0.000368169
0.00050574
0.000548753
0.0013091
0.00177866
0.00235995
0.00141108
0.000789192
0.000953967
0.00124789
0.00067872
0.000736436
0.000996502
0.000661381
0.000490394
0.00048782
0.00153191
0.00225828
0.00248078
0.00401723
0.00154156
0.00132002
0.00107735
0.000550649
0.000598684
0.00131892
0.000994302
0.000749902
0.000590229
0.0010816
0.000585139
0.00136916
0.000872154
0.00206715
0.00189622
0.000459312
0.000542864
0.000292973
0.000915615
0.00051638
0.000186737
0.000380343
0.000790388
0.000463763
0.00053025
0.000528314
0.000507792
0.000401742
0.000372453
0.000851235
0.00114912
9.26228e-05
0.000361945
0.000258829
0.000264111
0.000288296
0.000291116
0.00018438
0.000154972
0.00020879
0.000191978
0.000134541
0.000171712
0.000262755
0.000225071
0.000836453
0.00053146
0.000406947
0.00223674
0.000374033
0.00226233
0.000295892
0.000314128
0.00214305
0.000434096
0.000279802
0.000443325
0.00247397
0.000416978
0.000503826
0.000677202
0.000777325
0.00237471
0.000458509
0.000507255
0.000560098
0.000584935
0.000560392
0.00266204
0.000543286
0.000499652
0.000606878
0.00043435
0.000560873
0.000408034
0.00252516
0.000618771
0.000475578
0.000590302
0.000502662
0.000555777
0.000428248
0.000541187
0.00258188
0.000559678
0.000666326
0.000721615
0.000635449
0.000525116
0.00106038
0.000502422
0.000630098
0.00221813
0.000399767
0.00094016
0.000692193
0.00038997
0.000708519
0.000677444
0.000548827
0.00105528
0.00088142
0.00248007
0.000840164
0.000910691
0.000644707
0.001395
0.000834424
0.000611109
0.000645464
0.000728882
0.000761106
0.00110856
0.00207147
0.000634018
0.000729563
0.00110033
0.000874036
0.000332015
0.00122709
0.000882454
0.000720315
0.00100313
0.00125023
0.000799492
0.00239226
0.000922451
0.000375966
0.000789448
0.000777102
0.000462658
0.000614836
0.000272502
0.000838257
0.00129167
0.0011393
0.000744999
0.00119287
0.00275197
0.000628992
0.000682241
0.00141386
0.000949198
0.000777831
0.000552515
0.000536248
0.000348909
0.000438274
0.00088776
0.00170577
0.001187
0.00127118
0.00198422
0.000839064
0.00138165
0.000614975
0.000840783
0.00103183
0.00102473
0.000963143
0.000596314
0.000165112
0.000402958
0.000827034
0.00212628
0.0022438
0.00394281
0.00339374
0.000433363
0.000869107
0.00129714
0.000741146
0.000468964
0.00111357
0.000820982
0.00160977
0.000566674
0.000795537
0.000836227
0.000640311
0.000683705
0.00109159
0.00251822
0.00228639
0.000188713
0.000580632
0.000582852
0.000353369
0.000863336
0.000490613
0.000303424
0.000749327
0.000710817
0.00052652
0.000514101
0.000541078
0.000635176
0.000431773
0.000460075
0.000799974
0.00108185
7.07038e-05
0.000112718
0.000322519
0.000316193
0.000297686
0.000309651
0.00026771
0.000162479
0.000135909
0.000230416
0.000165943
0.000129942
0.00014553
0.000284833
0.000340839
0.000805122
0.000502474
0.000411469
0.0022614
0.000386805
0.00226258
0.000268273
0.000402783
0.00230928
0.000244615
0.000314043
0.000500831
0.00208243
0.000206824
0.000368
0.000409781
0.000772177
0.00230756
0.000667567
0.000703778
0.00057946
0.00050736
0.000342174
0.00240961
0.000476111
0.000482902
0.000623028
0.000600102
0.000633364
0.000649179
0.00267492
0.000527074
0.000570441
0.000357495
0.000545228
0.000539191
0.000575537
0.000756832
0.00252735
0.000740315
0.000858228
0.000510793
0.000486084
0.000361223
0.000458116
0.000490531
0.000734005
0.00245086
0.00141602
0.000470033
0.000606824
0.000508308
0.000695168
0.000627829
0.000733278
0.000400718
0.000785553
0.00230615
0.000769244
0.000680523
0.000970587
0.000467693
0.000410153
0.000548118
0.000718862
0.00060286
0.000882869
0.000729837
0.00231044
0.000834146
0.000996679
0.000911904
0.000800135
0.000451478
0.000660593
0.000518469
0.000498334
0.000889238
0.000626711
0.00101672
0.00255458
0.000518233
0.000550108
0.000503941
0.000893054
0.000623675
0.00127894
0.000570671
0.000868725
0.000749615
0.000866541
0.000710244
0.00123167
0.00225853
0.000597997
0.000440483
0.00040765
0.00124004
0.000569227
0.00127431
0.000370835
0.00077222
0.000189548
0.000880453
0.00119117
0.00150471
0.00116733
0.00314881
0.00135056
0.00048549
0.000554921
0.00105076
0.001271
0.000177289
0.000397914
0.000264395
0.000397611
0.00096984
0.00121832
0.00198278
0.00189034
0.000944166
0.0026263
0.00043775
0.000930939
0.00115529
0.000570374
0.00162754
0.000890771
0.000957527
0.000393237
0.00075387
0.000503759
0.000326738
0.00122317
0.00153284
0.00171189
0.0029303
0.00186224
0.000602983
0.000688266
0.000486445
0.00105001
0.000505211
0.000579145
0.00104861
0.00115968
0.0012155
0.000971157
0.000677485
0.000977768
0.000892949
0.000976654
0.00175688
0.00106971
0.00287726
0.000278686
0.000260393
0.000885932
0.000670291
0.000818732
0.000717239
0.000486739
0.000411212
0.00067554
0.000597937
0.000556226
0.000466945
0.000524343
0.000543761
0.000273998
0.000681258
0.00157503
0.00138477
4.19418e-05
6.48135e-05
9.98346e-05
0.000517964
0.000366635
0.000340405
0.000329358
0.000264033
0.000178802
0.000141315
0.000252323
0.000152916
0.000133008
0.000153115
0.00026368
0.000384515
0.00059839
0.000426103
0.000418044
0.00207971
0.000652978
0.00222508
0.000362868
0.000376187
0.00227646
0.000320628
0.000423318
0.000241936
0.002336
0.000330821
0.000423068
0.00022106
0.000464339
0.00207385
0.00026094
0.000478091
0.000309088
0.00063976
0.000784689
0.00228893
0.000696815
0.00055101
0.000580503
0.000620057
0.000563969
0.000454928
0.00239014
0.000648364
0.000275565
0.000353413
0.000526611
0.000543658
0.000310079
0.000405844
0.0026257
0.000439114
0.000526967
0.000459192
0.000494249
0.000630295
0.00065467
0.000637428
0.00050068
0.00242242
0.000824636
0.000671386
0.000486937
0.000598747
0.000442974
0.000648778
0.000861479
0.000971263
0.000760571
0.00274188
0.00077409
0.000603159
0.000766304
0.00069212
0.000512577
0.000514537
0.000378328
0.000448672
0.000600083
0.000837234
0.0023839
0.000689153
0.000847883
0.000842733
0.000492903
0.0010461
0.000478254
0.000758363
0.000555885
0.000689999
0.000812071
0.000979987
0.00242173
0.000878541
0.00102947
0.000505863
0.000844983
0.0014333
0.000880051
0.00101204
0.000481693
0.000725326
0.000838775
0.000938199
0.00119723
0.00242549
0.00126414
0.000209082
0.000310244
0.0010333
0.000901833
0.000655806
0.000498703
0.000501422
0.00056398
0.000504529
0.000821981
0.000566772
0.00106718
0.00259718
0.000400869
0.000820125
0.000533193
0.000759468
0.000336366
0.000401776
0.000343423
0.000604074
0.00114629
0.000575938
0.00103778
0.000906983
0.000589859
0.00165886
0.00281588
0.000718107
0.00148249
0.00116419
0.000933381
0.000407755
0.00098277
0.00106835
0.00038969
0.000103916
0.000306904
0.00104443
0.00097865
0.00139059
0.00205622
0.0011705
0.00265498
0.000998105
0.0015666
0.00141144
0.000915274
0.000297651
0.00200968
0.000467622
0.00138244
0.00027995
0.000412654
0.000532619
0.000169588
0.000821607
0.00101231
0.00156711
0.00219018
0.00203133
0.000552012
0.000600837
0.00105052
0.000684936
0.000782138
0.000487736
0.0010108
0.000738998
0.00141353
0.00071208
0.000684442
0.000801364
0.0011088
0.00115866
0.000931465
0.00274313
0.00190161
0.00269184
0.000412777
0.000237035
0.000399645
0.00102267
0.000567036
0.000918935
0.000568793
0.000432059
0.000435559
0.000546546
0.000515797
0.00057479
0.000462745
0.000507563
0.000430272
0.000522941
0.000936929
0.00246775
0.0010032
8.23178e-05
0.000111374
0.000207011
0.000125874
0.000562557
0.000430946
0.000395828
0.000362102
0.000260056
0.000245952
0.000154615
0.000280163
0.000172715
0.00012262
0.000120882
0.000296664
0.000496501
0.000380435
0.000407829
0.000391359
0.00203962
0.000366091
0.00211717
0.000405429
0.000468096
0.00220949
0.000342837
0.000272476
0.000364913
0.0022409
0.000399953
0.0005325
0.000352279
0.000597276
0.00226114
0.000502911
0.000409399
0.000488779
0.000384875
0.00042495
0.00200863
0.000501095
0.00041068
0.00047764
0.000588353
0.000792906
0.000672985
0.00226469
0.000380216
0.000616411
0.000416515
0.000501069
0.000697843
0.000600402
0.000550289
0.0024308
0.000651023
0.000512415
0.000443226
0.000427556
0.000373638
0.000430182
0.000381722
0.000578758
0.00269149
0.000529764
0.000411713
0.000783635
0.000392236
0.00047691
0.000453337
0.00058981
0.000442438
0.000585171
0.00243683
0.000592551
0.00113182
0.000550108
0.000421524
0.000456329
0.000627705
0.000811406
0.000817776
0.000891619
0.000469295
0.00260897
0.000627295
0.000506708
0.000434528
0.000689736
0.000652654
0.000505737
0.000421474
0.000675259
0.000621322
0.000610808
0.00092638
0.00249439
0.000653682
0.000964241
0.000851548
0.000983877
0.000650823
0.000282687
0.000835897
0.000604209
0.000556993
0.000929039
0.000732263
0.000975244
0.00255726
0.000569906
0.000934174
0.000634029
0.000861822
0.00110647
0.000169307
0.00115396
0.00019005
0.000501799
0.000576514
0.000503025
0.000636656
0.00121068
0.00253536
0.00100009
0.00122731
0.000625292
0.000549137
0.000865376
0.00070732
0.00145431
0.00068638
0.00111539
0.000538294
0.000768012
0.000976552
0.000993837
0.00100639
0.00232093
0.000555592
0.000180259
0.000824031
0.000388246
0.00128853
0.000339578
0.000157149
0.000966808
0.00100115
0.00085012
0.00134262
0.000559284
0.000661737
0.0011325
0.00158883
0.0026121
0.00109775
0.000593392
0.0012221
0.000550728
0.00144501
0.00101044
0.000867877
0.00120711
0.000118906
0.000646902
0.000517451
0.000423052
0.0013233
0.00086217
0.00109358
0.000753105
0.00233477
0.00133203
0.000864036
0.00178784
0.00152962
0.000602412
0.00080931
0.000749412
0.000697864
0.00072379
0.000629099
0.000603999
0.000806502
0.000440317
0.000722084
0.000954641
0.00116264
0.00186331
0.00208502
0.00070625
0.000769476
0.000866317
0.00138175
0.000950614
0.000651716
0.000756202
0.00106983
0.0011906
0.000898741
0.000564125
0.00102658
0.000737058
0.00103845
0.000995263
0.00146154
0.00164045
0.00138594
0.00225064
0.000225536
0.00046699
0.00042662
0.000417451
0.000885234
0.000459115
0.000785273
0.000417936
0.000364512
0.000444556
0.000498929
0.00055231
0.000607979
0.000451566
0.000484696
0.000469376
0.00051212
0.00100768
0.00131841
0.00102582
0.000177689
0.000109048
0.000166386
0.000197492
0.000162361
0.000397731
0.000509052
0.000468963
0.00039695
0.000278009
0.000339329
0.000195643
0.000309212
0.000235514
0.000115368
0.000176859
0.000369732
0.000697862
0.000319549
0.000416929
0.000355109
0.00214746
0.000438645
0.00203111
0.000456983
0.000516308
0.00212245
0.000406801
0.000381551
0.000341414
0.00232312
0.000316016
0.000453508
0.000508915
0.00041853
0.00216347
0.000463329
0.000349157
0.000477382
0.000382905
0.000415509
0.00221678
0.000590571
0.000432229
0.000453818
0.000402576
0.000339374
0.000461333
0.00199388
0.000330874
0.000731589
8.73245e-05
0.000306822
0.000440948
0.000647501
0.000758601
0.00219251
0.000459501
0.000498851
0.000250083
0.000455336
0.000387054
0.000568982
0.000614771
0.00061103
0.00238933
0.000608782
0.000429348
0.000449889
0.000649898
0.000493072
0.000571464
0.000510052
0.000607182
0.000583476
0.00259528
0.000642556
0.000538276
0.000427549
0.000466638
0.000477508
0.000447276
0.000579355
0.000354604
0.000424032
0.000570938
0.00249318
0.000513956
0.000538443
0.000466944
0.000711627
0.000480146
0.000388404
0.000561662
0.000309704
0.00062783
0.000464327
0.000782298
0.00236909
0.000700936
0.000933678
0.000444929
0.000749523
0.000415955
0.000691972
0.000475321
0.000612073
0.000632007
0.000448499
0.000554806
0.000902059
0.00242589
0.000725117
0.000856504
0.000880398
0.000846932
0.000656673
0.000766227
0.000891756
0.000668767
0.000450987
0.000762348
0.000600502
0.000618242
0.00070746
0.00235952
0.00052975
0.00102964
0.000855944
0.000583297
0.00112781
0.000829671
0.00125272
0.000392582
0.000929666
0.000729895
0.000594878
0.000712099
0.000362224
0.0010451
0.00234171
0.000136569
0.000503272
0.000257613
0.000664141
0.00071235
0.00047325
0.000963
0.000719839
0.000953808
0.000924183
0.000488485
0.000610945
0.00064111
0.000897497
0.00128803
0.0022976
0.0004628
0.000404962
0.000604917
0.000421226
0.000884075
0.000803306
0.000749595
0.000817048
0.00060853
0.000567259
0.000507264
0.0010512
0.000958569
0.00106322
0.00135821
0.000814882
0.002455
0.00165791
0.00075647
0.0012683
0.0012728
0.000423331
0.00118524
0.00125645
0.000463168
0.000277663
0.000172094
0.00029466
0.000268336
0.000450684
0.00108616
0.000687433
0.000918135
0.000987549
0.00321052
0.00100129
0.000982072
0.00116776
0.000219324
0.00130126
0.000382007
0.00115615
0.000490007
0.00109666
0.000691931
0.00042696
0.000793733
0.000671862
0.000379646
0.000626355
0.00113157
0.001317
0.00147696
0.00197037
0.000394419
0.000755437
0.000656392
0.000954925
0.00165052
0.000797494
0.000724586
0.000686961
0.000997966
0.000927977
0.00062173
0.00079919
0.00093111
0.000649537
0.00106002
0.000754573
0.00127244
0.00162781
0.00106687
0.00186621
0.000113363
0.000253847
0.000434917
0.000644214
0.000456425
0.000961477
0.00073078
0.000576803
0.000362813
0.00042668
0.000474394
0.000417853
0.000566616
0.000680591
0.000438407
0.000444729
0.000529658
0.000742094
0.00104277
0.000324138
0.000900335
0.00038552
0.00022974
9.61136e-05
0.00015685
0.000174974
0.00020579
0.000442372
0.000572322
0.000544936
0.000421456
0.000324405
0.000434795
0.00028755
0.000349308
0.000299716
0.00012768
0.000215222
0.00040414
0.000722042
0.000296241
0.000402185
0.000330912
0.0021503
0.000295201
0.00217841
0.000461342
0.000253552
0.00208896
0.000622973
0.000341004
0.000461111
0.00214372
0.000366937
0.000403598
0.000587221
0.000475608
0.00222309
0.000309937
0.000455641
0.000438441
0.000329729
0.00045669
0.00215289
0.000302374
0.000326965
0.000384071
0.000299792
0.000438523
0.000453844
0.0022482
0.000435504
0.000526966
0.000377937
0.000281379
0.000278458
0.000383214
0.00031232
0.00204494
0.000364458
0.000374324
0.000735429
0.000418533
0.000285674
0.000616342
0.000577414
0.000574898
0.0022356
0.000355132
0.000529436
0.000452492
0.00054402
0.000470924
0.000365758
0.000383418
0.00057872
0.000760176
0.00237378
0.00045654
0.000699038
0.000460648
0.000509489
0.000416937
0.000513183
0.000503648
0.000416498
0.000579828
0.000729563
0.00246359
0.000445076
0.000722557
0.000982785
0.000516653
0.000515789
0.000469693
0.000577661
0.000690952
0.000576997
0.000461024
0.000619621
0.00252679
0.000340539
0.000753731
0.000547532
0.000475327
0.000388239
0.000477359
0.000498918
0.00042455
0.000653087
0.000482064
0.000690516
0.000579319
0.00224959
0.000631871
0.000913414
0.000580036
0.00084652
0.000798613
0.000600594
0.000429319
0.000503617
0.000518078
0.000378993
0.000305388
0.000464073
0.000761421
0.00221574
0.000711848
0.00105346
0.000904348
0.000653046
0.000630093
0.000700759
0.000484806
0.000606129
0.000470039
0.000578219
0.000618387
0.000406364
0.000507955
0.000789053
0.00264015
0.00072435
0.0010326
0.000766957
0.000586312
0.00082281
0.000838382
0.0010952
0.000819095
0.000598848
0.000760857
0.000640344
0.000647559
0.00113475
0.00111476
0.00091397
0.00196543
0.00042843
0.00049733
0.000544094
0.000420082
0.000491074
0.000952394
0.000891333
0.000396655
0.00112952
0.000678497
0.000839384
0.000734255
0.000476544
0.000561702
0.00101485
0.00122104
0.00242208
0.000928554
0.000312225
0.000524347
0.000481184
0.000911874
0.00108504
0.000431269
0.000758152
0.000813169
0.00059013
0.000971734
0.000958366
0.000706556
0.00125676
0.00103118
0.000672087
0.000889972
0.00285243
0.000754173
0.000649894
0.000824318
0.00180288
0.000871007
0.0011056
0.000989712
0.0006443
0.000602708
0.000565584
0.000319025
0.000210094
0.000518537
0.000643339
0.000720731
0.000968661
0.00126181
0.00183205
0.00246041
0.000823447
0.000943209
0.00102201
0.00186368
0.00132633
0.00077644
0.000552852
0.00106057
0.000515509
0.000671811
0.000748857
0.000635126
0.00037668
0.000494918
0.000386891
0.00068718
0.000470511
0.000715324
0.000764759
0.00213871
0.00051236
0.00040852
0.000534233
0.000927532
0.00113444
0.00105634
0.000699622
0.00053626
0.000579418
0.000872591
0.000558453
0.000792257
0.00074393
0.000635977
0.00073606
0.00106693
0.000796731
0.000757778
0.00165523
0.00108139
0.00209792
0.000368532
8.35673e-05
0.00032247
0.000382945
0.000341416
0.000807349
0.000890469
0.000642652
0.000472294
0.000432263
0.000504765
0.000478355
0.000485955
0.000504656
0.000729756
0.000512275
0.000491046
0.000672424
0.000578875
0.00107466
0.00114366
0.00094814
0.000230193
0.00025031
0.000370746
0.000139632
0.000103223
0.000113363
0.00016708
0.000259171
0.000412419
0.000626103
0.000607003
0.000445817
0.000388894
0.000523012
0.000353125
0.000385437
0.000351219
0.000174527
0.000220364
0.000392118
0.000754207
0.00029529
0.000383398
0.000273779
0.00209203
0.000418892
0.00219759
0.000300917
0.000411954
0.00213426
0.000303582
0.000332767
0.000300971
0.00212864
0.000563211
0.000685777
0.000591853
0.00039864
0.00211351
0.000795735
0.000525219
0.000410565
0.000442367
0.00051477
0.00229965
0.00047304
0.00025539
0.000333011
0.00017384
0.000334266
0.000526691
0.00222152
0.000576677
0.000313488
0.00046402
0.00030929
0.000314401
0.000403922
0.000495419
0.00216848
0.000456193
0.000421062
0.000660738
6.14816e-05
0.000254278
0.000314582
0.000339295
0.000358304
0.00206337
0.000475258
0.000459829
0.000463984
0.000322915
0.0004364
0.000299186
0.000353478
0.000721242
0.000765467
0.00208174
0.000381213
0.000358502
0.000532481
0.0004512
0.000522999
0.000405902
0.000388366
0.000499334
0.000569694
0.000672694
0.00226386
0.000612726
0.00040035
0.000498836
0.000503735
0.00059245
0.000571846
0.000525078
0.000376749
0.000393763
0.000354881
0.000528962
0.00246432
0.000388741
0.000544944
0.000638989
0.000529488
0.000460151
0.000465167
0.000395531
0.000583568
0.000693249
0.000750086
0.000474064
0.000951535
0.00238817
0.000441689
0.000765018
0.000636023
0.000214129
0.000610954
0.000348338
0.000638275
0.000535965
0.000426717
0.000571008
0.000378503
0.00044878
0.00048156
0.00241542
0.000570111
0.000797098
0.000699585
0.000674161
0.000861832
0.000919284
0.000477133
0.000494236
0.00041813
0.000504323
0.000483297
0.000326203
0.000463829
0.000521455
0.00232401
0.000739599
0.000967356
0.00059337
0.000573931
0.000767703
0.000960858
0.000580813
0.000779022
0.00055583
0.000551692
0.000623221
0.000587565
0.000646049
0.000489475
0.000987156
0.00215517
0.000595829
0.000351932
0.000659544
0.000859979
0.000914747
0.000625754
0.00103053
0.00044265
0.00122293
0.000863068
0.000730533
0.000513265
0.000410271
0.000512499
0.000838645
0.000752482
0.0022989
0.00131349
0.000174601
0.000722268
0.000855889
0.00072581
0.000803695
0.00078937
0.000879159
0.00125668
0.000587931
0.00107733
0.000495052
0.000859095
0.000939319
0.00106971
0.000967976
0.000803582
0.00202396
0.000481855
0.000353777
0.000182802
0.000835483
0.000591883
0.000710183
0.00100922
0.00048595
0.000289952
0.00035116
0.000528622
0.00035883
0.0012679
0.00109942
0.000871574
0.00076792
0.000723809
0.00045667
0.00237869
0.00058826
0.000692544
0.000703589
0.0013075
0.000887347
0.000469037
0.00103558
0.0017672
0.000668046
0.000371445
0.000414897
0.000383114
0.000462684
0.000156346
0.000540653
0.000675417
0.00109713
0.000857342
0.00115331
0.00284349
0.000942728
0.000734264
0.00077988
0.000916609
0.000953354
0.00154662
0.000933553