/*--------------------------------*- C++ -*----------------------------------*\
  =========                 |
  \\      /  F ield         | OpenFOAM: The Open Source CFD Toolbox
   \\    /   O peration     | Website:  https://openfoam.org
    \\  /    A nd           | Version:  7
     \\/     M anipulation  |
\*---------------------------------------------------------------------------*/
FoamFile
{
    version     2.0;
    format      ascii;
    class       volScalarField;
    location    "7.5";
    object      p;
}
// * * * * * * * * * * * * * * * * * * * * * * * * * * * * * * * * * * * * * //

dimensions      [0 2 -2 0 0 0 0];

internalField   nonuniform List<scalar> 
18750
(
-67.1189
-64.5545
-66.9104
-67.2001
-58.4623
-64.6278
-64.847
-67.4402
-67.0934
-67.4668
-56.5198
-59.0379
-59.1349
-64.6921
-64.8818
-65.2788
-66.0047
-67.4526
-67.2462
-67.8183
-55.4757
-56.5791
-56.4448
-60.753
-59.131
-59.6925
-64.3844
-64.8364
-65.394
-65.7879
-64.1102
-66.0746
-67.4705
-67.3871
-68.0986
-51.5097
-54.6826
-56.8052
-56.3006
-56.3381
-57.0066
-61.3546
-60.9265
-59.1735
-60.2336
-63.3819
-64.5938
-65.0991
-65.89
-66.2802
-64.4957
-64.1845
-66.1587
-67.5071
-67.5471
-68.3224
-48.5102
-52.8313
-50.971
-54.8052
-54.8449
-57.0448
-57.4043
-56.4024
-56.4871
-56.9153
-61.8547
-61.5163
-61.2617
-59.743
-60.5471
-63.7001
-63.5245
-64.8553
-65.4211
-66.337
-67.1293
-64.466
-64.509
-64.2636
-66.2918
-67.5997
-67.7359
-68.4924
-47.26
-50.3416
-48.7533
-52.3377
-52.7301
-50.6654
-56.1209
-54.995
-54.6082
-55.9957
-59.3976
-57.3935
-56.8777
-56.6212
-57.3698
-62.9766
-61.9945
-61.8323
-61.9431
-60.3678
-60.7346
-63.9623
-63.6973
-63.6437
-65.1107
-65.7238
-66.8393
-67.9565
-64.9661
-64.4588
-64.5217
-64.3536
-66.4964
-67.6958
-67.9152
-68.6397
-46.771
-48.388
-47.4836
-50.6533
-50.27
-48.5469
-54.2693
-51.9973
-52.5313
-51.2825
-59.2906
-56.0798
-55.104
-54.9937
-55.1106
-61.9278
-59.142
-57.5961
-57.26
-56.637
-57.173
-64.0436
-62.9769
-62.188
-62.0757
-62.2605
-60.9384
-60.8457
-64.7458
-63.9478
-63.7144
-63.7279
-65.3728
-66.056
-67.4845
-68.4591
-65.4584
-64.9502
-64.4457
-64.5382
-64.4525
-66.7336
-67.803
-68.0778
-68.7828
-46.2621
-47.1674
-46.8184
-49.0631
-48.6225
-47.4737
-52.2859
-50.6588
-50.0311
-48.8554
-55.4882
-54.3581
-51.9911
-52.5314
-51.3244
-60.8605
-58.7106
-56.2912
-55.1706
-54.9701
-54.8163
-64.6477
-61.8817
-58.8778
-57.9945
-57.6381
-56.7654
-57.1676
-64.8998
-64.131
-62.989
-62.3056
-62.2996
-62.4781
-61.476
-61.039
-65.7643
-64.714
-63.948
-63.7279
-63.8204
-65.6312
-66.4396
-68.2077
-69.0924
-65.7915
-65.45
-64.9343
-64.4349
-64.5592
-64.5451
-66.8769
-67.9201
-68.2401
-68.9122
-45.5926
-46.4517
-46.2013
-47.4814
-47.1783
-46.84
-49.728
-49.006
-48.539
-47.6635
-52.4607
-52.2971
-50.5467
-49.93
-49.4415
-56.2633
-55.0962
-54.1024
-52.1422
-52.3597
-52.1043
-61.8611
-60.7035
-57.7497
-56.242
-55.1729
-54.9714
-54.7943
-65.8144
-64.8081
-61.7533
-58.8828
-58.3525
-57.8497
-57.1002
-57.133
-65.9653
-64.9144
-64.1631
-63.0151
-62.5088
-62.5602
-62.7864
-62.0472
-61.3269
-66.129
-65.7447
-64.7075
-63.9531
-63.7432
-63.9285
-65.8788
-66.8791
-68.9622
-69.8727
-65.9783
-65.7951
-65.4402
-64.9183
-64.4293
-64.5709
-64.6225
-66.9341
-68.0378
-68.4014
-69.0333
-44.9501
-45.6946
-45.5494
-46.7965
-46.4228
-46.2429
-48.1306
-47.4121
-47.1189
-46.8667
-50.2607
-49.719
-48.8781
-48.3273
-47.8279
-52.715
-52.1909
-51.808
-50.2978
-50.1551
-49.4457
-56.6442
-54.4202
-54.7049
-53.8923
-52.157
-51.9025
-52.2547
-61.7153
-62.139
-60.5407
-57.5747
-56.2857
-55.3488
-55.1898
-54.4073
-64.9123
-65.3185
-64.7011
-61.4922
-59.4523
-58.8318
-58.3161
-57.3692
-57.0392
-66.0715
-65.9183
-64.8802
-64.2829
-63.0562
-62.7098
-62.8537
-63.119
-62.7422
-61.5474
-65.7105
-66.1357
-65.7322
-64.7207
-63.9772
-63.7807
-64.0339
-66.1456
-67.3235
-69.7891
-70.4793
-66.1454
-65.9876
-65.7965
-65.4284
-64.9042
-64.4277
-64.5759
-64.7002
-67.0014
-68.1576
-68.5603
-69.1466
-44.5266
-45.1044
-44.918
-45.8075
-45.6584
-45.4871
-46.965
-46.7334
-46.321
-46.3042
-48.4301
-48.1703
-47.308
-46.9778
-46.807
-50.777
-50.1157
-49.5133
-48.8434
-48.2767
-47.7845
-53.8991
-53.1917
-52.1664
-51.5146
-50.3691
-49.8301
-49.7356
-56.9055
-56.3526
-55.0808
-54.5826
-53.6475
-52.0117
-51.9834
-51.7615
-61.5197
-61.4773
-62.1544
-60.312
-57.5627
-56.4447
-55.4416
-54.8347
-54.2129
-64.6738
-64.5428
-64.7807
-64.0298
-61.2364
-59.7534
-59.1142
-58.7615
-58.0045
-56.963
-65.4994
-66.082
-65.8812
-64.8645
-64.44
-63.1544
-62.9476
-63.1417
-63.4741
-63.447
-61.8065
-65.7806
-65.7199
-66.1361
-65.7172
-64.727
-64.0252
-63.8106
-64.1571
-66.4282
-67.7909
-70.6083
-70.8403
-66.2331
-66.1089
-65.9973
-65.8015
-65.4155
-64.8885
-64.423
-64.5872
-64.7894
-67.1222
-68.3062
-68.717
-69.2484
-44.0064
-44.6089
-44.6599
-45.1417
-45.0905
-44.7564
-45.9716
-45.8022
-45.5175
-45.4193
-47.2343
-46.8826
-46.5901
-46.2709
-46.3136
-48.7201
-48.3589
-48.0281
-47.2654
-46.7795
-46.6912
-50.3904
-50.5576
-49.9738
-49.6409
-48.3114
-48.2108
-47.843
-54.2209
-53.5772
-52.7008
-52.1673
-51.1617
-50.3217
-49.5942
-49.7828
-58.2631
-57.3548
-56.0914
-54.6856
-54.2083
-53.6674
-52.1197
-51.919
-51.3215
-61.5806
-61.3152
-61.1545
-61.5595
-59.8717
-57.6634
-56.4221
-55.4288
-55.1395
-54.2545
-64.3679
-64.7113
-64.3175
-64.1255
-63.1805
-61.3254
-60.2973
-59.3711
-59.1504
-58.5242
-56.8335
-65.2973
-65.7639
-66.0404
-65.8748
-64.9071
-64.571
-63.2195
-63.273
-63.5832
-63.9644
-64.1578
-61.8623
-66.3206
-65.7048
-65.7588
-66.1283
-65.6942
-64.6857
-64.0855
-63.9069
-64.3261
-66.7159
-68.2751
-71.3926
-71.227
-66.0468
-66.1658
-66.0849
-66.0058
-65.7977
-65.4016
-64.8709
-64.4195
-64.6031
-64.8813
-67.2434
-68.4907
-68.8601
-69.3304
-43.6164
-44.0186
-43.9803
-44.58
-44.5467
-44.7049
-45.2907
-45.1307
-45.0946
-44.6494
-46.1325
-45.9374
-45.6712
-45.5013
-45.4251
-47.3439
-47.1254
-46.8036
-46.4831
-46.329
-46.2749
-48.702
-48.3769
-48.3162
-47.8514
-47.1498
-46.79
-46.4529
-50.9149
-50.5931
-50.369
-49.8325
-49.3897
-48.1777
-47.8403
-48.1085
-54.0617
-53.8922
-53.4204
-52.6129
-51.7522
-50.7768
-50.1983
-49.5646
-49.2344
-58.2199
-57.7233
-56.6405
-56.2381
-54.8754
-54.1555
-53.7027
-52.207
-51.7431
-51.1261
-62.2811
-61.6826
-61.1068
-61.0856
-61.2639
-59.5152
-57.7603
-56.4968
-55.5669
-55.6601
-54.3594
-64.0501
-64.4783
-64.4529
-64.0719
-63.581
-62.659
-61.9845
-60.9677
-59.8261
-59.465
-58.9385
-56.7805
-66.2267
-65.3204
-65.929
-65.9976
-65.7633
-64.8203
-64.7179
-63.2752
-63.5304
-64.0386
-64.5374
-64.8687
-61.592
-66.907
-66.1358
-65.6667
-65.7588
-66.1159
-65.6744
-64.6691
-64.1168
-64.0477
-64.5264
-66.9635
-68.7343
-72.0976
-71.5325
-66.0256
-66.0089
-66.1002
-66.0645
-66.0173
-65.7908
-65.3886
-64.8554
-64.4167
-64.6201
-64.9703
-67.3587
-68.5922
-68.9902
-69.3878
-43.4645
-43.7048
-43.4762
-44.1365
-44.044
-44.13
-44.6262
-44.5634
-44.6194
-44.6361
-45.3469
-45.1843
-45.0807
-44.9725
-44.5972
-46.2262
-45.9975
-45.8291
-45.563
-45.4365
-45.4477
-47.3558
-47.1088
-46.9458
-46.6524
-46.436
-46.1565
-46.3672
-48.6284
-48.5856
-48.5734
-48.1599
-47.7779
-47.1019
-46.7242
-46.3561
-50.5626
-50.2243
-50.5474
-50.4193
-49.8191
-48.932
-47.9565
-47.7703
-47.7669
-54.2154
-53.7178
-53.06
-53.1683
-52.2993
-51.4173
-50.9693
-50.1341
-49.1695
-49.3554
-58.3327
-57.8428
-57.2766
-56.3527
-55.9542
-54.5011
-53.8459
-53.3506
-51.8463
-52.0837
-50.9059
-62.5586
-62.4962
-61.2027
-60.7907
-60.7676
-60.7577
-59.1728
-57.5817
-56.7311
-55.9405
-55.4165
-54.407
-64.1558
-64.2233
-64.7217
-64.1867
-63.8273
-63.1284
-62.4613
-62.2521
-61.3086
-60.219
-59.9581
-59.6555
-56.4542
-67.1503
-65.9622
-65.3782
-65.9789
-65.9831
-65.5969
-64.7998
-64.768
-63.3894
-63.5969
-64.4305
-65.3273
-65.6163
-61.4261
-66.8076
-66.7089
-65.9783
-65.651
-65.7504
-66.1148
-65.633
-64.6808
-64.0954
-64.1502
-64.7225
-67.2178
-69.1447
-72.6899
-71.7196
-65.4959
-66.0063
-65.9665
-66.04
-66.041
-66.0216
-65.7796
-65.3763
-64.84
-64.4154
-64.6369
-65.0699
-67.4619
-68.6636
-69.0973
-69.426
-43.2065
-43.4587
-43.4148
-43.7934
-43.6802
-43.3151
-44.1337
-44.0663
-43.9515
-44.2294
-44.6267
-44.5572
-44.6626
-44.5603
-44.5259
-45.3604
-45.2737
-45.1511
-44.9452
-44.8819
-44.6558
-46.1584
-46.1611
-45.9895
-45.7553
-45.4996
-45.4691
-45.3724
-47.1543
-47.2456
-47.1237
-46.8716
-46.5555
-46.2984
-46.0997
-46.2966
-48.6174
-48.6102
-48.5801
-48.3254
-48.0848
-47.586
-46.9775
-46.6061
-46.4113
-51.0641
-50.6288
-50.4636
-50.4499
-49.9442
-49.3444
-48.7228
-47.9197
-47.5086
-47.7014
-54.5492
-53.9345
-53.5292
-53.1264
-52.3535
-52.1236
-51.4862
-50.8501
-50.0991
-49.4824
-49.5243
-58.9036
-58.3304
-57.3808
-57.3002
-56.2746
-55.4388
-53.9358
-53.5398
-53.0688
-51.8328
-52.0262
-50.7956
-62.1126
-62.6582
-61.9079
-60.3911
-60.9133
-60.3664
-60.1858
-59.0677
-57.5545
-56.8334
-55.7941
-55.7147
-54.8309
-64.1912
-64.0927
-64.3597
-64.8666
-64.0812
-63.7564
-62.9537
-62.399
-62.5679
-61.4651
-60.7146
-60.594
-60.1375
-56.3499
-68.1229
-66.6426
-65.7751
-65.4684
-65.8604
-65.9582
-65.4515
-64.8404
-64.6678
-63.4037
-63.6539
-65.0013
-65.9936
-66.3431
-61.2966
-66.282
-66.7159
-66.5252
-65.8627
-65.6472
-65.7648
-66.0397
-65.5908
-64.6705
-64.0623
-64.231
-64.9166
-67.4796
-69.5317
-73.16
-71.7451
-65.6609
-65.5013
-65.9795
-65.9182
-65.9903
-66.0284
-66.0156
-65.7666
-65.365
-64.8254
-64.4162
-64.6532
-65.1736
-67.5648
-68.7608
-69.1709
-69.4444
-43.0697
-43.2039
-43.2072
-43.5266
-43.4357
-43.4334
-43.7808
-43.7218
-43.6545
-43.3349
-44.2022
-44.0793
-44.0704
-43.9707
-44.1407
-44.63
-44.6323
-44.5922
-44.4894
-44.5651
-44.3924
-45.3832
-45.3384
-45.1634
-45.0293
-44.967
-44.8979
-44.8022
-46.2334
-46.1906
-46.0839
-45.867
-45.6881
-45.4959
-45.3464
-45.458
-47.2958
-47.1025
-47.2104
-47.0867
-46.8062
-46.4352
-46.3453
-46.1402
-46.1658
-48.9556
-48.708
-48.6417
-48.489
-48.3137
-47.8709
-47.4479
-46.856
-46.6469
-46.1837
-51.4811
-50.9842
-50.7327
-50.5103
-50.2885
-49.7748
-49.2833
-48.6365
-47.9539
-47.5605
-47.8677
-54.7421
-54.233
-53.6989
-53.1295
-53.0239
-52.3774
-51.9437
-51.3772
-50.6418
-49.7598
-49.4841
-49.4522
-59.2174
-58.9593
-57.992
-57.3837
-57.0948
-55.9789
-54.8342
-53.8934
-53.3014
-52.919
-51.6305
-51.5297
-50.7782
-62.1418
-62.3282
-62.4582
-61.3107
-60.3259
-60.835
-60.3545
-59.721
-58.8051
-57.5289
-56.9154
-55.7753
-56.1722
-55.2002
-65.8505
-63.9436
-64.0929
-64.3726
-64.6745
-63.9105
-63.4758
-62.7574
-62.2164
-62.6073
-61.8192
-60.989
-60.9651
-61.3024
-56.3253
-66.9044
-67.6677
-66.2168
-65.6659
-65.5895
-65.7547
-65.8192
-65.3009
-64.8993
-64.5296
-63.3751
-63.7409
-65.1599
-66.4366
-66.7161
-60.9548
-65.9214
-66.3212
-66.5871
-66.3094
-65.7917
-65.6603
-65.7641
-65.9808
-65.5572
-64.6232
-64.0666
-64.3035
-65.1399
-67.6928
-69.8283
-73.3829
-71.74
-65.528
-65.7141
-65.5065
-65.9471
-65.8665
-65.947
-66.0292
-66.0116
-65.7583
-65.3547
-64.8111
-64.4181
-64.6721
-65.2788
-67.6758
-68.8373
-69.2218
-69.4489
-42.8588
-42.9937
-43.0982
-43.2947
-43.2383
-43.1605
-43.5154
-43.5172
-43.4615
-43.4605
-43.849
-43.7723
-43.7019
-43.5556
-43.545
-44.1823
-44.1231
-44.0592
-44.156
-44.0402
-43.9954
-44.5958
-44.6624
-44.5599
-44.5285
-44.4216
-44.4467
-44.3171
-45.3574
-45.372
-45.2748
-45.1059
-45.0013
-44.9197
-44.9098
-44.8885
-46.2634
-46.1296
-46.0755
-46.0412
-45.882
-45.5494
-45.4417
-45.3071
-45.4627
-47.0939
-47.1353
-47.0352
-47.204
-46.9684
-46.6835
-46.3906
-46.2554
-46.1531
-45.9532
-49.1868
-49.05
-48.5151
-48.5852
-48.4071
-48.1821
-47.5717
-47.3246
-46.8209
-46.6198
-46.3883
-51.6831
-51.0864
-51.1992
-50.628
-50.5136
-49.8052
-49.6624
-49.1358
-48.4202
-47.914
-47.5415
-47.8302
-54.9818
-54.6634
-53.9535
-53.7539
-53.2287
-52.7533
-52.203
-51.6081
-51.2078
-50.3786
-49.6535
-49.3104
-49.3169
-59.1015
-59.0863
-58.7423
-57.5963
-57.2838
-56.1574
-55.5441
-54.5686
-53.7201
-53.1895
-52.4197
-51.4186
-51.6117
-50.4492
-62.0795
-62.184
-62.4039
-62.2897
-61.0205
-60.3135
-60.3994
-60.0895
-59.688
-58.7152
-57.6343
-56.9052
-55.787
-55.5523
-55.083
-66.8724
-65.4625
-63.7752
-64.1766
-64.3135
-64.2419
-63.6414
-63.2651
-62.5628
-62.0356
-62.4994
-61.7576
-61.4383
-60.7556
-61.7228
-56.5467
-66.7122
-66.8326
-67.2027
-65.939
-65.6029
-65.7298
-65.6989
-65.5452
-65.179
-64.8952
-64.3705
-63.4213
-63.7231
-65.5044
-66.6326
-66.8863
-60.9843
-66.7587
-65.9934
-66.3078
-66.4205
-66.0761
-65.7505
-65.6838
-65.7431
-65.9507
-65.5404
-64.5964
-64.0625
-64.3885
-65.3381
-67.8168
-70.082
-73.3772
-71.7094
-64.9525
-65.5893
-65.7614
-65.5148
-65.9109
-65.8126
-65.9101
-66.0326
-66.0108
-65.7538
-65.3433
-64.7945
-64.4207
-64.6881
-65.3936
-67.7893
-68.9024
-69.2787
-69.4308
-42.6895
-42.8017
-42.8328
-43.0826
-43.1361
-43.0998
-43.2455
-43.2283
-43.2271
-43.1638
-43.5562
-43.5104
-43.517
-43.4778
-43.439
-43.8512
-43.7216
-43.74
-43.641
-43.5642
-43.5912
-44.1958
-44.1405
-44.1169
-44.0525
-43.8977
-43.9582
-43.9313
-44.6623
-44.7974
-44.6705
-44.5803
-44.429
-44.418
-44.3996
-44.3105
-45.3971
-45.3458
-45.345
-45.2134
-45.1083
-44.9325
-44.9272
-44.8744
-44.9341
-46.2253
-46.2936
-46.1941
-46.0713
-45.9606
-45.8144
-45.4962
-45.4858
-45.3696
-45.3555
-47.6491
-47.5268
-47.1401
-47.1851
-47.1368
-46.9227
-46.6648
-46.4619
-46.0567
-46.0698
-45.8319
-49.2496
-49.0533
-48.9008
-48.7446
-48.2166
-48.1329
-47.9868
-47.5116
-47.1599
-46.9056
-46.5431
-46.3109
-51.8438
-51.6003
-51.0852
-50.8442
-50.6932
-50.2144
-50.0379
-49.5093
-48.927
-48.1427
-47.8919
-47.4234
-47.9764
-55.381
-54.8094
-54.6181
-54.0899
-53.42
-53.0523
-52.2336
-51.9389
-51.4844
-50.8618
-50.1677
-49.6234
-49.2055
-49.1872
-59.2324
-59.1501
-58.9428
-58.3328
-57.4958
-56.9019
-56.2606
-55.081
-54.6687
-53.9088
-52.8178
-52.306
-51.3668
-51.4455
-50.5868
-62.8857
-62.131
-62.0781
-62.1989
-62.0029
-60.8691
-60.129
-60.1988
-59.5564
-59.3021
-58.4517
-57.6808
-56.8597
-55.6836
-55.6861
-55.0159
-66.323
-66.8818
-65.1684
-63.7675
-64.1965
-64.3915
-63.972
-63.3931
-62.9941
-62.4178
-61.8707
-62.0346
-61.684
-61.5071
-60.6857
-61.5267
-56.5278
-66.9854
-66.9151
-66.7006
-66.7964
-65.7235
-65.5379
-65.6795
-65.5681
-65.3798
-65.1086
-64.8898
-64.2356
-63.4367
-63.8399
-65.8148
-66.7833
-67.019
-61.238
-66.4989
-66.8196
-66.0706
-66.2713
-66.2483
-65.8964
-65.7315
-65.702
-65.7194
-65.9222
-65.5386
-64.5845
-64.0319
-64.4832
-65.4949
-67.984
-70.0875
-73.3211
-71.4874
-64.9237
-64.9911
-65.64
-65.8037
-65.5086
-65.8676
-65.7613
-65.879
-66.0368
-66.0115
-65.7486
-65.3308
-64.7807
-64.4264
-64.7118
-65.4974
-67.9059
-68.9539
-69.3016
-69.3769
-42.5565
-42.7145
-42.6637
-42.8809
-42.831
-42.887
-43.0776
-43.0578
-43.138
-43.0671
-43.3368
-43.2322
-43.2759
-43.1546
-43.1699
-43.5239
-43.5322
-43.5712
-43.4539
-43.4676
-43.4546
-43.9172
-43.7891
-43.809
-43.6498
-43.6317
-43.6106
-43.6145
-44.2376
-44.2021
-44.2021
-44.101
-44.01
-43.931
-43.9168
-43.8264
-44.7963
-44.7571
-44.6977
-44.6105
-44.5314
-44.4335
-44.3978
-44.3759
-44.3436
-45.4303
-45.4301
-45.3253
-45.2757
-45.2118
-45.1637
-44.9624
-44.8592
-44.7857
-44.9101
-46.4328
-46.3114
-46.375
-46.1389
-46.0828
-45.9249
-45.7695
-45.4793
-45.3239
-45.5167
-45.2918
-47.6102
-47.7446
-47.17
-47.29
-47.0961
-47.0624
-46.7807
-46.5949
-46.3745
-46.1255
-45.8839
-45.9316
-49.5421
-49.2683
-49.0698
-48.5125
-48.4515
-48.2622
-48.136
-47.9245
-47.4502
-47.1024
-46.9299
-46.5918
-46.4424
-52.1863
-51.7333
-51.4406
-51.1963
-50.5635
-50.2809
-50.1133
-50.1256
-49.3227
-48.8909
-48.2943
-47.9196
-47.4781
-47.8261
-55.5596
-55.2083
-54.7094
-54.3423
-54.0353
-53.0577
-52.7901
-52.1579
-51.4909
-51.2658
-50.6819
-50.0119
-49.6121
-49.2284
-49.166
-59.2199
-59.4004
-59.2901
-58.7224
-57.7924
-57.1655
-56.8208
-55.8605
-54.8209
-54.3916
-53.5122
-52.8153
-52.2336
-51.1744
-51.5936
-50.6734
-62.6709
-63.1043
-61.9608
-62.5611
-62.5039
-61.2399
-60.6247
-60.3345
-59.9318
-59.1121
-58.7533
-58.0816
-57.4759
-56.6978
-55.6764
-55.745
-55.5301
-65.7446
-66.5316
-66.6195
-64.6892
-63.8493
-64.166
-64.2856
-63.5617
-63.1436
-62.7272
-62.1415
-61.5275
-61.7072
-61.42
-61.6307
-60.14
-61.2301
-56.6541
-66.417
-67.3005
-67.0647
-66.4474
-66.4077
-65.5129
-65.4388
-65.5668
-65.4119
-65.2562
-64.9939
-64.9013
-64.0696
-63.383
-64.0084
-66.0582
-66.7597
-67.0895
-61.2624
-66.3818
-66.5161
-66.8707
-66.1731
-66.2176
-66.0835
-65.7787
-65.706
-65.7108
-65.7023
-65.9099
-65.5517
-64.5368
-64.0018
-64.572
-65.6353
-68.1033
-70.0291
-73.1197
-71.224
-65.6269
-64.9513
-65.0265
-65.6872
-65.8408
-65.4775
-65.8172
-65.7109
-65.8529
-66.0421
-66.0119
-65.7435
-65.3165
-64.7654
-64.4341
-64.7454
-65.585
-67.9901
-68.9616
-69.2818
-69.3298
-42.4561
-42.5686
-42.5503
-42.7039
-42.5884
-42.6996
-42.8809
-42.9106
-42.9084
-42.8556
-43.1369
-43.1256
-43.0907
-43.0822
-43.0991
-43.1526
-43.3736
-43.2564
-43.2505
-43.2423
-43.18
-43.6031
-43.6164
-43.5104
-43.5057
-43.4745
-43.4585
-43.4729
-43.9443
-43.7272
-43.8683
-43.759
-43.639
-43.6475
-43.5899
-43.5818
-44.322
-44.2688
-44.2661
-44.1736
-44.0813
-43.9988
-43.9134
-43.8789
-43.7781
-44.8832
-44.8356
-44.7404
-44.6597
-44.5742
-44.5163
-44.413
-44.3416
-44.3838
-44.4304
-45.5901
-45.3416
-45.5107
-45.3063
-45.3125
-45.1669
-44.9542
-44.8715
-44.9259
-44.8375
-44.8617
-46.5273
-46.4037
-46.3619
-46.1055
-46.0948
-46.0453
-45.8435
-45.7504
-45.3786
-45.2434
-45.4228
-45.2946
-47.8429
-47.6797
-47.4744
-47.1103
-47.2911
-47.0481
-47.0095
-46.7007
-46.5059
-46.2518
-46.0634
-45.9245
-45.9771
-49.822
-49.568
-49.2101
-49.0672
-48.468
-48.5374
-48.4409
-48.1166
-47.7467
-47.4301
-47.1936
-46.9187
-46.5937
-46.5431
-52.3571
-52.0341
-51.8027
-51.3926
-50.7447
-50.5283
-49.9406
-50.2756
-49.5059
-49.2022
-48.6639
-48.1771
-47.8973
-47.557
-47.8701
-55.6374
-55.3521
-54.986
-54.7799
-54.222
-53.669
-53.0443
-52.4417
-52.2614
-51.9068
-51.1926
-50.665
-50.0119
-49.4729
-49.3506
-49.3403
-59.2398
-59.3741
-59.2462
-59.2404
-58.4402
-57.3941
-56.6271
-56.3211
-55.6474
-54.9308
-54.0481
-53.3866
-52.6031
-52.1452
-51.2984
-51.5859
-50.5288
-62.2139
-62.8403
-62.7288
-61.6946
-62.2696
-62.3537
-60.846
-60.2286
-59.8732
-59.4879
-58.9645
-58.3576
-57.4856
-57.2827
-56.462
-55.8742
-55.8654
-55.4451
-64.6478
-65.9467
-66.833
-66.0726
-64.1179
-63.8028
-63.9549
-63.8894
-63.2137
-62.8938
-62.4874
-61.8986
-61.3089
-61.3962
-61.2328
-61.5404
-60.0023
-61.0136
-56.8304
-66.3547
-66.5539
-67.54
-67.1637
-66.1998
-66.0244
-65.3591
-65.2954
-65.4365
-65.322
-65.1043
-64.901
-64.7923
-63.9149
-63.4054
-64.1709
-66.0961
-66.2801
-66.9256
-61.4113
-67.3486
-66.4258
-66.5484
-66.8881
-66.2438
-66.0924
-65.9428
-65.6921
-65.6706
-65.7268
-65.6855
-65.9169
-65.5653
-64.4283
-63.9609
-64.6506
-65.7682
-68.1998
-69.9299
-72.5939
-70.7977
-66.4078
-65.616
-64.976
-65.0597
-65.7201
-65.8762
-65.4287
-65.7645
-65.6589
-65.8306
-66.0492
-66.0114
-65.7396
-65.3007
-64.7452
-64.4409
-64.7777
-65.6349
-68.0539
-68.9482
-69.2395
-69.2467
-42.3482
-42.5009
-42.4351
-42.5653
-42.5441
-42.5641
-42.6705
-42.7096
-42.6911
-42.7266
-42.963
-42.8301
-42.8691
-42.8794
-42.8482
-43.1199
-43.1129
-43.1203
-43.1944
-43.0791
-43.1254
-43.3881
-43.2909
-43.2205
-43.2712
-43.2282
-43.2281
-43.1878
-43.6012
-43.581
-43.5025
-43.5668
-43.4929
-43.4495
-43.441
-43.4491
-43.9859
-43.8774
-43.7853
-43.8295
-43.7476
-43.6497
-43.6345
-43.6074
-43.5564
-44.4524
-44.3033
-44.3141
-44.2181
-44.1048
-44.0675
-44.0332
-43.8975
-43.8108
-43.8157
-45.0449
-44.8362
-44.8207
-44.7085
-44.6954
-44.588
-44.53
-44.4035
-44.4498
-44.3299
-44.4739
-45.7898
-45.5481
-45.4989
-45.4832
-45.3023
-45.3284
-45.0747
-44.9251
-44.8021
-44.7909
-44.9323
-44.7829
-46.7108
-46.4343
-46.4603
-46.2772
-46.2017
-46.0816
-45.9569
-45.757
-45.47
-45.4143
-45.3729
-45.3594
-45.2543
-48.0405
-47.8659
-47.7557
-47.5603
-47.1763
-47.2239
-47.1536
-46.8808
-46.7235
-46.3994
-46.2665
-46.0466
-45.9721
-46.0054
-49.8824
-49.7637
-49.3836
-49.1876
-48.8007
-48.8785
-48.6621
-48.4284
-48.0523
-47.6428
-47.377
-47.1577
-47.0348
-46.6148
-46.4278
-52.6109
-52.1263
-51.9962
-51.8346
-51.3559
-50.8995
-50.677
-50.0682
-50.0935
-49.4738
-49.0666
-48.6592
-48.1096
-47.8688
-47.6656
-47.9739
-55.7652
-55.6816
-55.3848
-54.8274
-54.6243
-54.3098
-53.3778
-53.0126
-52.3884
-52.1237
-51.6736
-50.8617
-50.4638
-50.09
-49.8497
-49.5776
-49.5019
-58.8201
-59.3588
-59.4169
-59.2547
-58.8308
-57.9086
-57.1244
-56.4361
-56.2065
-55.2962
-54.6296
-53.9953
-53.2813
-52.5479
-52.1632
-51.7487
-51.6445
-50.663
-61.2904
-62.2493
-63.0272
-62.2223
-61.6012
-61.8282
-61.6037
-60.5667
-60.0035
-59.4343
-59.1878
-58.623
-57.8477
-57.1601
-57.042
-56.3313
-55.9263
-56.3572
-55.428
-63.9684
-64.839
-66.138
-66.9118
-65.3427
-63.772
-63.6758
-63.7437
-63.4091
-62.9605
-62.623
-62.2665
-61.7211
-61.1775
-61.1503
-61.1385
-61.5659
-59.8423
-61.1816
-57.3969
-65.5382
-66.5058
-66.6915
-67.7135
-67.0388
-65.8448
-65.6207
-65.206
-65.1072
-65.3236
-65.2466
-65.044
-64.8605
-64.5504
-63.8218
-63.5447
-64.1931
-65.816
-66.0253
-66.4566
-61.2461
-67.5435
-67.4283
-66.4778
-66.5518
-66.8709
-66.2571
-65.9308
-65.8307
-65.6016
-65.6415
-65.7397
-65.6448
-65.9045
-65.5197
-64.3333
-63.911
-64.7115
-65.9128
-68.2921
-69.8771
-72.0985
-70.139
-68.9995
-66.4005
-66.4282
-65.6078
-64.9943
-65.0927
-65.7417
-65.911
-65.3718
-65.7103
-65.6068
-65.8068
-66.0536
-66.0143
-65.737
-65.2844
-64.7261
-64.4498
-64.8092
-65.6501
-68.1099
-68.9445
-69.1909
-69.1761
-42.2476
-42.3273
-42.3403
-42.4999
-42.4609
-42.4458
-42.5976
-42.5652
-42.5729
-42.5769
-42.7169
-42.6221
-42.6686
-42.738
-42.7648
-42.9553
-42.9156
-42.8803
-42.9049
-42.8539
-42.8237
-43.1782
-43.1653
-43.0791
-43.1517
-43.1065
-43.1201
-43.1773
-43.3452
-43.3677
-43.2551
-43.2977
-43.2736
-43.2547
-43.2435
-43.2086
-43.6363
-43.5926
-43.5339
-43.5992
-43.5576
-43.4759
-43.4939
-43.4623
-43.3873
-44.0722
-43.9435
-43.8749
-43.8983
-43.7812
-43.7629
-43.7079
-43.6253
-43.5698
-43.6248
-44.5167
-44.4026
-44.372
-44.274
-44.1857
-44.14
-44.0917
-44.0349
-43.8928
-43.8222
-43.9113
-45.0842
-45.0166
-44.8886
-44.7985
-44.77
-44.6825
-44.5579
-44.4835
-44.4143
-44.5002
-44.4273
-44.3687
-46.0075
-45.7095
-45.6038
-45.589
-45.5131
-45.3298
-45.273
-45.0877
-44.9094
-44.8437
-44.8429
-44.7053
-44.8648
-46.9682
-46.6101
-46.5813
-46.3571
-46.182
-46.315
-46.1142
-45.9299
-45.7461
-45.5393
-45.6074
-45.4582
-45.3558
-45.1956
-48.1423
-47.739
-47.8073
-47.7366
-47.5731
-47.1665
-47.2736
-47.0705
-46.8497
-46.6197
-46.4448
-46.1698
-46.0676
-45.9748
-46.0169
-50.1016
-49.8163
-49.7603
-49.482
-49.1968
-48.8992
-48.928
-48.637
-48.3937
-47.9915
-47.5403
-47.3487
-47.1294
-47.027
-46.7233
-46.8626
-52.67
-52.6137
-52.3093
-51.9608
-51.5637
-51.1383
-50.7979
-50.6166
-50.1035
-49.8096
-49.4957
-48.9254
-48.5651
-48.1903
-48.0333
-48.0184
-48.0877
-55.3962
-55.6888
-55.5556
-55.3785
-54.6745
-54.2795
-54.0007
-53.6049
-52.5509
-52.4347
-51.6403
-51.1094
-50.7967
-50.241
-50.0576
-49.9712
-49.6594
-49.6961
-58.2188
-58.9406
-59.5064
-59.4168
-59.2879
-58.8118
-57.4056
-56.8776
-56.3903
-55.9148
-55.3933
-54.5963
-54.1261
-53.2091
-52.4537
-52.1726
-51.7841
-51.8596
-50.8998
-60.7332
-61.4829
-62.3926
-63.0308
-62.132
-61.564
-61.7307
-61.0342
-60.2953
-59.743
-59.1721
-58.8983
-58.1269
-57.931
-57.2761
-56.8687
-56.4236
-55.9629
-56.2181
-55.2052
-62.45
-64.2052
-64.9711
-66.1245
-66.6334
-64.8025
-63.6054
-63.4811
-63.4077
-63.115
-62.6621
-62.2839
-61.9194
-61.2963
-61.0222
-61.0517
-60.9271
-61.1191
-59.7526
-60.7799
-57.9093
-63.8601
-65.6678
-66.5892
-66.8049
-67.9209
-66.7476
-65.4121
-65.2748
-64.9792
-64.9658
-65.2351
-65.1582
-64.9243
-64.7683
-64.3266
-63.7199
-63.5981
-64.2657
-65.6434
-65.9038
-66.1342
-61.3781
-69.1051
-66.635
-67.5542
-67.4821
-66.4766
-66.5528
-66.857
-66.2305
-65.779
-65.7409
-65.5124
-65.6182
-65.7089
-65.6032
-65.8933
-65.4838
-64.245
-63.8772
-64.743
-66.0763
-68.3905
-69.8479
-71.7247
-69.8008
-69.0285
-69.0939
-65.6588
-66.4283
-66.4331
-65.5998
-65.0071
-65.1344
-65.7606
-65.9428
-65.3099
-65.6528
-65.5548
-65.7803
-66.0464
-66.0075
-65.7249
-65.2623
-64.708
-64.4632
-64.8387
-65.6562
-68.1432
-68.939
-69.139
-42.1424
-42.2212
-42.2303
-42.3662
-42.3356
-42.3791
-42.4716
-42.4425
-42.4541
-42.4468
-42.6659
-42.5381
-42.5592
-42.5801
-42.604
-42.7606
-42.7408
-42.726
-42.7161
-42.7572
-42.7152
-43.0108
-42.9012
-42.8986
-42.9102
-42.8938
-42.8671
-42.8808
-43.1789
-43.1749
-43.1739
-43.0794
-43.1095
-43.1118
-43.1301
-43.1618
-43.36
-43.3739
-43.3364
-43.2487
-43.2904
-43.279
-43.2791
-43.3353
-43.1775
-43.7835
-43.6638
-43.6322
-43.5731
-43.5565
-43.5382
-43.5201
-43.4198
-43.4117
-43.4478
-44.2041
-44.0685
-43.9661
-43.8826
-43.8179
-43.8058
-43.7933
-43.7128
-43.697
-43.5538
-43.7123
-44.5551
-44.5339
-44.4511
-44.3683
-44.3095
-44.2168
-44.1723
-44.0778
-43.9953
-43.9043
-43.8241
-43.902
-45.3442
-45.1464
-44.9688
-44.9207
-44.8785
-44.7096
-44.7079
-44.5411
-44.4567
-44.461
-44.4003
-44.3978
-44.3569
-46.0706
-45.8392
-45.7056
-45.6409
-45.5155
-45.558
-45.312
-45.2131
-45.0869
-44.9087
-44.8291
-44.8528
-44.7973
-44.835
-47.0944
-46.8962
-46.7468
-46.5937
-46.4764
-46.297
-46.2213
-46.1081
-45.9366
-45.6984
-45.6005
-45.4767
-45.4172
-45.3471
-45.3531
-48.4116
-48.0212
-48.1245
-47.6474
-47.6995
-47.4153
-47.4125
-47.19
-47.0677
-46.7595
-46.5719
-46.2953
-46.2302
-46.1215
-46.0283
-46.0847
-50.1227
-50.1179
-49.8768
-49.6905
-49.4166
-49.161
-48.8351
-48.5499
-48.5712
-48.261
-47.778
-47.4646
-47.3178
-46.967
-46.7714
-46.918
-46.7634
-52.5289
-52.6936
-52.5094
-52.2437
-51.6886
-51.3997
-50.9144
-50.8929
-50.1507
-50.1335
-49.813
-49.3407
-48.8744
-48.4783
-48.1584
-48.0126
-48.1493
-48.3643
-55.1673
-55.5615
-55.7466
-55.6727
-55.2196
-54.6526
-54.1507
-53.8526
-53.3708
-52.5517
-52.2714
-51.3918
-51.1675
-50.7556
-50.319
-50.1628
-50.0372
-49.9133
-49.9145
-57.6973
-58.532
-58.9675
-59.6951
-59.6366
-59.3915
-58.1838
-56.9477
-56.8014
-56.0612
-55.6956
-55.0362
-54.2094
-53.9015
-53.1989
-52.5185
-52.2013
-51.9407
-51.3856
-50.9543
-60.1229
-60.7309
-61.6552
-62.5976
-62.7458
-61.7286
-61.5303
-61.3733
-60.7348
-60.0028
-59.2732
-58.938
-58.5181
-57.7657
-57.772
-57.3201
-56.8947
-56.3245
-55.8988
-55.8839
-55.3964
-62.2378
-62.6325
-64.2781
-64.9854
-66.0342
-66.3238
-64.3331
-63.557
-63.2881
-63.0819
-62.8778
-62.4435
-62.0912
-61.6154
-61.0126
-60.874
-61.0557
-60.648
-60.7773
-60.0583
-60.7829
-57.9539
-61.8363
-63.6617
-64.011
-65.7662
-66.5838
-66.8589
-67.9362
-66.5446
-65.0497
-65.0645
-64.7437
-64.8667
-65.1462
-65.0046
-64.8083
-64.5341
-64.101
-63.5346
-63.5634
-64.2587
-65.4825
-65.9211
-66.0176
-61.4742
-70.809
-69.5063
-66.5558
-66.6804
-67.5554
-67.4982
-66.4721
-66.5656
-66.844
-66.1564
-65.6811
-65.6735
-65.4231
-65.5847
-65.6586
-65.5684
-65.8842
-65.4382
-64.1576
-63.8618
-64.7459
-66.2094
-68.4831
-69.9052
-71.4059
-68.9236
-69.0855
-64.5143
-65.6641
-66.4454
-66.4334
-65.5914
-65.0163
-65.1656
-65.7774
-65.9659
-65.2531
-65.5913
-65.5055
-65.7538
-66.0321
-65.9842
-65.7143
-65.2318
-64.6919
-64.4812
-64.8672
-65.7151
-68.14
-68.9308
-42.1119
-42.1448
-42.2558
-42.2267
-42.2383
-42.4136
-42.3576
-42.3481
-42.3763
-42.472
-42.4087
-42.5616
-42.4442
-42.4754
-42.7127
-42.6298
-42.541
-42.5978
-42.6018
-42.6101
-42.8733
-42.7649
-42.7344
-42.7536
-42.7633
-42.7742
-42.7366
-43.0033
-42.9831
-42.9403
-42.8632
-42.8735
-42.8789
-42.8609
-42.8915
-43.223
-43.1827
-43.216
-43.0961
-43.1036
-43.1215
-43.1448
-43.1594
-43.1995
-43.514
-43.4012
-43.3821
-43.2417
-43.3215
-43.2874
-43.2838
-43.3324
-43.2336
-43.1948
-43.9215
-43.7827
-43.639
-43.618
-43.594
-43.5569
-43.5434
-43.5046
-43.3826
-43.4473
-43.4866
-44.2467
-44.1451
-44.1006
-43.9357
-43.8726
-43.8849
-43.8558
-43.7815
-43.735
-43.6675
-43.6152
-43.7232
-44.898
-44.6061
-44.6196
-44.4897
-44.3691
-44.2742
-44.2366
-44.1199
-44.0771
-44.042
-43.9872
-43.8516
-43.8136
-45.5177
-45.3553
-45.1131
-45.0834
-45.0087
-44.8748
-44.7247
-44.6574
-44.5698
-44.3975
-44.4091
-44.3438
-44.361
-44.3662
-46.3287
-46.0676
-45.8159
-45.737
-45.6878
-45.5218
-45.4988
-45.3262
-45.1863
-44.9872
-44.9033
-44.8782
-44.8409
-44.8483
-44.754
-47.2489
-47.0702
-46.9281
-46.6694
-46.7038
-46.4664
-46.3002
-46.255
-46.1307
-45.9103
-45.6733
-45.5268
-45.3288
-45.456
-45.4386
-45.4676
-48.6144
-48.4578
-48.1922
-48.1788
-47.7721
-47.6918
-47.5332
-47.2918
-47.1618
-46.9861
-46.6993
-46.4848
-46.322
-46.1719
-46.0429
-45.9841
-46.1724
-50.3271
-50.2586
-50.2783
-49.9069
-49.5753
-49.2909
-49.2218
-49.1918
-48.8157
-48.2365
-48.1991
-47.8096
-47.5675
-47.2816
-47.0397
-46.9529
-47.077
-47.0699
-52.574
-52.7243
-52.6733
-52.5014
-51.9453
-51.6086
-51.3215
-51.1647
-50.5466
-50.2534
-49.9808
-49.5294
-49.2691
-48.8709
-48.4517
-48.1741
-48.2276
-48.4035
-48.3495
-54.9145
-55.4177
-55.562
-55.8084
-55.6145
-55.5021
-54.4622
-54.2505
-53.6518
-52.7923
-52.569
-52.0108
-51.0324
-50.9064
-50.3967
-50.4054
-50.2073
-50.1463
-50.2375
-49.8854
-57.0276
-57.8005
-58.6419
-59.4002
-59.7964
-59.3075
-59.1082
-57.5149
-57.1009
-56.3785
-56.0795
-55.3149
-54.727
-54.2356
-53.6138
-53.061
-52.5907
-52.3773
-52.1323
-51.5652
-51.253
-59.5452
-59.9068
-60.883
-61.7747
-62.5921
-62.5603
-61.565
-61.2898
-60.8554
-60.4283
-59.7089
-59.0053
-58.704
-58.1242
-57.7757
-57.2474
-57.0755
-56.6882
-56.2325
-55.9715
-55.9536
-55.3403
-58.2829
-61.5225
-62.284
-62.8751
-64.2359
-65.0198
-65.6687
-65.8731
-63.8822
-63.3689
-63.0579
-62.7299
-62.6853
-62.1819
-61.9102
-61.3511
-60.7555
-60.4927
-60.7837
-60.6314
-60.6363
-60.2363
-60.6549
-58.0852
-65.6938
-61.6456
-62.2292
-63.9137
-64.0989
-65.8169
-66.5321
-66.9719
-67.8213
-66.2254
-64.8007
-64.8951
-64.5334
-64.7463
-64.9805
-64.8799
-64.6533
-64.3058
-63.8389
-63.469
-63.5502
-64.1873
-65.4531
-66.0842
-65.8726
-70.3545
-71.1011
-64.5755
-66.5463
-66.7075
-67.5334
-67.4806
-66.4549
-66.5734
-66.8204
-66.0114
-65.6204
-65.6107
-65.3425
-65.5374
-65.6104
-65.5176
-65.8758
-65.3294
-64.0727
-63.8318
-64.7384
-66.2624
-68.5989
-70.0244
-68.0469
-68.9253
-64.512
-63.3342
-65.6634
-66.4547
-66.4287
-65.5831
-65.0173
-65.1839
-65.7827
-65.9668
-65.196
-65.537
-65.4642
-65.7285
-66.017
-65.9586
-65.7046
-65.2012
-64.6777
-64.5012
-64.8957
-65.8239
-68.118
-42.1335
-42.1309
-42.1379
-42.2741
-42.2623
-42.2233
-42.2606
-42.4174
-42.3419
-42.362
-42.3779
-42.3959
-42.5389
-42.5543
-42.6369