/*--------------------------------*- C++ -*----------------------------------*\
  =========                 |
  \\      /  F ield         | OpenFOAM: The Open Source CFD Toolbox
   \\    /   O peration     | Website:  https://openfoam.org
    \\  /    A nd           | Version:  7
     \\/     M anipulation  |
\*---------------------------------------------------------------------------*/
FoamFile
{
    version     2.0;
    format      ascii;
    class       surfaceScalarField;
    location    "7.5";
    object      phi_0;
}
// * * * * * * * * * * * * * * * * * * * * * * * * * * * * * * * * * * * * * //

dimensions      [0 3 -1 0 0 0 0];

internalField   nonuniform List<scalar> 
54125
(
-0.000185986
2.20521e-05
-0.00188393
-0.000119346
0.000144549
-0.00243941
-0.000152214
2.64881e-05
-0.00212279
-0.000181887
2.11968e-05
-0.00172324
0.000545679
0.000312282
-0.0059919
-0.000132548
0.000327204
-0.00352163
-0.000110172
0.000179803
-0.00269093
-3.96128e-05
7.52056e-06
-0.00266877
-0.000146475
2.80316e-05
-0.00198314
-0.000166402
1.87486e-05
-0.00157559
0.000945839
-2.12198e-05
-0.00499279
0.000336322
0.000459384
-0.00549479
0.000475225
0.000354299
-0.00693159
-7.7227e-05
0.000369812
-0.00408279
-0.000146322
0.000323561
-0.00366554
-6.83748e-05
0.000246868
-0.00303582
-4.93698e-05
-1.36682e-07
-0.00204695
-4.321e-05
6.18183e-06
-0.00260371
-0.000138835
2.13801e-05
-0.00184694
-0.000148308
1.97521e-05
-0.00144703
0.00108257
-7.19291e-05
-0.00531634
4.46385e-05
0.000406147
-0.00696488
0.000901417
0.000168844
-0.00558783
0.000149976
0.000531449
-0.0058113
0.000217977
0.00040613
-0.00591092
0.000310253
0.000302574
-0.00761279
-7.04059e-05
0.000315994
-0.00369551
-0.000146147
0.000353907
-0.0040102
-0.000156448
0.000336012
-0.00373707
-1.68846e-05
0.000338692
-0.00350594
-3.66379e-05
-1.21048e-05
-0.000758698
-6.58485e-05
-2.89143e-06
-0.00197203
-6.72393e-05
3.43941e-06
-0.00251853
-0.000133118
2.52395e-05
-0.00171931
-0.000142944
2.15649e-05
-0.00132565
0.000575072
0.000305634
-0.00501307
-0.000447842
0.000438233
-0.00671741
0.000586023
2.06853e-05
-0.00502163
0.000267667
0.000651156
-0.00610073
-0.000124136
0.000402574
-0.0068565
0.000916462
0.000246926
-0.00644096
0.000310783
0.00034578
-0.00402917
-3.62864e-07
0.000505363
-0.00605632
7.08012e-05
0.000380721
-0.00621632
0.000169235
0.000222594
-0.00802151
6.78535e-05
0.00021938
-0.00256044
-5.1085e-05
0.000310862
-0.00366723
-0.000188262
0.000333555
-0.00388672
-0.000201047
0.000348962
-0.00367941
-4.52039e-05
0.000339741
-0.00394342
-7.2926e-06
-1.04086e-05
-0.000459938
-4.53403e-05
-1.00029e-05
-0.000706247
-7.3612e-05
6.61795e-07
-0.00189564
-7.3984e-05
5.21781e-06
-0.00242453
-0.000149839
1.88651e-05
-0.00156677
-0.000151131
2.32192e-05
-0.00119774
-0.000650095
0.000684248
-0.00426145
-0.000762576
0.00073584
-0.00542067
2.7696e-07
0.000504407
-0.00493173
-0.000214142
0.000965388
-0.00663711
-0.000699664
0.000484489
-0.00660568
0.0009867
0.000280214
-0.00537208
0.000528241
0.000716241
-0.00568111
-7.06861e-05
0.000726746
-0.00635458
-0.000266297
0.000483603
-0.00675608
0.000217326
0.000286026
-0.00677508
0.000324952
6.60781e-05
-0.00188275
0.000178017
0.00041169
-0.0041646
-0.00011914
0.000470605
-0.00621532
-8.01291e-05
0.000280335
-0.00639498
-0.000181004
0.000316577
-0.00820228
9.36357e-05
0.000109122
-0.00124926
1.27988e-05
0.000213932
-0.00252165
-6.8961e-05
0.000290531
-0.00362886
-0.000185223
0.000319074
-0.00374559
-0.000243683
0.000337955
-0.00358378
-0.000100477
0.000302176
-0.00429625
-2.84174e-06
-1.8087e-05
-0.000880965
-6.08872e-06
-1.07807e-05
-0.000453071
-5.20316e-05
-8.28403e-06
-0.000645269
-8.29163e-05
1.66778e-06
-0.00180918
-8.52309e-05
1.47475e-06
-0.0023219
-0.000146274
1.53836e-05
-0.00141266
-0.000152299
2.3868e-05
-0.00106931
-0.00125216
0.000368357
-0.00399013
-0.000976962
0.000784328
-0.00529021
-0.000808222
0.000698414
-0.00415137
-0.000698674
0.000855074
-0.00572339
-0.000900144
0.000780398
-0.00549619
8.48228e-05
0.000468753
-0.00449861
-0.000137563
0.00137745
-0.00677478
-0.000471181
0.000860553
-0.00661268
-0.000740937
0.000433446
-0.00628428
6.99039e-05
8.12169e-05
-0.00530588
0.000805253
0.000579925
-0.00322807
6.51854e-05
0.00079592
-0.00563745
-0.000196312
0.000674317
-0.00646812
-0.000393987
0.000472922
-0.00662912
-2.15403e-05
0.000279241
-0.00721379
-0.000112121
0.000156078
-0.000997788
0.000317869
0.000116065
-0.0018922
5.44508e-05
0.000415258
-0.00423266
-0.000136123
0.000369351
-0.00635344
-0.000193875
0.000378018
-0.00650623
-0.000243801
0.000336985
-0.00839595
3.32003e-06
-9.29208e-06
-0.00108081
9.42708e-05
0.000110688
-0.00124638
-2.24665e-05
0.00019945
-0.00246013
-7.15473e-05
0.00027021
-0.00359136
-0.000235936
0.000307297
-0.00356423
-0.000280421
0.000324946
-0.0034724
-0.000111487
0.000271517
-0.00460858
3.38752e-05
-3.72848e-05
-0.000398141
-5.07491e-06
-2.0067e-05
-0.000866603
-7.5221e-06
-1.06277e-05
-0.000443206
-5.84921e-05
-6.98915e-06
-0.00057812
-9.44887e-05
1.71486e-06
-0.00171493
-8.71726e-05
4.17585e-08
-0.00221939
-0.000140416
1.19661e-05
-0.00126035
-0.000140125
2.25711e-05
-0.000951754
-0.00165246
0.000310222
-0.00360591
-0.00102967
0.000488488
-0.00531442
-0.00135972
0.000377976
-0.00381661
-0.000782364
0.000759267
-0.00579415
-0.00102001
0.000764887
-0.00523682
-0.00091899
0.000655203
-0.00380276
-0.000682903
0.00123449
-0.00653092
-0.000747833
0.000896665
-0.00556301
-0.000945449
0.000708522
-0.00553144
-0.000269625
0.000448051
-0.00460713
0.000615
0.00144142
-0.00627781
-0.0005078
0.00130351
-0.00664475
-0.000523834
0.000557465
-0.00640918
-0.000819915
0.000466135
-0.00624327
8.59357e-05
0.000212092
-0.00562545
0.000123512
0.000658945
-0.00158651
0.000821856
0.000744303
-0.00368044
-0.000148188
0.000755467
-0.00551596
-0.000364982
0.000559449
-0.00632579
-0.000531052
0.000503694
-0.00651639
-0.00035839
0.000242178
-0.00734137
-0.000249437
0.000334562
-0.00158754
-0.000112558
0.000209376
-0.000884269
0.000234593
0.000135167
-0.00186917
7.68406e-05
0.000357498
-0.0043692
-0.00026862
0.000332924
-0.00627566
-0.000317411
0.00041301
-0.00654526
-0.000227866
0.000308882
-0.00858845
7.839e-05
-6.53499e-05
-0.000387974
-1.36416e-05
1.29155e-05
-0.00097447
8.08172e-05
0.000104663
-0.00123993
-3.97242e-05
0.000187201
-0.00239589
-9.12833e-05
0.000250445
-0.00353772
-0.000248958
0.000301793
-0.00337929
-0.000278645
0.00030044
-0.00336309
-9.98503e-05
0.000244542
-0.00489339
3.06485e-05
-5.11544e-05
-6.71389e-06
3.49282e-05
-3.96495e-05
-0.000413487
-8.48152e-06
-2.12574e-05
-0.000847492
-1.59096e-05
-1.07403e-05
-0.000423545
-6.46892e-05
-6.42077e-06
-0.000505296
-0.000102827
3.25153e-06
-0.00161531
-9.40401e-05
-1.06428e-06
-0.00211232
-0.0001434
8.43063e-06
-0.0011028
-0.000109112
2.16648e-05
-0.000864308
-0.00187318
0.000149734
-0.00322893
-0.00116244
0.000395684
-0.00450673
-0.00165787
0.000281963
-0.00358972
-0.000839447
0.000658112
-0.00562595
-0.00112773
0.000459084
-0.0052878
-0.00129333
0.00034415
-0.00378642
-0.00084203
0.000896935
-0.00596118
-0.000911916
0.000982186
-0.00584736
-0.00111168
0.000772904
-0.00518829
-0.000973801
0.000536192
-0.00363478
0.000174219
0.00172285
-0.00646188
-0.000500488
0.00119833
-0.0068399
-0.000723837
0.000819482
-0.00547396
-0.000957073
0.000692473
-0.00563871
-0.000852171
0.000503089
-0.00417211
0.00087312
0.00147559
-0.00667037
0.000564932
0.00146808
-0.00618545
-0.000519213
0.000969104
-0.00668536
-0.00076314
0.000625613
-0.0061705
-0.000879208
0.00042045
-0.00610347
-0.000362849
0.000229056
-0.00585004
-0.000143659
0.000822332
-0.00266958
7.49622e-05
0.000926915
-0.00195664
0.000600314
0.000900406
-0.0041911
-0.000120855
0.000702309
-0.00546112
-0.000470827
0.000528433
-0.00614832
-0.000608377
0.000382979
-0.00636623
-0.000693503
0.00025924
-0.00713498
0.00022877
0.00036495
-0.00209933
-0.00012692
0.000368289
-0.00163317
-4.13762e-05
0.000223059
-0.000849968
0.000112293
0.000161943
-0.00182563
8.62029e-05
0.000302384
-0.00451615
-0.000391602
0.000312662
-0.00603267
-0.000415157
0.000389657
-0.00648953
-0.000261428
0.000332084
-0.00875896
-1.134e-05
3.88653e-05
-0.000368111
5.43089e-05
-5.20143e-05
-0.000342425
-3.34879e-05
3.04252e-05
-0.000875226
1.53201e-05
0.00010501
-0.00118897
-6.58813e-05
0.000179712
-0.00232396
-0.000126901
0.000237621
-0.00344947
-0.000273488
0.000289783
-0.00318919
-0.00029632
0.000272564
-0.0032382
-0.000108048
0.000205966
-0.00510042
-2.49154e-05
-5.42676e-05
-5.48952e-05
2.99898e-05
-5.38167e-05
-2.25365e-05
3.55792e-05
-4.15431e-05
-0.00042878
-8.93246e-06
-2.18033e-05
-0.000827497
-2.68061e-05
-1.2045e-05
-0.000391115
-7.03599e-05
-5.55282e-06
-0.000426131
-0.000110195
5.07025e-06
-0.00151125
-0.000100724
-2.10505e-06
-0.00200106
-0.000135553
5.24725e-06
-0.000950834
-0.000125459
2.09975e-05
-0.000759846
-0.00184041
8.40509e-05
-0.00307004
-0.00137679
0.000251125
-0.00416985
-0.0018039
0.000149672
-0.00323258
-0.00103101
0.000430643
-0.00501068
-0.00127821
0.00042931
-0.00450359
-0.00156803
0.000281116
-0.00359615
-0.000806978
0.000675709
-0.0057588
-0.000974841
0.000590474
-0.00569441
-0.00116087
0.000456687
-0.00535116
-0.00135703
0.000263506
-0.00366669
-0.000287105
0.00134553
-0.00628642
-0.000484081
0.00117596
-0.00617136
-0.000838944
0.00071216
-0.00567151
-0.00110327
0.000673941
-0.00517983
-0.00132853
0.000429836
-0.00358825
0.000789618
0.00192683
-0.00659123
0.000323382
0.00136456
-0.00638656
-0.000843131
0.00104207
-0.00673857
-0.000885831
0.000795829
-0.00545463
-0.00106848
0.000703589
-0.00564994
-0.000995192
0.000387925
-0.00392769
0.000717479
0.00126469
-0.00677679
0.000340577
0.00150126
-0.00696917
0.00028486
0.00135563
-0.00625652
-0.000538546
0.000863327
-0.00650538
-0.000727298
0.000638308
-0.00613189
-0.000918064
0.000417872
-0.0059826
-0.000969384
0.00030601
-0.00588017
0.000439393
0.000735943
-0.00395808
3.238e-06
0.000936988
-0.00280981
0.000182833
0.00117446
-0.00245491
0.00033058
0.00100413
-0.00471121
-9.69488e-05
0.000708976
-0.00545852
-0.000619219
0.000501976
-0.0060397
-0.000664429
0.000358297
-0.00621601
-0.000877333
0.000267918
-0.00678699
0.000233067
0.000325886
-0.00224541
0.00021296
0.000359573
-0.00224927
0.000132769
0.000362229
-0.0019386
1.24697e-05
0.000254103
-0.000939278
-2.16903e-05
0.000216865
-0.0017843
2.6009e-05
0.000253926
-0.00461032
-0.000352329
0.000288104
-0.00585227
-0.000437227
0.000412751
-0.00642929
-0.000424226
0.000356396
-0.00879917
-3.51243e-05
7.74176e-05
-0.000876574
-1.09797e-05
5.2661e-05
-0.000431817
2.90116e-05
-3.78502e-05
-0.000267582
-7.99027e-05
4.62944e-05
-0.00074554
-7.20947e-05
0.00011301
-0.00107698
-9.53181e-05
0.000181605
-0.00224299
-0.000173579
0.000237305
-0.00333361
-0.000298514
0.000272361
-0.0029912
-0.000302643
0.000259422
-0.00312456
-0.000219799
0.000219847
-0.00522593
-1.74349e-05
-4.66645e-05
-0.000188801
-2.15712e-05
-5.47944e-05
-3.23463e-05
3.02188e-05
-5.32473e-05
-4.10511e-05
3.59379e-05
-4.28305e-05
-0.000443691
-3.93791e-06
-2.27123e-05
-0.000812892
-3.8759e-05
-1.20227e-05
-0.000345886
-7.49543e-05
-4.6021e-06
-0.000341505
-0.000119505
6.73194e-06
-0.00140058
-0.000105083
-6.68071e-06
-0.00188405
-0.000128111
1.69458e-06
-0.00080342
-0.000110713
1.93041e-05
-0.000668437
-0.00182793
6.37424e-05
-0.00312653
-0.00159424
9.49254e-05
-0.00371711
-0.00174865
6.02882e-05
-0.00318558
-0.00112955
0.000355478
-0.00452037
-0.00148485
0.000264531
-0.00407807
-0.00178061
0.000139949
-0.00315994
-0.00089122
0.000527189
-0.00539873
-0.00113432
0.000484369
-0.00490626
-0.00126279
0.000370096
-0.00449065
-0.00166966
0.000207953
-0.00349147
-0.000526721
0.000841071
-0.00598867
-0.000882882
0.000710587
-0.00548011
-0.00107801
0.000621257
-0.00561992
-0.00124437
0.000439113
-0.00538566
-0.00152034
0.00025871
-0.00373359
9.18127e-05
0.00169152
-0.00614839
-0.000106918
0.00141472
-0.00609488
-0.000949026
0.000784009
-0.00613731
-0.000875507
0.000749112
-0.00575701
-0.00102509
0.000650028
-0.00544342
-0.00137732
0.000336874
-0.003543
0.000871004
0.00164368
-0.00677971
0.000206694
0.00152038
-0.00661318
1.59921e-05
0.00128514
-0.00636075
-0.000799242
0.000989272
-0.00667132
-0.000686986
0.000799747
-0.0055911
-0.00102811
0.000576489
-0.00572845
-0.00124917
0.000385491
-0.0040334
0.000716635
0.00088631
-0.0063641
0.000641115
0.00132752
-0.00724092
0.000401806
0.00142064
-0.00725316
0.000122085
0.00111549
-0.00630019
-0.000570689
0.000854792
-0.00624813
-0.000778226
0.000645312
-0.00620032
-0.00068362
0.000422711
-0.00608011
-0.00137463
0.000236677
-0.00561955
0.000575981
0.00043345
-0.00454653
0.000427294
0.000759315
-0.00399474
0.000487084
0.00106508
-0.00305474
0.000405501
0.00120563
-0.00304944
7.57209e-05
0.00104605
-0.0051457
-0.000160104
0.000676674
-0.0054471
-0.000481366
0.00050615
-0.00605852
-0.000719188
0.000377271
-0.00604341
-0.00100102
0.000298471
-0.00650867
4.53549e-05
0.000227864
-0.00202486
0.00018078
0.000283596
-0.00236119
0.000252289
0.000323943
-0.00243426
0.000200246
0.000332281
-0.00229692
-4.29924e-06
0.000341871
-0.00113208
-9.80202e-05
0.000278997
-0.00180667
-5.63928e-05
0.000235498
-0.0046749
-0.000346583
0.00027291
-0.00566436
-0.000472209
0.000435637
-0.00633896
-0.000543539
0.000350214
-0.00882565
-8.34687e-05
-3.01913e-05
-0.00111689
-2.48676e-05
9.46245e-05
-0.000915241
-2.97103e-06
5.00421e-05
-0.00048652
2.94333e-05
-2.53761e-05
-0.000189406
-7.6053e-05
5.95283e-05
-0.000619943
-0.000137186
0.000125229
-0.00092218
-0.000114176
0.000190931
-0.00215739
-0.000212501
0.000238764
-0.00320701
-0.000315761
0.000266425
-0.00278752
-0.000331168
0.000255649
-0.00295731
-0.000190975
0.000191257
-0.00533693
2.51614e-05
-3.48825e-05
0.000590539
-2.10791e-05
-4.76877e-05
-0.000174829
-1.37682e-05
-5.27662e-05
-1.90593e-05
2.84714e-05
-5.38135e-05
-5.85395e-05
3.52688e-05
-4.33912e-05
-0.000458281
-2.82787e-06
-2.18852e-05
-0.000800201
-4.5858e-05
-1.19883e-05
-0.000292642
-7.88964e-05
-3.20244e-06
-0.000252674
-0.00012322
5.24811e-06
-0.00128929
-0.000105279
-9.86003e-06
-0.00176722
-0.000121375
-2.19363e-06
-0.000660548
-9.83716e-05
1.75089e-05
-0.000587574
-0.00173045
-0.000101354
-0.00266478
-0.0014048
1.38312e-05
-0.00358176
-0.00185154
9.28765e-05
-0.00311652
-0.00112863
0.000109892
-0.00415549
-0.00149301
9.40651e-05
-0.00374272
-0.00175976
4.70643e-05
-0.00325349
-0.000850449
0.000392125
-0.00500401
-0.00119654
0.000318767
-0.00451239
-0.00150114
0.000299484
-0.00399926
-0.00184022
0.000146338
-0.00313572
-0.000526226
0.000565405
-0.00552741
-0.000843226
0.000483791
-0.00543781
-0.00124039
0.000465602
-0.00483938
-0.00133956
0.000324674
-0.00451218
-0.00168626
0.00019576
-0.00352131
-0.00034016
0.00108839
-0.00613258
-0.000586007
0.000912502
-0.0057115
-0.000921697
0.00070425
-0.00559043
-0.0010159
0.000645024
-0.00568543
-0.00103156
0.000436881
-0.00555736
-0.00147609
0.000202676
-0.0038375
0.00071007
0.00167269
-0.00660384
0.000148918
0.00155231
-0.00622821
-0.000271604
0.00122258
-0.00624585
-0.000733833
0.00078616
-0.00623977
-0.000759873
0.000725441
-0.00575953
-0.000954366
0.000589801
-0.00577009
-0.00142587
0.000185415
-0.00355172
0.000723095
0.00148133
-0.00688563
0.000760058
0.00162696
-0.00700523
0.00048945
0.00141593
-0.00683161
3.23445e-05
0.00118944
-0.00647118
-0.000785935
0.000960872
-0.0066172
-0.000770689
0.000775814
-0.00579796
-0.00066028
0.000588889
-0.00595519
-0.00157029
0.00032446
-0.0041622
0.000818808
0.000647954
-0.00617809
0.000577097
0.00107668
-0.00626307
0.000384363
0.00124813
-0.00696569
0.000419998
0.00126275
-0.00741491
7.07653e-05
0.00098837
-0.00642881
-0.000424154
0.000861072
-0.00619984
-0.000654276
0.000634193
-0.00623889
-0.000717668
0.000403315
-0.00624827
-0.00150612
0.000237899
-0.00535235
0.000343537
0.00026223
-0.00434436
0.000561141
0.000564433
-0.00473201
0.000614258
0.000766426
-0.00405805
0.000774492
0.00107625
-0.00349961
0.000407653
0.0012012
-0.00361654
-2.12299e-05
0.000973242
-0.00551905
-0.000156636
0.000632056
-0.00547276
-0.000445294
0.000521163
-0.0061037
-0.000664154
0.000400157
-0.00595315
-0.00104004
0.000362205
-0.00637437
-0.000178684
7.45901e-05
-0.00167512
0.000197422
0.000200467
-0.00216402
0.000150692
0.000236584
-0.00242749
0.00028841
0.000264216
-0.00262517
0.000201704
0.000336578
-0.00256939
-0.000116927
0.000445407
-0.00131875
-0.000168936
0.000357048
-0.00187346
-0.000127888
0.00023634
-0.00472294
-0.000330342
0.000240262
-0.00545441
-0.00050559
0.000407389
-0.00622172
-0.000563265
0.000349269
-0.00880263
6.82355e-05
-0.000116763
-0.00121971
-9.72265e-05
-8.49976e-06
-0.00093762
-1.21959e-05
9.19018e-05
-0.000958673
2.07623e-05
4.21466e-05
-0.000546333
9.4587e-05
-1.37593e-05
-0.000175437
-4.53124e-05
6.71067e-05
-0.000519336
-0.000160468
0.000135046
-0.000751685
-0.000102055
0.000202386
-0.00209786
-0.000233753
0.000238882
-0.00306894
-0.000344738
0.000269042
-0.00256145
-0.000329768
0.000243915
-0.00280157
-0.000174796
0.000176801
-0.0054373
4.47905e-05
-4.14507e-05
0.00106618
1.5259e-05
-3.79958e-05
0.000565588
-2.33137e-05
-4.93549e-05
-0.000154927
-4.67329e-06
-5.3021e-05
-1.51786e-05
2.5325e-05
-5.48366e-05
-7.2419e-05
3.34401e-05
-4.31726e-05
-0.000470434
3.03571e-06
-2.07989e-05
-0.000794426
-4.61618e-05
-1.18916e-05
-0.000237791
-8.53534e-05
-2.48898e-06
-0.000159583
-0.000120091
5.29871e-06
-0.00118436
-0.000105956
-1.27146e-05
-0.00165074
-0.000109495
-5.45746e-06
-0.000528086
-8.18676e-05
1.55923e-05
-0.000521299
-0.0015622
2.14886e-05
-0.00321204
-0.00133865
-9.77713e-05
-0.00360354
-0.00170845
-0.000293601
-0.00251426
-0.00124511
-4.70425e-05
-0.00388405
-0.00144807
0.000129434
-0.00366327
-0.00202355
0.000135222
-0.00298795
-0.000934606
0.000163686
-0.00455581
-0.00133992
0.000156844
-0.00407489
-0.00149446
7.39162e-05
-0.00377624
-0.00188156
-1.2253e-05
-0.0031999
-0.000513913
0.000395054
-0.00504766
-0.000890131
0.000374976
-0.00501331
-0.00120001
0.00027401
-0.00452729
-0.00129942
0.000305831
-0.00419889
-0.00187569
0.000170705
-0.003117
-0.000386837
0.00068968
-0.00577891
-0.000633862
0.000503579
-0.00549934
-0.000902368
0.000487536
-0.00547907
-0.00113984
0.000401316
-0.00479209
-0.0011785
0.000384499
-0.00455398
-0.00158651
0.000117778
-0.00352866
0.000377937
0.00127041
-0.00626509
-0.000148335
0.00104373
-0.00596656
-0.000386622
0.000879514
-0.00577174
-0.000630122
0.00070941
-0.00575853
-0.00108782
0.00061706
-0.00553766
-0.00109186
0.000395789
-0.00561297
-0.00148727
0.000128096
-0.0039042
0.000505009
0.00170552
-0.00670289
0.000511597
0.00169426
-0.00649734
0.000628466
0.00146518
-0.00660983
-6.73427e-05
0.000916969
-0.00627697
-0.000635475
0.000766082
-0.00643087
-0.000744455
0.000677877
-0.00587384
-0.000715155
0.000437874
-0.00596767
-0.00156804
0.000278503
-0.00383247
0.0011094
0.00146154
-0.00679183
0.000919761
0.00147477
-0.0070761
0.000345917
0.00156539
-0.00711624
4.28471e-05
0.00137193
-0.00663695
-0.000133455
0.0011695
-0.00647559
-0.000625584
0.000945534
-0.00658549
-0.000651671
0.000733097
-0.00594477
-0.000680848
0.000551497
-0.00621905
-0.00163022
0.000253145
-0.00429124
0.000585905
0.000716898
-0.00623296
0.000862526
0.000769741
-0.00617253
0.000617048
0.00122038
-0.00623811
0.000510869
0.00125345
-0.00669277
0.000186978
0.00121692
-0.00742279
0.000114473
0.000914226
-0.00661767
-0.000322515
0.000800572
-0.00620034
-0.000627875
0.000620032
-0.00627303
-0.000564675
0.00039225
-0.0065021
-0.00151292
0.000258178
-0.00513765
6.36664e-05
0.000260229
-0.00342309
0.000474959
0.000403893
-0.00446136
0.000412715
0.000615214
-0.00484282
0.000667554
0.000825527
-0.00418647
0.000632955
0.00108955
-0.00381922
0.00028438
0.00117681
-0.00422142
-0.000122457
0.00084943
-0.00578291
-0.000185556
0.000656814
-0.00555075
-0.00039909
0.000468321
-0.00610311
-0.000596364
0.000429974
-0.00593014
-0.00110266
0.000391875
-0.00622685
-2.36339e-05
-9.29188e-05
-0.00209274
-0.000160315
0.000101349
-0.00151291
0.000186624
0.000207154
-0.00233341
0.000169514
0.00017261
-0.00248464
0.000373596
0.000221195
-0.0027888
0.000144036
0.000396875
-0.0027102
-0.000194169
0.000523942
-0.00145194
-0.000136465
0.000403529
-0.00200624
-0.000156886
0.000214314
-0.00477386
-0.000372642
0.000227189
-0.0052463
-0.000519906
0.000435365
-0.00611767
-0.000578947
0.000354798
-0.00875327
0.000233247
-0.000146821
-0.0010359
1.76918e-05
-9.41517e-05
-0.00113649
-8.51108e-05
8.79285e-06
-0.000792714
-2.16365e-06
9.03508e-05
-0.00100939
3.29329e-05
4.07346e-05
-0.000608435
9.97067e-05
-3.01074e-07
-0.000174296
-1.49744e-06
7.16281e-05
-0.000451385
-0.000126268
0.000139334
-0.000608526
-8.78338e-05
0.000204168
-0.00206066
-0.000237557
0.000240627
-0.00292306
-0.000346242
0.000262312
-0.00233957
-0.000290493
0.000236473
-0.00268025
-0.000174939
0.00016149
-0.00550572
1.97963e-05
-4.70163e-05
0.000506793
4.20099e-05
-4.27154e-05
0.00102889
5.7706e-06
-4.11444e-05
0.000551607
-2.23495e-05
-5.16514e-05
-0.000133947
1.57655e-06
-5.44519e-05
-1.71399e-05
2.03854e-05
-5.57412e-05
-8.02358e-05
3.16545e-05
-4.24461e-05
-0.000480441
5.4206e-06
-2.00725e-05
-0.000791666
-4.37455e-05
-1.15153e-05
-0.000185019
-9.19454e-05
-1.92712e-06
-6.04121e-05
-0.000115399
5.33178e-06
-0.00108701
-0.000105621
-1.68097e-05
-0.00153376
-9.46545e-05
-1.00673e-05
-0.000407772
-7.02261e-05
1.33952e-05
-0.000464468
-0.00165908
9.40301e-05
-0.00247426
-0.0014804
9.76201e-05
-0.00333728
-0.00149567
5.84795e-05
-0.0034833
-0.00149152
9.42441e-06
-0.00362666
-0.00137859
-0.000325602
-0.00364101
-0.00160299
-0.000405438
-0.00252939
-0.00104087
7.40871e-05
-0.00416847
-0.00137667
0.000108532
-0.0038264
-0.00134594
0.000130462
-0.00380703
-0.00201679
7.85535e-05
-0.00293127
-0.000629238
0.000267589
-0.00472164
-0.000974492
0.000178966
-0.00449357
-0.00116254
0.000169969
-0.00420841
-0.00126452
7.70893e-05
-0.00390048
-0.00186225
-2.9593e-05
-0.00318376
-0.000421472
0.000489424
-0.00529985
-0.000546048
0.000371737
-0.00513223
-0.000863451
0.000314762
-0.00509298
-0.00104546
0.000276476
-0.00459231
-0.001201
0.000257197
-0.00426288
-0.00185947
0.000175342
-0.00301938
0.000172973
0.00089439
-0.00569523
-0.000416792
0.000716114
-0.00572299
-0.000449708
0.00052875
-0.00547747
-0.000719443
0.000459467
-0.0054479
-0.00110038
0.000459955
-0.00485499
-0.00124838
0.000222709
-0.0045024
-0.00159461
0.000160636
-0.00358195
0.000445541
0.00137101
-0.00650764
0.000361304
0.00115835
-0.00622942
0.000385297
0.0010292
-0.00587308
-0.000169507
0.000781236
-0.00574141
-0.000700617
0.000681939
-0.00575827
-0.000877811
0.000589704
-0.00559822
-0.00105737
0.000352865
-0.00549553
-0.00150632
0.000104996
-0.00407091
0.000960324
0.00180577
-0.00657004
0.000864186
0.00167765
-0.00663071
0.000470798
0.00157721
-0.00673424
-0.000334623
0.00107042
-0.00638581
-0.000390383
0.00104225
-0.00629622
-0.000632564
0.000614099
-0.00636011
-0.000553915
0.000614727
-0.00614845
-0.000719661
0.000470156
-0.00612051
-0.00164337
0.000179902
-0.00399923
0.000505119
0.00163016
-0.00631251
0.000918147
0.00146972
-0.0068424
0.000568661
0.00150446
-0.00696679
0.000402954
0.00137422
-0.00701061
0.00036838
0.00127276
-0.00692162
0.00017465
0.0010461
-0.00663633
-0.000549839
0.00077617
-0.00640124
-0.000587452
0.000683051
-0.00611675
-0.000577809
0.000479969
-0.00643274
-0.00159425
0.000238027
-0.00444793
0.000268567
0.000856633
-0.00551417
0.000391942
0.00067346
-0.00605366
0.000612926
0.001059
-0.00621136
0.000610701
0.00120404
-0.00613184
0.000608544
0.00136543
-0.00681687
0.000115952
0.00101762
-0.00735776
0.000144507
0.000828699
-0.00691276
-0.000277769
0.000760419
-0.00624851
-0.000528993
0.000624162
-0.00637504
-0.000393393
0.000347917
-0.00679481
-0.00154467
0.000255121
-0.00495076
-4.75192e-05
0.000183487
-0.00280131
0.000138701
0.000331266
-0.00364948
0.000492935
0.000467507
-0.00461996
0.000415191
0.000618823
-0.00488179
0.000595928
0.000879124
-0.00419837
0.000477434
0.001127
-0.00410281
0.000209661
0.00103383
-0.00480964
-9.21555e-05
0.000783344
-0.00595375
-0.000247482
0.000634618
-0.00562645
-0.000363385
0.000494472
-0.00617687
-0.000623305
0.000420019
-0.00585489
-0.00110118
0.000371048
-0.00607567
0.000186729
-0.000266502
-0.00288358
-8.08259e-05
-4.7337e-05
-0.00184554
-0.000101869
0.000147884
-0.00143688
0.000124483
0.000133023
-0.00242046
0.000200519
0.000139839
-0.00257087
0.00030536
0.000218506
-0.00281608
9.98294e-05
0.000493768
-0.00278136
-0.000128819
0.000559306
-0.00160517
-6.62596e-05
0.000449765
-0.00226327
-0.00025268
0.000230431
-0.00476198
-0.0003603
0.000269363
-0.00506624
-0.000494377
0.000484703
-0.00604369
-0.000637283
0.000373841
-0.00866477
0.000200714
-0.00013994
-0.000435904
0.000189632
-0.00015061
-0.00112706
-2.3328e-05
-6.60444e-05
-0.00103255
-7.44343e-05
3.05642e-05
-0.000680843
-5.84079e-07
7.16588e-05
-0.00103815
8.10319e-05
4.40423e-05
-0.000713425
6.1115e-05
1.90042e-05
-0.000151132
2.5107e-05
7.29952e-05
-0.000404733
-6.42457e-05
0.000134365
-0.000518223
-8.02259e-05
0.000197367
-0.00202912
-0.0002256
0.000234632
-0.00278518
-0.000324886
0.000253222
-0.00213705
-0.000226125
0.000230032
-0.00261732
-0.0001512
0.000139361
-0.00556411
-1.26368e-05
-3.24741e-05
0.000487637
2.75544e-05
-4.78416e-05
0.000484365
3.88538e-05
-4.40512e-05
0.00099294
-1.72264e-06
-4.44033e-05
0.000546082
-2.01843e-05
-5.4351e-05
-0.000113863
9.42281e-06
-5.58785e-05
-2.64254e-05
1.39275e-05
-5.64482e-05
-8.01612e-05
2.85559e-05
-4.1723e-05
-0.000487346
-1.02752e-06
-1.94514e-05
-0.000782702
-4.22551e-05
-1.12367e-05
-0.000133454
-9.61785e-05
-1.55733e-06
4.26556e-05
-0.000118505
3.65521e-06
-0.000988967
-9.84169e-05
-2.20655e-05
-0.00142335
-7.82569e-05
-1.74611e-05
-0.000298659
-6.7439e-05
1.0879e-05
-0.000407908
-0.00173179
-1.17144e-05
-0.00229823
-0.00158195
0.000254842
-0.00294321
-0.0017011
0.000169167
-0.002438
-0.00141425
2.99367e-05
-0.00347942
-0.00132067
0.000104118
-0.00344084
-0.00130896
-6.27113e-05
-0.00371462
-0.00127543
0.000196795
-0.0038704
-0.00151578
-0.000187201
-0.00362595
-0.00134355
-0.000345812
-0.00370303
-0.00141256
-0.000154792
-0.00297883
-0.000805262
0.000221574
-0.00431835
-0.00101295
0.000123435
-0.00414492
-0.00118488
0.000151139
-0.00382475
-0.00127752
7.83415e-05
-0.00379383
-0.00177891
5.16477e-05
-0.00306626
-0.000429514
0.00029466
-0.00474336
-0.000671934
0.00030891
-0.0047257
-0.000890079
0.00018154
-0.00447852
-0.00119
0.0002539
-0.00424068
-0.00125401
8.15647e-05
-0.00395864
-0.00176593
5.49593e-05
-0.00333226
-2.27533e-05
0.000711233
-0.00530887
-0.00048852
0.000506213
-0.0053626
-0.000548648
0.000392212
-0.00511074
-0.000977808
0.000385687
-0.00494382
-0.000936378
0.000186086
-0.0046852
-0.00129928
0.000260099
-0.00429674
-0.00180122
0.000114954
-0.00292772
0.000174494
0.00109634
-0.00586487
0.000139017
0.000851185
-0.00560801
-0.000239208
0.000796236
-0.00536597
-0.000293527
0.000519513
-0.0054135
-0.000842483
0.000483505
-0.00532959
-0.000973988
0.000399121
-0.00493523
-0.00117195
0.000293925
-0.0045211
-0.00154107
0.000153275
-0.00370048
0.000475068
0.0016144
-0.00637241
0.000379842
0.00137012
-0.00623506
0.000384379
0.00105242
-0.00616621
-0.000150011
0.000849037
-0.00612549
-0.000302362
0.000764545
-0.00591203
-0.000613516
0.000655891
-0.0058435
-0.000774939
0.00055903
-0.00558336
-0.000922575
0.000332729
-0.00552035
-0.00151122
0.000131909
-0.00433497
0.000485823
0.00178555
-0.0065539
0.000699105
0.00180258
-0.00647593
0.000354403
0.00167576
-0.006515
0.000313251
0.00132945
-0.00690358
0.000250388
0.00114431
-0.00636987
-0.000135387
0.000785201
-0.00615728
-0.000601886
0.000681864
-0.0063752
-0.000478941
0.000470046
-0.00625685
-0.000631669
0.000501535
-0.00638829
-0.00138727
4.46493e-05
-0.00425086
0.000158682
0.00153811
-0.0064944
0.000372859
0.00156148
-0.00638519
0.000795916
0.00141098
-0.0069319
0.000682181
0.00143413
-0.00709818
0.000723049
0.00126697
-0.00711933
0.000221036
0.00107449
-0.0070551
0.000240484
0.000790856
-0.00674699
-0.000454513
0.000799747
-0.00634119
-0.00048719
0.000641578
-0.00632016
-0.000238345
0.000379976
-0.00672974
-0.00157476
0.000273766
-0.00469161
6.4098e-05
0.00084186
-0.00456057
0.000500982
0.000712807
-0.0059158
0.000553963
0.000726925
-0.00578262
0.000474695
0.00104896
-0.00611579
0.000604893
0.00128546
-0.00606084
0.000330726
0.00119299
-0.00684553
0.000137796
0.000916386
-0.00737358
-0.000173877
0.000832378
-0.006903
-0.000303973
0.000746961
-0.00631482
-0.000320124
0.000565515
-0.00663589
-0.00042936
0.000300917
-0.00703455
-0.00142314
0.00021864
-0.00484744
-8.47405e-05
0.000353886
-0.00344088
-1.10472e-06
0.000258173
-0.00280793
0.000225764
0.000391433
-0.00390104
0.00040462
0.000408164
-0.00468944
0.000347476
0.000644077
-0.0047937
0.000469904
0.000943874
-0.00417979
0.000444898
0.00101714
-0.00443119
0.000194435
0.000863003
-0.00521256
-0.000106272
0.000768925
-0.00604804
-0.00039518
0.000653827
-0.0056433
-0.000384722
0.000447367
-0.0061798
-0.000586041
0.000489033
-0.00588121
-0.00109852
0.000346784
-0.00596121
0.000236924
-0.000205494
-0.00318026
0.000117486
-0.000176863
-0.00268191
-0.00010793
1.69597e-05
-0.00163001
8.09238e-05
0.000119362
-0.00157858
8.13606e-05
0.000148721
-0.00251129
0.000279059
9.64238e-05
-0.00264681
0.000193657
0.000309396
-0.00276425
0.000132895
0.000518515
-0.00284835
-9.74596e-06
0.000590745
-0.00180065
-2.50377e-05
0.0004412
-0.00252922
-0.00026335
0.000240452
-0.00469532
-0.000280932
0.00040026
-0.00502575
-0.000397152
0.000485411
-0.00598424
-0.000649395
0.000352328
-0.0085189
6.50421e-05
-5.39734e-05
0.000573833
0.000209691
-0.000154586
-0.000614064
0.000143131
-0.000146097
-0.00115129
-5.49459e-05
-3.71097e-05
-0.000911658
-4.39117e-05
2.64812e-05
-0.000611938
7.94123e-05
6.49391e-05
-0.00112904
0.000103532
5.46065e-05
-0.000838632
5.86213e-05
3.79101e-05
-0.000146113
0.000100604
6.81933e-05
-0.000440192
-1.00137e-05
0.000121574
-0.000474672
-8.11394e-05
0.000186994
-0.00199652
-0.000173764
0.000224887
-0.00270158
-0.000306162
0.000246262
-0.00194554
-0.000195638
0.000221858
-0.00258243
-0.000159964
0.000116678
-0.00558826
-8.92314e-05
-1.21644e-07
0.00109746
-5.21719e-06
-3.40663e-05
0.000479079
3.63149e-05
-4.89866e-05
0.000452985
3.47825e-05
-4.60219e-05
0.000959776
-8.22164e-06
-4.76104e-05
0.000547563
-1.8772e-05