/*--------------------------------*- C++ -*----------------------------------*\
  =========                 |
  \\      /  F ield         | OpenFOAM: The Open Source CFD Toolbox
   \\    /   O peration     | Website:  https://openfoam.org
    \\  /    A nd           | Version:  7
     \\/     M anipulation  |
\*---------------------------------------------------------------------------*/
FoamFile
{
    version     2.0;
    format      ascii;
    class       volVectorField;
    location    "7.5";
    object      U;
}
// * * * * * * * * * * * * * * * * * * * * * * * * * * * * * * * * * * * * * //

dimensions      [0 1 -1 0 0 0 0];

internalField   nonuniform List<vector> 
18750
(
(1.38516 1.84082 -0.305485)
(1.80338 1.66958 0.041822)
(1.52093 1.13319 1.18386)
(1.41519 1.86563 -0.281172)
(3.73672 -1.36268 1.10601)
(2.53057 1.83609 2.01473)
(2.00219 1.30154 0.407559)
(1.78783 0.0936865 -0.102285)
(1.49858 1.1417 1.11402)
(1.56839 1.82663 -0.274479)
(2.87919 -2.95797 -0.904004)
(3.51111 -1.41948 1.6578)
(4.347 -1.53592 1.26533)
(2.8131 0.345987 2.52242)
(2.74311 1.29617 2.12036)
(2.15088 0.496364 1.34546)
(1.37538 0.238009 0.388147)
(1.73752 -0.191581 0.0139692)
(1.51414 1.11968 1.04764)
(1.5441 1.83149 -0.270861)
(3.36045 -2.57719 -0.813358)
(4.56087 -1.57036 0.875003)
(3.18005 -2.97903 0.203555)
(3.88206 -0.1958 2.00976)
(3.82087 -1.1961 1.71135)
(4.82124 -1.84071 0.96715)
(2.5652 0.501847 2.6051)
(2.88719 0.576368 2.4013)
(2.75132 0.761463 2.39857)
(2.29828 -0.238112 2.28091)
(0.581659 0.698107 -0.409552)
(1.38215 0.311427 0.22786)
(1.70526 -0.0394651 -0.17305)
(1.46757 1.0026 1.12961)
(1.55071 1.62647 -0.0232888)
(2.90687 -2.78556 -0.429887)
(4.64213 0.597948 0.569731)
(3.48378 -2.49328 -0.591677)
(3.87713 -1.61948 1.57036)
(4.48091 -1.52045 0.937101)
(3.87841 -2.26617 0.0832448)
(2.66375 -0.431637 2.40278)
(4.07866 -0.164769 1.57121)
(3.92398 -1.0121 1.58968)
(5.07492 -1.98009 0.920953)
(1.7031 -0.387748 1.908)
(2.60335 0.529929 2.44263)
(2.89041 0.649851 2.39598)
(2.845 0.689927 2.50192)
(2.59773 -0.356125 2.3188)
(0.363727 0.514007 -0.133093)
(0.592324 0.682685 -0.328286)
(1.35924 0.280642 0.306011)
(1.67072 -0.133492 -0.091929)
(1.4835 1.01758 0.965414)
(1.55727 1.509 0.0965452)
(3.0135 0.234719 0.569322)
(3.72568 0.585534 1.51686)
(3.23709 -1.2631 0.261318)
(4.39718 -0.248635 1.41702)
(4.68946 0.834376 0.727976)
(2.00055 -3.7083 0.579971)
(3.55246 -2.45565 2.26833)
(4.0961 -1.13502 1.55787)
(4.44691 -1.26899 1.44357)
(4.04755 -1.81468 0.17696)
(1.2051 -0.513766 0.580534)
(2.67651 -0.983509 2.66519)
(4.15919 -0.377261 1.31733)
(4.29222 -0.792947 1.11404)
(5.13672 -2.16331 1.05143)
(0.774292 -0.819509 1.07737)
(1.688 -0.293343 1.97488)
(2.65014 0.493441 2.18876)
(2.8888 0.633146 2.40337)
(2.92296 0.832345 2.37775)
(3.06512 -0.348076 1.95391)
(0.600147 -0.125921 -0.271843)
(0.397812 0.526404 -0.124795)
(0.601743 0.676284 -0.259003)
(1.34726 0.310531 0.281337)
(1.61217 -0.127177 -0.226538)
(1.45677 0.934901 0.917573)
(1.54667 1.41505 0.164445)
(2.85659 1.2159 0.349478)
(3.73113 1.26144 1.43394)
(2.92809 0.354386 0.651023)
(3.98184 0.426108 1.38798)
(3.85542 0.774298 1.50242)
(2.69985 -1.86448 0.215732)
(4.55461 -0.478244 2.92912)
(4.58678 0.309883 1.40943)
(4.61044 0.732961 0.855005)
(3.79612 -1.33258 -0.434134)
(1.83658 -2.26178 2.07375)
(3.67302 -1.25567 2.69622)
(4.31043 -0.834086 1.47765)
(4.39445 -1.13956 1.53511)
(5.18979 -0.117348 0.10188)
(0.683667 -0.254439 -0.0173379)
(1.24778 -0.23995 0.844046)
(2.65352 -1.13093 2.55256)
(4.31237 -0.854108 1.06026)
(4.34803 -1.04842 1.81848)
(5.1544 -2.45881 1.07175)
(0.777408 0.0933915 0.511065)
(0.695319 -0.95589 0.932183)
(1.67047 -0.245479 1.95801)
(2.67767 0.451432 2.00811)
(2.88218 0.643931 2.40232)
(2.87953 0.625494 2.18314)
(3.2032 -0.543817 1.72902)
(0.234594 -0.37507 -0.514999)
(0.573662 -0.160031 -0.301509)
(0.429324 0.529909 -0.121395)
(0.613847 0.677883 -0.20197)
(1.35511 0.333333 0.250556)
(1.55803 -0.162212 -0.300876)
(1.40421 0.868001 0.867686)
(1.53898 1.302 0.18382)
(2.59912 1.59548 0.0772348)
(3.64995 0.907091 0.583754)
(2.87048 1.22112 0.359393)
(4.06431 1.21856 1.14776)
(3.76573 1.04566 1.41278)
(2.79095 0.428596 0.484608)
(4.41315 0.469371 1.72878)
(3.81209 0.230602 1.57133)
(3.86537 0.524123 1.41752)
(3.02877 -1.04414 0.225416)
(4.11 -2.29203 3.20827)
(4.3922 -0.0375309 2.38774)
(4.54089 0.00656878 1.07583)
(4.65906 0.740013 0.842103)
(2.73984 -2.73533 0.319935)
(1.05926 0.954572 1.32707)
(1.88861 -2.72037 2.09379)
(3.64506 -0.716112 2.4073)
(4.27974 -0.772614 1.34964)
(4.4423 -0.608175 1.58626)
(5.38846 -0.325891 0.362914)
(1.0365 -0.336931 1.3851)
(0.593612 -0.172687 0.136512)
(1.28644 -0.142474 0.937546)
(2.61687 -1.42926 2.05751)
(4.32766 -0.72484 1.33131)
(4.46196 -0.941738 1.83434)
(5.0488 -2.88964 0.998697)
(0.229273 -0.398093 -0.628049)
(0.710401 0.101372 0.673426)
(0.631625 -0.99744 0.749453)
(1.63939 -0.213381 1.88047)
(2.73326 0.4522 1.85462)
(2.77152 0.506818 2.41357)
(2.83935 0.421555 2.00739)
(3.11137 -0.998264 1.48022)
(-0.0451062 -0.468367 -1.06337)
(0.210309 -0.437536 -0.574293)
(0.559536 -0.163633 -0.305195)
(0.464744 0.53645 -0.123468)
(0.62161 0.683463 -0.157318)
(1.35072 0.348207 0.273798)
(1.49469 -0.190453 -0.38978)
(1.35613 0.810718 0.790931)
(1.53375 1.17084 0.185514)
(2.32288 1.73101 0.149866)
(3.12324 1.09996 0.622247)
(2.60963 1.49884 -0.00944639)
(3.80731 0.363461 0.77636)
(3.75363 0.816178 0.594834)
(2.842 1.17787 0.315972)
(3.89959 1.16394 1.13848)
(4.12197 1.14153 1.10277)
(3.74453 1.0154 1.44719)
(2.74981 0.429964 0.411394)
(4.36334 -1.15258 2.68105)
(4.74328 0.760418 1.582)
(3.84499 0.255432 1.3847)
(4.07679 0.199227 1.35341)
(3.12398 0.253965 0.476842)
(4.06344 -2.10603 3.49713)
(3.80424 -2.12147 3.25964)
(4.63418 -0.283253 1.41876)
(4.4679 0.365119 1.3139)
(4.5639 0.427288 0.744752)
(3.67291 -1.37416 0.395711)
(1.91259 2.03522 2.54835)
(1.32912 0.681862 2.28723)
(2.13062 -2.51575 2.09858)
(3.53176 -1.03219 1.91051)
(4.30898 -0.496723 1.38819)
(4.56762 -0.568946 1.15176)
(5.25863 -0.647411 0.551072)
(1.28403 -0.538721 1.3751)
(1.00896 -0.279295 1.6578)
(0.565942 -0.0309725 0.195835)
(1.25079 -0.162326 0.929943)
(2.62501 -1.59602 1.53227)
(4.14628 -0.80198 1.54301)
(4.40436 -1.16874 1.68014)
(5.07067 -3.05823 1.00558)
(0.221741 -0.0425955 -0.30504)
(0.190068 -0.362804 -0.479024)
(0.666148 0.106044 0.770776)
(0.605753 -0.861347 0.661788)
(1.62167 -0.187286 1.77526)
(2.7629 0.39793 1.75372)
(2.76647 0.548137 2.25672)
(2.84967 0.4352 1.83725)
(3.05199 -1.87171 1.0606)
(0.0639321 0.188876 -1.07534)
(-0.0611722 -0.441763 -1.10921)
(0.185259 -0.49005 -0.620373)
(0.542839 -0.202229 -0.312121)
(0.502569 0.564248 -0.146219)
(0.626261 0.690864 -0.1008)
(1.31269 0.392318 0.331258)
(1.43418 -0.237924 -0.461555)
(1.28396 0.714006 0.757014)
(1.51609 1.06458 0.197902)
(2.14265 1.6717 0.115534)
(2.94085 1.00299 0.159779)
(2.46256 1.58446 0.121427)
(3.47482 1.03308 0.345204)
(3.15541 0.977511 0.640326)
(2.78579 0.982041 0.102353)
(3.90762 0.413415 0.934623)
(3.86799 0.265329 0.681737)
(3.78161 0.67633 0.551582)
(2.92992 1.00931 0.187502)
(4.21493 -0.173724 1.78489)
(4.17381 -0.418962 1.81194)
(4.10356 0.561469 1.09713)
(3.91928 0.842365 1.16263)
(2.89157 0.948623 0.340451)
(3.2939 -2.40728 3.89965)
(3.93047 -1.6034 2.7827)
(4.72519 0.297212 1.54374)
(3.93667 0.348246 1.38305)
(4.12874 0.230718 1.31724)
(3.0943 0.370373 0.364258)
(4.12431 -2.09263 3.27947)
(4.29654 -2.05389 3.54702)
(3.79629 -1.71175 2.83258)
(4.39161 -0.624908 1.56814)
(4.43886 0.102334 1.17059)
(4.53341 0.224642 0.749702)
(4.51797 -0.125662 0.672661)
(2.45019 -1.22432 2.40367)
(2.08191 0.678811 3.19803)
(1.52703 -0.20127 3.1745)
(2.60643 -1.82625 2.34854)
(3.44261 -1.31263 1.76676)
(4.40195 -0.101408 1.03493)
(4.67282 -0.24976 1.09148)
(5.1132 -0.648205 0.623282)
(1.45142 0.0250571 1.60621)
(1.37967 -0.418348 1.3714)
(1.09549 -0.164152 1.70753)
(0.739356 0.495562 0.444894)
(1.26358 -0.0688311 1.00226)
(2.69939 -1.53472 1.17413)
(4.02222 -0.925141 1.53627)
(4.25819 -1.43406 1.91681)
(5.50944 -2.63268 1.09181)
(0.601758 0.312202 0.859147)
(0.252527 -0.0911111 -0.269293)
(0.134798 -0.323982 -0.33981)
(0.589651 0.0915037 0.870535)
(0.563031 -0.679834 0.686671)
(1.60791 -0.171238 1.7205)
(2.75493 0.355634 1.73616)
(2.80682 0.602331 2.09152)
(2.79214 0.24007 1.78847)
(3.21934 -1.61878 1.21399)
(0.132024 0.0829347 -1.18534)
(0.049253 0.191547 -1.1527)
(-0.0718169 -0.416612 -1.14933)
(0.153937 -0.529408 -0.64855)
(0.490614 -0.263183 -0.342779)
(0.53375 0.589835 -0.171213)
(0.631116 0.701129 -0.0477303)
(1.28561 0.437448 0.337071)
(1.36886 -0.255436 -0.567129)
(1.19438 0.623348 0.716554)
(1.48698 0.951872 0.180391)
(2.1784 1.31278 0.0254306)
(2.57536 1.29985 0.0363774)
(2.33571 1.35671 0.145868)
(3.04489 0.755857 0.350332)
(2.93839 1.05051 0.182936)
(2.51065 1.55539 0.0373435)
(3.65628 0.909918 0.641917)
(3.5019 1.01611 0.408061)
(3.32422 0.723208 0.525515)
(2.75027 1.04815 0.0517262)
(4.04849 0.234304 0.935843)
(3.80886 0.563684 0.872689)
(3.87029 0.121386 0.729483)
(3.77226 0.268304 0.48503)
(3.05949 1.17032 0.0797455)
(4.00619 -1.01447 2.50139)
(3.92606 -0.758488 1.96134)
(4.27552 0.607603 1.02971)
(4.077 0.523716 1.0463)
(4.04745 0.673428 0.922086)
(3.01988 0.882303 0.227692)
(4.45663 -1.78083 3.15103)
(4.6488 -0.910931 2.43523)
(4.03439 -1.28635 2.35724)
(4.71796 0.231175 1.49186)
(3.90846 -0.0638936 1.44847)
(4.1141 0.0221085 1.04006)
(3.47668 0.715157 0.282428)
(4.00728 -1.74502 2.6555)
(4.58107 -2.06368 3.21952)
(4.40126 -2.17473 3.24433)
(3.85223 -1.55543 2.39731)
(4.20025 -0.883157 1.77802)
(4.47716 -0.144821 1.19232)
(4.50299 -0.462722 0.77789)
(4.77143 0.333469 0.410492)
(2.74619 -2.07644 2.0899)
(2.38922 -1.57052 2.55045)
(1.65473 -1.4546 3.71246)
(1.52085 -1.38855 3.56569)
(3.07424 -1.36232 2.51649)
(3.42055 -1.35037 1.94498)
(4.24372 -0.793876 1.03112)
(4.62776 -0.351163 1.05568)
(5.01155 -0.681681 0.758327)
(1.28294 -0.166008 1.13871)
(1.54017 -0.0519514 1.55926)
(1.50959 -0.305122 1.26468)
(1.57014 0.198287 1.73206)
(1.1496 1.11622 0.853688)
(1.33196 0.0563699 0.976819)
(2.83627 -1.36162 0.961997)
(3.91307 -1.14285 1.56754)
(4.24446 -1.5559 1.9405)
(5.59113 -2.688 1.01293)
(0.796009 0.225629 0.27829)
(0.627439 0.177606 1.00264)
(0.28032 -0.162206 -0.209454)
(0.0743864 -0.284863 -0.220793)
(0.483753 0.0404047 0.96457)
(0.519877 -0.449588 0.804338)
(1.57472 -0.170982 1.76959)
(2.80242 0.347696 1.67693)
(2.77175 0.575881 2.01104)
(2.70858 0.132525 1.81691)
(3.0203 -2.10357 0.944226)
(-0.392893 -0.0554424 -0.757971)
(0.130638 0.0901141 -1.1407)
(0.0655166 0.190875 -1.09557)
(-0.0754294 -0.379954 -1.18214)
(0.128203 -0.551995 -0.653189)
(0.485355 -0.256687 -0.323894)
(0.54135 0.576182 -0.176711)
(0.64355 0.714076 0.0123592)
(1.29512 0.363781 0.221912)
(1.28604 -0.300033 -0.679318)
(1.09395 0.531968 0.661218)
(1.45063 0.839847 0.159618)
(1.94261 1.46531 -0.116499)
(2.36946 1.18739 0.0735705)
(2.30048 1.14635 0.0850799)
(2.84902 0.930091 0.148014)
(2.70471 1.0818 -0.0378764)
(2.49004 1.08509 0.199648)
(3.31881 0.478133 0.388255)
(3.12828 0.590475 0.361457)
(2.88276 0.870735 0.256647)
(2.6294 1.38681 0.00339437)
(3.68181 0.369217 0.619933)
(3.7336 0.49875 0.688991)
(3.50029 0.976541 0.392126)
(3.32513 0.929024 0.440669)
(2.81378 0.914134 0.0289456)
(4.16172 -0.00586491 1.27618)
(3.82936 -0.162279 1.09026)
(3.78538 0.310645 0.915829)
(3.90961 -0.201254 0.74491)
(3.82998 -0.4009 0.576899)
(3.16528 0.964724 0.0559255)
(4.10114 -2.06033 2.6327)
(4.11505 -1.07128 2.38027)
(4.0614 -0.549174 1.49066)
(4.25218 -0.092127 1.21902)
(4.04748 -0.321217 1.20714)
(4.09509 0.161077 0.770299)
(3.15168 0.913434 0.162759)
(4.38669 -2.05344 3.06069)
(4.09089 -2.11663 2.97382)
(4.1522 -1.70758 2.47599)
(4.04871 -1.34054 2.24346)
(4.75555 0.134998 1.4421)
(4.02761 -0.253566 1.22492)
(4.03512 -1.02153 1.14757)
(3.93336 1.26507 0.130192)
(3.88806 -1.57012 1.57712)
(3.93799 -1.84103 3.02561)
(4.23545 -2.55987 3.11563)
(4.42118 -2.42461 2.47748)
(3.97742 -1.52311 2.21982)
(4.1243 -1.02784 1.80631)
(4.34112 -0.862484 1.22203)
(4.43873 -0.550182 0.675012)
(4.82755 0.529058 0.401466)
(2.81365 -0.777344 0.584891)
(2.74684 -1.92527 2.05547)
(2.2131 -2.32739 2.81083)
(1.46398 -2.64691 3.53755)
(1.5318 -2.23418 3.58287)
(3.23004 -1.40909 2.22167)
(3.38999 -1.41491 2.0519)
(4.13948 -1.06803 1.18514)
(4.60094 -0.468783 1.09518)
(5.05032 -0.711687 0.734947)
(1.21534 0.490063 0.794772)
(1.36602 -0.265163 0.825395)
(1.58023 -0.222084 1.36698)
(1.63992 -0.520874 1.0201)
(1.78796 0.064803 2.04464)
(1.55462 1.39824 1.43276)
(1.40816 0.0566812 1.0531)
(2.8687 -1.33849 0.857385)
(3.72973 -1.16685 1.72009)
(4.23834 -1.52825 1.91624)
(5.37783 -3.02915 0.948502)
(0.766011 -0.597512 -0.687564)
(0.719738 0.249841 0.372203)
(0.617407 -0.095319 0.898198)
(0.297035 -0.204186 -0.150444)
(0.0338593 -0.242435 -0.132934)
(0.391954 -0.0631165 1.01319)
(0.482438 -0.266462 0.916128)
(1.5519 -0.184625 1.85648)
(2.78036 0.308268 1.69308)
(2.71544 0.545868 1.95595)
(2.62518 0.044176 1.7004)
(2.77375 -2.44307 0.801977)
(-0.683675 -0.0053909 -0.699139)
(-0.375453 -0.0123205 -0.852739)
(0.126465 0.0942113 -1.12164)
(0.0623808 0.172389 -1.09909)
(-0.0750734 -0.341605 -1.20782)
(0.0979499 -0.569387 -0.632901)
(0.461835 -0.29422 -0.316031)
(0.532236 0.537376 -0.174168)
(0.661196 0.733492 0.0430591)
(1.25148 0.33034 0.206205)
(1.21121 -0.33053 -0.788381)
(0.976183 0.439416 0.605036)
(1.40778 0.723823 0.140256)
(2.13168 0.822138 -0.0533478)
(2.48088 0.76326 -0.0537005)
(2.00804 1.4446 -0.251089)
(2.683 0.65934 -0.0443576)
(2.59704 0.854795 0.0636212)
(2.32252 1.12156 0.132144)
(3.07095 0.605552 0.0533175)
(2.86095 0.860388 0.220756)
(2.71365 0.964116 -0.10538)
(2.51841 1.07012 0.131513)
(3.29558 0.185091 0.440149)
(3.36547 0.275893 0.317467)
(3.1534 0.456389 0.361313)
(2.97627 0.435758 0.309843)
(2.69498 1.27876 0.0401345)
(3.83722 0.0632602 0.666484)
(3.71949 0.409861 0.494615)
(3.75812 0.39235 0.65295)
(3.54342 0.647907 0.353054)
(3.41422 0.497349 0.455455)
(2.85427 0.560312 0.0999268)
(4.04509 -0.952676 1.71906)
(3.8537 -0.77359 1.3265)
(3.76331 -0.422625 1.00242)
(3.93842 -0.157554 0.956745)
(3.8329 -0.285935 0.667279)
(3.84042 -0.577249 0.454711)
(3.3303 0.63507 -0.010372)
(4.58657 -1.1648 2.69568)
(4.00038 -1.57606 2.54275)
(3.8717 -1.73975 2.16315)
(4.07616 -1.18458 1.32726)
(4.30893 -0.690592 1.01699)
(4.043 -0.350118 1.11546)
(4.1994 -0.825509 0.421365)
(3.47527 0.823515 -0.0241509)
(4.17904 -2.53217 2.33651)
(4.37782 -1.93117 3.11246)
(4.52131 -1.21599 2.81463)
(3.96783 -2.01652 2.2769)
(3.92994 -1.81236 2.22023)
(4.5487 -0.95548 1.54439)
(4.198 -0.712815 1.16826)
(4.08899 -1.19353 1.05614)
(4.18676 0.970371 -0.0851587)
(3.8845 -1.81673 1.42165)
(3.7471 -2.09133 1.97872)
(3.62794 -2.43812 2.81962)
(3.73822 -2.96773 3.20976)
(4.45293 -1.97053 2.16646)
(4.0359 -1.67606 2.16593)
(3.9061 -1.42212 1.75636)
(4.16922 -1.17997 1.24927)
(4.25549 -1.45805 0.684916)
(4.75285 0.194915 0.578052)
(2.23418 0.374212 0.97357)
(2.64703 -1.86148 1.33147)
(2.81051 -1.92579 1.87732)
(1.97624 -2.70017 3.04156)
(1.49208 -2.92811 3.5692)
(1.85912 -2.20215 3.43579)
(3.57656 -1.43919 1.8255)
(3.35463 -1.42853 2.04632)
(3.99249 -1.50802 1.31572)
(4.54014 -0.876089 1.4697)
(5.03638 -0.822461 0.701501)
(1.42821 -0.201493 -0.134532)
(1.20618 0.519001 0.867041)
(1.45653 -0.246888 0.629946)
(1.53666 -0.568752 1.1142)
(1.43392 -1.36812 0.835676)
(1.81078 -0.330766 2.30908)
(1.73017 1.30716 2.01973)
(1.37627 -0.301089 1.18267)
(2.90559 -1.51273 0.348773)
(3.71352 -1.13611 1.57238)
(4.00848 -1.80095 1.97008)
(5.23222 -3.31597 0.928755)
(0.540826 -1.1165 -0.947787)
(0.72127 -0.418357 -0.482015)
(0.680154 0.255011 0.441063)
(0.575153 -0.359141 0.730312)
(0.327075 -0.217155 -0.0678785)
(0.0321518 -0.188897 -0.0696528)
(0.269074 -0.18684 1.03613)
(0.411269 -0.208166 0.972734)
(1.5957 -0.155054 1.87764)
(2.64149 0.144929 1.77247)
(2.67168 0.500183 1.94263)
(2.4657 -0.161656 1.62641)
(2.44217 -2.86276 0.602182)
(-0.297276 0.152969 -1.0142)
(-0.656098 0.0136854 -0.739601)
(-0.354471 0.0273105 -0.951074)
(0.121367 0.0897059 -1.14253)
(0.0661179 0.14317 -1.12766)
(-0.0759914 -0.308042 -1.22574)
(0.07093 -0.57123 -0.603645)
(0.428818 -0.33359 -0.313728)
(0.520678 0.502353 -0.171647)
(0.678325 0.757977 0.0667808)
(1.23065 0.287572 0.183684)
(1.15132 -0.352405 -0.860583)
(0.846043 0.350462 0.539986)
(1.36076 0.609196 0.12092)
(1.73517 1.06104 -0.016767)
(2.24387 0.838811 0.0905078)
(2.27725 0.500514 -0.00611516)
(2.48507 0.972306 -0.100551)
(2.46376 0.841576 -0.206118)
(1.97131 1.57091 -0.320812)
(2.80213 0.589265 -0.038403)
(2.60996 0.779111 0.170296)
(2.66163 0.662959 0.0812083)
(2.33696 1.09782 0.114789)
(3.09583 0.224664 0.259062)
(3.08342 0.488398 0.0680517)
(2.93056 0.618595 0.236826)
(2.85338 0.581964 -0.160243)
(2.6134 0.89666 0.0763623)
(3.46781 0.101702 0.371565)
(3.38643 -0.112555 0.455712)
(3.43821 0.0393274 0.218314)
(3.16373 0.116478 0.316835)
(3.08208 0.0821673 0.332284)
(2.7365 1.08104 0.0582564)
(3.68432 -0.714257 0.988542)
(3.7999 -0.182408 0.670962)
(3.65633 -0.335043 0.538239)
(3.68738 -0.48272 0.565556)
(3.53693 0.497513 0.45613)
(3.49304 0.370082 0.184724)
(2.85692 0.458032 0.0628963)
(4.12081 -1.2301 1.62387)
(3.95139 -1.22107 1.52696)
(3.49436 -1.81746 1.39834)
(3.67874 -0.960485 1.01706)
(3.93896 -0.409598 0.944372)
(3.71219 -0.796789 0.678672)
(3.68018 -0.909458 0.34658)
(3.50125 0.536837 -0.00561463)
(4.02515 -2.20818 2.66332)
(3.79032 -2.65036 2.68796)
(4.05049 -1.86659 2.44667)
(4.34709 -0.543857 1.49996)
(4.12011 -0.674852 1.47187)
(4.28864 -0.774508 0.994525)
(4.02309 -1.01118 0.988786)
(4.1181 -1.03061 0.93296)
(3.63697 0.741241 -0.106761)
(3.92659 -1.31077 3.17093)
(4.08367 -2.63404 2.39015)
(4.09012 -2.02722 2.96402)
(4.46622 -1.84456 2.75909)
(4.00925 -2.08138 2.18705)
(3.74357 -2.45021 2.08062)
(4.1835 -1.29752 1.48117)
(4.15957 -0.917389 1.09953)
(3.93384 -1.68318 0.993933)
(4.42022 0.733333 -0.046124)
(3.3895 -1.31798 1.76869)
(3.94246 -1.70075 1.63406)
(3.7775 -1.7929 2.71444)
(3.48984 -2.61964 2.84712)
(3.77648 -2.23638 3.40497)
(4.43839 -1.98773 1.95874)
(4.18817 -1.87137 1.90163)
(3.83274 -1.74393 1.67419)
(4.10354 -1.57741 1.17724)
(4.28292 -2.05715 0.568009)
(4.76297 0.193036 0.557699)
(1.86008 0.0766989 0.624635)
(2.33983 -0.0910279 1.10632)
(2.59044 -2.02949 1.76171)
(2.71365 -2.04582 2.01279)
(1.96125 -2.67315 3.10262)
(1.70904 -2.48782 3.59594)
(2.38508 -2.10935 3.06029)
(3.61581 -1.76539 1.9936)
(3.55195 -1.71131 1.59711)
(3.93207 -1.7261 1.15565)
(4.51455 -0.93167 1.62407)
(5.00277 -1.00393 0.561408)
(1.79577 -1.32588 -0.66324)
(1.27706 0.00357193 0.0397305)
(0.924092 0.323861 1.10915)
(1.58199 -0.224899 0.349101)
(1.48121 -0.813029 0.975304)
(1.36681 -1.52685 1.20196)
(1.66655 -0.833103 2.3592)
(1.66948 0.701859 2.32133)
(1.2684 -0.733972 1.44546)
(2.86802 -1.5702 0.463859)
(3.49307 -1.35558 1.84001)
(3.64471 -2.26979 2.02919)
(5.10984 -3.45306 0.846926)
(0.161626 -0.710312 -1.13793)
(0.567377 -1.06376 -0.835443)
(0.679052 -0.235507 -0.301286)
(0.509688 0.230712 0.584169)
(0.524604 -0.526 0.633299)
(0.398024 -0.185714 0.0787936)
(0.0417798 -0.15976 -0.0159716)
(0.197939 -0.210372 1.03102)
(0.312077 -0.193528 0.972051)
(1.65698 -0.13285 1.84829)
(2.56279 -0.0743579 1.69035)
(2.57867 0.438846 1.94813)
(2.24978 -0.402801 1.55138)
(2.10212 -3.18417 0.422717)
(-0.267494 0.434731 -0.985283)
(-0.280645 0.132029 -1.03675)
(-0.643373 0.0308612 -0.778147)
(-0.352328 0.0640214 -1.03702)
(0.111892 0.0768672 -1.1866)
(0.0695416 0.111107 -1.15828)
(-0.0804606 -0.281504 -1.23424)
(0.0577774 -0.547942 -0.57917)
(0.458684 -0.278481 -0.307058)
(0.50575 0.468193 -0.169352)
(0.699386 0.775583 0.0830805)
(1.22339 0.285884 0.0867763)
(0.979743 -0.423814 -1.06729)
(0.71021 0.267645 0.460994)
(1.30845 0.502388 0.0986248)
(1.58133 0.919846 -0.00385741)
(1.96297 0.931601 0.14218)
(1.80739 1.01928 0.0443928)
(2.37231 0.898379 0.0449149)
(2.36264 0.521885 0.0908274)
(2.44896 -0.0835412 -0.151096)
(2.58897 0.630515 0.11216)
(2.5228 0.758444 -0.325342)
(2.66195 0.495924 -0.311188)
(2.23374 1.26611 -0.017457)
(2.84949 0.381073 0.169363)
(2.81212 0.385907 0.0120878)
(2.71218 0.29048 0.158303)
(2.69026 0.189484 0.0048039)
(2.42627 0.913145 0.0669083)
(3.08648 0.119604 0.237869)
(3.1358 0.136237 0.284724)
(3.05962 0.26306 0.0971215)
(2.96751 0.225682 0.313713)
(2.90128 0.300631 -0.129627)
(2.65833 0.742393 0.0352879)
(3.42904 -0.369744 0.664515)
(3.52486 -0.075301 0.32307)
(3.37986 -0.246217 0.461509)
(3.46152 0.0339466 0.275851)
(3.19864 -0.259001 0.193464)
(3.03478 -0.0553782 0.327648)
(2.74355 0.954148 0.0685175)
(3.75938 -0.652294 1.11267)
(3.6017 -0.921605 1.04955)
(3.50617 -0.77239 0.75599)
(3.49805 -0.765554 0.559334)
(3.55258 -0.459071 0.603999)
(3.60753 -0.0128231 0.36577)
(3.49387 0.244801 0.314905)
(2.96283 0.0403092 -0.0535929)
(4.00314 -1.39667 2.12801)
(3.8875 -1.24166 1.66796)
(3.8504 -1.38945 1.34119)
(3.87398 -0.938568 1.07382)
(3.72699 -0.997376 0.943858)
(3.8265 -0.810962 0.863141)
(3.54626 -1.26955 0.64746)
(3.57576 -1.19728 0.315528)
(3.4908 0.344217 0.00298208)
(4.13603 -1.2709 2.89806)
(3.94924 -1.85389 2.66143)
(3.92816 -1.83924 2.55289)
(4.13442 -2.09888 1.76605)
(3.67331 -2.08425 1.75367)
(3.83768 -1.66454 0.998758)
(4.23902 -1.06008 0.895559)
(3.95859 -1.64764 0.606072)
(4.00448 -1.5288 0.684023)
(3.75616 0.106993 -0.240313)
(4.23269 -0.568978 2.87904)
(4.00701 -1.24176 3.14608)
(3.92784 -2.51106 2.61052)
(4.1524 -2.41273 2.47187)
(3.53847 -3.45572 2.45188)
(4.03535 -2.42922 1.89651)
(3.46796 -2.94705 1.53093)
(3.91915 -1.67018 1.3896)
(3.93665 -1.57286 0.893677)
(3.85375 -2.48554 0.884977)
(4.38681 0.288065 0.196265)
(2.95617 -0.307255 2.10001)
(3.61743 -1.65853 1.34006)
(3.39621 -2.01011 2.28452)
(3.54386 -2.14485 2.59925)
(3.24785 -2.58576 3.1451)
(3.85692 -2.49286 2.71717)
(4.18147 -2.5398 1.97406)
(3.95276 -2.33919 1.81669)
(3.88914 -1.77944 1.75306)
(4.00433 -2.12954 1.09267)
(4.15457 -2.38974 0.558275)
(4.63158 -0.118598 0.431713)
(2.23761 -0.297905 0.442762)
(1.84918 0.0438215 0.931767)
(2.44285 -0.550302 0.966568)
(2.61815 -1.93787 1.70451)
(2.56112 -2.29893 2.23698)
(1.94542 -2.23593 3.27998)
(2.12052 -2.10861 3.14766)
(2.56583 -2.37093 2.6527)
(3.46607 -2.08388 2.19161)
(3.69896 -1.37547 1.9328)
(3.84294 -2.03196 0.941479)
(4.50425 -1.05919 1.58522)
(4.99142 -1.1077 0.430666)
(1.93516 -1.43316 -1.49246)
(1.63877 -1.09125 -0.426506)
(1.1701 0.12941 0.191193)
(1.12122 0.120114 0.759262)
(1.6457 -0.211468 0.231993)
(1.22524 -1.543 0.64834)
(1.38933 -1.26161 1.98085)
(1.46381 -1.13781 2.36227)
(1.36601 -0.0646406 2.44855)
(1.19033 -1.12784 1.55366)
(2.70304 -1.73223 0.651374)
(3.12752 -1.66067 2.22908)
(3.06372 -2.75335 2.21366)
(4.82711 -3.71219 0.793025)
(-0.469478 -0.294662 -0.772419)
(0.21349 -0.879523 -1.3066)
(0.54306 -0.996068 -0.620269)
(0.641683 -0.0802938 -0.153228)
(0.533991 0.157142 0.42141)
(0.463773 -0.725435 0.539288)
(0.51815 -0.130681 0.288529)
(0.0359229 -0.130086 0.0217062)
(0.201984 -0.190139 0.960532)
(0.279403 -0.170474 0.90748)
(1.69311 -0.155687 1.81783)
(2.5021 -0.112472 1.58055)
(2.44298 0.308554 1.94313)
(2.0048 -0.679109 1.39411)
(1.94123 -3.31925 0.351745)
(-0.612689 0.957101 -0.331545)
(-0.240789 0.395833 -1.00484)
(-0.262867 0.11421 -1.06335)
(-0.620734 0.0455104 -0.835137)
(-0.341349 0.0985724 -1.1167)
(0.0991984 0.0662917 -1.22762)
(0.0718494 0.0804099 -1.18938)
(-0.093631 -0.260783 -1.23587)
(0.0529676 -0.509923 -0.557175)
(0.446253 -0.289919 -0.300548)
(0.489908 0.438103 -0.168279)
(0.712125 0.799589 0.0970653)
(1.20327 0.267955 0.006915)
(0.830219 -0.499672 -1.28713)
(0.573427 0.197412 0.370331)
(1.25206 0.405316 0.0726948)
(1.4504 0.957507 0.0609002)
(1.83604 0.863983 -0.00888657)
(1.63887 0.809956 -0.00239176)
(2.18377 0.697918 0.190753)
(2.08565 0.696269 0.172405)
(1.80665 1.0016 0.122192)
(2.40759 0.879573 0.00616697)
(2.39137 0.818378 0.0620537)
(2.35983 0.453082 0.0681001)
(2.4722 -0.403312 -0.270783)
(2.5955 0.430501 0.187671)
(2.62519 0.435881 0.0350774)
(2.55411 0.602051 -0.234502)
(2.6569 0.542517 -0.226627)
(2.53774 0.595514 -0.0463615)
(2.88259 0.0984919 0.217196)
(2.87355 0.160597 0.208579)
(2.75828 0.0951567 0.0947158)
(2.65173 0.4081 0.141292)
(2.68124 0.124872 0.0104314)
(2.54159 0.518455 0.0481424)
(3.05074 -0.225475 0.339201)
(3.14746 -0.0196302 0.281808)
(3.15234 -0.122489 0.2465)
(3.07336 0.09894 0.168255)
(2.98544 -0.04699 0.293209)
(2.95267 0.293331 0.0719978)
(2.72486 0.328506 -0.0527578)
(3.32158 -0.431557 0.85474)
(3.42071 -0.539936 0.743875)
(3.47947 -0.266992 0.358284)
(3.28189 -0.568873 0.547775)
(3.43527 -0.0632373 0.207844)
(3.13708 -0.522039 0.210716)
(2.98799 -0.550435 0.192979)
(2.79413 0.86932 0.0842258)
(3.88197 -0.552154 1.4616)
(3.66445 -0.885873 0.989357)
(3.36854 -1.2662 1.09763)
(3.41113 -0.889301 0.698385)
(3.44199 -0.872976 0.580635)
(3.50445 -0.754628 0.567643)
(3.60389 -0.194309 0.414641)
(3.3713 -0.241889 0.427544)
(2.99388 -0.0963663 -0.0127789)
(4.19788 -0.947068 2.12649)
(3.94306 -1.4352 1.94644)
(4.00868 -1.03718 1.56214)
(3.81252 -1.23966 1.27648)
(3.70096 -1.49984 1.16812)
(3.67066 -1.28856 0.98739)
(3.75224 -1.23037 0.831609)
(3.4658 -1.3196 0.617154)
(3.48562 -1.5102 0.37311)
(3.51467 -0.57778 -0.263398)
(4.33149 -0.837629 2.72812)
(4.07989 -1.44737 2.89319)
(3.84302 -2.07535 2.65524)
(3.82249 -2.43147 2.48636)
(3.94154 -1.91801 1.89091)
(3.84184 -1.81713 1.42649)
(3.62682 -1.61735 1.31476)
(4.14589 -1.44642 0.864929)
(3.84592 -1.79315 0.870187)
(3.64541 -2.46955 0.388333)
(3.91705 -0.0984683 -0.198854)
(3.99261 -0.717056 2.76205)
(3.98987 -1.8271 2.57591)
(3.80003 -2.06038 2.72824)
(4.23739 -2.22235 2.79892)
(3.94572 -2.87038 2.33685)
(3.91314 -2.67264 2.05064)
(3.93343 -2.5853 1.5179)
(4.09797 -1.76202 1.73785)
(3.76494 -2.07329 1.42174)
(3.71303 -2.4834 0.654861)
(3.87543 -2.58883 0.792534)
(4.24019 -0.515848 0.346702)
(2.89762 0.303195 1.7803)
(2.93618 -0.881935 1.83587)
(3.52706 -2.17605 1.02567)
(3.1528 -2.00223 2.34001)
(3.5943 -1.9725 2.66998)
(3.16953 -2.68824 2.91059)
(3.4501 -3.3556 2.2118)
(4.0185 -2.8088 2.08737)
(3.92437 -2.46258 1.66902)
(3.9446 -1.97667 1.53334)
(3.90148 -2.30422 0.903967)
(3.70521 -3.07455 0.498385)
(4.48019 -0.449237 0.381935)
(2.47454 -0.625791 1.73793)
(2.14115 -0.300073 0.622269)
(1.87757 -0.0784348 1.42061)
(2.29935 -1.89601 0.656406)
(2.52065 -2.02054 1.66412)
(2.40132 -2.29881 2.38804)
(2.05941 -2.14027 2.97723)
(2.17599 -2.39272 2.57522)
(2.48057 -2.69827 2.37792)
(3.33765 -2.27354 2.03142)
(3.65433 -1.64094 1.86484)
(3.34248 -2.60592 1.63346)
(4.3954 -1.69833 1.50853)
(5.03832 -1.25194 -0.566425)
(1.29131 -0.391863 -0.314587)
(1.84249 -1.50172 -0.943668)
(1.5264 -0.830186 -0.00871847)
(1.13361 0.211911 0.304494)
(1.08007 -0.260585 0.998199)
(1.41259 -1.07601 0.183898)
(0.964212 -1.94814 0.669218)
(1.29656 -1.39621 2.1901)
(1.01169 -1.94709 2.48251)
(1.05586 -0.778397 2.25317)
(1.15539 -1.38454 1.50145)
(2.15327 -2.37127 1.36417)
(3.01808 -1.99509 2.10171)
(2.80387 -2.9954 2.09373)
(4.64696 -3.81287 0.923277)
(-0.204376 0.957957 0.0522412)
(-0.359051 -0.384741 -0.833681)
(0.240002 -1.09273 -1.46123)
(0.510124 -0.898317 -0.362072)
(0.607303 0.0406374 -0.0530052)
(0.478869 0.133431 0.422391)
(0.452456 -0.832361 0.49213)
(0.649784 -0.0905781 0.513701)
(0.0564813 -0.107615 0.0219783)
(0.19635 -0.219754 0.852299)
(0.296337 -0.130826 0.80507)
(1.70886 -0.187768 1.78402)
(2.47637 -0.231644 1.52272)
(2.26813 0.127379 1.97231)
(1.72044 -1.00972 1.1553)
(1.61457 -3.49483 0.215257)
(-0.841874 1.45283 0.333027)
(-0.598626 0.879975 -0.381873)
(-0.2192 0.354368 -1.02824)
(-0.241879 0.0955646 -1.09894)
(-0.609283 0.0609186 -0.897121)
(-0.330372 0.133476 -1.19026)
(0.0940266 0.0593689 -1.26998)
(0.0703528 0.0484633 -1.20898)
(-0.116129 -0.252169 -1.23316)
(0.0571415 -0.466995 -0.538132)
(0.454259 -0.272922 -0.297099)
(0.471673 0.412002 -0.167652)
(0.722841 0.828711 0.105665)
(1.1819 0.226882 0.00362834)
(0.729411 -0.533416 -1.46283)
(0.444266 0.145608 0.272034)
(1.19532 0.316969 0.0451526)
(1.40433 0.991233 -0.00947236)
(1.59771 1.04478 0.0484113)
(1.56052 0.81578 0.0693438)
(1.99745 0.792023 0.0442205)
(1.89176 0.752865 -0.010745)
(1.68972 0.618771 -0.031133)
(2.16326 0.703095 0.143289)
(2.21265 0.617321 0.331987)
(2.11999 0.611585 0.184309)
(1.771 0.853433 0.2268)
(2.44799 0.736704 0.0864545)
(2.41015 0.873161 0.0330642)
(2.42721 0.485846 -0.0287805)
(2.44109 -0.106183 -0.172854)
(2.35269 -0.224748 -0.212617)
(2.57142 0.0686265 0.322937)
(2.58587 0.320637 0.163947)
(2.63406 0.380526 0.0125451)
(2.59824 0.39263 -0.228923)
(2.66059 0.523922 -0.208794)
(2.56865 0.387831 -0.0556361)
(2.91873 0.0917531 0.260158)
(2.92299 -0.171947 0.226986)
(2.83075 -0.0140205 0.193533)
(2.72676 -0.0957136 0.126395)
(2.68819 0.00430949 0.132567)
(2.72786 0.309886 0.000241672)
(2.59494 0.269418 -0.0410676)
(3.08864 0.0126249 0.488829)
(3.06365 -0.288937 0.348239)
(3.16661 -0.259575 0.383979)
(3.16507 -0.320886 0.2115)
(3.13518 -0.20856 0.204856)
(3.05283 -0.198075 0.291564)
(3.02201 0.220887 -0.0471041)
(2.74757 -0.12306 -0.138568)
(3.43251 -0.647443 1.00881)
(3.32851 -0.721236 0.918334)
(3.32373 -0.804361 0.797611)
(3.40063 -0.527606 0.398524)
(3.21895 -0.681195 0.493229)
(3.32366 -0.384096 0.19115)
(2.99664 -0.932837 0.224325)
(2.98394 -0.549649 0.166055)
(2.84917 0.820133 0.241588)
(3.60678 -1.48232 1.45891)
(3.74398 -1.01533 1.32671)
(3.64083 -1.28922 0.896818)
(3.36852 -1.34676 0.990747)
(3.39923 -1.14148 0.671346)
(3.37273 -1.15576 0.621146)
(3.45153 -0.953403 0.610203)
(3.47082 -0.600257 0.497586)
(3.30242 -0.658215 0.38531)
(2.99761 -0.0879715 0.0219455)
(4.18378 -0.656373 2.18145)
(4.05856 -1.30973 2.03245)
(3.84348 -1.63915 1.86143)
(3.9586 -1.35499 1.52541)
(3.75588 -1.69663 1.29641)
(3.58843 -1.62068 1.09847)
(3.50069 -1.85006 0.875568)
(3.70508 -1.67047 0.763165)
(3.3494 -1.66787 0.583844)
(3.43064 -1.54848 0.27112)
(3.69272 -0.229151 -0.0928294)
(4.28147 -0.729521 2.65558)
(4.13298 -1.247 2.87832)
(3.97236 -1.93437 2.73498)
(3.58674 -2.59538 2.56475)
(3.79415 -2.47219 2.32994)
(3.96803 -1.91009 1.69635)
(3.65358 -1.93271 1.53704)
(3.56599 -2.02082 1.18388)
(3.75262 -2.13094 0.848668)
(3.62267 -2.1673 0.693272)