/*--------------------------------*- C++ -*----------------------------------*\
  =========                 |
  \\      /  F ield         | OpenFOAM: The Open Source CFD Toolbox
   \\    /   O peration     | Website:  https://openfoam.org
    \\  /    A nd           | Version:  7
     \\/     M anipulation  |
\*---------------------------------------------------------------------------*/
FoamFile
{
    version     2.0;
    format      ascii;
    class       volScalarField;
    location    "1.5";
    object      nut;
}
// * * * * * * * * * * * * * * * * * * * * * * * * * * * * * * * * * * * * * //

dimensions      [0 2 -1 0 0 0 0];

internalField   nonuniform List<scalar> 
18720
(
0.000104732
0.000338554
0.000178853
0.00014148
0.000117737
0.00033974
0.000344065
0.000374563
0.000250465
0.000115815
0.000174674
0.000150342
0.000104782
0.000359497
0.000489062
0.000502536
0.000258714
0.00023814
0.000330404
0.000313319
0.000263241
7.9598e-05
0.00029638
0.000170492
0.000153278
0.000213656
0.000596206
0.00031874
0.000451466
0.000290334
0.00025465
0.000597637
0.000294853
0.000262165
0.000191716
0.00038807
0.000329966
0.000230645
0.000199195
0.000132196
0.000267725
0.000166568
9.63303e-05
9.95303e-05
7.14829e-05
0.000785438
0.00063211
0.000538528
0.000475428
0.00022724
0.000477146
0.000383137
0.000202202
0.000197543
0.000542513
0.000326307
0.000273949
0.000253092
0.000181442
0.000284684
0.000343891
0.000148828
0.00015875
0.000103165
6.2336e-05
0.000101186
0.000130893
0.000129467
9.46588e-05
8.94705e-05
6.02776e-05
0.00042778
0.00069738
0.000824276
0.000678252
0.000459114
0.000478274
0.000593951
0.000397562
0.000220362
0.0005158
0.000336424
0.000245954
0.000208677
0.00020867
0.000454003
0.000312984
0.000253995
0.000218652
0.000138467
0.00011203
0.000287917
0.000289038
0.000207399
0.0001751
0.000157155
6.93737e-05
5.68755e-05
0.000135004
9.88336e-05
0.000137941
9.95219e-05
7.79943e-05
9.68854e-05
5.10435e-05
0.00043075
0.000394884
0.000575826
0.000550088
0.000686278
0.000740215
0.000584874
0.000627235
0.000340919
0.000429153
0.000596131
0.000439808
0.00023385
0.000188151
0.000531744
0.000355906
0.000312906
0.000236747
0.000174618
0.000133061
0.000403862
0.000375076
0.000408639
0.000222811
0.000177684
0.000109686
8.40816e-05
0.000299518
0.000253332
0.000220997
0.000238391
0.000205198
9.43542e-05
8.79832e-05
9.03829e-05
0.000194748
8.59616e-05
0.000142541
9.93009e-05
8.73994e-05
7.04691e-05
5.47226e-05
5.02811e-05
0.000433651
0.000438737
0.000444638
0.000431057
0.000553997
0.000756425
0.000737419
0.000471507
0.000574825
0.000660387
0.000495216
0.000594733
0.000460742
0.0002055
0.000403819
0.000558169
0.000523383
0.000343294
0.000158711
0.000178612
0.000472356
0.000479341
0.000276436
0.000232018
0.000217387
0.000169887
0.000123383
0.000359626
0.000431952
0.000290819
0.000232677
0.000171018
0.000155214
0.000105013
8.30903e-05
0.000270086
0.000271505
0.000205875
0.000176424
0.00013111
0.00012751
7.66358e-05
6.70607e-05
1.96711e-05
0.000150041
7.50427e-05
0.000109747
7.13002e-05
6.05071e-05
9.60779e-05
1.85742e-05
4.76134e-05
8.07453e-05
0.000735646
0.00073677
0.000674336
0.000461841
0.000378394
0.00062384
0.000567377
0.000366584
0.000421531
0.000800301
0.000652386
0.000562703
0.000435336
0.000427696
0.000602358
0.000526801
0.00051004
0.000512715
0.000344163
0.000179495
0.000414639
0.000557172
0.000525091
0.000412848
0.000227969
0.00016996
0.000188343
0.000493436
0.000597626
0.000343679
0.000224539
0.000212354
0.000195365
0.000159913
9.23745e-05
0.00032276
0.000478213
0.000303937
0.000246328
0.000212603
0.000169284
0.000122124
8.17154e-05
5.12975e-05
0.000240253
0.000273233
0.000285058
0.000103551
9.66635e-05
0.000123938
8.21072e-05
7.13803e-05
4.02002e-05
2.02075e-05
0.000148745
9.31137e-05
0.000126287
7.623e-05
8.10599e-05
8.16599e-05
2.44931e-05
7.20093e-05
7.32605e-05
4.89284e-05
0.000890052
0.0011877
0.000352812
0.000777486
0.00061233
0.000480934
0.000681364
0.000607969
0.000303532
0.000813802
0.000688163
0.00044796
0.000291947
0.000406646
0.00100143
0.000626419
0.000559357
0.000404723
0.000425514
0.000328285
0.000696217
0.000594586
0.000448183
0.000518864
0.000426573
0.000224776
0.000211699
0.000607872
0.000584757
0.000470895
0.000430848
0.000295187
0.000170045
0.000186255
0.000143666
0.000674604
0.000571768
0.000407941
0.000207843
0.000209165
0.000167418
0.000162884
0.000152756
9.19195e-05
0.000343116
0.000488754
0.000333333
0.000309278
0.000273089
0.000148228
0.000148771
9.59725e-05
5.72293e-05
3.4546e-05
0.000227173
0.000277044
0.000267828
0.000164826
0.000184823
0.000109601
0.000137308
7.5157e-05
4.87247e-05
3.16406e-05
2.51704e-05
0.000111695
7.85005e-05
0.000121183
0.000125495
9.87388e-05
9.57114e-05
7.3678e-05
1.46244e-05
2.10713e-05
3.10245e-05
1.10388e-05
0.000746587
0.000708999
0.000966068
0.00108896
0.00105347
0.000449175
0.000806981
0.000861773
0.000537285
0.000696362
0.000627972
0.000516427
0.000341748
0.000237449
0.00116138
0.000648474
0.000615531
0.000494799
0.000220754
0.000427666
0.00110908
0.000723118
0.000591798
0.000384471
0.000481706
0.000422741
0.000228844
0.000763839
0.000578093
0.000440492
0.000475654
0.000451214
0.000292612
0.000141674
0.000207094
0.000639102
0.000606116
0.000499706
0.00040712
0.000344344
0.000198229
0.000171988
0.000163527
0.000129302
0.000582779
0.000531187
0.000529125
0.000251297
0.000181807
0.000189137
0.000154628
0.00017593
0.000141966
5.25248e-05
0.000349777
0.000462603
0.000442421
0.000239922
0.000210949
0.00018557
0.000152372
0.000114036
8.18328e-05
6.1093e-05
3.24286e-05
0.000204236
0.000274386
0.00018763
0.000200274
0.000162433
0.000137368
0.000142605
8.22645e-05
5.21498e-05
3.38937e-05
3.54525e-05
1.57724e-05
0.000102175
6.98413e-05
7.17875e-05
0.000100861
6.9214e-05
6.21108e-05
3.85363e-05
1.53088e-05
3.25417e-05
1.13049e-05
1.67114e-05
1.56555e-05
0.000784822
0.00076901
0.00108431
0.000562558
0.000827076
0.000764872
0.000926269
0.000915892
0.000840418
0.000319003
0.000596979
0.000681928
0.000737434
0.000811078
0.000799561
0.000672261
0.000350088
0.000755146
0.000547599
0.000193885
0.00116851
0.000787278
0.000657236
0.000512764
0.000323488
0.000156981
0.000365837
0.00080211
0.0010056
0.000634313
0.000375748
0.000409127
0.000457786
0.000300882
0.000147525
0.000666318
0.000710854
0.000439012
0.000474614
0.000459459
0.000365056
0.00017289
0.000152128
0.000159237
0.000768155
0.000637466
0.000592167
0.0003456
0.000389861
0.000252405
0.00016651
0.00017036
0.000130831
0.000127445
0.000718191
0.000567202
0.00060761
0.00039254
0.000227686
0.00019965
0.000151661
0.000163905
0.000167793
9.13886e-05
6.65378e-05
0.00039942
0.000442554
0.00048224
0.000250873
0.000192116
0.000230648
0.000154796
0.000134138
9.2863e-05
5.70718e-05
6.1149e-05
3.86338e-05
0.000197332
0.000281811
0.000187635
0.00015875
0.000138888
0.000168017
6.84248e-05
9.57629e-05
5.78904e-05
3.67828e-05
3.76476e-05
2.62392e-05
1.43264e-05
0.000293605
7.51781e-05
6.99342e-05
7.18254e-05
9.58817e-05
7.40021e-05
4.40077e-05
8.08605e-05
2.28034e-05
4.03533e-05
3.28686e-05
9.97207e-06
1.3481e-05
0.000568984
0.000617396
0.000494432
0.000670542
0.000526361
0.0010524
0.000834512
0.000536305
0.000872299
0.000636534
0.000800959
0.00116907
0.00107166
0.000967778
0.000793653
0.000389688
0.000727947
0.000939799
0.00084336
0.000598788
0.00107716
0.000644795
0.000581911
0.000536213
0.000367111
0.000510874
7.23934e-05
0.000981115
0.0010719
0.000667806
0.000623068
0.000447427
0.000235515
0.00017049
0.000257381
0.000600001
0.0011773
0.000654764
0.000462631
0.000375685
0.000494138
0.000407239
0.000154769
0.000133402
0.00052919
0.000742437
0.000478293
0.000478763
0.000470175
0.000387988
0.000220083
0.000153865
0.000138754
0.000182013
0.00090115
0.000603345
0.000685858
0.000377976
0.000368197
0.000329782
0.000190454
0.000148274
0.000146534
0.000228768
0.000133288
0.000918821
0.000561399
0.000639239
0.000489781
0.000361139
0.000197429
0.000157702
0.000139756
0.000160956
0.000113132
0.000138079
5.76943e-05
0.000429421
0.000401388
0.000470151
0.000303218
0.00022278
0.000196809
0.000168118
0.000145054
9.65778e-05
6.20838e-05
6.1141e-05
6.5126e-05
2.86661e-05
0.000189248
0.00027229
0.000192322
0.000157557
0.000158101
0.000141983
0.000250972
9.66386e-05
7.65246e-05
3.80857e-05
3.57423e-05
3.79956e-05
3.50558e-05
1.20291e-05
0.000189835
0.00010848
0.00010241
7.31537e-05
7.731e-05
8.73409e-05
6.3291e-05
5.35798e-05
3.39241e-05
1.51709e-05
2.21463e-05
1.24244e-05
1.33966e-05
2.31696e-05
0.000303851
0.000543392
0.000772869
0.000471403
0.000430914
0.000784058
0.000696396
0.000635994
0.000494411
0.000890464
0.00102504
0.000867252
0.000668924
0.000797921
0.000788249
0.000919265
0.00091418
0.00111541
0.000849302
0.00110901
0.00096946
0.000580988
0.000531997
0.000599026
0.000778175
0.00091551
0.000524619
0.00098508
0.00078837
0.000519858
0.000376088
0.000487123
0.000439392
0.00050081
0.000262557
0.000771134
0.00112249
0.000816903
0.000683336
0.000509652
0.000354512
0.000242703
0.000291085
0.000128223
0.00047443
0.000998574
0.000797615
0.000550912
0.000422469
0.000489488
0.00046735
0.000207451
0.000113946
0.000135221
0.000534351
0.000644759
0.000643984
0.000445668
0.000475841
0.000405141
0.000281922
0.000143392
0.000154904
0.000113076
0.000178331
0.000589892
0.000701575
0.000747133
0.000528565
0.00034411
0.000373953
0.000235094
0.000139396
0.000133142
0.000138945
0.000164013
0.000157465
0.000438569
0.000529369
0.000644168
0.000506446
0.000401516
0.000242243
0.000162354
0.000132708
0.000142249
0.000143995
0.000108115
0.000143404
8.21921e-05
0.000427861
0.000361381
0.000484378
0.000344228
0.000274817
0.000180239
0.000168485
0.000128709
0.000113957
7.31988e-05
5.19074e-05
7.33542e-05
8.74982e-05
4.76852e-05
0.000180051
0.000270796
0.000229634
0.000160734
0.000160212
0.000141162
0.000161061
8.56841e-05
8.76774e-05
3.7596e-05
3.19227e-05
4.01594e-05
3.07817e-05
7.12923e-05
3.12732e-05
8.77222e-05
0.000186264
5.77271e-05
7.02258e-05
7.62731e-05
7.33772e-05
6.47582e-05
2.54877e-05
2.00062e-05
1.87627e-05
1.04224e-05
2.59724e-05
1.10723e-05
1.92439e-05
6.45167e-05
0.000335225
0.000536424
0.000422123
0.000433033
0.000629194
0.000706529
0.000789175
0.00064482
0.000669104
0.0010284
0.000741071
0.000552864
0.000705408
0.000457325
0.00104739
0.00103007
0.000984389
0.000991625
0.000294543
0.000887865
0.00076312
0.000750561
0.000607129
0.00111183
0.000862929
0.00098365
0.00100862
0.00105388
0.000701192
0.000494109
0.000594698
0.000611261
0.000911271
0.000969552
0.000576465
0.000820338
0.000997343
0.000621067
0.000586253
0.000384026
0.000328888
0.000456782
0.000428913
0.000321378
0.000650154
0.000998067
0.000958618
0.000722965
0.000655806
0.000471288
0.000307592
0.000376426
0.000237131
0.000111143
0.000473411
0.000767721
0.000971665
0.000632352
0.000511297
0.000491545
0.000501242
0.00026794
0.000123727
7.80171e-05
9.95512e-05
0.000698756
0.000619867
0.000710456
0.000501009
0.000537463
0.00045392
0.000307127
0.000186021
0.000142063
0.000165231
7.10997e-05
6.98558e-05
0.000542739
0.000967251
0.000751378
0.00071338
0.000407524
0.000355894
0.000312153
0.000176022
0.000119684
0.000165874
0.000152065
6.80106e-05
8.97637e-05
0.000616937
0.000632732
0.000634246
0.000597573
0.000364376
0.000318824
0.000155743
0.000147005
0.000108593
0.00015295
9.39373e-05
0.000169067
7.7603e-05
0.000100423
0.000469358
0.000334567
0.000468915
0.000390954
0.00025204
0.000205132
0.000156368
0.000124628
0.000116259
9.16436e-05
5.26248e-05
8.5787e-05
7.46925e-05
9.77355e-05
8.89096e-05
0.000189387
0.000239429
0.000234787
0.000170851
0.000149543
0.000144861
0.000143578
9.36013e-05
8.62697e-05
5.07131e-05
3.08479e-05
3.76653e-05
3.03607e-05
5.86693e-05
9.11445e-05
7.7415e-05
7.61791e-05
0.000102997
7.95094e-05
6.38263e-05
6.39588e-05
6.56178e-05
8.28668e-05
3.31696e-05
1.74181e-05
4.25698e-05
4.96675e-05
1.43452e-05
1.34258e-05
1.62504e-05
5.22849e-05
8.84104e-05
0.000460597
0.000396082
0.000356805
0.000473563
0.000388874
0.00071028
0.00043775
0.000553606
0.000588395
0.000578355
0.000739732
0.000784641
0.000509892
0.000459978
0.000993241
0.000771014
0.000842576
0.00059601
0.000589049
0.000301731
0.0012414
0.000941838
0.00115779
0.000974583
0.00055521
0.000469355
0.000753745
0.000766775
0.000555629
0.000713744
0.000763557
0.000915414
0.000912289
0.00087091
0.00108388
0.000639234
0.000981656
0.000719968
0.000442112
0.000586721
0.000878612
0.000916749
0.00120272
0.000506179
0.00075058
0.00109245
0.000690991
0.000513311
0.000508378
0.000245094
0.000310205
0.000339941
0.00039805
0.000203828
0.000631865
0.000906862
0.00101403
0.00076363
0.000756556
0.000571785
0.000405304
0.000449123
0.000303306
0.000117394
0.000102412
0.000509127
0.000629948
0.000919086
0.000701824
0.000586236
0.000534524
0.000592226
0.000358883
0.000144814
0.00012894
7.84652e-05
5.86839e-05
0.000552845
0.000685299
0.000662678
0.00068898
0.000552628
0.000514999
0.000367584
0.000236369
0.000157069
0.000115413
8.9495e-05
8.21677e-05
9.26286e-05
0.000523419
0.000768823
0.000770176
0.000845726
0.000553383
0.000361262
0.000325557
0.000222725
0.000112783
0.000105451
0.000142905
0.000117796
6.6676e-05
5.87258e-05
0.000529968
0.000645456
0.000572468
0.000688229
0.000400251
0.000359826
0.000185434
0.000121636
0.000113823
0.000122577
0.000119267
0.000120958
0.000132214
6.11945e-05
7.57333e-05
0.000457291
0.000342293
0.00045015
0.000430362
0.000264202
0.000229249
0.000178878
0.000120765
0.0001066
0.000108898
6.01595e-05
7.32132e-05
7.01142e-05
9.3123e-05
6.80045e-05
9.85684e-05
0.000202625
0.000266608
0.000242858
0.000185831
0.00015317
0.000139627
0.000156735
0.000114394
7.95523e-05
6.2778e-05
2.87293e-05
3.55682e-05
3.67763e-05
4.61379e-05
8.72602e-05
8.14575e-05
8.67285e-05
0.000113581
0.000101746
6.74641e-05
7.52973e-05
5.72264e-05
6.81196e-05
7.49331e-05
5.99407e-05
1.93362e-05
3.27017e-05
2.24133e-05
1.45493e-05
1.66776e-05
1.6888e-05
3.83132e-05
8.98874e-05
6.46067e-05
0.000409009
0.000659071
0.000601667
0.000469754
0.000483045
0.00053872
0.000591431
0.000490522
0.000472473
0.000372308
0.000710309
0.000560666
0.000422451
0.000608886
0.000640095
0.000489549
0.000823648
0.000778687
0.000484787
0.000548841
0.00104958
0.00110413
0.000842726
0.000547427
0.000607989
0.000499503
0.000655229
0.000394202
0.00109246
0.0010209
0.00107179
0.000808785
0.000567012
0.00060426
0.000807521
0.000381174
0.0010099
0.000473964
0.000687401
0.000692228
0.000948392
0.000969298
0.00118751
0.00123905
0.000308749
0.00107357
0.000713258
0.000698133
0.000412884
0.000805693
0.000830186
0.00117636
0.00113491
0.00047814
0.000596606
0.00112146
0.000738735
0.000741332
0.000568069
0.000344552
0.000211346
0.000273641
0.000314068
0.000337554
0.000114079
0.000580751
0.000869214
0.000961676
0.00084583
0.000846078
0.000689697
0.000467243
0.000492061
0.000388445
0.000122876
9.18308e-05
6.4431e-05
0.000591811
0.000648179
0.000758938
0.000756018
0.000628337
0.000605157
0.000591387
0.000427145
0.000184049
0.00014505
0.000106425
6.05341e-05
4.51889e-05
0.000366616
0.000646397
0.000766899
0.000779278
0.000606814
0.000557128
0.000447973
0.00026768
0.000194119
0.000111143
0.000114753
9.68592e-05
6.8689e-05
0.000108668
0.000601369
0.000695655
0.000847739
0.000844288
0.00075024
0.000418233
0.000304384
0.000252174
0.000147548
8.21874e-05
0.000137629
0.000119152
8.26456e-05
7.30419e-05
6.97923e-05
0.000340298
0.000653325
0.00048045
0.000692304
0.000518873
0.000347873
0.0002411
0.000105692
0.000118928
8.92957e-05
0.000119636
9.14452e-05
0.000148293
8.75285e-05
6.78275e-05
3.63865e-05
0.000422598
0.000379275
0.000395382
0.000457721
0.00030477
0.000223503
0.000220238
0.000112929
0.000101696
8.81663e-05
7.05377e-05
5.70347e-05
7.68228e-05
7.52002e-05
9.34603e-05
3.91523e-05
6.65771e-05
0.000197144
0.000224948
0.000233048
0.000201792
0.00016434
0.000133612
0.000139819
0.000101935
8.51055e-05
6.45345e-05
3.28334e-05
3.4581e-05
3.96458e-05
3.96275e-05
7.57038e-05
8.78964e-05
4.06742e-05
3.06207e-05
5.28141e-05
0.000252074
6.6292e-05
6.24656e-05
5.9397e-05
6.31006e-05
5.80537e-05
6.37931e-05
2.21786e-05
3.18309e-05
2.54081e-05
2.00277e-05
1.33775e-05
1.87816e-05
2.97576e-05
8.16466e-05
7.92281e-05
4.09505e-05
0.000378992
0.00049416
0.000266581
0.00030255
0.000495718
0.000630538
0.000523341
0.000447627
0.000581288
0.000680316
0.000589272
0.000641264
0.000438202
0.000563736
0.000478665
0.000594007
0.000631671
0.000680184
0.000494169
0.000583571
0.000927537
0.000644228
0.000790152
0.000831879
0.000701982
0.000440616
0.00048736
0.000882967
0.0010061
0.000934551
0.000629321
0.000328569
0.00059613
0.000353766
0.000620246
0.000788719
0.000788035
0.00100555
0.00100607
0.00107208
0.00068567
0.000711197
0.000567705
0.00122
0.000333322
0.000733108
0.00111922
0.000638001
0.000848277
0.000843036
0.00113598
0.00105817
0.00140838
0.00114735
0.00049436
0.000682425
0.0010181
0.000489374
0.000426645
0.000588847
0.000741034
0.00105724
0.00115992
0.000908867
0.00032726
0.000406828
0.000969609
0.00102471
0.000783029
0.00064476
0.000423073
0.000290035
0.000269102
0.000155583
0.000329683
0.000264305
0.000134419
0.000563261
0.000726498
0.000905961
0.00106328
0.00081102
0.000752868
0.00053244
0.00051412
0.000447744
0.000189206
5.04903e-05
0.000148718
4.9229e-05
0.000797665
0.00068806
0.000573385
0.000843392
0.000703529
0.000632916
0.000601445
0.000482035
0.000245303
0.00011939
0.000136389
8.93382e-05
6.07983e-05
3.92352e-05
0.000615462
0.000597058
0.000927837
0.00074413
0.000812121
0.000588492
0.000493096
0.000339629
0.000228796
0.000151613
9.08534e-05
8.91392e-05
0.000107491
4.28566e-05
9.28656e-05
0.000600015
0.000766167
0.00112008
0.000760768
0.000853575
0.000536651
0.000325278
0.000253605
0.00020746
9.10331e-05
0.000101862
0.000116321
0.000102716
5.89821e-05
6.61774e-05
7.74348e-05
0.000357477
0.000683306
0.000515754
0.000618637
0.000611406
0.000354205
0.000280041
0.000124209
0.000103865
0.000100418
0.000112443
0.000114011
9.83532e-05
0.000123535
6.8113e-05
7.05784e-05
4.84306e-05
0.000425709
0.000384963
0.000366783
0.000446138
0.00034609
0.000223463
0.000231146
0.000121533
9.79374e-05
8.28536e-05
7.94991e-05
5.75669e-05
6.97938e-05
6.64323e-05
8.31494e-05
6.65485e-05
4.29295e-05
2.58022e-05
0.000222552
0.000217738
0.000229379
0.000211745
0.000172479
0.000137858
0.000132292
0.000135151
6.46866e-05
7.4977e-05
4.06723e-05
3.19075e-05
3.9123e-05
3.73399e-05
6.18381e-05
8.53747e-05
6.76581e-05
3.09968e-05
5.95781e-05
6.15999e-05
0.000246215
8.93057e-05
6.83244e-05
5.88495e-05
5.11577e-05
6.74014e-05
6.73285e-05
2.79704e-05
3.06996e-05
2.27843e-05
9.95452e-06
1.32213e-05
1.81396e-05
2.37988e-05
7.12194e-05
8.64721e-05
1.80917e-05
6.22892e-05
0.000426966
0.000490199
0.00036131
0.000336582
0.000335425
0.000418798
0.000333284
0.000331972
0.00046758
0.000812639
0.000533274
0.000388799
0.000443159
0.000642989
0.000553643
0.000852057
0.000541601
0.000485381
0.000346314
0.000460319
0.000442478
0.000433937
0.000904847
0.000634453
0.000686406
0.000358587
0.000543607
0.000735413
0.000781842
0.000685659
0.000630016
0.000732332
0.000576831
0.000315721
0.000387478
0.000433021
0.000975146
0.00102617
0.00115593
0.000625713
0.000353726
0.000629281
0.000255173
0.000543621
0.000414181
0.00070591
0.000825652
0.00087211
0.00100315
0.000795879
0.000625706
0.000625779
0.000729393
0.00140713
0.000348195
0.000529262
0.00073631
0.000675098
0.000797983
0.000663976
0.00107008
0.00121425
0.00157636
0.00147904
0.000977119
0.000348914
0.000626488
0.00099639
0.000758889
0.000481999
0.00044894
0.000668434
0.000840922
0.00111213
0.000924643
0.000794484
0.000257562
0.000438289
0.000768912
0.00118942
0.000672384
0.000843849
0.000541605
0.000377533
0.000351204
0.000121389
0.000344133
0.000388332
0.000214919
0.000150533
0.000639522
0.000641133
0.000832508
0.0011713
0.000877275
0.000801402
0.00061394
0.000542646
0.000479496
0.000273882
7.91802e-05
0.000136681
0.00013009
5.72355e-05
0.000871378
0.000746322
0.000658323
0.000873731
0.000840533
0.00064348
0.000623163
0.000507134
0.00032092
0.000152027
0.000163926
9.45154e-05
6.51305e-05
6.59844e-05
4.00803e-05
0.000849835
0.000600957
0.000909747
0.000832829
0.000914791
0.000661786
0.000536899
0.000394323
0.000257623
0.000201964
9.31032e-05
0.000105953
8.22584e-05
6.81802e-05
5.14075e-05
9.15457e-05
0.000576904
0.000649477
0.00124861
0.000726286
0.00083535
0.000647236
0.000367456
0.000238918
0.000204672
0.000133749
7.95384e-05
0.000107981
9.19102e-05
8.2115e-05
5.38443e-05
6.16438e-05
6.98606e-05
0.000296737
0.000644642
0.000597757
0.000520599
0.000619586
0.000394913
0.000293285
0.000155635
9.30321e-05
0.000103288
7.98086e-05
0.000116414
8.13442e-05
0.000114537
9.03508e-05
7.07404e-05
5.73928e-05
5.3754e-05
0.000320286
0.000406129
0.000376415
0.000400578
0.000367357
0.000241879
0.000214213
0.00013359
8.40925e-05
8.38734e-05
8.3893e-05
5.99431e-05
5.60667e-05
6.46378e-05
7.15286e-05
8.37647e-05
4.41341e-05
4.39594e-05
3.90763e-05
0.000292058
0.000235545
0.000220048
0.000208158
0.000177793
0.000141366
0.000124029
0.000191633
7.70273e-05
6.92272e-05
4.40575e-05
2.953e-05
3.98993e-05
3.80798e-05
5.031e-05
7.90226e-05
7.57577e-05
3.34706e-05
2.98063e-05
6.52401e-05
8.53844e-05
6.55005e-05
6.86958e-05
9.80966e-05
5.86754e-05
4.96318e-05
6.2786e-05
3.41351e-05
5.50109e-05
2.65709e-05
4.3984e-05
9.82013e-06
1.51615e-05
1.84405e-05
1.99828e-05
5.86868e-05
8.88467e-05
4.87462e-05
5.72924e-05
5.42867e-05
0.000581227
0.000424912
0.000441253
0.000449311
0.000421411
0.000494739
0.000366082
0.000393734
0.000368911
0.00037657
0.000346413
0.000402136
0.000379799
0.000374765
0.000766453
0.000586312
0.000448953
0.000364107
0.000346244
0.000540428
0.000540833
0.000590381
0.000553744
0.000702314
0.000387769
0.000392171
0.000524833
0.000581198
0.000591805
0.00077452
0.000823684
0.000589471
0.000622492
0.000400119
0.000564083
0.000488057
0.000678039
0.000664708
0.000525847
0.000879198
0.000555132
0.000695511
0.000377663
0.000455886
0.000526277
0.00127921
0.00140383
0.00113002
0.000885333
0.000424494
0.000370599
0.000378336
0.000456062
0.000838354
0.000457124
0.000465835
0.000671519
0.00109167
0.000935991
0.000920669
0.000731289
0.000893999
0.000679578
0.000916345
0.00158185
0.000445095
0.000535394
0.000925012
0.00102444
0.000367723
0.000659686
0.000949892
0.00121015
0.00135885
0.0016207
0.001561
0.000750127
0.000409592
0.000357067
0.000972705
0.00101582
0.000416234
0.000387126
0.000595836
0.000615397
0.00097741
0.000977158
0.000868981
0.000725623
0.000170507
0.000636152
0.000421857
0.0010818
0.000839853
0.00092073
0.000659615
0.000502864
0.0005019
0.000219119
0.000302857
0.000393587
0.000337251
0.000184653
0.000145423
0.000527212
0.00078868
0.000592476
0.000981264
0.00113694
0.000778635
0.000671589
0.000517967
0.000515005
0.000345349
0.000157306
6.309e-05
0.000145086
8.05527e-05
7.7128e-05
0.000935301
0.00108016
0.000716638
0.000554706
0.000916316
0.000736721
0.00062182
0.000542345
0.000370591
0.000181937
0.000148751
0.000118101
8.38857e-05
5.75368e-05
7.93947e-05
6.718e-05
0.000796787
0.000708563
0.000702085
0.00104207
0.000740644
0.000793807
0.000575746
0.000407104
0.000301505
0.000226326
0.00011564
7.84814e-05
7.5906e-05
6.87706e-05
4.67615e-05
6.3615e-05
7.52741e-05
0.000812939
0.000729271
0.00105524
0.000857773
0.000701322
0.000687451
0.000441913
0.000246625
0.000184706
0.000189016
8.10756e-05
7.56881e-05
0.000101438
8.28858e-05
5.95326e-05
4.90192e-05
5.90986e-05
4.9635e-05
0.000283775
0.000628844
0.000684075
0.000470595
0.000552107
0.000436594
0.000301681
0.000201726
9.31151e-05
9.87182e-05
7.79159e-05
9.21732e-05
0.000100255
7.82855e-05
0.000112288
6.65735e-05
6.92406e-05
4.21917e-05
4.57715e-05
0.000234764
0.000325967
0.000401358
0.000356077
0.00035817
0.000257282
0.000190222
0.000182286
8.20903e-05
8.27411e-05
7.33691e-05
6.4884e-05
5.33856e-05
5.94836e-05
7.57366e-05
7.23821e-05
5.89701e-05
4.42296e-05
3.45713e-05
3.13851e-05
0.000188417
0.000225029
0.000250581
0.000202264
0.000178522
0.000146329
0.000130051
0.000110469
9.64883e-05
5.37174e-05
4.71e-05
3.00673e-05
3.96133e-05
3.73138e-05
4.22481e-05
6.7947e-05
7.81176e-05
5.28595e-05
2.92766e-05
1.97834e-05
5.19137e-05
8.68118e-05
4.97598e-05
7.29623e-05
7.55322e-05
6.8679e-05
5.36367e-05
5.45449e-05
3.05554e-05
5.61955e-05
6.36869e-05
4.11671e-05
2.34449e-05
1.13866e-05
2.07279e-05
1.80757e-05
4.65839e-05
8.52832e-05
6.85324e-05
4.02794e-05
5.74604e-05
3.95116e-05
0.000904397
0.00050357
0.000625578
0.000543955
0.000427635
0.000412669
0.000526649
0.000438449
0.000447043
0.000425759
0.000434062
0.000384891
0.000435599
0.000379283
0.000366662
0.000423026
0.000401878
0.000521241
0.000417456
0.000414945
0.000869798
0.000476752
0.000465711
0.00046943
0.000480888
0.000308012
0.000450192
0.000397788
0.000702653
0.000672444
0.000450665
0.000642427
0.000252004
0.00039824
0.000499502
0.000428764
0.000705104
0.000638686
0.00071083
0.000716145
0.000709832
0.000429944
0.000438182
0.000513807
0.00044598
0.000750171
0.0010701
0.000833807
0.000469343
0.000690197
0.000518931
0.000388824
0.000498964
0.000543312
0.000527553
0.000782893
0.000655018
0.00112105
0.00118956
0.000628816
0.000368394
0.000490844
0.000337018
0.000352214
0.0011691
0.000282963
0.00053256
0.000708034
0.000829111
0.000761663
0.000912975
0.00100926
0.00077035
0.000863731
0.00123362
0.00111406
0.00169671
0.000431311
0.000468294
0.000925731
0.00064603
0.000898161
0.00054866
0.000942503
0.000968983
0.00136945
0.00177237
0.00152124
0.00171863
0.000585157
0.000253511
0.000370934
0.000837107
0.0010013
0.000681458
0.000524301
0.000487492
0.000476899
0.000764358
0.000873019
0.000872738
0.000784157
0.000360187
0.000197647
0.000833592
0.000415337
0.000809628
0.00108405
0.000949731
0.000845536
0.00065057
0.000595479
0.000287125
0.000220085
0.000362091
0.000337763
0.000263239
0.000192533
0.000117407
0.000376744
0.000596496
0.000546207
0.000667702
0.00122508
0.000829199
0.000654888
0.000525364
0.000527585
0.000377784
0.000213208
9.17077e-05
0.000105747
9.8412e-05
9.19979e-05
0.000101491
0.000988928
0.00147827
0.000760196
0.000347164
0.000720337
0.000838905
0.000656948
0.000561657
0.000392121
0.000244625
0.00014439
0.000136039
0.000112442
5.47259e-05
6.64654e-05
8.74378e-05
6.35512e-05
0.000618406
0.00064448
0.000779748
0.000702653
0.000617967
0.000885183
0.000581044
0.000433548
0.000316953
0.000229805
0.000161581
7.22916e-05
6.24256e-05
6.33829e-05
4.5832e-05
5.01289e-05
6.32389e-05
7.18921e-05
0.000639865
0.00075271
0.000762559
0.00101519
0.000578365
0.000702788
0.000506402
0.000272262
0.000185411
0.000156978
0.000117742
6.38845e-05
7.88602e-05
9.42426e-05
6.57408e-05
4.35315e-05
4.51668e-05
5.15199e-05
3.66761e-05
0.000229874
0.000533459
0.000690531
0.000477126
0.000469959
0.000459853
0.00031728
0.000247089
0.00011759
0.000101407
9.03831e-05
7.23889e-05
9.03007e-05
6.69499e-05
8.73891e-05
7.98732e-05
5.9667e-05
5.35379e-05
3.37477e-05
3.32402e-05
0.000276044
0.000328598
0.000341139
0.000347579
0.0003338
0.000265305
0.000174637
0.000248017
9.97808e-05
7.78307e-05
6.58603e-05
6.84025e-05
5.54339e-05
5.41406e-05
6.78174e-05
7.23358e-05
7.1504e-05
4.53116e-05
3.74384e-05
3.15101e-05
1.99044e-05
0.00026496
0.000229922
0.000207486
0.000199903
0.000175206
0.000150279
0.000120966
0.000116993
0.000120743
6.27776e-05
5.98436e-05
3.24824e-05
3.62642e-05
3.66707e-05
3.82728e-05
5.87903e-05
7.31735e-05
6.25099e-05
3.19774e-05
2.14711e-05
1.63144e-05
3.60407e-05
6.63021e-05
0.000174534
9.20407e-05
6.67151e-05
6.11647e-05
5.19659e-05
4.60771e-05
3.8723e-05
4.03209e-05
4.74298e-05
2.2423e-05
3.46489e-05
1.04622e-05
1.96099e-05
1.73161e-05
3.69835e-05
7.81024e-05
7.94031e-05
1.89537e-05
5.39339e-05
4.43946e-05
3.03734e-05
0.00129864
0.000788274
0.000823708
0.000900806
0.000484459
0.000634588
0.000535773
0.000602408
0.000416877
0.000435912
0.000376594
0.000397827
0.00042761
0.000468875
0.000373032
0.000573624
0.000312128
0.000498032
0.000467197
0.000441793
0.000445982
0.000381013
0.000449427
0.000395652
0.000383211
0.000364633
0.000358454
0.000694123
0.000576933
0.000418946
0.000493143
0.000454856
0.000527625
0.000412342
0.00028077
0.00056215
0.00051689
0.000746125
0.000622643
0.00053283
0.000470834
0.000368827
0.000360129
0.000499035
0.000329027
0.000533056
0.000549795
0.000765674
0.000901407
0.00053717
0.000694762
0.000335315
0.000375173
0.000258559
0.000334399
0.000655007
0.000535985
0.00103954
0.000717549
0.000656241
0.000554287
0.000500855
0.000231945
0.000284889
0.000333465
0.000270883
0.000499718
0.00111679
0.00161763
0.000885366
0.00108014
0.000340171
0.000269433
0.000419536
0.000439508
0.000503738
0.00141513
0.000572939
0.000218584
0.000890891
0.000851681
0.000787101
0.000640053
0.000945058
0.000933251
0.000761923
0.00110818
0.00117016
0.00186092
0.00149823
0.000275486
0.000418292
0.00086042
0.00121863
0.000577365
0.000696908
0.00083121
0.000997795
0.00113032
0.00146254
0.00155296
0.00179411
0.00131453
0.000209725
0.000512035
0.000356554
0.000452155
0.00111744
0.000891883
0.000630163
0.000486367
0.000467374
0.000535282
0.000773267
0.000829044
0.000779907
0.000448915
0.000204366
0.000207752
0.000514962
0.000561378
0.000576623
0.000955416
0.00108676
0.000898077
0.000765641
0.000655498
0.000371224
0.000313205
0.000341335
0.000354937
0.000267174
0.000198082
0.000178708
0.000103532
0.000951935
0.000819289
0.000565446
0.000444536
0.00101837
0.00103011
0.00060185
0.000548184
0.000508654
0.000418279
0.000240188
0.000159013
7.37335e-05
0.000114446
8.70613e-05
0.000113765
0.000104371
0.00102949
0.000752729
0.000852467
0.000519987
0.000446205
0.000846127
0.000696194
0.000592912
0.000415879
0.000289102
0.000164779
9.49621e-05
0.000115344
8.29157e-05
5.52022e-05
7.32376e-05
0.000100201
5.31759e-05
0.000471322
0.000926298
0.000998319
0.000457488
0.000681654
0.000791853
0.000603883
0.000460035
0.000292064
0.000244354
0.000183028
9.17841e-05
4.80178e-05
5.0626e-05
6.11254e-05
3.96219e-05
5.72912e-05
6.28844e-05
5.72045e-05
0.000592306
0.000885008
0.00081748
0.00108948
0.000539529
0.000650042
0.000537851
0.000340113
0.000190451
0.000148005
0.00015988
6.3548e-05
5.16683e-05
7.36031e-05
8.46518e-05
5.02289e-05
4.19463e-05
3.67168e-05
4.80081e-05
3.23942e-05
0.000288276
0.000528663
0.000671844
0.000504298
0.000425434
0.000443536
0.000323091
0.000255806
0.000148548
0.00011768