/*--------------------------------*- C++ -*----------------------------------*\
  =========                 |
  \\      /  F ield         | OpenFOAM: The Open Source CFD Toolbox
   \\    /   O peration     | Website:  https://openfoam.org
    \\  /    A nd           | Version:  7
     \\/     M anipulation  |
\*---------------------------------------------------------------------------*/
FoamFile
{
    version     2.0;
    format      ascii;
    class       surfaceScalarField;
    location    "1.5";
    object      phi;
}
// * * * * * * * * * * * * * * * * * * * * * * * * * * * * * * * * * * * * * //

dimensions      [0 3 -1 0 0 0 0];

internalField   nonuniform List<scalar> 
54006
(
-0.00016491
0.000599649
-0.000427301
7.33012e-06
-0.000228118
0.00134169
-0.00124483
4.34519e-05
-0.000159858
7.25041e-06
-0.000181279
-0.000237705
8.08656e-06
-0.000139074
0.000646759
-0.000508477
8.12185e-06
-0.000206215
0.00183184
-0.00183768
0.000204348
-0.000223086
4.39144e-05
-0.000260868
-0.00112923
5.67494e-05
-0.000209098
0.00113752
-0.00106324
3.9193e-05
-0.000134666
8.00054e-06
-0.000180585
-4.8595e-05
8.5034e-06
-0.00015794
-0.000351759
9.3102e-06
-0.000113408
0.000813187
-0.000698868
7.2116e-06
-0.000140919
0.00282674
-0.0028298
0.000238699
-0.000198665
0.000183422
-0.000283454
-0.00180812
0.000230846
-0.000195572
0.00177996
-0.00172985
0.000140704
-0.000200514
3.87804e-05
-0.000286678
-0.000988351
5.92754e-05
-0.000240753
-0.000965696
4.20162e-05
-0.00017978
0.00116631
-0.0010951
3.43547e-05
-0.000108303
8.91665e-06
-0.000183281
0.000143337
6.75123e-06
-0.000164219
-0.000188209
9.17198e-06
-0.000129304
-0.000568697
8.44331e-06
-8.7709e-05
0.00101167
-0.000924066
7.31977e-06
9.59302e-05
0.00303053
-0.00314522
0.000319675
-0.000108298
0.0002298
-0.000228237
-0.00281078
0.000271949
-0.000138125
0.00228352
-0.00230512
0.000202856
-0.000190212
0.000134386
-0.000357557
-0.00173095
0.000224291
-0.000233002
-0.00166876
0.000162008
-0.000176829
0.00162858
-0.00158692
9.60854e-05
-0.000161839
3.45894e-05
-0.000309365
-0.000826932
6.57305e-05
-0.000262586
-0.000848894
4.08412e-05
-0.000219585
-0.000998587
3.5782e-05
-0.000127551
0.00135213
-0.00131032
3.23868e-05
-7.90887e-05
8.82972e-06
-0.000184799
0.000336878
5.0537e-06
-0.000169822
-2.0732e-05
9.09661e-06
-0.000135626
-0.00043222
8.32073e-06
-0.000104111
-0.000819267
7.75387e-06
-7.14645e-05
0.00120203
-0.00113175
8.50309e-06
0.000461011
0.001919
-0.00225372
0.000464211
0.000146868
0.000292065
-2.01312e-05
-0.00322266
0.000399582
6.62847e-05
0.00240296
-0.00254197
0.000254275
-0.000130383
0.000197116
-0.000317833
-0.00277642
0.000280191
-0.00016732
-0.00232854
0.000229687
-0.000120478
0.00192144
-0.00193914
0.000164204
-0.000144061
9.88648e-05
-0.000429932
-0.00160625
0.000218681
-0.000282276
-0.00159457
0.000169789
-0.000221241
-0.00153344
0.000110188
-0.00011392
0.001521
-0.00151537
7.68245e-05
-0.000117439
3.39943e-05
-0.00033213
-0.000640667
6.77279e-05
-0.000279888
-0.000714741
4.16432e-05
-0.000232499
-0.000896816
3.59429e-05
-0.000175325
-0.00123864
3.53166e-05
-0.000101011
0.00146419
-0.00143721
3.49478e-05
-6.54825e-05
7.91063e-06
-0.000185256
0.000531006
3.94109e-06
-0.000174944
0.000150482
8.78413e-06
-0.000138803
-0.000292686
8.36626e-06
-0.000110223
-0.00070823
7.50649e-06
-8.61401e-05
-0.00104655
8.69232e-06
-5.86769e-05
0.00125724
-0.00119924
9.17493e-06
0.000718436
0.00211311
-0.0023152
0.000394116
0.000499599
0.000362349
0.000385747
-0.00261557
0.000601897
0.000399042
0.00173543
-0.00202708
0.000423105
8.77334e-05
0.000257483
-0.000183208
-0.00324503
0.00043951
7.19502e-05
-0.00267734
0.000295678
6.24881e-05
0.00179097
-0.00195447
0.000234811
-9.66356e-05
0.00016241
-0.000404932
-0.00273298
0.000287915
-0.000208217
-0.00235567
0.000233256
-0.000163733
-0.0019502
0.000183233
-6.28225e-05
0.00178261
-0.00180354
0.000134032
-0.00010054
7.91991e-05
-0.000490669
-0.00145133
0.000220308
-0.000308723
-0.00151256
0.000165512
-0.000244583
-0.00146666
0.000115087
-0.000180783
-0.00148649
8.67694e-05
-8.72617e-05
0.00154162
-0.00155617
7.76238e-05
-8.6895e-05
3.5065e-05
-0.000353223
-0.000432589
6.75763e-05
-0.000294868
-0.000565112
3.80233e-05
-0.000255108
-0.000777457
3.85881e-05
-0.000186556
-0.0011615
3.51318e-05
-0.000127593
-0.00139893
3.84883e-05
-8.67428e-05
0.00143442
-0.00140859
3.71782e-05
-5.4521e-05
8.80141e-06
-0.000184075
0.000723781
4.2845e-06
-0.000177218
0.000323316
8.32538e-06
-0.000142667
-0.000149565
8.32932e-06
-0.000116203
-0.000591024
7.3635e-06
-9.21001e-05
-0.000955845
8.90344e-06
-7.20468e-05
-0.0011282
9.7057e-06
-4.99205e-05
0.00121525
-0.00116487
8.71287e-06
0.00106108
0.00228666
-0.00252093
0.000447264
0.000715733
0.000363511
0.000808486
-0.00265481
0.000492811
0.000762988
0.00129719
-0.00166572
0.000398696
0.000389675
0.000325576
0.00020775
-0.00295903
0.000641166
0.000422132
-0.00231467
0.000539303
0.000357483
0.00171199
-0.00190939
0.000325515
7.2945e-05
0.000237068
-0.000266469
-0.00328419
0.000469472
4.70908e-05
-0.00280964
0.000316501
5.56656e-05
-0.00214103
0.000262845
6.26405e-05
0.00150153
-0.00160753
0.000215348
-2.92183e-05
0.000130327
-0.000468569
-0.00269259
0.000296575
-0.000260581
-0.00235389
0.000238
-0.000194711
-0.00195205
0.00018524
-0.000107853
-0.0018414
0.000148165
-2.78414e-05
0.00165475
-0.0017039
0.000123758
-6.38974e-05
7.73027e-05
-0.000530725
-0.00128436
0.00021961
-0.000336795
-0.00141506
0.00016473
-0.00028858
-0.00137227
0.000104596
-0.000197673
-0.00144818
8.78976e-05
-0.00011416
-0.00156835
8.55181e-05
-7.67765e-05
0.00146156
-0.00147437
8.04636e-05
-7.61471e-05
3.71756e-05
-0.000370771
-0.000208738
6.83768e-05
-0.000307648
-0.000403412
3.6306e-05
-0.000269748
-0.000649525
3.71724e-05
-0.000207237
-0.00106519
3.33202e-05
-0.000144164
-0.00135005
3.83204e-05
-0.000106783
-0.00137684
4.14762e-05
-6.85972e-05
0.00129742
-0.00127881
3.7247e-05
-4.40851e-05
9.38557e-06
-0.000180738
0.000913531
5.45682e-06
-0.00017718
0.000496644
8.13623e-06
-0.000147487
-1.86998e-06
8.11766e-06
-0.00012201
-0.000468315
7.63033e-06
-9.92082e-05
-0.000857622
8.34826e-06
-7.65295e-05
-0.00105281
1.00406e-05
-5.99784e-05
-0.00110526
1.00772e-05
-3.48768e-05
0.00114215
-0.00110773
9.16568e-06
0.00125157
0.00315093
-0.00323397
0.000809578
0.000993593
0.000444401
0.00113463
-0.00276379
0.000532782
0.00107209
0.00158709
-0.00173035
0.000281427
0.000688461
0.000393855
0.000714712
-0.00308087
0.000547616
0.000832067
-0.002063
0.000480162
0.000639671
0.000758311
-0.00103216
0.000390355
0.000346306
0.000266218
4.73453e-05
-0.00319629
0.000605569
0.000351153
-0.00255388
0.00057631
0.000402316
-0.00213772
0.000420978
0.000300167
0.00152905
-0.00169641
0.000255349
8.53805e-05
0.000209846
-0.000380771
-0.00327553
0.000502368
-6.1366e-05
-0.0028847
0.000345316
4.12667e-05
-0.0023268
0.000266292
5.60417e-05
-0.00175403
0.000245445
6.04711e-05
0.00139425
-0.00146598
0.000198766
-2.09109e-06
0.00011892
-0.00050209
-0.00267979
0.000314238
-0.000333475
-0.00230409
0.000243455
-0.000215181
-0.00197462
0.000187169
-0.000149049
-0.00185596
0.000151181
-5.42344e-05
-0.00175423
0.000138566
-2.3676e-05
0.00147494
-0.00152427
0.000119986
-5.85017e-05
7.92012e-05
-0.000559797
-0.00111502
0.000217038
-0.00040279
-0.00128857
0.000188267
-0.000311634
-0.00126116
9.55111e-05
-0.000230393
-0.00140635
8.59172e-05
-0.000143153
-0.00156754
8.60817e-05
-9.23714e-05
-0.00149285
8.9591e-05
-5.69026e-05
0.00126787
-0.00127666
7.7562e-05
-5.99541e-05
3.74031e-05
-0.00038049
2.36427e-05
7.08462e-05
-0.000323182
-0.000229374
4.03397e-05
-0.000282896
-0.00051327
3.54602e-05
-0.000227999
-0.000953449
3.14161e-05
-0.000165021
-0.00128819
3.727e-05
-0.000114845
-0.00134173
4.1527e-05
-8.80766e-05
-0.00125057
4.13374e-05
-4.74774e-05
0.00114759
-0.00113398
3.62379e-05
-2.82175e-05
9.87756e-06
-0.000177025
0.00109979
6.34456e-06
-0.000176275
0.000670394
7.98199e-06
-0.000149332
0.000147215
8.38353e-06
-0.000126668
-0.000341176
7.64603e-06
-0.000105266
-0.000752691
7.96579e-06
-8.37554e-05
-0.000970315
9.60921e-06
-6.47322e-05
-0.00104039
9.90105e-06
-4.32437e-05
-0.0010645
1.00917e-05
-2.17194e-05
0.00105926
-0.00103787
9.49562e-06
0.00117064
0.00474034
-0.00453832
0.00133971
0.000921624
0.000878725
0.00137912
-0.00338459
0.000893369
0.00133799
0.00230808
-0.00243591
0.000671515
0.00101163
0.000251773
0.00110203
-0.00306914
0.000604247
0.00124295
-0.00199502
0.000386565
0.000859926
0.00107431
-0.00119946
0.00018633
0.000606894
0.000374715
0.000518074
-0.00342753
0.00062175
0.000752877
-0.00246394
0.000546825
0.000734231
-0.00135655
0.00047264
0.00055426
0.000797509
-0.00101468
0.000353433
0.000296033
0.000219655
-0.000140323
-0.00333262
0.000635949
0.000216049
-0.0027901
0.00056438
0.00035521
-0.00234057
0.000465219
0.000329052
-0.00186581
0.000317368
0.000237012
0.00126927
-0.00141024
0.00021978
8.56772e-05
0.000188275
-0.000406326
-0.00327659
0.000550038
-0.00021927
-0.00287266
0.000376126
1.38277e-05
-0.00248955
0.000279052
4.24785e-05
-0.0019244
0.000245141
5.33841e-05
-0.00155923
0.00023108
5.36501e-05
0.00127604
-0.00133126
0.000176659
-8.30647e-06
0.000115881
-0.000512641
-0.00271523
0.000330374
-0.000451474
-0.00219365
0.000252483
-0.000252193
-0.00198422
0.000193609
-0.000190296
-0.00186231
0.000153421
-9.3042e-05
-0.00179485
0.000141692
-3.77994e-05
-0.00157745
0.000137173
-2.15381e-05
0.00129553
-0.00132755
0.000116642
-5.0699e-05
7.50835e-05
-0.000563069
-0.000964832
0.000213095
-0.000473909
-0.00110612
0.000185315
-0.000312681
-0.00116503
0.000121918
-0.000255149
-0.00137003
8.6341e-05
-0.000173392
-0.00156052
8.72642e-05
-0.000102021
-0.00151045
9.08522e-05
-7.55854e-05
-0.00128658
8.70244e-05
-4.12304e-05
0.00108352
-0.00108214
6.99399e-05
-4.21954e-05
3.60613e-05
-0.000383639
0.00026054
7.37378e-05
-0.000338319
-3.74134e-05
4.09293e-05
-0.000292922
-0.000366984
3.76435e-05
-0.00024207
-0.000836122
3.35361e-05
-0.000182861
-0.00121595
3.67754e-05
-0.000130404
-0.00129917
4.1359e-05
-9.69769e-05
-0.00121811
4.13092e-05
-6.3438e-05
-0.0011128
4.03555e-05
-3.63913e-05
0.00100989
-0.000993355
3.43722e-05
-1.71143e-05
9.6839e-06
-0.000173296
0.00128297
6.31971e-06
-0.000174575
0.000843874
7.43971e-06
-0.000153629
0.000300791
8.03465e-06
-0.000128402
-0.000211994
7.60414e-06
-0.000108837
-0.000644801
8.59242e-06
-9.05418e-05
-0.000881012
9.2049e-06
-6.96211e-05
-0.000971053
9.89224e-06
-4.94182e-05
-0.00101485
9.66998e-06
-3.04533e-05
-0.00100715
9.82505e-06
-1.24657e-05
0.000940232
-0.000927998
9.72773e-06
0.00095076
0.00633127
-0.00602868
0.00223881
0.000643922
0.00162763
0.00157215
-0.00471793
0.0014622
0.00120537
0.00391382
-0.00381081
0.00136932
0.00118647
0.000675218
0.00135827
-0.00363708
0.000971296
0.00142625
-0.00248254
0.000756707
0.00100371
0.00211435
-0.00217628
0.000589664
0.000762428
0.000168021
0.00103074
-0.00343473
0.000711172
0.00117398
-0.00228774
0.000475855
0.00102577
-0.00136407
0.00025963
0.000768688
0.000347978
-0.000555816
0.000179741
0.000496487
0.000321123
0.000344132
-0.0036852
0.000672848
0.000605145
-0.00279029
0.00055901
0.000736095
-0.00170894
0.00051833
0.000584706
-0.00122773
0.000430033
0.000435709
0.000832646
-0.000984364
0.000306454
0.000251994
0.000186174
-0.000230169
-0.00337153
0.00068132
3.12678e-05
-0.00296739
0.000562698
0.000308842
-0.00255067
0.000479465
0.000333553
-0.00203951
0.000347843
0.000279109
-0.00158608
0.000267483
0.000170764
0.00108298
-0.00117053
0.000190212
8.09482e-05
0.0001618
-0.000348176
-0.00338624
0.000598135
-0.000369171
-0.00281458
0.000409659
-7.9266e-05
-0.00258405
0.000297702
-6.8176e-06
-0.00208305
0.000254216
4.78141e-05
-0.00169159
0.000236647
3.30636e-05
-0.00137944
0.000208401
5.58221e-05
0.00108391
-0.001134
0.00014939
-1.22331e-05
0.000113239
-0.000477006
-0.00280948
0.000345736
-0.000554469
-0.00205544
0.000272726
-0.000294373
-0.00195156
0.000201521
-0.000217241
-0.00186088
0.000154266
-0.000136726
-0.00182506
0.000146969
-5.93042e-05
-0.00161961
0.000141142
-3.42199e-05
-0.0013652
0.000133457
-4.37848e-06
0.00113189
-0.00115943
0.000107328
-3.9768e-05
6.79553e-05
-0.000558133
-0.000835286
0.00020871
-0.000533177
-0.000897863
0.000199694
-0.000357986
-0.00102673
0.000112077
-0.000269007
-0.00130784
8.66607e-05
-0.000198534
-0.00154708
8.85752e-05
-0.000124027
-0.0015223
9.27431e-05
-8.24612e-05
-0.00129939
8.91414e-05
-5.14917e-05
-0.00108609
7.90277e-05
-3.74813e-05
0.000954515
-0.000945247
6.17621e-05
-3.04732e-05
3.39639e-05
-0.000382569
0.000497517
7.60141e-05
-0.000354792
0.000175658
4.08844e-05
-0.000311165
-0.000203272
3.47531e-05
-0.000257295
-0.000703247
3.36609e-05
-0.000198312
-0.00113258
3.96396e-05
-0.000142178
-0.0012522
4.14392e-05
-0.00010598
-0.00118146
4.10667e-05
-7.32046e-05
-0.00108824
4.05362e-05
-4.60903e-05
-0.000975827
3.84637e-05
-2.09965e-05
0.000894789
-0.000884208
3.23217e-05
-7.98431e-06
9.88363e-06
-0.000168013
0.00145969
7.03542e-06
-0.000172556
0.00101548
7.2652e-06
-0.000156371
0.000457263
7.33926e-06
-0.000131231
-8.03249e-05
7.59586e-06
-0.000114017
-0.00053105
7.86985e-06
-9.3773e-05
-0.00078815
9.50383e-06
-7.49953e-05
-0.00089674
9.88682e-06
-5.40964e-05
-0.000960642
9.77895e-06
-3.47762e-05
-0.000972301
9.59633e-06
-1.8825e-05
-0.00090993
1.05804e-05
-2.84373e-06
0.000821569
-0.00081923
1.02318e-05
0.000807575
0.00700738
-0.00683188
0.00316879
0.000545199
0.00256601
0.00122968
-0.00563468
0.00226707
0.000758101
0.00591364
-0.00559842
0.00237086
0.000990003
0.00157191
0.0015163
-0.00482467
0.00123607
0.00138587
-0.00378069
0.00147245
0.000901091
0.00386043
-0.00371465
0.00132616
0.000906124
0.000618258
0.00146013
-0.00392938
0.000990653
0.00146375
-0.00263625
0.000835232
0.001296
-0.00228062
0.000590815
0.00105916
0.00128456
-0.00148915
0.000503785
0.000579866
0.000165429
0.000914712
-0.00370375
0.000816686
0.00105686
-0.00263825
0.00060997
0.00116445
-0.00164021
0.000323637
0.000920006
-0.000855101
0.000223615
0.00058055
5.24424e-06
-0.00015151
0.000181165
0.000419565
0.000274481
0.000183758
-0.00384688
0.000865186
0.000448475
-0.00309711
0.000562458
0.000720121
-0.00207375
0.000512538
0.000581895
-0.00139828
0.000440545
0.000524614
-0.0011782
0.000378364
0.00031998
0.000764052
-0.000861866
0.000255053
0.000187568
0.000161114
-0.000178615
-0.00345317
0.000815812
-0.000181641
-0.00303363
0.000560026
0.00018048
-0.00273489
0.000487176
0.000298574
-0.00224427
0.000378834
0.000299333
-0.00177284
0.000283084
0.000183255
-0.00128762
0.000234387
0.000104335
0.000909878
-0.000952767
0.000184589
7.71229e-05
0.000133411
-0.000245677
-0.00361366
0.000631778
-0.000459862
-0.00276405
0.000452998
-0.000192992
-0.00259133
0.000315552
-5.48856e-05
-0.00221155
0.00026385
4.58231e-06
-0.0018229
0.00024421
2.67106e-05
-0.00144971
0.000220901
3.38495e-05
-0.0011718
0.000178127
5.34704e-05
0.000893392
-0.000930985
0.000129134
4.36561e-07
0.000104214
-0.00047592
-0.00293873
0.000364922
-0.000623663
-0.00191343
0.00029421
-0.000398487
-0.00185784
0.000219505
-0.000245754
-0.00184626
0.000163651
-0.000175379
-0.00184257
0.000148614
-8.66181e-05
-0.0016573
0.000147249
-4.83096e-05
-0.00139645
0.000138234
-4.16208e-06
-0.00119536
0.000122061
-1.84926e-06
0.000990238
-0.00101491
9.63633e-05
-3.19995e-05
5.98534e-05
-0.00056021
-0.000712963
0.000206029
-0.000576845
-0.000675648
0.000208548
-0.0004052
-0.000865227
0.000132232
-0.000305372
-0.00122803
8.03442e-05
-0.000232022
-0.00151109
8.43783e-05
-0.000150372
-0.00152143
9.58968e-05
-9.07372e-05
-0.00131389
9.19961e-05
-5.6084e-05
-0.0010945
8.04289e-05
-4.0759e-05
-0.000941733
7.01826e-05
-2.12504e-05
0.000817946
-0.000811367
5.54367e-05
-1.24992e-05
3.18577e-05
-0.000377947
0.000735839
7.74442e-05
-0.000367489
0.000398025
4.85794e-05
-0.000322392
-2.42869e-05
2.79211e-05
-0.000270665
-0.000563667
3.46084e-05
-0.000217707
-0.00103212
3.68892e-05
-0.000158659
-0.00118983
4.21558e-05
-0.000115676
-0.00114022
4.08848e-05
-8.27773e-05
-0.00105874
4.02505e-05
-5.10625e-05
-0.000957802
3.87976e-05
-3.14755e-05
-0.000869319
3.62255e-05
-5.03327e-06
0.000776061
-0.000772474
3.09249e-05
6.81095e-07
1.03031e-05
-0.000160383
0.00162924
5.78527e-06
-0.000169184
0.00118398
7.72351e-06
-0.000154571
0.000611716
7.38244e-06
-0.000134907
5.48217e-05
7.09991e-06
-0.000118825
-0.00041301
8.38077e-06
-0.000100264
-0.000689272
9.25484e-06
-7.99958e-05
-0.000816792
9.55251e-06
-5.91133e-05
-0.00090147
9.82878e-06
-3.82967e-05
-0.000934071
9.84582e-06
-2.29154e-05
-0.000887826
1.04079e-05
-6.95148e-06
-0.000813049
1.13506e-05
5.08898e-06
0.000678511
-0.000683984
1.06156e-05
0.00060888
0.00664906
-0.00658064
0.00359377
0.000452354
0.00326114
0.000711582
-0.00640824
0.00344037
0.000467949
0.00699876
-0.00684637
0.00330654
0.000731714
0.00258543
0.00149596
-0.00555236
0.0021133
0.00108025
-0.00539536
0.00236964
0.000672899
0.00587986
-0.00560715
0.00232633
0.000809198
0.00154956
0.0017136
-0.00494908
0.00118165
0.00159383
-0.00390228
0.00122758
0.00131495
-0.00355455
0.00129341
0.00106775
0.00312325
-0.00306056
0.00125488
0.000577451
0.000612247
0.00153322
-0.00424034
0.00108406
0.00140266
-0.0028649
0.000873504
0.00150573
-0.00241798
0.000631314
0.00124654
-0.00177003
0.000545156
0.000705656
0.000798875
-0.000917135
0.00049694
0.000559185
0.00015321
0.000853315
-0.00400399
0.00103966
0.00093108
-0.00296671
0.000662544
0.00120385
-0.00196127
0.000447309
0.000870531
-0.00110991
0.000289811
0.000765783
-0.000374775
0.000205711
0.000395101
-7.97561e-05
6.99835e-06
0.000178801
0.000275981
0.000229332
0.000151223
-0.00403754
0.00112193
0.000235113
-0.00328068
0.000632007
0.000619485
-0.00245666
0.000506371
0.000588737
-0.00162134
0.000445433
0.000535476
-0.00136767
0.000393877
0.00039766
-0.00101553
0.000317621
0.000177635
0.00070881
-0.000733469
0.000206412
0.000117199
0.000162531
-5.83009e-05
-0.00363671
0.000935837
-0.000306561
-0.00299947
0.000628349
3.62494e-05
-0.00287659
0.000472488
0.000232084
-0.00244227
0.000398203
0.000281193
-0.00197656
0.00030594
0.000205662
-0.00143663
0.00025314
0.00010083
-0.00100435
0.000218989
8.88022e-05
0.000781807
-0.000800987
0.000168437
5.69697e-05
0.000109092
-0.000219484
-0.00386973
0.000662018
-0.000492155
-0.00277773
0.000513952
-0.000309938
-0.00255986
0.000332979
-0.000122654
-0.00229313
0.000274034
-2.62376e-05
-0.00196221
0.000254021
2.0682e-05
-0.00154225
0.000229449
1.29887e-05
-0.00120421
0.000192015
6.65732e-05
-0.00097821
0.000154617
4.19778e-05
0.000759432
-0.000789683
0.000115558
1.6234e-05
9.24562e-05
-0.000396646
-0.0031637
0.000393533
-0.000666717
-0.00178104
0.0003224
-0.000505514
-0.0016948
0.000231481
-0.000283917
-0.00181864
0.000170436
-0.000208823
-0.00185721
0.000155096
-0.000127638
-0.00168336
0.000151941
-6.00531e-05
-0.00142399
0.000144111
-1.08203e-05
-0.00122941
0.000127014
1.86245e-06
-0.00104496
0.000109496
9.80807e-06
0.000833776
-0.000852176
8.37046e-05
-7.61338e-06
5.28244e-05
-0.000522483
-0.000630228
0.000200344
-0.000603728
-0.000438922
0.000205542
-0.000461494
-0.000673251
0.000155674
-0.000349424
-0.00110833
9.12979e-05
-0.00026127
-0.00147184
8.46635e-05
-0.000186144
-0.00150728
9.7718e-05
-0.000103918
-0.00132504
9.52911e-05
-6.27902e-05
-0.00110509
8.2604e-05
-3.88825e-05
-0.000945148
7.1664e-05
-3.27688e-05
-0.00080351
6.36187e-05
-6.96097e-08
0.000697618
-0.000694814
4.76693e-05
3.10847e-06
3.05072e-05
-0.000366831
0.000968328
7.98083e-05
-0.000376963
0.000631461
5.17868e-05
-0.000337921
0.000171298
3.63454e-05
-0.000281598
-0.000421084
3.20287e-05
-0.000227747
-0.000925011
3.6424e-05
-0.000179809
-0.00111423
4.08302e-05
-0.000126088
-0.00109272
4.07429e-05
-9.09889e-05
-0.00102621
4.02269e-05
-5.83362e-05
-0.000936529
3.90168e-05
-3.94814e-05
-0.000850657
3.67012e-05
-1.52332e-05
-0.000762786
3.48188e-05
1.50492e-05
0.000652028
-0.000660302
2.92381e-05
7.70022e-06
1.0618e-05
-0.000152619
0.00179105
7.39887e-06
-0.000164899
0.00134728
7.38885e-06
-0.000152692
0.000764426
7.70576e-06
-0.000135506
0.00019066
7.05025e-06
-0.000121626
-0.000292124
7.83986e-06
-0.000104883
-0.000585989
9.98115e-06
-8.50022e-05
-0.000732108
9.57261e-06
-6.31771e-05
-0.000838581
9.84001e-06
-4.2865e-05
-0.000891372
9.99501e-06
-2.61877e-05
-0.000862274
1.04809e-05
-1.16465e-05
-0.000802214
1.12191e-05
2.23509e-06
-0.000686655
1.17865e-05
1.06621e-05
0.000531794
-0.000542441
1.06006e-05
0.000441737
0.0059599
-0.00590997
0.00388158
0.00059203
0.00358465
0.000661767
-0.00663765
0.00395238
0.000469813
0.0066674
-0.00672502
0.00364952
0.000531653
0.00339222
0.00114462
-0.00619476
0.00318628
0.00071958
-0.00662849
0.00358315
0.000480903
0.00691638
-0.0068928
0.00347496
0.000509903
0.00264614
0.00172016
-0.00550044
0.00194594
0.00148204
-0.0052924
0.00212213
0.000995984
-0.00518311
0.00226456
0.000688403
0.00531936
-0.00499555
0.00238187
0.000543262
0.00153249
0.00199362
-0.00508102
0.00112084
0.00165762
-0.00419344
0.00121784
0.00161856
-0.0035073
0.00106749
0.00137866
-0.00316201
0.00126274
0.00057554
0.0029045
-0.00274997
0.00123047
0.00062537
0.000505605
0.0014356
-0.0044417
0.00119674
0.00138953
-0.00323445
0.00099516
0.0014733
-0.00248631
0.000672381
0.00120056
-0.00202814
0.000559399
0.00097666
-0.00110236
0.0005195
0.000432588
0.000800469
-0.000742706
0.00040169
0.000300243
0.000160441
0.00068857
-0.00423586
0.00127203
0.000819451
-0.00328277
0.000771388
0.00112037
-0.00231777
0.000518161
0.0010445
-0.00148673
0.000368371
0.000811089
-0.000625145
0.000264566
0.000520481
-0.000119699
0.000209588
0.000138787
-9.72052e-05
0.000105912
0.000208943
0.000146188
0.000186098
0.000192474
-0.00429642
0.00130619
5.57383e-05
-0.0033245
0.000803444
0.000429302
-0.00272593
0.000508223
0.000593857
-0.00192302
0.000446279
0.000536843
-0.00157665
0.000398758
0.000438913
-0.00119346
0.000338557
0.00025128
-0.000823792
0.000257494
0.000108101
0.00065899
-0.000639135
0.000167258
9.82956e-05
0.000152447
2.07936e-05
-0.00388734
0.00100374
-0.000334424
-0.00296624
0.000744883
-0.000117438
-0.00291399
0.000473244
0.000163334
-0.00265862
0.000402852
0.000252685
-0.00218634
0.00032906
0.000230414
-0.00160993
0.000269506
0.000104709
-0.00108325
0.000240324
0.00010582
-0.00082107
0.000199825
8.94146e-05
0.000700511
-0.000717026
0.000137515
6.22768e-05
8.24748e-05
-0.000101763
-0.0040894
0.000685858
-0.000499947
-0.00286093
0.00057844
-0.000436533
-0.0024923
0.000377416
-0.000184502
-0.00234005
0.000280485
-7.5362e-05
-0.0020853
0.000263662
2.31185e-06
-0.00165963
0.000241451
1.37725e-05
-0.0012516
0.000203012
5.06731e-05
-0.00101495
0.000167262
4.86184e-05
-0.000825511
0.00014369
5.0795e-05
0.000642248
-0.000659773
9.20954e-05
4.79616e-05
7.47302e-05
-0.000348476
-0.00335101
0.000404543
-0.000687214
-0.00166775
0.000363729
-0.000618574
-0.00146526
0.000249937
-0.000366295
-0.00173658
0.000166288
-0.000244992
-0.00186142
0.000158371
-0.000172576
-0.00169908
0.000157246
-7.97487e-05
-0.00144701
0.000150783
-2.23969e-05
-0.00125756
0.000131871
3.70336e-06
-0.0010748
0.000114267
-1.2039e-05
-0.00086312
9.97104e-05
3.6511e-05
0.000650422
-0.000670016
6.67183e-05
1.53408e-05
4.41085e-05
-0.000511424
-0.000548225
0.000195342
-0.000624156
-0.000210156
0.000218771
-0.000530364
-0.000426114
0.000150847
-0.000390197
-0.000947444
0.000103384
-0.00030202
-0.00139902
9.27447e-05
-0.000218759
-0.00148167
9.80043e-05
-0.000126609
-0.00132616
9.93587e-05
-7.11868e-05
-0.00111485
8.52411e-05
-4.30038e-05
-0.000950998
7.31215e-05
-3.78983e-05
-0.000799223
6.57938e-05
-1.84528e-05
-0.000683869
5.58937e-05
2.6764e-05
0.000578117
-0.000582369
4.02062e-05
2.01215e-05
2.86109e-05
-0.000358243
0.00119414
8.02973e-05
-0.000380585
0.000869689
5.72666e-05
-0.000343877
0.000376982
3.72874e-05
-0.000296842
-0.000257435
3.40316e-05
-0.000246773
-0.00080589
3.80555e-05
-0.000196439
-0.00103288
4.6635e-05
-0.000137557
-0.00103949
4.01612e-05
-0.0001003
-0.000988366
4.00213e-05
-6.56849e-05
-0.000912736
3.92537e-05
-4.6072e-05
-0.000828976
3.72199e-05
-2.37242e-05
-0.000749564
3.55568e-05
8.69502e-06
-0.000664857
3.29142e-05
2.37603e-05
0.00053412
-0.000544612
2.66329e-05
1.26223e-05
1.05217e-05
-0.00014572
0.00194611
7.67456e-06
-0.000158987
0.0015064
7.2638e-06
-0.000150508
0.000915165
7.15731e-06
-0.000136656
0.000327972
7.04966e-06
-0.000125577
-0.000167145
7.64789e-06
-0.000109324
-0.000478115
9.28939e-06
-8.36791e-05
-0.000648378
9.9299e-06
-6.75591e-05
-0.000770921
9.47145e-06
-4.81318e-05
-0.000843311
9.91071e-06
-2.90614e-05
-0.000833697
1.04798e-05
-1.6384e-05
-0.000786592
1.12433e-05
-1.19886e-06
-0.000685991
1.17543e-05
9.45179e-06
-0.000551875
1.17683e-05
1.43342e-05
0.000402309
-0.000416185
1.01428e-05
0.000565617
0.00549308
-0.00560335
0.00396585
0.000682251
0.00385665
0.00049555
-0.00593332
0.00426398
0.000537143
0.00597453
-0.00603374
0.00387345
0.000557444
0.00364785
0.000804073
-0.00646278
0.00390372
0.000740707
-0.00676034
0.00396658
0.000501754
0.00670935
-0.00684256
0.00376189
0.000349601
0.00355573
0.00138905
-0.00600382
0.00298096
0.00103208
-0.00632222
0.00332997
0.000573299
-0.00656653
0.00367957
0.000361933
0.00675721
-0.00658705
0.00363127
0.000359356
0.00264126
0.00193266
-0.00529392
0.00193256
0.00161166
-0.00523242
0.00193192
0.0014242
-0.00492353
0.00205691
0.00104561
-0.00470992
0.00231198
0.000347315
0.00470074
-0.00448529
0.00239464
0.000429264
0.00141349
0.00196789
-0.005268
0.00148784
0.00168335
-0.00447644
0.00111001
0.00174776
-0.00365968
0.00109576
0.00141072
-0.00340594
0.00110126
0.000924895
-0.00263191
0.00119645
0.000194652
0.00309745
-0.00286469
0.00123565
0.000276475
0.000400561
0.00129891
-0.00475255
0.00144119
0.00128428
-0.00350899
0.00100645
0.00149064
-0.00265279
0.000791375
0.00137664
-0.00221685
0.000528945
0.00111379
-0.00128756
0.000441907
0.000664388
-0.00076899
0.000401877
9.19489e-05
0.000912771
-0.000751851
0.000287608
1.72145e-05
0.000195453
0.000686725
-0.00451975
0.00143752
0.00068659
-0.00357807
0.000936471
0.00100185
-0.00271793
0.000599004
0.00107685
-0.00187065
0.000419086
0.000889034
-0.000936299
0.000327333
0.000642069
-0.000304865
0.000246576
0.000263864
5.90896e-05
0.000243826
-5.3454e-06
0.000115527
-4.76161e-05
0.000254478
0.000120482
0.000152449
0.000256412
-0.00454142
0.00135483
2.05307e-05
-0.00341722
0.00104396
0.000247672
-0.00284675
0.000559152
0.000562163
-0.00225725
0.000443618
0.000545187
-0.00183028
0.000407405
0.000497126
-0.00142003
0.00035862
0.00032403
-0.000975686
0.000271129
0.000140158
-0.00062263
0.000206652
6.34749e-05
0.000571248
-0.000538848
0.000160798
9.90756e-05
0.00012175
3.15072e-05
-0.00397491
0.00104854
-0.000307968
-0.00301675
0.000862267
-0.000260366
-0.00285909
0.000513813
6.56024e-05
-0.00283545
0.000399964
0.000203093
-0.00241435
0.000352407
0.000228982
-0.00180185
0.000294307
0.00011813
-0.00117558
0.000257476
9.95153e-05
-0.000844601
0.000215013
8.63944e-05
-0.000720174
0.000165197
8.15104e-05
0.000573637
-0.000585785
0.000118948
9.96464e-05
6.33146e-05
-0.000168679
-0.00411941
0.000704312
-0.000471359
-0.00303118
0.000640259
-0.000558576
-0.00242544
0.000451581
-0.000273598
-0.0023587
0.000303366
-0.000127235
-0.00219494
0.000272367
-3.39811e-05
-0.00178938
0.000254823
1.33539e-05
-0.00131972
0.000216472
2.89592e-05
-0.0010406
0.000177309
4.80646e-05
-0.000857227
0.000154616
4.85025e-05
-0.000703078
0.000126453
6.62542e-05
0.000536994
-0.000550379
7.57371e-05
6.33424e-05
5.47846e-05
-0.000389974
-0.00348336
0.000398973
-0.000697403
-0.00160285
0.000412889
-0.000702935
-0.00121876
0.000289806
-0.000472848
-0.00157943
0.000175443
-0.000305822
-0.00184619
0.00015486
-0.000209725
-0.00171233
0.000162588
-0.000121144
-0.0014527
0.000157471
-4.02008e-05
-0.00127609
0.000138327
2.39844e-06
-0.00110652
0.000118193
-4.27106e-06
-0.000888217
0.000105737
2.17112e-06
-0.000678168
8.72382e-05
5.75286e-05
0.000493999
-0.000510906
5.28612e-05
3.79573e-05
3.44815e-05
-0.00051382
-0.000451629
0.000189838
-0.00063664
1.8614e-05
0.000222626
-0.000558867
-0.000166396
0.000174044
-0.000441963
-0.000755083
0.000103607
-0.000352973
-0.0012818
9.23657e-05
-0.000252106
-0.00143054
9.72778e-05
-0.000148926
-0.00131971
0.000102921
-9.28223e-05
-0.00111133
8.83679e-05
-4.7631e-05
-0.000958599
7.47883e-05
-3.96504e-05
-0.000799784
6.72613e-05
-3.08069e-05
-0.000670398
5.94049e-05
1.05351e-05
-0.00057784
4.95247e-05
3.83218e-05
0.000476407
-0.000483458
3.26958e-05
2.84046e-05
2.47171e-05
-0.000340228
0.00140754
8.09239e-05
-0.000379599
0.00110903
6.15697e-05
-0.000352977
0.000594915
4.18025e-05
-0.000310025
-8.13386e-05
3.45609e-05
-0.00026541
-0.000668627
3.66011e-05
-0.000210992
-0.000934283
4.11249e-05
-0.000139359
-0.000983656
4.6476e-05
-0.000108317
-0.000947077
3.963e-05
-7.43681e-05
-0.000885639
3.91607e-05
-5.06025e-05
-0.000805872
3.76907e-05
-3.10509e-05
-0.000733941
3.62636e-05
-1.61214e-06
-0.000662541
3.36541e-05
2.16111e-05
-0.000554793
3.09348e-05
2.81548e-05
0.000443265
-0.000452705
2.22522e-05
1.59369e-05
9.78464e-06
-0.000136966
0.00209217
8.0048e-06
-0.000155064
0.00166196
7.17258e-06
-0.000146971
0.00106213
7.26475e-06
-0.000136648
0.000464832
6.94483e-06
-0.00012772
-3.99917e-05
7.61607e-06
-0.000113225
-0.000366541
9.30015e-06
-9.35062e-05
-0.000555282
9.69958e-06
-7.08419e-05
-0.000699671
9.52208e-06
-5.2551e-05
-0.000791034
9.7458e-06
-3.28249e-05
-0.000801542
1.05805e-05
-1.89898e-05
-0.000768201
1.10787e-05
-5.27225e-06
-0.000681255
1.17792e-05
6.95408e-06
-0.000558881
1.1806e-05
1.37633e-05
-0.000429691
1.15108e-05
1.53823e-05
0.000287651
-0.000301389
8.4989e-06
0.00049996
0.00551206
-0.00554144
0.003898
0.000698576
0.0040045
0.000403314
-0.0055333
0.00435433
0.000565051
0.00561412
-0.00562169
0.00394551
0.000677639
0.00390577
0.00060913
-0.00593449
0.00424662
0.000610848
-0.00594172
0.00430182
0.000557232
0.00607808
-0.00613063
0.00387053
0.000435885
0.00369722
0.000840042
-0.00612633
0.00383567
0.000756868
-0.00655097
0.00396956
0.000559599
-0.00702625
0.00416396
0.000249793
0.00670686
-0.00661447
0.00378163
0.000157438
0.00360994
0.00152168
-0.00565946
0.00288772
0.00112716
-0.00596013
0.00310337
0.000958304
-0.0062195
0.00344883
0.000638002
-0.00632842
0.00382854
0.000233922
0.00631898
-0.00619632
0.00362201
0.000205354
0.00252388
0.00215083
-0.00515282