/*--------------------------------*- C++ -*----------------------------------*\
  =========                 |
  \\      /  F ield         | OpenFOAM: The Open Source CFD Toolbox
   \\    /   O peration     | Website:  https://openfoam.org
    \\  /    A nd           | Version:  7
     \\/     M anipulation  |
\*---------------------------------------------------------------------------*/
FoamFile
{
    version     2.0;
    format      ascii;
    class       surfaceScalarField;
    location    "1.5";
    object      phi_0;
}
// * * * * * * * * * * * * * * * * * * * * * * * * * * * * * * * * * * * * * //

dimensions      [0 3 -1 0 0 0 0];

internalField   nonuniform List<scalar> 
54006
(
-0.000164812
0.000607411
-0.00043518
7.40611e-06
-0.000227922
0.00134461
-0.00124803
4.33569e-05
-0.000159423
7.34758e-06
-0.000181608
-0.000245277
8.02457e-06
-0.000138694
0.000652514
-0.000514602
8.18814e-06
-0.000204787
0.00183015
-0.00183641
0.000203922
-0.000222676
4.42239e-05
-0.000259955
-0.00113345
5.64603e-05
-0.000208589
0.00113777
-0.00106393
3.94079e-05
-0.000134384
8.11138e-06
-0.000180568
-5.62216e-05
8.52708e-06
-0.000157644
-0.000358325
9.39164e-06
-0.000113151
0.000817954
-0.000703944
7.32905e-06
-0.000138885
0.00282283
-0.00282704
0.00023876
-0.000198806
0.000182496
-0.000280323
-0.00180884
0.000231242
-0.00019529
0.00178061
-0.0017305
0.000140512
-0.000200106
3.88878e-05
-0.000285295
-0.000993936
5.94e-05
-0.000240209
-0.000967065
4.2161e-05
-0.000178897
0.00116867
-0.00109808
3.45702e-05
-0.000107934
8.89722e-06
-0.000183086
0.000135464
6.90833e-06
-0.000163759
-0.000195307
9.26886e-06
-0.000128858
-0.000574206
8.51233e-06
-8.73334e-05
0.00101484
-0.000927634
7.45172e-06
9.88185e-05
0.00302294
-0.00313879
0.000318647
-0.000107508
0.000229924
-0.000224855
-0.00280863
0.000272049
-0.000137737
0.00227893
-0.00230069
0.000202968
-0.000189449
0.000134305
-0.000354162
-0.00173342
0.000224744
-0.000231462
-0.00166983
0.00016183
-0.000175536
0.00162696
-0.00158611
9.63067e-05
-0.000161099
3.47991e-05
-0.00030829
-0.000833477
6.56116e-05
-0.00026167
-0.00085079
4.10354e-05
-0.000218739
-0.00100215
3.61131e-05
-0.000126584
0.00135368
-0.00131249
3.26355e-05
-7.89306e-05
8.79693e-06
-0.000184644
0.000328798
5.17945e-06
-0.00016935
-2.82477e-05
9.19944e-06
-0.000135388
-0.000437955
8.40583e-06
-0.000103728
-0.000823254
7.86074e-06
-7.11589e-05
0.00120403
-0.00113396
8.54163e-06
0.000463429
0.00190722
-0.0022418
0.00046257
0.000147826
0.000291741
-1.3819e-05
-0.00321851
0.000398323
6.67576e-05
0.00239396
-0.00253434
0.00025453
-0.000129636
0.000197315
-0.000314347
-0.00277439
0.000280277
-0.000166104
-0.0023239
0.000229899
-0.000119424
0.00191924
-0.00193679
0.000164406
-0.000143124
9.90663e-05
-0.000426914
-0.00161026
0.000218929
-0.000280802
-0.00159572
0.000169766
-0.000220462
-0.00153269
0.000110124
-0.000112516
0.0015204
-0.00151529
7.71287e-05
-0.00011685
3.42496e-05
-0.000331127
-0.000648112
6.76974e-05
-0.000279117
-0.000717422
4.201e-05
-0.000231816
-0.000900705
3.60149e-05
-0.000174389
-0.00124132
3.55973e-05
-0.000100458
0.00146437
-0.00143761
3.51713e-05
-6.51336e-05
7.97444e-06
-0.000185095
0.000522723
4.12151e-06
-0.000174545
0.00014258
8.89656e-06
-0.000138475
-0.000298719
8.43822e-06
-0.000109918
-0.000712531
7.60097e-06
-8.58696e-05
-0.00104903
8.79684e-06
-5.84337e-05
0.00125796
-0.00120019
9.20869e-06
0.000718586
0.00210473
-0.00230488
0.000393286
0.000499963
0.000360998
0.000391298
-0.00260317
0.000600546
0.000399306
0.00172649
-0.00201797
0.000421507
8.80702e-05
0.000257964
-0.000177984
-0.00324179
0.000438587
7.28292e-05
-0.00267042
0.000295473
6.29401e-05
0.00178362
-0.00194657
0.000235114
-9.53586e-05
0.000162605
-0.000402145
-0.00273041
0.000287961
-0.000206308
-0.00235163
0.000233514
-0.00016253
-0.00194827
0.000183447
-6.15806e-05
0.00178073
-0.00180158
0.000134324
-9.97753e-05
7.95513e-05
-0.000488463
-0.00145592
0.00022041
-0.000307611
-0.00151379
0.000165497
-0.000243036
-0.00146713
0.000115432
-0.00017966
-0.0014869
8.70061e-05
-8.65245e-05
0.00154017
-0.00155492
7.7949e-05
-8.64253e-05
3.52889e-05
-0.000352376
-0.000440604
6.74792e-05
-0.000294266
-0.000568418
3.84142e-05
-0.000254127
-0.000781843
3.88004e-05
-0.000185864
-0.00116473
3.53737e-05
-0.000126966
-0.00139964
3.87266e-05
-8.63627e-05
0.00143393
-0.0014082
3.73697e-05
-5.44036e-05
8.90176e-06
-0.000183932
0.000715323
4.47082e-06
-0.000176928
0.000315198
8.43152e-06
-0.000142337
-0.000155895
8.40924e-06
-0.000115902
-0.00059563
7.43853e-06
-9.18098e-05
-0.000958619
8.99789e-06
-7.17664e-05
-0.00112941
9.77984e-06
-4.968e-05
0.00121516
-0.00116508
8.80983e-06
0.00106034
0.00227679
-0.00250951
0.000447139
0.000714505
0.000363182
0.000809584
-0.00264042
0.000491721
0.000762244
0.00128431
-0.00165216
0.000398198
0.000389288
0.000324295
0.000213769
-0.0029478
0.000641372
0.000423649
-0.0023064
0.000538154
0.000357132
0.00170439
-0.00190158
0.000324509
7.35515e-05
0.000237302
-0.000262131
-0.00328201
0.00046864
4.95519e-05
-0.00280369
0.000315997
5.63405e-05
-0.00213306
0.000263102
6.32581e-05
0.00149723
-0.00160253
0.000215573
-2.81622e-05
0.000130594
-0.000467215
-0.00268864
0.000296394
-0.000258004
-0.00235152
0.000238245
-0.000193495
-0.00194977
0.00018547
-0.00010649
-0.0018398
0.000148493
-2.71231e-05
0.00165233
-0.00170147
0.000124064
-6.33327e-05
7.76342e-05
-0.000529387
-0.00128883
0.0002199
-0.000334851
-0.001417
0.000164201
-0.000287256
-0.00137362
0.000105113
-0.000196602
-0.00144899
8.82617e-05
-0.000113252
-0.00156752
8.58875e-05
-7.63587e-05
0.00145965
-0.00147243
8.07301e-05
-7.57697e-05
3.73594e-05
-0.000370124
-0.000217031
6.82583e-05
-0.000306916
-0.00040732
3.63683e-05
-0.000268981
-0.000654282
3.7497e-05
-0.000206351
-0.00106906
3.35802e-05
-0.000143445
-0.00135122
3.85881e-05
-0.000106411
-0.0013765
4.16805e-05
-6.82496e-05
0.00129646
-0.00127793
3.74185e-05
-4.37132e-05
9.4828e-06
-0.000180619
0.000904919
5.6949e-06
-0.000176964
0.000488391
8.24202e-06
-0.000147282
-8.37159e-06
8.18999e-06
-0.000121668
-0.000473261
7.70822e-06
-9.89463e-05
-0.000860705
8.4711e-06
-7.62998e-05
-0.00105423
1.01212e-05
-5.98093e-05
-0.00110559
1.01005e-05
-3.45532e-05
0.00114157
-0.00110749
9.28463e-06
0.00124606
0.00314878
-0.00322727
0.000811613
0.000990405
0.000444903
0.0011354
-0.00275144
0.000531805
0.00106931
0.00157926
-0.00171983
0.000280638
0.000686853
0.000393847
0.00071859
-0.00306525
0.000546322
0.000833112
-0.00204884
0.000478934
0.000637979
0.000749399
-0.00102181
0.00038976
0.000345595
0.000265505
5.43537e-05
-0.00318855
0.000605998
0.000354416
-0.00254596
0.000576068
0.00040259
-0.00212955
0.000419872
0.000299734
0.00152272
-0.00168978
0.000255096
8.59124e-05
0.000210033
-0.000378102
-0.00327447
0.000501082
-5.64554e-05
-0.00288119
0.000344594
4.18432e-05
-0.00231883
0.000266428
5.64352e-05
-0.00174811
0.000245753
6.07634e-05
0.00139086
-0.00146211
0.000198942
-1.48054e-06
0.000119227
-0.000502414
-0.00267292
0.000313881
-0.000329357
-0.00230422
0.0002436
-0.000213947
-0.0019722
0.000187371
-0.000147598
-0.00185481
0.00015148
-5.32258e-05
-0.00175194
0.000138934
-2.33827e-05
0.00147211
-0.00152128
0.000120253
-5.81238e-05
7.94605e-05
-0.00055918
-0.00111891
0.000217547
-0.000399765
-0.00129236
0.000188107
-0.000310827
-0.00126293
9.53633e-05
-0.000229055
-0.00140749
8.63146e-05
-0.000142053
-0.00156708
8.64304e-05
-9.20287e-05
-0.00149082
8.9892e-05
-5.65786e-05
0.00126591
-0.00127461
7.77614e-05
-5.96189e-05
3.75692e-05
-0.000380099
1.53827e-05
7.07266e-05
-0.000322288
-0.00023418
4.04429e-05
-0.000282376
-0.000518372
3.55521e-05
-0.00022715
-0.000957797
3.17178e-05
-0.000164287
-0.00128984
3.75378e-05
-0.000114419
-0.00134154
4.1747e-05
-8.77159e-05
-0.00124987
4.152e-05
-4.72075e-05
0.00114678
-0.00113309
3.6382e-05
-2.809e-05
9.91754e-06
-0.000177057
0.00109118
6.46984e-06
-0.000176097
0.00066209
8.09345e-06
-0.00014907
0.000140481
8.45941e-06
-0.000126428
-0.00034638
7.73675e-06
-0.000105004
-0.000756024
8.03214e-06
-8.34233e-05
-0.000972067
9.73118e-06
-6.45463e-05
-0.0010409
9.97443e-06
-4.30324e-05
-0.00106451
1.01554e-05
-2.14125e-05
0.00105842
-0.00103732
9.59914e-06
0.00115777
0.00474881
-0.00453984
0.00134453
0.000917165
0.000881228
0.00137995
-0.00337701
0.000893749
0.00133435
0.00230554
-0.0024322
0.000673234
0.00100831
0.000251385
0.00110251
-0.00305464
0.000602629
0.00124216
-0.00198214
0.000385068
0.000855978
0.0010693
-0.0011928
0.000186138
0.000604552
0.000374516
0.000524029
-0.00341357
0.000620294
0.000755945
-0.00244951
0.000545462
0.000732998
-0.00134495
0.000471663
0.000552203
0.000790648
-0.00100651
0.000353155
0.000295332
0.000219363
-0.000134869
-0.00332845
0.000635156
0.000221303
-0.0027824
0.000564687
0.00035676
-0.00233294
0.000464541
0.000328533
-0.00185902
0.000317014
0.000236264
0.00126425
-0.00140442
0.000219757
8.60889e-05
0.000188429
-0.000407726
-0.00327348
0.000548377
-0.000213342
-0.00287136
0.000375232
1.56651e-05
-0.00248274
0.000278884
4.3524e-05
-0.00191826
0.000245456
5.36879e-05
-0.00155459
0.000231318
5.38424e-05
0.00127279
-0.00132786
0.000176789
-8.13037e-06
0.000116172
-0.000515194
-0.00270367
0.000330068
-0.000446845
-0.00219561
0.000252351
-0.000250515
-0.00198257
0.000193659
-0.00018899
-0.00186128
0.000153773
-9.17542e-05
-0.00179279
0.000142034
-3.73983e-05
-0.00157446
0.000137483
-2.13115e-05
0.00129306
-0.00132494
0.000116869
-5.04146e-05
7.52653e-05
-0.000563918
-0.000966927
0.000213773
-0.000470927
-0.00111146
0.000185283
-0.000311517
-0.0011677
0.000122013
-0.000254227
-0.00137167
8.66204e-05
-0.000172347
-0.00156031
8.76032e-05
-0.000101478
-0.00150847
9.11387e-05
-7.52339e-05
-0.00128446
8.7254e-05
-4.10777e-05
0.00108202
-0.00108051
7.01202e-05
-4.19735e-05
3.62059e-05
-0.000383498
0.000252375
7.36756e-05
-0.00033738
-4.32106e-05
4.10399e-05
-0.000292131
-0.000372735
3.78679e-05
-0.000241315
-0.0008411
3.37417e-05
-0.000182138
-0.001218
3.70118e-05
-0.000129899
-0.00129911
4.15759e-05
-9.66671e-05
-0.00121749
4.14936e-05
-6.30869e-05
-0.00111202
4.05087e-05
-3.62082e-05
0.00100934
-0.000992657
3.44984e-05
-1.69939e-05
9.7273e-06
-0.000173351
0.00127427
6.46584e-06
-0.000174448
0.000835465
7.54319e-06
-0.000153354
0.000293805
8.12265e-06
-0.000128183
-0.000217433
7.69579e-06
-0.000108608
-0.000648356
8.67636e-06
-9.03426e-05
-0.000882982
9.29037e-06
-6.94297e-05
-0.000971696
9.96042e-06
-4.92057e-05
-0.00101507
9.73954e-06
-3.01903e-05
-0.00100691
9.92896e-06
-1.22088e-05
0.000939387
-0.000927377
9.79716e-06
0.000939512
0.00634305
-0.00604274
0.00224819
0.000637783
0.00163652
0.00156795
-0.00471397
0.00146712
0.00119944
0.00392032
-0.00381498
0.0013741
0.00118182
0.00067779
0.0013553
-0.0036264
0.000970923
0.00142244
-0.00247631
0.000757578
0.000997878
0.00211423
-0.00217527
0.000592373
0.000757189
0.000168137
0.00103328
-0.00342068
0.000708665
0.00117567
-0.00227331
0.000474079
0.00102196
-0.00135545
0.000258746
0.000764202
0.00034267
-0.00054851
0.000179979
0.000494169
0.000321104
0.000350198
-0.00367483
0.00066914
0.000609584
-0.00277606
0.000558562
0.000736272
-0.00169612
0.000517129
0.000583554
-0.00121956
0.000429687
0.000433454
0.000827348
-0.000977822
0.000306438
0.000251435
0.000186108
-0.000229996
-0.00336882
0.000678653
3.8283e-05
-0.00296177
0.000562897
0.0003114
-0.00254319
0.000479196
0.000333702
-0.00203207
0.000347411
0.000278161
-0.00157943
0.000267552
0.000170083
0.00107928
-0.00116609
0.000190329
8.12178e-05
0.000161887
-0.000354017
-0.00337786
0.000596708
-0.000364384
-0.00281385
0.000408407
-7.6019e-05
-0.00257939
0.000297392
-5.65416e-06
-0.0020771
0.000254384
4.85098e-05
-0.00168633
0.000236935
3.3224e-05
-0.00137572
0.00020856
5.59794e-05
0.0010809
-0.00113092
0.000149517
-1.19712e-05
0.000113481
-0.000479911
-0.00279532
0.000345277
-0.000550984
-0.00205778
0.000272296
-0.000291657
-0.00195138
0.000201295
-0.000216013
-0.0018604
0.000154562
-0.000135389
-0.0018233
0.000147326
-5.85498e-05
-0.0016168
0.000141449
-3.38806e-05
-0.00136251
0.000133696
-4.27458e-06
0.00112973
-0.00115721
0.000107543
-3.96188e-05
6.81301e-05
-0.00055934
-0.000835375
0.000209329
-0.000530777
-0.000903745
0.00019946
-0.000355966
-0.00103067
0.000112085
-0.000267984
-0.00131011
8.71244e-05
-0.000197408
-0.0015474
8.898e-05
-0.000123219
-0.00152055
9.30064e-05
-8.21298e-05
-0.00129721
8.93556e-05
-5.12595e-05
-0.00108431
7.92347e-05
-3.7365e-05
0.000953312
-0.00094397
6.19357e-05
-3.0251e-05
3.40939e-05
-0.0003826
0.000489577
7.59839e-05
-0.00035394
0.000168992
4.09641e-05
-0.00031045
-0.000209737
3.5138e-05
-0.000256531
-0.000708782
3.38967e-05
-0.00019757
-0.00113517
3.98728e-05
-0.00014164
-0.00125242
4.16233e-05
-0.000105654
-0.00118093
4.12403e-05
-7.28715e-05
-0.00108756
4.07023e-05
-4.59072e-05
-0.000975032
3.85998e-05
-2.07794e-05
0.000894117
-0.000883494
3.24462e-05
-7.87858e-06
9.9358e-06
-0.000168172
0.00145099
7.1662e-06
-0.000172472
0.00100702
7.3866e-06
-0.000156164
0.000450089
7.42311e-06
-0.00013098
-8.60206e-05
7.69095e-06
-0.000113746
-0.000534868
7.9536e-06
-9.35267e-05
-0.000790346
9.56716e-06
-7.47527e-05
-0.000897623
9.97068e-06
-5.39387e-05
-0.000961008
9.83448e-06
-3.4693e-05
-0.000972123
9.64557e-06
-1.86656e-05
-0.000909428
1.06459e-05
-2.7522e-06
0.000820531
-0.000818263
1.02817e-05
0.00080163
0.00701384
-0.00684408
0.00317046
0.000539227
0.00257449
0.00121889
-0.0056434
0.00227446
0.000752624
0.00592741
-0.00561197
0.00237957
0.000986523
0.00157919
0.00151218
-0.00481975
0.00123986
0.00137664
-0.00378053
0.00147847
0.000893532
0.00386592
-0.00372002
0.00133254
0.00089899
0.00062086
0.00145721
-0.00391804
0.000988797
0.00146444
-0.00262869
0.000834535
0.00128936
-0.00227805
0.000592967
0.00105264
0.00128405
-0.00148677
0.000506654
0.000575584
0.000165986
0.000918762
-0.00369189
0.000811678
0.0010599
-0.00262296
0.000608002
0.00116171
-0.00162918
0.000322378
0.00091756
-0.000847091
0.000223321
0.000576207
1.4693e-06
-0.000145967
0.000181724
0.000417284
0.000274577
0.000187258
-0.00383833
0.000857706
0.000454328
-0.00308438
0.000561416
0.000721967
-0.00206028
0.000512147
0.00058079
-0.00138969
0.000440178
0.000522466
-0.00117074
0.000378302
0.000317668
0.000760327
-0.000856727
0.000255253
0.000186952
0.000161279
-0.000183485
-0.0034484
0.000811588
-0.000175105
-0.00303157
0.000559174
0.000184627
-0.00272824
0.000487306
0.000299692
-0.00223667
0.000378456
0.000298903
-0.00176552
0.000283107
0.000182249
-0.00128209
0.000234534
0.0001038
0.000907389
-0.000949704
0.000184823
7.72352e-05
0.000133475
-0.000249631
-0.00360286
0.000630662
-0.000457843
-0.00276143
0.000451148
-0.000188934
-0.00258889
0.000315183
-5.30955e-05
-0.00220657
0.000263944
5.71645e-06
-0.00181753
0.000244473
2.68498e-05
-0.00144528
0.000221089
3.4105e-05
-0.00116861
0.00017827
5.33762e-05
0.00089107
-0.000928464
0.00012926
6.575e-07
0.000104432
-0.000480365
-0.00291991
0.000364362
-0.00062178
-0.00191514
0.000293635
-0.000394195
-0.00185996
0.000219112
-0.000244627
-0.00184614
0.00016368
-0.000174074
-0.00184105
0.000148975
-8.55032e-05
-0.00165473
0.000147537
-4.78687e-05
-0.00139378
0.000138462
-4.00472e-06
-0.00119305
0.000122281
-1.74312e-06
0.000988335
-0.00101299
9.65746e-05
-3.17872e-05
6.00213e-05
-0.000560324
-0.00071244
0.000206654
-0.00057526
-0.000681561
0.000208464
-0.000402982
-0.000870332
0.000131658
-0.000303946
-0.00123128
8.06691e-05
-0.000230874
-0.00151183
8.48569e-05
-0.000149339
-0.00152005
9.61747e-05
-9.02881e-05
-0.00131177
9.21995e-05
-5.58143e-05
-0.00109265
8.0633e-05
-4.06956e-05
-0.000940324
7.03764e-05
-2.10177e-05
0.000816844
-0.000810269
5.55989e-05
-1.22735e-05
3.19812e-05
-0.000378191
0.000728215
7.74638e-05
-0.000366831
0.000390781
4.85534e-05
-0.000321604
-3.15324e-05
2.81999e-05
-0.000269967
-0.000569552
3.48953e-05
-0.000217014
-0.00103521
3.72065e-05
-0.000157897
-0.00119052
4.23368e-05
-0.000115314
-0.00113979
4.10445e-05
-8.24621e-05
-0.00105822
4.04165e-05
-5.0851e-05
-0.000957116
3.89453e-05
-3.12514e-05
-0.000868671
3.63616e-05
-4.83441e-06
0.000775228
-0.000771747
3.10467e-05
7.91396e-07
1.03549e-05
-0.000160576
0.00162072
5.96915e-06
-0.000169133
0.00117547
7.84444e-06
-0.000154388
0.000604387
7.47747e-06
-0.000134714
4.89243e-05
7.19194e-06
-0.000118609
-0.000417035
8.46708e-06
-9.99837e-05
-0.00069173
9.32116e-06
-7.98175e-05
-0.000817857
9.61863e-06
-5.89824e-05
-0.000901932
9.87747e-06
-3.81653e-05
-0.000934017
9.89344e-06
-2.28138e-05
-0.000887435
1.04659e-05
-6.83014e-06
-0.000812193
1.14055e-05
5.16831e-06
0.00067738
-0.000682927
1.06603e-05
0.000604986
0.00664615
-0.00657881
0.00359296
0.000449038
0.00326286
0.000706715
-0.00642347
0.0034462
0.000463635
0.00700398
-0.00685526
0.00331074
0.000729204
0.0025927
0.00148449
-0.00555477
0.00212027
0.00106656
-0.00540589
0.00237846
0.000667027
0.00589093
-0.00562158
0.00233672
0.000802031
0.00155683
0.00170969
-0.00494856
0.00118372
0.00159104
-0.00389717
0.0012299
0.00130583
-0.00355697
0.00129895
0.0010579
0.00312791
-0.00306183
0.00126121
0.000570073
0.000614904
0.001533
-0.00423005
0.00107967
0.00140212
-0.00285412
0.000872007
0.00150262
-0.00241567
0.000631235
0.00124371
-0.00176718
0.000547225
0.000698887
0.000801815
-0.000917217
0.000499377
0.000555083
0.000154018
0.000858392
-0.00399403
0.00103173
0.000935025
-0.00295277
0.000660788
0.00120424
-0.00194888
0.000445435
0.00086726
-0.00110049
0.000289311
0.000761303
-0.000367392
0.000205909
0.000390673
-8.16944e-05
1.07337e-05
0.000179679
0.000273605
0.000229565
0.000150989
-0.00402847
0.00111499
0.000242032
-0.00327208
0.000628274
0.000623519
-0.00244389
0.000506134
0.000588484
-0.00161148
0.000445142
0.000533835
-0.0013594
0.0003939
0.00039514
-0.00100902
0.000317701
0.0001757
0.000706746
-0.000730075
0.000206682
0.000116739
0.000162763
-6.27182e-05
-0.00362834
0.00093288
-0.000303794
-0.00299918
0.00062515
4.11446e-05
-0.00287194
0.000472797
0.000233935
-0.00243451
0.000398116
0.000281323
-0.00196853
0.00030586
0.000204566
-0.00143
0.000253293
0.000100165
-0.00100044
0.00021921
8.84357e-05
0.000780175
-0.000799066
0.000168655
5.70722e-05
0.000109145
-0.000224039
-0.00386064
0.000661122
-0.000492622
-0.00277159
0.000511661
-0.000305394
-0.00255867
0.000332127
-0.00012048
-0.0022897
0.000274175
-2.50481e-05
-0.00195685
0.000254245
2.11113e-05
-0.00153705
0.000229632
1.31929e-05
-0.00120074
0.00019215
6.65824e-05
-0.000975567
0.000154786
4.20078e-05
0.00075763
-0.000787736
0.000115615
1.65162e-05
9.26438e-05
-0.000401063
-0.00314257
0.000392664
-0.000665912
-0.00178159
0.00032147
-0.000500982
-0.00169945
0.000231121
-0.000281784
-0.00181984
0.00017065
-0.000207669
-0.00185595
0.000155376
-0.00012624
-0.00168107
0.000152218
-5.94492e-05
-0.0014214
0.000144312
-1.05262e-05
-0.00122709
0.000127215
1.85896e-06
-0.00104298
0.000109718
1.01282e-05
0.000832184
-0.000850629
8.3874e-05
-7.32014e-06
5.29844e-05
-0.000526212
-0.000625916
0.000201062
-0.000602785
-0.000444426
0.000205474
-0.000458965
-0.000679682
0.000155175
-0.00034785
-0.00111304
9.12996e-05
-0.00025998
-0.00147316
8.49706e-05
-0.000184847
-0.00150631
9.80755e-05
-0.000103211
-0.00132318
9.5483e-05
-6.24593e-05
-0.00110324
8.27923e-05
-3.87686e-05
-0.000943636
7.18633e-05
-3.25826e-05
-0.000802366
6.38046e-05
1.53431e-07
0.000696647
-0.000693862
4.78263e-05
3.3081e-06
3.0632e-05
-0.00036728
0.000961024
7.98455e-05
-0.000376547
0.00062392
5.17391e-05
-0.000337185
0.000163355
3.64631e-05
-0.000280914
-0.00042744
3.22881e-05
-0.000227083
-0.000928501
3.66629e-05
-0.000179019
-0.00111535
4.10712e-05
-0.000125701
-0.00109247
4.08925e-05
-9.06826e-05
-0.00102586
4.03845e-05
-5.80748e-05
-0.000935959
3.91685e-05
-3.92713e-05
-0.000850107
3.68394e-05
-1.50145e-05
-0.000762151
3.49504e-05
1.51764e-05
0.000651085
-0.000659401
2.9354e-05
7.76065e-06
1.06628e-05
-0.000152856
0.00178279
7.52618e-06
-0.000164894
0.00133884
7.49229e-06
-0.000152576
0.000757028
7.77964e-06
-0.000135334
0.000184597
7.13834e-06
-0.000121402
-0.000296378
7.93732e-06
-0.000104627
-0.000588686
1.00503e-05
-8.47906e-05
-0.000733375
9.6293e-06
-6.29809e-05
-0.000839248
9.91571e-06
-4.26662e-05
-0.000891509
1.00359e-05
-2.61221e-05
-0.000861952
1.05331e-05
-1.14762e-05
-0.000801526
1.12755e-05
2.31732e-06
-0.000685675
1.18364e-05
1.0702e-05
0.000530672
-0.000541355
1.06419e-05
0.000442085
0.00595774
-0.00591015
0.00388033
0.000591179
0.00358337
0.000662749
-0.00663992
0.00395112
0.000466916
0.00666386
-0.00672368
0.0036495
0.000530727
0.00339569
0.00112844
-0.00620725
0.00319682
0.000708658
-0.0066401
0.00358894
0.000478635
0.00691729
-0.00689826
0.0034801
0.000500409
0.00265542
0.00171493
-0.00550566
0.00195099
0.00147182
-0.00529669
0.0021303
0.000984479
-0.00519546
0.00227368
0.000677831
0.00532854
-0.00500376
0.00239201
0.000533923
0.00153985
0.00198413
-0.00507734
0.00111676
0.00165483
-0.00418639
0.00122023
0.00161182
-0.00350708
0.00107081
0.00137335
-0.00315984
0.00126732
0.000566495
0.00291561
-0.00275854
0.00123653
0.000619487
0.000507752
0.00143902
-0.00443054
0.00118988
0.00139008
-0.00322245
0.000992931
0.00147179
-0.0024827
0.000671485
0.00119603
-0.00202529
0.000560577
0.000969526
-0.00110001
0.000521791
0.000426328
0.000805505
-0.000745442
0.000403659
0.000295343
0.000161509
0.000692152
-0.00422675
0.00126483
0.000824003
-0.00327022
0.000767214
0.00112287
-0.00230403
0.000516585
0.00104174
-0.00147579
0.000367478
0.000807528
-0.000616105
0.00026433
0.000515693
-0.000114125
0.000210214
0.000135224
-9.68611e-05
0.000106916
0.0002101
0.00014468
0.000186491
0.000191419
-0.00428767
0.00130321
5.96909e-05
-0.00331691
0.000796337
0.000435145
-0.00271696
0.00050735
0.000594757
-0.00191238
0.000446212
0.000535935
-0.00156765
0.000398784
0.000436536
-0.00118571
0.000338622
0.000248939
-0.000818832
0.000257683
0.000107084
0.000657967
-0.000637556
0.000167622
9.8173e-05
0.000152615
1.85259e-05
-0.00388156
0.00100196
-0.000335144
-0.00296416
0.000740377
-0.000111606
-0.00291328
0.000472702
0.000166096
-0.00265143
0.000403135
0.000253438
-0.00217787
0.000328975
0.000229715
-0.00160232
0.000269575
0.000103948
-0.00107837
0.000240469
0.00010535
-0.000818674
0.000200051
8.92547e-05
0.000699233
-0.000715557
0.000137732
6.25609e-05
8.25517e-05
-0.000105194
-0.00408569
0.000684808
-0.000502009
-0.00285051
0.000576143
-0.000431874
-0.00249165
0.000375527
-0.00018184
-0.00233801
0.000280489
-7.38165e-05
-0.00208044
0.000263909
3.20056e-06
-0.00165383
0.00024159
1.3948e-05
-0.00124763
0.000203128
5.0873e-05
-0.00101224
0.000167424
4.85306e-05
-0.000823497
0.000143875
5.10306e-05
0.000640727
-0.000658172
9.21578e-05
4.82682e-05
7.48625e-05
-0.000353361
-0.00333113
0.000404846
-0.000687145
-0.001667
0.000362433
-0.000614529
-0.00147153
0.000249117
-0.00036293
-0.0017402
0.000166563
-0.000243241
-0.00186086
0.000158824
-0.000171191
-0.00169688
0.000157531
-7.87166e-05
-0.00144463
0.000150961
-2.19478e-05
-0.00125533
0.000132048
3.76868e-06
-0.00107278
0.000114475
-1.19523e-05
-0.000861461
9.99197e-05
3.6814e-05
0.000649107
-0.000668748
6.68547e-05
1.55805e-05
4.42548e-05
-0.000513061
-0.000542685
0.00019612
-0.000623562
-0.000214906
0.000218557
-0.000528294
-0.000433597
0.000150496
-0.000388438
-0.000953753
0.00010341
-0.000300358
-0.00140159
9.29975e-05
-0.000217537
-0.0014812
9.83722e-05
-0.00012574
-0.00132462
9.95501e-05
-7.0664e-05
-0.00111319
8.54137e-05
-4.28064e-05
-0.000949431
7.33187e-05
-3.77698e-05
-0.000797991
6.59863e-05
-1.81972e-05
-0.000682947
5.6072e-05
2.69469e-05
0.000577235
-0.000581522
4.0343e-05
2.02148e-05
2.8724e-05
-0.000358815
0.00118717
8.03676e-05
-0.000380331
0.000861969
5.72341e-05
-0.000343189
0.000368345
3.73617e-05
-0.00029608
-0.000264481
3.42515e-05
-0.000245917
-0.00081001
3.83126e-05
-0.000195757
-0.00103434
4.67874e-05
-0.000137006
-0.00103952
4.03443e-05
-9.99841e-05
-0.000988137
4.01756e-05
-6.53963e-05
-0.00091225
3.94059e-05
-4.5888e-05
-0.000828531
3.73581e-05
-2.35129e-05
-0.000748963
3.56883e-05
8.88009e-06
-0.000664056
3.30424e-05
2.38228e-05
0.000533255
-0.000543749
2.67272e-05
1.26566e-05
1.05619e-05
-0.00014605
0.00193819
7.76884e-06
-0.000159031
0.00149804
7.36117e-06
-0.000150424
0.000907713
7.23092e-06
-0.000136509
0.000321747
7.13885e-06
-0.000125375
-0.000171599
7.73429e-06
-0.000109074
-0.000481056
9.38096e-06
-8.35106e-05
-0.000649802
9.9876e-06
-6.73806e-05
-0.000771771
9.53301e-06
-4.79431e-05
-0.000843622
9.97228e-06
-2.89778e-05
-0.000833463
1.05241e-05
-1.62596e-05
-0.00078603
1.12965e-05
-1.09609e-06
-0.000685108
1.18052e-05
9.50147e-06
-0.000550836
1.18149e-05
1.43533e-05
0.000401256
-0.000415143
1.01756e-05
0.000567465
0.00549196
-0.0056034
0.00396379
0.000682562
0.00385562
0.00049326
-0.00592843
0.00426353
0.000538658
0.00597054
-0.00603354
0.00387158
0.000557377
0.00364668
0.00079639
-0.00647108
0.00390637
0.000733237
-0.00676338
0.00396625
0.000498394
0.0067056
-0.00683576
0.0037599
0.000341903
0.00355751
0.00137896
-0.0060142
0.00298938
0.00102418
-0.00633572
0.00334008
0.000565019
-0.00657772
0.00368786
0.000354247
0.00676345
-0.00659304
0.00363327
0.000354572
0.00264941
0.00191948
-0.00529972
0.00193429
0.00160477
-0.00523475
0.00193911
0.00141016
-0.00492833
0.00206484
0.00103765
-0.00471689
0.00232251
0.000338893
0.00471317
-0.00449467
0.00240111
0.000421723
0.00142012
0.00197029
-0.00526586
0.00147712
0.00168033
-0.00447009
0.00111022
0.00174388
-0.00365586
0.00109692
0.00140615
-0.00340424
0.00110508
0.000912338
-0.00263532
0.00120129
0.000188599
0.00310709
-0.00287379
0.00124095
0.000270764
0.000402456
0.00130531
-0.00474102
0.00143393
0.00128446
-0.00349667
0.00100364
0.00149089
-0.00264729
0.000789512
0.00137118
-0.00221268
0.000529436
0.0011092
-0.00128484
0.00044374
0.000657731
-0.000769632
0.000403943
8.77883e-05
0.000916529
-0.000754673
0.000289238
1.43615e-05
0.000196715
0.000688138
-0.00451087
0.00143212
0.000691547
-0.00356775
0.000930508
0.00100645
-0.00270506
0.000596937
0.00107633
-0.00185876
0.000417977
0.000885744
-0.000925202
0.000326766
0.000637252
-0.000297277
0.000246765
0.000259444
6.17651e-05
0.00024486
-6.69049e-06
0.000117088
-4.85743e-05
0.00025536
0.000119732
0.000152907
0.000256341
-0.00453725
0.00135427
2.09335e-05
-0.00340632
0.00103654
0.000254625
-0.00284331
0.000556449
0.000564722
-0.00224689
0.000443231
0.000545202
-0.00182053
0.000407332
0.000495289
-0.00141118
0.000358679
0.000321536
-0.000968995
0.000271196
0.00013861
-0.000620126
0.000206994
6.29806e-05
0.000571073
-0.000538429
0.000161252
9.91309e-05
0.000121955
3.3836e-05
-0.00397532
0.00104575
-0.000310368
-0.00301211
0.000858274
-0.000255048
-0.00286105
0.000511318
6.95327e-05
-0.00283044
0.000400338
0.000204752
-0.00240568
0.000352376
0.000228834
-0.00179327
0.000294291
0.000117192
-0.00116958
0.00025754
9.90342e-05
-0.000841533
0.000215167
8.60876e-05
-0.000718501
0.000165438
8.13958e-05
0.000572705
-0.000584568
0.000119229
9.97879e-05
6.35291e-05
-0.000163757
-0.0041276
0.000702556
-0.000475499
-0.00301614
0.000638794
-0.000555412
-0.00242306
0.000448438
-0.000269481
-0.00235861
0.00030268
-0.000125515
-0.00219026
0.000272587
-3.26047e-05
-0.00178344
0.00025493
1.38172e-05
-0.0013151
0.000216531
2.92074e-05
-0.00103771
0.000177439
4.80452e-05
-0.000855166
0.000154817
4.84548e-05
-0.000701328
0.000126624
6.64226e-05
0.000535721
-0.000549124
7.59526e-05
6.35155e-05
5.49316e-05
-0.000390408
-0.00346601
0.000399523
-0.000698007
-0.00159952
0.000411806
-0.000699755
-0.00122563
0.000287991
-0.000468973
-0.00158575
0.000175203
-0.000303783
-0.00184632
0.000155442
-0.000208337
-0.00171013
0.000162875
-0.000119823
-0.00145068
0.000157657
-3.9497e-05
-0.00127401
0.000138465
2.62304e-06
-0.00110455
0.00011839
-4.32062e-06
-0.000886392
0.000105958
2.42735e-06
-0.000676858
8.74056e-05
5.76782e-05
0.000492949
-0.000509865
5.30394e-05
3.80686e-05
3.45998e-05
-0.000516685
-0.000443859
0.000190752
-0.000636544
1.50006e-05
0.000222427
-0.000557244
-0.000174457
0.000173471
-0.000440108
-0.000762851
0.000103622
-0.000351359
-0.00128548
9.274e-05
-0.000250711
-0.00143084
9.75912e-05
-0.000147877
-0.00131851
0.000103134
-9.21773e-05
-0.00110998
8.85257e-05
-4.73348e-05
-0.000957053
7.49737e-05
-3.95406e-05
-0.000798479
6.746e-05
-3.06333e-05
-0.000669424
5.95836e-05
1.07906e-05
-0.00057705
4.96891e-05
3.8393e-05
0.000475597
-0.000482648
3.28229e-05
2.84678e-05
2.47985e-05
-0.000341082
0.00140121
8.10108e-05
-0.000379519
0.00110125
6.15778e-05
-0.000352386
0.000585665
4.18761e-05
-0.000309364
-8.90236e-05
3.47599e-05
-0.000264671
-0.000673331
3.68679e-05
-0.000210238
-0.000936227
4.13646e-05
-0.000138899
-0.000983925
4.65774e-05
-0.000108003
-0.000946978
3.98073e-05
-7.40377e-05
-0.000885295
3.93155e-05
-5.04363e-05
-0.000805496
3.78291e-05
-3.08481e-05
-0.000733414
3.6397e-05
-1.40855e-06
-0.000661837
3.37816e-05
2.16865e-05
-0.000553941
3.1049e-05
2.82013e-05
0.000442473
-0.000451923
2.2329e-05
1.59456e-05
9.81483e-06
-0.00013733
0.0020846
8.082e-06
-0.000155125
0.00165367
7.25808e-06
-0.000146887
0.00105461
7.35202e-06
-0.000136532
0.000458475
7.03424e-06
-0.000127545
-4.46171e-05
7.70106e-06
-0.000112985
-0.000369723
9.38677e-06
-9.32552e-05
-0.000556931
9.76562e-06
-7.06678e-05
-0.000700692
9.57649e-06
-5.24141e-05
-0.000791489
9.81315e-06
-3.2654e-05
-0.000801481
1.06441e-05
-1.89412e-05
-0.000767697
1.11325e-05
-5.14726e-06
-0.000680496
1.18311e-05
7.00873e-06
-0.000557893
1.18535e-05
1.37893e-05
-0.000428666
1.15494e-05
1.53687e-05
0.000286743
-0.000300461
8.52508e-06
0.0005015
0.00550857
-0.0055386
0.00389774
0.000698398
0.00400245
0.000403763
-0.00553629
0.00435358
0.000564353
0.00561394
-0.00561986
0.00394401
0.000675931
0.00390488
0.000603719
-0.0059299
0.00424642
0.000606805
-0.00594295
0.00429938
0.000554343
0.00607523
-0.00612827
0.00386867
0.000433941
0.00369424
0.000834844
-0.00613754
0.0038394
0.000755226
-0.00655784
0.00396978
0.000554689
-0.00702426
0.00416507
0.000247182
0.00670294
-0.00661245
0.00377648
0.000160774
0.00360934
0.00150957
-0.00567441
0.00289157
0.00111818
-0.00597135
0.0031116
0.00094698
-0.006234
0.00345953
0.000632368
-0.00633712
0.00383722
0.000228844
0.00631941
-0.00619709
0.003621
0.000202907
0.0025291
0.00214707
-0.00515732