/*--------------------------------*- C++ -*----------------------------------*\
  =========                 |
  \\      /  F ield         | OpenFOAM: The Open Source CFD Toolbox
   \\    /   O peration     | Website:  https://openfoam.org
    \\  /    A nd           | Version:  7
     \\/     M anipulation  |
\*---------------------------------------------------------------------------*/
FoamFile
{
    version     2.0;
    format      ascii;
    class       volVectorField;
    location    "1.5";
    object      U_0;
}
// * * * * * * * * * * * * * * * * * * * * * * * * * * * * * * * * * * * * * //

dimensions      [0 1 -1 0 0 0 0];

internalField   nonuniform List<vector> 
18720
(
(-1.43282 0.210894 0.142533)
(-1.32583 0.604733 0.323087)
(-1.40809 0.20866 0.155811)
(-1.44823 0.191233 0.136644)
(-1.18964 0.243188 0.203787)
(-0.612224 0.903367 1.11643)
(-1.2965 0.585938 0.332103)
(-1.24851 0.650135 0.440379)
(-1.13415 0.51016 0.327886)
(-1.17526 0.242298 0.186059)
(-1.43391 0.227085 0.169197)
(-1.21085 0.247459 0.204507)
(-0.969603 0.320002 0.166764)
(-0.56131 1.39798 0.816311)
(-0.686478 0.861778 0.979125)
(-0.680775 0.938523 1.11341)
(-0.599511 0.862797 0.749662)
(-1.11251 0.492305 0.329777)
(-1.21759 0.64727 0.505139)
(-1.14946 0.550771 0.331826)
(-0.911964 0.5386 0.275014)
(-0.948461 0.349645 0.179741)
(-1.46919 0.210161 0.107538)
(-1.23874 0.250992 0.194059)
(-0.971411 0.363092 0.185462)
(-0.783907 0.447168 0.163844)
(-0.117947 1.54526 0.946676)
(-0.581435 1.35908 0.785533)
(-0.625663 1.43172 0.843416)
(-0.523308 1.11703 0.710788)
(-0.633907 0.854146 0.683097)
(-0.84068 0.974788 1.0368)
(-0.578792 0.866617 0.811104)
(-0.5729 0.775818 0.514963)
(-0.898482 0.508706 0.26085)
(-1.18707 0.661296 0.629703)
(-1.19708 0.574736 0.310076)
(-0.953906 0.568066 0.25087)
(-0.660489 0.650088 0.246925)
(-0.73477 0.455572 0.230363)
(-1.49005 0.218934 0.0410063)
(-1.26383 0.260303 0.18967)
(-1.00766 0.33321 0.19302)
(-0.796099 0.455638 0.164899)
(-0.644581 0.551256 0.177443)
(0.417002 1.04145 0.936109)
(-0.126565 1.47619 0.790916)
(-0.144775 1.59273 1.1093)
(-0.115497 1.22723 0.649779)
(-0.575937 1.08583 0.681844)
(-0.68676 1.47147 0.880949)
(-0.503384 1.18081 0.737723)
(-0.443934 0.950737 0.584778)
(-0.507576 0.783054 0.521507)
(-0.991514 1.01437 0.954157)
(-0.621423 0.880973 0.842339)
(-0.617806 0.801978 0.519117)
(-0.397583 0.772128 0.353425)
(-0.621736 0.628869 0.266395)
(-1.18594 0.661744 0.719583)
(-1.24305 0.606233 0.273682)
(-0.981246 0.575342 0.255417)
(-0.7093 0.657 0.246081)
(-0.524301 0.705336 0.255689)
(-0.633255 0.552182 0.169011)
(-1.4944 0.21627 -0.000126193)
(-1.28832 0.266455 0.182536)
(-1.01854 0.350002 0.196585)
(-0.816395 0.452877 0.15531)
(-0.663691 0.552318 0.165407)
(-0.516449 0.586737 0.219631)
(0.781768 1.12043 0.71644)
(0.456077 0.904025 0.760719)
(0.210657 1.2032 1.1521)
(0.300952 0.937973 0.942929)
(-0.157046 1.13898 0.653064)
(-0.232143 1.63654 1.20684)
(-0.0347252 1.29046 0.713187)
(-0.0836846 0.925519 0.606688)
(-0.431185 0.920122 0.577308)
(-0.756709 1.51637 0.927454)
(-0.582198 1.23164 0.755595)
(-0.432629 0.976331 0.596509)
(-0.277899 0.8785 0.471747)
(-0.440308 0.698443 0.373305)
(-1.11131 1.04675 0.899548)
(-0.643161 0.898248 0.882724)
(-0.605272 0.826343 0.557342)
(-0.536837 0.754189 0.380408)
(-0.329526 0.758661 0.347385)
(-0.509447 0.694145 0.257919)
(-1.22061 0.653649 0.740581)
(-1.29263 0.62665 0.221126)
(-0.985304 0.575244 0.307845)
(-0.72645 0.669557 0.244872)
(-0.54175 0.717642 0.25263)
(-0.445418 0.693914 0.282171)
(-0.525277 0.583523 0.198968)
(-1.48613 0.210586 0.0163854)
(-1.30978 0.266815 0.176056)
(-1.04019 0.348552 0.193874)
(-0.830893 0.45711 0.153608)
(-0.670492 0.560175 0.164838)
(-0.549318 0.583663 0.204918)
(-0.444064 0.569717 0.204834)
(0.90821 1.2252 0.777264)
(0.729753 1.04192 0.604807)
(0.843241 1.17027 0.846516)
(0.780263 0.726601 0.649633)
(0.305385 0.820465 0.703611)
(0.0127995 1.37148 1.25001)
(0.359473 1.07309 1.06675)
(0.255005 0.90357 0.75392)
(-0.103028 0.835328 0.62101)
(-0.29535 1.70176 1.2417)
(0.063908 1.37448 0.801113)
(-0.0889913 1.01421 0.612316)
(-0.00671931 0.76499 0.559631)
(-0.248265 0.855688 0.46109)
(-0.805793 1.57962 0.985437)
(-0.556299 1.27125 0.765001)
(-0.448996 1.02011 0.604845)
(-0.30975 0.915593 0.474084)
(-0.184835 0.821513 0.405483)
(-0.313494 0.73865 0.344761)
(-1.1903 1.0787 0.87678)
(-0.661607 0.896657 0.957044)
(-0.712344 0.809933 0.488137)
(-0.51711 0.788718 0.38804)
(-0.342553 0.787955 0.344558)
(-0.302223 0.719522 0.365422)
(-0.448479 0.681906 0.279738)
(-1.26384 0.644492 0.721934)
(-1.29923 0.643659 0.212227)
(-1.00032 0.619847 0.30637)
(-0.759445 0.690408 0.230678)
(-0.559819 0.746832 0.251211)
(-0.444506 0.703096 0.285798)
(-0.378573 0.629087 0.285945)
(-0.425385 0.5756 0.209728)
(-1.47629 0.193592 0.0681711)
(-1.32691 0.264318 0.171166)
(-1.06144 0.361649 0.184811)
(-0.846511 0.461649 0.157649)
(-0.69024 0.558736 0.161424)
(-0.545736 0.597047 0.214729)
(-0.448972 0.576237 0.205607)
(-0.316032 0.544748 0.200951)
(1.17972 1.56205 1.16062)
(0.819109 1.1441 0.788844)
(1.04553 1.2354 0.807426)
(0.972208 0.825144 0.521283)
(0.648269 0.647116 0.653216)
(0.802561 1.34837 0.915525)
(0.802334 0.895454 0.708412)
(0.731716 0.456834 0.690972)
(0.219964 0.806255 0.595103)
(0.0542927 1.57453 1.16234)
(0.361835 1.16532 1.12181)
(0.336148 0.99278 0.901398)
(0.180977 0.803838 0.565163)
(0.00492955 0.721571 0.552021)
(-0.279128 1.75235 1.31663)
(0.00200501 1.44106 0.908173)
(-0.0453391 1.10709 0.627974)
(-0.0107815 0.819218 0.575026)
(0.0411728 0.703746 0.523174)
(-0.162668 0.799591 0.388453)
(-0.790327 1.64516 1.06438)
(-0.542094 1.33346 0.76971)
(-0.457723 1.07263 0.621559)
(-0.310216 0.952819 0.4804)
(-0.160425 0.863109 0.40787)
(-0.148962 0.734021 0.393306)
(-0.292979 0.697253 0.362482)
(-1.24989 1.1102 0.852208)
(-0.713848 0.939347 0.981117)
(-0.734258 0.883253 0.409286)
(-0.557907 0.812866 0.370722)
(-0.352158 0.819906 0.350566)
(-0.298492 0.739166 0.368763)
(-0.212857 0.622386 0.367998)
(-0.372472 0.616191 0.286506)
(-1.29413 0.639205 0.709414)
(-1.27948 0.651641 0.25838)
(-1.06275 0.607271 0.283649)
(-0.799739 0.717105 0.216769)
(-0.587013 0.774328 0.241577)
(-0.442714 0.722294 0.288874)
(-0.380269 0.641305 0.289426)
(-0.258994 0.558375 0.280532)
(-0.284107 0.55209 0.226275)
(-1.47154 0.183906 0.112632)
(-1.33678 0.268659 0.170662)
(-1.07814 0.365378 0.185014)
(-0.860396 0.466054 0.158241)
(-0.692619 0.571929 0.168064)
(-0.561449 0.595449 0.198312)
(-0.448282 0.578779 0.210877)
(-0.312266 0.542877 0.216539)
(-0.189991 0.517178 0.222404)
(0.996775 2.30557 1.53093)
(0.947388 1.69455 1.26411)
(1.15494 1.58164 1.1292)
(1.15079 1.18413 0.913775)
(0.833156 0.821488 0.489319)
(1.09162 1.32931 0.873491)
(1.05147 0.859568 0.60374)
(0.723401 0.579215 0.296339)
(0.660916 0.363193 0.667638)
(0.604333 1.51421 1.05482)
(0.773346 1.05124 0.813836)
(0.771808 0.546851 0.75753)
(0.640211 0.464837 0.634676)
(0.162399 0.722844 0.478943)
(-0.0970993 1.67929 1.28564)
(0.292822 1.2944 1.08672)
(0.397601 1.05901 0.99228)
(0.244633 0.869331 0.655516)
(0.1269 0.660831 0.477699)
(0.0318364 0.67939 0.498083)
(-0.209294 1.76293 1.43407)
(-0.110047 1.49914 0.991838)
(0.0484891 1.21276 0.659836)
(-0.0417241 0.91611 0.574666)
(0.0280173 0.733781 0.54867)
(0.0228601 0.641699 0.474726)
(-0.140559 0.708798 0.375575)
(-0.734479 1.69268 1.12203)
(-0.701341 1.38064 0.811766)
(-0.426822 1.08476 0.650203)
(-0.32359 0.989945 0.480751)
(-0.189761 0.900821 0.421505)
(-0.0970688 0.770783 0.40598)
(-0.126257 0.641528 0.386017)
(-0.222499 0.605467 0.356519)
(-1.27008 1.14115 0.828052)
(-0.839049 0.949265 0.991096)
(-0.736476 0.828244 0.596138)
(-0.594832 0.841933 0.372562)
(-0.386892 0.841993 0.35693)
(-0.263008 0.77768 0.36963)
(-0.226918 0.638489 0.373461)
(-0.155406 0.528382 0.335672)
(-0.257402 0.549895 0.279827)
(-1.31862 0.622155 0.707666)
(-1.27167 0.65003 0.317738)
(-1.06267 0.654565 0.293233)
(-0.834707 0.710919 0.217907)
(-0.622504 0.76585 0.23381)
(-0.45865 0.741593 0.287436)
(-0.386746 0.648979 0.289089)
(-0.270734 0.565949 0.282575)
(-0.17743 0.489791 0.270608)
(-0.179701 0.520131 0.223119)
(-1.47557 0.179734 0.128092)
(-1.3473 0.261928 0.16186)
(-1.10016 0.368757 0.180286)
(-0.868499 0.463796 0.170513)
(-0.71271 0.560317 0.17044)
(-0.588035 0.587356 0.176404)
(-0.449851 0.573412 0.213188)
(-0.329874 0.548673 0.208976)
(-0.218981 0.513692 0.203056)
(-0.107807 0.462752 0.21773)
(0.788116 3.10407 2.23823)
(0.345782 2.43996 1.9071)
(1.25766 2.15149 1.48763)
(1.17985 1.91417 1.53845)
(1.0427 1.21582 0.970194)
(1.25448 1.57834 1.13607)
(1.32305 1.18093 0.951151)
(0.974291 1.05447 0.840382)
(0.666127 0.556614 0.252199)
(1.10005 1.42559 1.03208)
(1.09337 0.939567 0.742975)
(0.821268 0.586256 0.405274)
(0.648701 0.210638 0.263035)
(0.578011 0.389932 0.60232)
(0.545197 1.68558 1.17891)
(0.698545 1.19398 0.908158)
(0.721139 0.681423 0.86971)
(0.659291 0.519482 0.702399)
(0.516103 0.449247 0.573035)
(0.14572 0.603392 0.413519)
(-0.0290358 1.7726 1.42621)
(0.137621 1.42966 1.08519)
(0.401253 1.16139 0.990862)
(0.36716 0.919648 0.736459)
(0.189972 0.725387 0.521803)
(0.118847 0.554742 0.408627)
(-0.00470751 0.617394 0.442809)
(-0.0905644 1.77794 1.52643)
(-0.227491 1.54796 1.10348)
(0.0331882 1.29329 0.722048)
(-0.0466223 1.00631 0.601915)
(0.0294286 0.799885 0.553145)
(0.0144057 0.662254 0.506233)
(0.0115056 0.543698 0.407406)
(-0.155862 0.616523 0.374542)
(-0.56959 1.75814 1.15435)
(-0.831786 1.44617 0.864637)
(-0.322213 1.15238 0.665419)
(-0.302102 1.01753 0.48817)
(-0.197709 0.941013 0.438286)
(-0.0787972 0.799044 0.416055)
(-0.0937625 0.666359 0.402866)
(-0.0958645 0.558022 0.363871)
(-0.18055 0.52015 0.322547)
(-1.25903 1.17169 0.806157)
(-0.95085 0.980841 0.989888)
(-0.732148 0.883931 0.574842)
(-0.592096 0.888194 0.408217)
(-0.390458 0.892932 0.359911)
(-0.269064 0.803877 0.374473)
(-0.203659 0.661733 0.38599)
(-0.156598 0.537497 0.344369)
(-0.148353 0.461743 0.298238)
(-0.181078 0.48813 0.267206)
(-1.33751 0.599712 0.707986)
(-1.28242 0.645031 0.368783)
(-1.12976 0.66867 0.24286)
(-0.819646 0.719715 0.248773)
(-0.590788 0.794947 0.26366)
(-0.464851 0.757641 0.29078)
(-0.388307 0.663794 0.290222)
(-0.279198 0.574324 0.284738)
(-0.176628 0.491494 0.275279)
(-0.113523 0.435022 0.253677)
(-0.0984791 0.463861 0.22099)
(-1.46868 0.181194 0.160551)
(-1.35421 0.269685 0.150339)
(-1.12848 0.367473 0.164965)
(-0.87785 0.473096 0.164006)
(-0.713919 0.580642 0.158029)
(-0.576804 0.609642 0.202462)
(-0.455449 0.577401 0.217116)
(-0.330532 0.552576 0.207077)
(-0.225608 0.513569 0.196275)
(-0.123391 0.460488 0.210984)
(-0.0313759 0.407552 0.231301)
(0.483086 3.42166 2.89482)
(0.238231 3.19601 2.60269)
(1.30531 2.77012 2.06058)
(0.70148 2.82505 2.41733)
(0.805376 2.05561 1.79832)
(1.38753 2.26265 1.25745)
(1.12858 1.7825 1.58535)
(0.723883 1.92253 1.62301)
(0.724255 1.09248 0.787301)
(1.36215 1.65458 1.18584)
(1.30643 1.08939 1.14263)
(1.12669 1.07319 0.80609)
(0.858547 0.696808 0.659527)
(0.523015 0.203334 0.252257)
(1.05007 1.55747 1.28217)
(1.05327 1.03816 0.891477)
(0.99161 0.63138 0.501007)
(0.612761 0.322092 0.303954)
(0.494056 0.0613588 0.265162)
(0.479908 0.421736 0.495234)
(0.51586 1.79748 1.61643)
(0.623165 1.33695 0.940626)
(0.765809 0.798427 0.828542)
(0.657299 0.586335 0.732032)
(0.575583 0.508001 0.636661)
(0.341994 0.402849 0.48072)
(0.172512 0.527836 0.336432)
(0.22555 1.71586 1.7148)
(0.00912069 1.57001 1.12364)
(0.324617 1.25816 0.991527)
(0.376986 1.00476 0.799371)
(0.28509 0.797728 0.556424)
(0.128246 0.59021 0.459713)
(0.149128 0.455575 0.374126)
(0.0125242 0.520543 0.362058)
(0.167934 1.86185 1.54306)
(-0.32366 1.59213 1.24919)
(-0.0564573 1.35404 0.773117)
(-0.0213321 1.10216 0.6288)
(-0.00100821 0.870964 0.572072)
(0.01588 0.691375 0.531499)
(0.0162225 0.566805 0.438767)
(0.0561842 0.445051 0.337024)
(-0.125614 0.538929 0.351117)
(-0.375078 1.84377 1.17768)
(-0.926328 1.49503 0.935963)
(-0.467888 1.18149 0.740644)
(-0.257887 1.02896 0.521461)
(-0.197298 0.977939 0.441845)
(-0.0755723 0.829603 0.435753)
(-0.0637375 0.688598 0.417912)
(-0.0534159 0.578906 0.376991)
(-0.0780976 0.487577 0.327387)
(-0.152647 0.458651 0.291256)
(-1.22806 1.20939 0.789775)
(-1.06943 1.01048 0.980474)
(-0.791958 0.841295 0.706972)
(-0.661661 0.925132 0.347168)
(-0.453013 0.935497 0.331311)
(-0.254315 0.831806 0.387396)
(-0.185911 0.684043 0.399916)
(-0.148299 0.554707 0.351965)
(-0.133346 0.465912 0.306816)
(-0.0802748 0.396232 0.266247)
(-0.108911 0.434864 0.249244)
(-1.35378 0.573213 0.699236)
(-1.30689 0.635564 0.40926)
(-1.17391 0.675895 0.195369)
(-0.840627 0.739172 0.263673)
(-0.629656 0.814989 0.234074)
(-0.466715 0.770556 0.303244)
(-0.393531 0.68987 0.289347)
(-0.287671 0.585336 0.282319)
(-0.173713 0.497184 0.278261)
(-0.115073 0.435803 0.257622)
(-0.0349372 0.379778 0.240687)
(-0.0293876 0.406904 0.232671)
(-1.50888 0.164056 0.108375)
(-1.36549 0.258451 0.153372)
(-1.1369 0.378364 0.166928)
(-0.894056 0.479381 0.150708)
(-0.733278 0.57492 0.163778)
(-0.6036 0.605599 0.184863)
(-0.468333 0.584228 0.202812)
(-0.334409 0.539664 0.206741)
(-0.2161 0.51335 0.205446)
(-0.126781 0.459472 0.207862)
(-0.0299822 0.407353 0.232884)
(0.0290959 0.340035 0.242111)
(0.405246 3.20877 3.03905)
(0.00962533 3.44173 2.99954)
(0.609488 3.20703 2.87575)
(0.275272 3.37842 3.02078)
(0.403965 2.95148 2.63548)
(1.41859 2.56488 2.01743)
(1.11808 2.65138 2.24371)
(0.637194 2.83843 2.46009)
(0.612659 1.92178 1.81935)
(1.74047 2.12769 1.20906)
(1.4198 1.73411 1.35227)
(1.08297 1.70955 1.4694)
(0.983871 1.48249 1.42826)
(0.552282 0.687977 0.83072)
(1.48245 1.73303 1.33652)
(1.31436 1.13155 1.16845)
(1.34152 1.00465 0.78785)
(1.11263 0.694275 0.605934)
(0.643258 0.467663 0.673041)
(0.455354 -0.00398532 0.224402)
(1.00492 1.67877 1.70029)
(1.02636 1.16297 0.935053)
(1.06154 0.710006 0.717391)
(0.709334 0.410017 0.384879)
(0.560719 0.0886128 0.28236)
(0.387112 -0.0142999 0.261885)
(0.27754 0.372936 0.436798)
(0.625727 1.83747 2.02702)
(0.476719 1.50348 1.10716)
(0.717242 0.979355 0.809692)
(0.692624 0.621261 0.756642)
(0.632677 0.561859 0.645226)
(0.384008 0.441683 0.544243)
(0.118286 0.356557 0.395007)
(0.159472 0.451852 0.324095)
(0.571612 1.6713 1.87837)
(0.0160645 1.59794 1.3578)
(0.267372 1.37603 0.947709)
(0.375039 1.08701 0.835374)
(0.317624 0.877334 0.614709)
(0.202743 0.644639 0.489786)
(0.123645 0.473184 0.416066)
(0.0944494 0.385637 0.371194)
(0.0488389 0.431014 0.298944)
(0.289172 1.92499 1.57374)
(-0.32056 1.64697 1.40795)
(-0.141578 1.42162 0.835525)
(-0.0264491 1.1703 0.660565)
(-0.00953338 0.957395 0.594229)
(0.0197985 0.735905 0.551333)
(0.0170718 0.578698 0.473788)
(0.0803496 0.46327 0.368384)
(0.0514977 0.373321 0.307319)
(-0.0995014 0.470403 0.317819)
(-0.240131 1.87948 1.21177)
(-0.940918 1.54313 1.04246)
(-0.59177 1.24652 0.808255)
(-0.248696 1.07324 0.562531)
(-0.175302 0.999821 0.469421)
(-0.113463 0.873034 0.446665)
(-0.0304716 0.705389 0.436337)
(-0.00738307 0.59946 0.392364)
(-0.0287508 0.504158 0.337365)
(-0.0551898 0.409716 0.297364)
(-0.0641584 0.396986 0.253699)
(-1.18456 1.23261 0.749481)
(-1.15789 1.03945 0.98118)
(-0.795776 0.907587 0.796345)
(-0.675662 0.933749 0.383136)
(-0.475264 0.956682 0.342972)
(-0.285281 0.872515 0.386318)
(-0.162519 0.706743 0.4154)
(-0.13986 0.569896 0.36434)
(-0.109809 0.47664 0.313457)
(-0.0897133 0.397455 0.276452)
(-0.026476 0.339043 0.236847)
(-0.0259699 0.380117 0.23576)
(-1.35709 0.530393 0.705948)
(-1.33603 0.62647 0.446179)
(-1.1425 0.681068 0.266586)
(-0.894803 0.741893 0.209371)
(-0.656624 0.819927 0.236188)
(-0.486615 0.794299 0.297082)
(-0.400718 0.706402 0.288378)
(-0.294536 0.596661 0.284279)
(-0.179545 0.502982 0.27886)
(-0.1172 0.436973 0.261264)
(-0.0435285 0.378701 0.246512)
(0.0441317 0.32248 0.230698)
(0.0325351 0.339268 0.242012)
(-1.50935 0.143561 0.179038)
(-1.37393 0.26391 0.16067)
(-1.15196 0.364538 0.181649)
(-0.903303 0.48368 0.153105)
(-0.737759 0.585692 0.15754)
(-0.602863 0.613548 0.203315)
(-0.468169 0.578395 0.211137)
(-0.334071 0.544259 0.208287)
(-0.216584 0.512101 0.207741)
(-0.122756 0.458564 0.210699)
(-0.0384793 0.408152 0.230066)
(0.0257734 0.339303 0.244311)
(0.0751881 0.268548 0.246787)
(0.172551 2.8844 3.04115)
(-0.0115141 3.20579 3.04119)
(0.469189 3.19933 3.08917)
(0.160381 3.22954 3.09808)
(0.162692 3.4288 3.06082)
(1.22577 2.94018 2.67496)
(0.567964 3.28159 2.98919)
(0.212408 3.3653 3.17261)
(0.298069 2.94659 2.71838)
(1.68729 2.48384 1.85298)
(1.42029 2.48218 1.9932)
(1.04557 2.57911 2.18063)
(0.645122 2.53875 2.37482)
(0.241313 1.67886 1.77807)
(2.06438 1.99611 1.20663)
(1.51638 1.72934 1.30576)
(1.44432 1.55014 1.20891)
(0.992144 1.42604 1.28003)
(0.54029 1.39703 1.45473)
(0.626097 0.386647 0.724334)
(1.71354 1.67764 1.57363)
(1.32141 1.20073 1.25986)
(1.50282 0.972223 0.855839)
(1.02443 0.914682 0.719831)
(0.85173 0.429051 0.663354)
(0.376661 0.384181 0.612592)
(0.3263 -0.0264572 0.230067)
(1.10651 1.74834 2.01685)
(0.962925 1.29617 1.13176)
(1.0938 0.796793 0.819889)
(0.794456 0.491421 0.500145)
(0.59554 0.185982 0.380104)
(0.474282 0.00493216 0.274001)
(0.294868 -0.0575071 0.275586)
(0.0888147 0.35253 0.35401)
(0.860613 1.86119 2.16699)
(0.378533 1.60533 1.52441)
(0.631542 1.14301 0.853454)
(0.687475 0.715934 0.762522)
(0.67967 0.603652 0.650067)
(0.448665 0.484437 0.591135)
(0.164335 0.347752 0.449405)
(0.120861 0.322742 0.304833)
(0.0660483 0.38456 0.330321)
(0.823398 1.67789 1.94195)
(0.0989134 1.56386 1.67279)
(0.197536 1.45689 0.971037)
(0.361482 1.20093 0.826414)
(0.388699 0.951279 0.660103)
(0.292072 0.703842 0.523401)
(0.132775 0.492672 0.458084)
(0.147703 0.393782 0.387086)
(0.0620255 0.352242 0.310061)
(0.0994141 0.375728 0.243292)
(0.772952 1.87111 1.63428)
(-0.271604 1.7199 1.53093)
(-0.264375 1.49122 0.969494)
(-0.015069 1.22425 0.678545)
(-0.0135877 1.04803 0.615344)
(0.0262421 0.793133 0.579096)
(0.0280543 0.601628 0.496275)
(0.0816924 0.483046 0.398636)
(0.0707798 0.392378 0.333794)
(0.0800208 0.315006 0.266298)
(-0.0451847 0.398041 0.279227)
(0.123793 1.92473 1.17149)
(-0.914339 1.57185 1.18513)
(-0.785455 1.29322 0.879427)
(-0.372807 1.14614 0.56748)
(-0.179302 1.05594 0.475168)
(-0.144834 0.910692 0.461776)
(-0.0250064 0.730441 0.456)
(0.0302747 0.612673 0.410463)
(0.0236046 0.51544 0.354369)
(-0.0399083 0.41718 0.308465)
(0.0101572 0.321963 0.245352)
(-0.0124492 0.340466 0.223881)
(-1.09725 1.2705 0.700061)
(-1.2328 1.06995 0.976699)
(-0.990568 0.90749 0.773135)
(-0.655695 0.943282 0.497959)
(-0.432874 0.989076 0.399077)
(-0.334251 0.917216 0.377644)
(-0.144975 0.726278 0.435313)
(-0.120254 0.590948 0.378967)
(-0.0948948 0.486799 0.321641)
(-0.0944215 0.402448 0.284496)
(-0.0466724 0.338684 0.248459)
(0.0609227 0.284247 0.200271)
(0.0428943 0.321682 0.22778)
(-1.35777 0.510393 0.69312)
(-1.36654 0.612732 0.479839)
(-1.17751 0.66045 0.278262)
(-0.890795 0.755105 0.253585)
(-0.654257 0.841038 0.257269)
(-0.512442 0.813333 0.289182)
(-0.431015 0.691534 0.279555)
(-0.295783 0.611619 0.286635)
(-0.188742 0.511674 0.278427)
(-0.114909 0.438588 0.26568)
(-0.0516382 0.378296 0.251859)
(0.0365578 0.323674 0.235754)
(0.0938785 0.265894 0.217468)
(0.0757121 0.26814 0.245468)
(-1.47779 0.172812 0.186863)
(-1.38722 0.254148 0.153634)
(-1.1572 0.374546 0.160308)
(-0.918519 0.480187 0.152107)
(-0.750285 0.588944 0.153485)
(-0.618505 0.617456 0.187601)
(-0.471203 0.582595 0.224272)
(-0.345847 0.554787 0.201259)
(-0.22634 0.513007 0.207554)
(-0.114192 0.458628 0.21622)
(-0.0497608 0.4063 0.231217)
(0.0265543 0.33994 0.243836)
(0.0733767 0.268776 0.248491)
(0.108282 0.205592 0.24355)
(0.174797 2.68329 2.89797)
(0.231234 2.88999 3.00638)
(0.506876 2.81431 3.03426)
(0.244291 2.92662 3.06436)
(-0.0545523 3.22367 3.07986)
(0.792302 3.13842 3.00887)
(0.559036 3.24515 3.08093)
(0.242067 3.24231 3.16568)
(-0.0785455 3.3459 3.28591)
(1.63017 2.75694 2.42359)
(1.20842 3.04805 2.77359)
(0.517305 3.27796 3.11259)
(0.236565 3.19573 3.34828)
(0.270477 2.66106 2.74272)
(2.03399 2.2378 1.88491)
(1.72419 2.26748 1.87476)
(1.33824 2.32601 1.98175)
(1.172 2.27212 2.10075)
(0.301081 2.21133 2.56005)
(0.29174 1.46197 1.69603)
(1.9754 2.08996 1.74775)
(1.75795 1.75801 1.17501)
(1.41205 1.53544 1.24518)
(1.209 1.5032 1.05692)
(0.771689 1.27132 1.3214)
(0.315597 1.43341 1.38739)
(0.219349 0.439228 0.599462)
(1.63394 1.80256 1.97905)
(1.44896 1.29071 1.29549)
(1.46615 0.91779 1.05843)
(1.37602 0.779315 0.737208)
(0.97012 0.502909 0.592045)
(0.469196 0.339183 0.570786)
(-0.0508241 0.407886 0.447789)
(0.230054 -0.00141394 0.254394)
(1.27553 1.80304 2.20935)
(0.935602 1.45768 1.45779)
(1.00947 0.96357 0.92096)
(0.966522 0.615652 0.591289)
(0.638609 0.259639 0.484047)
(0.544877 0.0403385 0.334474)
(0.38679 -0.0491702 0.293692)
(0.133327 0.0384607 0.357434)
(0.131217 0.336771 0.273348)
(1.13838 1.89933 2.15759)
(0.41151 1.60868 1.99226)
(0.543337 1.27079 0.971763)
(0.731345 0.835479 0.730882)
(0.681957 0.678034 0.656295)
(0.527845 0.554647 0.603616)
(0.233825 0.421195 0.468444)
(0.132514 0.296154 0.342665)
(0.161199 0.27662 0.272346)
(0.0353944 0.337066 0.283268)
(1.02612 1.69193 2.01775)
(0.239099 1.54321 1.8887)
(0.128786 1.50819 1.1044)
(0.364094 1.30964 0.800088)
(0.426404 1.04036 0.699239)
(0.35992 0.766049 0.569246)
(0.208483 0.522929 0.487307)
(0.159528 0.386534 0.426191)
(0.096475 0.342051 0.348579)
(0.0657482 0.277311 0.251707)
(0.184424 0.320909 0.163972)
(0.938884 1.9012 1.75564)
(-0.164865 1.7757 1.59365)
(-0.359026 1.56436 1.16566)
(-0.0293781 1.28887 0.747439)
(0.020463 1.11489 0.63338)
(0.0224575 0.877297 0.60788)
(0.0456463 0.6287 0.526514)
(0.0758144 0.495181 0.428222)
(0.0861543 0.402557 0.364615)
(0.0236753 0.326006 0.314943)
(0.124798 0.26743 0.197159)
(0.0444202 0.314758 0.203092)
(0.323183 1.98525 1.11202)
(-0.868129 1.5991 1.30667)
(-0.910056 1.35705 0.995407)
(-0.523838 1.201 0.607265)
(-0.308347 1.14262 0.449332)
(-0.136949 0.949207 0.481566)
(-0.061699 0.763077 0.475704)
(0.0509673 0.624653 0.432932)
(0.0574236 0.5326 0.367972)
(-0.00463857 0.426139 0.322127)
(-0.0175823 0.328194 0.27859)
(0.0731306 0.244786 0.185755)
(0.0669281 0.286408 0.179012)
(-1.05506 1.2852 0.667774)
(-1.27723 1.09122 0.988098)
(-1.02397 0.924989 0.898956)
(-0.753941 0.964092 0.489375)
(-0.50997 1.02154 0.388184)
(-0.344263 0.944618 0.393509)
(-0.132581 0.754353 0.449546)
(-0.114258 0.608655 0.395809)
(-0.0761494 0.498148 0.331896)
(-0.0933682 0.41158 0.290675)
(-0.0565855 0.336383 0.260656)
(0.049008 0.281955 0.217443)
(0.0810582 0.235285 0.164392)
(0.0927755 0.266924 0.208774)
(-1.36314 0.446687 0.687127)
(-1.3978 0.595638 0.505753)
(-1.19391 0.653953 0.327434)
(-0.922177 0.755227 0.25458)
(-0.692106 0.850752 0.243262)
(-0.521734 0.828858 0.294169)
(-0.301719 0.724025 0.371841)
(-0.302237 0.622906 0.285207)
(-0.201718 0.524758 0.275522)
(-0.112051 0.438064 0.271044)
(-0.059578 0.378703 0.257067)
(0.0243527 0.324314 0.242511)
(0.0964412 0.265087 0.223166)
(0.120157 0.221505 0.190898)
(0.107196 0.205427 0.238986)
(-1.49679 0.160479 0.194428)
(-1.38897 0.275492 0.153812)
(-1.16472 0.370334 0.1638)
(-0.927836 0.483682 0.150814)
(-0.756574 0.594876 0.156197)
(-0.624639 0.624542 0.18407)
(-0.489781 0.586942 0.213676)
(-0.344641 0.553128 0.205188)
(-0.231162 0.515007 0.202964)
(-0.120632 0.455569 0.215616)
(-0.0371731 0.409956 0.227459)
(0.0210991 0.339683 0.245573)
(0.072065 0.269258 0.249606)
(0.107936 0.205744 0.246939)
(0.11079 0.148496 0.223525)
(0.272453 2.65777 2.5858)
(0.0676907 2.64013 2.91569)
(0.196206 2.67925 2.87708)
(0.21648 2.68835 2.88754)
(0.215169 2.86409 3.05539)
(0.722129 2.80337 3.04498)
(0.482137 2.85192 3.08156)
(0.203079 2.93527 3.05055)
(-0.0562168 3.22804 3.14114)
(1.09586 2.8991 2.9206)
(0.713748 3.20053 3.11096)
(0.428207 3.34373 3.09273)
(0.0523804 3.21346 3.26024)
(-0.257391 3.32325 3.34234)
(1.86762 2.48831 2.39444)
(1.38127 2.78181 2.6833)
(1.18527 3.00355 2.92803)
(0.45768 3.11465 3.20067)
(0.0678929 2.96744 3.45268)
(0.0818874 2.40847 2.71417)
(2.4152 1.8918 2.04689)
(1.81943 2.21517 1.81088)
(1.82709 2.08173 1.75152)
(1.23897 2.12082 1.93974)
(0.727876 2.12055 2.24729)
(-0.10498 2.22032 2.45052)
(0.0665114 1.55739 1.5774)
(2.15068 1.91344 2.16823)
(1.74939 1.83671 1.40216)
(1.67073 1.46686 1.1597)
(1.33117 1.49401 1.07586)
(1.0104 1.18181 1.21873)
(0.645135 1.32428 1.20336)
(0.15682 1.15564 1.48536)
(-0.256958 0.462537 0.449529)
(1.80848 1.78872 2.18087)
(1.52277 1.33977 1.48274)
(1.54324 0.922351 1.06645)
(1.43258 0.830019 0.816005)
(1.15103 0.487995 0.524911)
(0.661561 0.332723 0.444715)
(0.0802322 0.320728 0.394568)
(-0.162391 0.04692 0.285663)
(0.125125 0.092544 0.332804)
(1.4755 1.8028 2.35956)
(1.06275 1.50941 1.74432)
(0.97943 1.14341 1.0539)
(1.05129 0.724603 0.704117)
(0.784976 0.372724 0.539486)
(0.665898 0.0919938 0.400131)
(0.501338 -0.0667282 0.332009)
(0.188382 0.00618188 0.375868)
(-0.0257049 0.182497 0.382513)
(0.176721 0.298196 0.250416)
(1.29005 1.88582 2.26921)
(0.579957 1.65617 2.18063)
(0.456276 1.33207 1.27541)
(0.716051 0.990646 0.777816)
(0.698003 0.791044 0.681263)
(0.58336 0.626709 0.623585)
(0.269376 0.468012 0.519841)
(0.157867 0.286638 0.368448)
(0.133653 0.24322 0.305443)
(0.144178 0.258176 0.27393)
(0.0815446 0.286759 0.212321)
(0.977341 1.71438 2.28282)
(0.44396 1.5187 1.98744)
(0.0325808 1.55156 1.35385)
(0.324704 1.40843 0.812489)
(0.436075 1.15256 0.724481)
(0.41167 0.842737 0.619411)
(0.283275 0.547326 0.536122)
(0.164528 0.398145 0.462977)
(0.131836 0.340031 0.370185)
(0.14265 0.286803 0.264894)
(0.0700096 0.235151 0.229729)
(0.16256 0.269239 0.15467)
(0.890639 1.88653 1.93618)
(0.0146105 1.89744 1.56773)
(-0.401823 1.63031 1.41745)
(-0.127789 1.38144 0.892617)
(0.100519 1.16353 0.677301)
(0.019176 0.959827 0.635636)
(0.0340025 0.681863 0.562746)
(0.0663779 0.507351 0.462212)
(0.11336 0.409121 0.384421)
(0.0697773 0.350333 0.336391)
(0.0487445 0.261176 0.263623)
(0.147096 0.209411 0.181386)
(0.0969835 0.242008 0.149322)
(0.378594 1.94675 1.08703)
(-0.808877 1.63433 1.35833)
(-1.02115 1.36939 1.1812)
(-0.616279 1.25023 0.733004)
(-0.367647 1.21944 0.465928)
(-0.176812 1.00805 0.491438)
(-0.0835607 0.791635 0.490688)
(0.0188014 0.651842 0.456297)
(0.0864493 0.541743 0.386621)
(0.0448398 0.439299 0.334501)
(-0.0252745 0.333774 0.302378)
(0.0218803 0.249164 0.233811)
(0.118906 0.197976 0.154602)
(0.090314 0.237381 0.132289)
(-0.955396 1.30254 0.615913)
(-1.29897 1.10382 0.979414)
(-1.13768 0.934215 0.929374)
(-0.821283 0.973371 0.564398)
(-0.557645 1.05383 0.400413)
(-0.360031 0.973299 0.408059)
(-0.193569 0.784592 0.42965)
(-0.095283 0.617062 0.414694)
(-0.0614511 0.512919 0.344396)
(-0.0774849 0.420214 0.296401)
(-0.0582108 0.33818 0.269004)
(0.0250567 0.277033 0.23628)
(0.0759731 0.233578 0.19104)
(0.092031 0.184899 0.13616)
(0.121882 0.224492 0.168589)
(-1.35419 0.4165 0.67573)
(-1.41924 0.587049 0.525392)
(-1.22297 0.638463 0.36818)
(-0.943099 0.757495 0.269131)
(-0.705062 0.862959 0.251578)
(-0.542069 0.843689 0.290087)
(-0.42809 0.733348 0.292603)
(-0.299829 0.633149 0.282598)
(-0.213563 0.537909 0.275126)
(-0.108933 0.439961 0.274802)
(-0.0648424 0.380121 0.260654)
(0.0137722 0.324482 0.248975)
(0.0967533 0.264315 0.228701)
(0.116922 0.218356 0.208231)
(0.139105 0.175331 0.148022)
(0.103292 0.148232 0.209838)
(-1.51463 0.141182 0.185908)
(-1.38534 0.282154 0.161696)
(-1.17124 0.365325 0.165739)
(-0.939009 0.48224 0.153427)
(-0.762904 0.598665 0.154562)
(-0.633804 0.628274 0.180936)
(-0.491845 0.591266 0.219096)
(-0.356591 0.54765 0.209226)
(-0.2301 0.513774 0.202825)
(-0.126042 0.456107 0.214925)
(-0.0501024 0.403082 0.235229)
(0.0136409 0.341699 0.243707)
(0.0713096 0.269594 0.250779)
(0.107082 0.20554 0.249768)
(0.116721 0.148541 0.234869)
(0.101155 0.101717 0.168452)
(0.113616 2.35445 2.67047)
(0.2029 2.6451 2.58556)
(0.366888 2.64942 2.61562)
(0.234263 2.55481 2.7122)
(0.0622049 2.70937 2.89493)
(0.462246 2.58109 2.86854)
(0.333864 2.68131 2.89758)
(0.26881 2.71311 2.88564)
(0.0522331 2.89029 3.06523)
(0.814407 2.79185 3.03137)
(0.761915 2.76623 3.07065)
(0.403055 2.9536 3.0695)
(0.0770202 2.96026 3.04772)
(-0.10862 3.20345 3.15964)
(1.30089 2.69016 2.88453)
(1.03296 2.97734 3.08458)
(0.651196 3.33427 3.08994)
(0.541444 3.13854 3.37731)
(0.0809746 3.1541 3.21347)
(-0.264315 3.07761 3.39497)
(1.99099 2.14018 2.5056)
(1.8238 2.49111 2.54789)
(1.50284 2.68518 2.66681)
(0.973579 2.92797 3.01755)
(0.373601 3.00677 3.27541)
(-0.118256 2.80787 3.32835)
(-0.311748 2.34891 2.53396)
(2.07047 1.89749 2.62292)
(2.22843 1.96576 1.76616)
(1.92079 1.98307 1.62327)
(1.45379 1.98847 1.82491)
(1.05902 1.93801 1.99125)
(0.152469 2.12684 2.30454)
(-0.246226 2.10021 2.38148)
(0.0652363 1.24334 1.63406)
(1.93983 1.91065 2.57247)
(2.07886 1.66245 1.60329)
(1.67871 1.55401 1.21206)
(1.65276 1.34906 1.05403)
(1.14897 1.15338 1.11407)
(0.859703 1.16123 1.15399)
(0.395668 1.04859 1.29014)
(0.0726881 0.727924 1.18405)
(-0.235603 0.101196 0.335559)
(1.85427 1.81103 2.43727)
(1.5045 1.49294 1.69804)
(1.48417 0.976413 1.23909)
(1.5842 0.821467 0.838918)
(1.3017 0.455758 0.562887)
(0.852407 0.291596 0.341062)
(0.220121 0.280774 0.287109)
(-0.0899666 0.0129321 0.235818)
(-0.00770218 -0.0333353 0.269519)
(-0.0576034 0.229024 0.357467)
(1.46939 1.84339 2.57228)
(1.21338 1.55801 1.95078)
(0.897327 1.29588 1.33573)
(1.11042 0.886136 0.80535)
(0.943388 0.49688 0.598054)
(0.783601 0.158025 0.475991)
(0.615037 -0.0586475 0.386473)
(0.30522 -0.0166308 0.396206)
(-0.000734842 0.135919 0.400035)
(-0.0174168 0.211024 0.29051)
(0.147221 0.274602 0.258165)
(1.17277 1.96209 2.47324)
(0.740062 1.707 2.24186)
(0.399225 1.31569 1.6793)
(0.638379 1.16839 0.890369)
(0.76195 0.914314 0.750508)
(0.662593 0.721317 0.648543)
(0.410564 0.527355 0.542146)
(0.215435 0.313458 0.385037)
(0.130373 0.221232 0.319594)
(0.116487 0.235151 0.296567)
(0.0786441 0.249611 0.27965)
(0.0710237 0.253174 0.207954)
(0.818494 1.84362 2.46588)
(0.740366 1.36697 2.12989)
(0.0183721 1.60551 1.57768)
(0.194111 1.51924 0.9665)
(0.409668 1.31257 0.731418)
(0.418628 0.949559 0.678515)
(0.3612 0.592275 0.578793)
(0.225226 0.407597 0.498552)
(0.136557 0.329036 0.404879)
(0.171225 0.284964 0.296113)
(0.0788818 0.237321 0.252861)