/*--------------------------------*- C++ -*----------------------------------*\
  =========                 |
  \\      /  F ield         | OpenFOAM: The Open Source CFD Toolbox
   \\    /   O peration     | Website:  https://openfoam.org
    \\  /    A nd           | Version:  7
     \\/     M anipulation  |
\*---------------------------------------------------------------------------*/
FoamFile
{
    version     2.0;
    format      ascii;
    class       volScalarField;
    location    "10";
    object      nut;
}
// * * * * * * * * * * * * * * * * * * * * * * * * * * * * * * * * * * * * * //

dimensions      [0 2 -1 0 0 0 0];

internalField   nonuniform List<scalar> 
18630
(
0.000145456
0.000472488
0.000110964
0.000172824
0.00122814
0.000425579
0.000344621
0.000140623
0.000191182
0.00026559
0.00101348
0.000520066
0.000663099
0.000336769
0.000220664
0.00014586
0.000242689
0.000222157
0.000325515
4.896e-05
0.000470637
0.000915958
0.000469676
0.000210806
0.000168947
0.000449941
0.000389424
0.000243866
0.000144939
0.000238647
0.000230957
0.000251726
0.000107569
0.000146006
4.09919e-05
0.000735788
0.000907965
0.000550105
0.000739475
0.000953893
0.000458734
0.000174732
0.000199237
0.000550952
0.000408479
0.000251244
0.000349094
0.000240697
0.000220497
0.000206684
0.00033034
0.000212567
8.79196e-05
0.000141442
0.000118889
0.000190279
0.000913529
0.000619898
0.000671425
0.00093184
0.000645428
0.000515036
0.000426024
0.000729494
0.000573738
0.000387714
0.000211564
0.000157984
0.000358449
0.000534693
0.000307786
0.00017153
0.000519441
0.000159874
0.000287906
0.000263565
0.000568004
0.000222827
0.00017297
0.00022142
8.32635e-05
0.000258105
0.000107147
6.97126e-05
0.000975539
0.000830788
0.000745963
0.00104088
0.000843213
0.0010586
0.000897048
0.000707043
0.000611749
0.00115225
0.000449233
0.000433221
0.000283209
0.000838573
0.00107854
0.000307179
0.000209544
0.000192353
0.000241281
0.000461756
0.000623289
0.000172072
0.000265466
0.000255551
0.000179764
0.00022621
0.00117023
0.000536121
0.00035248
0.000235381
0.00027907
0.000157379
0.000267432
0.000125222
0.00019041
0.000185279
0.000827963
0.00157559
0.00157575
0.00145186
0.00153916
0.00151851
0.00191799
0.00121438
0.000996197
0.00139299
0.00140703
0.00115936
0.000764841
0.00110304
0.00073286
0.000518088
0.00037239
0.000554956
0.000773804
0.00102562
0.00106474
0.000212724
0.000372964
0.00027544
0.00025291
0.000431716
0.000562526
0.000579892
0.000173618
0.000246731
0.000386145
0.000408761
0.00034358
0.000676213
0.000316097
0.000456023
0.000158354
0.00014849
0.000139149
0.000282119
7.64682e-05
0.000217844
0.000247373
0.000196278
0.000521957
0.000890894
0.00159508
0.00126398
0.00191718
0.0013281
0.00137144
0.00156003
0.00156808
0.00151711
0.00157282
0.00168723
0.00134117
0.00135374
0.00146755
0.000754509
0.00134342
0.00138553
0.0010386
0.00117919
0.000577875
0.000433685
0.000545868
0.000381335
0.0008006
0.000546441
0.00114127
0.000870826
0.000691307
0.000243036
0.000430975
0.00041723
0.000311848
0.000250882
0.000731709
0.000597114
0.000503953
0.00021281
0.000300229
0.000296593
0.000641726
0.000265012
0.00063366
0.000360205
0.000476981
0.000384675
0.000395677
8.86373e-05
0.000129506
0.000115673
5.34567e-05
0.000168082
0.000145089
0.000300986
0.000535552
0.000235064
0.00134311
0.00118002
0.000700052
0.00132301
0.0013334
0.000841709
0.00171513
0.00100248
0.000903538
0.000910737
0.00159525
0.00135853
0.00104694
0.00111639
0.000820936
0.00124741
0.00128304
0.00156655
0.00143307
0.000832603
0.000400459
0.00135624
0.00133864
0.00119756
0.000972484
0.000642586
0.000390019
0.000560345
0.000792097
0.00060062
0.000635025
0.000719173
0.000720643
0.000674328
0.000573451
0.000413341
0.000184576
0.000302555
0.000599367
0.000342314
0.000335857
0.000574749
0.00058026
0.000540084
0.000231564
0.000251975
0.000325562
0.000372098
0.000415835
0.00027205
0.000561182
0.000395285
0.000330207
0.000371782
0.000425193
0.000234542
8.41577e-05
0.000234686
7.39159e-05
0.00011732
0.000228633
0.000231096
0.0002799
0.00052251
0.000354789
0.000360622
0.00172324
0.000760535
0.00160891
0.002337
0.00125974
0.000587119
0.00103636
0.0010361
0.0006784
0.000762541
0.000871586
0.000687955
0.000819618
0.000764583
0.000606964
0.00129265
0.00100295
0.000911832
0.000925548
0.00092164
0.000537171
0.000862346
0.000928856
0.000900736
0.000652136
0.00100906
0.000796441
0.000582291
0.00123852
0.000839583
0.000919506
0.000567942
0.000448502
0.000782066
0.000324018
0.000432524
0.00105116
0.00089242
0.000736378
0.000797298
0.00125125
0.000764114
0.000537572
0.000283892
0.000320982
0.000187617
0.0002989
0.000729906
0.000451539
0.00037869
0.000449812
0.000574645
0.000579657
0.000295935
0.000190601
0.000264207
0.000327856
0.000298767
0.000462166
0.000454884
0.000637148
0.000481613
0.000171369
0.000298145
0.000453639
0.000494627
0.000191774
0.000180787
0.000305426
0.000260566
0.000110849
0.000253797
0.00022218
0.000288085
0.000484722
0.000253381
0.000387351
0.000411514
0.000599573
0.000921365
0.000703708
0.00148695
0.00207419
0.000941837
0.0011161
0.00215366
0.00115801
0.000566605
0.000829176
0.00141231
0.00128121
0.00063824
0.000579298
0.000981942
0.000704475
0.000452448
0.000743898
0.000840066
0.000659727
0.000643337
0.000877656
0.000727082
0.00114308
0.00109284
0.000533024
0.00085348
0.000755704
0.000616579
0.000778663
0.000775533
0.00107164
0.000842669
0.000768934
0.000496158
0.000532213
0.00103736
0.000477029
0.000676201
0.000471226
0.000497452
0.000634257
0.00027559
0.000392244
0.000506835
0.000880953
0.000769846
0.000735271
0.001111
0.000937737
0.00075323
0.000632216
0.000351543
0.000474699
0.00015102
0.000261483
0.00037681
0.00049613
0.000471769
0.000308297
0.000926108
0.000618185
0.000592416
0.000387961
3.08318e-05
0.000242552
0.000251979
0.000435369
0.000392879
0.000426594
0.0003981
0.00070314
0.000575308
0.000318981
0.00024404
0.000405863
0.000287571
0.000715696
0.000206027
0.000119706
0.000353922
0.000228884
8.84685e-05
0.000389232
0.000245185
0.000411056
0.000440762
0.000162049
0.000287654
0.000246979
0.000272947
0.00073167
0.000650977
0.00148776
0.000955705
0.00156233
0.00171583
0.000664513
0.00131945
0.00177478
0.00163417
0.000894101
0.000770722
0.000589826
0.00060289
0.000681717
0.000682102
0.000688437
0.00157609
0.0012535
0.000663584
0.000706524
0.00093857
0.00048561
0.000710526
0.000586944
0.000634132
0.000954967
0.000894606
0.000484759
0.000555759
0.000768808
0.000817089
0.00105067
0.001072
0.000442468
0.000587911
0.000735234
0.000558791
0.000862157
0.000755264
0.00151915
0.00108364
0.00118026
0.000711968
0.000721845
0.000570608
0.000324939
0.000667929
0.000770745
0.000951656
0.000629707
0.000486319
0.000488602
0.000377241
0.000305016
0.000408338
0.000581319
0.00109727
0.000761359
0.000871729
0.00107359
0.000801606
0.000684849
0.000456116
0.000491484
0.000234084
0.00027699
0.000237625
0.000364837
0.000448134
0.000652427
0.000296236
0.000347672
0.000732924
0.000481703
0.000678463
0.000296421
0.000226381
0.000390318
0.00038133
0.000325358
0.000394645
0.000315897
0.000362685
0.00030327
0.000449991
0.000687724
0.000397362
0.000240638
0.000327292
0.000546036
0.00064602
0.00036545
0.000163249
0.00011863
0.000386246
8.01253e-05
0.000160151
0.000292488
0.000310537
0.000315093
0.000276192
0.000205543
0.000129788
0.000353536
0.000220849
0.000398713
0.000259559
0.000711584
0.000794125
0.00049558
0.00125029
0.000717097
0.00212974
0.000967073
0.000638451
0.00225552
0.0010177
0.00138723
0.00160292
0.00129365
0.00236995
0.00156186
0.000905368
0.000767871
0.00078053
0.00095598
0.000410312
0.000833247
0.00078486
0.00083762
0.000339786
0.00161751
0.000965854
0.000436548
0.000911056
0.000877771
0.000687516
0.000362643
0.000429203
0.000941234
0.000467845
0.000682512
0.000951456
0.000535309
0.000378686
0.000804759
0.000681216
0.000594885
0.00107716
0.00105834
0.000486224
0.000675786
0.000871091
0.000689275
0.000538127
0.000932962
0.000806193
0.00123483
0.00120451
0.000882111
0.000616785
0.000820933
0.000548056
0.000224444
0.000674068
0.000493712
0.000878823
0.00111203
0.000900439
0.000703548
0.000546761
0.000411457
0.00037746
0.000507715
0.000567072
0.000462975
0.00109408
0.000627386
0.0012899
0.000747583
0.000602895
0.000697074
0.00053624
0.000260998
0.000264087
0.000260626
0.000363417
0.000603009
0.000611387
0.000511353
0.000543076
0.000393613
0.00070659
0.000554235
0.000635657
0.000783546
0.000261524
0.000313046
0.000427789
0.000326823
0.000375626
0.000373904
0.000446484
0.000241159
0.000292854
0.000249281
0.000354433
0.000699952
0.000391332
0.000276921
0.000235169
0.000499877
0.000563475
0.000250627
8.96839e-05
0.000136594
0.000108012
0.000303618
4.89678e-05
0.000204822
0.000359265
0.000350546
0.000404622
0.000255259
0.00017786
6.34361e-05
0.000339629
0.000206657
0.000267149
0.000366711
0.000720365
0.000417075
0.000646665
0.000594473
0.000338304
0.00130365
0.000882513
0.00123077
0.00124242
0.000723032
0.000983665
0.00118558
0.000665533
0.00168542
0.00136068
0.00196805
0.00179965
0.001333
0.00109158
0.00150376
0.000436336
0.00094563
0.000911473
0.00130681
0.000725351
0.00060253
0.000147364
0.000661824
0.00040421
0.000670038
0.000840721
0.00096662
0.000542911
0.000620366
0.00110117
0.000774298
0.000584736
0.000657046
0.000680434
0.000737203
0.000602362
0.000675505
0.000771875
0.000634684
0.000361872
0.000553401
0.000539393
0.000443228
0.000457979
0.000844919
0.000852578
0.00061578
0.000541283
0.00105431
0.00102823
0.00053175
0.000624965
0.000964637
0.000984218
0.000609212
0.000557324
0.000818171
0.000711624
0.000696108
0.000965224
0.000594832
0.000756308
0.000787418
0.000622372
0.000356847
0.00065327
0.000864198
0.000539355
0.000721132
0.00067147
0.00121239
0.000649772
0.000343312
0.000315927
0.000431854
0.000300644
0.000208493
0.000164875
0.000655813
0.000989312
0.000433456
0.000408068
0.000584783
0.000557715
0.00058722
0.000485207
0.000133247
0.000305661
0.000247403
0.000104581
0.000703314
0.000298293
0.000864007
0.00040626
0.000407848
0.000351581
0.000609729
0.000752357
0.000843329
0.000421954
0.000405039
0.000290841
0.000308535
0.000959804
0.000466995
0.000329528
0.00042429
0.000475031
0.000383656
0.000166088
0.000222552
0.000448249
0.000371151
0.000456848
0.000350661
0.00016194
0.000209869
0.000403762
0.000169582
0.000313735
0.000147046
0.000184939
8.31717e-05
0.000374298
0.000149463
0.000294734
0.000425902
0.000369322
0.000507305
0.000350059
0.000168071
0.000110014
0.000193904
0.000326203
0.000162191
0.000431181
0.000150052
0.000412388
0.000577368
0.00047924
0.000544676
0.000382055
0.000536707
0.00101082
0.000837291
0.000610235
0.000959226
0.00129582
0.000430825
0.000957749
0.00127941
0.0011136
0.00106461
0.00169395
0.00104937
0.000889003
0.00117982
0.00191745
0.00153336
0.00143969
0.00132078
0.00213546
0.00136672
0.00131945
0.000477267
0.000688939
0.000499827
0.00108427
0.00119195
0.000813378
0.000442919
0.000894506
0.00076121
0.000860748
0.000853063
0.000402202
0.000555749
0.000732781
0.000566726
0.000905718
0.00078837
0.00128191
0.000497235
0.000785342
0.000814179
0.000508595
0.000684985
0.00066738
0.000541174
0.000907075
0.00109123
0.000513152
0.000459951
0.00079812
0.000669734
0.00034094
0.000544115
0.000711435
0.000872611
0.000673218
0.000594173
0.000656328
0.000834446
0.000868942
0.000484016
0.000724491
0.000937238
0.0013116
0.000575718
0.000753377
0.000765187
0.000624793
0.000685487
0.000625901
0.000745751
0.000801248
0.00100039
0.000831394
0.000762255
0.000355278
0.000466128
0.000503578
0.000532927
0.000665513
0.000465841
0.000645077
0.00116369
0.000594743
0.00035827
0.000351247
0.000350452
0.000281319
0.000131041
0.000184761
0.000597106
0.000422921
0.000604906
0.000331681
0.00039583
0.000527464
0.000373174
0.000440615
0.00034437
0.000290934
0.000255718
0.000130705
0.000198078
0.000659631
0.000215524
0.00069907
0.000671928
0.000245098
0.000264801
0.000355963
0.000351963
0.000646694
0.000700726
0.000517222
0.000480926
0.000402021
0.000418046
0.00142435
0.000463348
0.000504439
0.000417342
0.000530045
0.000485443
0.00076239
0.000269068
0.000252073
0.000309552
0.000296305
0.000407293
0.000396224
0.000242055
0.000496951
0.000315225
0.000182898
0.000250279
0.000507436
0.000447594
0.00014189
0.000166863
0.000427154
0.000102419
0.000201802
0.000512528
0.000435189
0.000522753
0.000376024
0.000179558
0.000130286
0.000113073
0.000462675
0.00018605
0.000400093
0.000300738
0.000163678
0.000508879
0.000537024
0.000644208
0.000452222
0.000385607
0.00051603
0.000870461
0.00033877
0.000430292
0.000916025
0.000942174
0.00122697
0.000664924
0.000845894
0.00147655
0.00163749
0.000992917
0.000492591
0.00119286
0.00164598
0.00145431
0.000998684
0.000830027
0.00128953
0.000674929
0.00164339
0.00207887
0.00152209
0.00153567
0.00174085
0.000611559
0.000758548
0.0015649
0.00110761
0.000319728
0.000400575
0.000736975
0.000916387
0.000984468
0.00103914
0.000942308
0.000872754
0.000714718
0.00105645
0.000938674
0.00122581
0.000815956
0.000668292
0.0005043
0.00056695
0.000543275
0.000705921
0.000755363
0.00110877
0.00106869
0.000797668
0.000544364
0.000619036
0.000626999
0.000604166
0.000656502
0.000438658
0.000689153
0.00104904
0.00101815
0.00111206
0.000462607
0.000449271
0.000661918
0.000510421
0.000604113
0.0003134
0.000636446
0.000861189
0.000769025
0.000515862
0.000550546
0.000708258
0.000516785
0.000931142
0.000855957
0.000764108
0.000931784
0.00108902
0.000770281
0.000816455
0.00086677
0.000340692
0.000494614
0.000489395
0.000604862
0.000773879
0.00101951
0.000996412
0.000858477
0.000637504
0.000501779
0.000409023
0.000638584
0.000600194
0.000591036
0.000713086
0.00046446
0.000492735
0.000254492
0.000508171
0.000632131
0.00057905
0.000509891
0.000262131
0.000289694
0.000353399
0.000488514
0.00049277
0.000382205
0.000496377
0.000332797
0.000394814
0.000302317
0.00082984
0.000373806
0.000588628
0.000267004
0.000273986
0.000189689
0.000273794
0.00049383
0.000258223
0.000508745
0.000188549
0.000443012
0.000311349
0.000354208
0.00029953
0.000376423
0.000827551
0.000654184
0.000647174
0.000507789
0.000381572
0.000418063
0.000903707
0.000306841
0.000479224
0.000153399
0.00026683
0.000533902
0.000495
0.00071805
0.000359547
0.000170248
0.00022858
0.000467741
0.000371908
0.00039272
0.000300793
0.000586637
0.000234136
0.000211791
0.000277286
0.000752572
0.000329401
8.27774e-05
9.88321e-05
0.000159013
0.000345166
9.70409e-05
0.000209418
0.000604431
0.000375194
0.000664779
0.000348377
0.000164131
0.000149824
0.000141821
0.000371617
0.000175258
0.000416776
0.000365562
3.30673e-05
9.9177e-05
0.000441836
0.000354319
0.000365352
0.000631866
0.000487173
0.000437113
0.000432688
0.000435179
0.000327805
0.000776737
0.000499585
0.000244937
0.000484758
0.000921046
0.000921051
0.00100004
0.000337258
0.000674601
0.000824304
0.00133319
0.00118058
0.0016008
0.00101732
0.000650982
0.00129185
0.00080692
0.00149499
0.00134266
0.000868389
0.000764464
0.000812846
0.000403644
0.000664594
0.000758341
0.00182953
0.00175043
0.00192967
0.00176699
0.000353073
0.000821376
0.00141325
0.000747561
0.00108036
0.000792686
0.000633621
0.000746481
0.00113544
0.00108474
0.000734004
0.000911844
0.000913605
0.000599667
0.000781069
0.000866622
0.000989103
0.0011359
0.00106162
0.00107249
0.000443695
0.00039708
0.00032455
0.000482901
0.000514865
0.000860251
0.00108677
0.00111227
0.00122077
0.000360506
0.000310313
0.000471662
0.000294845
0.000488391
0.000716742
0.000388075
0.000659251
0.00112646
0.000876267
0.000851955
0.000802006
0.000491558
0.000360816
0.000281197
0.000513355
0.000368326
0.000341295
0.000531466
0.000783707
0.000645582
0.000534677
0.000858239
0.000514049
0.000337265
0.000524952
0.000766422
0.00082124
0.000679518
0.00151087
0.00116344
0.000976549
0.000958875
0.000784667
0.000501775
0.000456313
0.000463658
0.000409345
0.000811722
0.000872465
0.00100176
0.00100923
0.000997972
0.000470533
0.00038455
0.000379481
0.000692208
0.000707473
0.000685191
0.00027165
0.000605214
0.000775785
0.000395439
0.000539031
0.00119823
0.000823159
0.000409383
0.000508125
0.000271131
0.000331216
0.000403696
0.000410727
0.00041971
0.000324432
0.000270491
0.000538685
0.000389671
0.000385321
0.000559008
0.000551686
0.000715652
0.000434818
0.000194417
0.000439112
0.000562505
0.000318945
0.000374049
0.000697319
0.000550095
0.000383097
0.000250504
0.000839731
0.000372022
0.000654116
0.000235756
0.000938239
0.000777802
0.000777153
0.000611189
0.000509905
0.000572056
0.000401867
0.00031386
0.000337842
0.000499043
0.000281318
0.00036891
0.000224733
0.000654735
0.000510525
0.0001792
0.000236288
0.000115386
0.000319535
0.000483404
0.000352894
0.00039138
0.000317143
0.000391354
0.00040196
0.000310238
0.000411795
0.000430372
0.000144092
8.60879e-05
0.000278208
0.000102739
0.000177218
0.000481796
0.000248558
0.000367478
0.000671757
0.000337785
0.000774746
0.000301679
0.000153036
0.000158099
0.000126153
0.0002253
0.000493686
0.00024712
0.000328021
6.54611e-05
0.000157521
0.000141851
0.000701155
0.000626178
0.000589652
0.000397521
0.000410711
0.000274014
0.000440807
0.000285942
0.000304684
0.000747067
0.00040366
0.000534942
0.000325842
0.000901949
0.000723207
0.000653494
0.000497419
0.000428382
0.000776855
0.000908151
0.000808015
0.000672878
0.00065011
0.000642644
0.000979637
0.00134509
0.000974638
0.000935459
0.000841925
0.000867046
0.000983247
0.00117399
0.000754762
0.000804946
0.00149973
0.000799113
0.00175042
0.00192073
0.00100458
0.000730591
0.000913992
0.000852369
0.00114971
0.000828626
0.0016957
0.00163189
0.000825783
0.000501685
0.000970531
0.000801023
0.00162482
0.00128776
0.00109455
0.000646357
0.0011989
0.000840932
0.00125666
0.000886155
0.00118292
0.000632001
0.000522727
0.000492513
0.000468111
0.000658114
0.000727006
0.0010914
0.00108581
0.00103301
0.0012386
0.00105171
0.000560816
0.000465842
0.000417491
0.000629483
0.00132898
0.00105862
0.000998459
0.00122914
0.00129612
0.000993209
0.000477862
0.000291747
0.000247552
0.000459711
0.000532677
0.00101316
0.000442832
0.00088435
0.00115196
0.000699151
0.000777006
0.0012536
0.000620111
0.000560392
0.000328935
0.000233476
0.000496502
0.000465022
0.000441674
0.00055324
0.000918639
0.000633009
0.000586443
0.00066134
0.0009366
0.00036633
0.000407637
0.000447957
0.00086488
0.000791742
0.000806429
0.000992656
0.00113658
0.000807235
0.000967373
0.000670239
0.000784859
0.000719781
0.000555329
0.000315786
0.000780855
0.000746835
0.0013827
0.000717197
0.000664236
0.000749301
0.000632353
0.000475734
0.00057679
0.000585117
0.000839148
0.000936043
0.000410065
0.000797731
0.000718696
0.000840835
0.000976616
0.00156724
0.0007723
0.000296511
0.000268646
0.000611727
0.000272227
0.000237684
0.000825882
0.000542236
0.000393685
0.000359952
0.000267618
0.000368836
0.000533853
0.000260195
0.00058576
0.00103835
0.000820823
0.000454271
0.000311162
0.000252357
0.000183844
0.000590339
0.00045744
0.000367146
0.000598589
0.000670537
0.000606104
0.000311234
0.000286858
0.000832556
0.000428582
0.000384468
0.000491846
0.000809161
0.000735125
0.000704277
0.000286938
0.000454958
0.000782695
0.000441099
0.000518669
0.000291743
0.000502237
0.000181352
0.000407443
0.000330236
0.000280859
0.000589587
0.000478506
0.000132368
0.000224942
0.000123362
0.000317041
0.000376018
0.000343905
0.000398795
0.000341045
0.00029097
0.000538299
0.000478252
0.000591164
0.000119044
0.000300699
0.00010973
0.000254898
0.000299716
0.000133286
0.000212775
0.000478248
0.000380543
0.000372152
0.000645409
0.000521427
0.000811391
0.000227832
0.000132779
0.000160768
0.000145343
0.000383887
0.000665817
0.000247603
0.000205355
5.46301e-05
6.20929e-05
0.000121479
0.000128899
0.00116201
0.000525269
0.000780731
0.000487034
0.000535006
0.00108235
0.000455677
0.000406907
0.000483922
0.00071476
0.000538206
0.000459818
0.000264649
0.000486294
0.000799146
0.000367997
0.000290205
0.00027294
0.000687391
0.000915004
0.000564075
0.000598636
0.000329579
0.0003648
0.00110376
0.000871425
0.000746939
0.000684473
0.000648957
0.00064053
0.000548142
0.000890228
0.00114438
0.00073626
0.000716686
0.00129061
0.00063309
0.000492573
0.000958008
0.000894994
0.00073092
0.000644421
0.000691382
0.0010954
0.00110453
0.00104047
0.00126813
0.00107069
0.000660974
0.000691643
0.000958895
0.000772711
0.0011429
0.00160649
0.000840011
0.00135494
0.00102759
0.000507167
0.001248
0.000784898
0.000898164
0.00134399
0.000917873
0.00108714
0.000862595
0.000850319
0.00105229
0.00136226
0.00124696
0.00110985
0.00125427
0.00115874
0.000423721
0.000486742
0.000545703
0.000700108
0.00110177
0.00118495
0.00103145
0.00116292
0.0013909
0.00114388
0.000680395
0.000447828
0.000467222
0.000522597
0.00105318
0.00142683
0.00108851
0.00124398
0.00125333
0.00140785
0.00108405
0.00138748
0.000334873
0.000291413
0.000287731
0.000514
0.000775517
0.000864032
0.000916394
0.00110905
0.000888423
0.00122388
0.000672578
0.000615761
0.00106922
0.000397758
0.000499385
0.000361675
0.00018565
0.00070105
0.000302426
0.000267341
0.00100476
0.00114408
0.00107973
0.000713288
0.00055636
0.000741656
0.000378643
0.000312515
0.000420522
0.000583501
0.000822222
0.00108271
0.000854925
0.00101524
0.00125937
0.000749805
0.000906415
0.000708905
0.000878932
0.000711032
0.000556326
0.000481053
0.000288016
0.000705384
0.000639831
0.000674996
0.000723357
0.000891684
0.000624559
0.000645201
0.000457688
0.000581588
0.000611825
0.000731746
0.000698647
0.000488904
0.000587313
0.000584885
0.000695225
0.000747822
0.000691965
0.000580954
0.000530223
0.000793365
0.000348447
0.000402695
0.000325602
0.000487447
0.00065618
0.000730463
0.000450302
0.000631643
0.000420027
0.000554328
0.000348488
0.000561226
0.000236271
0.000860764
0.000304976
0.00085628
0.00039488
0.000469929
0.000514661
0.000820016
0.00028285
0.000442183
0.000413645
0.000124059
0.000673993
0.000430262
0.000314777
0.000365303
0.000167518
0.000469028
0.000420934
0.000491752
0.00070084
0.000788428
0.000501656
0.000407507
0.000530478
0.000419609
0.000595172
0.000638708
0.000425832
0.000287461
0.000303665
0.00055348
0.000278015
0.000491042
0.000375173
0.00033599
0.000782289
0.000290863
0.000276571
0.000231579
0.000257157
0.00033299
0.000314067
0.000339609
0.000354084
0.000263302
0.000289291
0.000501006
0.000375463
0.000396392
0.000205913
0.000350393
0.000183882
0.000168054
0.000323521
0.00025367
2.41669e-05
0.00014641
0.000350453
0.000145815
0.000476446
0.000702169
0.000722914
0.000850407
0.000171967
0.000123114
0.000112834
0.000222711
0.000339396
0.000666744
0.000425509
0.000138814
5.93606e-05
4.9844e-05
8.47221e-05
6.34799e-05
0.000107419
0.00142289
0.00119009
0.00102358
0.000861514
0.000621472
0.000691142
0.000556691
0.000804427
0.000560054
0.000736257
0.000580693
0.000665843
0.000352275
0.000541756
0.000712366
0.000639794
0.000409255
0.000447575
0.000996817
0.000669413
0.000759016
0.000407983
0.000113533
0.00023354
0.000877154
0.000828168
0.000848946
0.000792534
0.000357991
0.000203224
0.000688616
0.000818907
0.000882444
0.000747889
0.000724852
0.000620521
0.000837033
0.000519085
0.000750651
0.00118044
0.00099633
0.000716949
0.000630418
0.000586129
0.00212796
0.000515443
0.000786514
0.00116722
0.000879544
0.000674619
0.000776758
0.000834652
0.000751899
0.00116631
0.0006735
0.0013073
0.00118681
0.000609748
0.000735237
0.000822391
0.000935983
0.000818275
0.000752414
0.00120638
0.00140895
0.0010435
0.0013298
0.000525448
0.00104701
0.00103738
0.000718029
0.000771415
0.000960853
0.00126323
0.00101819
0.000749655
0.000664985
0.00062811
0.00124062
0.00121579
0.0010303
0.00128922
0.0010136
0.00118233
0.001065
0.000853679
0.000791618
0.000612464
0.000908549
0.000811521
0.00102066
0.00115048
0.00116647
0.00142364
0.00106368
0.000848753
0.00052977
0.000660573
0.00036179
0.000616119
0.000602938
0.000947138
0.00154136
0.00112632
0.00102837
0.00121539
0.00107826
0.00162317
0.000962602
0.000396476
0.000297469
0.000224258
0.000476014
0.000712137
0.000903948
0.000844655
0.00105084
0.00112807
0.000886724
0.000762446
0.000849819
0.000727751
0.000703434
0.000661739
0.000374244
0.000317016
0.000196332
0.000618773
0.000300053
0.00071365
0.000873556
0.00132067
0.000886848
0.000908774
0.000677063
0.000439095
0.000752135
0.000572052
0.000348232
0.000468188
0.000611052
0.000451977
0.00107082
0.00122815
0.000913151
0.0011146
0.00110725
0.000906053
0.00067475
0.000736543
0.000924946
0.000517537
0.000306813
0.00112791
0.000349367
0.000340431
0.000953145
0.000330046
0.000915188
0.00118157
0.00071639
0.000308606
0.000426397
0.000423098
0.000757
0.000850001
0.000730399
0.00036197
0.00063571
0.00061922
0.00084029
0.00064039
0.000621461
0.00089684
0.000802983
0.000685877
0.00068251
0.000564806
0.0002249
0.000334404
0.00043836
0.000395667
0.000705531
0.000576783
0.000431697
0.000511484
0.000787446
0.000716086
0.000627757
0.000407821
0.000303296
0.000334784
0.000570245
0.000393417
0.000350196
0.000495255
0.000848566
0.000613505
0.000370912
0.000401515
0.00040322
0.000119848
0.000388819
0.000302887
0.000353466
0.000375665
0.000350899
0.000294341
0.000438373
0.000505195
0.000547472
0.000347378
0.000741825
0.000536382
0.000419461
0.000672872
0.000402792
0.000283784
0.000550812
0.000136947
0.000431285
0.000233127
0.000405294
0.000173591
0.000138804
0.00032976
0.000390521
0.000455795
0.000500185
0.00027433
0.000508102
0.000381441
0.000450358
0.000326162
0.000475753
0.000284361
0.000231722
0.000197068
0.000280703
0.000426581
0.000271695
0.000273703
0.000233701
0.000233641
0.000141805
0.000178764
0.000257408
0.00027979
0.000238784
6.54659e-05
0.000219966
0.000594871
0.000248323
0.000530373
0.000590508
0.000886561
0.00083646
0.000137081
0.000165199
9.8663e-05
0.000255274
0.000249717
0.000569508
0.000336828
0.000101636
5.80093e-05
9.83363e-05
9.71128e-05
9.00565e-05
0.000129908
9.01871e-05
0.000207868
0.00308086
0.00144739
0.00130113
0.00134685
0.00144193
0.00119169
0.000744671
0.000880003
0.000912891
0.00096578
0.000626194
0.000428205
0.000566275
0.00080287
0.000728425
0.000526878
0.000477021
0.00042752
0.000611231
0.000596353
0.000461614
0.000439544
0.000589647
0.000682455
0.000661094
0.000737411
0.000451155
0.000717947
0.000305872
0.000479797
0.000607805
0.00100671
0.000702595
0.000717857
0.000618685
0.00046008
0.000630204
0.000539577
0.000836066
0.00089369
0.000782745
0.000782565
0.000575419
0.000384453
0.000545673
0.00072783
0.00069275
0.00108365
0.0012921
0.00101226
0.000822057
0.000702869
0.000594075
0.000466463
0.00122512
0.000564756
0.000998457
0.00113148
0.00116957
0.00100967
0.000865549
0.000808729
0.00085286
0.000577631
0.000921994
0.000649401
0.00123759
0.00062898
0.000742096
0.000864043
0.000784106
0.000610056
0.000845889
0.000782622
0.000719328
0.000724135
0.00134162
0.00124333
0.00127327
0.000397268
0.000731473
0.000882392
0.0010545
0.00104123
0.000978561
0.000934347
0.00126352
0.00151505
0.000818647
0.000746107
0.000521409
0.00119232
0.00141148
0.00106821
0.00108376
0.001091
0.00112779
0.000629389
0.000869784
0.000513267
0.000462988
0.000817355
0.000922704
0.000806437
0.001069
0.00103469
0.00121185
0.00144248
0.000861727
0.00121897
0.00137909
0.000337768
0.000448596
0.000597761
0.000753975
0.00137423
0.00128566
0.000915389
0.000850709
0.000993862
0.000942966
0.00102419
0.00126121
0.00145433
0.0011345
0.000496197
0.000434619
0.00047299
0.000649284
0.00122688
0.00104148
0.000660333
0.000825767
0.000952681
0.00088673
0.00111378
0.000603972
0.000604083
0.000555059
0.000586666
0.00063832
0.000502012
0.00046072
0.000512892
0.000503572
0.000686412
0.0010514
0.000968552
0.00101554
0.00109291
0.000876815
0.000633063
0.000545101
0.000918191
0.000850847
0.000781625
0.000470226
0.000324919
0.000901992
0.000659533
0.000816374
0.00189467
0.0012077
0.000814584
0.000572469
0.000497486
0.000632694
0.000998719
0.000974903
0.000683572
0.00032627
0.000663603
0.00115018
0.000432013
0.00029704
0.00106054
0.00108806
0.000709945
0.00148993
0.000674979
0.000357356
0.000518647
0.000556133
0.000779841
0.000664458
0.000585932
0.000491137
0.000555807
0.000617632
0.000951205
0.000305956
0.000759176
0.000779139
0.00103461
0.00073939
0.000809064
0.000679192
0.000376298
0.000135216
0.000303938
0.000363604
0.000356426
0.000479026
0.00102875
0.000270805
0.00049191
0.000520277
0.000759589
0.000398714
0.000581774
0.000371177
0.000223856
0.000674867
0.000443793
0.000416157
0.000250944
0.000389964
0.000684227
0.000278289
0.000393431
0.000238325
0.000347737
0.000463475
0.000342715
0.000337859
0.000308621
0.000450135
0.000344975
0.000355569
0.000327719
0.00058038
0.000610685
0.000317971
0.00035752
0.000373071
0.000584654
0.000658642
0.000657169
0.000296927
0.000403927
0.000547122
0.000125272
0.000284609
0.000338402
0.000222187
0.000112264
0.000645578
0.000297709
0.000423389
0.000514829
0.000334517
0.00025704
0.000341577
0.000537419
0.000557058
0.000553763
0.00063342
0.000520878
0.000230462
0.000256348
0.000147215
0.000100447
0.000325554
0.00036328
0.000205539
0.000131603
0.000145239
0.000154693
0.000235722
0.000286496
0.000179767
9.89287e-05
0.000169492
0.000180385
0.000145902
0.000300491
0.000797184
0.000392622
0.000182385
0.000444538
0.00093212
0.000660837
0.00013453
0.00014528
8.99394e-05
0.000174708
0.000141525
0.000359745
0.000168565
9.1031e-05
9.54465e-05
0.000122489
3.96818e-05
9.89005e-05
7.58126e-05
0.000145293
0.000265649
0.000396427
0.00313886
0.00281921
0.00128632
0.000991831
0.00125293
0.00146458
0.00111894
0.00143392
0.00124264
0.000749536
0.000840873
0.000768929
0.000761066
0.000922929
0.000595123
0.000664348
0.000705757
0.000783333
0.000803494
0.000637278
0.000443087
0.000421541
0.000624474
0.000681971
0.000654479
0.000643251
0.00051169
0.000382129
0.00042505
0.000823331
0.000829719
0.000561378
0.000614694
0.00046706
0.000435064
0.0004488
0.000395273
0.000942231
0.000854947
0.000416337
0.000515762
0.000545465
0.000471879
0.000220095
0.000237906
0.00073813
0.000926892
0.000924734
0.000845636
0.000666503
0.000815752
0.00056513
0.000605962
0.000611901
0.000831745
0.000839683
0.00107852
0.000957153
0.00086927
0.00106377
0.000757316
0.000423624
0.000529302
0.000459084
0.00133157
0.000870417
0.00112005
0.00104922
0.00095226
0.000837784
0.000624954
0.000824246
0.000717565
0.000678071
0.000668995
0.000657042
0.000705123
0.00108996
0.000772776
0.000880659
0.00073357
0.00103559
0.00103114
0.000708887
0.000657494