/*--------------------------------*- C++ -*----------------------------------*\
  =========                 |
  \\      /  F ield         | OpenFOAM: The Open Source CFD Toolbox
   \\    /   O peration     | Website:  https://openfoam.org
    \\  /    A nd           | Version:  7
     \\/     M anipulation  |
\*---------------------------------------------------------------------------*/
FoamFile
{
    version     2.0;
    format      ascii;
    class       surfaceScalarField;
    location    "10";
    object      phi;
}
// * * * * * * * * * * * * * * * * * * * * * * * * * * * * * * * * * * * * * //

dimensions      [0 3 -1 0 0 0 0];

internalField   nonuniform List<scalar> 
53739
(
-8.36203e-05
0.00147099
-4.26506e-05
-0.00013301
0.001844
1.11733e-05
-8.52603e-05
0.00156224
-4.34108e-05
-8.32427e-05
0.0020053
-4.84352e-05
-0.000125757
0.0036592
-9.14796e-05
-0.000178413
0.00185818
8.84385e-06
-0.000158983
0.00281861
2.11553e-05
-8.73721e-05
0.00165463
-4.33123e-05
-8.11765e-05
0.00209145
-4.83838e-05
-2.93225e-05
0.00296345
-3.19704e-05
-0.000102075
0.00413968
8.29063e-05
-0.000230198
0.00361982
-7.0352e-05
-0.000158215
0.00380611
-9.01989e-05
-0.000188529
0.00188631
4.52269e-06
-0.000152332
0.00288235
1.62547e-05
-2.63774e-05
0.00395736
7.49804e-06
-8.64691e-05
0.00174659
-4.43469e-05
-7.5543e-05
0.00217144
-4.77669e-05
-1.95846e-05
0.00296627
-3.16206e-05
-3.22499e-05
0.00344289
-1.85343e-05
-2.58833e-05
0.00385583
0.000115706
-0.000159118
0.00397646
2.37436e-05
-0.000102751
0.00387615
0.000112739
-0.000257976
0.00363705
-6.89436e-05
-0.000156282
0.00380014
-6.04333e-05
-3.24477e-05
0.0046114
-8.88619e-05
-0.000200871
0.00192283
2.91044e-06
-0.00013877
0.00293818
1.19264e-05
-1.59782e-05
0.00395708
1.29348e-05
-3.35893e-05
0.00427965
-1.70837e-06
-9.20472e-05
0.00184383
-4.35163e-05
-6.73119e-05
0.00224212
-4.77106e-05
-8.36542e-06
0.00295914
-3.2267e-05
-2.05369e-05
0.0034493
-1.74854e-05
4.05112e-06
0.00347059
-2.01873e-05
0.000312324
0.00407015
0.000617866
2.08003e-05
0.00371035
0.000203268
6.69337e-05
0.00347191
-5.02626e-05
-0.000227711
0.00395196
-1.38735e-05
-0.000116151
0.00377765
8.21076e-05
2.23596e-05
0.00479118
3.46697e-05
-0.000261834
0.0036546
-7.30735e-05
-0.00016221
0.00380369
-4.9048e-05
-4.21767e-05
0.00461255
-3.53837e-05
-3.39136e-05
0.00496097
-1.95157e-05
-0.000191322
0.00196959
-2.33877e-05
-0.000123566
0.0029764
2.09431e-05
-1.81659e-06
0.00395976
2.6948e-06
-3.4816e-05
0.00430254
4.32105e-06
-4.18804e-06
0.00387286
4.45229e-05
-7.49036e-05
0.0019234
-4.50933e-05
-6.01536e-05
0.00230663
-4.78724e-05
-1.91558e-06
0.00294546
-3.21157e-05
-6.44321e-06
0.00344187
-1.83991e-05
1.84554e-05
0.00345383
-1.91838e-05
1.39634e-05
0.00329621
-4.06824e-06
0.000786225
0.00419327
0.000925224
0.000314969
0.00383528
0.000669888
0.000344111
0.0039745
0.000426987
1.3902e-05
0.00354076
0.000303002
8.80199e-05
0.0035117
-4.06958e-05
0.000228875
0.0042776
-0.000243528
-0.000230033
0.00394081
-6.98829e-06
-0.000134791
0.00368961
4.67465e-05
2.59342e-05
0.00475283
5.23408e-05
0.000109123
0.00483997
-6.01617e-05
-0.000231746
0.00367163
-8.79228e-05
-0.000158447
0.0038105
-4.50019e-05
-3.90824e-05
0.00462514
-2.43762e-05
-4.92785e-05
0.0049143
2.57512e-05
-2.55039e-05
0.00427955
0.000102058
-0.000192329
0.00204484
-3.40063e-05
-0.00010545
0.00299771
5.97463e-07
9.03291e-06
0.00394189
2.78636e-05
-9.89255e-06
0.00430748
1.21075e-06
1.63428e-05
0.00386986
9.43622e-06
0.000102683
0.00323716
-1.15439e-05
-7.35249e-05
0.00200161
-4.5178e-05
-5.13742e-05
0.00235993
-4.70227e-05
1.31424e-05
0.00291709
-3.26444e-05
1.44002e-07
0.00342886
-1.92448e-05
3.4365e-05
0.00342081
-1.97465e-05
3.6405e-05
0.00324412
-3.49166e-06
4.39231e-05
0.00302698
2.13854e-05
0.000943801
0.00370991
0.00104657
0.0007762
0.00389271
0.000759689
0.000827824
0.00382488
0.000681907
0.000361835
0.00377323
0.000497606
0.000414686
0.00392285
0.000394866
0.000620555
0.0047841
-3.91726e-05
5.08931e-05
0.00341691
0.00026344
0.000162408
0.0035686
-5.10988e-05
0.000284584
0.00432346
-0.000345205
0.000438485
0.00459011
-0.000578836
-0.000188531
0.00394757
-2.84692e-05
-0.00011153
0.00363314
2.56909e-06
6.11262e-05
0.00466857
3.08007e-05
0.000118455
0.00482727
-0.000102701
0.000166762
0.00382533
-0.000332538
-0.000237578
0.00369985
-9.32637e-05
-0.000137021
0.00380912
-5.49741e-05
1.10651e-05
0.00459249
-1.4377e-05
-6.89113e-05
0.00489133
5.76109e-05
3.64127e-05
0.0041873
9.79304e-05
0.000165057
0.00323862
0.000146881
-0.000185958
0.00212063
-3.88451e-05
-8.81011e-05
0.00300005
3.78813e-07
3.23442e-05
0.00391231
1.09779e-05
-5.52409e-06
0.00431994
2.10721e-05
6.39965e-05
0.00383527
6.16226e-06
0.000139569
0.00319308
-4.96423e-05
7.88715e-05
0.00164307
-9.25245e-05
-6.98556e-05
0.00207463
-4.4678e-05
-4.38169e-05
0.00240486
-4.62869e-05
1.65293e-05
0.00288646
-3.29211e-05
1.65116e-05
0.00339926
-1.95616e-05
4.66912e-05
0.00337604
-2.11667e-05
5.10125e-05
0.00317655
-3.1972e-06
4.89975e-05
0.0029518
2.26925e-05
4.05647e-05
0.00212141
6.5699e-06
0.00138904
0.00399405
0.00125977
0.00114301
0.00392823
0.000533476
0.00127314
0.00418821
0.00051373
0.000845443
0.00374311
0.000397128
0.000986707
0.00379561
0.00021694
0.001332
0.00458938
0.000126249
0.000463021
0.00377772
0.000161951
0.00057369
0.0038772
0.000131975
0.000770521
0.00479523
-0.000102206
0.000949858
0.00433793
-0.0007534
0.000118658
0.00337947
5.94864e-07
0.000272111
0.00361925
-0.000170852
0.000403529
0.00436492
-0.000434957
0.000470545
0.00455102
-0.000658206
0.000374447
0.00321442
-0.000912287
-0.000143781
0.00390803
-2.35572e-05
-5.25681e-05
0.00360496
-8.47425e-05
0.000124134
0.0045496
8.46853e-06
7.52653e-05
0.00492029
-0.000206396
0.000293181
0.00387252
-0.000406666
0.000330784
0.00354108
-0.000506347
-0.00022454
0.00373079
-0.000104322
-0.000116204
0.0038092
-6.52423e-05
4.55469e-05
0.00454563
-2.13248e-05
2.54484e-06
0.00480108
6.78013e-05
5.41506e-05
0.00413331
0.000121451
0.00012877
0.00323153
0.000115825
0.000180366
0.00267189
-3.4705e-05
-0.000172329
0.00219243
-4.0252e-05
-8.73397e-05
0.00300363
1.09672e-06
3.26398e-05
0.00387767
1.89092e-05
3.21367e-05
0.00431309
2.19804e-06
8.19605e-05
0.00382736
-6.288e-06
0.000166497
0.00314654
-6.27891e-05
8.05718e-05
0.00164975
-8.78997e-05
5.4659e-05
0.00105557
-4.23046e-05
-5.16411e-05
0.00213011
-4.69722e-05
-3.41434e-05
0.00243988
-4.55602e-05
2.54378e-05
0.00284765
-3.29187e-05
3.13051e-05
0.00335498
-1.99395e-05
6.16454e-05
0.0033179
-2.30622e-05
5.95386e-05
0.00309968
-3.8259e-06
4.95602e-05
0.00287639
2.26551e-05
3.90505e-05
0.00209965
5.39943e-06
9.23754e-05
0.00134514
-2.90899e-05
0.00202849
0.00465408
0.000711768
0.0015197
0.0043239
0.00082418
0.00200645
0.00399254
0.000478352
0.00133314
0.00417374
7.98582e-05
0.0014919
0.00417141
4.50802e-05
0.00190881
0.00432382
5.27076e-05
0.00104454
0.00375882
-5.93968e-05
0.00117441
0.00372022
-0.000128198
0.0015625
0.00433207
-0.000317738
0.00164934
0.00466061
-0.000512785
0.000570822
0.00367068
-0.00030811
0.000731578
0.00376928
-0.000189592
0.000927357
0.00472241
-0.000319033
0.00108133
0.00442192
-0.00079698
0.000679162
0.00302367
-0.00112191
0.000198641
0.00339002
-0.000239947
0.000395484
0.00355781
-0.000386019
0.000544637
0.00434751
-0.000573945
0.00051295
0.00441321
-0.000734831
0.00040865
0.00335283
-0.000912086
0.000289818
0.00355857
-0.000951867
-7.5171e-05
0.00383818
-8.75448e-06
1.16067e-05
0.00360445
-0.000150862
0.000174692
0.00441622
-8.05049e-05
0.000173953
0.0049452
-0.000187843
0.000220923
0.00396057
-0.000461218
0.00030789
0.00349793
-0.000542642
0.00024517
0.00372039
-0.000567526
-0.000205242
0.00379973
-0.000119606
-9.45566e-05
0.00377585
-6.37566e-05
5.42606e-05
0.00446152
-2.75157e-06
4.33621e-05
0.00470841
6.01226e-05
0.000245675
0.00394227
9.51244e-05
0.000166759
0.00325848
9.42342e-05
0.00019662
0.00273375
-6.20849e-05
0.000167715
0.00182699
-0.000136168
-0.000154865
0.00227456
-5.28561e-05
-6.76375e-05
0.00298793
8.94967e-06
4.05297e-05
0.00381817
4.5505e-05
5.98044e-05
0.00429437
9.13317e-06
0.000136295
0.00377051
-1.56004e-05
0.000151618
0.00312321
-7.50319e-05
8.01871e-05
0.0016441
-8.77679e-05
4.3416e-05
0.00100805
-4.47424e-05
0.000251455
-7.26617e-05
-4.83982e-05
-5.29058e-05
0.00218456
-4.53761e-05
-2.60777e-05
0.00246453
-4.55376e-05
3.76188e-05
0.00279751
-3.30423e-05
3.28852e-05
0.00330952
-2.03528e-05
7.56856e-05
0.00324551
-2.32369e-05
7.04793e-05
0.00301053
-4.39165e-06
5.35711e-05
0.0027963
2.26923e-05
4.30312e-05
0.00207587
3.4033e-06
9.981e-05
0.00128035
-2.96235e-05
0.000174918
0.00013912
-4.23697e-05
0.0022004
0.00514094
0.00177626
0.00219151
0.00473645
0.00112104
0.00247872
0.00416865
0.00035875
0.00179412
0.0046364
0.000551028
0.00217776
0.00402382
0.000107033
0.0025
0.00444054
0.000118638
0.00146472
0.00436414
-0.0003645
0.00162469
0.00405138
-0.000250398
0.00208632
0.00400405
-0.000158964
0.00227444
0.00425187
-0.000154013
0.00122598
0.00385537
-0.000336798
0.00130667
0.00352687
-0.000441146
0.00167371
0.00396808
-0.000510557
0.0017486
0.00414016
-0.000464556
0.00105067
0.00279402
-0.000797663
0.000663122
0.00357656
-0.000589285
0.00084879
0.00358933
-0.000581464
0.00109383
0.00452381
-0.000540183
0.00112544
0.00441693
-0.000926535
0.000630154
0.00308272
-0.00107753
0.000484123
0.0027129
-0.00117173
0.000284195
0.00339625
-0.000458253
0.000446627
0.00350711
-0.00062426
0.000647514
0.00415793
-0.000669265
0.000593052
0.00426313
-0.000842967
0.000382191
0.00337752
-0.000920787
0.000383173
0.00352159
-0.000950383
0.000225765
0.00386502
-0.000923326
1.11654e-05
0.00377996
-4.11194e-05
8.33235e-05
0.00362071
-0.00020289
0.000216033
0.00424858
-0.00014499
0.000290724
0.00485759
-0.000240256
0.00048938
0.00396909
-0.00044006
0.000288915
0.0034675
-0.000552946
0.000266575
0.00367239
-0.000564601
0.000206762
0.00394052
-0.000561462
-0.000166072
0.00386468
-0.000124767
-8.26365e-05
0.00372953
-5.82886e-05
0.000117849
0.0043071
1.3343e-05
0.000130457
0.00454436
9.06464e-05
0.000179963
0.00382492
0.000133807
0.000132948
0.0033227
4.95795e-05
0.000201212
0.00278827
-8.1312e-05
0.000195608
0.00175879
-0.000146076
0.000266749
0.00156104
-0.000102836
-0.000144984
0.00234473
-5.52272e-05
-5.68432e-05
0.00296459
1.24934e-06
5.62883e-05
0.00376298
4.5469e-05
6.36746e-05
0.00427937
2.97111e-05
0.000156109
0.00372169
-2.24698e-05
0.00021927
0.00304714
-8.83179e-05
8.06029e-05
0.00163229
-9.02499e-05
3.42799e-05
0.000975901
-4.68689e-05
0.000242053
-0.000192807
-6.684e-05
0.000377594
-0.000171117
-0.000109027
-4.58337e-05
0.00223116
-4.51191e-05
-1.4898e-05
0.00247942
-4.53745e-05
5.17385e-05
0.00273262
-3.23766e-05
5.42181e-05
0.00324368
-2.14123e-05
8.90579e-05
0.0031583
-2.22041e-05
7.83809e-05
0.00291181
-2.90653e-06
6.17579e-05
0.00270481
2.53438e-05
5.19694e-05
0.00204485
1.74671e-06
0.000106775
0.00120704
-3.0065e-05
0.00017089
-2.05011e-05
-4.08918e-05
0.000187391
-0.000327124
-3.86492e-05
0.00242155
0.00476881
0.00229073
0.00304192
0.00464429
0.00118618
0.00282923
0.0049834
0.00107941
0.00218681
0.00513168
0.000662319
0.00260452
0.00451282
0.00035011
0.00293717
0.00437485
0.00017844
0.00215468
0.00464835
0.000591
0.00229912
0.00393935
-3.89217e-05
0.00258715
0.00411658
-6.98403e-05
0.00276624
0.00405097
-0.000119179
0.00158421
0.00440178
-0.000551715
0.00172284
0.00372979
-0.000459072
0.00214663
0.00353808
-0.000257345
0.00228949
0.00369462
-0.000142597
0.00154297
0.00281365
-0.000464565
0.00131759
0.00377082
-0.000546781
0.0013708
0.00332331
-0.000655246
0.00167704
0.00345151
-0.000507785
0.00168502
0.0035284
-0.000458388
0.000989433
0.00250449
-0.000534307
0.000736237
0.00164773
-0.000961419
0.000698569
0.00346352
-0.000746047
0.000818139
0.00334556
-0.00071703
0.00115884
0.00416672
-0.000735703
0.00114389
0.00394034
-0.00061443
0.000516335
0.00312527
-0.00110323
0.000484014
0.00265101
-0.00111648
0.000132871
0.00340713
-0.00110154
0.000376108
0.00338156
-0.000599826
0.000416365
0.00346042
-0.000744611
0.00071296
0.00381531
-0.000778565
0.000661561
0.00407844
-0.000855406
0.000513342
0.00344756
-0.000936973
0.000247393
0.00357558
-0.000933256
0.000233354
0.00390356
-0.000955705
0.000232515
0.0041364
-0.000883615
3.24994e-05
0.00381381
-0.000179571
0.000115221
0.00369764
-0.000315913
0.000324337
0.00406706
-0.000227858
0.000425903
0.00467321
-0.000256062
0.000294832
0.00408164
-0.000467679
0.00024276
0.00345126
-0.000533633
0.000290857
0.00360389
-0.000574092
0.000278827
0.00383041
-0.000537714
0.000317616
0.00393851
-0.000465074
-0.000142796
0.00391328
-0.000123911
-1.74034e-05
0.00360752
-4.21928e-05
0.000115254
0.00414259
4.72623e-05
0.000189234
0.00436324
6.88976e-05
0.000197081
0.00377885
9.57443e-05
0.000240587
0.00336748
6.77064e-05
0.000228277
0.00278972
-9.95492e-05
0.000211307
0.00165298
-0.000152529
0.000287987
0.00147476
-0.000105732
0.00054578
0.00147131
-9.05699e-05
-0.000126155
0.00240534
-5.65407e-05
-3.80696e-05
0.00293653
-4.00423e-06
8.14633e-05
0.0036909
4.36047e-05
0.000131739
0.00422732
2.00036e-05
0.000171743
0.00370231
-3.35955e-05
0.000190567
0.00301732
-0.000104844
7.27194e-05
0.00162573
-9.27213e-05
4.41948e-05
0.00094175
-4.83239e-05
0.000234715
-0.000288346
-7.92689e-05
0.00036046
-0.000301509
-0.000126019
0.000408181
0.000437007
-0.000118966
-3.99582e-05
0.0022737
-4.61582e-05
1.30574e-06
0.00247786
-4.48586e-05
6.50787e-05
0.00265309
-3.09318e-05
7.34227e-05
0.00315879
-2.09109e-05
0.000104482
0.00305722
-2.48055e-05
8.79702e-05
0.00280284
-1.20414e-06
6.76272e-05
0.00261004
2.42317e-05
5.84774e-05
0.00200974
1.98074e-06
0.000113816
0.0011261
-3.11263e-05
0.000164697
-0.000175643
-3.96201e-05
0.000177011
-0.00050538
-3.96467e-05
0.000215171
0.000290463
-3.27937e-05
0.00195636
0.00440101
0.00369529
0.00222721
0.00480373
0.00313609
0.00357244
0.00471325
0.001636
0.00269563
0.00535751
0.00178767
0.00244712
0.00494763
0.00194456
0.00286749
0.00510244
0.000804168
0.003335
0.0048759
0.000737126
0.00259869
0.00536637
0.000113343
0.00258067
0.00468643
0.00020716
0.00306548
0.00413159
0.000115041
0.00335714
0.00408978
-0.000154432
0.0024688
0.00455511
0.000457771
0.00248179
0.00384521
-7.38173e-05
0.00262751
0.00368992
-9.31384e-05
0.00275338
0.00373276
-0.000215519
0.00211274
0.00289638
-0.000518968
0.00159715
0.00397928
-0.000368325
0.00170994
0.00333378
-0.000494844
0.00201624
0.00305834
-0.000318537
0.00213441
0.00311132
-0.000123433
0.00144862
0.00254638
-0.000334508
0.000922385
0.0023785
-0.000776927
0.00129103
0.00351325
-0.000566002
0.0012923
0.00300664
-0.000704271
0.00152796
0.00293908
-0.000511937
0.00154343
0.00292042
-0.00029934
0.00082199
0.00214866
-0.000408215
0.000691761
0.00173649
-0.000830807
0.000318692
0.0019006
-0.00114382
0.000724462
0.00323762
-0.000717042
0.000683746
0.00304435
-0.000712219
0.00105681
0.00373324
-0.000627402
0.00104882
0.00361925
-0.000801863
0.000750818
0.00300228
-0.000728924
0.000251357
0.00263601
-0.0010922
0.000182627
0.00344343
-0.00110205
7.72955e-05
0.00409539
-0.00102495
0.000325607
0.00333932
-0.00069615
0.000382635
0.00335569
-0.000762507
0.000678032
0.00349296
-0.000775962
0.0006499
0.00393017
-0.000854298
0.000375234
0.00345571
-0.000943962
0.000227237
0.0035811
-0.00092697
0.00030132
0.00386751
-0.000907665
0.000303985
0.00406422
-0.000908683
0.000275581
0.00431433
-0.000780101
2.33659e-05
0.00385179
-0.000263217
0.00017701
0.00371882
-0.000395157
0.000255054
0.00399147
-0.000380128
0.000486673
0.00446174
-0.000313824
0.000343119
0.00412846
-0.000448925
0.000218963
0.00352057
-0.000515358
0.000334178
0.00349861
-0.000534248
0.000244712
0.00374936
-0.000526443
0.000307297
0.00383467
-0.000453188
0.000687245
0.00346872
-0.00037302
-7.00396e-05
0.00389869
-0.000114399
1.4712e-05
0.00348567
-5.48473e-05
0.000268329
0.00383957
7.39586e-05
0.000212026
0.00421263
0.000117593
0.00020659
0.00375525
5.76486e-05
0.000223601
0.00342073
9.46372e-06
0.00025678
0.00280827
-0.000134906
0.000251464
0.00150441
-0.000158244
0.000314716
0.00135135
-0.000109125
0.000516215
0.00130713
-9.72976e-05
0.00068525
0.00238469
-3.54568e-05
-0.000108612
0.00245553
-5.69923e-05
-8.80917e-06
0.00290521
-1.51057e-05
0.000124567
0.00359353
3.38798e-05
0.000179011
0.00415508
1.02535e-05
0.000211878
0.0036649
-4.99809e-05
0.000197312
0.00299495
-0.000120562
7.5647e-05
0.0016084
-9.55297e-05
5.61038e-05
0.000899175
-4.77734e-05
0.000231908
-0.000367583
-8.71792e-05
0.000337317
-0.000419905
-0.000133492
0.000400097
0.00022858
-0.000140678
0.00053556
0.00167673
-8.57673e-05
-3.13802e-05
0.00230791
-4.51351e-05
1.37623e-05
0.00246116
-4.32222e-05
7.75857e-05
0.00256125
-3.06037e-05
9.04287e-05
0.00305803
-2.06021e-05
0.000115725
0.00294672
-2.61383e-05
9.64458e-05
0.00268424
-2.64333e-06
6.92618e-05
0.00251533
2.42472e-05
7.83144e-05
0.00195734
-1.68388e-06
0.000121114
0.00104025
-3.32854e-05
0.000156593
-0.000324157
-3.92058e-05
0.000173731
-0.000680214
-3.85173e-05
0.00022049
6.55539e-05
-3.52268e-05
0.000233286
0.00153792
-3.38891e-05
0.0015917
0.00406061
0.00428976
0.00208556
0.00445354
0.00358995
0.00097399
0.00529117
0.00382291
0.00364997
0.0050098
0.00255481
0.00219479
0.00559606
0.00323113
0.00280392
0.00496477
0.00198177
0.00286386
0.00528507
0.00171207
0.00338767
0.00538992
0.00147869
0.00214085
0.00564942
0.0022472
0.0032445
0.00520273
0.00118044
0.00318466
0.00494471
0.000616189
0.00366406
0.00427645
0.000420234
0.00322509
0.00503963
0.000142191
0.00252364
0.00460567
0.000152257
0.00285967
0.00402091
8.56749e-05
0.00318957
0.00393524
-0.000166613
0.00254872
0.00291568
-0.000527698
0.00249072
0.00451647
0.000404922
0.00234697
0.00385913
-0.000193173
0.0024304
0.00349486
-0.000292928
0.0025613
0.00343115
-0.000218421
0.00194369
0.00279408
-0.000608295
0.00106405
0.00260867
-0.000732316
0.00161046
0.00348009
-0.000322959
0.00167292
0.00302153
-0.0004367
0.00178698
0.00280663
-0.000502154
0.00182053
0.00279932
-0.000283643
0.00129287
0.00229853
-0.000346466
0.000941994
0.00239558
-0.000601823
0.000444437
0.00269066
-0.00083109
0.00126402
0.0030741
-0.000494616
0.00115037
0.00262917
-0.000655162
0.00128311
0.00253165
-0.000523139
0.00125499
0.00254784
-0.000345536
0.000757568
0.00219041
-0.000347831
0.000512461
0.00179659
-0.000729427
0.000488804
0.00186014
-0.00109652
5.11941e-05
0.00322303
-0.00113725
0.000671767
0.00291996
-0.000744159
0.000552052
0.00281689
-0.000659
0.000868152
0.0033458
-0.000514894
0.000855837
0.00333532
-0.000549407
0.000586113
0.00287697
-0.000887433
0.000418659
0.00280154
-0.00108588
0.000253666
0.00346722
-0.00106834
0.000159261
0.00415975
-0.00102169
0.000172413
0.00464535
-0.00101522
0.000233227
0.00327862
-0.000720635
0.000311986
0.00322971
-0.000705149
0.000373679
0.0033126
-0.000700771
0.000567194
0.0038544
-0.000780714
0.000411482
0.00346141
-0.000928359
0.000204611
0.00354268
-0.000891194
0.000291747
0.00388843
-0.000905461
0.000228993
0.0040405
-0.000868232
0.00026232
0.00423918
-0.000788556
0.000708537
0.00429774
-0.000691086
0.000132078
0.00385238
-0.000367957
0.000136102
0.00385465
-0.00052044
0.000393471
0.00391168
-0.000440504
0.00041143
0.00428395
-0.000401738
0.000321146
0.0041585
-0.000458411
0.000238388
0.00354185
-0.000484994
0.000394956
0.00333321
-0.000488133
0.000295213
0.00366548
-0.000494118
0.00038359
0.00368052
-0.00044117
0.000606994
0.00331984
-0.000395089
0.000839556
0.00383981
-0.00032896
-1.06817e-06
0.00382413
-0.000109996
5.63523e-05
0.00337683
-7.07125e-05
0.000124077
0.0037276
5.76131e-05
0.000252424
0.00413682
7.6349e-05
0.000242142
0.00376286
7.97233e-05
0.000189238
0.00349065
-4.1924e-06
0.000255277
0.00280162
-0.000163508
0.000282938
0.00132359
-0.000180925
0.000316037
0.0012406
-0.000131625
0.00048492
0.00117925
-0.000128855
0.000668695
0.00202807
-9.28058e-06
0.000828183
0.00290761
-0.000116969
-9.25657e-05
0.00250985
-5.8945e-05
8.87541e-06
0.00286832
-1.52071e-05
0.000141121
0.0034998
1.50873e-05
0.000227348
0.00404878
3.26188e-06
0.000237026
0.00360594
-5.20821e-05
0.000213373
0.0029721
-0.000144058
7.60694e-05
0.00158142
-0.000100396
7.73288e-05
0.000850472
-4.58405e-05
0.000218468
-0.000424963
-8.77466e-05
0.000303037
-0.000517761
-0.000135767
0.000404207
1.63097e-05
-0.000151697
0.000559037
0.0012952
-9.76995e-05
0.000491756
0.00294271
-0.000132517
-2.19786e-05
0.00233347
-4.52419e-05
2.63409e-05
0.00243086
-4.11767e-05
9.46643e-05
0.00245246
-2.9091e-05
0.000107941
0.00294133
-2.18462e-05
0.00012672
0.0028278
-2.8407e-05
9.95415e-05
0.00256209
-3.5349e-06
6.91854e-05
0.00241942
2.40751e-05
8.93251e-05
0.00189442
-2.16154e-06
0.000125967
0.000947837
-3.52374e-05
0.000148281
-0.000465931
-3.97929e-05
0.000173944
-0.00085635
-3.70147e-05
0.000222068
-0.000160502
-3.45294e-05
0.00024452
0.00129595
-3.7777e-05
0.000230209
0.00174431
-4.74823e-05
0.000859366
0.004938
0.00418239
0.00110353
0.00465495
0.00442552
0.00160608
0.00423755
0.00422699
0.000839922
0.00472557
0.00439037
0.00314861
0.00486284
0.00321378
0.0017685
0.00522939
0.00407803
0.00185752
0.0055912
0.00421749
0.00252766
0.00527851
0.00304238
0.00293374
0.00512968
0.00295132
0.00239188
0.00584607
0.00316847
0.00287267
0.00486324
0.00233172
0.00317515
0.00574457
0.00159163
0.00296617
0.00573274
0.00158774
0.0036905
0.00523652
0.00118158
0.00276111
0.00633635
0.00135017
0.00302817
0.00550465
0.00144075
0.00325872
0.00493018
0.000795907
0.00348286
0.00438805
0.000211305
0.00289638
0.0039501
-1.99515e-06
0.003127
0.00487
0.000143139
0.00259499
0.00434587
0.000153962
0.00262159
0.0040761
-9.41116e-05
0.00298329
0.00381561
-0.000216679
0.00217431
0.00305525
-0.0005368
0.00105468
0.00267175
-0.000513895
0.00236721
0.00454643
0.000108177
0.00233683
0.00372209
-0.00012194
0.0021632
0.00332946
-0.00040399
0.00221742
0.00316625
-0.000424905
0.00166713
0.00274153
-0.000540126
0.000941272
0.00276914
-0.000768041
0.00031389
0.00342527
-0.00058225
0.00160944
0.00323352
-0.000351809
0.0015785
0.00281535
-0.000544908
0.0015476
0.00262604
-0.000520608
0.00144119
0.00257165
-0.00046069
0.000953939
0.0023143
-0.000495784
0.000780238
0.00237439
-0.000593054
0.000705803
0.00247858
-0.000606744
0.000144989
0.00306123
-0.000951833
0.00111944
0.00262523
-0.00039231
0.00102837
0.00238159
-0.000723347
0.00108148
0.00224758
-0.000584422
0.00100699
0.00225941
-0.000385868
0.000680355
0.00217437
-0.00042374
0.000541404
0.00203366
-0.000707639
0.000411173
0.00198308
-0.00100987
0.000132525
0.00324351
-0.00109026
0.000253349
0.00427373
-0.00108583
0.000634289
0.00246689
-0.000769457
0.000532723
0.00253714
-0.000685144
0.000462533
0.00313128
-0.000533336
0.000619615
0.00317785
-0.000409846
0.000507556
0.00299929
-0.000767797
0.000310953
0.0028474
-0.00103963
0.000178387
0.00352839
-0.00103368
0.000181677
0.00414068
-0.00100195
0.000274033
0.00464029
-0.00102834
0.000541051
0.00429068
-0.000804992
0.000259504
0.00322665
-0.000720936
0.000188355
0.00310244
-0.000645616
0.000272051
0.00331328
-0.000584403
0.000407027
0.00385031
-0.000692273
0.000327543
0.00353429
-0.000859988
0.00018803
0.00353095
-0.000866271
0.00029998
0.00395212
-0.000859905
0.000238801
0.00404447
-0.000853016
0.000347058
0.00417599
-0.000768506
0.000610674
0.00422128
-0.000715773
0.000829368
0.0042333
-0.000662625
0.000202606
0.00382792
-0.000482001
0.000156229
0.00394999
-0.000563171
7.79487e-05
0.00397006
-0.000532695
0.000370063
0.00414636
-0.000420561
0.000327295
0.00413861
-0.000467002
0.000151267
0.00360598
-0.00048457
0.000388733
0.0032003
-0.00048554
0.000369878
0.00356756
-0.00047716
0.000399992
0.00352349
-0.00042104
0.000588652
0.00318454
-0.000409606
0.000853817
0.00362516
-0.000365556
0.00090922
0.00393869
-0.000334511
1.43225e-05
0.00375111
-8.97771e-05
6.40672e-05
0.00328212
-7.0477e-05
0.000183348
0.00358646
2.82053e-05
0.000273628
0.00409214
5.60111e-05
0.000270546
0.00378086
2.48202e-05
0.000247153
0.00357928
-4.26913e-05
0.000284493
0.00277267
-0.000183665
0.000237109
0.0012116
-0.000211292
0.000295982
0.00113268
-0.000150516
0.000460157
0.00105284
-0.000162338
0.000643156
0.00172287
-6.25992e-05
0.000869841
0.00266952
-8.19855e-05
0.000757674
0.00343697
-0.000257639
-7.2495e-05
0.00255732
-6.01639e-05
3.67711e-05
0.00281607
-1.71279e-05
0.000162598
0.00340455
1.21094e-05
0.000270709
0.00390053
5.64454e-07
0.000260348
0.00352862
-5.3051e-05
0.000211827
0.00295885
-0.00015112
6.61634e-05
0.00154753
-0.000107148
8.82761e-05
0.000798189
-4.70645e-05
0.000213262
-0.000469604
-8.84932e-05
0.000284217
-0.000610373
-0.000131071
0.000421569
-0.000216558
-0.000150524
0.000566897
0.000912058
-0.000113383
0.000518612
0.00269193
-0.000121014
0.000473558
0.00199402
-0.000161453
-9.98809e-06
0.00234854
-4.49521e-05
4.19883e-05
0.0023831
-3.94729e-05
0.000112545
0.00232611
-2.73782e-05
0.000121786
0.00281396
-2.35103e-05
0.000135012
0.0027019
-3.09532e-05
0.000107944
0.00242987
-4.13327e-06
7.16534e-05
0.00232241
2.18291e-05
0.000103137
0.00181735
-1.99324e-06
0.000126389
0.000854729
-3.54427e-05
0.0001408
-0.000601898
-4.00704e-05
0.000173625
-0.00103406
-3.57096e-05
0.000222569
-0.00038586
-3.42259e-05
0.000251617
0.0010487
-3.88971e-05
0.000239246
0.00151905
-5.17598e-05
0.000221446
0.000923295
-5.41819e-05
0.000945463
0.00437394
0.00437537
0.001153
0.00474162
0.00434141
0.000720702
0.00485274
0.00437318
0.00124426
0.0046537
0.00446764
0.00086872
0.00464594
0.00455285
0.00236974
0.0046055
0.0042048
0.00144534
0.00478798
0.00448773
0.00109728
0.00593069
0.00455127
0.00211977
0.00515698
0.00366334
0.00268034
0.00486538
0.00383119
0.00185992
0.0056907
0.00451049
0.00348314
0.00526002
0.00431621
0.0029626
0.00538066
0.0030604
0.00273821
0.00524453
0.00336448
0.00281933
0.00575695
0.00318728
0.00300786
0.00566809
0.00313544
0.0023034
0.00561532
0.00261936
0.00320086
0.00608659
0.00181701
0.00318894
0.00596909
0.00142506
0.00337238
0.00569794
0.00123679
0.00306189
0.00473612
0.000990959
0.00321543
0.00605898
0.00138278
0.00274675
0.00559033
0.00111274
0.00294739
0.00512088
0.000924257
0.003436
0.00440944
0.000321801
0.00269058
0.00370566
-6.05274e-05
0.00112361
0.00334921
8.7536e-05
0.0030378
0.00453956
0.00069974
0.00259336
0.00419202
4.04566e-05
0.00252337
0.00402815
-0.000158257
0.00252911
0.00379388
-0.000384076
0.00181592
0.0032605
-0.000570727
0.000740095
0.00284015
-0.000504022
7.45358e-05
0.00325263
-0.00040409
0.00239646
0.00413256
3.3934e-05
0.00202456
0.00365663
-0.000272419
0.00196306
0.00311901
-0.000326943
0.00182716
0.00292191
-0.000545618
0.00125812
0.00265484
-0.000642397
0.000756836
0.00285514
-0.000602726
0.000356913
0.00356492
-0.000558794
-2.18034e-05
0.00380505
-0.000471484
0.00164617
0.00301367
-0.000362776
0.00153102
0.00259503
-0.000634133
0.00124992
0.00242114
-0.00050844
0.00119332
0.00223416
-0.000369433
0.000796822
0.00224691
-0.000509768
0.000506523
0.00246502
-0.00055154
0.000404496
0.00244216
-0.000549962
0.000110729
0.00322332
-0.000747041
0.000262059
0.00415602
-0.00100415
0.00106275
0.00227779
-0.000387086
0.00103228
0.00222138
-0.000731654
0.000799361
0.00184023
-0.000652825
0.0006961
0.00206272
-0.000464213
0.000530527
0.00223095
-0.000465419
0.000328776
0.00219117
-0.000599069
0.000173085
0.00214743
-0.00086669
0.000167936
0.00328405
-0.00103667
0.000321499
0.00416492
-0.00102892
0.000385935
0.00458588
-0.00082941
0.000608555
0.00202523
-0.000808313
0.000467335
0.00220584
-0.00071714
0.000309193
0.00299253
-0.000583537
0.000359333
0.0031888
-0.000496595
0.000434165
0.00315015
-0.000667328
0.00026773
0.00301486
-0.00101497
0.000110497
0.00367131
-0.000993073
0.000141023
0.00416956
-0.000964775
0.000310819
0.00468572
-0.00101114
0.000532764
0.00412921
-0.00078897
0.000780274
0.00401642
-0.00062716
0.00026571
0.00318911
-0.000736888
8.57132e-05
0.00308429
-0.000632264
0.000164219
0.00309901
-0.000517618
0.000408476
0.00382405
-0.00059656
0.000480484
0.00348076
-0.000791938
0.000150465
0.00352223
-0.000850461
0.000362323
0.00392991
-0.000817652
0.00029289
0.00409346
-0.000831908
0.000395305
0.00407469
-0.000747035
0.000627084
0.00412118
-0.000706842
0.00102279
0.00404356
-0.000694999
0.000846823
0.00370999
-0.000582991
0.000232212
0.00373654
-0.000573065
0.000169361
0.00395899
-0.000596298
0.000155837
0.00395017
-0.00051577
0.000193944
0.00415357
-0.000460219
0.000270655
0.0041593
-0.000441359
0.000223956
0.00364517
-0.000482992
0.000355656
0.003123
-0.000478433
0.000330687
0.00347316
-0.000484715
0.000373789
0.00338732
-0.000418793
0.000612406
0.00300988
-0.00039863
0.00087879
0.00336834
-0.000388423
0.000942507
0.00385013
-0.000349653
0.000964811
0.00351788
-0.000381822
2.45746e-05
0.00367118
-3.10341e-05
7.14292e-05
0.00322328
-6.55956e-05
0.000232787
0.00344858
-2.79326e-06
0.000323041
0.00403349
3.45323e-05
0.000300706
0.0038276
-3.10863e-05
0.000296342
0.00359967
-8.00855e-05
0.00032834
0.00266375
-0.000195953
0.000231464
0.00111963
-0.000234887
0.000295624
0.000988674
-0.000149647
0.000473362
0.000899574
-0.000186392
0.000660048
0.00147089
-0.000148835
0.000881944
0.00240471
-0.000112841
0.000813812
0.00331752
-0.000257734
0.000724665
0.00230854
-0.000266327
-5.25048e-05
0.00259738
-6.25049e-05
7.61367e-05
0.00274794
-2.61874e-05
0.000206468
0.00328081
1.2688e-05
0.00031171
0.00372899
-6.27472e-06
0.000281095
0.00343591
-5.28028e-05
0.000217522
0.00294478
-0.000148558
6.00892e-05
0.00152707
-0.000119088
0.00012183
0.000725278
-5.29299e-05
0.000216397
-0.000513194
-9.34822e-05
0.000278516
-0.000705326
-0.000131256
0.000428752
-0.000452177
-0.000150578
0.000553517
0.000550509
-0.000119923
0.00053755
0.00240983
-0.000117212
0.000480702
0.00179017
-0.000158619
0.000435148
0.000894548
-0.000155882
3.4725e-06
0.00235
-4.43085e-05
5.8988e-05
0.00231587
-3.67049e-05
0.000129731
0.00218343
-2.65175e-05
0.000135683
0.00267541
-2.45073e-05
0.000146483
0.00256618
-3.42729e-05
0.000113883
0.00228942
-4.38518e-06
8.20222e-05
0.00221537
2.08811e-05
0.000117853
0.00172473
-3.40496e-06
0.000124413
0.0007631
-3.47774e-05
0.000134957
-0.000731966
-4.03312e-05
0.000162361
-0.00120096
-3.55325e-05
0.000221291
-0.000607518
-3.5343e-05
0.00025741
0.000798065
-4.09967e-05
0.000247901
0.00128653
-5.42857e-05
0.000224885
0.000701724
-5.50749e-05
0.000201286
0.000192931
-6.12573e-05
0.00075147
0.00381744
0.00474772
0.00107865
0.00436605