/*--------------------------------*- C++ -*----------------------------------*\
  =========                 |
  \\      /  F ield         | OpenFOAM: The Open Source CFD Toolbox
   \\    /   O peration     | Website:  https://openfoam.org
    \\  /    A nd           | Version:  7
     \\/     M anipulation  |
\*---------------------------------------------------------------------------*/
FoamFile
{
    version     2.0;
    format      ascii;
    class       surfaceScalarField;
    location    "10";
    object      phi_0;
}
// * * * * * * * * * * * * * * * * * * * * * * * * * * * * * * * * * * * * * //

dimensions      [0 3 -1 0 0 0 0];

internalField   nonuniform List<scalar> 
53739
(
-8.37468e-05
0.00148083
-4.26852e-05
-0.000143669
0.00184103
1.23065e-05
-8.57681e-05
0.00157245
-4.30958e-05
-8.36428e-05
0.00201127
-4.84943e-05
-0.000149531
0.00364319
-8.48533e-05
-0.000178738
0.00185586
8.84649e-06
-0.000161767
0.00281955
2.1566e-05
-8.77488e-05
0.00166519
-4.31785e-05
-8.1275e-05
0.00209736
-4.79033e-05
-2.89409e-05
0.00296163
-3.20791e-05
-0.000109218
0.00410484
8.01517e-05
-0.000233888
0.00360979
-6.76357e-05
-0.000160668
0.00379708
-8.51311e-05
-0.000189503
0.00188488
4.33465e-06
-0.000151192
0.00288192
1.63914e-05
-2.72999e-05
0.00395633
9.58551e-06
-8.7489e-05
0.00175799
-4.38945e-05
-7.54668e-05
0.00217729
-4.76407e-05
-1.94928e-05
0.00296471
-3.14956e-05
-3.19458e-05
0.00343923
-1.87945e-05
-1.85973e-05
0.00384525
0.000121819
-0.000166099
0.00395924
1.80123e-05
-0.00010054
0.00385459
0.000113491
-0.000257348
0.00362735
-6.7632e-05
-0.000157391
0.0037899
-5.42583e-05
-3.62444e-05
0.00459969
-8.21525e-05
-0.000201312
0.00192181
1.63542e-06
-0.000139112
0.00293671
1.3188e-05
-1.74013e-05
0.00395662
1.40178e-05
-3.3463e-05
0.00427885
-1.66317e-06
-9.10784e-05
0.00185393
-4.32205e-05
-6.65246e-05
0.0022475
-4.75821e-05
-8.86228e-06
0.00295827
-3.23377e-05
-2.07922e-05
0.00344575
-1.72233e-05
4.06632e-06
0.00347153
-2.02624e-05
0.00031691
0.00404192
0.000622278
2.63203e-05
0.0036884
0.000213056
7.12771e-05
0.00346767
-4.72694e-05
-0.000225984
0.00394066
-1.53965e-05
-0.000118358
0.00375559
7.79831e-05
2.15898e-05
0.00478547
3.7785e-05
-0.000260371
0.00364419
-7.32037e-05
-0.000164073
0.00379432
-4.70976e-05
-4.61632e-05
0.00460272
-2.85269e-05
-3.46596e-05
0.00493941
-1.42863e-05
-0.000190143
0.00197093
-2.57334e-05
-0.00012107
0.00297194
2.09489e-05
-3.61895e-06
0.00395864
5.92279e-06
-3.39942e-05
0.00429975
6.31864e-06
-3.65949e-06
0.00387031
4.055e-05
-7.27841e-05
0.00193147
-4.52615e-05
-5.99634e-05
0.00231181
-4.75706e-05
-1.29974e-06
0.00294419
-3.21997e-05
-7.34747e-06
0.00343935
-1.85884e-05
2.17199e-05
0.00345115
-1.85644e-05
1.5928e-05
0.00327083
-3.90847e-06
0.000787442
0.00415742
0.000924056
0.000321208
0.00382073
0.000665805
0.000348012
0.00396145
0.000435442
1.81014e-05
0.00352413
0.000304875
9.39596e-05
0.00350672
-3.8319e-05
0.000231025
0.00426923
-0.000247943
-0.000226563
0.00392938
-6.51636e-06
-0.000134438
0.00366653
4.40293e-05
2.79349e-05
0.00473504
5.43135e-05
0.000110958
0.00482628
-6.52135e-05
-0.000230213
0.00366179
-8.85883e-05
-0.000154568
0.00379866
-4.40377e-05
-3.75782e-05
0.00461182
-2.22341e-05
-5.12787e-05
0.00489364
3.45274e-05
-2.09026e-05
0.00425529
0.00010095
-0.000192468
0.0020502
-3.54555e-05
-0.000103892
0.00299028
-1.46603e-07
9.60697e-06
0.00393912
2.95599e-05
-1.20608e-05
0.00430562
4.77026e-06
2.03914e-05
0.00386836
9.60409e-06
0.000108785
0.00322478
-1.42797e-05
-7.46846e-05
0.00201066
-4.4771e-05
-5.04816e-05
0.00236374
-4.67098e-05
1.31409e-05
0.00291605
-3.25691e-05
6.38335e-07
0.00342584
-1.93238e-05
3.55675e-05
0.00341704
-2.00471e-05
3.84035e-05
0.00321701
-3.14494e-06
4.3462e-05
0.00301267
2.16197e-05
0.0009521
0.00372436
0.00100742
0.000781437
0.00387744
0.000732101
0.000838752
0.00381827
0.000651994
0.000372156
0.00376565
0.000481277
0.00042649
0.00390842
0.000386295
0.000630141
0.00478355
-3.23272e-05
5.73958e-05
0.00340513
0.000255904
0.00017091
0.00356149
-5.52337e-05
0.000292093
0.00431934
-0.000352584
0.000442866
0.00458454
-0.000584298
-0.000184115
0.00393496
-2.73343e-05
-0.000105677
0.00361423
-3.1097e-06
6.58109e-05
0.00464681
2.88741e-05
0.000116807
0.00482184
-0.000109337
0.000171736
0.00382962
-0.000345049
-0.00023699
0.00369023
-9.37418e-05
-0.00013563
0.00379721
-5.54088e-05
1.47111e-05
0.00457585
-1.31739e-05
-7.28334e-05
0.00487224
5.99376e-05
4.2377e-05
0.00416631
0.000101519
0.000160094
0.00323188
0.000142593
-0.000184502
0.00212418
-3.86532e-05
-8.78729e-05
0.00299116
1.05642e-06
3.11381e-05
0.00391174
9.24036e-06
-5.33213e-06
0.00431951
2.16393e-05
6.72273e-05
0.00383637
5.095e-06
0.000141756
0.00318242
-5.13848e-05
7.88508e-05
0.00163837
-9.27411e-05
-6.79046e-05
0.00208188
-4.48721e-05
-4.37605e-05
0.00240836
-4.56246e-05
1.48396e-05
0.00288737
-3.28672e-05
1.88332e-05
0.00339406
-1.96261e-05
4.74666e-05
0.00337235
-2.21004e-05
5.16268e-05
0.00314861
-3.27361e-06
4.74131e-05
0.0029391
2.30091e-05
3.99502e-05
0.0021097
6.32496e-06
0.00140568
0.00400437
0.00123921
0.00116008
0.00394086
0.000503741
0.00129227
0.00419025
0.000471341
0.00085793
0.00373538
0.000372974
0.00100089
0.00378996
0.000186016
0.0013518
0.00457042
9.06278e-05
0.000475962
0.00377126
0.000121296
0.000585717
0.0038639
0.000110996
0.000782502
0.00478443
-0.000104986
0.000963117
0.00435258
-0.000753978
0.000129088
0.00337002
-2.35877e-05
0.000284399
0.00360863
-0.000181315
0.000415905
0.0043578
-0.000443784
0.000473929
0.00454033
-0.000665498
0.000376297
0.00322739
-0.000912493
-0.000137165
0.0038897
-2.11695e-05
-4.62164e-05
0.0035952
-9.77155e-05
0.000131156
0.00452462
2.62727e-06
7.34019e-05
0.0049178
-0.000213317
0.000297041
0.0038803
-0.000414683
0.000324896
0.00354195
-0.00051389
-0.000221802
0.0037235
-0.000106441
-0.000115141
0.0037954
-6.46562e-05
4.38909e-05
0.00452717
-1.94824e-05
6.29422e-06
0.00477911
6.83381e-05
6.2533e-05
0.00411008
0.000120863
0.000129103
0.00323422
0.000111835
0.000182731
0.00268075
-3.85948e-05
-0.000170299
0.00219758
-4.174e-05
-8.83684e-05
0.00299419
2.9308e-06
2.87085e-05
0.00387408
2.48479e-05
3.69025e-05
0.0043105
1.84116e-07
8.59881e-05
0.00382784
-8.34585e-06
0.000166341
0.00313858
-6.57773e-05
8.02661e-05
0.00164237
-8.82354e-05
5.29809e-05
0.00103959
-4.2616e-05
-5.16454e-05
0.00213731
-4.69449e-05
-3.42754e-05
0.00244274
-4.49764e-05
2.58463e-05
0.00284856
-3.26635e-05
3.00366e-05
0.00335125
-2.00988e-05
6.28188e-05
0.00331293
-2.30285e-05
5.96064e-05
0.00307126
-4.35576e-06
4.89809e-05
0.00286414
2.2704e-05
3.89774e-05
0.00208854
5.18625e-06
9.34117e-05
0.00133239
-2.93817e-05
0.00205752
0.00465506
0.000699184
0.00154288
0.00434194
0.000791969
0.00203113
0.0039976
0.000452669
0.00134611
0.00419047
5.11149e-05
0.00150802
0.00415916
2.77034e-05
0.00192411
0.00430165
3.60291e-05
0.00106089
0.00375996
-8.37503e-05
0.00118638
0.00370666
-0.000144391
0.00157341
0.0042957
-0.000330175
0.00166111
0.00463015
-0.000511745
0.00058392
0.00365768
-0.000329403
0.000744593
0.00374597
-0.000220971
0.000942587
0.00470483
-0.000336089
0.00109424
0.00442731
-0.000800027
0.000680851
0.00302357
-0.00112059
0.000205498
0.00338414
-0.000251268
0.000402785
0.00354022
-0.000404179
0.000557269
0.00433138
-0.00058101
0.00051732
0.00439581
-0.000743185
0.000409042
0.00336214
-0.000912249
0.000292838
0.00355281
-0.000952978
-6.75836e-05
0.00382112
-7.56272e-06
1.73282e-05
0.00359405
-0.000152495
0.000177068
0.00438902
-9.52884e-05
0.000186118
0.00493108
-0.000190482
0.000228563
0.00396678
-0.000465827
0.000307321
0.00349707
-0.000548021
0.000245947
0.00371929
-0.000570968
-0.000201519
0.00379504
-0.000119712
-9.43882e-05
0.00375709
-6.21193e-05
5.61509e-05
0.00443442
6.52196e-07
4.94587e-05
0.00468402
6.30473e-05
0.000246452
0.00392416
9.37925e-05
0.000164921
0.00326638
9.01244e-05
0.000196217
0.00274231
-6.56695e-05
0.000169167
0.00183472
-0.000139331
-0.000153258
0.00227777
-5.2459e-05
-6.71379e-05
0.00297642
8.88793e-06
3.98429e-05
0.00381163
5.13787e-05
5.90074e-05
0.00429259
1.37849e-05
0.000140465
0.00376647
-1.60941e-05
0.000151788
0.00311546
-7.74089e-05
8.00898e-05
0.00163397
-8.8494e-05
4.16494e-05
0.000993528
-4.4848e-05
0.000248724
-8.76888e-05
-4.80834e-05
-5.23098e-05
0.0021909
-4.50738e-05
-2.5168e-05
0.00246606
-4.51001e-05
3.85898e-05
0.00279752
-3.25319e-05
3.15804e-05
0.00330735
-2.03427e-05
7.71103e-05
0.00323837
-2.26397e-05
7.19342e-05
0.00298006
-3.76324e-06
5.53399e-05
0.00278123
2.32174e-05
4.48228e-05
0.00206341
3.00804e-06
0.000101177
0.0012663
-2.99081e-05
0.000174728
0.000114649
-4.22378e-05
0.00224344
0.00514348
0.00174865
0.00220294
0.00475841
0.00111774
0.00250024
0.00417982
0.00034619
0.00181958
0.00464301
0.000541321
0.00219282
0.00401847
8.63042e-05
0.00251281
0.00441896
0.00010633
0.00147906
0.00437175
-0.000382595
0.00163538
0.00403087
-0.000269588
0.00209542
0.00397655
-0.000169207
0.00227526
0.00421404
-0.000155344
0.00123901
0.0038519
-0.000354651
0.00131662
0.00351273
-0.000461842
0.00167938
0.00393326
-0.000518732
0.00175386
0.00409914
-0.000458783
0.00105207
0.00278438
-0.000781163
0.000670434
0.00356493
-0.000605747
0.000853358
0.00356811
-0.000602112
0.00110453
0.00449311
-0.000556512
0.00112968
0.00440272
-0.000923859
0.000627126
0.00307973
-0.00107428
0.000486452
0.00269308
-0.00117169
0.000293001
0.00339144
-0.000471617
0.000447979
0.0034944
-0.000636101
0.000656031
0.00412628
-0.000678041
0.000601704
0.00424691
-0.000847692
0.0003853
0.00338339
-0.000921168
0.000384346
0.00351371
-0.000950172
0.000221747
0.00386207
-0.00092437
1.69842e-05
0.00377106
-4.84381e-05
8.814e-05
0.00361638
-0.000212417
0.000225165
0.004218
-0.000150485
0.000303303
0.00482754
-0.000245587
0.000484981
0.00398191
-0.000444141
0.00027997
0.00347262
-0.00055643
0.000265404
0.00367097
-0.000568895
0.000211858
0.00394435
-0.000565179
-0.000163334
0.00385882
-0.000124016
-7.95622e-05
0.00370481
-5.50026e-05
0.000120614
0.00427306
1.8469e-05
0.000139159
0.00451304
9.14758e-05
0.000181858
0.00381349
0.000132323
0.000133096
0.0033332
4.56576e-05
0.000201182
0.00279611
-8.4768e-05
0.000196223
0.00176338
-0.000148902
0.000262503
0.00157573
-0.000105532
-0.000144268
0.00234777
-5.50686e-05
-5.57081e-05
0.00295207
2.43058e-06
5.74133e-05
0.00375539
4.63054e-05
6.61092e-05
0.00427592
3.35183e-05
0.000158127
0.00372289
-2.36519e-05
0.00022047
0.00304142
-9.05898e-05
8.01075e-05
0.00162288
-9.10867e-05
3.40725e-05
0.000963166
-4.73818e-05
0.000240776
-0.000205701
-6.64356e-05
0.000375483
-0.000184874
-0.000108538
-4.62975e-05
0.00223821
-4.48876e-05
-1.38527e-05
0.00247955
-4.47176e-05
5.29076e-05
0.00273071
-3.11887e-05
5.7094e-05
0.00323878
-2.10534e-05
9.05882e-05
0.00315009
-2.26605e-05
7.93404e-05
0.00288017
-2.09663e-06
6.37522e-05
0.00268808
2.56311e-05
5.26535e-05
0.00203227
1.70627e-06
0.000108118
0.00119151
-3.03135e-05
0.00017022
-4.47305e-05
-4.07491e-05
0.000186652
-0.000346668
-3.90131e-05
0.00244801
0.004789
0.0022744
0.00306811
0.00463791
0.00118576
0.00283657
0.00500436
0.00106174
0.00220766
0.00515574
0.000631368
0.00261213
0.00453568
0.000342566
0.00295032
0.00435959
0.000169043
0.00218006
0.00464642
0.000583477
0.00230999
0.00393227
-4.70978e-05
0.00258999
0.00408954
-7.88496e-05
0.002765
0.00402757
-0.000127855
0.00159503
0.00438422
-0.000543642
0.00173027
0.00369707
-0.000462449
0.00214377
0.00350147
-0.000258909
0.00228193
0.00365736
-0.000140597
0.00153843
0.00279426
-0.000457792
0.00132047
0.0037581
-0.000552944
0.00137219
0.00330098
-0.000661734
0.00166968
0.00340999
-0.000503717
0.00167941
0.00348215
-0.000451473
0.000984605
0.00248881
-0.000520686
0.000738663
0.00164761
-0.000950088
0.000704035
0.00344858
-0.000751295
0.000812747
0.00331699
-0.000719402
0.00115769
0.0041257
-0.000736358
0.0011421
0.00391243
-0.000606628
0.000519541
0.00311511
-0.00109348
0.000480359
0.00263681
-0.00111402
0.000131292
0.00339847
-0.00110201
0.000379849
0.00337182
-0.000606475
0.000409942
0.00345149
-0.00075051
0.000716896
0.00378041
-0.000781962
0.000667967
0.00405968
-0.000855478
0.000513829
0.00344624
-0.000939391
0.000234458
0.00357108
-0.000933032
0.000232476
0.00390057
-0.000955748
0.000235801
0.00412748
-0.000883712
3.23822e-05
0.00381017
-0.000189093
0.000120843
0.0036953
-0.000327762
0.000329195
0.00404447
-0.000247473
0.000438507
0.00464045
-0.000262742
0.00029481
0.00409285
-0.000469478
0.00024155
0.00345547
-0.000535447
0.000292604
0.00360002
-0.000576893
0.000276988
0.00383452
-0.000539826
0.000311348
0.00395066
-0.000469743
-0.000139224
0.003903
-0.000121566
-1.37069e-05
0.00358019
-4.13954e-05
0.000119297
0.00410392
5.22561e-05
0.000191203
0.00433694
6.94837e-05
0.000197859
0.00377217
9.30661e-05
0.000242066
0.00338109
6.28408e-05
0.000229658
0.002796
-0.000103791
0.000211599
0.00165617
-0.000155081
0.000286982
0.00148811
-0.000107488
0.000541033
0.00148551
-9.30393e-05
-0.00012443
0.00240615
-5.59629e-05
-3.56832e-05
0.00292431
-5.48031e-06
8.57247e-05
0.00368249
4.25135e-05
0.000139732
0.00422086
1.87234e-05
0.0001743
0.00370881
-3.6111e-05
0.000188724
0.00301593
-0.000107549
7.22578e-05
0.00161754
-9.37553e-05
4.44765e-05
0.000928997
-4.87407e-05
0.000233559
-0.0002997
-7.88235e-05
0.000358505
-0.0003141
-0.000125494
0.000405658
0.000431405
-0.000119909
-3.99527e-05
0.00228083
-4.57904e-05
3.07197e-06
0.00247522
-4.36252e-05
6.6116e-05
0.00264973
-2.98575e-05
7.74068e-05
0.00315026
-2.00717e-05
0.000105802
0.00304871
-2.54701e-05
8.72786e-05
0.00277177
-1.53288e-06
6.78366e-05
0.00259433
2.38154e-05
5.97835e-05
0.0019966
1.51854e-06
0.000115217
0.00110934
-3.13468e-05
0.000164065
-0.0001996
-3.9509e-05
0.000176409
-0.00052397
-3.98564e-05
0.000215802
0.000281722
-3.37065e-05
0.00196499
0.00440426
0.00370119
0.0022468
0.00483238
0.00312808
0.00359821
0.00472232
0.00162415
0.00269797
0.00538901
0.00178879
0.00244569
0.00496806
0.00196118
0.00287686
0.00512013
0.00080526
0.00333198
0.0048836
0.000727992
0.00262647
0.00536855
0.000101191
0.00257936
0.00468939
0.000208285
0.00306306
0.00411667
0.000112402
0.00335072
0.0040683
-0.000158363
0.00248795
0.00455016
0.000441541
0.00248385
0.00384067
-7.85093e-05
0.00261901
0.00366709
-9.98854e-05
0.00274283
0.00370933
-0.000221499
0.00210404
0.00287835
-0.000524946
0.00160095
0.00394165
-0.000353465
0.00171073
0.00330696
-0.000492077
0.00200216
0.00303172
-0.000325172
0.00211935
0.00308204
-0.000123532
0.0014419
0.0025282
-0.000331831
0.000921219
0.00238589
-0.000769437
0.00128874
0.00348175
-0.000557694
0.00128567
0.00297826
-0.000703137
0.00151235
0.00290305
-0.00050946
0.00152922
0.00288328
-0.000291964
0.000817392
0.00213812
-0.000398631
0.000687709
0.00173936
-0.000819787
0.000319625
0.00189643
-0.00113802
0.000726062
0.00321498
-0.000715215
0.000672329
0.00301179
-0.000708477
0.00104297
0.00369592
-0.0006157
0.00104199
0.0035924
-0.000790351
0.000747055
0.00299021
-0.000714951
0.000243949
0.00262378
-0.00108994
0.000185315
0.00343289
-0.00110128
7.8691e-05
0.00408895
-0.00102421
0.000319142
0.00332876
-0.000700336
0.000381521
0.00334308
-0.000758746
0.000667799
0.00346492
-0.000773629
0.000647721
0.00392065
-0.000852139
0.000374832
0.0034554
-0.000944658
0.000230229
0.00357005
-0.000927038
0.000302689
0.00386576
-0.000908311
0.000299603
0.00405815
-0.000909032
0.000270487
0.00430816
-0.00078281
3.10929e-05
0.00384279
-0.000272208
0.000177824
0.00372515
-0.000410479
0.000254864
0.00397252
-0.000391381
0.000480861
0.0044342
-0.00033089
0.000345539
0.00413416
-0.000451726
0.000215508
0.00352926
-0.000516711
0.000337447
0.0034905
-0.00053372
0.000245118
0.00375304
-0.000528926
0.000306587
0.00384737
-0.000456138
0.000678765
0.00347655
-0.000377921
-6.26558e-05
0.00388122
-0.00011211
1.76288e-05
0.00346244
-5.71308e-05
0.000260009
0.00381365
7.45865e-05
0.000217165
0.00419387
0.000117893
0.000205745
0.0037549
5.53058e-05
0.000221507
0.00343366
7.70815e-06
0.000257119
0.00281279
-0.000138804
0.000253524
0.00150444
-0.000161113
0.000313043
0.00136465
-0.000111103
0.000511968
0.00132367
-9.91192e-05
0.000682553
0.00237377
-3.38208e-05
-0.000107318
0.002456
-5.66292e-05
-5.56473e-06
0.00289297
-1.59806e-05
0.000127581
0.00358488
3.06643e-05
0.000187247
0.00414559
7.94962e-06
0.000215461
0.00366965
-5.1783e-05
0.000196307
0.00299481
-0.000124014
7.56485e-05
0.00159903
-9.68452e-05
5.66758e-05
0.00088642
-4.80708e-05
0.000231027
-0.000377594
-8.66565e-05
0.000335583
-0.000431656
-0.000132786
0.000398433
0.00022485
-0.000140962
0.000537404
0.00165479
-8.5685e-05
-2.98546e-05
0.0023134
-4.44904e-05
1.45683e-05
0.00245684
-4.19828e-05
8.00634e-05
0.00255582
-2.9784e-05
9.27585e-05
0.00304815
-2.05117e-05
0.00011637
0.00293864
-2.63701e-05
9.53526e-05
0.00265429
-3.34763e-06
6.88327e-05
0.00249977
2.42025e-05
7.94638e-05
0.0019433
-2.34586e-06
0.000122171
0.00102226
-3.35641e-05
0.000155999
-0.000347792
-3.91534e-05
0.000173176
-0.000697984
-3.86708e-05
0.000220946
5.63665e-05
-3.54467e-05
0.000234492
0.00153679
-3.52027e-05
0.00158782
0.00407189
0.00429572
0.00209997
0.00445869
0.00359149
0.000964806
0.00531116
0.00383463
0.00367197
0.00502411
0.00255427
0.00220531
0.00560687
0.00324301
0.00279923
0.00497121
0.00199583
0.00286318
0.00530528
0.00172157
0.00336919
0.00540503
0.00149225
0.00216174
0.00568177
0.00222023
0.00324873
0.00521705
0.00119489
0.00317794
0.00495512
0.00061886
0.00364032
0.00427796
0.000412198
0.00322694
0.00504017
0.000143237
0.0025211
0.004596
0.000157337
0.00284106
0.00401912
8.37922e-05
0.00317253
0.00391896
-0.000167967
0.00252688
0.00291992
-0.000529167
0.00249637
0.00451459
0.0003835
0.00233826
0.00384933
-0.000194648
0.00241192
0.00348108
-0.000302266
0.00254222
0.00341161
-0.000225037
0.00192594
0.00278382
-0.000611016
0.00105416
0.00260884
-0.000730535
0.00161387
0.00345486
-0.00031854
0.00167157
0.00300095
-0.000433362
0.00177064
0.00278831
-0.00050696
0.00179888
0.00277969
-0.000292491
0.00127991
0.00229117
-0.000349021
0.000936803
0.00240228
-0.000597322
0.000446578
0.0026904
-0.000818831
0.00126059
0.00303388
-0.000485786
0.00114364
0.0026012
-0.000651943
0.00126579
0.00250248
-0.000525388
0.00123795
0.00252289
-0.000345018
0.000750953
0.00218683
-0.000344575
0.000505378
0.00179981
-0.000720508
0.000493178
0.00185662
-0.00108784
5.24749e-05
0.00321167
-0.00113357
0.000670106
0.00288588
-0.0007431
0.00054736
0.00278703
-0.000656299
0.000847948
0.00331526
-0.000507962
0.00084112
0.00331374
-0.000530442
0.000582892
0.00287143
-0.000879626
0.000426512
0.00279403
-0.00108148
0.00025255
0.00345923
-0.00106613
0.000159042
0.00414801
-0.00101978
0.000173344
0.00464919
-0.00101552
0.000235815
0.00326666
-0.000719632
0.000307846
0.00321354
-0.000700819
0.000355426
0.00329728
-0.000691668
0.00055785
0.00384247
-0.000772443
0.000412364
0.00346237
-0.000925931
0.000201765
0.0035303
-0.000891171
0.000289564
0.00389168
-0.00090507
0.000228611
0.0040349
-0.000868552
0.000261741
0.00423671
-0.000792731
0.000694095
0.00429888
-0.000690629
0.000141696
0.00383872
-0.000377999
0.00013412
0.00386182
-0.000525364
0.000370905
0.00390595
-0.0004548
0.000406665
0.00426113
-0.000407807
0.000316724
0.00415635
-0.000464065
0.000230876
0.00355464
-0.000486469
0.000395626
0.00332486
-0.000489578
0.000299811
0.00366859
-0.000495564
0.000383534
0.00369178
-0.000443825
0.000597776
0.00333588
-0.000401278
0.000841359
0.00383732
-0.000334981
1.37467e-06
0.0038041
-0.000107648
5.80545e-05
0.00335817
-7.14599e-05
0.000127781
0.0037037
5.26258e-05
0.000258289
0.00412361
7.37971e-05
0.000245518
0.00376647
7.62653e-05
0.000188624
0.00350435
-7.69303e-06
0.000255963
0.00280645
-0.00016627
0.000281549
0.0013252
-0.000184441
0.000312672
0.00125622
-0.000134327
0.000481763
0.00119809
-0.000131698
0.00066464
0.00201995
-1.15129e-05
0.000828636
0.00290831
-0.000113306
-9.08681e-05
0.00251153
-5.87866e-05
1.04138e-05
0.00285529
-1.47931e-05
0.000142183
0.00349387
1.29131e-05
0.000233029
0.00403413
1.85516e-06
0.000238575
0.00360697
-5.1574e-05
0.000211619
0.00297361
-0.000146855
7.54395e-05
0.00157025
-0.000101841
7.76469e-05
0.000837495
-4.61032e-05
0.000217185
-0.000433196
-8.74832e-05
0.000301301
-0.000528473
-0.000135141
0.000402548
1.37653e-05
-0.000151074
0.000559603
0.00127355
-9.83848e-05
0.000493803
0.00294552
-0.000131058
-2.21642e-05
0.00233932
-4.47115e-05
2.75814e-05
0.0024246
-3.98264e-05
9.74371e-05
0.00244441
-2.80057e-05
0.000110625
0.00293009
-2.23479e-05
0.000126789
0.00282079
-2.94549e-05
9.96219e-05
0.002532
-3.69837e-06
6.85061e-05
0.00240464
2.32703e-05
8.9375e-05
0.0018803
-2.17274e-06
0.000125969
0.000929216
-3.52757e-05
0.000147618
-0.000489194
-3.97804e-05
0.000173482
-0.000873452
-3.7167e-05
0.000222406
-0.00017001
-3.47002e-05
0.00024525
0.00129431
-3.82152e-05
0.000231013
0.00174242
-4.83034e-05
0.000856284
0.00493522
0.00418399
0.00109823
0.0046644
0.00442858
0.00161747
0.00425487
0.00423029
0.000832087
0.00475395
0.00439261
0.00314781
0.00488192
0.00322345
0.00178301
0.00523845
0.00408651
0.0018703
0.00562411
0.00422914
0.00250398
0.00530039
0.00305772
0.00292641
0.00512178
0.00297614
0.00238453
0.00585701
0.00318261
0.00286489
0.00490111
0.0023263
0.00316956
0.00577321
0.00160707
0.00295676
0.00575171
0.00159607
0.003658
0.00525927
0.00118882
0.00277283
0.00633803
0.0013643
0.00301788
0.00550716
0.00143333
0.00324632
0.00494296
0.000801798
0.00347001
0.00439241
0.000206936
0.00287235
0.00394885
1.50846e-07
0.00311973
0.00486358
0.000156341
0.00258503
0.00433551
0.000156966
0.00261117
0.00407129
-9.40848e-05
0.0029621
0.00380447
-0.000221594
0.00214901
0.00306242
-0.00053353
0.00102908
0.00268051
-0.00050633
0.00236767
0.00452571
0.0001031
0.00232474
0.00370495
-0.00012529
0.00214686
0.00331492
-0.000404698
0.00219251
0.00314946
-0.000433747
0.00164382
0.0027357
-0.000540828
0.000927136
0.00277032
-0.000762823
0.00030563
0.00343248
-0.000571044
0.00161445
0.00321718
-0.000350902
0.00157263
0.0028009
-0.00054748
0.00153114
0.00260767
-0.000518072
0.00142194
0.00255278
-0.00046404
0.000939083
0.00230968
-0.000499135
0.000767009
0.00238047
-0.000588842
0.000699653
0.00248277
-0.000596166
0.000136636
0.00306942
-0.000939962
0.00111427
0.00258713
-0.000388516
0.00102489
0.00236143
-0.000723549
0.00106552
0.0022198
-0.000586832
0.00098867
0.00223787
-0.00038792
0.000672505
0.00217461
-0.000422408
0.000538034
0.00204263
-0.000698921
0.000403069
0.00198425
-0.000998651
0.000133462
0.00323518
-0.00108576
0.000253694
0.00426105
-0.00108256
0.000633821
0.00242888
-0.000768539
0.000530712
0.00250587
-0.000684805
0.000441583
0.00310639
-0.000533584
0.000604113
0.00316287
-0.000403346
0.000501846
0.00300582
-0.000754324
0.000307498
0.00284415
-0.00103548
0.000174088
0.00352427
-0.00103105
0.000179086
0.00413154
-0.00100014
0.000275392
0.00464466
-0.00102889
0.000529101
0.00429282
-0.00080553
0.00026437
0.00321463
-0.00072136
0.000178845
0.00309173
-0.000642545
0.0002613
0.00328199
-0.000575922
0.000397396
0.00384275
-0.000682679
0.000326373
0.00353324
-0.000852967
0.000182474
0.00351996
-0.000867188
0.000300863
0.00395266
-0.000857388
0.000239576
0.00404467
-0.00085461
0.000348518
0.00417356
-0.000770394
0.000599471
0.00422174
-0.000717289
0.000838093
0.0042311
-0.000663144
0.000207445
0.00381008
-0.000492365
0.000159754
0.00394938
-0.000567264
7.91809e-05
0.00396602
-0.000536837
0.00036081
0.00412852
-0.000424708
0.000326184
0.00413777
-0.000469892
0.00014924
0.00361791
-0.000487947
0.000385208
0.00319726
-0.000488109
0.000370357
0.00357081
-0.000480605
0.000394973
0.00353751
-0.000423591
0.000586347
0.00320048
-0.000413003
0.000852237
0.00362117
-0.000372723
0.000904402
0.00395113
-0.000336755
1.39532e-05
0.00373208
-8.28681e-05
6.18995e-05
0.00326959
-7.05509e-05
0.000186915
0.00356438
2.31217e-05
0.000272693
0.00408503
5.15486e-05
0.000271559
0.00378913
1.81553e-05
0.000248957
0.00359205
-4.87726e-05
0.00028707
0.00277398
-0.000186852
0.000234333
0.00121721
-0.000214961
0.000292492
0.00114889
-0.000152419
0.000459292
0.0010699
-0.000164126
0.000641487
0.00171953
-7.02114e-05
0.000868376
0.00267159
-8.35592e-05
0.000761011
0.00344375
-0.000256768
-7.08134e-05
0.00255764
-6.00806e-05
4.07637e-05
0.00280132
-1.80006e-05
0.0001662
0.00339741
1.29024e-05
0.000275243
0.00388216
2.6381e-07
0.000260625
0.00352717
-5.21796e-05
0.000210492
0.00296273
-0.00015156
6.46153e-05
0.00153638
-0.000109099
8.91131e-05
0.000783049
-4.71321e-05
0.000212188
-0.000477449
-8.80693e-05
0.000283162
-0.000620536
-0.000130964
0.000420842
-0.000218925
-0.000149811
0.000566069
0.000892608
-0.000113793
0.000520835
0.00269099
-0.00011944
0.000473281
0.00199574
-0.000160682
-8.86815e-06
0.00235334
-4.42854e-05
4.34912e-05
0.00237447
-3.8078e-05
0.000114549
0.00231645
-2.64186e-05
0.000123325
0.00280263
-2.38654e-05
0.000135348
0.00269497
-3.18742e-05
0.00010804
0.00239905
-4.55155e-06
7.17564e-05
0.00230777
2.14174e-05
0.000104092
0.00180207
-2.59411e-06
0.000125692
0.00083658
-3.52292e-05
0.000140158
-0.00062458
-4.00475e-05
0.000173241
-0.00105061
-3.58645e-05
0.00022269
-0.000395474
-3.43923e-05
0.000251647
0.00104694
-3.89764e-05
0.000239718
0.00151679
-5.23018e-05
0.000221798
0.000913406
-5.42458e-05
0.000940705
0.00438216
0.00437625
0.00114494
0.00474539
0.00434379
0.000717018
0.00485828
0.00437293
0.0012482
0.00466896
0.00447415
0.000859055
0.00465894
0.00455661
0.00234567
0.00464028
0.00422339
0.00145702
0.00481264
0.00449759
0.00112363
0.0059445
0.00455973
0.00208707
0.00517457
0.00368668
0.00265955
0.00487674
0.00385202
0.00188089
0.00570159
0.00451267
0.00345838
0.00527948
0.00433373
0.00293589
0.00539202
0.00309332
0.00273248
0.00523129
0.00338529
0.00280825
0.00577767
0.00320399
0.00298255
0.00567077
0.00315627
0.00231171
0.00565749
0.00261514
0.00317495
0.00611701
0.00182542
0.00318102
0.00598807
0.001436
0.00335629
0.00571747
0.0012516
0.00300616
0.00474359
0.00101727
0.0032104
0.00605517
0.0013978
0.0027499
0.00559423
0.00111237
0.00294123
0.00512402
0.000922208
0.00342073
0.00440722
0.00032836
0.00266925
0.00368902
-5.34689e-05
0.00107052
0.00336707
0.000104363
0.00303226
0.00452938
0.000704816
0.00258062
0.0041913
4.46642e-05
0.00251355
0.00401924
-0.000157679
0.0025024
0.00378307
-0.00038258
0.00178796
0.00326362
-0.000566932
0.000718503
0.00284885
-0.000493237
5.91677e-05
0.00326575
-0.000393603
0.00240024
0.00410319
2.43247e-05
0.00200894
0.00364459
-0.000272844
0.00194457
0.00310424
-0.000328035
0.00180237
0.00291117
-0.00054683
0.00123443
0.0026483
-0.000641701
0.000735125
0.00285732
-0.000595946
0.000341301
0.00357938
-0.000551376
-3.73608e-05
0.00381966
-0.000456439
0.00165019
0.00299663
-0.000364478
0.00152664
0.00258269
-0.000634446
0.00122879
0.00240637
-0.000509446
0.0011722
0.00221747
-0.000366292
0.00078388
0.00224198
-0.000507715
0.000491788
0.00247479
-0.000547207
0.000393047
0.00244519
-0.000541245
0.000108742
0.00323105
-0.000733081
0.000261906
0.00415814
-0.000994959
0.00106045
0.00224697
-0.000385409
0.00102677
0.0022051
-0.000728241
0.00078059
0.00181411
-0.00065687
0.000677724
0.00204277
-0.000465343
0.000518437
0.00223379
-0.000463692
0.000318602
0.00220013
-0.00059101
0.00016333
0.00214878
-0.000852695
0.00016657
0.00327972
-0.00103068
0.000322753
0.0041528
-0.00102487
0.000381973
0.00458002
-0.000829487
0.000609515
0.00198981
-0.000807825
0.000462721
0.00217094
-0.000717479
0.000303633
0.00296367
-0.000584425
0.000346293
0.00317901
-0.000498621
0.000430577
0.00315604
-0.000657764
0.000261285
0.00302197
-0.00101095
0.00010809
0.0036721
-0.000990538
0.000134201
0.00416722
-0.000961356
0.000311376
0.00469037
-0.00100871
0.000526687
0.00412636
-0.000789653
0.00078609
0.00401199
-0.000621155
0.00026919
0.00317546
-0.000737764
8.45885e-05
0.00307781
-0.000632272
0.000157972
0.00307417
-0.000513516
0.000396731
0.00381949
-0.000588583
0.000476329
0.00348796
-0.000787547
0.000147174
0.00351919
-0.000850133
0.000360792
0.00392731
-0.000817423
0.000293456
0.00409643
-0.000832243
0.000392034
0.00407182
-0.000749924
0.00062596
0.0041194
-0.000707659
0.00103192
0.00402876
-0.000694629
0.000840559
0.00371108
-0.000584079
0.000232114
0.00371356
-0.00058142
0.000168186
0.00394962
-0.000598884
0.000159529
0.00394323
-0.000517087
0.000179698
0.00414944
-0.000464763
0.000269961
0.00415764
-0.000442983
0.000228249
0.00365525
-0.000486532
0.000353915
0.00312333
-0.000480868
0.000328658
0.00347618
-0.0004878
0.00036861
0.00340292
-0.000422135
0.000613428
0.00302311
-0.000400367
0.000879571
0.0033626
-0.000392513
0.000936684
0.00386171
-0.000351611
0.000969863
0.00350454
-0.000382829
2.45574e-05
0.00365138
-2.29395e-05
7.50051e-05
0.00321702
-6.45407e-05
0.000234579
0.00343287
-7.41412e-06
0.00032665
0.00402367
3.30747e-05
0.000299624
0.00383513
-3.34488e-05
0.0002953
0.00361167
-8.62806e-05
0.000330591
0.00265904
-0.000199807
0.00023231
0.00112472
-0.00023756
0.000295009
0.0010021
-0.000150987
0.000472969
0.000915455
-0.000187785
0.000661718
0.00147348
-0.000158955
0.000877603
0.00240822
-0.000118378
0.000817988
0.00332169
-0.000258654
0.000723401
0.00230237
-0.000266613
-5.08017e-05
0.00259832
-6.31071e-05
8.08814e-05
0.00273604
-3.21973e-05
0.000211717
0.00327148
1.07645e-05
0.000314342
0.00371041
-6.36574e-06
0.000282303
0.00343161
-5.11303e-05
0.000220457
0.00294643
-0.0001483
6.01448e-05
0.00151706
-0.000120624
0.000122827
0.000708431
-5.32169e-05
0.000215385
-0.000521462
-9.28116e-05
0.00027766
-0.000715109
-0.000130999
0.000428489
-0.000454535
-0.000150601
0.000549753
0.000536397
-0.000120663
0.000538781
0.0024076
-0.000117541
0.000480835
0.00179225
-0.000157061
0.000434805
0.000891634
-0.000155419
3.52801e-06
0.00235473
-4.37544e-05
6.08075e-05
0.00230463
-3.52476e-05
0.000130243
0.00217337
-2.52357e-05
0.000137836
0.00266284
-2.44669e-05
0.000146922
0.00255974
-3.5561e-05
0.000113587
0.00225831
-4.71246e-06
8.29775e-05
0.0021997
2.05368e-05
0.000118054
0.00170908
-3.64512e-06
0.000123385
0.00074504
-3.44389e-05
0.000134373
-0.000753958
-4.0224e-05
0.000162102
-0.0012171
-3.5654e-05
0.000221237
-0.000617008
-3.55671e-05
0.000257445
0.000796078
-4.09798e-05
0.000247625
0.00128462
-5.44326e-05
0.000224853
0.000691408
-5.51571e-05
0.000201602
0.000182307
-6.1215e-05
0.000745651
0.00382564