/*--------------------------------*- C++ -*----------------------------------*\
  =========                 |
  \\      /  F ield         | OpenFOAM: The Open Source CFD Toolbox
   \\    /   O peration     | Website:  https://openfoam.org
    \\  /    A nd           | Version:  7
     \\/     M anipulation  |
\*---------------------------------------------------------------------------*/
FoamFile
{
    version     2.0;
    format      ascii;
    class       volScalarField;
    location    "3";
    object      nut;
}
// * * * * * * * * * * * * * * * * * * * * * * * * * * * * * * * * * * * * * //

dimensions      [0 2 -1 0 0 0 0];

internalField   nonuniform List<scalar> 
18870
(
0.000126579
0.000152384
0.000217572
0.000137562
0.000338749
8.63731e-05
0.000224898
0.000217541
6.53656e-05
6.27894e-05
0.000291241
0.000272595
0.000566204
7.38417e-05
0.000279417
0.000218204
0.000248677
0.000119676
6.1505e-05
0.000268731
0.000463886
0.000305752
0.000598418
0.000380962
0.000537263
0.000505813
0.000126041
0.000153415
0.000170477
0.000242848
0.000198677
0.000116758
0.000121983
0.000160685
0.000589163
0.000632989
0.000502627
0.000223233
0.000433992
0.000496058
0.000656532
0.000288703
0.000752683
0.000661868
0.000458178
0.000194553
0.000209537
0.000195128
0.000316915
0.000184491
0.000153552
7.05903e-05
3.42415e-05
0.000123464
0.000133682
7.87058e-05
0.00047158
0.000293666
0.000376633
0.000596711
0.000420793
0.000401313
0.000466193
0.000508997
0.000641924
0.000408685
0.000418833
0.000455784
0.00042086
0.00049154
0.000474948
0.000296501
0.000253963
0.000205472
0.000283736
0.000257254
0.00028075
0.000145709
0.000139977
4.53199e-05
0.000134938
0.000113675
0.000102998
0.000166192
0.000423514
0.00055066
0.000282941
0.000441829
0.000334638
0.000242673
0.000697919
0.000131238
0.000349328
0.000447188
0.00041878
0.000325136
0.000570694
0.000452832
0.000579459
0.000347727
0.000537673
0.000428872
0.00064977
0.00053253
0.000419107
0.000191854
0.000277675
0.000235373
0.0011879
0.000189454
0.000294062
0.000268507
0.000166224
5.80494e-05
0.000134157
0.000310505
0.00014112
0.000209063
0.000187048
0.000239879
0.000260344
0.000552814
0.000475518
0.000187415
0.00016141
0.000514002
0.000235946
0.00030732
0.000318213
0.000627146
0.000598681
0.000341893
0.000414742
0.000397632
0.000496719
0.000582047
0.000375175
0.000427478
0.000547701
0.000521767
0.000195549
0.000321176
0.000501376
0.000602882
0.000598787
0.000553754
0.000457985
0.000495177
0.00017313
0.000395693
0.000282318
0.000387897
0.000222027
0.000299561
0.000271602
0.000165464
0.000109816
2.97204e-05
0.000129054
0.000110942
0.000205838
0.000309975
0.00017348
0.000206079
0.000587702
0.000430205
0.000225189
0.000529364
0.000268703
0.000465602
0.000324078
0.000541739
0.000336466
0.000227315
0.000508565
0.000159775
0.000217622
0.000368294
0.000243912
0.000500608
0.000657405
0.000441378
0.00053459
0.000274319
0.00031789
0.000812853
0.000358548
0.000627394
0.000387952
0.000618854
0.000461931
0.000237461
0.000578877
0.000333571
0.000415319
0.00067856
0.000583875
0.000551862
0.000463882
0.000413124
0.000644982
0.000211333
0.000125385
0.000251421
0.000378352
0.000263878
0.000321071
0.000338024
0.00028331
0.000498029
5.5098e-05
4.97589e-05
2.58647e-05
0.000103488
7.40782e-05
0.000118235
0.000160285
0.000207317
0.000482514
4.48077e-05
0.000645065
0.000817218
0.00040423
0.000497742
0.000399931
0.000576044
0.000280345
0.000189061
0.000379898
0.000283183
0.000366447
0.000123504
0.000357872
0.000375285
0.000459128
0.000220496
0.000335449
0.000371943
0.000544669
0.000329437
0.000220969
0.000617718
0.00024081
0.000332344
0.000292396
0.000484484
0.00081658
0.000635064
0.000605619
0.000365275
0.000522902
0.000595836
0.000503296
0.000422429
0.000657072
0.000862392
0.000358584
0.000532776
0.000622467
0.000633947
0.000552602
0.000536572
0.000589394
0.000761229
0.000347966
0.000290023
0.000222616
0.000175046
0.000503833
0.000208639
0.000305138
0.000308095
0.00024586
0.000633493
0.000358485
0.000144405
0.000180912
7.57376e-05
8.45407e-05
9.04023e-05
0.000105942
0.000174073
0.000277839
0.000261975
4.30773e-05
0.000274075
0.000575797
0.000720818
0.000352047
0.000563103
0.000682802
0.000382778
0.000334926
0.000508589
0.000500578
0.000645777
0.000589447
0.000337798
0.000552302
0.000640974
0.000427513
0.000436387
0.000241028
0.000329828
0.000448217
0.000372812
0.000567051
0.000367979
0.000225276
0.000286579
0.000260962
0.00019094
0.000330803
0.000406706
0.000636688
0.000727035
0.000444388
0.000215098
0.00053079
0.000553218
0.000328914
0.000507648
0.000455097
0.000586919
0.000522218
0.000670915
0.000513572
0.000438831
0.00036114
0.000437295
0.000605694
0.000346497
0.000447607
0.000678197
0.000583226
0.000550862
0.000535127
0.000655468
0.000720753
0.000463096
0.000348119
0.000322313
0.000225872
0.000272428
0.000225731
0.000221414
0.000312288
0.000298482
0.000277732
0.000405917
0.000354129
0.000255459
8.79813e-05
5.70914e-05
0.000170032
0.000242899
0.000366148
0.000149457
0.000169607
0.000294673
0.000184284
4.40499e-05
0.000221559
0.000308824
0.000611597
0.000732518
0.000673282
0.000744721
0.000734963
0.000499259
0.0002912
0.00076962
0.000420822
0.00030572
0.00037589
0.000491999
0.000362745
0.000532177
0.00051794
0.000475307
0.000348474
0.000310999
0.000473033
0.000444525
0.000428132
0.000343362
0.000231507
0.000284674
0.000942904
0.000273892
0.000733286
0.000371699
0.000420647
0.000349271
0.000258328
0.000471246
0.00015008
0.000193435
0.000293598
0.000489991
0.000517529
0.00109252
0.000748851
0.000607711
0.000300246
0.000521738
0.000786363
0.000768625
0.000575964
0.000333653
0.000733848
0.000561984
0.00059556
0.000546758
0.000240861
0.000345232
0.000476897
0.000338764
0.000434534
0.000349549
0.000426133
0.000649263
0.000570626
0.000584259
0.000610213
0.000316305
0.000751763
0.000503212
0.000396552
0.000490518
0.000229076
0.000160585
0.000415183
0.000216693
0.000186358
0.000230183
0.000370717
0.000403757
0.000241876
0.000354333
0.000257472
0.000264969
0.000124209
6.17676e-05
0.000194559
9.90601e-05
0.000585151
0.000117478
0.000182153
0.000266699
0.000339593
0.000128044
0.000125269
0.000141343
0.000211493
0.000512431
0.00049778
0.000493447
0.000435385
0.000679853
0.00113906
0.000569297
0.000800888
0.000918927
0.000510026
0.000254407
0.000417181
0.000419801
0.00065134
0.000455463
0.000585522
0.000583617
0.000467356
0.000591861
0.000685825
0.000508247
0.000741448
0.000528528
0.000324975
0.00039796
0.000981054
0.000629549
0.000558309
0.000456359
0.000500164
0.000487494
0.000522314
0.000362739
0.000332932
0.000336665
0.000590224
0.000420868
0.000331458
0.00025023
0.000331459
0.000220766
0.000240007
0.000212182
0.000377032
0.000297795
0.000586051
0.000834615
0.000464282
0.000530788
0.000628487
0.000626236
0.000951146
0.000589886
0.000569803
0.000595467
0.000400291
0.000746444
0.00077195
0.000557897
0.000508602
0.000314293
0.00051814
0.000709326
0.000462068
0.000326978
0.000452281
0.000291045
0.000364869
0.00063534
0.000560329
0.000587191
0.000682816
0.000427226
0.000836154
0.000430886
0.000422864
0.000454614
0.000364547
0.00023896
0.000116379
0.000133503
0.000189115
0.000183869
0.000206466
0.000422781
0.000610976
0.000350554
0.000342657
0.000253857
0.000233383
0.00053541
0.000109543
0.000397429
6.57011e-05
9.17465e-05
0.000129254
0.000112592
0.000174347
0.000263595
0.000435078
7.71047e-05
0.000121868
0.00010038
0.000127491
0.000133056
0.000328723
0.000472113
0.000454345
0.000134146
0.000461303
0.000408839
0.0007929
0.000675242
0.000768651
0.000476473
0.000578348
0.000557466
0.000372586
0.000478466
0.000283668
0.000573212
0.000321399
0.000551341
0.000725745
0.000668913
0.000719304
0.000694575
0.000750017
0.000495749
0.000772368
0.000595841
0.000830588
0.000555064
0.00051233
0.000265311
0.00050794
0.000507272
0.000254287
0.000433857
0.000503644
0.000795313
0.00057765
0.000374494
0.000510225
0.000681008
0.000396232
0.000463779
0.000365813
0.000275821
0.000421162
0.000407324
0.000232231
0.000227378
0.000103398
0.000457995
0.000384427
0.000466388
0.000495666
0.000359828
0.000855324
0.000264404
0.000698719
0.000651365
0.000461952
0.000477349
0.000670057
0.00061541
0.000658502
0.000546359
0.000811751
0.000758076
0.000540435
0.000580826
0.000796948
0.000553273
0.000564129
0.000590979
0.000413716
0.00077384
0.000740265
0.000267902
0.000454032
0.000279165
0.000287806
0.000476529
0.00064159
0.000524424
0.000600826
0.000620627
0.000197887
0.00124007
0.000425266
0.000419773
0.000452496
0.000379683
0.000370837
0.00051858
0.000420364
0.000250323
0.000361529
0.000150192
0.00034667
0.00044019
0.000686815
0.000385966
0.000382976
0.00028002
0.000282721
0.000344544
0.000469772
0.000134244
0.000249465
2.82357e-05
0.000306355
0.000105138
9.30924e-05
0.000157494
0.000396497
0.000443757
6.74371e-05
0.000142901
0.000161744
0.000227378
0.000148088
0.000635095
0.000506266
0.000333931
0.000446157
0.000584755
0.000483428
0.000367622
0.000388321
0.00056977
0.000455432
0.000485855
0.000757239
0.000829996
0.000551816
0.00047071
0.000485952
0.000576
0.000405155
0.000428538
0.000597069
0.000418672
0.000699059
0.000718938
0.000729574
0.000570247
0.000867763
0.000850276
0.000562977
0.000684416
0.000292573
0.000716686
0.000842396
0.000914152
0.00078948
0.000574024
0.00058351
0.000514584
0.000430708
0.000375156
0.000423178
0.000287165
0.000874167
0.000382093
0.000801717
0.00070407
0.000275536
0.000622911
0.000522207
0.000478206
0.000801816
0.000446022
0.000441964
0.000722143
0.000464973
0.000432699
0.000554405
0.000370324
0.000226846
0.000125817
0.00029825
0.000296898
0.000406125
0.000610085
0.000596177
0.000506285
0.000363611
0.00186216
0.000171094
0.000927843
0.000700775
0.00047289
0.000400924
0.000796383
0.000698066
0.000611736
0.000688429
0.00103018
0.000445677
0.000626131
0.00049812
0.00061827
0.00094927
0.00044609
0.000455359
0.000419278
0.00055046
0.00113882
0.000496017
0.000311649
0.00041077
0.00031893
0.000373604
0.000157558
8.79786e-05
0.000563631
0.000518699
0.000625028
0.000603324
0.000323801
0.00129426
0.000501736
0.000414268
0.000519363
0.000459525
0.000432409
0.000443999
0.000238984
0.000212865
0.000108646
0.000174148
0.000200652
0.000384142
0.000475191
0.000914007
0.000367163
0.000345682
0.00028255
0.000317756
0.00050621
0.000281641
0.000546679
0.000266343
0.000108075
8.14114e-05
0.000395697
0.000263955
5.66345e-05
0.000140354
0.00060398
0.000297286
6.97191e-05
0.000183534
9.79396e-05
0.000179338
0.000135935
0.000620044
0.000213789
0.000602371
0.000293556
0.000372803
0.00025413
0.000374777
0.000379333
0.000795638
0.000446758
0.000441074
0.000601636
0.000541855
0.000483685
0.000536891
0.000647736
0.000480507
0.000299663
0.000494988
0.000606467
0.000596973
0.000483221
0.000393161
0.000479717
0.000370354
0.000628791
0.000561673
0.000621017
0.000752237
0.000568295
0.000791562
0.000875762
0.000769908
0.000805171
0.000677421
0.000770933
0.000847432
0.000826083
0.000601034
0.000459451
0.000880126
0.000632743
0.000411585
0.000825686
0.000914252
0.000716124
0.000659859
0.000572535
0.000457563
0.000406338
0.000366095
0.00136077
0.000594691
0.00073924
0.00068979
0.000451347
0.000713568
0.000707561
0.000471333
0.000527055
0.000362739
0.000382542
0.000441099
0.000572702
0.000477367
0.00043002
0.000398668
0.000376611
0.000367829
0.000216215
0.000271754
0.000644632
0.000516026
0.000409718
0.000467132
0.000363784
0.000344274
0.00066713
0.00036176
0.000477039
0.000114249
0.000886663
0.00073907
0.000518705
0.000242355
0.000732845
0.000786833
0.000481727
0.000556541
0.000545177
0.000564158
0.000355
0.000339096
0.000581871
0.000518128
0.000772635
0.000526422
0.000607227
0.00039544
0.000601894
0.000632986
0.000576632
0.0002667
0.000524084
0.000401981
0.000329537
0.00032059
0.0001922
0.00022183
0.000490754
0.000474086
0.000569829
0.000593308
0.00033411
0.000458256
0.000401252
0.000436025
0.000507091
0.00040446
0.000450452
0.000388392
0.000295829
0.00037812
0.000246726
0.000136435
0.000141548
0.00018826
0.000341503
0.00050123
0.000768064
0.000418387
0.000403219
0.000288707
0.000309124
0.000398114
0.000254898
0.000604849
0.000748706
7.60802e-05
8.9915e-05
0.000219458
8.51303e-05
0.000201641
0.000105322
0.00013292
0.000606007
0.000177436
8.27753e-05
9.77447e-05
0.000103553
0.000114557
0.000214639
0.000358406
0.000370665
0.000186323
0.000375665
0.00043947
0.000359184
0.000298184
0.00040902
0.000422943
0.000289442
0.000471664
0.000373129
0.000404328
0.00036682
0.000311369
0.000315326
0.000454069
0.000420755
0.000460073
0.000457091
0.000483596
0.000426593
0.000355914
0.000468576
0.00046481
0.000465179
0.000509576
0.000498071
0.000544026
0.000463197
0.000439231
0.000880404
0.000597208
0.000481429
0.000585273
0.000637661
0.000371177
0.000785894
0.000964278
0.000666764
0.00057735
0.00107904
0.000998644
0.00093441
0.00107689
0.000826775
0.000437549
0.000789448
0.00059893
0.00054988
0.000348423
0.000564115
0.000433463
0.000869247
0.000694885
0.000547389
0.000483746
0.000431942
0.000455507
0.000425826
0.00044579
0.000515101
0.000329891
0.00061382
0.000798435
0.000394291
0.0010069
0.000477332
0.000493047
0.000508564
0.000679817
0.000681896
0.000470383
0.000445879
0.000481401
0.000221671
0.000607789
0.000296678
0.000383534
0.000617259
0.000487835
0.000417291
0.000327787
0.000688841
0.000629732
0.00053661
0.00043369
0.000510241
0.000618365
0.000509935
0.000573123
0.000635925
0.000454246
0.00028075
0.000226475
0.000722091
0.0010368
0.000706098
0.000817037
0.00052059
0.000784442
0.000544145
0.00062017
0.000435314
0.000922822
0.00029965
0.000272335
0.000166669
0.000643233
0.000315124
0.000881201
0.000576467
0.000552266
0.000382773
0.000611611
0.000489011
0.00070879
0.000406591
0.000555092
0.000382738
0.000263844
0.000270366
0.00102935
0.000487058
0.000594979
0.000506887
0.000526301
0.000556662
0.000659789
0.000382738
0.000318746
0.000367052
0.000421718
0.000377393
0.000608567
0.000311867
0.000363644
0.0002298
0.000203942
0.00041811
0.000398574
9.09154e-05
0.000161124
0.000197744
0.00023542
0.000523779
0.00030591
0.00026953
0.000353011
0.000229899
0.000223415
0.000379251
0.00031613
0.000293187
0.000627779
0.000297039
8.65987e-05
0.000201345
0.00024227
7.96217e-05
0.000100088
9.30327e-05
0.000167767
0.000260393
0.000251259
8.68088e-05
9.54452e-05
0.000162943
0.000273022
0.00018907
0.00029249
0.000191802
0.000176375
0.000153891
0.00033794
0.000330852
0.000342359
0.000459374
0.000383671
0.000643477
0.00034874
0.000362337
0.000337639
0.000684684
0.000474643
0.000534605
0.000383279
0.000510461
0.000486807
0.000617931
0.000430786
0.000480139
0.000449741
0.000458141
0.000372455
0.000538447
0.00065399
0.000630034
0.000556341
0.000389997
0.00036126
0.000313798
0.000555611
0.000712267
0.000498174
0.000370567
0.000476658
0.000320021
0.000954159
0.000390015
0.000773704
0.00117894
0.0010723
0.000838643
0.000671655
0.000650544
0.000761124
0.000572589
0.000714202
0.000470947
0.000630505
0.000828116
0.000743877
0.000823601
0.000609496
0.000380855
0.00055051
0.000594185
0.000406629
0.000610298
0.000674396
0.000427015
0.000499816
0.000828216
0.00044701
0.000920226
0.000553468
0.000354512
0.000383143
0.00031003
0.00054215
0.000402926
0.000677607
0.000411734
0.000446205
0.000412203
0.00105417
0.000446527
0.000906594
0.000495117
0.000578551
0.000400624
0.000633065
0.000567402
0.00053518
0.000622694
0.000491496
0.000619278
0.000586257
0.000450804
0.000481018
0.000678706
0.000500724
0.000337834
0.000190186
0.000638823
0.000466037
0.000677426
0.000395138
0.000450569
0.000362327
0.000585653
0.000574166
0.000695909
0.000671417
0.000422211
0.000597837
0.000220885
0.000455777
4.08321e-06
0.000831854
0.000945272
0.000805027
0.000593189
0.000411125
0.000631035
0.000386343
0.000643154
0.000625663
0.000339253
0.000410268
0.000266763
0.00051444
0.000352645
0.000580465
0.000296302
0.00048394
0.00061923
0.000490168
0.000375701
0.000528293
0.000545955
0.000607671
0.000310162
0.000601198
0.000290049
0.000408861
0.000461269
0.000523777
0.00033966
0.000569019
0.00039316
0.000419594
0.000469049
0.000587966
0.000693072
0.000503052
0.000317339
0.000424477
0.000423067
0.000365669
0.000250361
0.000467015
0.000376498
0.000322311
0.00025452
0.00047277
0.000206433
0.000314698
0.000124726
0.00010999
0.000218502
0.000211011
0.000518873
0.000353947
0.000301713
0.000359695
0.000298407
0.000297373
0.000417753
0.00032284
0.000258827
0.0004476
0.000299208
0.000264455
0.000465934
0.000120764
7.39557e-05
0.000251743
9.6595e-05
9.38029e-05
0.000160428
0.000406081
0.000235545
8.06102e-05
0.000182179
6.50895e-05
0.000182864
0.000164356
0.000280791
0.000173337
0.000153565
0.000141292
0.000165419
0.00039345
0.000554136
0.000319193
0.00028947
0.000415639
0.000471897
0.000455773
0.000344301
0.000288879
0.000642881
0.000314372
0.00030294
0.000228253
0.00047908
0.00066517
0.000355678
0.000381011
0.000453979
0.000504975
0.000519082
0.000341166
0.000444795
0.000442727
0.000445018
0.000484927
0.000556107
0.000394028
0.000256458
0.000379977
0.000331613
0.000453847
0.000476205
0.000510802
0.0004516
0.000207775
0.000316101
0.000578887
0.000494601
0.000516985
0.000354449
0.000474744
0.000622629
0.000586492
0.000493681
0.000306093
0.000489605
0.000671088
0.00115596
0.000917513
0.000997662
0.000994328
0.00046361
0.000589138
0.000283893
0.000479722
0.000793583
0.000556923
0.000560217
0.000462967
0.000629773
0.000684729
0.000812584
0.000624267
0.000295306
0.000454034
0.000621509
0.000543167
0.00055899
0.00065227
0.000964054
0.000627325
0.000640747
0.000716125
0.000536638
0.000838314
0.000359128
0.000366059
0.000488948
0.000497863
0.000525069
0.0003118
0.000613906
0.000623371
0.000847581
0.000566504
0.000484193
0.000578896
0.000581071
0.000399558
0.000424726
0.000474708
0.000595414
0.000697835
0.000769386
0.000841319
0.000437764
0.000746974
0.000424996
0.000770353
0.000686642
0.000630961
0.000338502
0.000430078
0.000187859
0.000475363
0.000724121
0.000595609
0.000951443
0.000558095
0.000327822
0.000386957
0.00043343
0.000901084
0.000428244
0.000647981
0.000565366
0.000437732
0.000553176
0.000441123
0.000298304
0.000519242
0.000714616
0.00056498
0.000461678
0.000380342
0.000591117
0.000479787
0.000519815
0.000544021
0.000935579
0.000771435
0.000224153
0.000409934
0.000396277
0.000407021
0.000203842
0.000604853
0.000205162
0.000817021
0.000744557
0.00053055
0.000527924
0.000510647
0.000591148
0.000531998
0.00056197
0.000595526
0.000657784
0.000441471
0.000387352
0.000388084
0.000379495
0.000567138
0.000465083
0.000443991
0.000397279
0.000363442
0.000546065
0.000731629
0.00046469
0.000275032
0.00053546
0.000587078
0.000331736
0.000352817
0.000428923
0.000370503
0.000340326
0.000324144
0.000497625
0.000424327
0.000450552
0.000376468
0.000232789
0.000144554
0.000240989
0.000197144
0.000549626
0.0004897
0.000255126
0.000391019
0.000318944
0.000348324
0.000343838
0.000419103
0.000385886
0.00037044
0.000289053
0.000367839
0.000346937
0.000117968
0.000105244
5.70249e-05
0.000141795
0.000203609
0.000112941
0.000181425
0.000532719
0.000276042
0.000102284
0.0001371
4.84657e-05
0.000138489
0.000244767
0.000342586
0.000121792
0.000125695
0.000160596
0.000165286
8.85335e-05
0.000760831
0.000427758
0.000558263
0.000380516
0.000305968
0.000295696
0.000264824
0.000378219
0.00024161
0.000301927
0.000462663
0.000505011
0.000395002
0.000177883
0.000256641
0.000381676
0.000305739
0.000269021
0.000234494
0.000417335
0.000334753
0.000383181
0.000276582
0.000340863
0.000471465
0.000460923
0.000344597
0.00045054
0.00054451
0.00050701
0.000534727
0.000544564
0.000403913
0.000396802
0.000349531
0.000276076
0.000554199
0.000479576
0.00050321
0.000317509
0.000430188
0.000524851
0.000396987
0.000420963
0.000613679
0.000718861
0.000591114
0.000484954
0.000549026
0.000558453
0.000712005
0.000770482
0.000734458
0.00054021
0.000586238
0.000490131
0.000496476
0.000607417
0.000730965
0.000847802
0.000629347
0.000639989
0.000622169
0.000315731
0.000562041
0.000702591
0.00088202
0.000532454
0.000852598
0.000652087
0.000849664
0.000633
0.000834414
0.000476381
0.000691263
0.000437276
0.000354128
0.000478007
0.000552273
0.000711018
0.000374083
0.000694116
0.000263714
0.000923227
0.000509298
0.000331717
0.00102889
0.000150454
0.000326429
0.000353964
0.000350164
0.000466763
0.000503591
0.000308487
0.0010984
0.000307175
0.000592649
0.000690738
0.000849984
0.000514718
0.000748197
0.000343243
0.000281284
0.000354413
0.000422935
0.000883063
0.00110951
0.000678653
0.000481032
0.00049576
0.000400219
0.00061416
0.00120128
0.000866181
0.000654586
0.00042326
0.000310491
0.00020329
0.000330688
0.000300604
0.000840757
0.000509083
0.0007658
0.000826437
0.000265033
0.000420061
0.000437366
0.000448484
0.000547789
0.000455375
0.000613798
0.000202148
0.000701216
0.000381634
0.000204666
0.000241213
0.000512075
0.000720808
0.000481168
0.000513518
0.000605207
0.000463261
0.000520419
0.000562974
0.000796921
0.000788207
0.000689339
0.000376113
0.00024954
0.00023955
0.00038898
0.000312765
0.00053454
0.000486066
0.000421574
0.00031343
0.000879609
0.000450969
0.000666463
0.000739972
0.00050874
0.000382446
0.000721551
0.000500233
0.000559183
0.000246716
0.000354888
0.000486064
0.000623586
0.000618766
0.00059343
0.000474978
0.000432122
0.000427715
0.000372018
0.000557417
0.00073637
0.000501705
0.000302077
0.000574927
0.000455704
0.000281855
0.000341891
0.000352785
0.000400518
0.000283491
0.000214575
0.000467672
0.000459326
0.00031139
0.000556493
0.000426866
0.000174892
0.000165023
0.000217985
0.000192426
0.000584214
0.000473675
0.000277729
0.000282451
0.00023289
0.000225153
0.000329629
0.000613521
0.000503822
0.000338873
0.000311499
0.000648738
0.000418139
0.000134201
0.000104772
0.000109525
0.000119418
0.000151014
0.000148076
0.000134448
0.000113621
0.000461434
0.000142805
0.000234069
0.000105167
7.62894e-05
0.000203244
0.000301585
0.000309167
0.000147538
0.000136317
0.000171454
0.000121526
9.46448e-05
0.000126827
0.000970365
0.000756482
0.000649824
0.000367711
0.000358134
0.000566958
0.00040305
0.000367958
0.000334973
0.000522213
0.000261656
0.000460092
0.000452093
0.000351247
0.000430427
0.000338364
0.000401612
0.000380519
0.000352222
0.000341684
0.000290265
0.000495113
0.000329702
0.000323089
0.000449582
0.000402019
0.000282282
0.000452142
0.000494108
0.000454637
0.000394798
0.000580826
0.000523483
0.000308439
0.000258294
0.00021426
0.00063842
0.000619825
0.000577616
0.000441034
0.000455907
0.000397932
0.000230087
0.000183707
0.00040826
0.000727139
0.000519871
0.000416615
0.000342971
0.000505584
0.000238276
0.000229476
0.000420588
0.000589347
0.000734842
0.000558213
0.000543423
0.000675538
0.000722291
0.000577686
0.000276809
0.000396064
0.000506989
0.000322442
0.000394087
0.000453152
0.00060594
0.00073576
0.000524763
0.000309191
0.000516717
0.000475367
0.000482843
0.000425807
0.00046541
0.000322945
0.000424645
0.000700956
0.000721362
0.000744152
0.000868427
0.000605124
0.000403987
0.000597996
0.000581698
0.000629984
0.000585849
0.000283135
0.000470807
0.000503823
0.000426238
0.00039145
0.000823373
0.000476617
0.000168462
0.000426524
0.000345177
0.000552811
0.000442839
0.000304198
0.000554345
0.000374214
0.000222397
0.000387557
0.000492937
0.000462401
0.000592533
0.000646883
0.00045636
0.000532845
0.000562887
0.000750024
0.000408626
0.000753325
0.000560097
0.000539569
0.00046993
0.00029325
0.000364448
0.000446852
0.000663296
0.000797169
0.000889444
0.00054984
0.000608078
0.000650285
0.000402026
0.000377148
0.000949922
0.000387488
0.000372093
0.000432957
0.000133996
0.000380963
0.000324684
0.000271423
0.000818121
0.000501342
0.000632047
0.000652874
0.000351935
0.000369298
0.00047744
0.000394264
0.000628515
0.000405926
0.000535292
0.000801373
0.000246965
0.000393152
0.000399765
0.000221884
0.000442927
0.000358971
0.000728571
0.000365844
0.000574067
0.000417144
0.000483639
0.000439026
0.000804013
0.00112275
0.000486651
0.000195184
0.000762805
0.000254886
0.000278482
0.000297894
0.000343169
0.000565116
0.000506744
0.000863383
0.000358576
0.000245486
0.00039577
0.000503717
0.000468361
0.000756504
0.000379864
0.000354509
0.000821621
0.000458972
0.000810825
0.000412119
0.000411263
0.000433166
0.000296296
0.000685771
0.00058396
0.000634568
0.00088363
0.000490458
0.00048591
0.000354883
0.000549734
0.000711931
0.000606031
0.000365966
0.000405128
0.000472756
0.000330113
0.000673502
0.000374829
0.000375688
0.000516184
0.000321471
0.000475298
0.000520319
0.000311185
0.000228214
0.000524541
0.000394279
0.000368361
0.000207498
0.000305451
0.000262736
0.000681896
0.000483239
0.000225534
0.000259037
0.000312625
0.00025521
0.000396619
0.000410521
0.000477771
0.000348139
0.000324929
0.000551014
0.000499926
0.000176631
0.000158807
0.000233099
7.26975e-05
7.84973e-05
0.000107224
0.000106008
0.000146475
0.0001455
0.00042827
8.31188e-05
0.000100016
7.70051e-05
6.86589e-05
0.000164454
0.000294293
0.000323758
8.61688e-05
0.000101872
0.000158012
0.00013511
0.000119405
0.000183731
9.55537e-05
0.00136897
0.000936846
0.000885461
0.000665857
0.000847156
0.000558625
0.000518449
0.000555701
0.000523169
0.000444116
0.00034472
0.000467122
0.000299787
0.000360289
0.000428219
0.000148586
0.000275809
0.000281224
0.000300614
0.000404343
0.000304331
0.000634063
0.00033512
0.000295879
0.000380417
0.000396325
0.000268603
0.000315205
0.000479052
0.000344244
0.000383512
0.000430572
0.000548291
0.000386522
0.000474101
0.000234854
0.000417317
0.000406974
0.000360725
0.00035542
0.000556961
0.000329133
0.000290528
0.000231977
0.000417757
0.000470794
0.000270574
0.00026519
0.000299089
0.000420238
0.000365777
0.000370842
0.000170023
0.000370047
0.000474691
0.000619332
0.000327904
0.000462329
0.000530137
0.000590963
0.000431838
0.000322234
0.000489602
0.000418722
0.000535854
0.000255911
0.000482144
0.000288218
0.00062797
0.000620435
0.000751897
0.0004946
0.000448292
0.000590643
0.000343378
0.000539021
0.000466704
0.000459991
0.000940666
0.000705722
0.000629385
0.000430956
0.000467095
0.000695449
0.000624287
0.00059003
0.000494187
0.000302029
0.000605378
0.000467319
0.000303431
0.000515445
0.000961137
0.00070767
0.00054819
0.000512098
0.00057459
0.000398243
0.000611347
0.000375676
0.000311382
0.000562258
0.000304265
0.000248873
0.000674106
0.000580957
0.000645033
0.000565404
0.000646601
0.000644577
0.000368434
0.000866866
0.000688398
0.000296497
0.000461501
0.00060532
0.000187113
0.000347119
0.000392585
0.000385229
0.000353088
0.000708764
0.00071529
0.000590307
0.000258475
0.000775437
0.000632728
0.000485576
0.000586311
0.00065129
0.000658213
0.000523457
0.000263245
0.000383507
0.000342157
0.000479426
0.000916993
0.000728202
0.00104232
0.000537574
0.00069172
0.000851525
0.000243275
0.000588699
0.000385364
0.000449729
0.000385492
0.000435352
0.000361969
0.000430048
0.000371499
0.00020716
0.000478934
0.000869361
0.000604541
0.000387236
0.00080903
0.000525708
0.00030466
0.000498573
0.00093684
0.000479675
0.000528245
0.000533313
0.000488311
0.000341009
0.000462452
0.00052696
0.00041486
0.00051006
0.000618407
0.000587338
0.000618257
0.000470429
0.000684031
0.000383407
0.000503641
0.000353964
0.000457234
0.000913766
0.000772719
0.000340948
0.000308743
0.000326291
0.000253053
0.000314447
0.000325693
0.000501989
0.00055464
0.000565907
0.00065902
0.000545826
0.000269032
0.000517277
0.000628777
0.000505505
0.000809752
0.000392626
0.000492202
0.000755149
0.00068656
0.000411712
0.000428642
0.000454735
0.000530862
0.00035003
0.000685002
0.000583109
0.000645314
0.000307801
0.00082245
0.000608484
0.00044114
0.000321962
0.000496066
0.000678198
0.000692147
0.00043432
0.000560511
0.000569045
0.00013621
0.000336994
0.000425698
0.000393683
0.000274493
0.000342601
0.000498234
0.000612582
0.000383685
0.000187735
0.000364919
0.00046961
0.000414592
0.000311436
0.00025271
0.000231168
0.000350592
0.000518618
0.000620521
0.000256742
0.000367744
0.000332063
0.000270981
0.000454058
0.000494673
0.000611723
0.000378204
0.000305782
0.000480027
0.000544806
0.000126965
0.000145533
0.000369789
0.00011439
9.40079e-05
0.000206127
0.000160161
0.000123495
0.00017714
0.000270992
0.000249894
0.000298902
7.49994e-05
0.000239406
7.77553e-05
8.60811e-05
0.000319299
0.000331342
8.79691e-05
0.000114427
0.000241222
0.000138863
0.000155276
0.000204913
0.000207971
0.000204113
0.00104888
0.00145521
0.00143737
0.000877764
0.000865696
0.00112696
0.000811243
0.000766405
0.000688505
0.000661049
0.000483564
0.000370153
0.000440563
0.000534088
0.000502285
0.000500873
0.00031903
0.0002867
0.000249574
0.000427213
0.000355712
0.000438413
0.000340448
0.000265517
0.000373341
0.00030006
0.000248448
0.000360127
0.000547781
0.0004261
0.00043045
0.000251892
0.000317877
0.000272887
0.000410493
0.00041493
0.000378633
0.00033004
0.00039588
0.000385727
0.000406395
0.000312717
0.000480075
0.000248933
0.000173833
0.000545132
0.000512845
0.000428099
0.000473529
0.000418626
0.000208906
0.000390858
0.000300457
0.000360554
0.000503224
0.000741591
0.000603282
0.000412418
0.00028727
0.000316979
0.000445888
0.000429162
0.000301774
0.000469984
0.000533478
0.00027495
0.000635253
0.000472102
0.000688817
0.000541597
0.00055096
0.000541534
0.000457929
0.000549941
0.000434872
0.000395245
0.000311849
0.000305221
0.000488755
0.000475398
0.000436171
0.00043808
0.000418911
0.000558189
0.000618392
0.000452889
0.000443655
0.000442917
0.000408972
0.000395489
0.000326529
0.000748433
0.000527311
0.000604413
0.000469909
0.000420139
0.000442603
0.000450183
0.000530208
0.000462803
0.000575847
0.000507001
0.000198608
0.000528727
0.00048681
0.000231663
0.00053691
0.00046705
0.00059254
0.0005403
0.000282303
0.000488921
0.000778851
0.000396607
0.000510447
0.000466455
0.000386978
0.000282907
0.000540836
0.000371437
0.000547622
0.000636045
0.000389645
0.000747529
0.000599966
0.000765515
0.00075518
0.000533255
0.000273675
0.000582377
0.000518535
0.000263576
0.000366039
0.000445827
0.0002752
0.000547802
0.000502759
0.000584926
0.000410305
0.000640408
0.00050209
0.000667385
0.000562455
0.000637654
0.00073044
0.00054902
0.000259234
0.000469561
0.000279718
0.000358901
0.000491519
0.000507009
0.000574002
0.000605522
0.000836141
0.000824371
0.000567952
0.000748299
0.000894571
0.000374652
0.00100193
0.000640223
0.000260687
0.000652361
0.000422865
0.000396128
0.000412507
0.00051227
0.000335373