/*--------------------------------*- C++ -*----------------------------------*\
  =========                 |
  \\      /  F ield         | OpenFOAM: The Open Source CFD Toolbox
   \\    /   O peration     | Website:  https://openfoam.org
    \\  /    A nd           | Version:  7
     \\/     M anipulation  |
\*---------------------------------------------------------------------------*/
FoamFile
{
    version     2.0;
    format      ascii;
    class       volScalarField;
    location    "3";
    object      p;
}
// * * * * * * * * * * * * * * * * * * * * * * * * * * * * * * * * * * * * * //

dimensions      [0 2 -2 0 0 0 0];

internalField   nonuniform List<scalar> 
18870
(
-75.3025
-76.1355
-75.2981
-75.0421
-77.2186
-76.1667
-75.9284
-75.2814
-74.994
-74.5967
-77.6501
-77.1946
-77.1719
-76.187
-75.8829
-75.7783
-75.2667
-74.9324
-74.511
-73.8009
-76.9119
-77.6357
-77.9287
-77.1553
-77.1016
-76.6357
-76.202
-75.8309
-75.6913
-75.0339
-75.2718
-74.8844
-74.4493
-73.7628
-73.537
-75.8273
-76.8151
-77.2133
-77.5381
-77.7631
-77.3926
-77.1018
-77.0032
-76.454
-75.6614
-76.1991
-75.7855
-75.5997
-74.9832
-74.5403
-75.2727
-74.8696
-74.4272
-73.706
-73.5695
-73.6547
-74.8621
-75.8998
-76.0342
-76.6966
-77.0432
-76.6511
-77.3916
-77.5562
-77.0941
-75.9954
-77.0119
-76.937
-76.3926
-75.5342
-75.081
-76.1608
-75.7451
-75.4909
-74.8444
-74.4243
-74.0932
-75.2599
-74.9059
-74.3816
-73.616
-73.6012
-73.5706
-73.0891
-73.4564
-74.6839
-74.8677
-75.9445
-75.8886
-76.0341
-76.5241
-76.8774
-76.3287
-75.7301
-77.1796
-77.3645
-76.6623
-75.7031
-75.1048
-76.9171
-76.77
-76.2872
-75.3386
-74.9378
-74.8682
-76.1165
-75.6704
-75.3483
-74.7155
-74.3123
-74.0247
-73.8664
-75.2532
-74.9223
-74.2817
-73.5765
-73.5112
-73.4517
-72.9475
-71.9587
-71.6136
-73.3524
-73.4804
-74.6503
-74.6292
-74.6966
-75.9574
-75.715
-75.7895
-75.3304
-76.3939
-76.6915
-75.9982
-75.5233
-74.8237
-76.9556
-77.1058
-76.3551
-75.3966
-74.8823
-74.3734
-76.8276
-76.5685
-76.1131
-75.1215
-74.7848
-74.6863
-73.408
-76.056
-75.5853
-75.2059
-74.6119
-74.1747
-73.9576
-73.7591
-72.235
-75.2278
-74.8791
-74.2259
-73.6219
-73.405
-73.3483
-72.8484
-71.8961
-71.2679
-69.6841
-71.5633
-71.4193
-73.1497
-73.2794
-73.0671
-74.5312
-74.3885
-74.3834
-73.8072
-75.9815
-75.5721
-75.5623
-75.153
-74.3621
-76.1947
-76.4484
-75.6863
-75.2351
-74.5558
-73.7568
-76.7566
-76.8072
-76.0791
-75.1003
-74.6949
-74.1032
-73.7472
-76.7257
-76.4067
-75.9113
-74.9264
-74.618
-74.5052
-73.2274
-72.2119
-75.9572
-75.4803
-75.1172
-74.4495
-74.0349
-73.8897
-73.6339
-72.0812
-70.6326
-75.1877
-74.7841
-74.1992
-73.6659
-73.3295
-73.2629
-72.8006
-71.8205
-71.2482
-70.1341
-68.0645
-69.5631
-69.578
-71.2116
-71.0926
-71.0324
-73.1532
-72.8689
-72.8309
-72.3531
-74.3798
-74.2113
-74.0456
-73.4553
-72.9226
-75.9453
-75.392
-75.2906
-74.8258
-74.0874
-73.293
-75.9947
-76.2376
-75.4462
-74.9262
-74.2614
-73.5284
-72.5354
-76.5305
-76.5527
-75.7947
-74.8125
-74.5021
-73.8007
-73.3216
-72.336
-76.5991
-76.2502
-75.7113
-74.7465
-74.4466
-74.3408
-73.0841
-72.1599
-70.8681
-75.8307
-75.3456
-75.0256
-74.272
-73.931
-73.8303
-73.5077
-71.941
-70.4771
-69.7899
-75.1721
-74.6929
-74.1728
-73.6313
-73.2225
-73.1837
-72.7498
-71.7479
-71.2472
-70.0677
-69.105
-66.9911
-68.0271
-68.1473
-69.3807
-69.4553
-69.4104
-71.0678
-70.7867
-70.7384
-70.5003
-72.979
-72.7082
-72.4901
-71.9706
-71.2666
-74.2701
-73.9736
-73.7545
-73.2209
-72.533
-71.5804
-75.8643
-75.264
-74.9634
-74.4109
-73.778
-72.9649
-71.6639
-75.7688
-75.9953
-75.2377
-74.6364
-73.9442
-73.3067
-72.2591
-70.9566
-76.2923
-76.2695
-75.5472
-74.5708
-74.2973
-73.5307
-72.9867
-71.9989
-70.1656
-76.4638
-76.111
-75.5103
-74.5651
-74.2728
-74.2109
-72.9453
-72.1439
-70.7148
-69.4777
-75.7096
-75.2206
-74.8767
-74.1574
-73.8056
-73.7788
-73.3778
-71.8227
-70.3361
-69.6758
-68.8951
-75.1851
-74.6535
-74.1272
-73.5674
-73.0745
-73.1091
-72.6797
-71.6602
-71.2086
-69.9902
-69.0998
-68.4695
-65.9874
-66.8443
-66.9766
-67.9435
-67.9322
-67.908
-69.2403
-69.2015
-69.1594
-69.0455
-70.8108
-70.5557
-70.5385
-70.2165
-69.7163
-72.7872
-72.5685
-72.0742
-71.5309
-70.9435
-70.329
-74.116
-73.6549
-73.4486
-72.8029
-72.1816
-71.2209
-70.466
-75.7821
-75.1117
-74.6114
-74.0518
-73.4038
-72.5933
-71.3265
-70.3526
-75.5638
-75.6741
-74.9627
-74.3259
-73.6082
-73.098
-72.0622
-70.5278
-69.6039
-76.1055
-76.0164
-75.3482
-74.3655
-74.0708
-73.3624
-72.6623
-71.6616
-69.8815
-68.7539
-76.3578
-76.0067
-75.3061
-74.4023
-74.0906
-73.9928
-72.8048
-72.0131
-70.5471
-69.3323
-68.0472
-75.585
-75.1027
-74.7251
-74.0513
-73.6801
-73.732
-73.2253
-71.7136
-70.2412
-69.5766
-68.8072
-67.9812
-75.1619
-74.5961
-74.0695
-73.4726
-73.0239
-73.0742
-72.5951
-71.5769
-71.1246
-69.9078
-69.0967
-68.4377
-68.0257
-65.3892
-65.9514
-66.0943
-66.7622
-66.7909
-66.8628
-67.7593
-67.6697
-67.5645
-67.6611
-69.1394
-69.04
-68.9371
-68.7697
-68.3969
-70.4487
-70.2792
-70.2593
-69.9025
-69.3429
-68.8878
-72.4625
-72.285
-71.7989
-71.1064
-70.6827
-69.9826
-69.1662
-73.7754
-73.3686
-73.0265
-72.5645
-71.8745
-70.8368
-70.1517
-69.0369
-75.7039
-74.9491
-74.2045
-73.5579
-72.9369
-72.1724
-71.0197
-69.9
-68.7821
-75.4019
-75.3545
-74.7434
-74.0226
-73.2117
-72.798
-71.7288
-70.1437
-69.3043
-68.4591
-75.9144
-75.7573
-75.1514
-74.1537
-73.8236
-73.2195
-72.38
-71.4055
-69.6097
-68.5003
-67.8699
-76.2672
-75.9284
-75.1069
-74.2557
-73.8999
-73.745
-72.6613
-71.8287
-70.349
-69.1412
-67.911
-67.4672
-75.4003
-74.9467
-74.5967
-73.9032
-73.5624
-73.6752
-73.0626
-71.6135
-70.1472
-69.4948
-68.731
-67.9348
-67.4922
-75.0688
-74.5118
-74.0053
-73.3609
-73.011
-73.0764
-72.5081
-71.4878
-71.0669
-69.8348
-69.0395
-68.4241
-68.0264
-67.5494
-64.877
-65.284
-65.4478
-65.986
-65.9886
-66.0185
-66.7384
-66.7666
-66.6146
-66.7574
-67.6936
-67.6117
-67.5348
-67.4011
-67.2992
-68.8983
-68.8535
-68.7271
-68.483
-68.1748
-67.7278
-70.1171
-69.9428
-69.9708
-69.428
-69.0405
-68.5005
-67.9451
-72.1195
-71.9098
-71.4842
-70.7594
-70.4638
-69.5931
-68.7428
-68.0459
-73.4648
-73.0596
-72.6575
-72.2965
-71.4569
-70.4783
-69.8284
-68.6141
-68.0113
-75.4108
-74.7354
-73.7788
-73.0853
-72.4749
-71.7596
-70.6166
-69.527
-68.4989
-67.5142
-75.3367
-75.0189
-74.4598
-73.6607
-72.9353
-72.3527
-71.2438
-69.8656
-69.0518
-68.2538
-67.2333
-75.6879
-75.5325
-74.9042
-73.9211
-73.6023
-73.0455
-72.1555
-71.1786
-69.3465
-68.2948
-67.6884
-67.1231
-76.2074
-75.8488
-74.925
-74.1142
-73.7052
-73.5034
-72.5139
-71.7158
-70.1369
-68.9654
-67.772
-67.368
-66.8544
-75.2004
-74.7608
-74.4734
-73.7459
-73.4344
-73.5297
-72.9103
-71.5262
-70.0306
-69.4053
-68.6612
-67.8846
-67.4899
-67.1275
-74.9678
-74.5214
-73.9435
-73.2373
-72.9806
-73.0482
-72.4261
-71.392
-71.0332
-69.7627
-68.9615
-68.371
-68.0008
-67.552
-67.6333
-64.4779
-64.7909
-65.0133
-65.2932
-65.3785
-65.4853
-65.8742
-65.9275
-66.1149
-66.1006
-66.582
-66.6084
-66.6496
-66.6194
-66.565
-67.4972
-67.4195
-67.3732
-67.1714
-67.1258
-66.8108
-68.6738
-68.5735
-68.4453
-68.141
-67.8712
-67.4297
-67.0642
-69.9381
-69.6575
-69.5151
-69.1722
-68.6531
-68.3342
-67.6859
-67.2002
-71.9222
-71.4813
-71.0943
-70.4875
-69.6679
-69.3645
-68.4435
-67.8665
-67.24
-73.1641
-72.6592
-72.2314
-71.5425
-70.992
-70.0334
-69.3478
-68.4961
-67.6691
-67.1561
-75.1142
-74.4711
-73.4201
-72.7328
-72.1275
-71.3595
-70.0891
-69.1649
-68.1423
-67.4388
-66.4087
-75.2699
-74.6447
-74.1223
-73.306
-72.658
-71.857
-70.8153
-69.6235
-68.8345
-67.9023
-66.9958
-66.7276
-75.5249
-75.3865
-74.6842
-73.7351
-73.4166
-72.8276
-71.8112
-70.7597
-69.1764
-68.1485
-67.5308
-66.9973
-66.5304
-76.2386
-75.8496
-74.7986
-73.9593
-73.5106
-73.331
-72.3182
-71.4536
-69.9143
-68.8138
-67.6197
-67.2994
-66.7764
-66.2588
-75.1206
-74.641
-74.3402
-73.6101
-73.2945
-73.3034
-72.7562
-71.4513
-69.9526
-69.3171
-68.5678
-67.8256
-67.4352
-67.0916
-66.841
-74.9331
-74.5275
-73.8718
-73.1889
-72.9064
-72.9834
-72.34
-71.3057
-70.9959
-69.6927
-68.9161
-68.3144
-67.979
-67.5556
-67.6092
-66.7092
-64.1231
-64.4565
-64.6484
-64.8002
-64.9838
-65.0465
-65.2121
-65.304
-65.4264
-65.4944
-65.8206
-65.8121
-65.9364
-65.893
-65.8826
-66.486
-66.4082
-66.4189
-66.3948
-66.2826
-66.1153
-67.3215
-67.3289
-67.1042
-66.9278
-66.8414
-66.6412
-66.5132
-68.5602
-68.4291
-68.1323
-67.8444
-67.5298
-67.2447
-66.9117
-66.5023
-69.7316
-69.4089
-69.1873
-68.9066
-68.3763
-67.9465
-67.3547
-66.9239
-66.5943
-71.5311
-71.08
-70.7076
-70.1275
-69.2615
-69.0227
-68.2209
-67.5177
-67.0319
-66.484
-72.8541
-72.2839
-71.9168
-71.1612
-70.6206
-69.6126
-68.9271
-68.267
-67.4052
-66.8924
-66.4529
-74.8114
-74.1337
-72.9841
-72.3793
-71.8103
-70.9603
-69.742
-68.8975
-67.8064
-67.1986
-66.6813
-66.3549
-75.1024
-74.2627
-73.7624
-73.0779
-72.3183
-71.4947
-70.5254
-69.3964
-68.611
-67.6342
-67.0148
-66.5309
-66.1312
-75.3798
-75.3253
-74.3284
-73.5547
-73.2255
-72.6027
-71.5216
-70.4361
-68.9471
-68.0149
-67.3924
-66.8812
-66.4808
-65.9747
-76.0386
-75.7033
-74.6525
-73.7788
-73.3334
-73.2335
-72.1609
-71.1826
-69.6682
-68.6552
-67.5047
-67.1853
-66.6956
-66.1782
-65.9248
-75.0542
-74.5515
-74.1977
-73.4608
-73.1454
-73.0881
-72.6143
-71.3723
-69.8947
-69.2287
-68.4869
-67.7539
-67.3603
-67.0892
-66.776
-66.4585
-74.9136
-74.5027
-73.8236
-73.1569
-72.8506
-72.9116
-72.2525
-71.2517
-70.9
-69.6291
-68.8916
-68.2693
-67.9769
-67.5661
-67.6149
-66.6872
-65.9136
-64.0245
-64.1848
-64.3405
-64.4881
-64.6584
-64.8072
-64.8042
-64.9142
-65.0201
-65.1094
-65.1113
-65.2833
-65.3837
-65.3443
-65.3889
-65.7531
-65.8205
-65.7763
-65.7358
-65.6994
-65.6435
-66.3437
-66.3404
-66.2786
-66.2427
-65.9437
-65.983
-65.9344
-67.1634
-67.2181
-66.984
-66.8615
-66.6441
-66.4244
-66.1771
-65.9536
-68.2597
-68.2314
-67.9228
-67.6277
-67.257
-66.8719
-66.5146
-66.2269
-66.0003
-69.4869
-69.1671
-69.0263
-68.5473
-68.2287
-67.6007
-67.0199
-66.7468
-66.3707
-66.0019
-71.1386
-70.7453
-70.2693
-69.753
-69.25
-68.411
-67.8648
-67.2145
-66.6776
-66.3328
-65.9151
-72.5168
-71.8454
-71.5291
-70.8393
-70.2856
-69.4145
-68.5382
-67.9968
-67.1861
-66.7734
-66.2379
-65.9143
-74.3279
-73.7681
-72.5403
-72.0176
-71.3971
-70.6624
-69.54
-68.6647
-67.6488
-66.9322
-66.4221
-66.2943
-65.6423
-74.8177
-73.8666
-73.3564
-72.8296
-72.0458
-71.244
-70.3065
-69.1718
-68.4144
-67.4981
-66.8237
-66.4607
-66.0372
-65.6363
-75.2342
-75.1821
-74.0721
-73.4027
-73.0222
-72.3677
-71.3601
-70.2011
-68.7332
-67.8223
-67.2566
-66.7891
-66.4292
-65.909
-65.5723
-75.7585
-75.3553
-74.5132
-73.5878
-73.157
-73.1096
-72.0698
-70.9334
-69.441
-68.4943
-67.4214
-67.0876
-66.6512
-66.1268
-65.863
-66.0978
-74.9979
-74.4228
-74.0553
-73.3156
-72.9868
-72.8805
-72.4748
-71.2834
-69.8372
-69.1422
-68.4452
-67.7106
-67.3268
-67.0625
-66.6986
-66.3293
-65.5964
-74.8627
-74.4352
-73.8171
-73.107
-72.817
-72.8363
-72.1742
-71.2264
-70.7673
-69.5827
-68.8644
-68.2366
-67.9463
-67.578
-67.5952
-66.6673
-65.8902
-65.581
-63.8691
-64.074
-64.2793
-64.1444
-64.3311
-64.5406
-64.4334
-64.5957
-64.6955
-64.7476
-64.6992
-64.7991
-64.9763
-65.0779
-65.0418
-65.0099
-65.1931
-65.265
-65.3134
-65.3445
-65.2744
-65.5644
-65.6622
-65.6534
-65.6405
-65.6133
-65.5443
-65.3734
-66.1157
-66.1153
-66.0984
-66.0899
-65.9942
-65.9154
-65.672
-65.4769
-66.9762
-66.8776
-66.761
-66.6746
-66.5192
-66.2361
-65.9376
-65.6876
-65.5392
-68.0447
-67.8796
-67.7077
-67.3507
-66.9224
-66.4679
-66.3071
-66.0369
-65.7349
-65.5129
-69.2234
-68.9066
-68.7296
-68.391
-67.9701
-67.5108
-66.7235
-66.5156
-66.2835
-65.8488
-65.6492
-70.7333
-70.4787
-69.8993
-69.4131
-68.9241
-68.2932
-67.5704
-67.0482
-66.3846
-66.1389
-65.7946
-65.6167
-72.1222
-71.4748
-71.1401
-70.4291
-69.9079
-69.1688
-68.3184
-67.7529
-67.0738
-66.594
-66.1143
-65.7692
-65.4724
-73.8667
-73.4202
-72.1892
-71.6474
-71.0129
-70.3565
-69.183
-68.386
-67.3215
-66.7051
-66.3255
-66.0583
-65.579
-65.2018
-74.5262
-73.5321
-73.0324
-72.6107
-71.8474
-70.9366
-70.0173
-68.9026
-68.1925
-67.2775
-66.6908
-66.3351
-65.9686
-65.584
-65.3396
-75.0801
-74.9874
-73.9974
-73.3309
-72.8363
-72.1376
-71.0916
-69.9115
-68.5797
-67.6632
-67.1341
-66.6496
-66.2891
-65.8414
-65.45
-65.4972
-75.5401
-75.3344
-74.403
-73.4314
-72.9796
-72.9728
-71.9244
-70.6374
-69.2602
-68.3783
-67.3502
-67.088
-66.5671
-66.0645
-65.8223
-65.946
-65.3692
-74.9769
-74.2911
-73.9059
-73.1721
-72.8312
-72.6754
-72.323
-71.173
-69.7914
-69.0692
-68.384
-67.6632
-67.2733
-67.0362
-66.6389
-66.2104
-65.5472
-65.3021
-74.7545
-74.3739
-73.8025
-73.0229
-72.7791
-72.7649
-72.0933
-71.2123
-70.6693
-69.5591
-68.8294
-68.2208
-67.9079
-67.5899
-67.5119
-66.6483
-65.8737
-65.5877
-65.722
-63.857
-63.8468
-64.0625
-64.0171
-64.2311
-64.3852
-64.0963
-64.2886
-64.4731
-64.5092
-64.3797
-64.5309
-64.6506
-64.7316
-64.7148
-64.5924
-64.7557
-64.8662
-64.9668
-64.9694
-64.9898
-64.8993
-65.094
-65.127
-65.1427
-65.1683
-65.1967
-65.2007
-65.4398
-65.56
-65.463
-65.4486
-65.4701
-65.421
-65.3594
-65.2519
-66.0568
-65.9389
-65.9016
-65.8404
-65.8062
-65.6932
-65.6045
-65.4604
-65.3008
-66.8581
-66.7161
-66.5298
-66.4085
-66.2273
-65.8928
-65.8154
-65.6885
-65.4618
-65.1784
-67.8197
-67.6618
-67.4598
-67.1442
-66.7682
-66.4767
-66.211
-65.9062
-65.746
-65.3591
-65.2802
-69.002
-68.6436
-68.3622
-68.0035
-67.736
-67.2837
-66.7334
-66.3073
-66.1484
-65.6368
-65.4666
-65.176
-70.4592
-70.226
-69.6242
-68.9887
-68.5369
-68.0049
-67.4575
-66.7624
-66.1019
-65.9937
-65.7071
-65.3877
-65.0597
-71.7705
-71.2129
-70.9391
-70.0083
-69.5796
-68.8753
-68.0456
-67.4452
-66.9312
-66.3874
-65.9853
-65.6152
-65.3972
-65.0312
-73.5217
-73.1457
-71.9951
-71.3335
-70.7444
-69.9712
-68.9163
-68.0276
-67.1076
-66.4432
-66.2921
-65.8304
-65.5236
-65.1621
-65.0864
-74.2028
-73.2663
-72.8089
-72.3793
-71.6482
-70.6332
-69.8331
-68.714
-67.9828
-67.08
-66.5948
-66.2672
-65.8111
-65.5613
-65.2599
-65.0524
-74.9134
-74.7986
-73.8371
-73.1325
-72.6795
-71.9307
-70.7989
-69.6632
-68.4128
-67.4915
-67.0235
-66.526
-66.1949
-65.762
-65.3766
-65.3547
-64.9651
-75.2396
-75.2034
-74.3208
-73.2383
-72.8178
-72.8352
-71.7113
-70.4528
-69.0794
-68.2694
-67.2768
-67.0213
-66.5242
-65.9985
-65.7655
-65.8086
-65.229
-64.9519
-74.8766
-74.1165
-73.7428
-73.0205
-72.6791
-72.4779
-72.1564
-71.0503
-69.7438
-68.9669
-68.3185
-67.6104
-67.2167
-67.0221
-66.6208
-66.0933
-65.4983
-65.2835
-65.3844
-74.6653
-74.3184
-73.7661
-72.9521
-72.7297
-72.6899
-72.0215
-71.2076
-70.5995
-69.5361
-68.8131
-68.2134
-67.8823
-67.5945
-67.4427
-66.629
-65.8616
-65.5942
-65.7388
-66.4099
-63.6476
-63.8197
-63.9958
-63.83
-64.0557
-64.2454
-63.9912
-64.1975
-64.3847
-64.4077
-64.0839
-64.2404
-64.3905
-64.5491
-64.5858
-64.3637
-64.5362
-64.5959
-64.706
-64.7022
-64.7074
-64.548
-64.6754
-64.7519
-64.8622
-64.8627
-64.9057
-64.9064
-64.8821
-65.0399
-65.0312
-65.0131
-65.0193
-65.0626
-65.1065
-64.9197
-65.3316
-65.3829
-65.3397
-65.2986
-65.3053
-65.2091
-65.1549
-65.1866
-65.0592
-65.8753
-65.8849
-65.8805
-65.6999
-65.5915
-65.4509
-65.4258
-65.241
-65.2946
-65.052
-66.673
-66.6703
-66.3793
-66.2491
-66.0332
-65.7861
-65.6023
-65.4409
-65.3544
-65.051
-64.9141
-67.6129
-67.5364
-67.1816
-66.9501
-66.5982
-66.3798
-65.9854
-65.7232
-65.4711
-65.2892
-65.0844
-64.869
-68.8534
-68.4785
-68.1296
-67.597
-67.4377
-66.9888
-66.53
-66.1552
-65.7612
-65.4885
-65.3385
-65.0957
-64.8836
-70.311
-69.8705
-69.45
-68.6217
-68.2063
-67.6161
-67.1569
-66.6624
-65.9868
-65.7834
-65.5931
-65.2411
-65.0084
-64.7962
-71.4201
-70.8183
-70.6896
-69.7145
-69.2771
-68.5996
-67.832
-67.142
-66.5999
-66.1707
-65.83
-65.4672
-65.3121
-64.9598
-64.7167
-73.0992
-72.8835
-71.728
-71.1344
-70.4337
-69.6686
-68.7816
-67.7294
-66.9441
-66.2932
-66.1335
-65.8752
-65.4398
-65.0994
-65.0462
-64.8919
-73.8236
-72.9873
-72.6846
-72.197
-71.3943
-70.4313
-69.642
-68.5175
-67.7822
-66.9037
-66.4283
-66.076
-65.7877
-65.502
-65.1849
-64.958
-64.7244
-74.82
-74.5801
-73.7278
-72.9643
-72.5826
-71.7284
-70.5198
-69.442
-68.2321
-67.306
-66.9356
-66.4345
-66.1617
-65.7123
-65.302
-65.1999
-64.8394
-64.6502
-74.9934
-75.1004
-74.2326
-73.0324
-72.6412
-72.702
-71.4832
-70.2575
-68.9179
-68.1507
-67.2184
-66.9615
-66.4949
-65.9585
-65.7173
-65.6857
-65.1081
-64.9278
-65.3137
-74.67
-73.9299
-73.5611
-72.8682
-72.5292
-72.2849
-71.9921
-70.9157
-69.7094
-68.8352
-68.2749
-67.579
-67.1859
-67.0014
-66.5965
-65.9803
-65.4419
-65.264
-65.4155
-66.0369
-74.5704
-74.2613
-73.7254
-72.888
-72.6783
-72.6098
-71.9489
-71.2202
-70.5583
-69.4865
-68.7954
-68.1817
-67.8313
-67.5891
-67.3754
-66.6011
-65.8441
-65.606
-65.7526
-66.4443
-66.9728
-63.5065
-63.6214
-63.8934
-63.803
-63.993
-64.1304
-63.8164
-64.0201
-64.2213
-64.3148
-63.9247
-64.11
-64.2697
-64.4256
-64.4985
-64.0482
-64.1831
-64.3008
-64.4174
-64.5457
-64.6064
-64.3129
-64.4726
-64.5189
-64.6306
-64.657
-64.6707
-64.6482
-64.4596
-64.5546
-64.7056
-64.7017
-64.7795
-64.8207
-64.8353
-64.7052
-64.7353
-64.8596
-64.8938
-64.9564
-64.9483
-65.0051
-64.9511
-64.8761
-64.7641
-65.2004
-65.236
-65.1931
-65.2281
-65.2107
-65.2049
-65.0627
-65.0328
-64.9489
-64.8145
-65.7015
-65.7695
-65.8496
-65.6149
-65.5353
-65.4933
-65.2713
-65.0293
-65.089
-64.9874
-64.6558
-66.5892
-66.4709
-66.2679
-66.1092
-65.9857
-65.7517
-65.4643
-65.2674
-65.0686
-64.9503
-64.9234
-64.7849
-67.3707
-67.2179
-67.0794
-66.8142
-66.4694
-66.1331
-65.8238
-65.61
-65.3483
-65.137
-64.9235
-64.8204
-64.6587
-68.6721
-68.1251
-68.0397
-67.5201
-67.2265
-66.7691
-66.3139
-65.9751
-65.7033
-65.3235
-65.1673
-65.072
-64.8155
-64.6843
-70.0398
-69.6346
-69.0912
-68.5474
-67.9653
-67.4291
-66.8376
-66.4247
-65.8188
-65.5768
-65.4881
-65.0933
-64.9955
-64.6977
-64.4964
-70.909
-70.404
-70.0713
-69.4206
-68.954
-68.2541
-67.6063
-67.2092
-66.3859
-65.9413
-65.6838
-65.3442
-65.2871
-64.8774
-64.6386
-64.5496
-72.7975
-72.6714
-71.532
-70.9421
-70.1217
-69.2754
-68.4867
-67.656
-66.7074
-66.2204
-66.022
-65.5715
-65.4523
-65.025
-65.0021
-64.8233
-64.5322
-73.5654
-72.7212
-72.5172
-72.0101
-71.186
-70.2161
-69.3922
-68.2784
-67.4893
-66.8212
-66.2679
-65.8598
-65.7548
-65.4182
-65.0765
-64.8316
-64.585
-64.4808
-74.7254
-74.3417
-73.543
-72.9214
-72.4296
-71.5387
-70.3171
-69.2325
-68.0834
-67.1725
-66.7782
-66.3678
-66.0694
-65.6609
-65.2132
-65.0878
-64.7331
-64.6175
-64.7917
-74.8205
-75.0803
-74.121
-72.8288
-72.4679
-72.5611
-71.2655
-70.0223
-68.8384
-68.0595
-67.1702
-66.915
-66.4664
-65.9291
-65.6504
-65.5486
-64.9916
-64.9065
-65.3337
-65.7625
-74.4422
-73.7743
-73.3727
-72.7159
-72.3753
-72.0937
-71.8396
-70.7942
-69.6868
-68.743
-68.2193
-67.5286
-67.144
-66.9784
-66.5593
-65.8675
-65.3885
-65.2558
-65.4538
-66.0922
-66.5391
-74.4744
-74.2043
-73.684
-72.8166
-72.6244
-72.5343
-71.8916
-71.1797
-70.5529
-69.4494
-68.7588
-68.1496
-67.7805
-67.5797
-67.3092
-66.5734
-65.8321
-65.6194
-65.7729
-66.4777
-67.0149
-67.2747
-63.4237
-63.5278
-63.8395
-63.7148
-63.8767
-64.1751
-63.718
-64.0032
-64.1015
-64.2477
-63.7982
-63.9852
-64.1566
-64.25
-64.3132
-63.9634
-64.0886
-64.1806
-64.3185
-64.4097
-64.4568
-63.9783
-64.1345
-64.2727
-64.3309
-64.4403
-64.5507
-64.532
-64.1917
-64.3884
-64.4632
-64.4414
-64.4924
-64.5777
-64.6213
-64.5603
-64.3648
-64.5273
-64.5903
-64.6542
-64.5344
-64.695
-64.7806
-64.65
-64.6072
-64.6775
-64.8751
-64.8498
-64.8532
-64.7902
-64.8604
-64.7754
-64.7966
-64.6865
-64.5883
-65.1372
-65.2124
-65.0662
-65.1103
-65.1225
-65.0225
-65.0446
-64.9228
-64.8561
-64.7126
-64.624
-65.6502
-65.6659
-65.634
-65.4583
-65.3779
-65.3753
-65.1718
-65.0128
-64.9609
-64.825
-64.6007
-64.5594
-66.4092
-66.2477
-66.079
-65.9517
-65.8509
-65.5653
-65.3838
-65.191
-65.1567
-64.8354
-64.7381
-64.6598
-64.629
-67.1535
-66.9685
-66.8539
-66.6733
-66.3208
-66.0066
-65.692
-65.3794
-65.3212
-65.0405
-64.7575
-64.7491
-64.5492
-64.433
-68.438
-67.7678
-67.7813
-67.2617
-67.02
-66.6236
-66.0864
-65.8744
-65.5169
-65.2503
-64.9948
-64.9832
-64.7264
-64.5552
-64.4076
-69.7153
-69.2558
-68.8856
-68.2549
-67.7716
-67.1104
-66.6063
-66.1886
-65.7685
-65.4623
-65.2278
-64.9218
-64.9304
-64.6182
-64.4303
-64.354
-70.5915
-69.9885
-69.7912
-69.0736
-68.6646
-67.9895
-67.3593
-66.8782
-66.3674
-65.7333
-65.6072
-65.2058
-65.187
-64.7991
-64.5505
-64.4789
-64.3356
-72.555
-72.4723
-71.3939
-70.7847
-69.8054
-68.9891
-68.1452
-67.3581
-66.4887
-65.9983
-65.9169
-65.4266
-65.3873
-64.9567
-64.9384
-64.7071
-64.4424
-64.2795
-73.2253
-72.535
-72.2318
-71.7091
-70.9801
-69.9563
-69.2313
-68.123
-67.1466
-66.6345
-66.1408
-65.8625
-65.6531
-65.3221
-65.0208
-64.7163
-64.4849
-64.4722
-64.6607
-74.5332
-74.0258
-73.3077
-72.7072
-72.2308
-71.3465
-70.1445
-69.0468
-67.9356
-67.0797
-66.6088
-66.3201
-65.9664
-65.5728
-65.1583
-64.9976
-64.642
-64.5876
-64.8454
-65.5439
-74.7267
-75.114
-74.0242
-72.6634
-72.3106
-72.3985
-71.0876
-69.926
-68.7322
-67.9635
-67.1219
-66.8504
-66.4137
-65.9222
-65.599
-65.3909
-64.8831
-64.8798
-65.3461
-65.8587
-66.1663
-74.2605
-73.645
-73.1856
-72.56
-72.2224
-71.9112
-71.6773
-70.7172
-69.6702
-68.6422
-68.156
-67.4786
-67.099
-66.9551
-66.524
-65.7532
-65.3378
-65.2559
-65.5026
-66.1524
-66.6011
-66.917
-74.4004
-74.1361
-73.6415
-72.7504
-72.5697
-72.4614
-71.8495
-71.129
-70.476
-69.4064
-68.7473
-68.1351
-67.7441
-67.5624
-67.2699
-66.5469
-65.8235
-65.623
-65.7958
-66.508
-67.055
-67.3223
-67.1469
-63.3085
-63.4502
-63.7017
-63.5642
-63.8018
-64.0008
-63.696
-63.8903
-64.1179
-64.2317
-63.7133
-63.9505
-64.1099
-64.1892
-64.2371
-63.8165
-63.9341
-64.0747
-64.2342
-64.291
-64.3166
-63.9049
-64.0439
-64.1895
-64.2139
-64.3096
-64.3723
-64.4267
-63.9048
-64.042
-64.1176
-64.3119
-64.3192
-64.4376
-64.4521
-64.4379
-64.0557
-64.309
-64.3933
-64.4409
-64.403
-64.4694
-64.4881
-64.4741
-64.4651
-64.3188
-64.4502
-64.5003
-64.576
-64.4778
-64.5726
-64.6404
-64.5266
-64.5305
-64.5035
-64.5802
-64.7711
-64.7791
-64.7304
-64.7107
-64.6969
-64.6241
-64.6757
-64.6238
-64.5942
-64.4531
-64.9909
-65.0447
-64.9538
-64.9711
-64.9465
-64.856
-64.8268
-64.7211
-64.7014
-64.6501
-64.5073
-64.4599
-65.6175
-65.5763
-65.4535
-65.3317
-65.2161
-65.1904
-64.9878
-64.8492
-64.735
-64.6517
-64.5283
-64.4815
-64.5459
-66.3106
-66.0827
-65.9746
-65.8081
-65.6724
-65.3913
-65.1903
-65.0683
-64.9594
-64.6827
-64.6142
-64.6101
-64.4773
-64.2867
-67.0618
-66.8142
-66.5942
-66.4088
-66.0823
-65.8988
-65.5895
-65.1916
-65.1327
-64.8405
-64.6709
-64.6257
-64.4522
-64.3933
-64.3826
-68.1818
-67.556
-67.5211
-67.0276
-66.719
-66.4053
-65.8504
-65.6479
-65.2949
-65.0775
-64.8417
-64.8247
-64.6485
-64.5194
-64.2468
-64.1697
-69.5478
-68.9607
-68.6793
-68.0271
-67.5829
-66.9394
-66.4213
-65.9942
-65.6548
-65.3039
-64.9916
-64.8166
-64.7896
-64.5643
-64.3447
-64.2676
-64.2345
-70.3865
-69.7066
-69.5912
-69.0295
-68.3452
-67.78
-67.2139
-66.6413
-66.0173
-65.6721
-65.328
-65.2478
-65.0455
-64.7202
-64.4741
-64.3928
-64.2546
-64.2829
-72.3844
-72.2662
-71.19
-70.5122
-69.5721
-68.744
-67.9249
-67.2735
-66.3014
-65.8272
-65.6728
-65.484
-65.2228
-64.8732
-64.8256
-64.5806
-64.3824
-64.2473
-64.521
-72.9923
-72.3509
-72.0006
-71.4379
-70.8161
-69.7538
-69.0286
-67.9812
-66.9657
-66.4859
-65.9895
-65.7618
-65.578
-65.2313
-64.9101
-64.6403
-64.4055
-64.4436
-64.694
-65.0047
-74.3294
-73.6471
-73.038
-72.4554
-72.0286
-71.0966
-69.9253
-68.8336
-67.7217
-66.9969
-66.536
-66.2213
-65.8972
-65.5113
-65.1206
-64.8665
-64.5797
-64.5907
-64.9542
-65.6276
-66.0358
-74.64
-75.1267
-73.8981
-72.5096
-72.1346
-72.1435
-70.9179
-69.8456
-68.5717
-67.8408
-67.0986
-66.8089
-66.406
-65.904
-65.5647
-65.2501
-64.7938
-64.8796
-65.4155
-65.952
-66.2639
-66.5337
-74.1177
-73.5415
-73.065
-72.4091
-72.0726
-71.7348
-71.5009
-70.5842
-69.6681
-68.5506
-68.1058
-67.4532
-67.0981
-66.9319
-66.4748
-65.6437
-65.295
-65.2522
-65.5531
-66.2123
-66.6647
-66.968
-66.8366
-74.3364
-74.0715
-73.6087
-72.7068
-72.5163
-72.4036
-71.8108
-71.1188
-70.4167
-69.3255
-68.7614
-68.1351
-67.7127
-67.5566
-67.2583
-66.5201
-65.8169
-65.6231
-65.8206
-66.5342
-67.0969
-67.3684
-67.174
-66.8139
-63.2163
-63.2798
-63.5423
-63.4216
-63.6917
-63.925
-63.5622
-63.8042
-63.9819
-64.1938
-63.6006
-63.8805
-64.0668
-64.2241
-64.235
-63.6951
-63.9019
-64.0806
-64.1958
-64.2158
-64.2712
-63.7438
-63.8669
-63.9876
-64.1139
-64.2159
-64.2275
-64.2891
-63.8577
-63.9526
-64.126
-64.2124
-64.2664
-64.3135
-64.3396
-64.3185
-63.9004
-64.0087
-64.1084
-64.1596
-64.3043
-64.3408
-64.3657
-64.3287
-64.4047
-63.9837
-64.2813
-64.3224
-64.3489
-64.2829
-64.3961
-64.377
-64.3917
-64.3911
-64.4229
-64.1888
-64.2927
-64.383
-64.386
-64.3701
-64.4838
-64.4982
-64.4135
-64.4183
-64.4398
-64.3377
-64.5294
-64.5735
-64.5713
-64.6421
-64.6025
-64.5506
-64.4922
-64.5145
-64.4765
-64.452
-64.3519
-64.3496
-64.9653
-64.9221
-64.8925
-64.8919
-64.8513
-64.7772
-64.7286
-64.5848
-64.5107
-64.4994
-64.417
-64.3473
-64.3553
-65.529
-65.4792
-65.3587
-65.2125
-65.1344
-65.082
-64.8566
-64.7367
-64.6148
-64.4582
-64.4751
-64.3595
-64.4094
-64.2684
-66.1738
-65.9836
-65.8385
-65.6921
-65.4919
-65.3071
-65.0591
-64.81
-64.8141
-64.4866
-64.5378
-64.4444
-64.3378
-64.2685
-64.2724
-66.907
-66.6188
-66.4657
-66.2283
-66.0593
-65.7562
-65.4264
-65.2221
-64.9757
-64.6716
-64.568
-64.4759
-64.4185
-64.3576
-64.2436
-64.1649
-67.9249
-67.4651
-67.194
-66.8332
-66.4983
-66.0594
-65.7421
-65.4916
-65.1379
-64.9122
-64.7757
-64.6957
-64.5401
-64.4133
-64.1777
-64.1461
-64.1019
-69.2415
-68.8202
-68.3879
-67.8253
-67.2453
-66.7503
-66.2701
-65.8591
-65.4513
-65.1616
-64.9007
-64.7003
-64.6748
-64.4546
-64.2384
-64.1881
-64.1486
-64.199
-70.0111
-69.5287
-69.15
-68.7663
-68.0345
-67.4998
-67.056
-66.5512
-65.7885
-65.5746
-65.1577
-65.2076
-64.9103
-64.6053
-64.4345
-64.3496
-64.1721
-64.2612
-64.442
-72.1478
-71.9486
-70.8895
-70.4142
-69.327
-68.495
-67.8194
-67.0963
-66.2065
-65.7312
-65.5093
-65.3917
-65.0621
-64.8319
-64.7306
-64.473
-64.3159
-64.2533
-64.5816
-64.7874
-72.6863
-72.1533
-71.7363
-71.2034
-70.6302
-69.5621
-68.8642
-67.8319
-66.8171
-66.3512
-65.8834
-65.6286
-65.5268
-65.0839
-64.824
-64.568
-64.3231
-64.4578
-64.8097
-65.1556
-65.6564
-74.1774
-73.3109
-72.7607
-72.1821
-71.8247
-70.8318
-69.735
-68.613
-67.5929
-66.9194
-66.4512
-66.1281
-65.8473
-65.4123
-65.0487
-64.7511
-64.5328
-64.6084
-64.9727
-65.7144
-66.1364
-66.3169
-74.5163
-75.145
-73.7035
-72.3687
-71.9512
-71.8688
-70.7374
-69.7204
-68.4636
-67.7378
-67.0818
-66.7809
-66.4025
-65.8778
-65.5067
-65.1273
-64.7059
-64.8905
-65.5117
-66.0512
-66.364
-66.5943
-66.3559
-74.0112
-73.4775
-72.9976
-72.2686
-71.9212
-71.5739
-71.3366
-70.4898
-69.6473
-68.4728
-68.0707
-67.4178
-67.0836
-66.9088
-66.4108
-65.5532
-65.255
-65.26
-65.6051
-66.2759
-66.7317
-67.0264
-66.8413
-66.3499
-74.2769
-74.0227
-73.5797
-72.6638
-72.484
-72.3422
-71.777
-71.1199
-70.3858
-69.2539
-68.7785
-68.1437
-67.684
-67.5672
-67.2666
-66.4965
-65.8105
-65.6121
-65.838
-66.5579
-67.1333
-67.427
-67.1973
-66.8091
-66.3246
-63.2433
-63.4693
-63.3444
-63.5393
-63.8031
-63.3655
-63.6837
-63.8899
-64.1913
-63.5184
-63.8019
-63.986
-64.1234
-64.249
-63.5944
-63.8457
-64.046
-64.1339
-64.2062
-64.2436
-63.6652
-63.8496
-63.9756
-64.0801
-64.168
-64.218
-64.2217
-63.6761
-63.8649
-63.9202
-64.0239
-64.1801
-64.1915
-64.2001
-64.2035
-63.8463
-63.8791
-64.078
-64.0341
-64.1375
-64.2281
-64.2294
-64.243
-64.2632
-63.8368
-63.9486
-64.0542
-64.0865
-64.1634
-64.2526
-64.2534
-64.2857
-64.2947
-64.3646
-63.9328
-64.0904
-64.2072
-64.1961
-64.1394
-64.3014
-64.2754
-64.3071
-64.3295
-64.3567
-64.3228
-64.1207
-64.234
-64.276
-64.267
-64.2913
-64.366
-64.4044
-64.3489
-64.2913
-64.334
-64.2352
-64.2296
-64.4143
-64.457
-64.6363
-64.519
-64.4808
-64.3853
-64.3353
-64.4226
-64.3813
-64.3188
-64.2332
-64.2391
-64.299
-64.8624
-64.854
-64.8717
-64.7672
-64.707
-64.7104
-64.6154
-64.4824
-64.4482
-64.3998
-64.2972
-64.2569
-64.2387
-64.2436
-65.3701
-65.3706
-65.2346
-65.1755
-65.0334
-64.9608
-64.7445
-64.5934
-64.5968
-64.4116
-64.3579
-64.2681
-64.0922
-64.1483
-64.256
-65.9646
-65.7614
-65.6516
-65.4995
-65.3273
-65.1044
-65.0029
-64.7766
-64.7137
-64.4483
-64.4098
-64.347
-64.2256
-64.2203
-64.2335
-64.1267
-66.7062
-66.3691
-66.2539
-66.0959
-65.9646
-65.6037
-65.3043
-65.0839
-64.8422
-64.5414
-64.4202
-64.3431
-64.3262
-64.2892
-64.1404
-64.097
-64.1144
-67.5842
-67.1937
-66.9197
-66.682
-66.1317
-65.8127
-65.5401
-65.1492
-65.0726
-64.7794
-64.706
-64.603
-64.4386
-64.3027
-64.1681
-64.1509
-64.0984
-64.1639
-69.0126
-68.566
-67.9422
-67.5503
-67.0933
-66.6208
-66.0953
-65.6901
-65.3746
-65.0122
-64.803
-64.6206
-64.5864
-64.3208
-64.1991
-64.1462
-64.1227
-64.1753
-64.3656
-69.4626
-69.0934
-68.7531
-68.3832
-67.8401
-67.3236
-66.8745
-66.3309
-65.6634
-65.3738
-65.2358
-65.0404
-64.7841
-64.6159
-64.4114
-64.2905
-64.0775
-64.247
-64.4572
-64.6658
-71.9437
-71.6553
-70.7002
-69.9483
-69.0505
-68.3337
-67.7047
-66.8512
-66.0694
-65.5592
-65.416
-65.2898
-64.9491
-64.85
-64.6167
-64.356
-64.2945
-64.2856
-64.6081
-64.8002
-65.1784
-72.3873
-71.9534
-71.4456
-70.8463
-70.3313
-69.3773
-68.6441
-67.7279
-66.6975
-66.2038
-65.8446
-65.5448
-65.4468
-65.0079
-64.7652
-64.5106
-64.2534
-64.4841
-64.973
-65.2668
-65.7966
-66.1941
-74.0184
-72.9954
-72.4714
-71.9107
-71.5529
-70.5734
-69.513
-68.4978
-67.483
-66.8577
-66.4206
-66.0674
-65.7668
-65.3484
-64.993
-64.6697
-64.4956
-64.6471
-65.104
-65.8131
-66.2196
-66.3211
-65.998
-74.4564
-75.0306
-73.4616
-72.224
-71.7591
-71.6126
-70.5879
-69.6615
-68.3647
-67.6813
-67.0587
-66.6868
-66.3986
-65.8672
-65.4311
-65.0056
-64.6268
-64.9084
-65.5859
-66.1429
-66.4696
-66.6433
-66.3596
-66.0327
-73.9263
-73.4405
-72.9255
-72.1331
-71.7855
-71.4293
-71.1469
-70.4806
-69.6196
-68.3717
-68.0548
-67.3877
-67.0614
-66.8844
-66.3351
-65.4824
-65.2156
-65.2788
-65.6648
-66.3501
-66.8055
-67.0814
-66.8573
-66.3341
-66.0816
-74.2171
-73.9776
-73.548
-72.6116
-72.4419
-72.2804
-71.74
-71.1126
-70.3432
-69.2216
-68.7827
-68.1502
-67.6697
-67.561
-67.254
-66.4772
-65.8082
-65.5971
-65.857
-66.5891
-67.1605
-67.4958
-67.2227
-66.8081
-66.3279
-65.8076
-63.2402
-63.4435
-63.6605
-63.3286
-63.5938
-63.7705
-63.9922
-63.3758
-63.7175
-63.9017
-64.1536
-64.2634
-63.5258
-63.8024
-63.9642
-64.0593
-64.2071
-64.2009
-63.5585
-63.7642
-63.9707
-64.0776