/*--------------------------------*- C++ -*----------------------------------*\
  =========                 |
  \\      /  F ield         | OpenFOAM: The Open Source CFD Toolbox
   \\    /   O peration     | Website:  https://openfoam.org
    \\  /    A nd           | Version:  7
     \\/     M anipulation  |
\*---------------------------------------------------------------------------*/
FoamFile
{
    version     2.0;
    format      ascii;
    class       volVectorField;
    location    "3";
    object      U;
}
// * * * * * * * * * * * * * * * * * * * * * * * * * * * * * * * * * * * * * //

dimensions      [0 1 -1 0 0 0 0];

internalField   nonuniform List<vector> 
18870
(
(0.778743 -1.53252 0.0803273)
(0.90707 -1.29 -0.138258)
(0.842333 -1.52125 0.0923631)
(0.604555 -1.7728 -0.23212)
(0.603822 -0.52187 0.152267)
(0.861643 -1.30993 -0.138123)
(0.810304 -1.62766 -0.0289615)
(0.817869 -1.56284 0.0866343)
(0.571765 -1.77575 -0.203989)
(0.110407 -2.12893 -0.131179)
(0.0302903 0.341826 0.775927)
(0.474243 -0.497422 0.175313)
(-0.080935 -1.20783 -0.120173)
(0.840344 -1.29919 -0.142641)
(0.732671 -1.6222 -0.0051743)
(0.0237722 -1.87291 0.0880398)
(0.815069 -1.56864 0.08248)
(0.572378 -1.77501 -0.20079)
(0.11488 -2.12789 -0.133205)
(-0.0855806 -2.09214 -0.374035)
(-0.170969 1.29873 1.43027)
(-0.14656 0.319435 0.845793)
(-0.166809 0.25853 1.10433)
(0.327109 -0.46321 0.193125)
(-0.367409 -1.10452 0.199965)
(-0.590839 -1.33121 0.192734)
(0.74217 -1.34669 -0.140723)
(0.698167 -1.60991 0.0185648)
(-0.0746474 -1.83144 0.137453)
(-0.0974056 -1.81451 -0.0433488)
(0.727276 -1.61886 0.0786502)
(0.55879 -1.79963 -0.179529)
(0.0974509 -2.13621 -0.125123)
(-0.0581048 -2.12347 -0.391675)
(-0.378811 -1.92509 -0.789109)
(-0.219774 1.49732 2.10921)
(-0.483004 1.11817 1.57419)
(-0.836898 1.04193 1.86777)
(-0.398179 0.28881 0.912504)
(-0.229718 0.304323 1.35993)
(-0.698158 0.105299 1.06332)
(0.160296 -0.419195 0.226508)
(-0.0272005 -1.09084 -0.0450263)
(-0.489903 -1.45639 0.132254)
(-0.574747 -1.28148 0.270717)
(0.743529 -1.34439 -0.134293)
(0.623909 -1.6123 0.0297575)
(-0.0926012 -1.79535 0.0700092)
(-0.118809 -1.83087 -0.0746371)
(-0.263709 -1.57506 -0.246305)
(0.732661 -1.6168 0.0840632)
(0.544574 -1.79546 -0.163874)
(0.0947119 -2.14981 -0.119378)
(-0.0846985 -2.11028 -0.363412)
(-0.352329 -1.94232 -0.769401)
(-0.688119 -1.9017 -1.06587)
(-0.917814 1.68429 2.65924)
(-0.15695 1.53934 2.11823)
(-0.62324 1.47263 2.57932)
(-0.702277 0.998375 1.66073)
(-1.02842 0.964784 1.91086)
(-1.35617 0.420853 2.17727)
(-0.441305 0.221643 1.11282)
(-0.48874 0.179586 1.44511)
(-0.828593 0.273928 1.4827)
(-0.975252 -0.046273 1.43845)
(0.0160273 -0.406266 0.23931)
(-0.237888 -1.10083 0.137145)
(-0.554533 -1.38941 0.223395)
(-0.63681 -1.24293 0.312404)
(-0.622218 -1.08926 0.331109)
(0.723476 -1.34026 -0.133683)
(0.563867 -1.63866 0.0499644)
(-0.116651 -1.80013 0.111889)
(-0.25935 -1.73748 -0.244003)
(-0.202884 -1.55224 -0.25455)
(-0.595784 -1.30589 -0.460422)
(0.784483 -1.59581 0.0759945)
(0.523299 -1.80705 -0.15132)
(0.0766753 -2.13126 -0.117682)
(-0.0564936 -2.06476 -0.371782)
(-0.339407 -1.84733 -0.776867)
(-0.670288 -1.89285 -1.08336)
(-1.35222 -1.30238 -0.75498)
(-0.885563 2.49295 3.14591)
(-0.948569 1.77788 2.61136)
(-1.19391 1.92126 2.73394)
(-0.651842 1.40971 2.08483)
(-1.01797 1.39875 2.49312)
(-1.26091 1.35749 2.58837)
(-1.04849 0.739874 1.69209)
(-1.03648 0.926343 2.03389)
(-1.5195 0.37923 2.17852)
(-1.29837 0.41691 2.0551)
(-1.03424 0.161739 0.866504)
(-0.719871 0.131042 1.51077)
(-1.02345 0.25531 1.57653)
(-1.18921 -0.0507552 1.52578)
(-1.364 0.165615 1.11961)
(-0.174968 -0.424636 0.258792)
(-0.365337 -1.00362 0.360803)
(-0.570367 -1.43027 0.259053)
(-0.681684 -1.20717 0.361705)
(-0.627177 -1.07451 0.32206)
(-1.34319 -0.56218 0.839679)
(0.770835 -1.29423 -0.145626)
(0.37373 -1.66254 0.0730013)
(-0.0996655 -1.77808 0.0924915)
(-0.131049 -1.71022 0.00593304)
(-0.232982 -1.54229 -0.274972)
(-0.617609 -1.30134 -0.473819)
(-1.63323 -0.733226 0.0286499)
(0.778669 -1.60865 0.0860891)
(0.506233 -1.82095 -0.127574)
(0.0813276 -2.12748 -0.11915)
(-0.0542627 -2.08943 -0.355881)
(-0.339771 -1.86766 -0.772701)
(-0.662767 -1.89917 -1.08638)
(-1.33403 -1.30625 -0.783312)
(-1.87336 -0.643378 -0.765265)
(-1.34094 3.12222 3.30681)
(-1.23838 2.50216 3.02881)
(-1.1262 2.81101 2.94599)
(-1.38537 1.76655 2.49511)
(-1.61009 1.92993 2.55837)
(-1.3853 2.07569 2.48805)
(-0.765826 1.39309 2.10024)
(-1.1493 1.38189 2.4824)
(-1.39299 1.41495 2.5111)
(-1.04594 1.44101 2.21957)
(-1.21677 0.536821 1.75161)
(-1.34408 0.937079 1.92475)
(-1.68715 0.328857 2.08589)
(-1.49855 0.300241 2.04033)
(-1.40506 0.770933 1.57868)
(-0.893685 0.104862 1.09247)
(-1.07446 0.0418949 1.47742)
(-1.0448 0.285656 1.71056)
(-1.4526 -0.00702228 1.55157)
(-1.35527 0.158943 1.27022)
(-1.33319 0.305609 2.1815)
(-0.338217 -0.431527 0.207437)
(-0.31497 -1.03735 0.215774)
(-0.624769 -1.37721 0.273148)
(-0.651865 -1.19665 0.384205)
(-0.632006 -1.04339 0.344073)
(-1.42911 -0.566448 0.853609)
(-1.86188 0.192009 1.3628)
(0.651253 -1.34932 -0.119579)
(0.587168 -1.57158 0.0158952)
(-0.0667122 -1.70852 0.104273)
(-0.027445 -1.69535 0.346106)
(-0.22687 -1.52279 -0.318944)
(-0.637005 -1.29164 -0.497894)
(-1.63831 -0.726767 0.00358662)
(-2.5245 0.105262 0.190581)
(0.804869 -1.61333 0.108849)
(0.510006 -1.81854 -0.129699)
(0.0800439 -2.1541 -0.115867)
(-0.0466298 -2.11212 -0.352729)
(-0.334541 -1.86265 -0.772369)
(-0.653149 -1.92606 -1.0906)
(-1.31477 -1.30478 -0.814199)
(-1.85221 -0.626286 -0.79182)
(-1.83936 0.285179 -0.745678)
(-1.28697 3.38942 3.31926)
(-1.79657 3.1014 3.27657)
(-1.64502 3.1612 3.43215)
(-1.22453 2.56481 3.04136)
(-1.32866 2.85693 2.95495)
(-1.16398 2.80482 2.83469)
(-1.58584 1.68953 2.48521)
(-1.78512 1.79254 2.60833)
(-1.67354 2.04562 2.36687)
(-1.47841 2.00457 2.26274)
(-0.823428 1.37349 2.07891)
(-1.31361 1.36584 2.45441)
(-1.4448 1.46854 2.47397)
(-0.959257 1.75613 2.21913)
(-1.34943 1.50425 2.11043)
(-1.33586 0.292032 1.69325)
(-1.60579 0.696505 1.89583)
(-1.77353 0.229403 2.03143)
(-1.84504 0.239878 1.87847)
(-1.47464 0.758534 1.62903)
(-1.83225 0.875117 1.5789)
(-0.969246 0.186752 1.11991)
(-1.04984 0.0404416 1.55441)
(-1.31557 0.310092 1.67053)
(-1.3995 0.107152 1.66783)
(-1.47851 0.174106 1.33582)
(-1.69041 0.338 1.94419)
(-2.39688 0.645522 1.01757)
(-0.476252 -0.452532 0.181365)
(-0.439376 -0.987914 0.293538)
(-0.559493 -1.37127 0.212453)
(-0.705601 -1.14124 0.370774)
(-0.636104 -1.02133 0.333775)
(-1.47497 -0.570462 0.847873)
(-1.8858 0.260167 1.40709)
(-2.68884 0.328459 0.121014)
(0.604417 -1.37007 -0.0868635)
(0.464422 -1.60791 0.016713)
(-0.0559126 -1.71284 0.104917)
(-0.255783 -1.67265 -0.269349)
(-0.237169 -1.47702 -0.352178)
(-0.657277 -1.28887 -0.501004)
(-1.64379 -0.730661 -0.00499849)
(-2.53293 0.099284 0.148903)
(-1.80083 0.824204 0.449437)
(0.769787 -1.63869 0.0909708)
(0.498648 -1.81661 -0.119856)
(0.0758735 -2.1566 -0.1168)
(-0.0605971 -2.07872 -0.327441)
(-0.31995 -1.89042 -0.773858)
(-0.642574 -1.95228 -1.09984)
(-1.29743 -1.2989 -0.848712)
(-1.83921 -0.584296 -0.812486)
(-1.84856 0.277452 -0.889468)
(-1.68919 0.53054 -0.498393)
(-1.19949 3.2219 3.57723)
(-1.63843 3.22935 3.39148)
(-1.24889 3.39303 3.42947)
(-1.77162 3.06257 3.30874)
(-1.7876 3.0621 3.45288)
(-1.51727 3.12657 3.44927)
(-1.58938 2.4776 3.0194)
(-1.63789 2.67279 3.06476)
(-1.35102 2.89156 2.89358)
(-1.34729 2.71974 2.78501)
(-1.60601 1.69726 2.6171)
(-1.93187 1.80591 2.5863)
(-1.80491 1.9674 2.42995)
(-1.76198 2.02195 2.27736)
(-1.78358 2.46238 2.22446)
(-1.04437 1.23018 2.03523)
(-1.3479 1.38951 2.40518)
(-1.5502 1.47427 2.35972)
(-1.56847 1.60395 2.03346)
(-1.42375 1.62394 2.11992)
(-1.63278 2.14656 2.06366)
(-1.56853 0.0599079 1.42079)
(-1.86425 0.566567 1.7407)
(-1.78025 0.123118 2.06924)
(-1.83093 0.189934 1.97616)
(-1.66506 0.689558 1.64245)
(-1.93267 0.811664 1.7971)
(-1.95333 1.91544 1.54319)
(-1.22525 0.0750671 0.977674)
(-1.12039 0.0811709 1.49999)
(-1.43161 0.334091 1.64125)
(-1.49021 0.148262 1.62297)
(-1.53068 0.194753 1.4359)
(-1.7404 0.36018 1.9689)
(-2.30407 0.703021 1.01016)
(-1.15378 2.35363 1.28017)
(-0.605441 -0.451523 0.147641)
(-0.488637 -0.981607 0.2946)
(-0.561899 -1.32932 0.164244)
(-0.691329 -1.12151 0.38254)
(-0.649404 -1.00394 0.306372)
(-1.51415 -0.575695 0.828306)
(-1.98864 0.290439 1.39665)
(-2.82356 0.207333 0.00425279)
(-2.16514 0.838503 0.382115)
(0.548358 -1.36902 -0.0590049)
(0.440656 -1.60678 0.0043334)
(-0.0573915 -1.74658 0.079008)
(-0.127846 -1.63838 0.0809434)
(-0.23726 -1.47538 -0.368056)
(-0.668237 -1.28931 -0.513632)
(-1.63196 -0.739966 -0.0323824)
(-2.53175 0.0972487 0.10977)
(-1.85785 0.787948 0.531341)
(-1.79433 0.797328 -0.46265)
(0.783251 -1.62699 0.0920627)
(0.498019 -1.82183 -0.110876)
(0.0643728 -2.14468 -0.116666)
(-0.065402 -2.05307 -0.338238)
(-0.336095 -1.85615 -0.774981)
(-0.642399 -1.93907 -1.12448)
(-1.2854 -1.2939 -0.888738)
(-1.82123 -0.569101 -0.831189)
(-1.87762 0.270625 -0.986881)
(-1.68429 0.516854 -0.499046)
(-1.24515 0.592886 -0.472259)
(-0.84795 3.0521 3.4168)
(-1.30315 3.09003 3.60937)
(-1.30874 3.06831 3.56553)
(-1.86177 2.99541 3.49848)
(-1.27456 3.32647 3.49593)
(-1.36256 3.23119 3.53303)
(-2.07015 2.97235 3.28006)
(-1.92808 2.88431 3.52133)
(-1.87947 3.03444 3.46515)
(-1.5256 3.04997 3.46036)
(-1.85341 2.5286 2.83953)
(-1.81959 2.84825 2.80133)
(-1.83807 2.7559 2.83606)
(-1.54901 2.74168 2.8552)
(-1.87113 2.71236 3.01059)
(-2.08295 1.56104 2.49586)
(-2.24615 1.66686 2.52435)
(-1.94465 1.99281 2.42698)
(-1.88173 2.06335 2.3856)
(-2.00922 2.31593 2.26849)
(-2.19699 2.52709 2.53985)
(-1.18549 1.19511 2.04402)
(-1.48702 1.26958 2.44933)
(-1.65429 1.53152 2.22582)
(-1.79278 1.43068 1.99522)
(-1.70104 1.70823 1.96707)
(-1.73797 2.215 1.9488)
(-2.20106 1.84573 2.48669)
(-1.58049 -0.167927 1.39902)
(-1.89531 0.454777 1.73849)
(-1.99597 0.0383224 1.87287)
(-2.00764 0.163573 1.86166)
(-1.74716 0.537294 1.82515)
(-2.10295 0.622196 1.95755)
(-2.04588 1.79716 1.67276)
(-2.64068 1.52788 1.50849)
(-1.42126 -0.0538564 0.844251)
(-1.38793 -0.0219979 1.30748)
(-1.51905 0.359531 1.58252)
(-1.51027 0.196294 1.58972)
(-1.61458 0.197289 1.49464)
(-1.78432 0.372765 1.99956)
(-2.31683 0.681765 0.980582)
(-0.983606 2.35482 1.36502)
(-1.89423 1.52444 1.10319)
(-0.723821 -0.469526 0.1066)
(-0.541438 -0.979348 0.263407)
(-0.544406 -1.31053 0.107084)
(-0.695736 -1.10119 0.382469)
(-0.666455 -0.996317 0.250941)
(-1.49742 -0.601513 0.819018)
(-1.9283 0.364152 1.60235)
(-2.86 0.0902386 -0.0454247)
(-2.20749 0.805806 0.29648)
(-1.36072 1.45909 1.08328)
(0.56422 -1.35674 -0.0774251)
(0.432308 -1.60571 -0.00393159)
(-0.179927 -1.70778 -0.0651222)
(-0.200961 -1.60892 -0.0465686)
(-0.24553 -1.47451 -0.431438)
(-0.699786 -1.29304 -0.492736)
(-1.66152 -0.758034 -0.0997142)
(-2.53915 0.119032 0.0793637)
(-1.86731 0.798315 0.70466)
(-1.83186 0.788783 -0.508953)
(-1.25953 1.25601 -0.381447)
(0.807122 -1.61923 0.0902015)
(0.509281 -1.84683 -0.100106)
(0.0824854 -2.14528 -0.116165)
(-0.0622786 -2.06081 -0.322386)
(-0.346052 -1.8352 -0.774598)
(-0.621351 -1.93414 -1.14144)
(-1.26824 -1.2818 -0.93762)
(-1.79595 -0.572608 -0.845254)
(-1.9228 0.264424 -1.01541)
(-1.69094 0.529593 -0.495119)
(-1.18981 0.630815 -0.539266)
(-1.3005 0.848373 -0.77121)
(-0.882026 2.80621 3.16779)
(-1.20138 2.87117 3.33554)
(-0.746875 2.83669 3.53294)
(-1.65111 2.92807 3.50506)
(-1.19396 3.07626 3.49724)
(-1.1328 3.05048 3.46976)
(-2.00699 2.99703 3.52045)
(-1.81516 2.97067 3.54991)
(-1.39398 3.18665 3.55613)
(-1.33951 3.30563 3.48621)
(-2.28927 2.84254 3.23389)
(-2.23734 2.7558 3.48192)
(-2.16219 2.92812 3.49079)
(-2.00712 2.85552 3.49215)
(-1.75024 2.86549 3.45565)
(-1.82358 2.64495 2.87475)
(-1.80809 2.81477 2.85378)
(-2.15862 2.65104 2.82412)
(-2.11884 2.40499 2.94827)
(-1.95403 2.62639 3.05614)
(-1.7057 2.91774 3.08261)
(-2.47829 1.21838 2.45654)
(-2.54127 1.52419 2.44096)
(-2.26005 1.9144 2.2622)
(-2.04779 2.14391 2.27942)
(-1.96395 2.45494 2.28714)
(-2.56262 2.2579 2.53337)
(-2.13167 2.94544 2.52217)
(-1.38508 1.09938 2.08586)
(-1.63422 1.40077 2.34297)
(-1.96257 1.43635 2.06732)
(-1.91438 1.52832 1.9872)
(-1.97886 1.48171 2.00527)
(-1.86626 2.26501 1.83477)
(-2.14844 1.79544 2.44939)
(-2.05435 2.23703 2.32369)
(-1.59868 -0.32156 1.36808)
(-2.29928 0.0746662 1.21325)
(-1.96545 -0.104416 1.87472)
(-2.06211 0.125608 1.77791)
(-1.971 0.470997 1.86117)
(-2.13029 0.714326 1.94204)
(-2.10337 1.92904 1.31971)
(-2.60194 1.64209 1.41023)
(-2.07814 2.00225 1.81055)
(-1.43777 -0.102007 0.985788)
(-1.2744 0.138835 1.35092)
(-1.65775 0.378111 1.41073)
(-1.48885 0.292479 1.56374)
(-1.65497 0.291845 1.52304)
(-1.8211 0.406962 2.0046)
(-2.44978 0.736419 0.929214)
(-1.23395 2.33011 1.37453)
(-1.92983 1.47924 1.10639)
(-2.09513 1.42009 1.05586)
(-0.819118 -0.493888 0.0340343)
(-0.618483 -1.00292 0.224026)
(-0.531763 -1.28977 0.002293)
(-0.698624 -1.09741 0.377821)
(-0.690228 -0.993129 0.164908)
(-1.50709 -0.602163 0.749955)
(-2.01821 0.41445 1.64041)
(-2.88332 0.0363365 -0.0873055)
(-2.21344 0.713096 0.155864)
(-1.43183 1.51648 0.912707)
(-1.52401 1.41579 0.632247)
(0.52408 -1.37331 -0.0689104)
(0.412053 -1.61712 -0.000120169)
(0.00223722 -1.68905 0.0275192)
(-0.164636 -1.62344 0.0171932)
(-0.265506 -1.45035 -0.489099)
(-0.721521 -1.30295 -0.475805)
(-1.67482 -0.775446 -0.186548)
(-2.5343 0.112315 0.0776929)
(-1.91506 0.830231 0.702523)
(-1.90258 0.770271 -0.510229)
(-1.28888 1.23742 -0.35905)
(-1.18782 1.27924 -0.120324)
(0.788381 -1.64132 0.0841951)
(0.46846 -1.82482 -0.0847207)
(0.0886419 -2.16349 -0.108423)
(-0.0434307 -2.08007 -0.320793)
(-0.30619 -1.9091 -0.771788)
(-0.609169 -1.9253 -1.1697)
(-1.25435 -1.2723 -0.972313)
(-1.76865 -0.549757 -0.853518)
(-1.9203 0.247416 -1.01659)
(-1.68832 0.52113 -0.492231)
(-1.1766 0.666357 -0.545929)
(-1.26294 0.822612 -0.843779)
(-1.17255 0.504273 -1.1413)
(-0.992671 2.52361 3.14729)
(-1.15274 2.76304 3.16544)
(-0.923441 2.66625 3.28908)
(-1.34619 2.83639 3.33252)
(-1.05014 2.88664 3.26663)
(-1.06384 2.9946 3.09925)
(-1.83541 2.79337 3.4325)
(-1.61458 2.92237 3.39436)
(-1.58378 3.03367 3.24231)
(-1.32013 2.9885 3.30173)
(-2.16475 2.92123 3.51335)
(-1.98277 2.89172 3.58272)
(-1.61539 3.00977 3.59035)
(-1.47239 3.11177 3.50245)
(-1.31297 2.96146 3.52538)
(-2.22791 2.80089 3.23175)
(-2.25162 2.67398 3.49529)
(-2.11435 2.85293 3.55761)
(-2.02665 2.79233 3.497)
(-1.61041 2.76166 3.55413)
(-1.58138 3.02177 3.2146)
(-2.13176 2.43283 3.00172)
(-2.04366 2.63806 2.88527)
(-2.331 2.54164 2.81831)
(-2.11818 2.4794 3.02273)
(-2.11794 2.47382 3.04918)
(-2.07686 2.66246 2.95395)
(-1.82124 2.77783 2.95011)
(-2.61357 1.13555 2.51645)
(-2.72741 1.36151 2.49642)
(-2.44081 1.78827 2.31613)
(-2.23567 1.69304 2.85508)
(-2.24698 2.34768 2.33658)
(-2.70292 2.26314 2.44604)
(-2.2622 2.85615 2.33673)
(-2.25968 2.79557 2.30834)
(-1.40244 1.25997 1.92675)
(-1.74374 1.37694 2.32756)
(-2.2807 1.26281 1.91281)
(-1.90186 1.41683 2.12125)
(-2.26991 1.60321 1.80903)
(-2.13911 2.13327 1.78016)
(-2.33315 1.72222 2.41135)
(-2.22219 2.12786 2.26386)
(-2.05107 2.23521 2.23165)
(-1.58315 -0.459812 1.44412)
(-2.41048 -0.232184 0.896041)
(-1.76253 0.0191589 2.01732)
(-1.87945 0.0916014 1.96472)
(-2.05919 0.459069 1.94305)
(-2.25988 0.733787 1.70788)
(-2.22499 1.8349 0.832117)
(-2.59726 1.75689 1.20609)
(-2.10074 2.04941 1.62994)
(-1.75407 2.352 1.69707)
(-1.54613 -0.0325767 0.856442)
(-1.44265 0.285642 1.00702)
(-1.75594 0.316297 1.20727)
(-1.51714 0.309107 1.45507)
(-1.70129 0.26767 1.53724)
(-2.06127 0.347038 1.89129)
(-2.51533 0.69958 1.04315)
(-1.34003 2.20855 1.56495)
(-1.85085 1.55964 1.16536)
(-2.12903 1.3558 1.00057)
(-1.61617 1.70985 1.36457)
(-0.952706 -0.500023 -0.0685003)
(-0.698479 -1.03294 0.155686)
(-0.520011 -1.26871 -0.0907756)
(-0.694072 -1.10849 0.357353)
(-0.693494 -0.983047 0.127928)
(-1.42577 -0.600519 0.602833)
(-2.23506 0.372358 1.45786)
(-2.8904 -0.0535253 -0.0795401)
(-2.25027 0.647153 0.0555824)
(-1.4407 1.50591 0.864501)
(-1.50227 1.44643 0.555242)
(-1.09468 1.55199 0.715901)
(0.455465 -1.36514 -0.0401547)
(0.350391 -1.61965 0.00851989)
(-0.0705271 -1.68563 -0.0286162)
(-0.233063 -1.60348 -0.130956)
(-0.257613 -1.4544 -0.486883)
(-0.761585 -1.30687 -0.490713)
(-1.66929 -0.789015 -0.271628)
(-2.47643 0.164259 0.136761)
(-1.93908 0.847226 0.723722)
(-1.95689 0.767165 -0.481893)
(-1.2836 1.25569 -0.342128)
(-1.17233 1.29384 -0.098114)
(-1.15057 1.1989 -0.442066)
(0.82323 -1.62877 0.0918742)
(0.472799 -1.82025 -0.0812261)
(0.0893589 -2.1844 -0.0865791)
(-0.0610231 -2.05526 -0.303028)
(-0.322451 -1.93222 -0.695332)
(-0.604019 -1.93151 -1.15701)
(-1.23482 -1.2635 -1.02108)
(-1.74041 -0.52712 -0.883773)
(-1.93053 0.233554 -0.921195)
(-1.68646 0.51151 -0.48656)
(-1.15941 0.666074 -0.549028)
(-1.27522 0.881826 -0.819463)
(-1.17859 0.508133 -1.14435)
(-0.744057 1.25309 -0.65024)
(-0.908897 2.31219 3.18625)
(-1.09866 2.51942 3.12054)
(-0.907901 2.50741 3.13932)
(-1.30198 2.693 3.13963)
(-1.11953 2.67725 3.24888)
(-0.862887 2.64433 3.37653)
(-1.51348 2.71684 3.30908)
(-1.23651 2.86237 3.19905)
(-1.47151 2.70852 3.17818)
(-1.14892 2.53487 3.38275)
(-1.79567 2.68662 3.36605)
(-1.7754 2.76647 3.33658)
(-1.7669 3.04128 3.11491)
(-1.36889 2.93631 3.2942)
(-1.22364 2.8986 3.18788)
(-1.96385 2.87416 3.56774)
(-1.91721 2.72146 3.67926)
(-1.81614 2.97009 3.44176)
(-1.57647 2.9421 3.46426)
(-1.2671 2.98841 3.36568)
(-1.40802 2.91692 3.12789)
(-2.56871 2.43498 3.22045)
(-2.33533 2.532 3.44259)
(-2.18612 2.68953 3.48562)
(-1.9177 2.57885 3.57871)
(-1.93522 2.54937 3.41866)
(-2.06486 2.83832 3.00517)
(-1.59556 2.79281 3.05292)
(-2.60945 2.02326 3.07573)
(-2.51447 2.29538 2.85332)
(-2.42821 2.36763 2.81936)
(-2.58285 2.17323 2.94879)
(-2.49633 2.21862 3.07478)
(-2.27018 2.61908 2.83516)
(-2.01947 2.68247 2.72681)
(-1.96663 2.39313 2.89943)
(-2.79751 0.997836 2.49814)
(-2.89514 1.29416 2.51199)
(-2.6707 1.71349 2.32501)
(-2.73437 2.14245 2.12202)
(-2.47271 2.32431 2.15854)
(-2.70959 2.30748 2.44072)
(-2.46571 2.81286 2.21321)
(-2.43986 2.66147 2.26612)
(-1.84779 2.75644 2.23086)
(-1.73701 1.09158 1.63107)
(-1.82987 1.38052 2.30289)
(-2.45134 1.18117 1.86229)
(-2.31555 1.19659 1.94412)
(-2.40966 1.36574 2.00719)
(-2.12692 2.20576 1.81185)
(-2.40487 1.70834 2.38728)
(-2.10378 2.23369 2.26378)
(-2.18762 2.20562 2.14665)
(-1.70697 2.32828 2.01855)
(-1.64738 -0.656004 1.42992)
(-2.42187 -0.382968 0.61845)
(-1.86482 -0.0433488 1.88892)
(-1.94487 0.285603 1.80519)
(-2.05712 0.408794 2.04693)
(-2.38554 0.768746 1.44748)
(-2.20911 1.8324 0.468808)
(-2.37524 1.84077 1.31689)
(-2.0235 2.16733 1.59712)
(-1.71864 2.53985 1.11723)
(-1.24066 2.52683 1.27302)
(-1.5133 0.0245237 0.861625)
(-1.49254 0.326947 0.910763)
(-1.88165 0.29628 0.808438)
(-1.52705 0.332545 1.40759)
(-1.7478 0.35469 1.4671)
(-2.02969 0.469799 1.98289)
(-2.55508 0.618164 1.07342)
(-1.30115 2.11883 1.68525)
(-1.97991 1.3458 1.13465)
(-2.13893 1.31578 1.01577)
(-1.60605 1.68442 1.42131)
(-1.07564 1.85451 1.13437)
(-0.974184 -0.591159 -0.0657597)
(-0.763885 -1.06831 0.174633)
(-0.516435 -1.27102 -0.128137)
(-0.685549 -1.12097 0.352807)
(-0.71579 -0.984465 0.0669346)
(-1.40478 -0.643167 0.446959)
(-2.36302 0.320851 1.30206)
(-2.77321 -0.0434307 0.0612783)
(-2.31405 0.565728 0.036094)
(-1.41911 1.50848 0.853897)
(-1.50146 1.44807 0.545363)
(-1.0861 1.51633 0.771008)
(-0.971279 1.67564 0.545637)
(0.434836 -1.38523 -0.031457)
(0.24582 -1.68527 0.025248)
(-0.0247443 -1.70085 -0.0680676)
(-0.208693 -1.59541 -0.0363104)
(-0.293582 -1.43483 -0.537554)
(-0.754817 -1.30767 -0.563291)
(-1.65378 -0.805111 -0.346519)
(-2.39791 0.157762 0.244843)
(-2.033 0.822891 0.556021)
(-1.99112 0.748834 -0.477437)
(-1.35037 1.21272 -0.325669)
(-1.2026 1.27835 -0.089414)
(-1.03918 1.30099 -0.462843)
(-0.507532 1.84103 -0.163701)
(0.807457 -1.63164 0.0867978)
(0.527475 -1.85799 -0.0622569)
(0.0742618 -2.18701 -0.0904857)
(-0.0705389 -2.04636 -0.294191)
(-0.34458 -1.84349 -0.728308)
(-0.602898 -1.93409 -1.1726)
(-1.22519 -1.24785 -1.0617)
(-1.73105 -0.50768 -0.956399)
(-1.88152 0.22105 -0.904001)
(-1.68801 0.516907 -0.483215)
(-1.15422 0.684962 -0.548519)
(-1.2565 0.872147 -0.824796)
(-1.15903 0.529107 -1.08819)
(-0.779914 1.22425 -0.67826)
(-1.14129 1.03809 -0.742713)
(-0.815329 2.38018 2.84976)
(-1.05512 2.28185 3.15617)
(-0.871428 2.42043 3.05405)
(-1.18997 2.43192 3.06764)
(-1.05557 2.43692 3.11107)
(-0.988431 2.48968 3.12068)
(-0.984433 2.8847 2.98388)
(-1.15688 2.62175 3.18133)
(-0.975388 2.63975 3.26571)
(-0.724268 2.54509 3.34313)
(-1.71292 2.35694 3.25399)
(-1.40002 2.62872 3.1112)
(-1.50511 2.5623 3.16309)
(-1.01538 2.40909 3.45218)
(-1.08424 2.59917 3.14296)
(-1.87683 2.67249 3.26793)
(-1.76596 2.78993 3.19218)
(-1.59221 3.10952 2.99154)
(-1.33322 2.91302 3.22812)
(-1.05896 3.05216 3.08773)
(-1.1737 2.98043 2.93589)
(-2.31033 2.58387 3.51772)
(-1.98442 2.71792 3.58778)
(-1.8813 2.77927 3.44393)
(-1.97244 2.7834 3.22475)
(-1.55639 2.74732 3.28522)
(-1.57243 2.82985 3.01217)
(-1.30684 2.75287 2.87704)
(-2.72245 2.32487 3.16796)
(-2.73027 2.20716 3.28729)
(-2.29457 2.62368 3.33155)
(-2.42165 2.42661 3.24288)
(-2.06025 2.63408 3.17563)
(-2.22966 2.79019 2.87145)
(-1.87412 2.66842 2.92678)
(-1.37161 2.58618 2.83015)
(-2.84245 1.92838 3.04536)
(-2.57276 2.29367 2.92507)
(-2.50905 2.1536 3.0287)
(-2.71458 2.10866 2.90802)
(-2.26108 2.77233 2.72099)
(-2.53545 2.45558 2.79082)
(-2.00744 2.65646 2.75261)
(-2.07919 2.33767 2.7274)
(-1.75771 2.5964 2.39674)
(-2.96341 0.901094 2.47824)
(-3.09836 1.17688 2.55508)
(-2.79332 1.67557 2.38966)
(-2.77557 1.9821 2.10591)
(-2.61293 2.23932 2.08442)
(-2.72945 2.33748 2.23474)
(-2.64858 2.70156 2.09822)
(-2.19058 2.8583 2.19269)
(-1.96709 2.72262 2.16684)
(-1.59571 2.80006 1.97957)
(-1.88285 0.999612 1.60727)
(-2.08072 1.23899 2.1948)
(-2.74218 1.07217 1.72023)
(-2.4945 1.01372 2.07416)
(-2.61305 1.34187 1.97016)
(-2.22902 2.04093 1.91395)
(-2.33678 1.68829 2.37074)
(-2.21077 2.07399 2.18188)
(-2.11854 2.1814 2.11217)
(-1.7227 2.3586 2.05878)
(-1.15298 2.24456 2.17317)
(-1.70674 -0.716202 1.42942)
(-2.27478 -0.436419 0.736997)
(-1.73384 -0.193052 1.96014)
(-1.95281 0.138481 1.79547)
(-2.19647 0.510474 1.87454)
(-2.48276 0.701657 1.44393)
(-2.16941 1.83694 0.399192)
(-2.42895 1.75136 1.24347)
(-2.03986 2.19329 1.45925)
(-1.55457 2.36729 1.06508)
(-1.43288 2.21704 1.57568)
(-1.08859 2.19631 1.41305)
(-1.50233 0.0748286 0.879252)
(-1.64648 0.401336 0.699224)
(-1.88201 0.14052 0.70254)
(-1.53759 0.248945 1.40563)
(-1.75837 0.255832 1.51286)
(-2.05586 0.576604 1.98379)
(-2.55776 0.63735 1.0727)
(-1.7392 1.77589 1.34127)
(-2.11208 1.22415 1.06255)
(-2.16052 1.24732 1.06176)
(-1.63054 1.64807 1.44491)
(-1.16272 1.80735 1.11866)
(-0.938105 1.72299 1.36729)
(-1.06067 -0.684161 -0.140208)
(-0.770727 -1.23358 0.151321)
(-0.478247 -1.29616 -0.218805)
(-0.68534 -1.13344 0.337907)
(-0.719002 -0.980857 -0.0223724)
(-1.39147 -0.703496 0.296199)
(-2.33788 0.368854 1.33234)
(-2.48785 0.103575 0.611067)
(-2.26267 0.558726 0.0931083)
(-1.39684 1.53271 0.897551)
(-1.53439 1.44148 0.493049)
(-1.14573 1.48962 0.780315)
(-0.975949 1.65315 0.519674)
(-1.06239 1.65978 0.465355)
(0.4648 -1.518 0.0238601)
(0.340119 -1.75867 0.00733068)
(-0.0448351 -1.71675 -0.146728)
(-0.202929 -1.60169 -0.0265792)
(-0.297767 -1.43992 -0.531265)
(-0.732755 -1.32289 -0.676562)
(-1.64602 -0.835966 -0.420275)
(-2.31472 0.234196 0.383398)
(-2.07642 0.847867 0.518178)
(-2.02995 0.71585 -0.463775)
(-1.27621 1.2822 -0.246587)
(-1.18547 1.26408 -0.0414476)
(-1.0502 1.24737 -0.429044)
(-0.570187 1.79255 -0.0941528)
(-0.269883 1.82146 0.853881)
(0.842339 -1.63827 0.0899994)
(0.483854 -1.85983 -0.0317969)
(0.0758594 -2.18031 -0.090647)
(-0.0276009 -2.08942 -0.271986)
(-0.349955 -1.87065 -0.690361)
(-0.600757 -1.9094 -1.21159)
(-1.21361 -1.23215 -1.10663)
(-1.72447 -0.516042 -1.08358)
(-1.91824 0.188682 -0.793981)
(-1.68722 0.514965 -0.480166)
(-1.14342 0.660398 -0.548454)
(-1.25386 0.876434 -0.792003)
(-1.16888 0.493839 -1.06412)
(-0.794096 1.22019 -0.694438)
(-1.23965 0.995782 -0.872965)
(-1.2435 0.294738 -0.626184)
(-0.714544 2.18213 2.80651)
(-0.932629 2.32395 2.85341)
(-0.638296 2.27058 2.93975)
(-1.14728 2.22994 3.15407)
(-0.983889 2.30686 3.08739)
(-0.823253 2.30192 3.05879)
(-1.40226 2.37964 2.94167)
(-1.21481 2.40233 3.03395)
(-1.08634 2.43014 3.11317)
(-0.669319 2.36731 3.23289)
(-1.42886 2.64624 3.03028)
(-1.35467 2.5883 3.06006)
(-1.1751 2.55728 3.13542)
(-0.90784 2.5495 3.12592)
(-0.906458 2.59226 2.9797)
(-1.81016 2.30394 3.24033)
(-1.67315 2.44399 3.03381)
(-1.4272 2.42086 3.1559)
(-1.19411 2.37779 3.30611)
(-1.07717 2.71224 2.9517)
(-0.990324 2.60216 3.0224)
(-2.06568 2.63731 3.28705)
(-1.90249 2.79377 3.18253)
(-1.71006 2.8995 3.08276)
(-1.41022 2.73277 3.31128)
(-1.29943 3.03439 2.95087)
(-1.48254 2.69415 2.97682)
(-1.0607 2.70276 2.94832)
(-2.61138 2.32722 3.43215)
(-2.51612 2.25292 3.49521)
(-2.03445 2.80617 3.26254)
(-2.16907 2.52293 3.18881)
(-1.84641 2.60246 3.08948)
(-1.56186 2.85088 2.87253)
(-1.22165 2.66128 2.83672)
(-1.37024 2.64103 2.45379)
(-2.85702 2.12682 3.20497)
(-2.83928 2.12788 3.2586)
(-2.785 2.13797 3.24143)
(-2.73512 2.20518 3.05937)
(-2.44995 2.40964 2.92834)
(-2.33377 2.70985 2.58468)
(-1.62957 2.57412 2.8981)
(-1.48543 2.50026 2.7357)
(-1.28257 2.67651 2.24896)
(-3.06884 1.6082 3.13847)
(-2.91132 1.99763 2.90598)
(-2.95432 2.06624 2.71441)
(-2.73865 2.03883 2.89949)
(-2.83755 1.81935 2.91569)
(-2.50778 2.40325 2.65966)
(-2.13393 2.29955 2.93265)
(-2.16346 2.14701 2.6434)
(-1.70821 2.64342 2.3269)
(-1.43635 2.25161 2.63074)
(-3.04339 0.869096 2.54072)
(-3.33882 1.07358 2.52468)
(-3.01731 1.59478 2.35949)
(-2.77329 1.91732 2.15144)
(-2.65157 2.2488 2.05474)
(-2.77244 2.36123 2.15124)
(-2.64798 2.53107 2.03074)
(-2.21955 2.76586 2.00054)
(-2.04639 2.62261 2.09895)
(-1.48498 2.79633 2.01064)
(-0.847676 2.66224 2.08638)
(-2.17909 0.877068 1.56689)
(-2.2703 1.07168 2.10993)
(-2.98629 0.781668 1.73191)
(-2.55114 1.0594 2.14113)
(-2.67178 1.2566 2.053)
(-2.28921 1.98943 1.91385)
(-2.47133 1.51997 2.28127)
(-2.36253 1.92321 2.1252)
(-2.14763 2.09403 2.15454)
(-1.63709 2.40543 2.04615)
(-1.384 2.31618 2.1268)
(-0.709519 2.57427 1.77236)
(-1.74705 -0.827814 1.44903)
(-2.19185 -0.469229 0.907869)
(-1.79561 -0.109536 1.79582)
(-2.00504 0.331718 1.67987)
(-2.18457 0.504975 1.87421)
(-2.55989 0.7091 1.51844)
(-2.17909 1.74357 0.499289)
(-2.27362 1.968 1.14162)
(-1.77157 2.26568 1.5453)
(-1.51455 2.249 1.19608)
(-1.28699 2.35814 1.40424)
(-1.05337 2.13237 1.51067)
(-0.813213 2.16592 1.47302)
(-1.60009 0.100922 0.885813)
(-1.80578 0.38726 0.589289)
(-1.8209 0.553334 0.0764232)
(-1.62203 0.174986 1.26327)
(-1.86777 0.311928 1.43525)
(-2.13096 0.578318 1.92803)
(-2.5577 0.553383 1.17479)
(-2.08446 1.48377 1.08298)
(-2.20167 1.13143 1.00103)
(-2.2354 1.14464 1.04905)
(-1.74393 1.54024 1.38676)
(-1.21918 1.77851 1.09547)
(-0.998761 1.68714 1.39741)
(-0.885779 1.71036 1.51271)
(-1.3433 -0.879341 -0.307518)
(-1.0618 -1.4443 0.293644)
(-0.480707 -1.34163 -0.195279)
(-0.671527 -1.17054 0.337449)
(-0.729067 -0.99718 -0.0746291)
(-1.38262 -0.765394 0.208696)
(-2.45206 0.162794 1.15023)
(-2.40377 0.142721 0.857073)
(-2.22286 0.516563 0.124074)
(-1.42506 1.53441 0.852905)
(-1.50513 1.45605 0.425791)
(-0.835991 1.64023 0.763022)
(-0.931537 1.67517 0.597712)
(-1.05557 1.66787 0.451554)
(-0.694518 2.0455 0.488499)
(0.293472 -1.517 0.0256578)
(0.140928 -1.74933 0.0378623)
(-0.0445507 -1.74359 -0.125669)
(-0.25032 -1.59991 -0.130839)
(-0.323922 -1.43495 -0.539018)
(-0.728188 -1.3252 -0.808361)
(-1.61372 -0.86171 -0.506803)
(-2.20759 0.24168 0.642959)
(-2.15069 0.824103 0.368229)
(-2.052 0.705006 -0.461061)
(-1.34717 1.18359 -0.302759)
(-1.18878 1.21567 -0.0660861)
(-1.13645 1.18647 -0.328658)
(-0.560697 1.80249 -0.117108)
(-0.527062 1.74554 0.695611)
(-1.20843 0.385687 0.690198)
(0.855871 -1.6197 0.104555)
(0.465512 -1.80967 -0.0562931)
(0.0882412 -2.17478 -0.0864541)
(-0.0289555 -2.08978 -0.231285)
(-0.343852 -1.87796 -0.661785)
(-0.609597 -1.91993 -1.18841)
(-1.21503 -1.2106 -1.14692)
(-1.73043 -0.526096 -1.25411)
(-1.94037 0.198531 -0.773272)
(-1.68641 0.523445 -0.480981)
(-1.13221 0.67226 -0.550345)
(-1.26431 0.892014 -0.781304)
(-1.17693 0.492032 -1.0785)
(-0.816627 1.19404 -0.728363)
(-1.29395 0.966169 -0.960118)
(-1.25602 0.286811 -0.49385)
(-1.02451 0.65952 -0.648572)
(-0.752277 2.01607 2.68137)
(-0.866563 2.13918 2.76934)
(-0.754694 2.14897 2.79218)
(-0.988111 2.32304 2.83869)
(-0.786043 2.33354 2.81846)
(-0.793083 2.23837 2.79518)
(-1.23832 2.20187 3.09907)
(-1.10976 2.25256 3.02917)
(-0.87873 2.26748 3.04939)
(-0.585163 2.39482 2.98963)
(-1.39004 2.40966 2.98168)
(-1.31501 2.31922 3.1118)
(-1.1443 2.32455 3.18156)
(-1.02982 2.22547 3.23354)
(-0.737986 2.51386 2.95075)
(-1.60344 2.57326 2.96438)
(-1.46368 2.55522 2.99137)
(-1.32471 2.47621 3.04072)
(-1.1367 2.55551 2.9921)
(-1.04161 2.51472 2.99001)
(-0.845424 2.39376 2.98513)
(-1.88662 2.27065 3.19124)
(-1.72379 2.46469 2.99909)
(-1.62338 2.3722 3.06028)
(-1.51602 2.37077 3.13715)
(-1.18403 2.69416 2.94631)
(-0.948838 2.39366 3.19979)
(-0.385574 2.38082 3.14928)
(-2.15803 2.52032 3.22303)
(-1.98194 2.78912 3.13008)
(-1.81576 2.81611 3.08906)
(-1.54453 2.6662 3.30319)
(-1.63222 2.83923 2.97848)
(-1.28053 2.69481 2.99798)
(-0.443025 2.80798 2.8356)
(-0.780151 2.84512 2.49657)
(-2.67842 1.98003 3.46474)
(-2.63767 2.05836 3.39201)
(-2.37727 2.44406 3.14822)
(-2.19842 2.44947 3.04542)
(-1.94747 2.59904 2.78678)
(-1.7594 2.56015 2.72451)
(-1.24079 2.46231 2.81447)
(-1.43875 2.4858 2.39894)
(-1.14176 2.46094 2.35199)
(-3.02338 1.89167 3.23725)
(-3.02665 2.09736 3.1189)
(-3.0705 2.02761 3.02931)
(-2.72578 2.04293 3.12856)
(-2.05253 2.55943 2.99263)
(-1.86718 2.47832 3.01311)
(-1.6309 2.2801 2.89155)
(-1.64959 2.39701 2.58785)
(-1.57315 2.48701 2.21879)
(-1.15374 2.15427 2.50936)
(-3.31587 1.4285 3.1192)
(-3.05749 1.81852 2.96995)
(-2.98969 1.97678 2.75042)
(-2.87911 2.03458 2.7236)
(-2.90273 1.94462 2.84381)
(-2.58657 2.14464 2.7139)
(-2.04793 2.3663 2.80131)
(-1.99705 2.15097 2.73976)
(-1.78992 2.47347 2.2176)
(-1.4079 2.28429 2.52253)
(-0.780444 2.58481 2.29294)
(-3.21074 0.734716 2.46979)
(-3.4636 0.957585 2.56866)
(-3.18775 1.50056 2.45518)