/*--------------------------------*- C++ -*----------------------------------*\
  =========                 |
  \\      /  F ield         | OpenFOAM: The Open Source CFD Toolbox
   \\    /   O peration     | Website:  https://openfoam.org
    \\  /    A nd           | Version:  7
     \\/     M anipulation  |
\*---------------------------------------------------------------------------*/
FoamFile
{
    version     2.0;
    format      ascii;
    class       volScalarField;
    location    "2.5";
    object      p;
}
// * * * * * * * * * * * * * * * * * * * * * * * * * * * * * * * * * * * * * //

dimensions      [0 2 -2 0 0 0 0];

internalField   nonuniform List<scalar> 
18750
(
-64.7596
-65.8765
-66.9123
-64.622
-64.6624
-66.6693
-65.8283
-68.5508
-66.8679
-64.5806
-65.0016
-62.0991
-64.4658
-68.9563
-66.6127
-65.7943
-68.9372
-68.5241
-66.8451
-64.5617
-64.1701
-67.0817
-63.9952
-68.5304
-53.378
-64.4457
-69.1037
-68.9361
-66.7231
-65.8079
-69.0069
-68.9506
-68.4991
-66.8471
-64.6142
-63.6676
-66.0028
-63.923
-67.043
-66.8337
-63.726
-68.9227
-68.5767
-61.0162
-64.5098
-68.874
-69.1157
-68.9085
-66.74
-65.8745
-69.2899
-69.0173
-68.9586
-68.4776
-66.8907
-64.7875
-61.6844
-65.7723
-63.7093
-66.7572
-65.2081
-63.4853
-67.5901
-67.0452
-66.728
-63.7518
-69.1604
-69.039
-68.646
-61.2029
-64.6532
-69.1113
-68.9352
-69.108
-68.8872
-66.705
-65.97
-69.5794
-69.2982
-69.0266
-68.962
-68.4605
-66.9494
-65.0632
-61.1394
-63.0568
-61.6023
-65.4218
-65.788
-63.3998
-66.3714
-67.5765
-65.6132
-63.2892
-68.3418
-67.6137
-67.2471
-67.0304
-64.2076
-69.2458
-69.3388
-69.1381
-68.7187
-63.3249
-64.8262
-69.3302
-69.1514
-68.9893
-69.0827
-68.8709
-66.737
-66.1068
-69.67
-69.5773
-69.3086
-69.0348
-68.9617
-68.4465
-67.0226
-65.4015
-60.2603
-62.1608
-61.2623
-64.239
-63.2598
-62.5093
-65.5474
-66.1944
-66.4716
-63.5336
-66.4298
-66.737
-68.3703
-66.7698
-63.7906
-69.0959
-68.2781
-67.6769
-67.4706
-67.2971
-64.8832
-69.1434
-69.394
-69.507
-69.235
-68.7459
-64.26
-64.9824
-69.6222
-69.3404
-69.1969
-69.0308
-69.0525
-68.8642
-66.8475
-66.2626
-69.8568
-69.6635
-69.5746
-69.3204
-69.0422
-68.9579
-68.4372
-67.1145
-65.7483
-59.2029
-60.5351
-60.3466
-62.7513
-62.4128
-61.3973
-64.3358
-64.2187
-63.0993
-62.5439
-65.7795
-65.8788
-66.4968
-67.1558
-63.5088
-67.4343
-66.2795
-67.2746
-69.0652
-67.5138
-64.9043
-69.2721
-68.9965
-68.2604
-67.7313
-67.6971
-67.2372
-65.5306
-69.0757
-69.1853
-69.5313
-69.6452
-69.3395
-68.8232
-64.8368
-65.1233
-70.0546
-69.5812
-69.3512
-69.242
-69.0629
-69.0283
-68.8636
-66.9801
-66.4117
-70.2158
-69.8431
-69.6586
-69.5722
-69.3338
-69.0472
-68.9541
-68.4319
-67.2256
-66.0585
-58.4276
-59.3924
-59.2962
-60.5639
-60.5595
-60.4156
-62.5235
-62.5366
-62.2962
-61.4999
-64.5778
-64.4299
-64.1496
-62.9376
-62.2802
-66.7788
-65.8656
-66.5994
-67.4084
-67.4536
-63.6089
-68.3048
-67.4759
-66.2819
-67.8672
-69.8813
-67.9786
-66.3556
-69.3027
-69.1319
-68.8821
-68.2353
-67.8015
-67.9771
-67.2252
-66.0608
-69.8715
-68.9757
-69.1892
-69.6669
-69.761
-69.3634
-69.0206
-65.1722
-65.3039
-70.361
-69.9851
-69.5456
-69.3604
-69.2793
-69.0862
-69.0187
-68.8214
-67.1359
-66.5507
-70.2736
-70.1972
-69.8329
-69.6567
-69.5692
-69.3484
-69.047
-68.9498
-68.431
-67.333
-66.3119
-58.7046
-58.4027
-59.6202
-59.4001
-59.3713
-60.7357
-61.0519
-60.5473
-60.3003
-62.833
-62.6731
-62.4657
-62.4165
-61.5169
-65.4448
-64.5309
-64.6542
-64.5212
-63.3042
-62.5406
-66.9836
-66.7593
-66.3033
-67.5547
-68.5516
-67.7576
-64.2401
-68.3382
-68.2606
-67.4716
-66.6885
-68.7315
-70.617
-68.3323
-67.7906
-70.0087
-69.1143
-68.9173
-68.766
-68.2627
-67.8426
-68.1509
-67.2277
-66.4097
-70.8063
-69.6985
-68.874
-69.1074
-69.7426
-69.8123
-69.3285
-69.0288
-65.5024
-65.5012
-70.545
-70.2695
-69.915
-69.5186
-69.3722
-69.3061
-69.0973
-69.0119
-68.7198
-67.2118
-66.6712
-70.3724
-70.2463
-70.1627
-69.824
-69.658
-69.5653
-69.368
-69.042
-68.943
-68.4259
-67.4273
-66.5043
-57.8305
-58.6968
-58.5519
-58.5114
-59.5814
-59.7309
-59.5654
-59.36
-61.2009
-61.3675
-60.9663
-60.5633
-60.3336
-63.0419
-62.775
-62.5159
-62.0887
-62.3479
-61.4113
-65.2775
-65.4123
-64.7135
-64.8086
-65.1774
-63.7693
-62.6411
-67.0393
-66.8215
-66.5847
-66.9146
-68.06
-69.5046
-67.9939
-64.4934
-69.103
-68.1771
-68.3252
-67.5045
-67.17
-69.5232
-70.7141
-68.9309
-68.9
-70.8337
-69.7837
-68.9446
-68.6637
-68.7034
-68.2864
-67.8816
-68.096
-67.2785
-66.4
-71.4336
-70.5657
-69.5467
-68.7889
-68.9927
-69.7367
-69.8096
-69.2589
-68.7253
-65.8878
-65.6289
-70.8878
-70.4608
-70.1927
-69.8518
-69.4963
-69.3843
-69.3261
-69.1146
-69.0017
-68.621
-67.1419
-66.7693
-70.3151
-70.3587
-70.2363
-70.129
-69.8159
-69.6608
-69.562
-69.3918
-69.0462
-68.9369
-68.4161
-67.5081
-66.6414
-57.4153
-57.8514
-57.8008
-58.8726
-58.6242
-58.5627
-58.5678
-59.5933
-59.7665
-59.7767
-59.4823
-59.3288
-61.3332
-61.2907
-61.3167
-60.8329
-60.667
-60.3343
-63.3629
-63.0978
-62.8393
-62.7353
-62.2726
-61.9687
-61.3592
-65.1649
-65.2412
-65.2024
-65.0253
-64.6913
-65.3107
-64.2608
-62.3887
-67.3285
-66.8364
-66.9002
-66.6749
-67.3824
-68.3828
-70.1011
-68.1969
-64.0414
-69.9196
-68.8458
-68.1735
-68.3264
-67.6677
-67.7765
-70.3481
-70.6919
-69.114
-68.6654
-71.5653
-70.5758
-69.552
-68.7715
-68.4303
-68.7571
-68.309
-67.914
-67.9244
-66.9599
-65.8097
-71.9408
-71.0757
-70.3479
-69.4636
-68.7116
-68.8779
-69.7303
-69.7785
-69.1655
-68.4331
-66.0808
-65.8067
-71.187
-70.8088
-70.3752
-70.1191
-69.8091
-69.4817
-69.3894
-69.3425
-69.122
-68.9798
-68.5104
-67.1116
-66.8637
-70.1804
-70.3055
-70.3455
-70.2175
-70.0986
-69.8092
-69.6652
-69.5592
-69.4062
-69.0581
-68.932
-68.4186
-67.5685
-66.7283
-56.9441
-57.4411
-57.4772
-57.9639
-57.8483
-57.8203
-58.7676
-58.8815
-58.6866
-58.578
-58.5373
-59.8848
-59.7268
-59.8152
-59.7624
-59.4967
-59.4016
-61.658
-61.2762
-61.3836
-61.1815
-60.8431
-60.5274
-60.1716
-63.9313
-63.1263
-62.8668
-62.9862
-62.9159
-62.1783
-61.5949
-61.1655
-65.2226
-65.2233
-65.4207
-65.0271
-65.0446
-65.1459
-65.2852
-64.2195
-62.0627
-67.9255
-66.9911
-66.591
-67.1354
-67.0052
-68.0695
-69.3571
-69.6509
-67.7644
-63.5851
-70.7045
-69.6129
-68.5441
-68.1085
-68.1826
-67.972
-68.5485
-70.6521
-70.1802
-68.6755
-67.4098
-72.3017
-71.2916
-70.2559
-69.3405
-68.5714
-68.3207
-68.8152
-68.3903
-67.8187
-67.6892
-66.4053
-65.0289
-72.2842
-71.6852
-70.7899
-70.131
-69.434
-68.661
-68.8287
-69.7133
-69.6777
-69.0449
-68.193
-66.2763
-66.0562
-71.097
-71.1162
-70.7318
-70.2833
-70.0465
-69.7767
-69.4741
-69.3834
-69.3526
-69.116
-68.9606
-68.3947
-67.1613
-66.957
-70.0573
-70.1775
-70.2923
-70.3278
-70.1998
-70.072
-69.8033
-69.6708
-69.5567
-69.4125
-69.0695
-68.9275
-68.4287
-67.5867
-66.7825
-57.0206
-57.0787
-57.4687
-57.5321
-57.4663
-58.0071
-57.9771
-57.8761
-57.841
-58.917
-58.861
-58.8567
-58.6241
-58.446
-58.5212
-59.986
-59.7681
-59.872
-59.859
-59.5536
-59.4865
-59.469
-62.2092
-61.4603
-61.1441
-61.431
-61.137
-60.8621
-60.3635
-60.0376
-64.2697
-63.4737
-63.0671
-62.9904
-63.265
-63.0432
-62.0758
-61.4442
-61.126
-66.3215
-65.8476
-65.2625
-65.4898
-65.2486
-65.1849
-65.6866
-64.8743
-63.8594
-61.4614
-68.5693
-67.7876
-66.8832
-66.5788
-67.1048
-67.3201
-68.5916
-70.1665
-68.7481
-66.9256
-63.5935
-71.3433
-70.2954
-69.2745
-68.2283
-67.9521
-68.3912
-68.4362
-69.1914
-70.6227
-69.3936
-67.8861
-66.0617
-73.2577
-72.13
-71.0498
-69.9429
-69.0631
-68.4557
-68.3949
-68.8473
-68.4535
-67.7226
-67.5019
-66.107
-65.1709
-72.3603
-72.1121
-71.3847
-70.4635
-69.9564
-69.4198
-68.632
-68.8353
-69.68
-69.4728
-68.8638
-67.9589
-66.5125
-66.353
-70.7751
-71.0492
-71.0342
-70.6514
-70.1937
-69.9878
-69.7457
-69.4738
-69.3768
-69.3525
-69.1
-68.9464
-68.3252
-67.2197
-67.0616
-69.7675
-70.064
-70.173
-70.2824
-70.3046
-70.183
-70.0488
-69.7978
-69.6736
-69.5546
-69.4199
-69.0819
-68.9239
-68.4616
-67.5875
-66.822
-56.5716
-57.1065
-57.0634
-57.0786
-57.7056
-57.454
-57.5322
-57.6278
-58.1565
-57.9924
-57.9543
-57.8226
-57.8063
-59.0113
-58.9788
-58.8456
-58.7567
-58.6054
-58.4847
-58.5168
-59.7814
-60.0239
-60.0616
-60.0114
-59.8526
-59.5531
-59.2986
-59.3112
-62.5605
-61.3862
-61.4676
-61.5945
-61.3514
-61.2158
-60.8329
-60.3149
-59.9421
-64.6019
-64.1522
-63.2575
-63.3498
-63.3452
-63.2461
-63.1735
-61.8167
-61.0482
-61.2725
-67.1421
-66.3529
-65.5488
-65.3942
-65.702
-65.321
-65.6524
-65.7306
-64.4574
-63.6565
-61.4909
-68.8349
-68.3316
-67.539
-66.8599
-66.6878
-67.0021
-67.8236
-69.1808
-69.8499
-67.7535
-66.4361
-63.346
-72.1708
-71.078
-69.9237
-68.8594
-67.8915
-68.0997
-68.5317
-68.9485
-69.6436
-70.4213
-68.5576
-67.0968
-65.3432
-73.7828
-73.0187
-71.9061
-70.8015
-69.6466
-68.9412
-68.3698
-68.5898
-68.9668
-68.4801
-67.6753
-67.4346
-65.8961
-65.4041
-72.3232
-72.1677
-71.9354
-71.1851
-70.1843
-69.8647
-69.4013
-68.6292
-68.8561
-69.6292
-69.2875
-68.632
-67.8274
-66.6111
-66.5873
-70.3927
-70.7661
-71
-70.9447
-70.5683
-70.1261
-69.9362
-69.7233
-69.4738
-69.3786
-69.3493
-69.0687
-68.9391
-68.2758
-67.2989
-67.1797
-69.4849
-69.7797
-70.0691
-70.1671
-70.2755
-70.2857
-70.1647
-70.0283
-69.794
-69.6743
-69.5538
-69.4285
-69.0968
-68.9225
-68.5125
-67.6003
-66.8566
-56.2885
-56.6565
-56.5964
-57.0718
-57.0354
-57.0411
-57.0706
-57.527
-57.5487
-57.456
-57.494
-57.6329
-58.2308
-58.0517
-57.9008
-57.9322
-57.8547
-57.7959
-58.9659
-59.0292
-58.9869
-58.8247
-58.7512
-58.5258
-58.3919
-58.5066
-60.1982
-59.9573
-60.0721
-60.0818
-60.0301
-59.8122
-59.5858
-59.354
-59.1393
-62.1625
-61.0427
-61.4905
-61.5222
-61.4964
-61.3809
-61.3124
-60.7328
-60.2056
-59.9596
-65.0881
-64.3262
-63.6266
-63.4027
-63.0459
-63.1793
-63.4702
-62.5694
-61.2869
-61.3916
-61.3167
-67.1849
-66.5231
-65.9333
-65.2957
-65.4489
-65.6939
-65.6731
-65.8222
-65.5051
-64.1062
-63.0569
-61.6704
-69.5749
-68.6495
-68.012
-67.0993
-66.6627
-66.6487
-67.2071
-68.635
-69.5143
-69.3426
-66.6994
-65.7362
-63.271
-72.9632
-72.2335
-70.657
-69.5253
-68.5131
-67.6141
-68.1808
-68.7158
-69.2637
-69.787
-70.0169
-67.9057
-66.4493
-64.8649
-73.7812
-73.5004
-72.8247
-71.6029
-70.4485
-69.3876
-68.8902
-68.3532
-68.7666
-69.2325
-68.4814
-67.6833
-67.3391
-65.8123
-65.4716
-71.6971
-72.153
-71.9748
-71.7304
-71.0102
-69.9765
-69.7782
-69.3902
-68.6333
-68.8635
-69.5615
-69.1432
-68.414
-67.8224
-66.7894
-66.9493
-69.951
-70.4048
-70.7485
-70.9459
-70.8472
-70.4813
-70.0624
-69.8906
-69.7043
-69.4641
-69.3785
-69.3352
-69.0357
-68.9316
-68.247
-67.4014
-67.3204
-69.3017
-69.4983
-69.7906
-70.0731
-70.1593
-70.2621
-70.2708
-70.1465
-70.01
-69.7889
-69.6768
-69.5542
-69.441
-69.1013
-68.9237
-68.5601
-67.6266
-66.8893
-56.0768
-56.3921
-56.3295
-56.6924
-56.6517
-56.4916
-57.0659
-57.1024
-56.9522
-57.0891
-57.2298
-57.6181
-57.5081
-57.4387
-57.512
-57.4406
-57.4682
-58.2447
-57.9974
-57.9955
-57.8894
-57.891
-57.886
-57.7669
-59.1988
-59.056
-58.9248
-58.6388
-58.8129
-58.7473
-58.4588
-58.2751
-58.4438
-60.3684
-60.0448
-60.0686
-59.7951
-59.7767
-59.9483
-59.7659
-59.4628
-59.3695
-58.9824
-61.846
-61.8484
-61.2359
-61.5507
-61.31
-61.2998
-61.286
-61.0999
-60.563
-60.1354
-59.9507
-65.0071
-64.2577
-64.1326
-63.3494
-63.4509
-63.0528
-63.2864
-63.3839
-62.635
-61.6051
-61.1837
-61.5215
-67.1029
-66.7565
-66.2134
-65.8303
-65.1996
-65.5574
-65.8507
-66.0719
-66.0945
-65.7112
-63.6427
-63.2709
-61.8135
-70.5141
-69.5262
-68.5335
-67.751
-66.6463
-66.531
-66.8521
-67.6717
-69.0696
-69.6631
-68.9366
-66.1437
-65.5798
-63.2259
-73.4524
-72.7581
-71.9046
-70.3746
-69.1052
-68.2455
-67.6602
-68.2896
-68.8568
-69.4306
-69.5935
-69.3824
-67.199
-65.9117
-64.7574
-73.4245
-73.5583
-73.2118
-72.4761
-71.2696
-70.0735
-69.1964
-68.8787
-68.4032
-68.8788
-69.116
-68.5195
-67.7483
-67.1605
-65.9672
-65.9958
-70.9185
-71.6727
-71.9458
-71.7678
-71.5111
-70.8062
-69.8228
-69.6956
-69.3785
-68.6353
-68.8531
-69.4815
-69.0061
-68.3068
-67.889
-67.1302
-67.5237
-69.7379
-69.9803
-70.4107
-70.7247
-70.8859
-70.7529
-70.4003
-69.9984
-69.8542
-69.6934
-69.4454
-69.3883
-69.3156
-69.0089
-68.9275
-68.2665
-67.5214
-67.4911
-68.9053
-69.3199
-69.5125
-69.8002
-70.0756
-70.1502
-70.2474
-70.2509
-70.1306
-69.9943
-69.7815
-69.6809
-69.5537
-69.4656
-69.0974
-68.9281
-68.6129
-67.6654
-66.9203
-55.8851
-56.1017
-56.1133
-56.298
-56.3671
-56.2938
-56.6834
-56.6629
-56.6272
-56.4811
-57.1385
-57.1072
-57.041
-56.8748
-57.091
-57.0898
-57.6635
-57.5775
-57.4368
-57.4421
-57.4574
-57.4244
-57.5646
-58.2316
-58.1615
-57.9686
-58.0329
-57.9203
-57.8172
-57.7897
-57.6795
-59.3973
-59.2277
-59.0418
-58.8724
-58.7522
-58.8166
-58.6549
-58.5707
-58.4954
-58.3405
-60.5533
-60.4517
-60.2948
-59.8504
-59.7909
-59.8861
-59.9101
-59.7946
-59.3613
-59.2916
-58.8913
-62.0711
-62.2679
-62.2378
-62.0813
-61.4492
-61.2341
-61.0207
-61.4315
-61.0737
-60.4669
-60.0589
-60.0382
-64.595
-64.3691
-64.4912
-64.2265
-63.7232
-63.4501
-63.1315
-63.3768
-63.4577
-62.8363
-61.8524
-61.1295
-61.4873
-67.0847
-66.8235
-66.5252
-66.4533
-65.8121
-65.2013
-65.8438
-66.0978
-66.2336
-66.6711
-65.4508
-63.6444
-63.1321
-62.2152
-72.2109
-70.4084
-69.3312
-68.5338
-67.6112
-67.2507
-66.7495
-67.3585
-68.0781
-69.2463
-69.9326
-68.3147
-65.8549
-64.6252
-63.4136
-73.5176
-73.269
-72.5389
-71.5961
-70.2595
-68.7226
-68.3911
-67.8237
-68.382
-68.9439
-69.484
-69.2725
-68.8603
-66.3828
-65.5851
-64.9933
-72.4422
-73.3199
-73.3388
-72.8822
-72.0994
-70.9085
-69.7339
-69.0847
-68.9493
-68.533
-69.0019
-69.2322
-68.49
-67.8615
-66.8575
-66.2038
-66.5255
-70.4159
-70.9329
-71.607
-71.721
-71.5508
-71.2941
-70.5792
-69.7339
-69.6274
-69.3385
-68.6628
-68.8773
-69.4266
-68.857
-68.2623
-67.9287
-67.5938
-68.2595
-69.3021
-69.7776
-70.0063
-70.4077
-70.6996
-70.8229
-70.6797
-70.3415
-69.9621
-69.828
-69.6976
-69.4531
-69.4067
-69.3068
-68.9919
-68.908
-68.3413
-67.6583
-67.6753
-68.6793
-68.9249
-69.337
-69.5256
-69.8081
-70.0765
-70.1401
-70.2348
-70.2261
-70.1114
-69.9811
-69.7745
-69.6847
-69.5513
-69.4938
-69.0997
-68.9374
-68.6589
-67.7095
-66.9512
-55.7387
-55.9027
-55.8959
-55.9779
-56.1102
-56.0755
-56.3291
-56.4164
-56.349
-56.3479
-56.7005
-56.6483
-56.4598
-56.6185
-56.5492
-57.1706
-57.0963
-57.0257
-56.9766
-57.0177
-57.0802
-56.9191
-57.7404
-57.6791
-57.4797
-57.4734
-57.4677
-57.3927
-57.4099
-57.5445
-58.4128
-58.2943
-58.0797
-58.0199
-58.0517
-57.8997
-57.8441
-57.863
-57.7828
-59.4712
-59.3399
-59.1921
-58.9307
-58.9137
-58.9825
-58.7401
-58.638
-58.5243
-58.4729
-58.2905
-60.6171
-60.6739
-60.621
-60.4124
-59.9096
-59.9991
-60.0927
-60.0316
-59.6941
-59.2581
-59.1436
-58.8593
-62.2712
-62.2364
-62.5449
-62.3669
-61.8751
-61.3101
-61.5728
-61.723
-61.3969
-60.973
-60.5042
-59.9475
-60.0981
-64.6815
-64.4293
-64.6554
-64.4242
-64.0944
-63.4884
-63.3804
-63.2016
-63.5411
-63.5624
-62.4247
-61.7758
-60.5942
-61.4262
-67.5513
-66.8878
-66.7097
-66.6153
-66.1482
-65.6386
-65.3453
-66.1706
-66.3399
-66.8805
-66.7047
-64.6744
-63.6641
-62.7439
-62.2656
-72.3766
-71.9434
-69.9636
-69.2564
-68.3243
-67.4801
-67.0221
-66.874
-67.439
-68.132
-69.4051
-69.4123
-67.7145
-65.4246
-64.1265
-63.6607
-73.8899
-73.4464
-73.0878
-72.248
-71.2387
-69.7663
-68.4635
-67.9131
-67.9199
-68.5491
-68.9862
-69.4605
-68.9021
-68.2861
-65.8083
-65.5641
-65.1071
-71.5276
-72.4793
-73.1311
-73.0606
-72.5214
-71.656
-70.555
-69.4508
-69.0529
-69.0178
-68.6741
-69.059
-69.371
-68.4558
-67.8701
-66.6662
-66.6437
-67.2115
-70.034
-70.5008
-70.9118
-71.5128
-71.4932
-71.3355
-71.0987
-70.3632
-69.6425
-69.5623
-69.2676
-68.7176
-68.9543
-69.3411
-68.7458
-68.2057
-68.0085
-68.2064
-69.0951
-68.8016
-69.3596
-69.81
-70.0286
-70.3962
-70.6725
-70.7564
-70.603
-70.2958
-69.9349
-69.8138
-69.7019
-69.4804
-69.4255
-69.3091
-68.9828
-68.8844
-68.4612
-67.8142
-67.8715
-68.6942
-68.7049
-68.9452
-69.3525
-69.5363
-69.8143
-70.075
-70.1293
-70.2301
-70.2043
-70.088
-69.9704
-69.7686
-69.6882
-69.5486
-69.5155
-69.107
-68.9511
-68.6924
-67.7542
-66.9744
-55.6361
-55.7767
-55.7401
-55.9663
-55.9254
-55.8664
-56.1323
-56.0822
-56.0963
-56.089
-56.3849
-56.3027
-56.4807
-56.3615
-56.3832
-56.7177
-56.6899
-56.5859
-56.5023
-56.6679
-56.5368
-57.2376
-57.1479
-57.0775
-57.0052
-57.0089
-57.026
-56.9688
-57.1485
-57.7763
-57.6834
-57.6117
-57.4926
-57.4789
-57.4178
-57.4456
-57.4367
-57.343
-58.4933
-58.4196
-58.3048
-58.1637
-58.0318
-58.0002
-57.8954
-57.866
-57.9031
-57.8232
-59.5489
-59.5804
-59.3806
-59.0449
-59.0055
-59.0736
-59.1593
-58.7593
-58.638
-58.4458
-58.4254
-58.3396
-60.8323
-60.7689
-60.6443
-60.1953
-59.9005
-59.8768
-60.1956
-60.1118
-59.9093
-59.6303
-59.3071
-58.981
-58.9953
-62.5632
-62.4117
-62.3474
-61.9503
-61.8424
-61.3773
-61.4778
-61.422
-61.4796
-61.2669
-60.7121
-60.3203
-60.0243
-59.8785
-64.8385
-64.8206
-64.4504
-64.6686
-63.9296
-63.941
-63.6532
-63.3463
-63.3391
-63.6089
-62.9567
-62.4654
-61.6886
-61.0433
-61.5661
-68.404
-67.391
-66.6747
-66.3136
-66.0617
-65.8511
-65.2998
-65.715
-66.4382
-66.3489
-66.688
-66.0554
-64.3294
-63.3015
-62.8301
-62.3814
-72.2427
-72.2408
-71.2663
-70.261
-68.9746
-67.6275
-67.0641
-66.7315
-67.1143
-67.6163
-68.4516
-69.2133
-69.0232
-67.0164
-65.3469
-64.1113
-63.7483
-73.5773
-73.9727
-73.267
-72.6127
-72.0952
-70.6897
-69.3038
-68.1438
-67.8543
-68.14
-68.6002
-69.025
-69.4554
-68.5535
-67.5358
-65.4605
-65.359
-64.9904
-71.1661
-71.7387
-72.3742
-72.9266
-72.7657
-72.0362
-71.2365
-70.2184
-69.2683
-69.1171
-69.0897
-68.7867
-69.136
-69.1294
-68.4812
-67.7419
-66.6352
-67.1249
-68.1099
-69.4445
-70.1234
-70.5455
-70.8808
-71.412
-71.2968
-71.1242
-70.8696
-70.2031
-69.5551
-69.4952
-69.1943
-68.7832
-69.0446
-69.2623
-68.7081
-68.2118
-68.2075
-68.8761
-69.9524
-68.8505
-68.8583
-69.4078
-69.8331
-70.0429
-70.3782
-70.6421
-70.6908
-70.5196
-70.2323
-69.9137
-69.8059
-69.7064
-69.5015
-69.4489
-69.3181
-68.9748
-68.8671
-68.5628
-67.962
-68.0722
-68.8662
-68.7094
-68.7303
-68.9639
-69.3666
-69.5461
-69.8186
-70.0719
-70.119
-70.2145
-70.1858
-70.0667
-69.9622
-69.7716
-69.6902
-69.5456
-69.537
-69.1212
-68.9691
-68.7088
-67.7959
-66.9858
-55.492
-55.6812
-55.606
-55.8474
-55.7717
-55.7414
-56.0064
-55.9461
-55.9024
-55.844
-56.1519
-56.0592
-56.0082
-56.0956
-56.1091
-56.4359
-56.4396
-56.4144
-56.3428
-56.3518
-56.4402
-56.7889
-56.6913
-56.6458
-56.5793
-56.5868
-56.6636
-56.5194
-57.3215
-57.2213
-57.1223
-57.063
-57.0314
-56.9654
-57.0189
-56.9678
-57.0248
-57.899
-57.8184
-57.7132
-57.6134
-57.4509
-57.5004
-57.444
-57.4354
-57.391
-57.381
-58.5906
-58.543
-58.3217
-58.2757
-58.2284
-58.0926
-57.9389
-57.9093
-57.8731
-57.911
-57.852
-59.6326
-59.8158
-59.6452
-59.1507
-59.1592
-59.07
-58.6712
-58.3849
-58.8194
-58.6391
-58.5176
-58.329
-58.3416
-61.0624
-60.9114
-60.7539
-60.3742
-60.2514
-60.2882
-60.1451
-60.0062
-60.0061
-59.775
-59.5429
-59.3596
-59.0563
-58.9603
-62.7772
-62.7569
-62.4925
-62.1832
-61.8957
-61.8323
-61.6268
-61.1243
-61.3956
-61.3896
-60.9653
-60.6466
-60.2352
-60.1259
-59.964
-65.101
-65.0529
-64.6909
-64.5632
-64.2473
-63.8031
-63.7743
-63.7487
-63.4093
-63.4269
-63.3573
-62.9418
-62.3101
-61.7067
-61.2797
-61.563
-68.7858
-68.166
-67.312
-66.4959
-66.0357
-65.9565
-65.6692
-65.7536
-65.8788
-66.0412
-66.2782
-66.822
-65.3397
-64.064
-63.056
-62.7795
-62.4004
-72.2197
-72.4138
-71.9517
-70.5583
-69.7494
-68.4848
-67.389
-67.1822
-67.1068
-67.3163
-67.4707
-68.1323
-69.1227
-68.4274
-66.4376
-64.6246
-63.9469
-63.7516
-72.2648
-73.8586
-73.5545
-72.8496
-72.2106
-71.2671
-70.1874
-68.9602
-68.1557
-67.9612
-68.497
-68.5933
-68.974
-69.2918
-68.2745
-67.0113
-65.1865
-65.4106
-65.0152
-70.1532
-71.3532
-71.6275
-72.1959
-72.6777
-72.3218
-71.5389
-70.9164
-69.9293
-69.1574
-69.181
-69.2215
-68.8851
-69.2554
-69.2851
-68.4562
-67.5574
-66.7604
-67.854
-69.2279
-69.1453
-69.5725
-70.1853
-70.565
-70.8403
-71.2926
-71.124
-70.927
-70.6584
-70.0973
-69.5039
-69.4318
-69.1325
-68.8516
-69.1371
-69.2072
-68.6624
-68.2673
-68.454
-69.5623
-70.7783
-68.9497
-68.9068
-68.9083
-69.4466
-69.8474
-70.0498
-70.3555
-70.6038
-70.6269
-70.4406
-70.1649
-69.8996
-69.8037
-69.7177
-69.5225
-69.4694
-69.3344
-68.9745
-68.868
-68.6346
-68.0862
-68.2422
-69.0176
-68.8832
-68.7252
-68.7541
-68.9805
-69.3791
-69.555
-69.821
-70.0676
-70.1092
-70.1958
-70.1652
-70.0482
-69.955
-69.782
-69.6914
-69.5442
-69.5589
-69.1403
-68.9922
-68.6954
-67.8332
-67.0368
-55.3382
-55.452
-55.4788
-55.682
-55.6004
-55.598
-55.8008
-55.7909
-55.7908
-55.7441
-55.9937
-55.9826
-55.9385
-55.9084
-55.9005
-56.2003
-56.1056
-56.0167
-56.0798
-56.0928
-56.0958
-56.4861
-56.4309
-56.3984
-56.3347
-56.3425
-56.4015
-56.4379
-56.8425
-56.7581
-56.7191
-56.6597
-56.5892
-56.6236
-56.6005
-56.5545
-57.4435
-57.2982
-57.1574
-57.1297
-57.0298
-56.9966
-56.9897
-57.009
-56.9912
-56.9506
-58.0344
-57.8933
-57.7478
-57.6917
-57.5911
-57.4622
-57.4439
-57.4277
-57.3833
-57.409
-57.4081
-58.7546
-58.6561
-58.5283
-58.392
-58.3284
-58.0755
-58.0008
-57.9952
-57.8975
-57.7864
-57.872
-57.8201
-59.9759
-60.2888
-59.7412
-59.3216
-59.1746
-59.2452
-58.8237
-58.7033
-58.7694
-58.777
-58.6112
-58.5577
-58.26
-58.365
-61.2073
-61.1147
-60.9196
-60.5585
-60.5231
-60.3955
-60.1551
-60.0712
-60.0407
-59.9828
-59.7399
-59.5333
-59.2481
-59.0191
-58.7235
-63.1834
-62.9929
-62.7071
-62.4514
-61.9844
-62.3755
-61.8583
-61.4474
-61.3815
-61.3156
-61.2146
-60.8786
-60.5428
-60.3868
-60.2255
-60.0806
-65.2321
-65.3096
-64.8502
-64.5599
-64.4176
-64.2304
-64.3161
-63.8256
-63.6511
-63.1883
-63.3753
-63.3989
-62.5736
-62.226
-61.7044
-61.5514
-61.5665
-69.2186
-68.581
-68.2722
-66.9149
-65.8646
-65.8372
-66.1524
-65.7318
-65.8844
-66.0475
-65.93
-66.2712
-66.2769
-64.5488
-64.6881
-62.7488
-62.8082
-62.2681
-71.576
-72.6944
-72.0847
-71.4586
-69.9761
-69.0905
-68.4317
-67.8738
-67.3568
-67.3507
-67.5671
-67.5624
-68.2113
-68.7408
-67.8883
-66.3313
-64.5485
-64.2945
-63.8691
-71.0531
-72.8833
-74.0393
-72.8698
-72.3625
-71.6547
-70.7368
-69.9015
-68.7028
-68.1774
-68.1832
-68.7246
-68.5804
-69.0394
-69.0852
-68.1023
-66.4495
-65.2703
-65.7519
-65.3273
-69.0438
-70.3929
-71.5022
-71.6022
-72.0174
-72.4639
-71.7671
-71.0974
-70.5727
-69.6709
-69.1363
-69.2407
-69.3389
-68.9564
-69.2846
-69.161
-68.3681
-67.4509
-67.1101
-68.7729
-70.5462
-69.0451
-69.3052
-69.685
-70.2211
-70.5598
-70.7948
-71.1587
-70.9526
-70.7525
-70.4908
-69.9896
-69.4727
-69.3903
-69.0744
-68.9196
-69.1764
-69.1662
-68.621
-68.3664
-68.6784
-70.2432
-71.5367
-69.1689
-69.0099
-68.9649
-68.9532
-69.4771
-69.8538
-70.0523
-70.3278
-70.5631
-70.5667
-70.3697
-70.1094
-69.8834
-69.807
-69.7286
-69.537
-69.4877
-69.3557
-68.9875
-68.9079
-68.7056
-68.215
-68.3965
-69.4141
-69.032
-68.9003
-68.7395
-68.7724
-68.996
-69.3899
-69.5624
-69.8218
-70.0614
-70.0996
-70.1769
-70.142
-70.0307
-69.949
-69.7883
-69.6942
-69.5457
-69.5822
-69.1591
-69.0183
-68.6843
-67.8671
-67.1572
-55.2278
-55.2947
-55.3289
-55.4678
-55.4827
-55.4357
-55.6511
-55.6703
-55.602
-55.596
-55.8268
-55.8184
-55.7887
-55.7751
-55.7439
-56.0443
-55.9748
-55.9135
-55.9411
-55.8824
-55.8971
-56.2422
-56.176
-56.1038
-56.1317
-56.0977
-56.1102
-56.1166
-56.5341
-56.4745
-56.3892
-56.3818
-56.3621
-56.3405
-56.3985
-56.4347
-56.9421
-56.79
-56.7915
-56.7237
-56.6482
-56.6114
-56.6146
-56.6115
-56.5431
-57.5503
-57.395
-57.3077
-57.2392
-57.1123
-57.045
-57.024
-57.0215
-56.9942
-56.9913
-56.9446
-58.0455
-58.0576
-57.8418
-57.7775
-57.651
-57.6161
-57.489
-57.4434
-57.4647
-57.3496
-57.439
-57.4177
-58.934
-58.7293
-58.6529
-58.3964
-58.3844
-58.1039
-58.0477
-57.9682
-58.0078
-57.8952
-57.8517
-57.8121
-57.8267
-60.1999
-60.0609
-59.9687
-59.4144
-59.4141
-59.1395
-58.8961
-58.9653
-58.8742
-58.7867
-58.7356
-58.5803
-58.5217
-58.3242
-58.378
-61.5955
-61.3549
-61.0736
-60.7927
-60.74
-60.4675
-60.3192
-59.9811
-60.0856
-59.9958
-59.8108
-59.6716
-59.4904
-59.339
-59.1293
-58.9319
-63.457
-63.2272
-62.4908
-62.6125
-62.5368
-62.4319
-62.0587
-61.799
-61.4708
-61.288
-61.254
-61.1679
-60.9769
-60.6068
-60.3605
-60.2465
-59.977
-65.5822
-65.3003
-65.3872
-64.7334
-64.5007
-64.3704
-64.3664
-63.9531
-63.8275
-63.5831
-63.6113
-63.8256
-63.1803
-62.5563
-62.0751
-62.0518
-61.6
-61.6157
-68.5724
-69.5523
-68.4476
-67.8949
-66.7037
-66.2738
-66.0431
-65.9863
-65.5885
-65.805
-65.9765
-65.7579
-66.0192
-65.551
-64.484
-64.1261
-62.729
-62.7799
-62.374
-70.4598
-72.1659
-72.8221
-71.3455
-70.7754
-69.3928
-68.6006
-68.2267
-67.5803
-67.3667
-67.5044
-67.9289
-67.747
-68.302
-68.3344
-67.5875
-65.9818
-64.703
-64.324
-63.6701
-69.8577
-71.711
-73.3035
-73.7272
-72.4034
-72.0185
-70.9475
-70.1289
-69.4264
-68.6097
-68.2603
-68.4627
-68.9343
-68.658
-69.0616
-68.9078
-67.8313
-66.1773
-65.682
-66.0255
-65.2316
-68.8836
-69.3045
-70.5563
-71.5491
-71.4985
-71.8645
-72.1557
-71.2469
-70.7204
-70.2285
-69.4391
-69.1498
-69.3239
-69.3882
-68.9625
-69.3019
-69.0526
-68.2374
-67.5334
-67.6355
-69.6077
-72.1869
-69.1952
-69.1468
-69.3388
-69.7754
-70.2291
-70.5334
-70.7359
-71.0142
-70.7928
-70.6051
-70.3408
-69.883
-69.4575
-69.3706
-69.0395
-68.9956
-69.1785
-69.1328
-68.5916
-68.4939
-68.888
-70.9639
-72.1597
-69.569
-69.2122
-69.0673
-69.0201
-68.9966
-69.5004
-69.8543
-70.0489
-70.2943
-70.5222
-70.5067
-70.307
-70.0708
-69.8621
-69.8087
-69.7441
-69.5547
-69.5067
-69.3767
-69.0046
-68.9747
-68.7767
-68.3551
-68.5398
-70.0925
-69.4189
-69.0469
-68.9176
-68.7533
-68.7865
-69.0097
-69.3993
-69.5685
-69.8215
-70.0534
-70.0884
-70.1572
-70.1183
-70.0144
-69.9447
-69.7904
-69.6988
-69.5488
-69.6045
-69.1774
-69.044
-68.6873
-67.8998
-67.2622
-55.1493
-55.2229
-55.1996
-55.3636
-55.3298
-55.3378
-55.4618
-55.4874
-55.4361
-55.4141
-55.6857
-55.6428
-55.6156
-55.6192
-55.5756
-55.8897
-55.7931
-55.7523
-55.791
-55.7669
-55.7542
-56.048
-55.9937
-55.9624
-55.9356
-55.9473
-55.8941
-55.9121
-56.3343
-56.2511
-56.1642
-56.1292
-56.1177
-56.0751
-56.0895
-56.0804
-56.6783
-56.5197
-56.4493
-56.4276
-56.3633
-56.353
-56.3318
-56.4272
-56.3987
-57.0879
-56.8992
-56.8013
-56.7969
-56.6974
-56.6126
-56.6464
-56.6657
-56.6422
-56.6367
-57.6701
-57.5407
-57.3539
-57.3109
-57.1784
-57.1325
-57.0202
-57.0047
-57.0255
-56.8844
-56.9601
-56.9404
-58.0907
-58.1064
-58.0786
-57.8156
-57.7407
-57.6654
-57.5611
-57.4175
-57.4851
-57.4048
-57.428
-57.417
-57.4222
-59.2513
-59.0334
-58.7421
-58.6276
-58.371
-58.2302
-58.1597
-58.0081
-58.0346
-57.9748
-57.9019
-57.9058
-57.8363
-57.833
-60.4581
-60.2015
-60.1651
-59.8102
-59.538
-59.3198
-59.2666
-59.0935
-59.0173
-58.957
-58.7742
-58.725
-58.5228
-58.51
-58.4105
-58.498
-61.8481
-61.5081
-61.2397
-61.0668
-60.8515
-60.7254
-60.0513
-60.2269
-60.0131
-60.0683
-59.9232
-59.677
-59.6417
-59.5725
-59.4357
-59.1879
-58.949
-63.7515
-63.5697
-62.9074
-62.7084
-62.6629
-62.551
-62.2346
-61.85
-61.6961
-61.5444
-61.2482
-61.1815
-61.0038
-60.9386
-60.6851
-60.4923
-60.2459
-59.9849
-65.6267
-65.6023
-65.4474
-65.1805
-64.7044
-64.53
-64.3992
-63.7592
-64.0513
-63.603
-63.5128
-63.6195
-63.6903
-63.6761
-63.0704
-61.5067
-61.9516
-61.5518
-61.1803
-68.4452
-69.133
-69.6051
-68.4008
-67.758
-66.7687
-66.0716
-66.067
-65.8134
-65.7233
-65.8908
-65.8425
-65.7399
-65.9918
-65.6598
-64.7699
-63.1639
-62.6237
-62.8351
-62.714
-69.8101
-71.0631
-72.812
-72.55
-70.6848
-70.0925
-68.7359
-68.0409
-67.6829
-67.4562
-67.5853
-67.6404
-67.8214
-67.8185
-68.0483
-68.0271
-66.9488
-65.5728
-64.8746
-64.4058
-63.6289
-69.0384
-70.3171
-72.3308
-73.6022
-73.0752
-72.0599
-71.6966
-70.3705
-69.7176
-69.0136
-68.5328
-68.5258
-68.8673
-69.1917
-68.988
-69.0454
-68.6679
-67.4198
-66.1846
-66.1864
-66.3023
-65.4119
-68.9547
-69.0926
-69.557
-70.6992
-71.5398
-71.3923
-71.699
-71.7415
-70.8643
-70.4196
-70.017
-69.3571
-69.1858
-69.4163
-69.4611
-68.9726
-69.2235
-68.8781
-68.1677
-67.7332
-68.0576
-70.4962
-73.0759
-69.5507
-69.2766
-69.245
-69.461
-69.8388
-70.2159
-70.4861
-70.6603
-70.8628
-70.6402
-70.4748
-70.2238
-69.8091
-69.4488
-69.3652
-69.0406
-69.0745
-69.2106
-69.1139
-68.6173
-68.6708
-69.1154
-71.6531
-72.6347
-69.9445
-69.6028
-69.2538
-69.1219
-69.0704
-69.0369
-69.5153
-69.8507
-70.0367
-70.2637
-70.4806
-70.437
-70.2596
-70.0413
-69.8444
-69.8122
-69.7528
-69.5745
-69.5286
-69.3913
-69.0258
-69.0411
-68.8414
-68.4956
-68.6663
-70.106
-70.5862
-69.4278
-69.0618
-68.9338
-68.7666
-68.8001
-69.0217
-69.4074
-69.5734
-69.8215
-70.0477
-70.0743
-70.1362
-70.0959
-70.0011
-69.9417
-69.791
-69.7045
-69.5548
-69.6287
-69.1938
-69.0664
-68.6942
-67.9283
-67.3259
-55.0324
-55.1476
-55.1219
-55.1867
-55.2104
-55.2125
-55.3231
-55.4133
-55.3278
-55.3299
-55.4926
-55.4577
-55.4606
-55.4244
-55.4194
-55.6749
-55.6475
-55.615
-55.6028
-55.546
-55.5597
-55.8466
-55.8433
-55.7928
-55.7573
-55.7777
-55.7662
-55.7633
-56.099
-56.0661
-55.9994
-55.9618
-55.9395
-55.9462
-55.8947
-55.8849
-56.4333
-56.3105
-56.1923
-56.1976
-56.1295
-56.102
-56.0415
-56.0319
-56.056
-56.7872
-56.5979
-56.5397
-56.5018
-56.4054
-56.3718
-56.3589
-56.435
-56.4554
-56.4165
-57.1551
-57.0242
-56.9173
-56.7732
-56.7658
-56.6526
-56.6136
-56.6474
-56.6572
-56.6831
-56.6614
-57.8215
-57.6411
-57.561
-57.427
-57.2948
-57.2023
-57.1078
-57.0449
-56.9941
-56.9216
-56.9286
-56.8966
-56.9482
-58.655
-58.4864
-58.029
-58.0998
-57.7726
-57.6772
-57.6301
-57.5855
-57.5714
-57.4146
-57.4453
-57.4508
-57.3583
-57.426
-59.4019
-59.2622
-58.9005
-58.868
-58.6211
-58.3765
-58.3086
-58.1669
-58.2263
-58.1193
-57.9802
-57.8892
-57.8477
-57.8239
-57.8586
-60.7109
-60.5649
-60.2931
-60.1607
-59.8629
-59.5422
-59.289
-59.1348
-59.1356
-59.04
-58.9236
-58.7566
-58.6811
-58.5667
-58.5492
-58.5401
-58.5733
-62.0273
-61.6923
-61.4959
-61.2611
-60.9905
-60.7378
-60.7584
-60.5368
-60.1392
-60.142
-60.071
-59.877
-59.6914
-59.7299
-59.5855
-59.1613
-59.1821
-59.0756
-63.7806
-63.776
-63.4435
-63.057
-62.9081
-62.6278
-62.3848
-62.1752
-61.8256
-61.5382
-61.3524
-61.2596
-61.0803
-61.0651
-61.1757
-61.0163
-60.397
-60.2082
-60.084
-65.4434
-65.9276
-65.6544
-65.5007
-65.0593
-64.776
-64.5769
-64.4193
-63.9659
-64.0398
-63.7537
-63.412
-63.4091
-63.4168
-63.2965
-62.9409
-62.2032
-62.284
-61.5061
-61.1681
-67.5036
-68.7528
-69.5324
-69.3543
-68.2798
-67.4869
-66.5645
-65.9529
-65.9848
-65.7743
-65.8539
-65.9054
-65.697
-65.7368
-65.5189
-65.2608
-64.1513
-64.03
-62.9185
-62.9219
-62.4486
-69.4683
-70.7583
-71.5936
-73.2391
-71.6761
-70.1867