/*--------------------------------*- C++ -*----------------------------------*\
  =========                 |
  \\      /  F ield         | OpenFOAM: The Open Source CFD Toolbox
   \\    /   O peration     | Website:  https://openfoam.org
    \\  /    A nd           | Version:  7
     \\/     M anipulation  |
\*---------------------------------------------------------------------------*/
FoamFile
{
    version     2.0;
    format      ascii;
    class       surfaceScalarField;
    location    "2.5";
    object      phi;
}
// * * * * * * * * * * * * * * * * * * * * * * * * * * * * * * * * * * * * * //

dimensions      [0 3 -1 0 0 0 0];

internalField   nonuniform List<scalar> 
54095
(
0.0002889
-9.4233e-05
0.000244445
0.00052903
-0.000108585
-0.000615039
0.000162589
-0.000114143
-0.000154607
0.000306838
-9.76364e-05
3.52435e-05
0.000789955
-0.00019007
-0.000415909
0.00011431
-0.000121608
-0.00194546
0.000476755
-0.000103115
-0.000681841
6.53492e-06
-7.84905e-05
0.000320901
0.000123228
-0.000118086
-0.000257386
0.000307863
-9.56957e-05
-0.000176924
0.000752009
0.00020721
-0.00107427
0.00048957
0.000217702
-0.0038744
0.000703462
-0.000314875
-0.000327742
8.69821e-05
-9.57833e-05
-0.000714166
-1.30946e-06
-0.000110753
-0.00181328
0.000438447
-0.000103623
-0.000708802
-3.83423e-05
-6.48387e-05
0.000362985
1.57169e-05
-7.84098e-05
0.000265508
0.000112641
-0.000115925
-0.000349798
0.000288493
-9.25334e-05
-0.000372883
0.000809223
0.000465038
-0.00519589
0.000599873
0.000319519
-0.000494523
0.00045845
0.000181326
-0.00101058
5.39566e-05
0.000259556
-0.00230036
0.000518003
0.000261015
0.0029456
0.00065704
-0.000165724
-0.000380611
-7.31884e-05
-9.69136e-05
-0.000651968
9.79358e-05
-8.95639e-05
-0.000817574
1.50601e-05
-0.000100094
-0.00171923
0.000384533
-9.95511e-05
-0.000705291
-3.56552e-05
-7.20298e-05
0.000647596
-3.20519e-05
-6.40064e-05
0.000380634
2.07349e-05
-7.90613e-05
0.00020791
0.000105195
-0.000113568
-0.000433958
0.000259032
-8.87073e-05
-0.000543208
-0.00015578
0.000691512
-0.00486701
-0.000206472
0.00111338
-0.00470694
0.000275238
0.000646926
-0.00565961
7.10637e-05
0.000202988
-0.00178815
0.00053361
0.000342241
-0.000671045
0.000193697
0.000288236
-0.000835477
-9.92764e-05
0.000190135
-0.00213094
6.1511e-05
0.000278159
-0.00228108
0.000394335
0.000217025
0.00218358
0.000540328
-9.14384e-05
-0.000444968
-5.68378e-05
-0.00018272
0.000320592
-6.00601e-05
-0.000106369
-0.000607154
0.000113332
-8.77998e-05
-0.000922466
1.51772e-05
-9.42657e-05
-0.0016345
0.000330009
-7.09498e-05
-0.000705318
-2.49705e-05
-8.43128e-05
7.07353e-05
-2.65717e-05
-7.20929e-05
0.000682254
-2.66583e-05
-6.32775e-05
0.000391508
2.31883e-05
-7.95938e-05
0.000150747
0.000117388
-0.000111565
-0.000528488
0.000224483
-8.51223e-05
-0.000682569
-0.00141521
0.000531162
-0.00446073
-0.000580829
0.000865572
-0.00606958
-0.000368098
0.000652933
-0.0048766
-2.57034e-05
0.00100674
-0.00392952
-0.000370459
0.00118409
-0.00434004
-0.000633481
0.000771624
-0.00560405
-0.000101948
-7.82894e-06
-0.00248051
-0.000111411
0.000234701
-0.00150768
0.000282616
0.000398217
-0.000669308
1.54624e-05
0.0003612
-0.000671811
-9.15035e-05
0.000243033
-0.00119743
-9.88025e-05
0.00018205
-0.00199609
0.000115706
0.000253895
-0.00232032
0.000442634
0.000249714
0.00141497
0.000414237
3.6391e-07
-0.000529559
2.11233e-05
-0.000264899
0.00032889
-4.09982e-05
-0.000189109
0.000417757
-3.54531e-05
-0.000114768
-0.000571391
0.000118223
-8.81657e-05
-0.0010236
8.58212e-05
-6.70299e-05
-0.00160685
0.00026895
-6.08454e-05
-0.000688939
6.36205e-06
-8.81242e-05
-0.000611133
-2.39708e-05
-8.34603e-05
0.000106073
-1.7054e-05
-7.23339e-05
0.000708365
-2.26328e-05
-6.25445e-05
0.000397092
2.52089e-05
-7.95002e-05
9.34733e-05
0.00010193
-0.000109356
-0.000606185
0.000188195
-8.23351e-05
-0.000788428
-0.00158504
0.000270566
-0.00399163
-0.000342054
0.000609885
-0.00647903
-0.00141743
0.000401266
-0.00381265
-0.000255713
0.000975797
-0.00640621
-0.000973167
0.000956412
-0.00577035
-0.00104991
0.000549488
-0.00500966
0.0001783
0.000430499
-0.00306933
-0.000351027
0.0010509
-0.00355671
-0.000498254
0.00110374
-0.00389128
-0.00110422
0.000643403
-0.00512778
-0.000132946
-0.000121528
-0.00228518
-0.000128164
1.09503e-05
-0.0022274
-1.36346e-05
0.000219806
-0.00119993
0.000280812
0.00042308
-0.000569366
-0.000158663
0.00043797
-0.000536882
7.11248e-05
0.000213763
0.000565888
-9.52387e-05
0.000221752
-0.00118289
-6.67189e-05
0.000194538
-0.00190547
0.000177431
0.000191725
-0.00232154
0.00042779
0.000211888
0.000861475
0.000297424
3.96858e-05
-0.000597719
4.88572e-05
-0.000294588
-0.000763293
1.70609e-05
-0.000261194
0.000359943
-2.33078e-05
-0.000191175
0.000500418
-3.5591e-05
-0.000122459
-0.00052414
0.00011912
-8.66135e-05
-0.00109793
0.000114934
-6.3326e-05
-0.00161737
0.000206535
-4.67548e-05
-0.000660525
1.2405e-05
-8.80603e-05
-0.000763422
2.18585e-06
-8.65095e-05
-0.00061027
-2.27144e-05
-8.27993e-05
0.000139253
-9.06863e-06
-7.25095e-05
0.000727398
-2.02837e-05
-6.18223e-05
0.000399698
2.91046e-05
-7.81165e-05
3.31296e-05
8.81379e-05
-0.000107048
-0.00066961
0.000152734
-7.96687e-05
-0.000861494
-0.00151098
-7.43366e-06
-0.00364943
-0.000818551
0.000568424
-0.004867
-0.00152876
0.000178537
-0.00405884
-6.26045e-06
0.000667811
-0.00611835
-0.000986822
0.000427159
-0.00649127
-0.00141157
0.000324541
-0.00377554
0.000496865
0.00107081
-0.00567913
-0.000725983
0.00113462
-0.00620946
-0.00111887
0.00118362
-0.00578386
-0.00149252
0.000633015
-0.00525437
0.000288924
-0.000189649
-0.00264516
-8.47878e-05
0.000517908
-0.00257971
-0.000212248
0.000999862
-0.00325422
-0.000400572
0.00112448
-0.00369098
-0.00123552
0.000650634
-0.00470156
3.52445e-05
-6.21771e-05
-0.00177105
-0.000123015
-0.000156382
-0.00209008
-8.8233e-05
-3.40926e-05
-0.00195199
8.64286e-05
0.000223504
-0.000909354
0.000334907
0.000486986
-0.0005255
-0.000215836
0.000461446
-0.000485067
0.000153907
-4.94169e-05
0.000458484
8.14646e-05
0.000233005
0.000490231
-9.66609e-05
0.000214688
-0.00112969
-8.89713e-05
0.000136718
-0.00179708
0.000273669
0.00012655
-0.00239076
0.000485835
0.000146519
0.000383741
0.000173506
6.02207e-05
-0.000624911
6.94569e-05
-0.000297601
-0.000760118
4.9924e-05
-0.000288265
-0.00078396
1.90161e-06
-0.000253414
0.000397566
-9.23082e-06
-0.000191881
0.000570002
-3.24971e-05
-0.000128541
-0.000469998
0.000109889
-8.31195e-05
-0.00115892
0.000125506
-5.74087e-05
-0.00164409
0.00015308
-2.72266e-05
-0.000633644
6.14219e-05
-9.88521e-05
-0.000716053
3.94914e-06
-8.46377e-05
-0.000769243
-2.79139e-06
-8.53268e-05
-0.000604951
-2.04976e-05
-8.21956e-05
0.000169437
-5.91959e-07
-7.25739e-05
0.000738742
-2.08677e-05
-6.10092e-05
0.000403458
3.15583e-05
-7.62859e-05
-2.91906e-05
7.35405e-05
-0.000103873
-0.000718947
0.000120987
-7.80581e-05
-0.000904423
-0.00157637
8.31143e-05
-0.0037249
-0.00124768
0.000247759
-0.00434285
-0.00144471
1.09057e-05
-0.00374438
-0.000270628
0.000694167
-0.00497378
-0.00116812
0.000407531
-0.00491469
-0.00148645
0.000103286
-0.00408725
0.000662149
0.00105377
-0.00578224
-0.00083085
0.000740862
-0.00632718
-0.00118154
0.00043918
-0.00654324
-0.00133757
0.000149351
-0.00407983
0.000624593
0.000785372
-0.00408555
-0.00023872
0.00128736
-0.00567794
-0.000656271
0.00144796
-0.00602977
-0.000982221
0.00164795
-0.00621715
-0.00154462
0.000670087
-0.00561536
0.000180869
-0.000415826
-0.00284996
0.000204489
-0.000157107
-0.00229765
-8.37428e-05
0.000628831
-0.00221317
-0.000181742
0.000975556
-0.00283713
-0.000201642
0.00113429
-0.00363809
-0.00108065
0.000705149
-0.00454189
0.000210448
-6.71459e-05
-0.00127382
3.75094e-05
-0.000175085
-0.00170839
-0.000109038
-0.000184751
-0.00192704
-4.63015e-05
-4.35731e-05
-0.00172758
0.000285187
0.00021335
-0.000647236
0.000389986
0.000446603
-0.000414809
-0.000249776
0.000495372
-0.000557158
0.000215245
-0.000324174
-0.000889331
0.000203826
-2.12419e-05
0.000558829
0.000104906
0.000237204
0.000364711
-8.21799e-05
0.00018323
-0.00110325
-7.21837e-05
0.000102189
-0.00173303
0.000304128
3.86937e-05
-0.00247717
0.000495959
9.80359e-05
-2.45271e-05
6.18491e-05
7.98183e-05
-0.000613498
0.000167149
-0.00031482
-0.000604851
5.56958e-05
-0.000289413
-0.000810716
3.58654e-05
-0.000281094
-0.000794936
-6.72341e-06
-0.000243057
0.000434968
9.75137e-06
-0.000190457
0.000621574
-4.31407e-05
-0.000128826
-0.000402019
9.35537e-05
-8.03265e-05
-0.001198
0.000111545
-4.91564e-05
-0.00166016
0.000105802
-1.34741e-05
-0.000604985
6.46094e-05
-0.000108478
-0.000391053
5.60463e-05
-9.50725e-05
-0.000761664
-3.15689e-06
-8.17654e-05
-0.000769648
-9.84612e-06
-8.41118e-05
-0.000593189
-1.88399e-05
-8.15402e-05
0.000197243
6.77466e-06
-7.25857e-05
0.000743544
-2.25238e-05
-6.06294e-05
0.000410325
3.13926e-05
-7.51078e-05
-8.93482e-05
6.47977e-05
-0.000102774
-0.000759028
9.45751e-05
-7.63237e-05
-0.000922674
5.46537e-05
-0.00321853
-0.00117203
0.00013911
-0.00419191
-0.00142235
3.38605e-05
-0.00378113
-0.000666192
0.000443946
-0.00467753
-0.0012201
0.000194769
-0.00447474
-0.00143472
0.000102428
-0.00389854
0.000172913
0.00110014
-0.00492553
-0.000762521
0.000612173
-0.00524675
-0.00139404
0.000246577
-0.00484548
-0.00145041
0.000235649
-0.00421006
0.000467715
0.00140896
-0.00534958
-0.000305588
0.00114109
-0.0061156
-0.00101375
0.000820086
-0.00635061
-0.00120875
0.000330057
-0.00649741
-0.00125363
-0.000186934
-0.00418389
0.000372713
0.000262805
-0.00318465
0.000546227
0.00114502
-0.00428495
-0.00014172
0.0013941
-0.0055661
-0.000487735
0.00168176
-0.0057576
-0.000931658
0.00169016
-0.0065072
-0.0013474
0.000619172
-0.00596778
0.000169349
-0.000445388
-0.00305349
0.000283871
-0.000495538
-0.00275789
5.14198e-05
-9.38235e-05
-0.00173545
-4.82985e-05
0.000585084
-0.0018207
-7.96212e-05
0.000970787
-0.00230881
-9.71629e-05
0.00100623
-0.00345202
-0.00099097
0.0007398
-0.0045405
0.000330507
-0.000150482
-0.00164648
0.000277411
-0.000134453
-0.00138804
7.08209e-05
-0.000138359
-0.0017207
-0.000124138
-0.000202075
-0.00172658
-3.91901e-05
-0.0001101
-0.00143712
0.000484167
0.0002075
-0.000588171
0.000443412
0.000426321
-0.00029321
-0.00025654
0.000527368
-0.000766138
0.000222196
-0.000417372
-0.0010528
0.000221721
-0.000332675
-0.000743922
0.000250665
4.39521e-06
0.000576839
7.52839e-05
0.000197862
0.000268071
-6.73503e-05
0.000115803
-0.00103976
-9.60433e-05
4.69074e-06
-0.00164613
0.000287455
-3.05079e-05
-0.00254253
0.000499347
5.30435e-05
-0.000385554
6.56688e-05
0.000128601
-0.000701966
0.00018102
-0.000299668
-0.000503282
0.000174838
-0.000302012
-0.000711044
4.30477e-05
-0.000283468
-0.000854547
1.91105e-05
-0.000271821
-0.000795128
-1.46576e-05
-0.000228483
0.000468811
1.96045e-05
-0.000183885
0.000663804
-3.90817e-05
-0.000130132
-0.000335656
7.69538e-05
-7.74175e-05
-0.0012153
9.83256e-05
-4.75704e-05
-0.00165959
6.83346e-05
-9.65498e-06
-0.00056909
3.05009e-05
-9.98923e-05
5.71092e-05
6.36225e-05
-0.000107319
-0.000442429
4.8668e-05
-9.1332e-05
-0.000800766
-9.76955e-06
-7.93801e-05
-0.00076461
-1.91355e-05
-8.27827e-05
-0.000572811
-1.83202e-05
-8.08979e-05
0.000223876
1.29851e-05
-7.26466e-05
0.000742576
-2.26401e-05
-6.13142e-05
0.000419172
2.8323e-05
-7.44499e-05
-0.000145996
5.57163e-05
-0.000102116
-0.000788952
7.52535e-05
-7.46532e-05
-0.000923275
7.30804e-05
-0.00420113
-0.00127247
-2.15428e-05
-0.00334687
-0.000720683
0.000248592
-0.00458323
-0.00114363
9.25034e-05
-0.00432702
-0.00141274
-1.17116e-05
-0.0037914
-0.000425273
0.000809905
-0.00487334
-0.000752424
0.000316343
-0.0048092
-0.00124933
0.000179688
-0.00469671
-0.00144423
0.000146332
-0.00405105
0.00028495
0.00149546
-0.00513863
-0.000395975
0.000989416
-0.00521238
-0.00104236
0.000598468
-0.00557003
-0.00128324
0.000298403
-0.00483375
-0.00141069
0.000372326
-0.00442533
0.000529265
0.00136866
-0.00497707
0.000493809
0.0014003
-0.00555638
-0.000164391
0.00108522
-0.00635806
-0.000677741
0.000812588
-0.00664314
-0.00126478
6.81492e-05
-0.00641937
-0.00116223
-7.70612e-05
-0.004292
0.000159638
-3.95411e-05
-0.00385608
0.000658493
0.000643276
-0.00305753
0.000187127
0.00116899
-0.00419555
-3.21607e-05
0.00147105
-0.00537153
-0.000360338
0.00178572
-0.00557245
-0.00113724
0.00153362
-0.00638157
-0.001225
0.000510784
-0.00624453
0.000301026
-0.000402903
-0.00354843
0.000140013
-0.000497686
-0.00291395
0.000237234
-0.000486141
-0.00253199
1.38015e-05
-4.50606e-05
-0.00124325
-2.09244e-05
0.000632712
-0.00150089
0.000410796
0.000885849
-0.00211506
-9.43801e-06
0.000893316
-0.00315269
-0.000839871
0.000727073
-0.00468424
0.000305987
-0.000200463
-0.00194909
0.000321418
-0.000154499
-0.00172614
0.000371606
-0.00010903
-0.00153831
4.64942e-05
-0.000219717
-0.00167427
-8.79464e-05
-0.000259396
-0.00155669
-2.26871e-05
-0.000101658
-0.00120132
0.000608074
0.000144812
-0.000627283
0.000522083
0.000388885
-0.000177463
6.25774e-05
0.000505992
-0.00126904
0.000276876
-0.000392199
-0.00102048
0.000232207
-0.000463792
-0.000979053
0.000228169
-0.000328505
-0.000596143
0.000257522
8.7793e-06
0.00052751
8.88098e-05
0.000132608
0.000147799
-6.82886e-05
-2.1646e-05
-0.000925531
-6.71039e-05
-2.35473e-05
-0.00162506
0.000264414
-6.211e-05
-0.00261483
0.000458816
6.7032e-05
-0.000684475
0.000213717
0.000151551
-0.0009989
0.000119736
-0.000257937
-0.000185016
0.000197722
-0.000294597
-0.000644798
0.000174897
-0.000293401
-0.000827341
2.55927e-05
-0.000280076
-0.000881654
-1.36792e-05
-0.000259978
-0.000769089
-2.73274e-05
-0.000211933
0.000505866
3.83218e-05
-0.000176547
0.000684882
-3.18323e-05
-0.000129576
-0.000274305
6.29064e-05
-8.42263e-05
-0.00121322
8.76951e-05
-4.9792e-05
-0.00165144
1.21868e-05
-6.35223e-06
-0.000499671
5.56889e-05
-8.98301e-05
0.000278737
3.7564e-05
-0.000100134
1.23602e-05
6.26219e-05
-0.000105336
-0.000491047
3.85971e-05
-8.78764e-05
-0.000830867
-1.48102e-05
-7.71348e-05
-0.000755447
-2.73401e-05
-8.13598e-05
-0.000545009
-1.89002e-05
-8.03397e-05
0.000250469
1.40562e-05
-7.30227e-05
0.000740228
-2.14603e-05
-6.21379e-05
0.00042832
2.36351e-05
-7.49186e-05
-0.000196828
4.92967e-05
-0.000101984
-0.000810918
6.21812e-05
-7.3113e-05
-0.000912343
-0.00136281
5.70228e-05
-0.00332275
0.000118242
-0.00446368
-0.0010714
-1.17532e-05
-0.00428316
-0.00121096
-0.00014149
-0.00340716
-0.000532802
0.000307509
-0.00460323
-0.000753822
0.000159845
-0.00464918
-0.00084395
-9.30499e-06
-0.0047348
-0.00144653
-2.15526e-05
-0.00376755
-0.000155052
0.00107919
-0.00515563
-0.000468926
0.000585305
-0.00506935
-0.000852597
0.000259693
-0.00507896
-0.00113931
0.000227336
-0.00492164
-0.00141871
0.000228857
-0.00427188
0.000305967
0.00161819
-0.00501326
0.000232848
0.00139737
-0.00528562
-0.000313878
0.000976427
-0.00544085
-0.000851477
0.0006405
-0.0057384
-0.00127939
0.000391554
-0.00483837
-0.00136075
0.00048477
-0.00471159
0.000354065
0.00117858
-0.00473792
0.000583836
0.00142695
-0.00492906
0.00029112
0.00132541
-0.00590056
6.97702e-05
0.0010531
-0.0067005
-0.000700462
0.000943587
-0.00717845
-0.00144935
0.000213222
-0.00639755
-0.0010074
0.000181644
-0.00469124
0.000217309
-0.000101816
-0.00439479
0.00021787
0.000248988
-0.00353965
0.000653903
0.000776227
-0.00308143
0.000283711
0.00115174
-0.00414615
-0.000262351
0.00167107
-0.00501545
-5.73998e-05
0.00157245
-0.00514309
-0.000908629
0.00125276
-0.00622436
-0.00112242
0.000670832
-0.00663281
0.000409689
-0.00027555
-0.0038844
0.000257641
-0.000370016
-0.00361232
0.000137521
-0.000395208
-0.0027708
0.000146908
-0.000532744
-0.00214472
9.28897e-05
6.27685e-05
-0.000854139
-0.000189367
0.000670616
-0.00111898
0.000644957
0.000746873
-0.0020055
0.000314942
0.000766708
-0.00298518
-0.000368376
0.000754023
-0.00500731
0.000366288
-0.000114168
-0.00204495
0.000309009
-0.000180276
-0.00200011
0.000324463
-0.000181137
-0.00175032
0.000353668
-0.000176493
-0.00167768
8.39543e-05
-0.000305741
-0.00162307
-5.55764e-05
-0.000295582
-0.00137548
-1.35312e-05
-0.000133277
-0.000976805
0.000656894
6.50918e-05
-0.000695969
0.000699093
0.000429419
-0.000341167
0.000541693
0.000408473
-0.00200549
0.000282683
-0.000354395
0.000175154
0.000296945
-0.000435841
-0.00114765
0.000233934
-0.000467871
-0.000898725
0.000243035
-0.000308697
-0.000496108
0.00023377
4.32311e-07
0.000412237
3.0208e-05
4.10308e-05
2.75864e-05
-4.12741e-05
-5.83418e-05
-0.000811141
-3.12149e-05
-9.49647e-05
-0.00159283
0.000204488
-0.000137688
-0.00255169
0.000369304
6.12914e-05
-0.000875825
0.000284005
0.000199967
-0.00147069
0.000134819
-0.000233071
0.000266528
0.00012778
-0.000257072
-0.000312757
0.000216938
-0.000292502
-0.000800012
0.000173049
-0.000290723
-0.000951145
1.9857e-05
-0.000275868
-0.000900432
-4.30379e-05
-0.000241275
-0.000724049
-4.23857e-05
-0.000196766
0.000549571
5.79042e-05
-0.000171647
0.000683105
-7.18749e-06
-0.000137048
-0.000235756
5.3379e-05
-9.32016e-05
-0.00119956
6.68107e-05
-5.14208e-05
-0.00162388
1.15307e-05
-3.86093e-06
-0.000445159
3.71886e-05
-8.18633e-05
0.000427716
4.97126e-05
-8.96284e-05
0.000218519
4.06987e-05
-0.000100195
-3.34796e-05
5.64828e-05
-0.000103036
-0.000532371
2.94478e-05
-8.46314e-05
-0.000852818
-2.37421e-05
-7.51261e-05
-0.000737939
-3.4044e-05
-7.98536e-05
-0.000511451
-1.5448e-05
-7.98289e-05
0.000272723
1.55718e-05
-7.32813e-05
0.0007358
-1.99887e-05
-6.33827e-05
0.000436773
1.97889e-05
-7.62668e-05
-0.000242334
4.39069e-05
-0.000103874
-0.000824064
5.86555e-05
-7.15695e-05
-0.000899429
-0.00172275
0.000325313
-0.00244166
-0.00120444
5.78948e-05
-0.00366379
-0.00136744
6.59726e-05
-0.00323224
0.000271457
-0.00455904
-0.000871399
4.50713e-05
-0.00440293
-0.000931979
-4.88485e-05
-0.00428777
-0.00126939
-0.000147446
-0.00343685
-0.0004581
0.000476931
-0.00493452
-0.000410226
0.00021222
-0.00471431
-0.000803967
0.000100704
-0.00480782
-0.00107949
-5.82622e-06
-0.00481034
-0.00147709
1.70175e-05
-0.00372619
-0.00015134
0.00121556
-0.00512554
-0.000193423
0.000989798
-0.00513385
-0.000580435
0.000554741
-0.00509784
-0.000869975
0.000282875
-0.00511601
-0.00113421
0.000268248
-0.00510621
-0.00152612
0.000243875
-0.00435039
0.000220523
0.00178323
-0.00514089
0.000350769
0.0017023
-0.00508512
9.12992e-05
0.00133371
-0.00544308
-0.000299811
0.00095045
-0.00538122
-0.000946718
0.000596581
-0.00569717
-0.0011093
0.000496205
-0.00518985
-0.00135612
0.0005303
-0.00489316
0.00033429
0.000903575
-0.00473872
0.000431711
0.0012814
-0.0048062
0.000688874
0.00153331
-0.00517193
0.000286697
0.00125273
-0.00610318
-0.000467672
0.00122151
-0.0067731
-0.00081247
0.00113523
-0.00734539
-0.00117342
0.000506133
-0.00645725
-0.00111905
0.000391927
-0.00508654
0.00016446
-0.00013685
-0.00481112
0.000196256
4.9537e-05
-0.00413395
9.13419e-05
0.00043383
-0.00315108
0.000463603
0.000863956
-0.00311034
0.000148622
0.00127972
-0.00381053
-0.000106446
0.00154778
-0.0050737
5.4542e-05
0.00136812
-0.00466802
-0.000454429
0.00117873
-0.00596289
-0.000860244
0.000670758
-0.0068117
0.000337953
-5.15439e-05
-0.00370584
0.000379479
-0.000268924
-0.00405596
0.000160821
-0.000263664
-0.00358022
6.49657e-05
-0.000335588
-0.00267925
2.02121e-05
-0.000355654
-0.00166255
2.54152e-05
0.00015917
-0.000423684
3.67775e-05
0.00058415
-0.00100657
0.00100116
0.000616265
-0.00219932
0.000857947
0.000595569
-0.00298558
0.000125235
0.000533001
-0.00512386
0.000459545
-1.78938e-06
-0.00166118
0.000410289
-0.000127951
-0.00221062
0.000309739
-0.000196633
-0.00206042
0.000408712
-0.000188439
-0.00190406
0.000266332
-0.000269883
-0.0017461
1.27233e-05
-0.000385315
-0.00151585
-2.69131e-05
-0.000317482
-0.00120563
8.39709e-05
-0.000175584
-0.000851314
0.000612818
5.71098e-05
-0.000731991
0.000832348
0.000487539
-0.000883277
0.00103725
0.000261199
-0.00301993
0.000250911
-0.000302795
0.000466058
0.000287714
-0.000355938
-6.46829e-05
0.000332679
-0.00044878
-0.00128248
0.00023048
-0.000463562
-0.00080129
0.000222681
-0.000300362
-0.000398138
0.000147284
-2.36686e-05
0.000286614
2.58842e-06
-4.58497e-05
-2.98798e-05
1.14576e-05
-0.000151583
-0.000708076
3.39683e-05
-0.00018955
-0.00158212
0.00019532
-0.000216177
-0.00241617
0.000295079
6.35773e-05
-0.000967703
0.000180225
0.000227414
-0.00186679
8.68752e-05
-0.000223112
0.000405324
0.000137826
-0.000231508
0.000152851
0.000126625
-0.000259164
-0.000432022
0.000196248
-0.000294557
-0.000935943
0.000151954
-0.000285223
-0.0010643
1.94044e-06
-0.0002629
-0.000904489
-7.69601e-05
-0.000222605
-0.000655294
-3.95607e-05
-0.00019028
0.000592316
7.99224e-05
-0.000171217
0.000652924
9.92273e-06
-0.000145218
-0.000213651
4.10386e-05
-9.80382e-05
-0.00117419
4.33352e-05
-5.41132e-05
-0.00157306
7.10043e-05
1.17236e-05
-0.000469232
2.29778e-05
-7.34144e-05
0.00047585
4.50996e-05
-8.18707e-05
0.000374859
4.24061e-05
-8.95462e-05
0.000165464
4.25247e-05
-9.99275e-05
-7.91127e-05
4.79727e-05
-0.000100701
-0.000564274
1.91143e-05
-8.19166e-05
-0.000865142
-3.32142e-05
-7.32585e-05
-0.00071132
-3.86163e-05
-7.83986e-05
-0.000474265
-1.14304e-05
-7.93744e-05
0.000290247
1.81745e-05
-7.34156e-05
0.000727658
-1.91648e-05
-6.47225e-05
0.000444394
2.16307e-05
-7.94934e-05
-0.000288345
3.83962e-05
-0.00010582
-0.00082821
5.4203e-05
-7.01291e-05
-0.000883503
-0.000155992
-0.00272759
-0.00106929
1.44666e-05
-0.00309855
-0.00173765
0.000332086
-0.00240353
-0.00119708
0.000262661
-0.0040084
-0.00113522
7.56926e-05
-0.00347027
-0.00149471
0.00011998
-0.0031269
0.000401924
-0.00466169
-0.000663848
0.000286494
-0.00454684
-0.000915407
7.29053e-05
-0.00441324
-0.00120521
-5.55095e-05
-0.00425399
-0.00130832
-0.000180522
-0.00342509
-0.000365902
0.000792797
-0.00527769
-0.000533907
0.000461522
-0.00484334
-0.000675161
0.00020002
-0.00471889
-0.000886439
7.11505e-05
-0.00486833
-0.00107055
6.32554e-05
-0.00492024
-0.00166899
3.15043e-06
-0.00358647
-3.68802e-05
0.00141214
-0.00545547
3.76307e-05
0.00136243
-0.00518504
-0.000356965
0.000931729
-0.00506257
-0.000635967
0.000593827
-0.00507264
-0.000870778
0.000261888
-0.00518558
-0.00111588
0.000331433
-0.0051872
-0.00169276
0.000186671
-0.00420041
0.000246794
0.00187893
-0.00510059
0.000320949
0.00174774
-0.00507557
0.000502262
0.00169656
-0.00526136
0.000136299
0.0012089
-0.00555114
-0.000496495
0.000915825
-0.00567164
-0.00095159
0.000654691
-0.00571653
-0.000993534
0.000594019
-0.00543345
-0.00149223
0.000363269
-0.00488325
-0.000158249
0.000924443
-0.00469715
0.000722318
0.000858294
-0.00484168
0.000435405
0.00140721
-0.00502417
0.000424086
0.0015449
-0.00542458
0.000128418
0.00129006
-0.00615153
4.81929e-05
0.00141396
-0.00720647
-0.000770049
0.00115164
-0.00716631
-0.000904415
0.000763951
-0.00637929
-0.0010463
0.000461345
-0.00536183
0.000133736
-8.25638e-05
-0.00494929
0.000387207
-0.00010978
-0.00465954
0.000110433
0.000138566
-0.0037883
7.47873e-05
0.000557017
-0.00285396
0.000361789
0.00110828
-0.00328048
0.000185891
0.00142589
-0.00384911
-0.000237614
0.00142531
-0.0048565
0.000504921
0.00129361
-0.00428667
0.000156891
0.00102951
-0.00562059
-0.000576728
0.000611264
-0.006721
0.000336129
0.000122776
-0.00330173
0.000367215
-0.000130757
-0.00380093
0.000356403
-0.000274079
-0.00409221
0.000176103
-7.31544e-05
-0.00361005
-3.70917e-06
-0.000341123
-0.00242374
-8.91392e-05
-0.000262457
-0.00113906
2.27907e-05
0.000200567
-8.98049e-05
0.000306074
0.000456286
-0.00106869
0.000966406
0.000466489
-0.00242382
0.00109138
0.000392724
-0.00310434
0.000540308
0.000392717
-0.00501963
0.0002063
5.25163e-05
-0.00153741
0.000466285
-4.83479e-05
-0.00191935
0.000380647
-0.000170844
-0.00228438
0.000304004
-0.000197549
-0.00212484
0.000252835
-0.000241625
-0.00196247
0.000154755
-0.000351461
-0.00178743
-1.90719e-05
-0.000448371
-0.0013633
-6.87154e-06
-0.000314941
-0.00104795
0.000173005
-0.000219275
-0.000713966
0.00060908
8.53032e-05
-0.000743515
0.000857075
0.000533765
-0.00171784
0.000840825
0.000222265
-0.0039028
0.000185886
-0.000276763
0.000196333
0.000277727
-0.000274561
0.000244779
0.0002854
-0.00035653
-0.000315707
0.000313423
-0.000446928
-0.00141629
0.000211627
-0.000440837
-0.000720488
0.000210739
-0.000286507
-0.000344098
4.86582e-05
-7.44848e-05
0.000189631
-2.8322e-05
-0.000112434
-8.0268e-05
6.9672e-05
-0.000214672
-0.000672704
8.89301e-05
-0.000278912
-0.00159839
0.000180296
-0.000245386
-0.00224646
0.000246453
2.51311e-05
-0.000968539
0.000136638
0.000215682
-0.00214811
0.000116565
-0.000198893
0.000429084
0.000112548
-0.000226683
0.00033305
0.000140072
-0.000233402
2.94239e-05
0.000148583
-0.000265388
-0.000567248
0.000180776
-0.000292535
-0.00106144
0.000115448
-0.000273238
-0.00115029
-1.4712e-05
-0.000244179
-0.000901418
-9.56835e-05
-0.000207201
-0.000581306
-1.92999e-05
-0.000190536
0.000619504
8.91166e-05
-0.000173356
0.00061012
1.674e-05
-0.000148218
-0.000199376
2.34986e-05
-0.000101406
-0.00112877
2.45881e-05
-5.36318e-05
-0.00149389
8.80545e-05
3.23837e-05
-0.000535467
-1.06757e-05
-6.80247e-05
0.00022041
2.79105e-05
-7.36535e-05
0.000439722
5.36382e-05
-8.18517e-05
0.000313526
4.13724e-05
-8.96545e-05
0.000113819
4.11267e-05
-0.000100228
-0.000120712
3.86809e-05
-9.85889e-05
-0.000586282
6.28542e-06
-7.95688e-05
-0.000865117
-3.98896e-05
-7.15382e-05
-0.000678291
-4.07137e-05
-7.72569e-05
-0.000435669
-9.26301e-06
-7.87685e-05
0.000304862
2.04477e-05
-7.35674e-05
0.000716055
-1.82798e-05
-6.61013e-05
0.000449281
2.32949e-05
-8.27607e-05
-0.0003347
3.12159e-05
-0.000107252
-0.000822302
4.81564e-05
-6.801e-05
-0.000863649
-0.000233452
-0.00349727
-0.00147917
-0.000195386
-0.00279069
-0.00124716
-5.40146e-05
-0.00354564
-0.00102649
0.000358193
-0.00323338
-0.00180863
0.000268465
-0.00235808
-0.00078105
0.00035951
-0.00428971
-0.00110398
0.000228994
-0.00397313
-0.00112974
-2.36175e-06
-0.0034234
-0.00158362
0.000109782
-0.00296138
0.000632319
-0.00487769
-0.000602949
0.000387156
-0.00469331
-0.000823569
0.000254158
-0.00457969
-0.000991297
1.68523e-05
-0.00438074
-0.00131234
-1.64179e-05
-0.00417631
-0.00153318
-0.000174737
-0.00338617
-0.000207216
0.000993084
-0.00549928
-0.00041302
0.000806617
-0.00517213
-0.000536582
0.000417412
-0.00488112
-0.000680259
0.000177587
-0.00478104
-0.00088333
0.000102912
-0.00489543
-0.0011386
3.28402e-06
-0.00489766
-0.00179256
6.12833e-05
-0.00354795
2.65327e-05
0.0015427
-0.00567961
0.000102179
0.00155171
-0.00542598
-0.000112248
0.00139435
-0.00503314
-0.000148576
0.0010357
-0.00521957
-0.000600602
0.000491566
-0.00519821
-0.000887179
0.00031195
-0.00523051
-0.00114642
0.000321179
-0.00516882
-0.00167603
0.000130913
-0.00414753
-0.000261314
0.00189855
-0.00507411
0.00077954
0.00158745
-0.00499751
0.000653091
0.00176754
-0.00536423
0.000374752
0.0015173
-0.00552042
3.12425e-05
0.00119889
-0.00573703
-0.000362753
0.000986522
-0.00559253
-0.000932587
0.000764124
-0.0057241
-0.000831236
0.000560701
-0.00570407
-0.00147536
0.000194013
-0.0046482
-0.000200778
0.000777648
-0.00484609
0.000875185
0.000727981
-0.00505482
0.00033697
0.000968452
-0.00462946
0.000212779
0.00148731
-0.00510456
0.000429695
0.00138997
-0.0055924
0.000285254
0.00149723
-0.00633417
-0.000468905
0.00134304
-0.00716657
-0.000646073
0.00132272
-0.00657408
-0.000739553
0.00102133
-0.00604283
-0.00105799
0.000643235
-0.00552381
0.000282131
2.72264e-05
-0.00476503
0.000238874
-0.000121547
-0.00480918
0.000260487
-5.74386e-05
-0.00436761
4.49105e-05
0.000373893
-0.00347398
0.000224522
0.000916075
-0.00288999
0.000329276
0.00123632
-0.00350932
-0.000115302
0.00138174
-0.00366745
0.00016831
0.00134815
-0.00477327
0.000809967
0.00122233
-0.00432304
0.000562411
0.00085254
-0.00533289
-0.000475813
0.000553826
-0.00625871
8.36968e-05
0.00019154
-0.00380071
0.000338722
2.97488e-06
-0.0033079
0.000340116
-0.000216152
-0.00381833
0.000371663
-0.000300633
-0.00393239
-3.61424e-05
-0.000304437
-0.00335776
-0.000154586
-0.000136561
-0.00224029
-0.000169109
-5.79239e-05
-0.000730535
4.23019e-05
0.000199585
0.000117723
0.000373028
0.000351998
-0.00115422
0.00102804
0.000319365
-0.00276942
0.00131808
0.000282353
-0.00345498
0.000448584
0.000390156
-0.00501754
8.23697e-05
5.51403e-05
-0.00163579
0.00026453
9.71892e-06
-0.00158228
0.000474667
-0.000130233
-0.00214923
0.000358912
-0.000189766
-0.00233765
0.000159508
-0.000189736
-0.00212461
0.000210782
-0.00027611
-0.00203786
-2.41872e-05
-0.000406519
-0.00175643
-4.10908e-05
-0.000417084
-0.00124839
5.26565e-05
-0.000313524
-0.000936684
0.000245736
-0.000225533
-0.000559935
0.000533767
0.000113718
-0.000676938
0.000798517
0.000478685
-0.00252632
0.000534519
0.000241744
-0.00454243
0.000165759
-0.000213262
0.0004207
0.000229626
-0.00026617
7.08639e-05
0.000295706
-0.000258247
-9.13851e-06
0.000321602
-0.000320771
-0.000614883
0.000293092
-0.000405032
-0.00156441
0.00016629
-0.000402749
-0.000655089
0.000159233
-0.000275062
-0.000317466
-1.60685e-05
-0.000117614
0.000115196
-4.48957e-06
-0.000182273
-0.000127477
0.000110503
-0.000269809
-0.000703192
0.000115834
-0.000335684
-0.00160719
0.000155949
-0.000286046
-0.00206773
0.000239576
8.24793e-05
-0.00105032
5.81301e-05
0.000183585
-0.00230177
3.51468e-05
-0.00016148
0.000369107
0.000123618
-0.000208064
0.000314757
0.000125406
-0.000230174
0.000258055
0.000142583
-0.000239583
-9.75925e-05
0.000179334
-0.000269212
-0.000728778
0.000160937
-0.000276715
-0.00118021
7.07711e-05
-0.000250994
-0.00120796
-2.34233e-05
-0.000219219
-0.000905867
-9.42663e-05
-0.000196721
-0.000521568
1.87059e-05
-0.00019511
0.000613289
9.85008e-05
-0.000172497
0.000556346
1.50523e-05
-0.000152083
-0.000182032
5.42192e-07
-0.000101886
-0.00105776
8.44984e-06
-5.12706e-05
-0.00138747
5.07233e-05
4.64822e-05
-0.000584516
-2.02894e-05
-5.9655e-05
0.000217793
-5.09195e-06
-6.86542e-05
0.000220503
2.93706e-05
-7.3939e-05
0.000402439
5.67836e-05
-8.21815e-05
0.00024927
3.97082e-05
-9.01725e-05
6.40551e-05
4.10008e-05
-0.000100899
-0.000159403
3.21739e-05
-9.65578e-05
-0.000601467
-5.27573e-06
-7.74309e-05
-0.000853948
-4.40643e-05
-7.01312e-05
-0.000641352
-4.29707e-05
-7.58436e-05
-0.000395623
-8.74567e-06
-7.81194e-05
0.00031816
2.07573e-05
-7.38928e-05
0.000703089
-1.70089e-05
-6.74882e-05
0.000451018
2.36686e-05
-8.58593e-05
-0.000379762
2.76622e-05
-0.000108045
-0.00080993
4.26687e-05
-6.61618e-05
-0.000840156
-0.0014109
7.35343e-05
-0.00291795
-0.000101703
-0.00360809
-0.00103992