/*--------------------------------*- C++ -*----------------------------------*\
  =========                 |
  \\      /  F ield         | OpenFOAM: The Open Source CFD Toolbox
   \\    /   O peration     | Website:  https://openfoam.org
    \\  /    A nd           | Version:  7
     \\/     M anipulation  |
\*---------------------------------------------------------------------------*/
FoamFile
{
    version     2.0;
    format      ascii;
    class       surfaceScalarField;
    location    "2.5";
    object      phi_0;
}
// * * * * * * * * * * * * * * * * * * * * * * * * * * * * * * * * * * * * * //

dimensions      [0 3 -1 0 0 0 0];

internalField   nonuniform List<scalar> 
54095
(
0.000288101
-9.42985e-05
0.000248115
0.000528997
-0.000108257
-0.000619937
0.000162734
-0.000114612
-0.000160241
0.000305971
-9.76381e-05
3.97823e-05
0.000790212
-0.000190656
-0.000405142
0.000116677
-0.0001216
-0.00195349
0.00047742
-0.000102523
-0.000688863
6.75628e-06
-7.88729e-05
0.000317571
0.000123458
-0.000118565
-0.000262772
0.000306886
-9.56326e-05
-0.000171471
0.000755151
0.000208733
-0.00104125
0.000488442
0.000217666
-0.00386914
0.000705969
-0.000315017
-0.000318674
8.57293e-05
-9.64227e-05
-0.000714899
1.03301e-06
-0.000110802
-0.00182278
0.000438905
-0.000103679
-0.000717203
-3.86279e-05
-6.49407e-05
0.000359432
1.61208e-05
-7.88195e-05
0.000261705
0.000113026
-0.000116351
-0.00035508
0.000287449
-9.24166e-05
-0.000366503
0.00082197
0.000468107
-0.00515444
0.000602662
0.000318427
-0.00050443
0.000500767
0.000181169
-0.00101722
5.14767e-05
0.000260626
-0.00229492
0.000515015
0.000264924
0.00295245
0.000659927
-0.000166626
-0.000373071
-7.399e-05
-9.6822e-05
-0.000652153
9.61818e-05
-8.97949e-05
-0.000815967
1.72682e-05
-0.000100478
-0.00173022
0.000384939
-0.000100309
-0.000714385
-3.55146e-05
-7.20135e-05
0.000647368
-3.24481e-05
-6.40683e-05
0.000377129
2.12959e-05
-7.94631e-05
0.000203521
0.000105534
-0.000113923
-0.000439108
0.000258029
-8.85202e-05
-0.000536012
-0.000141887
0.000689783
-0.00489749
-0.000193256
0.00111213
-0.00471661
0.000346096
0.000617176
-0.00561694
7.43656e-05
0.000202542
-0.00180084
0.000536239
0.00033736
-0.000681845
0.000205192
0.000284386
-0.000846866
-9.67837e-05
0.000192835
-0.00214287
5.48496e-05
0.000282351
-0.00227102
0.000392876
0.000220532
0.00218968
0.00054584
-9.24741e-05
-0.000441497
-5.67768e-05
-0.00018209
0.000314165
-6.13833e-05
-0.00010594
-0.000607073
0.000112899
-8.77386e-05
-0.00092031
1.71761e-05
-9.52383e-05
-0.00164694
0.000330552
-7.26045e-05
-0.000714303
-2.53596e-05
-8.43085e-05
7.91409e-05
-2.62423e-05
-7.20936e-05
0.000681635
-2.7134e-05
-6.32952e-05
0.000388095
2.38356e-05
-7.9972e-05
0.000145735
0.000117129
-0.0001118
-0.000532956
0.000223669
-8.48843e-05
-0.000674796
-0.00141035
0.000537191
-0.00451674
-0.000566138
0.000862423
-0.00608577
-0.000349688
0.000653586
-0.0048553
-9.31953e-06
0.000999255
-0.00395758
-0.00036127
0.00117978
-0.0043817
-0.000554958
0.000779308
-0.0056361
-9.65659e-05
1.69775e-06
-0.00249532
-0.00010759
0.000229188
-0.00153023
0.000286167
0.000394132
-0.000684882
3.07018e-05
0.000358118
-0.000689846
-8.30904e-05
0.000245902
-0.00120407
-9.94894e-05
0.000183874
-0.00200628
0.000112714
0.000259553
-0.00230985
0.000441314
0.000251612
0.00142146
0.000419842
-7.80022e-07
-0.000530007
2.10324e-05
-0.000264231
0.000336551
-4.09948e-05
-0.000188443
0.00041142
-3.68474e-05
-0.000114066
-0.000571032
0.000117496
-8.81579e-05
-0.00102105
8.57019e-05
-6.86846e-05
-0.00161943
0.000269891
-6.14829e-05
-0.000699043
6.48963e-06
-8.83132e-05
-0.000603066
-2.42842e-05
-8.34513e-05
0.000114783
-1.67413e-05
-7.23365e-05
0.000707418
-2.31432e-05
-6.25266e-05
0.000393793
2.59541e-05
-7.98334e-05
8.7814e-05
0.000102868
-0.00010947
-0.000611238
0.00018758
-8.21069e-05
-0.000780269
-0.00159108
0.000275629
-0.00398917
-0.000311043
0.000612047
-0.00646398
-0.00142052
0.00040874
-0.00385465
-0.000212302
0.000968668
-0.00644106
-0.000950893
0.000943961
-0.00578653
-0.000970092
0.000558567
-0.00499873
0.000201815
0.000419547
-0.00309543
-0.000338059
0.00104661
-0.00359395
-0.000494929
0.0011022
-0.0039235
-0.00107528
0.000657897
-0.00518801
-0.000119187
-0.000113509
-0.00229249
-0.000126557
9.2892e-06
-0.00224835
-1.85254e-05
0.000217763
-0.00122262
0.000280287
0.000418744
-0.000584481
-0.000148811
0.000436381
-0.000557575
7.29014e-05
0.000215411
0.000562099
-9.333e-05
0.000223271
-0.00119113
-6.75903e-05
0.000196812
-0.0019128
0.000170357
0.000197121
-0.00230822
0.000426441
0.000215819
0.000864121
0.000301221
3.92817e-05
-0.000600618
4.88964e-05
-0.000294643
-0.000755459
1.69342e-05
-0.000260671
0.000367561
-2.31935e-05
-0.000190498
0.000494304
-3.60567e-05
-0.00012176
-0.000524516
0.000118853
-8.64782e-05
-0.00109616
0.000117465
-6.40121e-05
-0.0016315
0.000207641
-4.78228e-05
-0.000671282
1.26532e-05
-8.83849e-05
-0.000759111
2.39801e-06
-8.66866e-05
-0.000602228
-2.29454e-05
-8.27997e-05
0.000148191
-8.85305e-06
-7.25009e-05
0.000726245
-2.08787e-05
-6.1784e-05
0.000396622
2.97425e-05
-7.83739e-05
2.69749e-05
8.89846e-05
-0.000107129
-0.0006752
0.000152341
-7.95276e-05
-0.000853082
-0.00151584
-7.74783e-06
-0.00364129
-0.000786795
0.000574218
-0.00487947
-0.00153515
0.000181838
-0.00405637
3.85322e-05
0.000664638
-0.00609037
-0.000957695
0.000433311
-0.00648175
-0.00141249
0.000345808
-0.00375806
0.000553172
0.0010504
-0.00565712
-0.000714739
0.0011137
-0.00623412
-0.0011199
0.00114461
-0.0057476
-0.00147539
0.000623747
-0.00522237
0.000294337
-0.000193342
-0.00265374
-6.75242e-05
0.000506449
-0.0026143
-0.000222031
0.000998399
-0.00328664
-0.000410927
0.0011219
-0.00369629
-0.00123633
0.000647483
-0.00474798
3.83682e-05
-5.84351e-05
-0.00177182
-0.000120223
-0.000157356
-0.00209895
-9.19933e-05
-3.483e-05
-0.00197136
7.40299e-05
0.00022137
-0.000928919
0.000323073
0.000487107
-0.00053184
-0.000215776
0.000460902
-0.000501481
0.000153048
-4.77302e-05
0.000461533
8.11077e-05
0.000234617
0.00048658
-9.57195e-05
0.000215531
-0.00113732
-8.92068e-05
0.000139762
-0.00180229
0.000269828
0.000133395
-0.00237677
0.000485161
0.000152602
0.000383106
0.000177572
5.93659e-05
-0.000629915
6.91941e-05
-0.000297986
-0.00075343
5.0138e-05
-0.00028837
-0.000775501
1.6892e-06
-0.000253083
0.000405511
-9.37304e-06
-0.000191388
0.000564452
-3.26909e-05
-0.000127712
-0.00047147
0.000110701
-8.3016e-05
-0.00115811
0.00012782
-5.83202e-05
-0.00165983
0.000154392
-2.8448e-05
-0.000644885
6.12492e-05
-9.91026e-05
-0.000713494
4.18345e-06
-8.49471e-05
-0.000765034
-2.36636e-06
-8.55218e-05
-0.00059714
-2.05636e-05
-8.22007e-05
0.000178455
-2.96194e-07
-7.25672e-05
0.000737324
-2.16003e-05
-6.09526e-05
0.000400801
3.20088e-05
-7.65228e-05
-3.56404e-05
7.38249e-05
-0.000104022
-0.00072453
0.000120732
-7.79044e-05
-0.00089591
-0.00157658
8.16191e-05
-0.00372199
-0.00123784
0.00024874
-0.00433749
-0.00144735
6.64113e-06
-0.00373573
-0.000255853
0.000699952
-0.00495865
-0.00115461
0.000417024
-0.00491774
-0.00148924
9.93458e-05
-0.00407897
0.000703713
0.00104613
-0.00573589
-0.000790743
0.000737817
-0.00631887
-0.00117751
0.000460416
-0.00653875
-0.00134481
0.000170653
-0.00405929
0.000634001
0.000760931
-0.00407328
-0.000202658
0.00127303
-0.00568131
-0.000658511
0.00141454
-0.00606757
-0.000994073
0.00162248
-0.00616319
-0.00155928
0.000669624
-0.00556905
0.000178726
-0.000414747
-0.00285507
0.00021641
-0.000163224
-0.0023207
-8.40685e-05
0.000624015
-0.00224784
-0.00017779
0.0009729
-0.00288582
-0.000216463
0.00113452
-0.00364379
-0.00109203
0.000702115
-0.00457384
0.000209487
-6.42189e-05
-0.00127725
3.86313e-05
-0.00017642
-0.00171028
-0.000106647
-0.000186343
-0.00193651
-4.82262e-05
-4.38242e-05
-0.00174714
0.000271035
0.00021358
-0.0006566
0.000386588
0.000446962
-0.000419327
-0.000254097
0.000494264
-0.000564076
0.000214974
-0.000322459
-0.000884515
0.000201956
-1.90496e-05
0.000563382
0.000104001
0.00023865
0.000361148
-8.09979e-05
0.000183973
-0.00110991
-7.20782e-05
0.000106356
-0.00173586
0.000304274
4.59721e-05
-0.00246372
0.000496031
9.89524e-05
-2.4693e-05
6.34178e-05
7.79727e-05
-0.000616913
0.000165782
-0.000315525
-0.000595669
5.54261e-05
-0.000289859
-0.000803183
3.66005e-05
-0.00028127
-0.000786281
-6.52392e-06
-0.000243109
0.000443193
1.02439e-05
-0.000190097
0.000616296
-4.34282e-05
-0.000127972
-0.000404686
9.39273e-05
-8.01062e-05
-0.00119824
0.00011346
-5.04583e-05
-0.00167746
0.00010734
-1.38314e-05
-0.000617662
6.48885e-05
-0.00010863
-0.000393125
5.59302e-05
-9.52933e-05
-0.000759078
-3.04722e-06
-8.20651e-05
-0.000765444
-9.22713e-06
-8.43312e-05
-0.000585782
-1.8764e-05
-8.15504e-05
0.000206202
6.82718e-06
-7.25891e-05
0.000742134
-2.3223e-05
-6.06316e-05
0.000408133
3.19061e-05
-7.53521e-05
-9.62168e-05
6.44883e-05
-0.000102893
-0.00076403
9.43519e-05
-7.61558e-05
-0.000914106
5.41433e-05
-0.00321407
-0.0011727
0.000139303
-0.00418104
-0.00142605
3.55739e-05
-0.00377886
-0.000658767
0.000448126
-0.0046826
-0.00122019
0.000197285
-0.00446255
-0.00143621
9.86605e-05
-0.00388742
0.000186861
0.00110892
-0.00491767
-0.000729001
0.000620836
-0.0052242
-0.00139183
0.000249338
-0.00485342
-0.00145127
0.000223316
-0.00419583
0.000474377
0.00140544
-0.00534403
-0.000258131
0.00114426
-0.00608686
-0.00100806
0.00082694
-0.00633584
-0.00119836
0.000350881
-0.00651468
-0.00126119
-0.000175379
-0.004182
0.000363054
0.000243369
-0.00319866
0.000560271
0.00112972
-0.00427383
-0.000150144
0.00138222
-0.00558292
-0.000494492
0.0016683
-0.00579669
-0.000910018
0.00169498
-0.00649499
-0.00136638
0.000636933
-0.00593163
0.000170466
-0.00044477
-0.00306594
0.000282257
-0.000493488
-0.00276843
7.07782e-05
-9.93357e-05
-0.00177478
-4.49569e-05
0.000582753
-0.00186096
-0.000107269
0.000971481
-0.00234448
-9.64714e-05
0.00101108
-0.0034697
-0.00101056
0.000740939
-0.00455831
0.000331783
-0.000150523
-0.00164593
0.000272911
-0.000135485
-0.00138914
7.18988e-05
-0.000140387
-0.00172413
-0.000122749
-0.000201807
-0.00173678
-4.17419e-05
-0.000111104
-0.00145279
0.00047088
0.000209273
-0.000585517
0.00044017
0.000426838
-0.000296039
-0.000267364
0.000528022
-0.000761316
0.000221337
-0.000414562
-0.00104977
0.000221553
-0.000330749
-0.000738942
0.00024956
6.098e-06
0.000582975
7.4833e-05
0.000198527
0.000265237
-6.58437e-05
0.000118154
-0.00104562
-9.70947e-05
7.10865e-06
-0.00164333
0.000289005
-2.63887e-05
-0.00253345
0.000500198
5.03521e-05
-0.00038381
6.41447e-05
0.000126539
-0.000700257
0.000180315
-0.000300437
-0.000495938
0.000173536
-0.000302761
-0.000700373
4.29637e-05
-0.000283742
-0.000846722
2.0764e-05
-0.000272122
-0.000787258
-1.43193e-05
-0.00022886
0.000477511
1.94975e-05
-0.000183568
0.000659222
-4.03823e-05
-0.00012932
-0.000338312
7.71432e-05
-7.72615e-05
-0.00121668
9.87613e-05
-4.79474e-05
-0.00167762
7.0094e-05
-9.95413e-06
-0.00058345
3.02747e-05
-0.000100018
5.90161e-05
6.38535e-05
-0.000107451
-0.000444821
4.86587e-05
-9.15142e-05
-0.000798287
-9.91128e-06
-7.96733e-05
-0.00076019
-1.85003e-05
-8.30192e-05
-0.000565813
-1.80908e-05
-8.09213e-05
0.000232625
1.27482e-05
-7.27099e-05
0.000741464
-2.33062e-05
-6.13875e-05
0.000417475
2.88566e-05
-7.47531e-05
-0.000153213
5.58338e-05
-0.000102278
-0.000793741
7.50444e-05
-7.44731e-05
-0.000914677
7.57814e-05
-0.00419461
-0.00127828
-1.8934e-05
-0.00334291
-0.000715796
0.00025157
-0.00457977
-0.00115326
9.60634e-05
-0.00430845
-0.00141426
-1.05407e-05
-0.00379027
-0.000415508
0.000810631
-0.00488504
-0.000746307
0.000324639
-0.00479265
-0.00125531
0.000176791
-0.0046772
-0.00144329
0.000143288
-0.00403868
0.000272838
0.00150458
-0.00513025
-0.000366428
0.00100142
-0.00518996
-0.00104416
0.000602483
-0.00554126
-0.00128744
0.000294145
-0.00483517
-0.00141683
0.000360443
-0.00440063
0.000524284
0.00135785
-0.00497821
0.00049665
0.00140122
-0.00553738
-0.000173105
0.00109585
-0.00633281
-0.000694749
0.000809632
-0.00659433
-0.00123877
7.87588e-05
-0.00644007
-0.00117072
-0.000102809
-0.00427486
0.000161206
-5.43632e-05
-0.00388097
0.000649852
0.000623826
-0.00306037
0.000216136
0.00116402
-0.00420098
-1.46709e-05
0.0014586
-0.0054035
-0.000376847
0.00178028
-0.00561241
-0.00114051
0.00157287
-0.00638689
-0.00124547
0.000509638
-0.00620635
0.000301927
-0.000406136
-0.00355212
0.000138432
-0.000498969
-0.00292598
0.000246557
-0.000489635
-0.00255279
1.40286e-05
-5.07662e-05
-0.00127804
-2.2742e-05
0.000630852
-0.00153933
0.000372861
0.000891187
-0.00212656
-6.31648e-06
0.000899508
-0.00318178
-0.000865298
0.000725094
-0.00468547
0.000305891
-0.00020311
-0.001943
0.000321912
-0.000154087
-0.00172768
0.000368503
-0.000109303
-0.00153917
4.62713e-05
-0.000218055
-0.00167932
-8.71679e-05
-0.000258639
-0.00156792
-2.62927e-05
-0.000101621
-0.0012127
0.000598241
0.000146822
-0.000614737
0.000522149
0.000388282
-0.00017825
3.73667e-05
0.000507494
-0.00124203
0.000275414
-0.000389131
-0.00101498
0.000231034
-0.000462592
-0.00097542
0.000228088
-0.000326826
-0.000591143
0.000257903
1.02516e-05
0.000534111
9.04739e-05
0.000132954
0.000145643
-6.83959e-05
-2.01338e-05
-0.000930485
-7.03838e-05
-2.02803e-05
-0.00161944
0.000267363
-6.03348e-05
-0.00261298
0.000462601
6.37567e-05
-0.000684868
0.000200207
0.000149816
-0.000980185
0.000119823
-0.000258631
-0.000178419
0.000196465
-0.000295339
-0.000635972
0.000174405
-0.000293865
-0.000815996
2.50392e-05
-0.000280285
-0.000873509
-1.19919e-05
-0.000260656
-0.000761971
-2.68905e-05
-0.000212454
0.000515196
3.77103e-05
-0.000176182
0.000681122
-3.25144e-05
-0.000128804
-0.000277562
6.28594e-05
-8.40395e-05
-0.00121459
8.94408e-05
-5.03012e-05
-0.00167088
1.46516e-05
-6.53635e-06
-0.000516521
5.48375e-05
-8.98938e-05
0.000280611
3.7562e-05
-0.000100253
1.4256e-05
6.30377e-05
-0.000105441
-0.000493931
3.87263e-05
-8.80284e-05
-0.000828659
-1.46606e-05
-7.74215e-05
-0.000751127
-2.67241e-05
-8.16098e-05
-0.000538401
-1.83148e-05
-8.03974e-05
0.000258627
1.3754e-05
-7.31462e-05
0.000739469
-2.19574e-05
-6.22379e-05
0.000426917
2.42411e-05
-7.53273e-05
-0.000204405
4.91219e-05
-0.000101992
-0.000815344
6.18125e-05
-7.29118e-05
-0.000903578
-0.00136171
5.30778e-05
-0.00332854
0.000121146
-0.00446058
-0.00107459
-1.07795e-05
-0.00428144
-0.00121152
-0.000140065
-0.00340559
-0.00053067
0.000313155
-0.00460427
-0.00075445
0.000163707
-0.00463927
-0.00084636
-7.73169e-06
-0.00472021
-0.00144629
-2.0817e-05
-0.00376646
-0.000168983
0.00107548
-0.00516668
-0.000461133
0.000597809
-0.00506351
-0.000851579
0.000260774
-0.00506921
-0.001145
0.00022364
-0.0049
-0.00142112
0.00022519
-0.00425958
0.000304547
0.00162005
-0.00502044
0.000244564
0.00140535
-0.00528209
-0.000303762
0.000979761
-0.00543658
-0.000845347
0.000641399
-0.00573791
-0.00128721
0.000384426
-0.00481072
-0.0013625
0.000475145
-0.004684
0.000356149
0.0011582
-0.00474232
0.00057925
0.00141966
-0.00492604
0.000310992
0.00133561
-0.005872
8.30071e-05
0.00104922
-0.00667007
-0.000692872
0.000932748
-0.0071323
-0.00146251
0.000190459
-0.00641134
-0.00101074
0.000143573
-0.00465317
0.000215237
-0.000111258
-0.00440824
0.000218793
0.000227553
-0.00356506
0.000665758
0.000771047
-0.0030866
0.000290034
0.00114016
-0.00415856
-0.000265075
0.00165646
-0.00503734
-8.15979e-05
0.00160057
-0.00518565
-0.000923106
0.00127585
-0.00623631
-0.00114148
0.000658393
-0.00658856
0.000410627
-0.00027854
-0.00387218
0.000261674
-0.000377627
-0.00361322
0.000138257
-0.000401063
-0.0027843
0.000152983
-0.000536625
-0.00217364
9.78468e-05
5.68102e-05
-0.000889009
-0.000197226
0.000673408
-0.00115062
0.000631803
0.000752986
-0.0020136
0.000308762
0.000769221
-0.00301252
-0.000416094
0.000765534
-0.00499754
0.000363727
-0.000116499
-0.00203246
0.00030747
-0.0001801
-0.00199342
0.000323879
-0.000180781
-0.001752
0.000355926
-0.000173371
-0.00168188
8.66859e-05
-0.00030385
-0.00163032
-5.63699e-05
-0.000295579
-0.00138599
-1.94788e-05
-0.000133296
-0.000983488
0.000656167
6.70244e-05
-0.000682284
0.000679147
0.000427679
-0.000314981
0.000474418
0.000422257
-0.0019385
0.000282639
-0.000353238
0.000176653
0.000294853
-0.000434959
-0.001141
0.000234319
-0.000467362
-0.000894798
0.00024389
-0.000307658
-0.000492084
0.000235981
1.64788e-06
0.000417445
3.10618e-05
4.14698e-05
2.60876e-05
-4.15835e-05
-5.58565e-05
-0.000815615
-3.44369e-05
-9.19189e-05
-0.00158593
0.000204531
-0.000133636
-0.00255726
0.000372902
6.02795e-05
-0.000878793
0.000292324
0.000196341
-0.0014542
0.000133702
-0.000233303
0.000273962
0.000128204
-0.00025772
-0.000306681
0.000216994
-0.00029302
-0.000790773
0.000172554
-0.000291078
-0.000939031
2.00119e-05
-0.000276431
-0.000892407
-4.13765e-05
-0.000242343
-0.000717429
-4.14809e-05
-0.00019721
0.00055939
5.72907e-05
-0.000171233
0.000680015
-9.18563e-06
-0.000136414
-0.00023796
5.33351e-05
-9.32202e-05
-0.00120076
6.79856e-05
-5.24631e-05
-0.00164381
9.04237e-06
-4.41679e-06
-0.000459334
3.671e-05
-8.1958e-05
0.000428074
4.89206e-05
-8.96973e-05
0.000221134
4.08486e-05
-0.000100325
-3.17091e-05
5.70599e-05
-0.000103111
-0.000535909
2.96984e-05
-8.47512e-05
-0.000851027
-2.34941e-05
-7.54016e-05
-0.000733841
-3.34921e-05
-8.01157e-05
-0.00050519
-1.49709e-05
-7.99071e-05
0.000280359
1.55569e-05
-7.33441e-05
0.000735018
-2.03406e-05
-6.35151e-05
0.000435445
2.03417e-05
-7.65951e-05
-0.000250144
4.40295e-05
-0.000103665
-0.00082862
5.82682e-05
-7.13594e-05
-0.000890487
-0.00172082
0.000325128
-0.0024449
-0.00120439
5.42568e-05
-0.00367188
-0.00136131
6.13682e-05
-0.00324012
0.000272136
-0.00455734
-0.000864922
4.34805e-05
-0.00440437
-0.000928296
-4.86373e-05
-0.00429093
-0.00126678
-0.000148453
-0.00343665
-0.000459926
0.000477864
-0.00494373
-0.000405729
0.000215694
-0.00471166
-0.000800084
0.000103017
-0.00480152
-0.00107504
-7.24737e-06
-0.00480373
-0.00147306
1.77749e-05
-0.00373229
-0.000150532
0.00120986
-0.00513639
-0.000181589
0.000998858
-0.00514157
-0.000570669
0.000555903
-0.00509173
-0.000864881
0.000282957
-0.00510899
-0.00113993
0.000264583
-0.00508667
-0.00151686
0.000247944
-0.00435317
0.000218587
0.00178549
-0.00514252
0.000343808
0.00169729
-0.00507694
0.000100756
0.00134356
-0.00543565
-0.000294507
0.000953959
-0.00537163
-0.000946074
0.00059751
-0.00569779
-0.0011241
0.000481764
-0.00515574
-0.00134793
0.000535064
-0.00488187
0.000332097
0.000893055
-0.00475461
0.000431682
0.0012676
-0.00480315
0.000698743
0.00152921
-0.00515262
0.000295402
0.0012567
-0.00608485
-0.00046819
0.00120633
-0.00674053
-0.000807868
0.00112997
-0.00734554
-0.00120395
0.00047308
-0.00646
-0.00111935
0.000372611
-0.00504791
0.000169181
-0.000142161
-0.00482912
0.00020094
3.77666e-05
-0.00415772
9.72986e-05
0.000425391
-0.00317844
0.000471177
0.000848956
-0.00311358
0.000159163
0.00126187
-0.00382528
-9.42169e-05
0.00156202
-0.0051018
5.75828e-05
0.00138678
-0.00472236
-0.000481833
0.00119295
-0.00598027
-0.000894617
0.000672901
-0.00678294
0.000339727
-4.87945e-05
-0.00369823
0.000380351
-0.000272227
-0.00405047
0.000167268
-0.00026959
-0.00358809
6.91858e-05
-0.000341861
-0.00269233
3.05719e-05
-0.000364508
-0.00169621
3.53225e-05
0.000155258
-0.00046255
8.63667e-06
0.000587849
-0.0010136
0.000976084
0.000622276
-0.00218657
0.000815355
0.000609366
-0.00299256
3.06791e-05
0.000553646
-0.00510745
0.00045655
-2.48995e-06
-0.00164854
0.000408882
-0.000126497
-0.00220009
0.000311084
-0.000196562
-0.00205441
0.000409938
-0.000186274
-0.00190514
0.000270769
-0.000266826
-0.00175369
1.47094e-05
-0.000383161
-0.00152639
-2.83049e-05
-0.000316781
-0.00121578
7.34474e-05
-0.000174408
-0.00084994
0.000609698
5.66066e-05
-0.000716379
0.000824754
0.000484181
-0.000828757
0.00103141
0.000265516
-0.0029431
0.000249281
-0.000302071
0.00047914
0.000288211
-0.000355933
-6.23798e-05
0.000331713
-0.000448469
-0.00127461
0.000229839
-0.000463769
-0.000795972
0.000224177
-0.000299522
-0.00039508
0.000151332
-2.22087e-05
0.000288414
3.67521e-06
-4.50324e-05
-2.98925e-05
1.08614e-05
-0.000149027
-0.000712077
2.92336e-05
-0.000184251
-0.00157374
0.000194485
-0.000214346
-0.00242379
0.000299792
6.34297e-05
-0.000977688
0.00018827
0.000226484
-0.00185991
8.46746e-05
-0.000223157
0.00041394
0.000136847
-0.000231762
0.000160078
0.000127228
-0.000259718
-0.000426363
0.000197729
-0.00029492
-0.000927601
0.00015263
-0.000285886
-0.00105251
2.53781e-06
-0.000264049
-0.000896733
-7.56226e-05
-0.000223816
-0.000648692
-3.89325e-05
-0.000190512
0.000602631
7.96372e-05
-0.000170957
0.000650478
8.69705e-06
-0.000144696
-0.000215522
4.21558e-05
-9.82891e-05
-0.00117675
4.49121e-05
-5.4616e-05
-0.0015945
6.85408e-05
1.05332e-05
-0.000480139
2.27259e-05
-7.34624e-05
0.000476197
4.47597e-05
-8.19707e-05
0.000375588
4.16694e-05
-8.96301e-05
0.00016877
4.27859e-05
-0.000100059
-7.75462e-05
4.86665e-05
-0.000100734
-0.000568593
1.95239e-05
-8.20056e-05
-0.000863947
-3.29973e-05
-7.35279e-05
-0.000707432
-3.81797e-05
-7.86623e-05
-0.000468255
-1.10998e-05
-7.94535e-05
0.000297568
1.8328e-05
-7.34706e-05
0.000726645
-1.94051e-05
-6.48684e-05
0.000443124
2.18441e-05
-7.96751e-05
-0.000295978
3.86724e-05
-0.000105641
-0.000833011
5.38399e-05
-6.99345e-05
-0.000874392
-0.000152141
-0.00272319
-0.00107262
1.83378e-05
-0.00309735
-0.00173551
0.00033623
-0.00240692
-0.00119198
0.00026311
-0.00401258
-0.00113689
7.3764e-05
-0.00347568
-0.00148685
0.000116584
-0.00313663
0.000404784
-0.00466025
-0.000661789
0.000286367
-0.00454417
-0.000911204
7.22113e-05
-0.00441409
-0.00119843
-5.77624e-05
-0.00425823
-0.00130158
-0.000180893
-0.00342723
-0.000365895
0.000794421
-0.00527807
-0.000528244
0.000464983
-0.00484636
-0.000665393
0.000201606
-0.00471552
-0.000883451
7.05223e-05
-0.00486072
-0.00107244
6.37188e-05
-0.00491716
-0.00166334
6.16427e-06
-0.00359197
-3.83541e-05
0.00139995
-0.00545999
3.77636e-05
0.00136023
-0.00519172
-0.000360497
0.000934238
-0.00505865
-0.000631897
0.000596684
-0.00506807
-0.000876052
0.000260354
-0.00517478
-0.00111513
0.000329426
-0.00517713
-0.00168938
0.000193596
-0.00420532
0.000232031
0.00187871
-0.00509911
0.000312464
0.0017436
-0.00506961
0.000506574
0.00170671
-0.00524792
0.000144252
0.00121882
-0.00554937
-0.000488701
0.000916048
-0.00566965
-0.000959782
0.000646728
-0.00571084
-0.00100943
0.000587646
-0.00540284
-0.00148695
0.000377722
-0.004892
-0.00015226
0.000912188
-0.00471197
0.000715717
0.000853277
-0.00485506
0.000445955
0.00139862
-0.00502121
0.000433932
0.00155224
-0.00541092
0.000136292
0.00128195
-0.0061376
7.3692e-05
0.00140989
-0.00718836
-0.000764672
0.00115107
-0.00720128
-0.000923733
0.00074176
-0.00638725
-0.00105229
0.000443574
-0.00533381
0.000155139
-8.10549e-05
-0.00496107
0.000379792
-0.000112658
-0.00467814
0.000121508
0.000130138
-0.00381671
7.03099e-05
0.000540414
-0.00287103
0.000367853
0.00109042
-0.00327942
0.000204875
0.00142183
-0.00385465
-0.000242417
0.00143774
-0.0049017
0.000461489
0.00130884
-0.00432365
0.00010183
0.00105368
-0.00564752
-0.000605584
0.000611704
-0.00675838
0.00033467
0.000126321
-0.00329854
0.000367685
-0.00012804
-0.00380122
0.000360607
-0.000271671
-0.00409791
0.00017985
-8.03146e-05
-0.00361954
-5.23681e-07
-0.000346669
-0.00243887
-8.22574e-05
-0.000273417
-0.00117057
2.13502e-05
0.000198231
-0.000122588
0.000284236
0.000460299
-0.00106241
0.000960124
0.000475448
-0.00240308
0.00108141
0.00040071
-0.00309628
0.0005225
0.000400687
-0.00499923
0.000205623
5.33074e-05
-0.00154083
0.000465915
-4.61743e-05
-0.00190657
0.000380381
-0.000170014
-0.0022753
0.000302337
-0.000197771
-0.00211541
0.000258669
-0.000239014
-0.00196745
0.000161596
-0.0003488
-0.00179831
-1.70584e-05
-0.000447232
-0.00137521
-7.94735e-06
-0.000315742
-0.00105564
0.000164259
-0.000219079
-0.00070928
0.000608922
8.34576e-05
-0.000730093
0.000857063
0.000533284
-0.0016538
0.000865476
0.000221407
-0.00384171
0.000182849
-0.000276084
0.000207514
0.0002762
-0.000274379
0.000258233
0.000285955
-0.000356772
-0.000312803
0.000314504
-0.000447117
-0.00140804
0.000212525
-0.000442522
-0.000712867
0.000213139
-0.000286088
-0.000341802
5.17899e-05
-7.31793e-05
0.000189149
-2.69642e-05
-0.000111335
-7.95535e-05
6.7831e-05
-0.000212849
-0.000671673
8.67597e-05
-0.000275501
-0.00159065
0.000180357
-0.000243651
-0.00225491
0.000250166
2.15038e-05
-0.000977961
0.000150032
0.000218391
-0.00215979
0.000114514
-0.00019908
0.000433903
0.000110737
-0.000226638
0.000342839
0.000139416
-0.000233591
3.62047e-05
0.000148743
-0.000265976
-0.000561263
0.000181967
-0.000293175
-0.00105361
0.000116911
-0.000274713
-0.00113923
-1.40516e-05
-0.000245983
-0.000893512
-9.49745e-05
-0.000208358
-0.000574052
-1.87467e-05
-0.000190691
0.000630012
8.88005e-05
-0.000173064
0.000608374
1.58084e-05
-0.000147907
-0.000201118
2.51395e-05
-0.000101488
-0.00113317
2.53291e-05
-5.42711e-05
-0.00151635
8.867e-05
3.11532e-05
-0.000546123
-1.11156e-05
-6.80483e-05
0.000219889
2.77253e-05
-7.37013e-05
0.000440203
5.32824e-05
-8.19547e-05
0.00031463
4.07743e-05
-8.97184e-05
0.000117655
4.15275e-05
-0.000100384
-0.000119424
3.91561e-05
-9.85681e-05
-0.000591186
6.70504e-06
-7.96415e-05
-0.000864539
-3.97745e-05
-7.17958e-05
-0.000674524
-4.02605e-05
-7.75129e-05
-0.000429935
-8.91655e-06
-7.88615e-05
0.000311876
2.05904e-05
-7.36189e-05
0.000714806
-1.84094e-05
-6.6267e-05
0.000448125
2.3634e-05
-8.2971e-05
-0.000342283
3.14734e-05
-0.000107102
-0.000827316
4.7707e-05
-6.77886e-05
-0.000854311
-0.000231796
-0.00349336
-0.00148585
-0.000192857
-0.00278
-0.00124571
-4.93902e-05
-0.00354886
-0.00102714
0.000358338
-0.00322921
-0.00180672
0.000276976
-0.00236403
-0.000773503
0.00035769
-0.0042932
-0.00110471
0.000230514
-0.00397583
-0.00112578
-5.13585e-06
-0.00342661
-0.0015738
0.000108137
-0.00297255
0.000634207
-0.0048791
-0.000597458
0.000386936
-0.0046916
-0.000817665
0.000255609
-0.00457529
-0.000992983
1.66746e-05
-0.004379
-0.00131089
-1.85277e-05
-0.00418215
-0.00152433
-0.000177274
-0.00338897
-0.00020436
0.000993589
-0.00550222
-0.000403057
0.000809141
-0.00518141
-0.000543344
0.00041987
-0.00488178
-0.000678679
0.000177073
-0.00477529
-0.000881466
9.98025e-05
-0.00489139
-0.00113356
5.76631e-06
-0.00489833
-0.00179047
5.95232e-05
-0.0035504
-4.90814e-06
0.001531
-0.00568962
0.000102335
0.00154466
-0.00543429
-0.000106593
0.00139391
-0.00503822
-0.000141573
0.0010381
-0.00521424
-0.000602519
0.000498346
-0.00519224
-0.000889975
0.00030942
-0.00522458
-0.00115246
0.000324445
-0.00516494
-0.0016767
0.000132115
-0.00414768
-0.000264191
0.00190088
-0.00507764
0.000760569
0.00160252
-0.00500289
0.000658114
0.00177321
-0.00534827
0.000390177
0.00152929
-0.00551462
4.27114e-05
0.00119985
-0.00573959
-0.000358439
0.000987344
-0.00557814
-0.000936806
0.000758993
-0.00571006
-0.00084406
0.000569607
-0.0056744
-0.0014768
0.00020372
-0.0046712
-0.00017656
0.0007679
-0.00486801
0.000841152
0.000733935
-0.00505399
0.000346406
0.000959872
-0.00464121
0.000212557
0.00147254
-0.00508376
0.000424489
0.00140029
-0.0055859
0.000299632
0.00148338
-0.00630585
-0.000440946
0.00134939
-0.00718814
-0.000666034
0.00129928
-0.00663127
-0.00078036
0.000991165
-0.00605265
-0.00105163
0.000648898
-0.00553666
0.00028804
2.81875e-05
-0.00476348
0.000231086
-0.000121493
-0.00481564
0.000265256
-6.60116e-05
-0.00438664
5.15008e-05
0.000346039
-0.00349399
0.000209404
0.000899403
-0.00288994
0.000344364
0.00122497
-0.00350917
-9.6021e-05
0.00138279
-0.00368233
0.000130263
0.00136075
-0.00479964
0.000776739
0.00123672
-0.00432331
0.000552305
0.000860713
-0.00536742
-0.000477144
0.000554977
-0.00631371
8.71135e-05
0.000192975
-0.00380908
0.000340225
1.01968e-05
-0.00331108
0.000339084
-0.000209597
-0.003822
0.00037075
-0.000297198
-0.00394944
-2.74145e-05
-0.000301286
-0.00337884
-0.000150374
-0.000152407
-0.00224792
-0.000164602
-6.82447e-05
-0.000756551
3.31976e-05
0.000199249
9.73162e-05
0.000359935
0.000357943
-0.00114058
0.00102528
0.000325274
-0.00274401
0.00130537
0.000283068
-0.00342697
0.000458473
0.000402284
-0.00499451
7.92747e-05
5.62862e-05
-0.00163297
0.000257951
1.07572e-05
-0.00157951
0.000474378
-0.00012728
-0.00213772
0.000361915
-0.000189818
-0.00233067
0.000170215
-0.000188949
-0.00212316
0.000215698
-0.000274195
-0.00204461
-1.97021e-05
-0.000406872
-0.00176718
-4.05237e-05
-0.000419772
-0.00125762
4.82863e-05
-0.000313952
-0.000941222
0.000241225
-0.000225401
-0.000554888
0.000536297
0.000112207
-0.000664957
0.000806447
0.000481886
-0.00247056
0.000578815
0.000231977
-0.00450247
0.000162061
-0.000213009
0.000430263
0.000227349
-0.000265453
8.19762e-05
0.000294407
-0.000258405
4.87429e-06
0.000320823
-0.000321727
-0.000610274
0.000293275
-0.000406768
-0.0015551
0.000168417
-0.000404392
-0.000646068
0.000162851
-0.00027531
-0.000316574
-1.4881e-05
-0.000116707
0.000114428
-4.09439e-06
-0.000181193
-0.000125862
0.000109102
-0.000268457
-0.000699018
0.000113744
-0.000332817
-0.00159942
0.000157544
-0.000288932
-0.00207688
0.000243191
7.72466e-05
-0.00105468
6.345e-05
0.000182383
-0.00231696
3.33774e-05
-0.000161633
0.000368652
0.000121847
-0.000208108
0.000321252
0.000123694
-0.00022998
0.000268815
0.000142133
-0.000239707
-9.14237e-05
0.000180089
-0.000269825
-0.000723174
0.000162386
-0.000278235
-0.00117332
7.24327e-05
-0.000253154
-0.00119779
-2.27925e-05
-0.000221376
-0.000897475
-9.37526e-05
-0.000197815
-0.000513436
1.93027e-05
-0.000195302
0.00062403
9.87092e-05
-0.000172375
0.000554723
1.47568e-05
-0.000151939
-0.000183833
1.76786e-06
-0.000101892
-0.00106369
1.00051e-05
-5.19315e-05
-0.0014118
5.5231e-05
4.64794e-05
-0.000600126
-2.08224e-05
-5.97038e-05
0.000212074
-5.48363e-06
-6.86738e-05
0.000220345
2.92409e-05
-7.39849e-05
0.000402992
5.67189e-05
-8.22551e-05
0.000250448
3.88443e-05
-9.02558e-05
6.86822e-05
4.12682e-05
-0.000100988
-0.000158272
3.24099e-05
-9.64957e-05
-0.000606742
-5.00039e-06
-7.74956e-05
-0.000853838
-4.39103e-05
-7.03711e-05
-0.000637755
-4.24132e-05
-7.61267e-05
-0.000390257
-8.39315e-06
-7.8233e-05
0.000324883
2.06754e-05
-7.3932e-05
0.000701795
-1.70514e-05
-6.76414e-05
0.000449847
2.39289e-05
-8.60785e-05
-0.000387235
2.73086e-05
-0.000107882
-0.000814532
4.21303e-05
-6.58952e-05
-0.000830546
-0.00141449
7.11908e-05
-0.00291632
-0.000104109
-0.00360447
-0.00103383
-0.00016332
-0.00351621