/*--------------------------------*- C++ -*----------------------------------*\
  =========                 |
  \\      /  F ield         | OpenFOAM: The Open Source CFD Toolbox
   \\    /   O peration     | Website:  https://openfoam.org
    \\  /    A nd           | Version:  7
     \\/     M anipulation  |
\*---------------------------------------------------------------------------*/
FoamFile
{
    version     2.0;
    format      ascii;
    class       volVectorField;
    location    "2.5";
    object      U_0;
}
// * * * * * * * * * * * * * * * * * * * * * * * * * * * * * * * * * * * * * //

dimensions      [0 1 -1 0 0 0 0];

internalField   nonuniform List<vector> 
18750
(
(3.14909 -0.313513 -1.11487)
(2.69857 0.317406 -0.650203)
(2.01085 0.00570197 -2.86565)
(3.49729 -0.425895 -1.16553)
(3.07328 0.184138 -1.50338)
(1.09709 1.26087 -0.808696)
(2.61821 0.192482 -0.576388)
(-0.0900614 -0.220164 -1.94468)
(1.81208 -0.0143399 -2.98175)
(3.64948 -0.553508 -1.26796)
(2.22335 0.562259 -0.14893)
(0.429564 3.59127 0.154892)
(2.61182 -0.0239587 -2.23695)
(0.311819 0.447398 -0.996954)
(0.270514 1.3317 -0.803137)
(2.40329 0.0778383 -0.662596)
(-0.264659 -0.237409 -1.31487)
(-0.0156873 -0.188046 -2.0116)
(1.84081 -0.0931132 -2.81357)
(3.51276 -0.644677 -1.31185)
(1.78163 3.18127 -0.397879)
(2.88142 0.25675 1.25249)
(2.24384 0.507031 -0.245406)
(0.64261 1.58245 1.36587)
(-0.00432951 0.170116 0.142052)
(2.41209 -0.180672 -1.4877)
(-0.651074 0.478634 -0.253663)
(0.45415 0.475074 -0.858826)
(0.162051 1.20229 -0.748459)
(2.11629 0.0136132 -0.612415)
(-0.356166 -0.421164 -1.37037)
(-0.263644 -0.234063 -1.26368)
(0.0693674 -0.16374 -2.10403)
(1.82752 -0.152172 -2.64625)
(3.22422 -0.671142 -1.28448)
(1.73688 3.32914 0.590873)
(0.476213 3.21346 2.451)
(0.690082 3.59615 0.388631)
(-0.195376 1.28639 0.742264)
(3.15361 0.0394099 1.18457)
(2.22485 0.2664 0.0634818)
(-0.0304268 1.49576 0.973565)
(0.733924 1.47664 1.56433)
(-0.107759 -2.88898 0.343359)
(2.1541 -0.208741 -1.22163)
(-0.370922 -0.156988 -1.03721)
(-0.479337 0.480046 -0.309138)
(0.486617 0.52271 -0.766999)
(0.041722 1.11849 -0.750535)
(1.81619 -0.0427449 -0.527204)
(-0.31459 -0.034402 -1.65835)
(-0.334181 -0.428275 -1.39245)
(-0.268421 -0.225248 -1.21435)
(0.142153 -0.146275 -2.18702)
(1.72745 -0.18873 -2.51873)
(2.86499 -0.658219 -1.23131)
(-2.03942 3.32578 0.464714)
(-1.17627 4.22317 1.7874)
(1.32841 2.9954 0.342952)
(0.693836 2.769 2.66428)
(0.177828 3.03206 2.3682)
(-0.610456 4.09484 1.18005)
(-0.512697 1.79201 0.401585)
(-0.0859802 1.15844 0.932974)
(2.18158 0.173461 1.45399)
(1.7404 0.133264 0.426498)
(-0.230194 0.835677 0.64518)
(0.0257658 1.43352 1.0898)
(1.03787 1.41184 1.19466)
(0.367995 -0.934977 0.63438)
(1.90569 -0.24012 -0.825525)
(-0.145433 -0.214439 -1.53781)
(-0.225947 -0.219199 -1.11564)
(-0.322566 0.458168 -0.382203)
(0.480226 0.56828 -0.704577)
(0.661002 0.948675 -0.449189)
(1.50023 -0.0608897 -0.393237)
(0.07586 0.403267 -1.88176)
(-0.292554 -0.0420278 -1.65415)
(-0.295906 -0.440658 -1.41795)
(-0.283229 -0.210572 -1.16643)
(0.212175 -0.140395 -2.24206)
(1.59076 -0.196784 -2.4274)
(2.47737 -0.607168 -1.17424)
(-2.06686 2.69738 -0.118257)
(-0.302124 4.28277 1.09638)
(-1.96498 2.9495 0.502111)
(-0.531814 4.40324 1.53292)
(-1.17484 4.07818 1.9275)
(-0.524634 3.41945 -0.145984)
(0.195486 2.15432 1.91462)
(-0.199044 2.54352 2.87075)
(-0.0876456 2.85977 2.32389)
(-0.791789 3.95163 0.44335)
(-0.272724 1.61266 -0.402273)
(-0.380766 1.64477 0.378496)
(0.177352 0.92044 1.00558)
(2.28064 -0.046666 1.50784)
(1.113 0.101108 0.783906)
(0.370882 -0.392047 1.36143)
(-0.194596 0.828426 0.454276)
(0.21006 1.22925 1.17766)
(1.25822 1.33555 1.15374)
(0.504249 -0.965531 0.850069)
(1.62474 -0.187862 -0.494535)
(0.103619 0.496808 -2.1032)
(-0.175124 -0.224157 -1.55378)
(-0.115363 -0.289701 -1.16566)
(-0.184214 0.42524 -0.455444)
(0.476316 0.617827 -0.628538)
(0.63233 0.969837 -0.441798)
(1.20303 -0.0242353 -0.223676)
(0.0749951 0.508199 -1.79707)
(0.059937 0.4018 -1.86622)
(-0.277133 -0.0516873 -1.65273)
(-0.27861 -0.440293 -1.44245)
(-0.304559 -0.189815 -1.11928)
(0.287391 -0.146614 -2.25195)
(1.43727 -0.191729 -2.37589)
(2.08469 -0.513388 -1.14358)
(-1.87411 2.48034 -0.143362)
(-0.429163 3.48386 0.810333)
(-1.81577 2.89018 -0.0481149)
(0.0988582 3.95996 0.849471)
(-1.08357 4.47851 0.676899)
(-1.77205 2.82876 0.530201)
(0.790902 3.66586 1.99599)
(-0.476081 4.35808 1.68196)
(-1.0712 4.06498 2.04877)
(-2.11927 4.01404 -1.1622)
(-0.159695 1.8396 -0.000503835)
(0.121447 1.93035 2.07173)
(0.216158 2.38743 2.50637)
(-0.107929 2.72499 2.4098)
(-0.913331 3.72981 0.157238)
(0.0828888 1.19584 -0.295083)
(-0.207834 1.5023 -0.325313)
(-0.198202 1.49864 0.264826)
(0.497585 0.663117 1.11778)
(2.02955 -0.24931 1.60838)
(0.574736 0.167773 1.03308)
(0.453294 -0.280153 0.432504)
(0.312538 -0.394391 1.37506)
(-0.0993785 0.813214 0.462755)
(0.168942 1.2911 0.674518)
(1.43122 1.18647 0.721331)
(0.996419 -0.927879 0.905142)
(1.31193 -0.132517 -0.248031)
(0.244612 0.481807 -1.98176)
(0.093313 0.511404 -2.05531)
(-0.193741 -0.228866 -1.53894)
(-0.0209597 -0.367542 -1.21026)
(-0.0831204 0.375768 -0.514017)
(0.50981 0.629158 -0.560104)
(0.601282 0.941652 -0.426711)
(0.946741 -0.000762017 -0.0370639)
(0.351713 0.454272 -1.89339)
(0.0304911 0.518739 -1.75469)
(0.0307876 0.402776 -1.8574)
(-0.263203 -0.0607255 -1.65064)
(-0.249528 -0.451664 -1.46642)
(-0.339665 -0.163864 -1.06152)
(0.341571 -0.148306 -2.22231)
(1.33609 -0.191512 -2.30442)
(1.73787 -0.413464 -1.08099)
(-1.35362 2.47523 0.112157)
(-1.35029 2.9242 0.120448)
(-1.61357 2.62849 -0.148123)
(0.254095 3.36075 0.72198)
(-1.10757 3.30864 0.479964)
(-1.61384 3.00307 0.00594638)
(1.30971 3.5107 1.19986)
(-1.15066 4.33055 0.694034)
(-1.21429 4.61351 0.489605)
(-1.37925 3.01654 0.522846)
(1.48687 2.66041 1.8702)
(0.156603 3.79758 2.43795)
(0.00735955 4.16386 2.36524)
(-0.241876 4.16637 3.29165)
(-2.23701 4.4664 -1.23778)
(0.264749 1.91809 -0.924981)
(-0.0184286 1.70302 0.2541)
(0.226719 1.61576 2.27939)
(0.434393 2.06706 2.54468)
(0.434075 2.47534 2.61399)
(-0.529005 3.57025 0.601618)
(0.532778 0.817582 -0.0273884)
(0.278209 1.15033 -0.645542)
(-0.174471 1.39739 -0.477923)
(-0.141381 1.29169 0.206932)
(1.09401 0.188836 1.44612)
(1.93263 -0.383163 1.53465)
(0.0517537 0.344786 1.28465)
(0.573483 0.623816 -0.800813)
(0.474624 -0.372395 0.592644)
(0.144414 -0.320426 1.30525)
(-0.0356883 0.799929 0.480063)
(0.154029 1.19783 0.520511)
(1.48607 1.17801 0.202422)
(1.33976 -0.639321 0.832904)
(1.0356 -0.0778126 0.0330612)
(1.06713 0.332312 -2.18998)
(0.186315 0.502529 -1.95165)
(0.0872495 0.516798 -1.98139)
(-0.19007 -0.249676 -1.51484)
(0.0503172 -0.437346 -1.24681)
(-0.0468009 0.335676 -0.541592)
(0.551904 0.635533 -0.492137)
(0.485218 1.036 -0.344908)
(0.72915 0.0505878 0.113695)
(0.428272 0.250534 -2.27123)
(0.30115 0.469106 -1.80551)
(0.00480149 0.526606 -1.7218)
(0.0028309 0.41035 -1.84839)
(-0.247889 -0.0716385 -1.6456)
(-0.234242 -0.453564 -1.49301)
(-0.389247 -0.122188 -1.0306)
(0.358588 -0.135544 -2.17982)
(1.1883 -0.165634 -2.30765)
(1.44129 -0.309685 -1.01191)
(-1.80132 2.08071 -0.14954)
(-1.316 2.75156 0.0486062)
(-1.13319 2.63402 0.0803673)
(-0.675521 3.13234 0.459815)
(-1.12339 3.11924 0.163651)
(-1.34687 2.80154 -0.0655688)
(1.03279 3.09773 1.20709)
(-0.402152 3.34476 0.685216)
(-1.10052 3.47389 0.22286)
(-1.35441 3.18955 0.294741)
(0.886143 3.48372 2.12141)
(-0.0910192 3.95592 1.6543)
(-0.901288 4.3333 0.948572)
(-0.97145 4.6706 0.0115242)
(-0.938079 3.18213 0.703724)
(0.555476 2.25442 0.866888)
(1.29082 2.59057 2.29519)
(0.269415 3.78804 2.87679)
(0.280235 3.96289 3.00241)
(0.549894 4.34221 3.53828)
(-1.41439 4.73423 -0.863781)
(0.689381 2.0217 -0.988529)
(0.254155 1.89391 -1.07162)
(0.154443 1.3432 0.650215)
(0.474271 1.28681 2.15428)
(0.733587 1.6325 2.46808)
(0.921342 2.26175 2.4546)
(-0.0160603 3.38744 0.929596)
(0.853662 1.04898 -0.32163)
(0.904343 0.809111 -0.356137)
(0.727896 0.994153 -0.672531)
(-0.0127492 1.25114 -0.478407)
(0.108699 1.12219 -0.134152)
(1.36478 -0.0968319 1.24416)
(1.76357 -0.53017 1.52094)
(-0.362947 0.637408 1.50097)
(0.667597 0.706894 -1.91851)
(0.557476 0.487222 -0.734947)
(0.325206 -0.464061 0.722729)
(0.0147116 -0.192458 1.02743)
(0.0837943 0.725296 0.360488)
(0.0488314 1.18142 0.253465)
(1.43832 1.22218 -0.129891)
(1.41057 -0.686816 0.71652)
(0.802019 0.0138495 0.202693)
(1.05249 0.259704 -2.1757)
(1.09579 0.32407 -2.11699)
(0.130409 0.528229 -1.93514)
(0.0298809 0.523604 -1.87428)
(-0.209849 -0.260204 -1.47247)
(0.139013 -0.521022 -1.23479)
(-0.0173597 0.285674 -0.577228)
(0.599405 0.623645 -0.45682)
(0.579209 0.991143 -0.297738)
(0.567069 0.0754044 0.193961)
(0.126419 -0.0557784 -2.25277)
(0.406927 0.242811 -2.21424)
(0.252254 0.491347 -1.73197)
(0.00261945 0.529935 -1.69351)
(-0.0157062 0.410902 -1.83909)
(-0.238237 -0.0820882 -1.63806)
(-0.228071 -0.46441 -1.51864)
(-0.405136 -0.101071 -1.04111)
(0.34841 -0.114804 -2.14753)
(1.06545 -0.13486 -2.31211)
(1.19942 -0.21359 -0.945449)
(-0.940198 2.78086 0.237954)
(-1.36311 2.35119 -0.293737)
(-0.684006 2.99559 0.223726)
(-1.09869 2.86046 0.0011227)
(-1.02809 2.74096 0.0609126)
(-0.365802 3.24509 0.609153)
(-0.779537 3.18212 0.312423)
(-1.33729 3.19729 0.294165)
(-1.06528 2.95135 -0.0654571)
(0.754828 3.32959 1.76459)
(0.0668235 3.36354 1.02264)
(-0.743478 3.7038 0.492746)
(-0.968425 3.54599 0.255135)
(-1.14203 3.33845 0.337519)
(0.861303 3.29826 2.1156)
(1.26421 3.45637 1.98774)
(0.560357 4.14161 1.68333)
(-0.103232 4.43559 0.992752)
(-0.843906 4.85061 -1.26731)
(-0.553141 3.21504 0.781623)
(0.10801 2.63837 0.0554947)
(1.24736 1.92482 1.76175)
(0.75968 2.77567 2.35762)
(0.453936 3.7625 3.12805)
(0.517979 3.89388 3.04442)
(1.02014 4.31065 3.068)
(-0.973213 4.87911 -0.436888)
(0.995404 2.29398 -0.951729)
(0.794752 1.88113 -1.19537)
(0.111478 1.75481 -1.17379)
(-0.0410265 1.03518 0.613807)
(0.298163 1.13229 2.23558)
(1.39667 1.10189 2.08094)
(1.29349 1.84779 2.37445)
(0.600914 3.22257 1.11851)
(0.809523 1.23315 -0.599536)
(1.02932 1.01279 -0.398043)
(1.46538 0.729071 -0.115975)
(0.786786 1.07398 -0.770229)
(0.0620372 1.1569 -0.559573)
(0.125693 0.883117 0.0709636)
(1.45455 -0.165936 1.09482)
(1.66696 -0.685544 1.53922)
(0.128648 0.748336 1.33872)
(0.71609 0.608112 -1.56077)
(0.796313 0.595719 -2.06465)
(0.54169 0.350849 -0.659487)
(0.232243 -0.456119 0.68861)
(-0.0926707 -0.142022 0.594124)
(0.0458588 0.695752 -0.189736)
(0.116033 1.1554 -0.0530505)
(1.3637 1.28238 -0.389291)
(1.3587 -0.33917 0.972361)
(0.637806 0.158128 0.262891)
(0.62021 0.0545721 -1.95048)
(1.12358 0.265459 -2.09509)
(1.07845 0.333351 -2.06573)
(0.0440646 0.600061 -1.93062)
(-0.11056 0.583089 -1.72756)
(-0.25292 -0.255846 -1.40592)
(0.194122 -0.575283 -1.22706)
(-0.0144138 0.250896 -0.580471)
(0.610163 0.615257 -0.464074)
(0.648693 0.932994 -0.326571)
(0.514038 0.0734763 0.239768)
(0.568953 -0.217778 -1.93812)
(0.217195 -0.0365231 -2.28086)
(0.444325 0.257584 -2.14165)
(0.20689 0.513676 -1.67508)
(-0.0384682 0.543804 -1.66185)
(-0.044777 0.415544 -1.82861)
(-0.217767 -0.0948208 -1.63407)
(-0.234325 -0.451896 -1.55047)
(-0.416925 -0.0767095 -1.06313)
(0.343984 -0.0843273 -2.13623)
(0.962222 -0.108552 -2.31731)
(1.01092 -0.131752 -0.883094)
(-0.569506 2.27313 0.280528)
(-0.528702 2.91998 -0.0791551)
(-0.773591 2.81293 0.254298)
(-1.08681 2.45345 -0.352596)
(-0.370524 2.99397 0.331836)
(-0.361916 3.08095 0.177722)
(-0.560965 3.21162 -0.0871426)
(-0.978979 2.7793 0.0134781)
(0.141216 3.47641 1.23957)
(-0.35586 3.36833 0.426136)
(-0.750519 3.48325 0.115441)
(-0.691473 3.49614 0.389301)
(-0.715402 3.09779 0.0325633)
(0.95835 3.23047 2.21016)
(0.891325 3.35606 1.63702)
(0.241279 3.52927 1.14036)
(0.00847142 3.92405 0.58833)
(-0.696023 3.52465 0.577957)
(-0.812078 3.46569 0.427109)
(0.656927 3.00078 2.22044)
(1.47004 3.11702 2.24087)
(1.08984 3.63572 1.81825)
(1.37018 4.11535 1.63551)
(0.690437 4.60183 1.45802)
(-1.53836 5.05182 -1.13177)
(-0.0262366 3.35538 0.766484)
(0.401152 2.97723 -0.22779)
(0.162279 2.4331 0.608173)
(1.47599 1.76148 1.83792)
(0.963712 2.69415 2.43371)
(0.889678 3.19908 3.56843)
(1.96364 3.21177 3.05922)
(1.3042 4.08648 2.21279)
(-0.224003 5.09875 0.0379531)
(0.888994 2.44327 -0.937059)
(0.984783 2.20847 -0.983232)
(0.846715 1.92476 -1.13103)
(0.0754108 1.62742 -0.894429)
(0.088978 0.739298 0.791535)
(0.306423 0.793619 2.26577)
(1.95506 0.626521 1.67079)
(1.73256 1.46492 2.16801)
(2.20102 2.68332 1.64047)
(1.15811 1.2289 -0.589454)
(0.869692 1.23457 -0.548887)
(1.19408 0.993212 -0.498105)
(1.71229 0.726254 -0.470551)
(1.03683 0.747654 -1.04008)
(0.153942 0.998323 -0.714056)
(0.296698 0.665266 -0.141526)
(1.48842 -0.345474 0.824885)
(1.60134 -0.878777 1.62428)
(1.45237 0.275771 0.635026)
(0.49312 -0.195488 -1.67606)
(0.904559 0.629829 -1.83926)
(0.899772 0.447977 -2.12289)
(0.501175 0.256492 -0.589177)
(0.0891944 -0.376601 0.584603)
(-0.186015 0.0118621 0.00726579)
(0.12317 0.581436 -0.120076)
(0.264205 1.08507 -0.0605812)
(1.33001 1.26028 -0.531353)
(1.29165 -0.225461 1.10668)
(0.33999 0.749803 0.606236)
(0.494855 -0.233543 -1.66805)
(0.670111 0.104007 -1.9742)
(1.11156 0.300813 -2.04338)
(0.996782 0.364916 -2.03846)
(0.0727773 0.5843 -1.93629)
(-0.221838 0.612736 -1.56951)
(-0.347315 -0.250049 -1.32143)
(0.140689 -0.600723 -1.22331)
(0.0116892 0.191648 -0.674515)
(0.570203 0.60346 -0.474968)
(0.733649 0.87167 -0.326637)
(0.508328 0.0158202 0.282974)
(0.492161 -0.30649 -1.81975)
(0.484377 -0.207784 -1.93731)
(0.277292 -0.0393425 -2.28978)
(0.467884 0.257619 -2.06384)
(0.204107 0.529825 -1.62592)
(-0.0652213 0.554906 -1.62869)
(-0.0596802 0.416046 -1.81638)
(-0.205424 -0.109816 -1.63395)
(-0.247071 -0.453246 -1.57334)
(-0.408676 -0.0660614 -1.11511)
(0.345736 -0.0784585 -2.14147)
(0.887005 -0.0773198 -2.32466)
(0.871814 -0.0672029 -0.823901)
(-1.35436 1.7763 0.0636242)
(-0.663916 2.53364 -0.188276)
(-0.41684 2.27755 0.215595)
(-0.559232 2.99335 0.285229)
(-0.550871 2.97887 -0.271571)
(-0.19091 2.9578 0.0823078)
(-0.882054 2.52877 -0.377305)
(-0.27456 3.26653 0.30343)
(-0.0125764 3.10419 0.187494)
(-0.143177 3.20438 0.0692436)
(-0.463358 3.33034 -0.0598286)
(-0.883812 2.88034 -0.0986334)
(0.0157136 3.42873 1.34513)
(0.379505 3.35143 0.97132)
(0.0670526 3.38493 0.490104)
(-0.512752 3.56253 0.14945)
(-0.542938 3.62951 0.479657)
(-0.442044 3.3249 0.0650972)
(0.629088 3.40385 2.21373)
(0.915463 3.24374 2.14392)
(1.04729 3.3286 1.49525)
(0.672397 3.50734 1.1582)
(-0.151442 4.03867 0.513779)
(-0.068344 3.61 0.788423)
(-0.174072 3.68827 0.461382)
(0.573513 3.15292 1.4157)
(1.15401 2.99289 2.31937)
(1.60473 2.99491 2.2399)
(1.64992 3.7249 1.71962)
(0.567828 4.44103 1.65084)
(0.797459 4.95826 1.66232)
(-0.544934 5.06729 -0.33602)
(0.275677 3.49912 0.620879)
(0.96139 3.23697 -0.211883)
(0.582999 2.84186 0.251743)
(0.427717 2.18384 1.0692)
(1.35509 1.77598 1.75775)
(1.22332 2.37396 2.72665)
(0.369962 3.49356 2.97523)
(2.50687 2.70032 2.74825)
(2.29914 3.53704 2.25327)
(0.604799 4.92434 0.325405)
(0.759511 2.35892 -0.324532)
(1.09885 2.55539 -0.793296)
(1.06011 2.31203 -0.589797)
(0.607175 1.57599 -1.62091)
(0.0367461 1.34618 -0.569023)
(0.10378 0.458339 0.983493)
(0.161095 0.756457 1.98368)
(2.16247 0.373078 1.31166)
(2.46748 0.882459 1.87798)
(3.11502 2.14077 1.36932)
(1.43555 0.934483 -0.0909156)
(1.24169 1.31443 -0.508336)
(0.885787 1.19454 -0.606696)
(1.43154 0.875873 -0.536596)
(1.78928 0.618285 -0.699848)
(0.8307 0.883939 -1.12842)
(0.256863 0.821511 -0.701481)
(0.411613 0.49959 -0.373211)
(1.23461 -0.186531 0.972894)
(1.32253 -0.525266 1.8612)
(2.90618 -0.303292 -0.400226)
(0.778197 -0.42014 -1.25711)
(0.554707 -0.124597 -1.77202)
(1.26449 0.617254 -1.84902)
(1.05858 0.389375 -2.05245)
(0.442719 0.155964 -0.566063)
(-0.0514313 -0.249523 0.384146)
(-0.24588 0.128301 -0.37739)
(0.335925 0.419498 -0.716075)
(0.550339 0.951501 -0.515283)
(1.34601 1.12465 -0.684978)
(1.05408 -0.0789023 1.163)
(0.561978 1.06852 0.952208)
(0.0901708 -0.298451 -1.59603)
(0.451368 -0.182517 -1.6505)
(0.679092 0.136696 -2.00679)
(0.994735 0.358947 -2.0512)
(0.883909 0.435811 -1.99047)
(-0.0231031 0.647939 -1.8487)
(-0.324155 0.648722 -1.44798)
(-0.333995 -0.254157 -1.26472)
(0.1169 -0.611042 -1.24538)
(0.0134685 0.171393 -0.798919)
(0.530553 0.615249 -0.502401)
(0.783759 0.752568 -0.338143)
(0.592786 -0.217514 0.479205)
(0.0433682 -0.324107 -1.5961)
(0.56181 -0.315056 -1.82628)
(0.380254 -0.183731 -1.94731)
(0.314071 -0.0303446 -2.28825)
(0.4721 0.256436 -1.98761)
(0.201779 0.543045 -1.58684)
(-0.0853137 0.562728 -1.59502)
(-0.0805532 0.411638 -1.80409)
(-0.195774 -0.120229 -1.63472)
(-0.239643 -0.455053 -1.59038)
(-0.391389 -0.0638748 -1.17747)
(0.39681 -0.118633 -2.22734)
(0.821088 -0.0566541 -2.33038)
(0.780999 -0.0313896 -0.760909)
(-1.04641 1.87788 -0.072467)
(-0.940879 2.10813 0.445425)
(-1.28294 1.81905 0.0800462)
(-0.524033 2.71362 0.276725)
(-0.641567 2.45085 -0.10668)
(-0.419725 2.25564 0.233119)
(-0.474746 3.03012 0.256685)
(-0.252672 3.01757 0.344318)
(-0.459624 3.02815 -0.175676)
(-0.372991 2.9862 0.0840669)
(-0.67817 2.60644 -0.394402)
(-0.121887 3.39512 0.702044)
(-0.129321 3.18904 0.275775)
(-0.263482 3.14888 0.161167)
(0.0348201 3.26914 0.0399777)
(-0.0893018 3.3957 0.13089)
(-0.957374 2.96427 -0.0796775)
(0.140066 3.58351 1.51155)
(0.581114 3.31602 1.41986)
(0.273876 3.29168 0.83529)
(0.113736 3.39588 0.505836)
(-0.13262 3.61065 0.156728)
(-0.206716 3.75802 0.515275)
(-0.554113 3.34656 -0.0141309)
(0.536969 3.40272 2.45279)
(0.764991 3.20889 2.4797)
(1.57246 3.05597 2.13852)
(0.972509 3.51529 1.40766)
(0.451836 3.68479 1.09702)
(0.0678002 4.005 0.584691)
(0.36698 3.63611 0.952371)
(-0.256981 3.87074 0.1907)
(-0.156775 3.18147 1.40808)
(0.694378 3.12234 1.59974)
(0.773402 3.21006 2.62578)
(1.4841 3.19198 2.16486)
(1.31574 3.88344 2.13809)
(2.24022 4.12827 2.06742)
(1.1129 4.86897 1.7811)
(0.292099 4.75934 0.49054)
(0.875524 3.60961 0.403882)
(0.837157 3.26593 -0.337786)
(1.05931 2.96414 -0.107355)
(0.441867 2.52816 0.548154)
(0.530424 2.00876 1.36337)
(1.08549 1.92491 1.95324)
(1.0529 2.32934 2.89439)
(1.6343 3.07095 2.53218)
(3.55095 1.34911 2.45394)
(3.54618 2.35961 2.01482)
(1.73536 4.45793 0.510769)
(0.859493 2.10088 0.0981598)
(1.17815 2.34604 -0.436891)
(1.37401 2.47793 -0.694417)
(1.44661 2.10944 0.147684)
(0.236783 1.74045 -1.12288)
(-0.0815682 1.0245 -0.327406)
(-0.000955288 0.170559 0.908247)
(0.459235 0.502053 1.68132)
(2.40154 0.347235 0.912275)
(3.5353 -0.0297085 1.24042)
(4.2861 0.789281 1.11345)
(0.835614 0.952673 0.0806491)
(1.45274 1.01774 -0.230912)
(1.25234 1.28214 -0.547278)
(0.81538 1.22711 -0.600411)
(1.45746 0.914094 -0.898306)
(1.45197 0.692952 -1.06873)
(0.717974 0.729296 -1.28168)
(0.357614 0.668307 -0.727024)
(0.542383 0.278724 -0.591943)
(1.17332 -0.257106 1.06758)
(1.4085 -0.218108 1.99292)
(2.9009 0.509871 -0.324736)
(0.767321 -0.198576 -1.23732)
(0.858999 -0.308651 -1.20913)
(0.604775 0.0659379 -1.84856)
(1.30681 0.562168 -1.88739)
(1.00721 0.170261 -2.02921)
(0.40849 0.113634 -0.562332)
(-0.21728 -0.0634317 0.0395177)
(-0.245753 0.161085 -0.595581)
(0.521063 0.190409 -1.04637)
(0.751499 0.73911 -1.03815)
(1.35182 0.981341 -0.703357)
(0.826669 0.137045 1.0658)
(1.15346 0.82516 0.864829)
(0.467569 -0.333333 -1.47369)
(0.147259 -0.245417 -1.6024)
(0.416666 -0.132622 -1.66415)
(0.703416 0.174216 -2.03883)
(0.855237 0.425411 -2.04294)
(0.741693 0.49624 -1.92406)
(-0.148953 0.717739 -1.71988)
(-0.370403 0.663193 -1.41322)
(-0.329668 -0.310081 -1.23768)
(0.10882 -0.592806 -1.24667)
(-0.00739133 0.191726 -0.860464)
(0.522826 0.602337 -0.519814)
(0.814439 0.659504 -0.313951)
(0.683288 -0.278083 0.716863)
(-0.215064 -0.140485 -1.49101)
(0.0798237 -0.307728 -1.60398)
(0.651556 -0.333975 -1.82872)
(0.351881 -0.175789 -1.95377)
(0.325345 -0.0221548 -2.28282)
(0.464139 0.253144 -1.92271)
(0.196188 0.553634 -1.55356)
(-0.0964171 0.574712 -1.5621)
(-0.0857147 0.409061 -1.79297)
(-0.198977 -0.121664 -1.63686)
(-0.230642 -0.45946 -1.60088)
(-0.37236 -0.0668276 -1.2417)
(0.451595 -0.175852 -2.32424)
(0.756275 -0.0617581 -2.3411)
(0.729863 -0.0265212 -0.689914)
(-0.338028 2.31523 -0.143826)
(-0.907438 1.97287 -0.143402)
(-0.986143 2.4057 -0.413805)
(-0.605617 2.21424 0.432446)
(-1.26942 1.91055 -0.0231945)
(-0.348499 2.88745 0.188375)
(-0.333637 2.72806 0.224483)
(-0.615585 2.48805 -0.0309707)
(-0.385783 2.23581 0.199843)
(-0.429814 3.17238 0.476985)
(-0.370056 3.11484 0.216679)
(-0.131997 3.02198 0.303928)
(-0.397274 3.00513 -0.185557)
(-0.312883 2.97744 0.0581586)
(-0.648088 2.61524 -0.368244)
(0.0190851 3.5403 0.945045)
(0.172243 3.42013 0.691376)
(0.00864998 3.23881 0.265139)
(-0.0227919 3.22358 0.118843)
(0.100629 3.30937 0.00641336)
(0.108467 3.47637 0.0897143)
(-0.966062 3.03675 -0.0534938)
(0.297429 3.70759 1.75129)
(0.665677 3.50268 1.74454)
(0.733442 3.25905 1.40452)
(0.969022 3.27445 0.935253)
(0.37838 3.40109 0.45497)
(0.0681565 3.66244 0.260959)
(0.0894969 3.70946 0.472235)
(-0.331675 3.3052 0.0253762)
(-0.108689 3.44569 2.68111)
(1.98774 2.99303 2.11463)
(1.6855 3.09107 2.46554)
(1.42767 3.37826 1.9011)
(1.36816 3.53367 1.39835)
(0.87892 3.64789 1.17094)
(0.392844 3.95918 0.699628)
(0.957832 3.69629 0.833261)
(-0.133292 3.8593 0.162659)
(-0.132349 3.33626 1.3268)
(0.771843 3.20008 1.02294)
(0.879412 2.97169 1.78128)
(0.914254 3.1309 2.73488)
(1.9122 3.38428 1.87014)
(2.02638 3.50999 2.41717)
(1.07207 4.81992 1.98119)
(1.43329 4.48432 1.84891)
(0.923311 4.35799 0.913705)
(1.22428 3.66459 -0.0519509)
(0.721757 3.05622 0.048606)
(0.901896 3.0777 -0.344278)
(1.04775 2.81442 -0.0587804)
(0.361927 2.36824 0.746096)
(0.766836 1.48265 2.10749)
(0.806421 1.91836 2.44918)
(1.14902 2.21554 2.93702)
(2.44056 2.36571 2.4198)
(3.4717 1.19611 2.18397)
(3.50629 2.09659 1.61809)
(2.41613 3.81756 0.229237)
(0.242466 2.50161 0.506667)
(1.1512 2.07833 -0.137854)
(1.2931 2.37011 -0.563211)
(1.69485 2.31667 -0.531344)
(0.8236 2.09041 -0.402635)
(0.137974 1.58641 -0.988515)
(-0.194588 0.77285 -0.05984)
(-0.0629165 0.0286073 0.617608)
(0.749471 0.420366 1.32481)
(2.55939 0.262127 0.590242)
(3.8905 -0.347156 0.803899)
(4.23614 0.609037 0.822209)
(0.357832 1.07923 0.205519)
(0.970195 0.931383 -0.0474653)
(1.49943 1.11921 -0.44955)
(1.22235 1.25831 -0.551051)
(0.831911 1.19972 -0.549975)
(1.5042 0.854219 -1.0545)
(1.03678 0.82629 -1.29764)
(0.535731 0.65408 -1.24866)
(0.537867 0.479172 -0.793585)
(0.692977 0.0187575 -0.517052)
(1.08402 -0.249372 1.19801)
(1.96164 0.220944 1.67307)
(2.70369 1.25939 0.224677)
(0.642481 -0.334652 -1.00872)
(0.960329 -0.190844 -1.08281)
(0.947864 -0.299119 -1.15396)
(0.891314 0.0595211 -1.79602)
(1.4502 0.587965 -1.74126)
(0.859955 0.189426 -1.93376)
(0.434352 0.0302043 -0.641228)
(-0.300187 0.0473872 -0.284478)
(-0.0507149 0.125678 -0.82831)
(0.63596 0.120258 -1.31061)
(0.91983 0.639571 -1.28125)
(1.16671 0.783319 -0.918589)
(0.66381 0.315323 1.07037)
(1.39506 0.738921 0.530558)
(0.0534695 -0.269198 -1.26977)
(0.488829 -0.296304 -1.52573)
(0.186118 -0.234596 -1.62059)
(0.442762 -0.0839306 -1.73786)
(0.697241 0.211422 -2.03111)
(0.723525 0.516121 -1.96345)
(0.553131 0.610159 -1.8082)
(-0.205644 0.78357 -1.54487)
(-0.384613 0.644517 -1.45548)
(-0.304458 -0.291931 -1.27091)
(0.0816416 -0.576616 -1.23227)
(-0.0341542 0.206258 -0.909131)
(0.489632 0.581755 -0.541513)
(0.772197 0.636989 -0.243079)
(0.672864 -0.246599 0.893845)
(-0.219935 -0.133444 -1.34249)
(-0.191279 -0.130359 -1.50622)
(0.117324 -0.295094 -1.61403)
(0.692836 -0.339259 -1.84218)
(0.282888 -0.143125 -1.99026)
(0.336809 -0.0185206 -2.27419)
(0.447445 0.249824 -1.8675)
(0.187727 0.557189 -1.52422)
(-0.103409 0.571913 -1.53951)
(-0.119451 0.417295 -1.77645)
(-0.204066 -0.122574 -1.64356)
(-0.23686 -0.451348 -1.61092)
(-0.350119 -0.0752668 -1.30869)
(0.50713 -0.213024 -2.39899)
(0.751352 -0.0803989 -2.32501)
(0.691771 -0.0391341 -0.628146)
(-0.592856 1.96936 0.108927)
(-0.545729 2.35196 -0.204678)
(-0.270821 2.38328 -0.138342)
(-0.776663 2.09394 -0.208205)
(-0.478125 2.60973 0.326947)
(-0.701493 2.45314 0.150821)
(-0.301299 2.28304 0.442803)
(-1.25846 1.97665 0.0266452)
(-0.13814 2.94447 0.409586)
(-0.393317 2.84842 0.190991)
(-0.213626 2.69485 0.0192439)
(-0.593641 2.49659 -0.00955688)
(-0.585441 2.23955 0.163784)
(-0.236337 3.18249 0.717085)
(-0.385728 3.19578 0.49517)
(-0.112557 3.12139 0.201489)
(0.0351553 3.07459 0.21343)
(-0.0422797 3.07205 -0.0986118)
(-0.172274 2.98631 0.0390725)
(-0.510726 2.71671 -0.261141)
(-0.053034 3.60541 1.15518)
(0.274726 3.57249 0.981009)
(0.107765 3.43907 0.58954)
(0.222068 3.26477 0.241872)
(0.188111 3.24531 0.197876)
(0.357054 3.32778 -0.0737608)
(0.132798 3.45179 0.193535)
(-0.835454 3.07027 -0.0308663)
(-0.284789 3.93379 1.80929)
(0.611483 3.46303 1.92345)
(1.01607 3.34664 1.84471)
(1.08115 3.25945 1.49316)
(0.833862 3.33876 0.741841)
(0.737204 3.39307 0.476017)
(0.25326 3.63737 0.296944)
(0.408891 3.63748 0.295074)
(-0.0260347 3.26546 0.0628268)
(-0.155749 3.4529 2.42364)
(2.28658 2.93596 2.23221)
(1.16456 3.05281 2.30759)
(1.33064 3.53781 2.20696)
(1.50559 3.48525 1.84156)
(1.49333 3.41344 1.48345)
(1.24945 3.58146 1.31757)
(0.792019 3.99205 0.752052)
(1.26997 3.82309 0.377692)
(-0.0377401 3.74794 0.159584)
(0.390038 3.45306 1.10683)
(0.435666 3.10643 1.28147)
(0.758837 3.01311 1.20087)
(1.02486 2.86299 1.92066)
(1.35954 3.13042 2.5658)
(2.38112 2.95166 2.26233)
(1.34158 4.06283 2.3631)
(1.70561 4.42189 2.36754)
(2.71933 3.42686 2.2545)
(2.6668 3.08848 2.01822)
(1.28279 3.61729 -0.44416)
(0.365494 3.61761 0.0709612)
(0.771549 3.00364 -0.0920055)
(1.04072 3.02071 -0.219405)
(1.06673 2.76909 0.492163)
(0.358398 2.23243 1.36419)
(0.605283 1.98698 2.1034)
(0.814771 2.35825 2.25377)
(1.31497 2.07587 2.88881)
(2.58914 2.02735 2.38991)
(3.78158 0.933882 1.86099)
(4.04266 1.19925 1.70399)
(2.23925 3.45033 0.157072)
(0.169899 2.78752 0.338977)
(0.642924 2.43082 0.196443)
(1.43037 1.92447 -0.375154)
(1.47259 2.18926 -0.87691)
(1.20741 2.35401 -0.99382)
(0.700354 2.11234 0.334532)
(-0.108985 1.68571 -0.289437)
(-0.1872 0.577093 0.241597)
(-0.0726331 -0.0904827 0.469246)
(0.905881 0.321822 0.864846)
(2.53933 0.44664 0.511686)
(3.75857 -0.235326 1.07111)
(3.85692 0.859438 0.235062)
(0.332757 0.880278 0.134685)
(0.505458 0.980242 0.100068)
(1.043 0.944101 -0.323385)
(1.53796 1.16536 -0.588019)
(1.09612 1.29235 -0.556742)
(0.807548 1.18575 -0.61127)
(1.20556 0.93964 -1.17356)
(0.762376 0.971524 -1.20202)
(0.51048 0.625724 -1.17568)
(0.684895 0.249461 -0.907336)
(0.684833 -0.146188 -0.460581)
(0.970693 -0.305585 1.19008)
(2.48666 0.171282 1.18155)
(2.59369 2.00578 0.739548)
(0.241851 -0.532975 -0.791904)
(0.672188 -0.310339 -1.07486)
(1.05236 -0.17667 -1.04314)
(1.01425 -0.094119 -0.940369)
(1.38012 0.143355 -1.59447)
(1.54444 0.619238 -1.52784)
(0.652923 0.121676 -1.78086)
(0.480707 -0.0143073 -0.683125)
(-0.2253 0.0848923 -0.636193)
(0.297943 -0.084736 -1.05747)
(0.756829 0.012012 -1.58099)
(1.00312 0.565894 -1.47597)
(1.08645 0.868272 -0.458107)
(0.646929 0.386765 1.09125)
(1.27945 0.977961 0.433204)
(-0.188669 -0.23504 -0.967526)
(0.125123 -0.22287 -1.36368)
(0.433892 -0.238192 -1.57912)
(0.188486 -0.191948 -1.64078)
(0.529311 -0.0463772 -1.82195)
(0.749871 0.301212 -1.91919)
(0.690099 0.593989 -1.78363)
(0.389421 0.709316 -1.64283)
(-0.206579 0.842772 -1.35982)
(-0.329577 0.645359 -1.50995)
(-0.329386 -0.272703 -1.29089)
(0.0506506 -0.524518 -1.24618)
(-0.0524053 0.227451 -0.909883)
(0.439461 0.563481 -0.574267)
(0.691638 0.59804 -0.190897)
(0.629217 -0.20905 0.90135)
(-0.18989 -0.145066 -1.14188)
(-0.179006 -0.128791 -1.36474)
(-0.161902 -0.121357 -1.52022)
(0.162755 -0.289993 -1.62601)
(0.739303 -0.367648 -1.84448)
(0.247785 -0.118347 -2.04092)
(0.349585 -0.0204725 -2.25917)
(0.429412 0.247372 -1.8169)
(0.18356 0.559709 -1.497)
(-0.1377 0.594133 -1.51086)
(-0.138524 0.4303 -1.75276)
(-0.211688 -0.123155 -1.65757)
(-0.237897 -0.444087 -1.62101)
(-0.321903 -0.0939857 -1.38445)
(0.511104 -0.253765 -2.47348)
(0.711983 -0.108093 -2.31229)
(0.660274 -0.0628591 -0.575119)
(-0.778583 1.74781 0.0370153)
(-0.485384 2.17625 -0.0201935)
(-0.297681 2.0849 0.160218)
(-0.693711 2.3925 0.0650647)
(-0.26332 2.44536 -0.0923275)
(-0.318782 2.36856 -0.173415)
(-0.568377 2.21687 -0.275743)
(-0.421114 2.60135 0.336318)
(-0.537676 2.62697 0.333759)
(-0.564689 2.46833 -0.0558391)
(-0.338398 2.27276 0.2321)
(-1.30133 1.99741 0.0171851)
(-0.329214 2.96528 0.380464)
(-0.161287 2.94747 0.408994)
(-0.135165 2.80108 0.203333)
(0.050426 2.66983 0.157979)
(-0.424567 2.55965 0.127654)
(-0.676679 2.3236 0.0810628)
(-0.262614 3.18035 0.841881)
(-0.0719722 3.16538 0.702261)
(0.0984944 3.19003 0.568881)
(0.613846 3.02775 0.142305)
(0.304597 3.12932 0.137574)
(-0.0132659 3.09052 -0.075983)
(0.0293828 3.03797 -0.0215115)
(-0.488548 2.73046 -0.166956)
(0.114842 3.60261 1.36059)
(0.444813 3.58658 1.2425)
(0.311463 3.51546 0.903066)
(1.10031 3.21679 0.579583)
(0.582348 3.18817 0.228661)
(0.44411 3.20929 0.281969)
(0.65461 3.33705 -0.0778826)
(0.405414 3.3368 0.363017)
(-0.563899 3.07978 -0.0138605)
(-0.230106 3.87385 1.90204)
(0.324309 3.62161 2.02529)
(1.06875 3.22448 2.11947)
(1.84901 3.05762 1.70968)
(1.90594 2.96301 1.09296)
(1.03073 3.2623 0.695628)
(0.818135 3.4787 0.456238)
(0.933024 3.59716 0.375905)
(0.723848 3.58409 0.224527)
(0.165683 3.28594 -0.0345641)
(0.735729 3.14532 3.27668)
(0.588529 3.33046 2.40313)
(0.611047 3.19798 2.29975)
(1.81998 3.10169 1.89076)
(1.97461 3.35434 1.8988)
(1.83385 3.209 1.86498)
(1.99841 3.25163 1.53084)
(1.60383 3.68616 1.40933)
(1.28345 3.70929 1.07378)
(1.42742 3.76855 0.319268)
(-0.0614486 3.65107 0.158829)
(0.188643 3.37725 1.72008)
(0.398117 3.11381 1.40497)
(0.913872 2.9679 1.26053)
(1.32591 2.91355 1.33961)
(1.07526 2.79579 2.51813)
(2.28191 3.32252 2.05884)
(2.03885 3.38527 2.38932)
(1.86787 4.11386 2.31174)
(1.96006 4.05093 2.53027)
(2.84871 2.84185 2.12082)
(2.54986 2.78226 1.71244)
(1.2708 3.64918 -0.52186)
(-0.194657 4.032 0.369604)
(0.351693 3.61649 0.157254)
(0.79599 3.00764 -0.0919236)
(1.05989 2.78595 0.0891164)
(0.921522 2.25919 1.48258)
(0.525987 2.05868 1.73583)
(0.902883 1.80632 2.57621)
(0.882948 2.29037 2.4748)
(1.72732 1.88297 2.48515)