/*--------------------------------*- C++ -*----------------------------------*\
  =========                 |
  \\      /  F ield         | OpenFOAM: The Open Source CFD Toolbox
   \\    /   O peration     | Website:  https://openfoam.org
    \\  /    A nd           | Version:  7
     \\/     M anipulation  |
\*---------------------------------------------------------------------------*/
FoamFile
{
    version     2.0;
    format      ascii;
    class       volScalarField;
    location    "9";
    object      nut;
}
// * * * * * * * * * * * * * * * * * * * * * * * * * * * * * * * * * * * * * //

dimensions      [0 2 -1 0 0 0 0];

internalField   nonuniform List<scalar> 
18780
(
0.000238173
0.000207458
0.000268578
8.68241e-05
0.000467409
0.000245312
0.000243137
0.000293047
9.39592e-05
0.000104167
0.00068822
0.000307975
0.000373749
0.000386012
0.000303489
0.000260148
0.00028329
0.0001052
0.000110894
0.000113052
0.00116782
0.000681034
0.000755834
0.00041112
0.000488024
0.00030243
0.0003282
0.000192988
0.000302611
0.000279188
0.000252763
0.000135681
0.000110796
0.000105192
0.000242764
0.00115181
0.00136703
0.00119838
0.000506575
0.000655182
0.000761198
0.000449059
0.000487735
0.000555308
0.000675612
0.000299102
0.000365443
0.000337389
0.000310465
0.000277042
0.000241388
0.000154269
0.000166023
0.000142961
0.000277493
0.000126019
0.000452711
0.00145256
0.00100662
0.00123669
0.00121456
0.000993275
0.000440473
0.000871228
0.000773864
0.00122796
0.000494581
0.000460382
0.000457616
0.000761077
0.00069757
0.000279334
0.000143254
0.00031501
0.000295362
0.000213335
0.000346289
0.000231668
0.000153153
0.000237593
0.000126205
0.0001185
0.00015927
5.87326e-05
0.000647455
0.000327208
0.000324541
0.00150711
0.00108262
0.0010145
0.0011884
0.00137819
0.000994114
0.00106792
0.000407521
0.000564847
0.00073443
0.00122711
0.00115857
0.000553144
0.000302186
0.000474893
0.00071386
0.000615542
0.000453177
0.000359492
0.000245028
0.000331855
0.000381456
0.00025186
0.000416608
0.000139075
0.000240963
0.000127881
0.000169761
5.49907e-05
0.000223266
0.000143133
6.7179e-05
0.000101177
0.00041428
0.000413223
0.000385535
0.000487289
0.000370293
0.00038839
0.0012722
0.00125464
0.00102182
0.000653383
0.00070463
0.00108266
0.00110993
0.00144103
0.00108609
0.000496837
0.000775034
0.00092011
0.00112856
0.00133084
0.00121179
0.000382478
0.000373992
0.000518339
0.000609215
0.000587937
0.000488024
0.000389255
0.000178951
0.000453744
0.000303824
0.000304328
0.00025889
0.000343722
0.000166874
0.000132161
0.000278584
6.2825e-05
8.87716e-05
8.15805e-05
0.000315865
0.000130686
0.000113831
0.00010176
5.7e-05
0.000388532
0.000545571
0.000356123
0.000703864
0.000272786
0.000561633
0.000595613
0.00075585
0.000507135
0.000507012
0.000438899
0.00137832
0.00136011
0.000889468
0.0004304
0.000373836
0.000770699
0.00103841
0.00117517
0.0017671
0.0011906
0.00139895
0.000483717
0.000646295
0.000961341
0.00117496
0.00117267
0.00120717
0.00103568
0.00044896
0.000340458
0.000414538
0.000417561
0.000664408
0.000487409
0.000423787
0.000387338
0.000299711
0.000206343
0.000320668
0.000401616
0.000275637
0.000302883
0.000170475
0.000177542
0.000208446
0.000375207
0.000203386
0.000129802
0.000113884
0.000153065
0.000124524
9.12988e-05
9.61585e-05
0.000181061
7.14457e-05
0.000506238
0.000394776
0.000392996
0.000952528
0.000255157
0.000673793
0.00048535
0.00065945
0.000594307
0.000332704
0.000624706
0.000358251
0.00095704
0.000595143
0.000354993
0.000508354
0.000269751
0.00127577
0.00117503
0.000902355
0.000694934
0.000197531
0.000255444
0.000808586
0.00104826
0.00117286
0.00140148
0.000843617
0.000936056
0.00126035
0.000596542
0.000665691
0.000938842
0.000954659
0.00123256
0.00132545
0.00132468
0.00112237
0.0002921
0.000336339
0.000628544
0.000378574
0.000738272
0.000488791
0.000463179
0.000349255
0.000502347
0.000458376
0.000110496
0.000374432
0.000484878
0.000262253
0.000272716
0.000141153
0.00023615
0.00022004
0.00021307
0.000274135
0.000321069
0.000210585
0.000159225
0.000142118
0.000304831
8.21195e-05
0.000105535
5.55239e-05
0.000160814
0.000167708
0.000284368
0.000662866
0.000276324
0.000957391
0.000495499
0.000476098
0.00092793
0.000430633
0.000519655
0.000884156
0.000502782
0.000814013
0.000689517
0.000463257
0.00027484
0.000328428
0.000294613
0.0005197
0.000755784
0.000691039
0.000486891
0.000489309
0.000491639
0.000318615
0.00106463
0.00125383
0.000913843
0.00107159
0.000491074
0.000806976
0.000401162
0.000997436
0.00102357
0.00112521
0.00113811
0.00145243
0.00223676
0.00135716
0.00163412
0.00043097
0.000571728
0.00105708
0.000794056
0.00104604
0.00124011
0.00128286
0.000905893
0.000961138
0.000302239
0.000199342
0.000628343
0.000458161
0.000650978
0.000477789
0.000445779
0.000391911
0.000507459
0.000584491
0.000601948
0.000210302
0.000437512
0.000294279
0.000254471
0.000220523
0.000147066
0.000200508
0.000304061
0.000207722
0.000106604
0.000172879
0.000372183
0.000287111
0.00017055
0.000149737
0.000310243
0.000105649
8.61104e-05
4.61342e-05
5.86589e-05
8.27213e-05
0.00015854
0.000446207
0.000378919
0.000520681
0.000513713
0.000482775
0.000341739
0.000454501
0.00111009
0.000393712
0.000233514
0.00055923
0.00104337
0.000747755
0.000273749
0.000578115
0.000813865
0.000699966
0.000426491
0.000616665
0.000553438
0.000520984
0.000454807
0.000440649
0.000671511
0.00110665
0.000767846
0.000886075
0.000614185
0.000589666
0.000493612
0.000550513
0.000327768
0.000159489
0.00116002
0.00107067
0.000933155
0.00108504
0.000559758
0.00027892
0.000532387
0.0004689
0.00087497
0.000962525
0.00113508
0.00164165
0.00085142
0.000992278
0.00121228
0.00105222
0.000883483
0.000424853
0.00068284
0.000906089
0.000737437
0.00086995
0.00126377
0.00126583
0.00124877
0.00094455
0.000844371
0.00014914
0.000190109
0.00058012
0.000462742
0.00060333
0.000440814
0.000443734
0.000363801
0.000509256
0.00056993
0.000432015
0.000511575
0.000261598
0.000462208
0.000305814
0.000210952
0.000316515
9.63704e-05
0.000112179
0.000225115
0.00019529
9.8798e-05
0.000138087
0.000346493
0.000379293
0.000219746
0.000199345
0.000129694
0.000129445
0.000108985
9.14795e-05
0.000226327
0.000168969
4.62092e-05
0.000142823
0.00023919
0.000302844
0.000640684
0.000350464
0.000304048
0.000380644
0.000464163
0.000356253
0.000438404
0.00067919
0.000753686
0.000385272
0.000417506
0.000588643
0.000801923
0.000501559
0.000582396
0.000494412
0.00100337
0.000670292
0.000500682
0.000596874
0.000468822
0.000666316
0.00100151
0.000289391
0.000703927
0.000498022
0.000930571
0.000603572
0.000391324
0.000676309
0.000627399
0.000582612
0.000571115
0.000773793
0.000834248
0.000775269
0.000781249
0.000855701
0.000588773
0.00039087
0.00031174
0.000737939
0.00102197
0.000982199
0.000937201
0.000886988
0.0002567
0.000324855
0.0002612
0.00093977
0.000524294
0.000815425
0.00112584
0.0010555
0.00126273
0.000930078
0.00100555
0.00113659
0.00219778
0.00106432
0.00116678
0.000431353
0.00048811
0.000944419
0.000765959
0.000902703
0.00107689
0.00124052
0.000911052
0.000890882
0.000787584
0.000735901
0.000178524
0.000141516
0.000611785
0.000516243
0.000586728
0.000407671
0.000386432
0.000326131
0.000512105
0.000619522
0.000458671
0.000218106
0.000757992
0.000245803
0.000272776
0.000228729
0.000201105
0.000199806
6.29518e-05
0.00016037
0.000140326
0.000217908
9.40606e-05
0.000172044
0.000337473
0.000561108
0.000345517
0.000360415
0.00019918
8.49594e-05
0.000141616
7.10238e-05
6.79966e-05
0.000112537
9.71232e-05
0.000115656
0.000155909
0.00027238
0.000294794
0.000360401
0.000361032
0.000336576
0.000340804
0.000381158
0.00050307
0.000443117
0.000405139
0.00061913
0.000418715
0.000513308
0.000478525
0.00062387
0.000613233
0.000701315
0.000586364
0.000455055
0.000591635
0.000922379
0.00110981
0.000667514
0.000784965
0.000283337
0.000279516
0.000494102
0.000972451
0.000758378
0.000659952
0.000501159
0.000321014
0.000649383
0.000797549
0.000894228
0.000676963
0.000571498
0.000672574
0.000616095
0.000911151
0.000736905
0.000381551
0.000436942
0.000191726
0.000937776
0.000905787
0.000641217
0.000872285
0.00064095
0.00101481
0.000425176
0.000748781
0.000476456
0.00054808
0.000551916
0.000414334
0.00111422
0.000929419
0.000806339
0.00149631
0.00100673
0.000399054
0.000569934
0.000504842
0.000880028
0.00152689
0.000561367
0.00115033
0.0010414
0.00126646
0.0011477
0.000834985
0.00141672
0.0011005
0.00100865
0.00192224
0.00167761
0.000412956
0.000451026
0.000867875
0.00080458
0.000849471
0.00106654
0.00116347
0.000904858
0.000903282
0.00121246
0.000309855
0.000245951
0.000241789
0.000258543
0.00059102
0.000437278
0.000546819
0.000304834
0.000315364
0.000380787
0.00050781
0.000621256
0.000408678
0.000312752
0.000283253
0.000878684
0.000441886
0.000316791
0.000208283
0.000284544
0.000400565
0.000141352
0.000166061
0.000213937
0.000240777
0.000120531
0.00018986
0.000343878
0.000333234
0.000610951
0.000304719
0.000515444
0.000170252
0.000111281
0.000271189
6.27742e-05
7.038e-05
0.000208748
0.000101193
0.000204122
0.000142775
0.000276208
0.000343348
0.000161514
0.000359369
0.000353021
0.000383589
0.000503606
0.000367809
0.000287617
0.000538189
0.000446217
0.000318863
0.000126461
0.000475116
0.000515757
0.000297365
0.000480722
0.000500927
0.000535662
0.00039014
0.000622396
0.000326788
0.000254107
0.000637048
0.000728236
0.000353907
0.000581963
0.000433618
0.000648347
0.000651259
0.000498136
0.000443255
0.00069122
0.000342535
0.000262809
0.000797421
0.000959792
0.000648641
0.000529551
0.000512985
0.000410835
0.000325025
0.000383961
0.000577263
0.000913224
0.000522599
0.000473267
0.000150276
0.000725772
0.000573767
0.000718917
0.00075109
0.00082941
0.000548385
0.000724386
0.000580188
0.000397207
0.000515054
0.000375334
0.000815061
0.000453225
0.000987777
0.000599368
0.00072852
0.000968527
0.000777071
0.000462151
0.000481009
0.000311504
0.000894128
0.000938735
0.000793849
0.000968252
0.00081269
0.000553034
0.000513372
0.000811402
0.000754851
0.00077483
0.00154227
0.000579862
0.000963922
0.000996843
0.0013416
0.00101397
0.00115298
0.000899388
0.00128783
0.00119896
0.00175087
0.0020073
0.00130053
0.000365833
0.000424838
0.000778017
0.000897582
0.000920653
0.00102937
0.00105714
0.000907884
0.00074861
0.000717916
0.000383066
0.000197325
0.000444821
0.000320243
0.00052965
0.000618786
0.000433498
0.000437658
0.000302356
0.0002495
0.000357987
0.00051211
0.000469173
0.000383253
0.000361475
0.000310786
0.000463159
0.000493148
0.000447671
0.000240505
0.000228743
0.000281465
0.000230421
8.82622e-05
0.000140162
0.000227961
0.000306967
0.000110854
0.000163811
0.000339424
0.000381804
0.000307266
0.000511635
0.000274048
0.000518534
0.000235293
9.36097e-05
0.000148852
8.55499e-05
0.000107489
6.37989e-05
0.00016119
0.000105937
0.000128633
0.000265227
0.000339289
0.000106696
0.000265159
0.000367234
0.000240828
0.000380057
0.000303714
0.000365772
0.000485873
0.000253797
0.000474
0.000377889
0.00058795
0.000479295
0.000430221
0.000386582
0.000462062
0.000606472
0.000600316
0.00037705
0.000354101
0.000203061
0.000562448
0.000588984
0.00053335
0.000314925
0.000454935
0.000449987
0.00047147
0.000560041
0.000509252
0.000471754
0.000384039
0.000491447
0.000290401
0.000493103
0.000277472
0.000725348
0.000707874
0.000289011
0.000748651
0.000405715
0.000225007
0.000493899
0.000504633
0.000704393
0.00107869
0.000356421
0.000758833
0.000350938
0.000470725
0.000514499
0.000876785
0.000670095
0.000651704
0.000576123
0.000518005
0.000799116
0.000647686
0.000560581
0.000437768
0.00117709
0.000682281
0.000660564
0.000738635
0.000591846
0.000198784
0.000716193
0.000574795
0.00036183
0.000472154
0.000705497
0.000516628
0.00144736
0.000942993
0.000858097
0.00070165
0.000233669
0.000345983
0.000460063
0.000522538
0.00130369
0.000752152
0.000913012
0.000697743
0.000796727
0.000594123
0.000225609
0.000319452
0.000511622
0.000653347
0.00110149
0.001762
0.00111724
0.000465794
0.00097527
0.000898761
0.00132783
0.00107688
0.00110418
0.000932334
0.000807452
0.00126607
0.00181564
0.00154174
0.00107616
0.00105391
0.000139845
0.000403421
0.000726711
0.000913398
0.000869928
0.00102184
0.000919094
0.000735986
0.000750348
0.00058794
0.000736564
0.000446489
0.000391631
0.000511072
0.000224534
0.000373699
0.000731762
0.000425002
0.000389469
0.00016243
0.000233758
0.000353698
0.000445278
0.000504643
0.000316933
0.000335453
0.000380312
0.000440152
0.00047244
0.000304558
0.000679191
0.000493722
0.000193721
0.000160345
0.000291508
8.07433e-05
0.00016915
0.000186478
0.000310602
0.000111102
0.000157376
0.00032041
0.000368352
0.000260976
0.000330274
0.000514837
0.000211092
0.000518459
0.000280694
9.10933e-05
0.000148949
0.000144892
7.97839e-05
0.000134094
5.18325e-05
0.000115193
0.000134049
0.000239905
0.000305456
0.000151269
0.000282683
0.000194384
0.000757094
0.000347091
0.000597929
0.000290184
0.000447795
0.000273007
0.000355289
0.000319604
0.000415761
0.00041781
0.000741738
0.000327975
0.000390803
0.000365787
0.000445553
0.000328338
0.000568714
0.000482071
0.000336543
0.000324265
0.000394372
0.000410156
0.000438087
0.000400516
0.000489633
0.000565752
0.0002077
0.000597716
0.000392418
0.000693896
0.000361984
0.000693342
0.000432625
0.000306726
0.000892981
0.000399966
0.000719012
0.00036592
0.000661052
0.000765489
0.000395988
0.000281212
0.000978275
0.000621879
0.000713534
0.000559544
0.000583682
0.000316447
0.000454068
0.000340375
0.000368312
0.000202142
0.000754969
0.00105754
0.000825285
0.000682223
0.000377724
0.000636189
0.000419477
0.000434078
0.000973395
0.000445701
0.00106013
0.000783742
0.000676133
0.000632246
0.00075944
0.000597042
0.000455821
0.000744127
0.000779204
0.00103417
0.00113141
0.000701821
0.000456188
0.00068577
0.000809971
0.00044975
0.000475067
0.000581503
0.00054159
0.00054808
0.000513841
0.00106837
0.000783883
0.000881676
0.000752611
0.000701667
0.000425887
0.000704487
0.000684745
0.00120493
0.00112158
0.000794286
0.000781912
0.000733304
0.000820108
0.000692783
0.001116
0.00119197
0.000492789
0.00122511
0.000943379
0.00189657
0.00181726
0.00109781
0.000365015
0.00105418
0.00117204
0.00146689
0.00133363
0.00105413
0.00115566
0.00116807
0.00178651
0.00177051
0.00157309
0.000591765
0.000998333
0.00106544
0.000190771
0.000671917
0.000620167
0.000935626
0.000654057
0.000843323
0.000872119
0.000766831
0.000497952
0.000579502
0.000482618
0.00046878
0.000407659
0.000597384
0.000414774
0.00024631
0.000267978
0.000598601
0.000347564
0.000368118
0.000219947
0.000261772
0.000353774
0.000438064
0.000411624
0.000403272
0.000315184
0.000383427
0.000383715
0.000459534
0.000625111
0.000296007
0.000970518
0.00023572
0.000281784
0.000148691
0.000350445
0.000136116
0.000158854
0.000194395
0.000320544
0.000179621
0.000164031
0.000283357
0.000375683
0.000298481
0.0003509
0.000397895
0.000408626
0.000225423
0.000619858
0.00020276
0.000218067
0.000168968
0.000184405
7.6818e-05
5.70532e-05
0.000295554
0.000357243
0.000122628
0.000205384
0.000249637
0.0001669
0.000205637
0.000179926
0.000469666
0.00103508
0.000477525
0.000663621
0.000521915
0.00068826
0.000453164
0.000403293
0.000344919
0.000462651
0.000255485
0.000408575
0.00046554
0.00032496
0.000555571
0.000445308
0.000527937
0.000441283
0.00033469
0.000315351
0.000403174
0.000556443
0.000818978
0.000501069
0.000576967
0.000180894
0.000350832
0.000416705
0.000400403
0.000342791
0.000531549
0.000492046
0.000588966
0.000206527
0.000418746
0.00030075
0.000658247
0.000594885
0.000360027
0.000521901
0.000426618
0.000208122
0.000469569
0.00043977
0.000673173
0.00072549
0.00075477
0.000671778
0.000624083
0.000350168
0.00030006
0.000602942
0.000357257
0.00110538
0.000479594
0.00070989
0.00068519
0.000371021
0.000508594
0.000650839
0.000426905
0.000627748
0.000363867
0.00129923
0.000486586
0.000782055
0.00100882
0.00026591
0.000769327
0.000437016
0.000701724
0.000456852
0.00033487
0.000795414
0.00106902
0.000702517
0.0008595
0.000474673
0.00035286
0.000674332
0.000605406
0.000488966
0.000283367
0.000709382
0.000934311
0.000618709
0.00134718
0.00096955
0.000724068
0.000674314
0.000265992
0.000453418
0.000461437
0.000525162
0.00037924
0.000892307
0.000656792
0.000636766
0.00118922
0.000913187
0.000753343
0.000716193
0.000727734
0.00108833
0.000962359
0.000931572
0.000920149
0.00112256
0.000769869
0.000486441
0.000711558
0.000706117
0.00085946
0.00113635
0.000770072
0.000866671
0.000712889
0.000787613
0.0011597
0.00162085
0.00101796
0.00138169
0.00147405
0.000369012
0.00113152
0.00175284
0.00189026
0.00122456
0.000896433
0.000946927
0.000949194
0.0017409
0.00142679
0.00119033
0.000816398
0.00100317
0.00097276
0.000869856
0.000298914
0.000696598
0.000514109
0.000714502
0.00051914
0.000791214
0.000792454
0.000924353
0.000642684
0.000405417
0.000603112
0.000557576
0.000390147
0.000442189
0.00042816
0.00090931
0.000277487
0.000352928
0.000607345
0.000441331
0.000469592
0.000164477
0.000204465
0.00034155
0.000494997
0.000238354
0.000372838
0.000320038
0.000356966
0.000338549
0.000335535
0.000488304
0.000827356
0.000258849
0.000732291
0.000385922
0.000204217
0.000236888
0.000239287
0.00013284
0.000162403
0.000173492
0.000334706
0.000139001
0.000159853
0.000255978
0.000311364
0.000401992
0.000526416
0.000341989
0.000302769
0.000232344
0.000230645
0.000536005
0.000101033
0.000199196
0.000119997
6.76304e-05
0.000127978
6.40221e-05
0.000149021
5.082e-05
0.000109784
0.000165977
0.000179473
0.000124264
0.000166822
0.000222308
0.000347797
0.000557905
0.00114078
0.000925942
0.000949635
0.000512131
0.000546068
0.000618578
0.000393571
0.000514815
0.000315082
0.000345639
0.000500459
0.000357821
0.000395017
0.000471203
0.000440794
0.000575548
0.000387456
0.000530901
0.000360132
0.000440106
0.000480139
0.000440411
0.000733153
0.000425942
0.000471038
0.000296188
0.000378333
0.00040808
0.000597546
0.000524622
0.000473524
0.000323468
0.000342472
0.000248838
0.00055613
0.000561978
0.00055165
0.000544466
0.000509302
0.000383594
0.000475533
0.000660732
0.000420904
0.000367039
0.000652943
0.000625519
0.000517756
0.00058155
0.000335167
0.000573775
0.000348562
0.000369491
0.000651491
0.000981058
0.000846597
0.000279524
0.000822749
0.000159233
0.000427317
0.000643866
0.000487632
0.000132819
0.000523576
0.00086422
0.000925211
0.000295394
0.000724551
0.000528756
0.000702367
0.000480977
0.000470532
0.000428811
0.000252183
0.000344502
0.000572956
0.000468486
0.000684607
0.000721692
0.000558689
0.000676699
0.000417202
0.000694176
0.00056694
0.000620011
0.000466416
0.00133716
0.000999288
0.00095104
0.000749947
0.000558976
0.00050842
0.000266889
0.000606723
0.000552906
0.000194589
0.00035296
0.00104734
0.00117387
0.000927372
0.0011748
0.000946419
0.000564893
0.000775091
0.000830548
0.000561643
0.0004878
0.000321318
0.0006385
0.0010326
0.000852087
0.000600311
0.00105766
0.00116188
0.000732065
0.000870015
0.000740786
0.00048686
0.000541093
0.000893223
0.0012584
0.000670879
0.00124242
0.000975218
0.000643962
0.000508177
0.00104029
0.00116481
0.00185952
0.00125606
0.000611071
0.000664672
0.00156391
0.00178252
0.0016348
0.00194057
0.00113494
0.00118905
0.00172255
0.00126953
0.000415227
0.000860757
0.00114422
0.00162716
0.00129201
0.000989283
0.0012851
0.00104764
0.00124805
0.00138993
0.0014668
0.000731724
0.000957257
0.000890176
0.000957789
0.0011466
0.0002063
0.000582122
0.000544862
0.000629117
0.000440763
0.000630773
0.000644489
0.000753726
0.000693893
0.00052331
0.00101763
0.000465016
0.000459131
0.000493301
0.000415762
0.000760465
0.000741909
0.000213243
0.000261599
0.000788316
0.000563544
0.000559646
0.000180715
0.000172007
0.000331715
0.000394313
0.000300797
0.00011564
0.000297558
0.000311228
0.000332336
0.000274205
0.000517459
0.00133186
0.000620909
0.000417913
0.000275619
0.000170304
0.00015753
0.000212861
0.000237943
0.000140939
0.00018273
0.000170396
0.000278712
0.000194635
0.000172378
0.000250123
0.000224583
0.000381075
0.000476313
0.000525298
0.000424454
0.000378805
0.000162371
0.000243013
0.000366183
0.000201771
0.000199086
0.000118306
8.22031e-05
0.000134959
0.000224254
0.00019057
9.67087e-05
9.83202e-05
0.000132849
0.00010686
0.000101549
0.000176481
0.00020273
0.000280351
0.00080332
0.000533917
0.00118459
0.00109735
0.00100067
0.000736565
0.000860499
0.000686848
0.000520229
0.000494681
0.000563002
0.000370856
0.000693567
0.000400954
0.000384459
0.000408788
0.000480233
0.000409064
0.000463756
0.000355229
0.000414455
0.000376158
0.000439438
0.000493218
0.000637419
0.000445904
0.000349766
0.000410674
0.000363007
0.000477788
0.000945585
0.000511091
0.000648836
0.000373706
0.000343632
0.000402507
0.000389933
0.00050923
0.000322876
0.000462231
0.000691276
0.000513485
0.000344945
0.000411583
0.000556586
0.000589962
0.000469751
0.00060879
0.000712557
0.000402636
0.000432871
0.000373379
0.000238019
0.000634556
0.000207413
0.000525016
0.000375752
0.00073858
0.000433429
0.000413998
0.000348242
0.000334013
0.000746747
0.000235533
0.000352503
0.000309408
0.000798753
0.000562825
0.000714286
0.000513556
0.000294778
0.00100441
0.000415418
0.000526454
0.000501319
0.000476711
0.00036235
0.00122461
0.00100009
0.000490202
0.000670376
0.000588866
0.000698287
0.000277135
0.000493535
0.000484165
0.000363584
0.000424547
0.000389513
0.000557761
0.000453642
0.000595574
0.000687815
0.000653121
0.000424296
0.000614571
0.000429256
0.000545796
0.00021891
0.000366907
0.000850478
0.000991755
0.0014958
0.000800207
0.00079079
0.00088831
0.000777447
0.000364423
0.000398795
0.000527653
0.000646485
0.000525085
0.000869272
0.000797565
0.000897154
0.000824941
0.00124577
0.00129284
0.000884923
0.000956703
0.000913529
0.000747331
0.000613956
0.000825157
0.000299505
0.000608328
0.00042857
0.000927765
0.000320714
0.000601611
0.000806589
0.000563112
0.000679762
0.00056757
0.00105027
0.00110862
0.000646421
0.00170671
0.000619345
0.00124323
0.000500014
0.00107033
0.000490166
0.000507991
0.000944763
0.00103429
0.00143963
0.00131286
0.000759809
0.00185605
0.000742499
0.00131832
0.0010402
0.00173388
0.00111304
0.000956987
0.00185434
0.00160761
0.00140348
0.000569562
0.000862859
0.000644363
0.00111426
0.000906599
0.00109595
0.00111661
0.00120359
0.00131772
0.00125703
0.00125294
0.000604748
0.000900606
0.00082362
0.000807216
0.000963354
0.000664353
0.000300172
0.00044269
0.000526018
0.000661138
0.000473519
0.000554678
0.000438869
0.00044878
0.000761075
0.000484001
0.000237702
0.000370401
0.000471122
0.000507904
0.000479548
0.000559715
0.000585915
0.000824412
0.000167371
0.000214383
0.000620141
0.000329919
0.000520002
0.000215397
0.000118131
0.000371437
0.000371123
0.000237321
0.000346034
0.000274438
0.000295653
0.000320061
0.000366799
0.00044602
0.00116309
0.000825
0.000591571
0.000502639
0.000287083
0.00035518
0.000223562
0.000311151
0.000222248
0.000143439
0.000182963
0.000247814
0.000269524
0.000164122
0.000172501
0.000244798
0.000182209
0.000218653
0.00028164
0.000501521
0.000667919
0.000238591
0.000551156
0.000214144
0.00019074
0.000241608
0.000252235
0.000492729
0.000129735
9.21672e-05
8.99131e-05
0.000168631
0.000116711
0.000160078
0.000105098
0.000120322
5.36782e-05
9.42744e-05
0.000228048
0.000208816
0.000225929
0.000799855
0.000616381
0.00030717
0.00095076
0.00105517
0.00106053
0.00114036
0.000966216
0.000868867
0.00103312
0.000772304
0.000805693
0.000671562
0.000494591
0.000507502
0.000430334
0.000549252
0.000411284
0.000584909
0.000436067
0.00045409
0.000328564
0.000388705
0.00052981
0.000565902
0.000430672
0.000575284
0.000385505
0.000360657
0.000308621
0.000424893
0.000346523
0.000653705
0.000432904
0.000509867
0.000317437
0.000291004
0.000507872
0.00046953
0.000667032
0.000556596
0.000576527
0.000464928
0.00046017
0.000400019
0.000304585
0.000418783
0.000395853
0.000483336
0.000524561
0.000447038
0.000367876
0.000491846
0.000345865
0.000421947
0.000329908
0.000507807
0.000491833
0.000658173
0.000461599
0.000622027
0.000564929
0.000355993
0.000401019
0.000382909
0.000452145
0.000543622
0.000430107
0.000824302
0.000674557
0.000431379
0.000719319
0.000316363
0.000577329
0.000468919
0.000403134
0.000461163
0.000325067
0.000519212
0.000324668
0.00093032
0.000879187
0.000336637
0.000813787
0.000428264
0.00045718
0.000504142
0.000360747
0.000428562
0.000354653
0.000292195
0.0003924
0.000818394
0.00114326
0.000261151
0.000488243
0.000413171
0.000524073
0.000421089
0.000708683
0.000570467
0.000408538
0.000758027
0.000619603
0.00135915
0.000548861
0.000440175
0.000632648
0.000362583
0.000792658
0.000659924
0.000460261
0.000663079
0.000621417
0.00046642
0.000651799
0.000906395
0.00193392
0.00154884
0.00119099
0.000785421
0.000565823
0.000482626
0.000480962
0.000627249
0.000570813
0.00066601
0.000547613
0.000591717
0.000883669
0.000504282
0.000983881
0.000506476
0.00135607
0.00112257
0.00106493
0.0012645
0.000660503
0.000523522
0.000840866
0.000793213
0.000424886
0.000361117
0.000512056
0.000836124
0.000461347
0.000445997
0.000612731
0.000914244
0.0010487
0.000755862
0.000529764
0.00101839
0.000967012
0.00123311
0.000619676
0.00155325
0.00109559
0.000736965
0.00103732
0.000595636
0.000760366
0.000576886
0.00101792
0.000914045
0.000826849
0.00135649
0.000942722
0.00129287
0.00220859
0.00201331
0.00192397
0.00235408
0.00131715
0.00100688
0.00156731
0.00167146
0.00174923
0.00119389
0.000618201
0.000685208
0.000466191
0.000667192
0.000644769
0.00106402
0.00108293
0.00166371
0.00164689
0.00121944
0.00104694
0.000640625
0.000818054
0.000818048
0.000866162
0.000746134
0.000875695
0.000467177
0.000468299
0.000331074
0.000525719
0.000722361
0.000497106
0.000431663
0.000395012
0.000457774
0.00090119
0.000607836
0.000386246
0.000353908
0.000337792
0.000430569
0.000517606
0.000826133
0.000650313
0.000944313
0.000798624
0.000235435
0.000208677
0.000366682
0.000492376
0.000458564
0.000226943
8.60253e-05
0.000244424
0.000431478
0.000200171
0.000283497
0.000264694
0.000304989
0.000309129
0.000415824
0.000505345
0.000777672
0.000888538
0.000606867
0.0010121
0.000208143
0.000437586
0.000136466
0.000606824
0.000310494
0.000160948
0.000142536
0.000194989
0.000187085
0.000298045
0.000159699
0.000160462
0.000217655
0.000204423
0.000144052
0.000308055
0.000431376
0.000809822
0.000454412
0.000557882
0.000518201
0.000161031
0.000145473
6.38057e-05
0.000108379
0.000602398
0.000121576
0.00014318
0.00010077
7.56492e-05
7.46754e-05
0.000319538
0.000108308
0.000119795
6.88644e-05
0.000143665
0.000145833
0.000243892
0.000184772
0.000610216
0.000254138
0.000389242
0.000206193
0.00200134
0.000937903
0.00105837
0.00112674
0.00102852
0.00102466
0.000835709
0.000950148
0.000831326
0.000701746
0.000764369
0.000704195
0.0008246
0.00064359
0.000584493
0.00067553
0.000474278
0.000524619
0.000507253
0.000499603
0.000520787
0.000367276
0.000663685
0.000460337
0.000421659
0.000367344
0.000480359
0.000433704
0.000403045
0.000566065
0.000387546
0.000469549
0.000294288
0.000375333
0.00034294
0.00048531
0.000515652
0.000396277
0.000757834
0.000455852
0.000434395
0.000363736
0.000361601
0.00036575
0.000434525
0.000633811
0.000573807
0.0005014
0.00042794
0.000415522
0.000418927
0.000242482
0.000341748
0.000509054
0.000469695
0.00056813
0.00068314
0.000468256
0.000628393
0.000583078
0.000353327
0.000583526
0.000452406
0.000422652
0.000607803
0.000510084
0.00053968
0.000547963
0.000487112
0.000577938
0.000422871
0.000286871
0.000717398
0.000311639
0.000452146
0.000479716
0.000481527
0.000575773
0.000424528
0.000890727
0.000420317
0.00066517
0.000472894
0.000224091
0.000532393
0.000401452
0.000564545
0.00047541
0.000284002
0.000872979
0.000692512
0.00075632
0.000919457
0.000672594
0.000524634
0.000306329
0.000489869
0.000485075
0.000662622
0.000278826
0.000622771
0.000372421
0.000693776
0.00114243
0.00130978
0.000599431
0.000465138
0.000253669
0.000559112
7.93687e-05
0.000463397
0.000428943
0.000466451
0.000416238
0.000690936
0.000662213
0.000996438
0.00090691
0.000488662
0.000540693
0.000430096
0.000456987
0.000901559
0.00031973
0.000805598
0.00061548
0.0004281
0.000618313
0.000825603
0.00062785
0.0011776
0.00134698
0.00127416
0.000713771
0.000710274
0.000574886
0.000167574
0.000615557
0.00041429
0.000847552
0.000453081
0.000309512
0.000814261
0.000696592
0.000636949
0.000637849
0.000401239
0.0013574
0.00134629
0.00107373
0.000910947
0.00101984
0.000634668
0.00127506
0.00173608
0.0011217
0.000716308
0.000768342
0.00056148
0.000384057
0.000255368
0.000360652
0.000478107
0.000758774
0.000682182
0.000665938
0.000622983
0.000547886
0.00103025
0.00115136
0.000736704
0.00149128
0.00132744
0.000796065
0.00125416
0.000956505
0.00094689
0.00135409
0.000579831
0.00120692
0.000990727
0.000981228
0.0010379
0.000855154
0.000791686
0.00115692
0.00107267
0.00234654
0.00203571
0.00166436
0.000953285
0.0014875
0.00129674
0.00166173
0.00159391
0.000943817
0.000669268
0.000555173
0.000409059
0.000462173
0.000618763
0.00104809
0.000955402
0.00124144
0.00174901
0.00121171
0.000852573
0.000653436
0.000883452
0.000739256
0.000802469
0.000782812
0.000836195
0.000602912
0.00059393
0.000500231
0.000273032
0.00049712
0.000706389
0.000415313
0.000359928
0.000373545
0.00049784
0.000556963
0.000289972
0.000318982
0.000380345
0.000241739
0.000408896
0.000414532
0.000455691
0.000912359
0.000898671
0.000913872
0.000731289
0.000233273
0.000136635
0.000367115
0.000462388
0.000279847
0.000270209
0.000127853
0.000249122
0.000300566
0.000325639
0.000318809
0.000265661
0.000306392
0.00032122
0.000399866
0.000380872
0.000670383
0.000790276
0.000638004
0.000915539
0.000542765
0.000163455
0.000362516
0.000210395
0.000811214
0.000406116
0.000174548
0.000150003
0.000142642
0.000173226
0.000271713
0.000163634
0.000153036
0.000210538
0.000251091
0.000182845
0.000318191
0.000459965
0.00082488
0.000675502
0.000524533
0.000599276
0.000274967
9.67162e-05
0.000111249
0.000207311
0.000178083
0.000552156
0.000135612
8.85552e-05
0.000113221
6.23806e-05
0.000193844
0.000119342
8.64768e-05
0.000120463
7.11745e-05
0.000145371
0.000103419
0.000150605
0.000175687
0.000408096
0.000507307
0.000437487
0.000263005
0.00025306
0.00194957
0.00190684
0.000980207
0.0010167
0.00100666
0.00122366
0.00102223
0.00107036
0.00102272
0.000999665
0.00111844
0.000859004
0.00072487
0.0007337
0.000650864
0.000785507
0.000838361
0.000598581
0.000579905
0.000628019
0.000322867
0.000533957
0.000508772