/*--------------------------------*- C++ -*----------------------------------*\
  =========                 |
  \\      /  F ield         | OpenFOAM: The Open Source CFD Toolbox
   \\    /   O peration     | Website:  https://openfoam.org
    \\  /    A nd           | Version:  7
     \\/     M anipulation  |
\*---------------------------------------------------------------------------*/
FoamFile
{
    version     2.0;
    format      ascii;
    class       surfaceScalarField;
    location    "9";
    object      phi_0;
}
// * * * * * * * * * * * * * * * * * * * * * * * * * * * * * * * * * * * * * //

dimensions      [0 3 -1 0 0 0 0];

internalField   nonuniform List<scalar> 
54184
(
6.32311e-05
4.52099e-05
-9.18746e-05
0.000101355
-0.000753283
-0.000242795
7.07939e-05
-1.16405e-05
-0.000102185
6.04648e-05
0.000210561
-9.76329e-05
3.58931e-05
-0.00182195
-0.000516475
0.000155316
-0.000806526
-0.000272376
7.21742e-05
-0.000529683
-0.000285667
6.98044e-05
-6.82867e-05
-0.000102907
6.58313e-05
0.00015047
-0.000107924
9.08163e-05
0.00141151
-9.58247e-05
-0.000110068
-0.00217409
-0.000438838
0.000136405
-0.00174608
-0.000561316
1.61048e-05
-0.00173498
-0.000538371
0.000123158
-0.000823939
-0.000281016
8.11164e-05
-0.000498646
-0.000318698
8.2818e-05
0.000470187
-0.000309078
6.86418e-05
-0.000125194
-0.000103683
6.51217e-05
8.99884e-05
-0.000107547
0.000105528
0.00130404
-0.000105985
7.86294e-05
0.00186501
-8.76434e-05
-0.00047707
-0.00308575
7.45464e-05
-6.37411e-05
-0.00198771
-0.000496968
-0.000104553
-0.00265383
-0.000369281
8.18328e-05
-0.00164924
-0.000560649
-1.04048e-06
-0.00162867
-0.000585466
-9.33808e-06
-0.00135374
-0.000506509
0.000116417
-0.000833704
-0.000289685
0.000118126
-0.000512695
-0.000319972
9.43279e-05
0.000505113
-0.000342423
3.20604e-05
0.00119081
-0.000297973
6.80646e-05
-0.000183744
-0.000104476
6.22093e-05
3.06515e-05
-0.000106556
0.000112676
0.00118978
-0.000105958
9.29017e-05
0.00176252
-9.64e-05
5.0314e-05
0.00256535
-7.30447e-05
-0.000939567
-0.0041371
0.00114426
-0.000545939
-0.00277139
2.97263e-05
-0.000571613
-0.00357848
0.000203811
-5.86017e-05
-0.0018602
-0.000512921
-0.000146874
-0.00261883
-0.000386135
-0.000205515
-0.0030456
-0.000127979
7.4238e-05
-0.00155556
-0.000553102
8.7907e-05
-0.00158142
-0.000577679
-2.54305e-05
-0.00127586
-0.000543586
-0.000202544
-0.000370189
-0.000450213
0.000140312
-0.000873352
-0.000295169
3.42952e-05
-0.000454684
-0.000319782
0.000112707
0.000525138
-0.000340028
5.52694e-05
0.00121501
-0.000328988
-1.18857e-05
0.00129847
-0.000265562
6.54872e-05
-0.00024277
-0.000105039
5.75362e-05
-2.65246e-05
-0.000104836
0.000120316
0.0010681
-0.000105189
0.000101505
0.00165126
-9.62004e-05
6.35285e-05
0.00248613
-8.07115e-05
-2.93306e-06
0.00278721
-6.72878e-05
-0.00124264
-0.00623734
0.00178473
-0.00110671
-0.00370928
0.00120574
-0.00102273
-0.00483506
0.00114462
-0.000564096
-0.00246229
-2.47551e-05
-0.000641844
-0.00325699
0.000203211
-0.000662773
-0.00346454
0.000511089
-2.48212e-05
-0.00180111
-0.00051233
-0.000157586
-0.00249664
-0.000389612
-0.000245179
-0.00306776
-0.000144226
-0.000758347
-0.00325547
-3.1051e-05
8.16194e-05
-0.00144324
-0.000552336
-4.12726e-05
-0.00148861
-0.000570344
-1.97756e-05
-0.00119497
-0.000526091
-0.00021244
-0.000166371
-0.000479695
-0.000176512
-0.000760752
-0.000393378
0.000143579
-0.00092975
-0.000300793
8.81512e-05
-0.00046104
-0.000319427
0.000162214
0.000498335
-0.000334876
7.53136e-05
0.0012297
-0.000328533
4.23661e-06
0.00132123
-0.000292456
-7.4314e-05
0.00112808
-0.0002191
6.06904e-05
-0.00030026
-0.000105699
5.56096e-05
-8.42403e-05
-0.000102933
0.000128593
0.000938782
-0.000104114
0.000116056
0.00152543
-9.54161e-05
7.57252e-05
0.00239525
-8.10427e-05
7.13998e-07
0.00277992
-7.41319e-05
-3.54377e-05
0.00183856
-6.57516e-05
-0.000969116
-0.00733756
0.0020843
-0.00148393
-0.00592142
0.00194926
-0.00124907
-0.00633539
0.00179464
-0.00111799
-0.00331615
0.00108329
-0.00115316
-0.00435875
0.00124075
-0.00102003
-0.00523197
0.00117362
-0.000423382
-0.00213599
-0.000190798
-0.000645812
-0.00297782
0.000184295
-0.00071946
-0.00329867
0.000511618
-0.000929851
-0.00391812
0.000851417
-5.90541e-06
-0.0017447
-0.00051741
-0.000180348
-0.00247375
-0.000396145
-0.000273336
-0.00302325
-0.000180559
-0.000784146
-0.00277547
-5.25196e-05
-0.000456002
-0.00315225
-0.000126777
0.000150743
-0.00141662
-0.000549753
9.2303e-05
-0.00147361
-0.000571492
3.95702e-05
-0.00112764
-0.000515026
-0.000169742
2.26347e-05
-0.000470041
-0.000200152
-0.000619014
-0.000417045
-0.000210104
-0.000535638
-0.000352291
6.81363e-05
-0.000929577
-0.000304719
5.73668e-05
-0.000445623
-0.000317967
0.000169954
0.00046757
-0.000330024
9.60878e-05
0.00124168
-0.000326885
2.49066e-05
0.0013345
-0.000290982
-7.93477e-05
0.00115731
-0.000241629
-6.43973e-05
0.00102136
-0.000207054
5.66948e-05
-0.00035713
-0.000106372
5.84545e-05
-0.000146287
-0.000102107
0.000135621
0.000802994
-0.000102766
0.000125623
0.00139088
-9.51864e-05
9.10514e-05
0.00228958
-8.07974e-05
8.43043e-06
0.00276442
-7.39781e-05
-3.25583e-05
0.0018693
-7.23208e-05
-5.36029e-05
0.00142982
-5.96013e-05
-0.00109028
-0.00686338
0.00244061
-0.00146068
-0.00714704
0.00229334
-0.0011534
-0.00697788
0.00201858
-0.00152393
-0.00561616
0.00195191
-0.00145004
-0.00598749
0.00189825
-0.00103992
-0.0065036
0.00178284
-0.0008254
-0.00305641
0.000913163
-0.00111572
-0.00400043
0.00119488
-0.0011335
-0.00485916
0.00128198
-0.000862543
-0.00616616
0.00114496
-0.000251457
-0.00206827
-0.000136275
-0.000694342
-0.00271898
6.43627e-05
-0.000705838
-0.0031467
0.000464826
-0.00086219
-0.00425404
0.000925587
-0.000720437
-0.00484776
0.000902947
3.72268e-05
-0.00168151
-0.00052966
-0.00012566
-0.00235146
-0.000421743
-0.000285459
-0.00285118
-0.000243188
-0.000582234
-0.00244236
-0.000101173
-0.000492396
-0.00276147
-0.000151051
-0.000431179
-0.00217204
-0.00013659
2.89371e-05
-0.00134611
-0.000544756
9.37237e-06
-0.00140462
-0.000570746
2.27975e-05
-0.00103332
-0.000518653
-0.000131711
0.000201722
-0.000466314
-0.000199368
-0.000450286
-0.000414495
-0.00022607
-0.000417694
-0.000388267
-5.36494e-05
0.000125357
-0.000345903
0.000133721
-0.00100939
-0.000308096
9.3284e-05
-0.000471762
-0.00031341
0.000204205
0.000410073
-0.000329053
0.000131573
0.00123091
-0.000325198
4.8412e-05
0.00134054
-0.000290293
-7.79714e-05
0.00119399
-0.000241264
-6.05316e-05
0.00103629
-0.000228588
-9.41207e-05
0.000455794
-0.000190345
5.37426e-05
-0.000414017
-0.000107292
6.57865e-05
-0.000216594
-0.000101852
0.000142955
0.000660396
-0.000102465
0.00013027
0.0012536
-9.57606e-05
0.000107094
0.00216758
-8.02861e-05
1.86598e-05
0.00273871
-7.37413e-05
-2.73414e-05
0.00189483
-7.21626e-05
-5.43798e-05
0.0014776
-6.57163e-05
-7.35334e-05
0.00138835
-5.91691e-05
-0.0011013
-0.005622
0.00307688
-0.00126747
-0.00622451
0.00277519
-0.00161737
-0.00669446
0.0027807
-0.00103705
-0.00641772
0.00247107
-0.00149845
-0.00701437
0.00229351
-0.00146429
-0.00687817
0.00220787
-0.00113591
-0.00687109
0.00209569
-0.00124673
-0.00536484
0.00185325
-0.00137799
-0.0056209
0.00184758
-0.00115383
-0.00647136
0.00188634
-0.00105992
-0.00635262
0.00179314
-0.000785671
-0.00271014
0.00076295
-0.00117724
-0.00368547
0.0010811
-0.0010834
-0.00451828
0.00123155
-0.000864555
-0.00612395
0.00124213
-0.000867716
-0.00634272
0.00124357
-0.000152628
-0.00192877
-0.00022348
-0.000629091
-0.0025026
0.000150773
-0.000684386
-0.00312637
0.000442966
-0.000787468
-0.00447249
0.000888507
-0.000813953
-0.00477302
0.00117241
-0.000659338
-0.00476555
0.000876255
2.23035e-05
-0.00171214
-0.000566027
-0.000158731
-0.00225298
-0.000460038
-0.000277534
-0.00262923
-0.000343362
-0.000332288
-0.00234863
-0.000136346
-0.000386405
-0.00253835
-0.00013726
-0.000144766
-0.00226502
-0.000139366
-0.000217264
-0.00278834
-9.99285e-05
0.000188647
-0.00137014
-0.000555801
7.53732e-05
-0.0013598
-0.000571667
0.000114735
-0.000981032
-0.000533568
-3.13244e-05
0.000318177
-0.00047221
-0.000201654
-0.000257268
-0.000409268
-0.000234415
-0.000286966
-0.000388779
-6.2025e-05
0.000125004
-0.00038642
-9.86818e-05
-0.000663428
-0.000325804
0.00010818
-0.00107028
-0.000316347
0.000126752
-0.000529631
-0.000311193
0.00021878
0.000337191
-0.000316353
0.000156071
0.00120352
-0.000327471
6.59612e-05
0.00134596
-0.000289477
-5.96741e-05
0.00122403
-0.000241999
-5.02341e-05
0.00104562
-0.000227701
-9.25767e-05
0.000479216
-0.000213813
-0.000137964
0.000413854
-0.000177969
5.23206e-05
-0.000471366
-0.000108504
6.55542e-05
-0.000286766
-0.000102674
0.000151115
0.000509861
-0.000102433
0.000148793
0.00109948
-9.71355e-05
0.000120415
0.00203155
-8.01428e-05
2.9806e-05
0.00270191
-7.32961e-05
-2.04145e-05
0.00191346
-7.19592e-05
-4.99618e-05
0.00152141
-6.60148e-05
-7.42445e-05
0.00146238
-6.5505e-05
-7.24563e-05
0.00127526
-5.85942e-05
-0.00112294
-0.00551756
0.00336973
-0.00109555
-0.00576289
0.00307195
-0.000860208
-0.00580614
0.003102
-0.00148172
-0.00643435
0.00305089
-0.00112536
-0.00608275
0.00279698
-0.00137417
-0.00672994
0.00276731
-0.0013412
-0.00652045
0.00276034
-0.00109104
-0.00618496
0.00245555
-0.00145614
-0.00674004
0.00232004
-0.00152055
-0.00671555
0.00227345
-0.00118391
-0.00694251
0.00230937
-0.00111855
-0.00674646
0.00206348
-0.0013048
-0.00498739
0.00169233
-0.00150583
-0.00519551
0.00175646
-0.0011926
-0.00636323
0.00184866
-0.00119059
-0.00610795
0.0019677
-0.00100419
-0.00670064
0.00177683
-0.000646501
-0.00246515
0.000636589
-0.00117755
-0.00333016
0.000956097
-0.00104891
-0.00425682
0.00118417
-0.001085
-0.00581191
0.00121704
-0.00103637
-0.0062457
0.00136754
-0.000801957
-0.00650932
0.00135102
-0.000108614
-0.00190565
-0.0002046
-0.000558197
-0.00237139
4.4775e-05
-0.000630048
-0.00302938
0.000406294
-0.000621545
-0.00454478
0.000804517
-0.000685249
-0.00459575
0.00101007
-0.000298367
-0.00455776
0.00111822
-0.00050954
-0.00452287
0.000863272
0.000194646
-0.00176181
-0.000605158
-5.9322e-05
-0.00221194
-0.000472371
-0.000180096
-0.00238114
-0.0004133
-0.000125417
-0.00239222
-0.000205674
-0.000540214
-0.00224998
-8.61579e-05
-0.000514311
-0.00201972
-0.000102674
-0.000391536
-0.0025012
-9.6996e-05
-0.000315398
-0.00299612
-0.000117867
0.000149767
-0.00137696
-0.000567891
8.52849e-05
-0.00130495
-0.000569182
6.72593e-05
-0.000861828
-0.00053935
3.39838e-05
0.000391089
-0.000484393
-0.000210299
-4.39786e-05
-0.000409238
-0.000222248
-0.000145634
-0.000388026
-6.54898e-05
0.000138408
-0.000386927
-0.000101171
-0.000668145
-0.000373108
-0.000146651
-0.00138325
-0.000286213
0.000161259
-0.00118578
-0.000322613
0.000142266
-0.000610948
-0.000311741
0.00023675
0.000251889
-0.000311525
0.000212398
0.00114318
-0.000319613
9.62717e-05
0.00133174
-0.000289115
-4.62992e-05
0.0012529
-0.000242238
-4.19101e-05
0.00105347
-0.00022835
-8.49354e-05
0.000505219
-0.000218731
-0.000143755
0.000470214
-0.000200663
-0.000143742
0.00031705
-0.000157411
5.22117e-05
-0.000529458
-0.000109753
7.35922e-05
-0.000364491
-0.000104372
0.0001595
0.000351037
-0.00010335
0.000157179
0.00093718
-9.7311e-05
0.000125062
0.00189128
-8.19344e-05
3.92261e-05
0.00265537
-7.28249e-05
-1.15018e-05
0.00192342
-7.17573e-05
-4.57569e-05
0.00156084
-6.56343e-05
-7.19848e-05
0.00153446
-6.61058e-05
-7.56922e-05
0.00134989
-6.44399e-05
-6.37414e-05
0.000693999
-5.92762e-05
-0.000936615
-0.00559241
0.00348743
-0.000911818
-0.00571677
0.00338792
-0.000678904
-0.00549907
0.00336079
-0.00113464
-0.00604633
0.00339554
-0.00108109
-0.0058525
0.00307404
-0.00076778
-0.00573455
0.00304878
-0.00114521
-0.00666985
0.00311701
-0.0013341
-0.00612067
0.00308171
-0.000939737
-0.00586792
0.00269375
-0.00126568
-0.0067713
0.0028005
-0.00151091
-0.00650675
0.00274397
-0.00112042
-0.006221
0.00273289
-0.00115841
-0.00614541
0.00243572
-0.0013434
-0.00665991
0.00236254
-0.00158622
-0.00655378
0.00223867
-0.00127844
-0.00689062
0.00230738
-0.00118682
-0.00670983
0.00226896
-0.000894914
-0.00674419
0.0020215
-0.00122145
-0.00461561
0.0015189
-0.00157467
-0.00478369
0.00167762
-0.00128751
-0.00613209
0.00176392
-0.0013404
-0.00596188
0.00195799
-0.00117538
-0.00656584
0.00197192
-0.000869447
-0.00693309
0.00174037
-0.000503882
-0.00230623
0.000445584
-0.00108556
-0.00302911
0.000862897
-0.000978095
-0.00408875
0.00113608
-0.00123941
-0.00526354
0.00125366
-0.00106351
-0.00606028
0.00140988
-0.000842259
-0.00607394
0.00147605
-0.000782294
-0.00575546
0.00133574
0.000107609
-0.00194423
-0.000286189
-0.000451131
-0.00227157
8.73854e-05
-0.000618486
-0.00290583
0.000359612
-0.000525804
-0.00441581
0.000677706
-0.0008334
-0.0045243
0.00102626
-0.000736062
-0.0043156
0.000989658
-0.000711878
-0.00421892
0.00113462
-0.000644653
-0.00398245
0.00071614
0.000248948
-0.00188938
-0.000645504
-4.02128e-05
-0.00221921
-0.000472383
-0.000212602
-0.00217395
-0.000399694
-0.000159596
-0.00234105
-0.000270895
-0.000665546
-0.00193164
-6.8762e-05
-0.000512245
-0.00173366
-8.22163e-05
-0.000405329
-0.00219023
-7.38019e-05
3.60455e-05
-0.00309129
-0.000139034
-0.000170765
-0.00448101
-0.000227083
0.000242985
-0.00142229
-0.000568114
0.000153661
-0.00131219
-0.000572049
6.45617e-05
-0.000712999
-0.000545823
6.68793e-05
0.000488164
-0.000490907
-0.00014851
0.000127382
-0.000410972
-0.000198203
-6.93136e-06
-0.000396037
-6.31953e-05
0.000158903
-0.000387236
-0.000100961
-0.000659257
-0.00037979
-0.000213563
-0.00135066
-0.000335889
-0.00021073
-0.00182162
-0.000249434
0.000173007
-0.00130382
-0.000329972
0.000140472
-0.000689639
-0.000310802
0.000266466
0.00013547
-0.000302288
0.000244774
0.00106152
-0.000317469
0.000125709
0.00130097
-0.000289491
-2.78284e-05
0.00127388
-0.000243043
-2.72987e-05
0.00105694
-0.00022991
-8.67589e-05
0.000541922
-0.000224051
-0.000140716
0.000526017
-0.000205802
-0.00015997
0.000375494
-0.000174829
-0.000143899
0.000208829
-0.000144642
5.7297e-05
-0.00059223
-0.000111117
7.85372e-05
-0.000446688
-0.000106093
0.000162714
0.000188931
-0.00010498
0.000165811
0.000765224
-9.72049e-05
0.000133769
0.00174164
-8.14358e-05
4.17425e-05
0.00260513
-7.34389e-05
-5.60701e-06
0.00192765
-7.14484e-05
-4.16297e-05
0.00159654
-6.5826e-05
-6.08215e-05
0.0015957
-6.60552e-05
-7.25549e-05
0.00142058
-6.42414e-05
-6.96179e-05
0.000764145
-6.49675e-05
-5.16573e-05
0.000685191
-8.17728e-05
-0.000748436
-0.00497488
0.00386303
-0.000719607
-0.00533686
0.00368864
-0.000840075
-0.00567373
0.00353034
-0.000709655
-0.0053625
0.00362575
-0.000951182
-0.00583275
0.00379904
-0.00103548
-0.00549095
0.00333419
-0.000422695
-0.00549411
0.00330296
-0.000831849
-0.00629877
0.00347068
-0.00119512
-0.00596299
0.00336705
-0.00088699
-0.00576172
0.00304846
-0.000738587
-0.00569915
0.00285791
-0.00103398
-0.00687383
0.00317182
-0.00140779
-0.00619589
0.00308911
-0.00117436
-0.0057573
0.00302503
-0.00108749
-0.00579881
0.00259477
-0.000929134
-0.00703294
0.00284972
-0.00147809
-0.00658155
0.00276717
-0.00131094
-0.00615838
0.00271385
-0.00113163
-0.00615277
0.00268507
-0.00068222
-0.00654797
0.00230797
-0.00128621
-0.00658404
0.00231369
-0.00155402
-0.00644349
0.00223161
-0.00148779
-0.00670965
0.00225798
-0.00129406
-0.00673371
0.00228492
-0.001004
-0.00687078
0.00222416
-0.000750804
-0.00680296
0.00202642
-0.00103233
-0.00431892
0.00138481
-0.00148814
-0.00445386
0.00159165
-0.00137514
-0.00578894
0.00173152
-0.00133874
-0.00594757
0.00184894
-0.000962105
-0.00666557
0.00195632
-0.000858152
-0.00690658
0.00196131
-0.000826898
-0.00664725
0.00170002
-0.000373252
-0.00211536
0.000359346
-0.000978154
-0.00277496
0.000718459
-0.00104699
-0.00397301
0.00117566
-0.00136657
-0.00455239
0.0012657
-0.00111713
-0.00592393
0.00140105
-0.000914719
-0.00599176
0.00150636
-0.000848833
-0.00559093
0.00144848
-0.000737284
-0.00581206
0.00125533
0.00025859
-0.00211153
-0.000353335
-0.000396437
-0.0022314
2.98687e-05
-0.000643815
-0.00272229
0.000335058
-0.000699576
-0.00418834
0.00067213
-0.000917472
-0.00444206
0.000847388
-0.000785449
-0.00412129
0.00110515
-0.000813726
-0.00366187
0.000841008
-0.000118364
-0.00372566
0.00103224
-0.00013561
-0.0047031
0.000668437
0.000359483
-0.0020278
-0.000687158
1.94028e-05
-0.0021971
-0.000533357
-0.000188688
-0.00198192
-0.00041117
-7.18238e-05
-0.0022846
-0.000317442
-0.000348842
-0.00187493
-0.00012727
-0.00052085
-0.00137741
-0.000102361
-0.000313553
-0.00187579
-0.0001463
-0.000421967
-0.00269129
-0.000152801
-0.000258746
-0.00425961
-0.000315248
-0.000355447
-0.0049398
-0.000361542
0.000236796
-0.00144956
-0.000578536
0.000147025
-0.00131008
-0.000576776
0.000113057
-0.000588632
-0.000543007
0.000139842
0.000542975
-0.000495702
-8.43146e-05
0.00026101
-0.000414511
-0.000164462
0.000114964
-0.000396234
-7.08e-05
0.000198247
-0.00039188
-0.000125596
-0.000631091
-0.000376565
-0.000221486
-0.00130653
-0.000343159
-0.000225661
-0.00180746
-0.000284366
-0.000239868
-0.000261311
-0.000228302
0.000204054
-0.00142939
-0.000337666
0.000152864
-0.000780927
-0.000313011
0.000290065
-1.08212e-05
-0.000291863
0.000264204
0.000973194
-0.000312351
0.000155671
0.00125134
-0.000289731
-1.60725e-05
0.00128431
-0.000242104
-2.28082e-05
0.00106329
-0.000232201
-8.02014e-05
0.000579191
-0.000228608
-0.000139803
0.000594211
-0.000213264
-0.00015938
0.000432396
-0.000175878
-0.000161679
0.000284224
-0.000158163
-9.63314e-05
0.000280687
-0.000183088
6.58178e-05
-0.000661989
-0.000112358
8.21355e-05
-0.000532032
-0.000107908
0.000164979
2.39648e-05
-0.000106105
0.000173565
0.000584143
-9.74648e-05
0.000145272
0.0015799
-8.07401e-05
4.97737e-05
0.0025467
-7.27774e-05
1.71823e-06
0.00192372
-7.12264e-05
-3.40924e-05
0.001625
-6.58162e-05
-5.91229e-05
0.00165518
-6.61834e-05
-6.15362e-05
0.00148042
-6.43641e-05
-6.76716e-05
0.000832004
-6.44294e-05
-5.52377e-05
0.000764594
-8.91329e-05
4.75479e-06
8.14288e-05
-0.000109341
-0.000559383
-0.00489076
0.00393589
-0.000680195
-0.0050293
0.00394486
-0.000623172
-0.00489462
0.00388354
-0.000829282
-0.00537391
0.00373279
-0.000728178
-0.00512416
0.00367083
-0.00104235
-0.00558713
0.00392025
-0.000929458
-0.0055064
0.00356823
-0.000227199
-0.00526484
0.00350101
-0.000823632
-0.00587727
0.00386697
-0.000965937
-0.00563776
0.00371667
-0.000791355
-0.00554183
0.00328627
-0.000527029
-0.005383
0.00314542
-0.000794607
-0.00646464
0.00352706
-0.00115515
-0.00612603
0.00338108
-0.00106308
-0.00587759
0.00337164
-0.000785062
-0.00579358
0.00284047
-0.00049065
-0.0058609
0.00281137
-0.000685785
-0.00702427
0.00322001
-0.00122404
-0.00641215
0.00313402
-0.00122248
-0.00579441
0.00303777
-0.000987138
-0.00580519
0.00288691
-0.000815638
-0.00565665
0.00264665
-0.00110392
-0.00712154
0.00299005
-0.00134863
-0.00670041
0.00276319
-0.00148321
-0.00611016
0.00271437
-0.00114909
-0.00622132
0.00263744
-0.000838442
-0.00653935
0.0025109
-0.000546831
-0.0066596
0.00227728
-0.00110344
-0.00649959
0.00214357
-0.00139196
-0.00643686
0.00221088
-0.00169181
-0.0064002
0.00223882
-0.00117947
-0.00690413
0.00226913
-0.000857243
-0.00688585
0.00219513
-0.000663488
-0.00694894
0.00217548
-0.000763617
-0.00636984
0.00204173
-0.00086734
-0.00399386
0.00117157
-0.00134891
-0.00414079
0.0014425
-0.001426
-0.00547925
0.00166097
-0.00144156
-0.00595175
0.00181069
-0.00126107
-0.00655491
0.00188221
-0.000946118
-0.00681129
0.00189243
-0.000854143
-0.00659609
0.00191546
-0.000759877
-0.00643984
0.00160333
-0.000147535
-0.00205053
0.000260428
-0.000920976
-0.00256503
0.000673956
-0.00112204
-0.0037426
0.000966283
-0.00130969
-0.00410431
0.00133769
-0.00108594
-0.00588661
0.00139684
-0.000997414
-0.0058413
0.00146254
-0.000994461
-0.00535921
0.00145538
-0.000576301
-0.00523647
0.00133082
-0.000295885
-0.00524112
0.00129545
0.000404651
-0.00229614
-0.000478608
-0.000284203
-0.00227472
-6.40716e-06
-0.000557168
-0.00260265
0.000278716
-0.000384964
-0.004056
0.000515854
-0.000576696
-0.0044266
0.000884523
-0.000802261
-0.00393789
0.000945405
-0.00063919
-0.00323329
0.0010022
-0.0005996
-0.00339545
0.000688429
-0.000216763
-0.00443385
0.000721008
-9.18525e-05
-0.00495896
0.000339479
0.000388363
-0.00219208
-0.000714001
0.000121048
-0.00227935
-0.000578933
-0.00013349
-0.0018005
-0.000468223
-1.2098e-05
-0.00218496
-0.000358871
-0.000372673
-0.00169631
-0.00020771
-0.00033323
-0.00119313
-0.000142782
-0.000381157
-0.00152337
-0.000144425
-0.000235004
-0.00251903
-0.000209147
-0.000356079
-0.00398659
-0.000291231
-0.000380432
-0.0045892
-0.00051108
-0.000217137
-0.00250944
-0.000514527
0.000284781
-0.00148908
-0.000582611
0.000183592
-0.00133685
-0.000582494
0.000146854
-0.00048857
-0.000533627
0.000182633
0.000578104
-0.000496565
-2.96596e-05
0.000380936
-0.000430297
-0.000140118
0.000223994
-0.000399496
-7.03753e-05
0.000241418
-0.000391837
-0.000128792
-0.00059643
-0.000377951
-0.000263688
-0.00122218
-0.000337025
-0.00027838
-0.00174471
-0.000286909
-0.000271137
-0.000183955
-0.000252264
-5.47405e-05
0.000201725
-0.000293409
0.000219176
-0.00154756
-0.00033719
0.000141953
-0.000854861
-0.000323549
0.000297231
-0.000169681
-0.000286403
0.00028631
0.000874844
-0.000306258
0.000191498
0.00117922
-0.000286465
-1.21269e-05
0.00129944
-0.000242959
-1.13653e-05
0.00106734
-0.000233069
-7.15955e-05
0.000617596
-0.000233103
-0.000134851
0.000660873
-0.000219541
-0.00016001
0.000496265
-0.000178659
-0.000165786
0.000361094
-0.000154634
-0.000102492
0.000369137
-0.000199358
-2.45449e-05
5.69818e-05
-0.000249603
8.31733e-05
-0.000746791
-0.000113083
9.24095e-05
-0.000627397
-0.000109403
0.000166848
-0.00014368
-0.000107112
0.000177314
0.000398652
-9.79278e-05
0.000152027
0.00141113
-8.07206e-05
6.67225e-05
0.00247161
-7.23733e-05
9.3416e-06
0.00191253
-7.0929e-05
-2.90618e-05
0.00164882
-6.59848e-05
-4.85052e-05
0.00170379
-6.59217e-05
-6.18525e-05
0.00154005
-6.39566e-05
-6.4529e-05
0.000896178
-6.40091e-05
-5.51514e-05
0.000842769
-8.74527e-05
1.45264e-06
0.000108796
-0.000117953
6.46794e-05
-7.57927e-05
-0.000102768
-0.000383632
-0.00454919
0.00404202
-0.000710785
-0.00488572
0.00401264
-0.000637881
-0.00487362
0.00390554
-0.000646061
-0.00516815
0.00394643
-0.000540866
-0.00501269
0.00387562
-0.000368398
-0.00493484
0.0038741
-0.00105388
-0.00534896
0.00411405
-0.000746161
-0.00523396
0.0036593
-0.000305109
-0.00526185
0.00367034
-0.000902039
-0.00549986
0.00394345
-0.000909984
-0.0055996
0.00395749
-0.000408183
-0.00549551
0.00341573
-0.000139533
-0.00533884
0.00339337
-0.000778544
-0.00594077
0.00389106
-0.000832742
-0.00579448
0.00370128
-0.000769686
-0.00573545
0.00361689
-0.000526179
-0.00549975
0.00314414
-0.000419696
-0.00524751
0.00307584
-0.000756782
-0.00643803
0.0036395
-0.000922259
-0.00634064
0.00343988
-0.000957643
-0.00609588
0.00333454
-0.000732201
-0.00585812
0.00318124
-0.000751885
-0.00586593
0.00278174
-0.000408459
-0.00586987
0.00282535
-0.000749285
-0.00729325
0.00328515
-0.000985711
-0.00669716
0.0031421
-0.00116762
-0.00600042
0.00302443
-0.000945942
-0.00591275
0.00294218
-0.000975728
-0.00554061
0.00290816
-0.000594905
-0.00574735
0.00268447
-0.000994909
-0.00719518
0.003043
-0.0011125
-0.00682486
0.00283504
-0.00153755
-0.00621211
0.00271088
-0.00100748
-0.00630498
0.00262604
-0.000924295
-0.006373
0.00253814
-0.00050737
-0.00678798
0.00248316
-0.000564759
-0.00619662
0.00216643
-0.00103379
-0.00629125
0.00188959
-0.00139776
-0.00638576
0.00214132
-0.00149995
-0.00627012
0.00215475
-0.00138976
-0.00693723
0.00222012
-0.00130172
-0.00677893
0.00220285
-0.000794936
-0.00709751
0.00219253
-0.000703082
-0.00657221
0.00222679
-0.000740242
-0.00626112
0.00190761
-0.000631485
-0.00372173
0.00103248
-0.00115995
-0.00392716
0.00119691
-0.00144293
-0.00524624
0.00153038
-0.00130294
-0.00595088
0.00165336
-0.00116977
-0.00645148
0.00179109
-0.000813746
-0.00697272
0.00185998
-0.000821745
-0.00668858
0.0018122
-0.00070919
-0.00620617
0.00181468
-0.000254381
-0.00683961
0.00143895
-6.65984e-05
-0.0019476
0.000197191
-0.000728516
-0.00244737
0.000587082
-0.0010733
-0.00350119
0.000948675
-0.00102127
-0.00365961
0.00115788
-0.00104602
-0.00541533
0.00133574
-0.000946716
-0.00575921
0.00145921
-0.000773509
-0.00509372
0.00133137
-0.000571472
-0.00517931
0.00137009
-0.000425059
-0.00498039
0.00127839
5.74111e-05
-0.00473252
0.00117693
0.000479671
-0.0025252
-0.000542404
-0.000114109
-0.00242871
-8.94587e-05
-0.000506865
-0.0024676
0.000231911
-0.000378155
-0.00383228
0.00042105
-0.000628273
-0.00434589
0.000690746
-0.00057035
-0.003711
0.000894753
-0.000570326
-0.00295627
0.000857552
-0.000422464
-0.00309491
0.000889125
-0.000412082
-0.00420211
0.000512687
-0.000231233
-0.00455793
0.000170782
0.00021918
-0.00422744
-0.000227791
0.000464047
-0.002358
-0.000739807
0.000160613
-0.00234547
-0.000624899
-7.16275e-05
-0.00163987
-0.000521088
-8.49843e-06
-0.0020501
-0.000411948
-0.000319754
-0.00149372
-0.000271364
-0.000318034
-0.00102244
-0.000200487
-0.000359518
-0.00121117
-0.000165842
-0.000251568
-0.00232962
-0.00021106
-0.000384418
-0.00384472
-0.000230287
-0.000444824
-0.00423957
-0.000474417
-0.000334113
-0.0023428
-0.000614741
6.6233e-06
-0.0011706
-0.000504874
0.000308915
-0.00154256
-0.000587649
0.000168761
-0.00136356
-0.000582707
0.000154159
-0.000399033
-0.000528959
0.000222101
0.000606925
-0.000498239
3.3826e-05
0.000479867
-0.000437825
-0.000106692
0.000299161
-0.000410899
-5.00208e-05
0.00027524
-0.000394662
-0.000152718
-0.000532332
-0.000374812
-0.000283165
-0.00111855
-0.000333266
-0.000338845
-0.00162098
-0.000281916
-0.000255545
-0.000131178
-0.000249928
-2.60649e-05
0.000195769
-0.000322735
-1.21003e-05
5.35856e-05
-0.000327546
0.000275424
-0.00169603
-0.000326327
0.000187177
-0.000952002
-0.000334817
0.000294787
-0.000335279
-0.00028589
0.000295545
0.000769677
-0.000299467
0.000217494
0.00109605
-0.000288549
2.12972e-05
0.00130111
-0.000242714
-1.25724e-06
0.00106939
-0.000234404
-6.83368e-05
0.000660761
-0.000236959
-0.000128455
0.000731491
-0.000223772
-0.000159527
0.000555126
-0.000180728
-0.00016218
0.000433246
-0.000153159
-0.000102863
0.000456905
-0.000194689
-2.57333e-05
0.000156925
-0.000272115
0.000118895
-0.000323433
-0.000304657
9.96429e-05
-0.000846823
-0.000112535
0.000101268
-0.000731329
-0.000110419
0.000169694
-0.000314951
-0.000107826
0.000183243
0.000206397
-9.81006e-05
0.000159987
0.00123456
-8.13436e-05
6.51351e-05
0.00239832
-7.25639e-05
1.64593e-05
0.00189416
-7.04554e-05
-2.13535e-05
0.00166531
-6.60643e-05
-4.75927e-05
0.00175193
-6.65306e-05
-5.13929e-05
0.00158939
-6.387e-05
-6.542e-05
0.000960854
-6.32129e-05
-5.41258e-05
0.000918615
-8.57289e-05
-3.23972e-06
0.000139174
-0.000114591
6.5002e-05
-0.000147997
-0.000110751
6.54857e-05
-0.00106748
-8.53314e-05
-0.000155961
-0.00463437
0.00410272
-0.00050656
-0.00465354
0.00402753
-0.000473035
-0.00464071
0.00395433
-0.000603781
-0.00498464
0.00405362
-0.000491983
-0.00490259
0.00399273
-0.000384759
-0.00488663
0.00392344
-0.000851089
-0.00536631
0.00434187
-0.00047136
-0.00519328
0.00385222
-0.00026934
-0.00494844
0.00385345
-0.000116149
-0.005127
0.00383486
-0.000839612
-0.00541628
0.00420058
-0.00089712
-0.00524621
0.00411343
-0.000283949
-0.00535312
0.00362634
1.57313e-05
-0.00506785
0.00361686
-0.000731536
-0.00553511
0.00393933
-0.000778919
-0.00566179
0.00395181
-0.000587333
-0.00553656
0.00381618
-0.000335163
-0.00549397
0.00337985
-0.000251861
-0.00520088
0.0031922
-0.000829207
-0.00590691
0.00384272
-0.000681527
-0.00592577
0.00378162
-0.000812196
-0.00578118
0.00360157
-0.000608482
-0.00551497
0.00350839
-0.000455756
-0.00542855
0.00302905
-0.000336538
-0.00540776
0.00290228
-0.000731895
-0.00647469
0.00370735
-0.000802506
-0.0063884
0.00350406
-0.000889981
-0.00627915
0.00334551
-0.000673376
-0.00606641
0.00327026
-0.000966276
-0.00581958
0.00312544
-0.000621038
-0.0058703
0.00280831
-0.000362837
-0.00552475
0.0028366
-0.000959281
-0.00731718
0.0034047
-0.000841997
-0.00682928
0.00314678
-0.00118544
-0.00624899
0.00303856
-0.000892203
-0.00592584
0.00292224
-0.00070925
-0.00571593
0.00290246
-0.000557705
-0.00572339
0.00293453
-0.000526078
-0.00562458
0.00261685
-0.00101066
-0.00720695
0.00303631
-0.00117903
-0.00688517
0.00288458
-0.00128158
-0.00630433
0.00270889
-0.00131342
-0.00628633
0.00261589
-0.00107822
-0.00645668
0.00248623
-0.000809808
-0.00674142
0.00250645
-0.000549851
-0.00629945
0.00243276
-0.000579401
-0.00618942
0.00203659
-0.000781334
-0.00622087
0.00172437
-0.00121628
-0.00632875
0.00188891
-0.00163883
-0.0060665
0.00213359
-0.00137525
-0.00681248
0.0021023
-0.00127744
-0.00668037
0.00222924
-0.000726157
-0.00715317
0.00217092
-0.000737189
-0.00673668
0.00227244
-0.000762141
-0.0060994
0.00211802
-3.49835e-05
-0.00655256
0.00179089
-0.000499999
-0.00358048
0.000881528
-0.00102025
-0.0036068
0.00100386
-0.00129256
-0.00510997
0.0012799
-0.00133429
-0.00561563
0.00150816
-0.00109645
-0.00637472
0.00162703
-0.000952037
-0.00685293
0.00167662
-0.000726543
-0.00665345
0.00177788
-0.000689412
-0.00599836
0.00172233
-0.000403802
-0.00658891
0.00154273
-3.6502e-05
-0.0064517
0.00150153
0.000158932
-0.00196857
0.000123396
-0.000584761
-0.00228837
0.000508845
-0.00101635
-0.00325601
0.000851394
-0.00102536
-0.00320868
0.00114496
-0.00101862
-0.00513109
0.00126399
-0.000826484
-0.00559121
0.00142387
-0.000619054
-0.00491117
0.00132538
-0.000824264
-0.00469963
0.00125349
-0.000543201
-0.00469248
0.0012133
-0.000238515
-0.00460447
0.00115762
0.000182582
-0.00547784
0.000958048
0.000545452
-0.00279215
-0.000581046
-4.33145e-05
-0.0026042
-0.000162989
-0.000379692
-0.00242344
0.000174452
-0.000368151
-0.00355084
0.000310122
-0.000571839
-0.00423197
0.000559215
-0.000463926
-0.00366387
0.000789507
-0.000410979
-0.00281018
0.000800125
-0.000465092
-0.00274347
0.00071963
-0.000377948
-0.00382886
0.000509408
-7.95999e-05
-0.00434124
-6.92242e-05
0.000182821
-0.00410077
-0.000472826
6.10314e-05
-0.00240366
-0.00050869
0.00052153
-0.0025294
-0.000758369
0.000142444
-0.00239244
-0.000666522
-2.73536e-05
-0.00151888
-0.000564371
-4.15536e-06
-0.00183692
-0.000508006
-0.000252819
-0.00128831
-0.000330714
-0.000274045
-0.000861027
-0.000265424
-0.000233143
-0.00101292
-0.000215614
-0.000316524
-0.00210449
-0.000227173
-0.000407366
-0.00364108
-0.000290491
-0.000530534
-0.00387604
-0.000402126