/*--------------------------------*- C++ -*----------------------------------*\
  =========                 |
  \\      /  F ield         | OpenFOAM: The Open Source CFD Toolbox
   \\    /   O peration     | Website:  https://openfoam.org
    \\  /    A nd           | Version:  7
     \\/     M anipulation  |
\*---------------------------------------------------------------------------*/
FoamFile
{
    version     2.0;
    format      ascii;
    class       volVectorField;
    location    "9";
    object      U_0;
}
// * * * * * * * * * * * * * * * * * * * * * * * * * * * * * * * * * * * * * //

dimensions      [0 1 -1 0 0 0 0];

internalField   nonuniform List<vector> 
18780
(
(-0.0151666 -0.491224 -2.00586)
(0.413532 -0.596009 -1.62714)
(-0.0221959 -0.498526 -2.06354)
(-0.0928931 -0.552852 -2.24393)
(0.978363 -0.155443 -2.15728)
(0.363807 -0.636189 -1.66825)
(0.283149 -0.442673 -2.08972)
(-0.029637 -0.507948 -2.12675)
(-0.0979555 -0.549937 -2.23595)
(-0.68268 -0.928102 -2.21602)
(1.14095 0.00540561 -1.47266)
(0.867829 -0.566271 -2.13491)
(0.892237 -0.0844729 -2.48245)
(0.362789 -0.637848 -1.77414)
(0.252486 -0.449911 -2.13077)
(-0.216713 -0.508488 -2.2803)
(-0.0277929 -0.512771 -2.19105)
(-0.108771 -0.570082 -2.21932)
(-0.701511 -0.937897 -2.24625)
(-0.921984 -0.820569 -2.17658)
(1.58282 0.606688 -0.0333139)
(1.03848 -0.212817 -1.61677)
(1.33987 0.0544574 -1.35351)
(0.785457 -0.397845 -2.15623)
(0.906929 -0.156974 -2.45162)
(0.681595 -0.104008 -2.4565)
(0.320401 -0.646708 -1.88067)
(0.208563 -0.41613 -2.16622)
(-0.255568 -0.527121 -2.29712)
(-0.599773 -0.427103 -2.39918)
(-0.0332544 -0.511967 -2.25067)
(-0.11776 -0.555137 -2.20393)
(-0.710125 -0.928697 -2.26801)
(-0.922247 -0.813349 -2.169)
(-1.28564 -0.60438 -1.85837)
(2.14712 1.07354 2.27424)
(1.49156 0.42826 -0.240268)
(1.84538 0.536974 0.394089)
(0.953264 -0.20782 -1.62538)
(1.34121 0.102373 -1.28213)
(1.506 0.233523 -0.992442)
(0.769855 -0.416417 -2.14755)
(0.63079 -0.568914 -2.4664)
(0.645812 -0.130561 -2.42468)
(0.218356 0.22577 -2.1895)
(0.283185 -0.678983 -1.96255)
(0.187574 -0.399888 -2.19841)
(-0.319424 -0.614358 -2.2868)
(-0.59661 -0.438623 -2.41695)
(-0.618776 -0.148805 -2.19383)
(-0.0320291 -0.508113 -2.30531)
(-0.122125 -0.531479 -2.1904)
(-0.712997 -0.909814 -2.2584)
(-0.928806 -0.823406 -2.16354)
(-1.2812 -0.548717 -1.8652)
(-1.39393 -0.0864903 -1.49202)
(3.10816 1.80807 3.00002)
(1.96655 1.1061 2.16451)
(2.49957 1.47674 2.36633)
(1.3233 0.250241 -0.3552)
(1.70668 0.411085 0.371664)
(1.75578 0.742347 0.67399)
(0.845405 -0.247998 -1.67879)
(1.24825 -0.0637971 -1.36189)
(1.53764 0.197299 -0.938603)
(1.68648 1.03052 0.129857)
(0.714876 -0.640291 -2.13787)
(0.871706 0.0154353 -2.43881)
(0.636897 -0.200276 -2.35597)
(0.142585 0.116502 -2.13499)
(0.407747 0.269859 -1.89781)
(0.288475 -0.67566 -2.05595)
(0.155758 -0.351168 -2.2146)
(-0.378743 -0.72621 -2.26155)
(-0.667984 -0.465956 -2.41935)
(-0.675143 -0.227996 -2.1908)
(-0.565781 0.131054 -1.77553)
(-0.0324417 -0.503833 -2.35675)
(-0.119954 -0.504551 -2.17829)
(-0.712731 -0.901533 -2.21633)
(-0.931381 -0.86194 -2.15091)
(-1.26851 -0.549677 -1.88236)
(-1.39357 -0.0497744 -1.49805)
(-0.916061 0.228814 -1.60497)
(3.60833 1.27321 3.20325)
(3.13176 1.65047 2.97604)
(3.14331 1.60986 3.07191)
(1.85306 1.18034 1.88386)
(2.28892 1.38587 2.30948)
(2.62247 1.67662 2.34585)
(1.17852 0.0351127 -0.512499)
(1.59031 0.451598 0.245088)
(1.683 0.631972 0.594521)
(1.82345 2.23444 1.79744)
(0.915408 -0.171039 -1.63368)
(1.27346 -0.176561 -1.31876)
(1.5521 0.0966841 -0.887603)
(1.50818 0.966565 0.051203)
(1.60464 0.861004 -0.348178)
(0.330721 -0.690603 -2.21344)
(0.586286 -0.529255 -2.43229)
(0.488087 -0.482504 -2.31663)
(0.0350268 0.0430622 -2.08225)
(0.360002 0.248661 -1.81071)
(0.270314 0.503962 -1.60281)
(0.261958 -0.620906 -2.16387)
(0.114717 -0.369098 -2.21405)
(-0.441251 -0.838707 -2.2411)
(-0.724756 -0.568683 -2.40386)
(-0.695976 -0.300045 -2.19035)
(-0.566307 0.166329 -1.78576)
(-0.514702 0.369385 -1.60719)
(-0.0283957 -0.49231 -2.4069)
(-0.111438 -0.477379 -2.17318)
(-0.712824 -0.903861 -2.1681)
(-0.932239 -0.862264 -2.16409)
(-1.27934 -0.602422 -1.88328)
(-1.40987 -0.0490008 -1.50129)
(-0.932741 0.224939 -1.60741)
(-0.729579 0.463782 -1.42091)
(3.44241 0.928521 3.06163)
(3.62736 1.23929 3.21706)
(3.37552 1.49258 2.9394)
(2.92091 1.31576 3.06585)
(3.13557 1.44519 3.06024)
(3.1177 1.29413 3.08042)
(1.79432 0.820421 1.53993)
(2.16938 1.12719 2.17227)
(2.57217 1.49034 2.32378)
(3.03075 1.01933 2.31853)
(1.00372 -0.249501 -0.743885)
(1.49845 0.482558 -0.334974)
(1.6603 0.638718 0.638444)
(2.06943 1.88475 1.65982)
(2.41421 1.10994 2.45063)
(0.728755 -0.449373 -1.72297)
(1.12945 -0.358817 -1.40498)
(1.47179 -0.0253366 -0.971547)
(1.35001 0.730567 -0.223992)
(1.46886 0.783938 -0.375254)
(1.10668 0.725856 -0.41168)
(0.791626 -0.322094 -2.21442)
(0.689985 -0.318027 -2.3786)
(0.461967 -0.424681 -2.31744)
(-0.0434434 0.0634222 -2.05678)
(0.292968 0.197663 -1.79134)
(0.254332 0.46118 -1.56816)
(-0.0677317 0.0852996 -1.64188)
(0.259183 -0.615875 -2.24958)
(0.0681868 -0.494867 -2.1794)
(-0.509914 -0.921676 -2.22917)
(-0.787546 -0.650638 -2.38775)
(-0.725743 -0.347443 -2.19394)
(-0.565824 0.216411 -1.79215)
(-0.498505 0.385253 -1.60657)
(-0.232567 0.411835 -1.53962)
(-0.0155746 -0.461783 -2.45357)
(-0.0993275 -0.46163 -2.17191)
(-0.721274 -0.908291 -2.15614)
(-0.938407 -0.865224 -2.18047)
(-1.29181 -0.68324 -1.87807)
(-1.40841 -0.0499335 -1.50362)
(-0.933284 0.230184 -1.61017)
(-0.721953 0.470181 -1.42098)
(-0.696221 0.59047 -1.33294)
(2.65933 1.03558 3.16825)
(2.97252 1.28455 3.10171)
(3.31992 1.30099 3.25666)
(3.10387 1.08557 3.23547)
(3.64698 1.26158 3.10944)
(3.49601 1.38951 2.94393)
(3.29715 1.32127 3.02708)
(2.93156 0.63205 2.89565)
(2.99512 1.30408 3.00625)
(3.27473 1.13411 2.87022)
(3.12332 1.47322 3.01644)
(1.56395 0.481419 1.23402)
(2.13367 1.05714 1.92012)
(2.42787 1.18702 2.28869)
(3.10512 0.574197 2.30534)
(3.0953 1.42726 2.43315)
(0.96492 -0.197155 -0.66636)
(1.42962 0.314395 0.144912)
(1.68074 0.628482 0.656157)
(2.31852 1.13013 1.41286)
(2.44442 0.925138 2.49684)
(2.61106 1.1841 2.10575)
(0.769146 -0.426519 -1.80072)
(1.12218 -0.276183 -1.40504)
(1.43232 -0.114598 -1.03775)
(1.28234 0.445544 -0.529135)
(1.39408 0.739285 -0.390688)
(1.10309 0.677941 -0.461475)
(1.39452 0.303379 -0.525927)
(0.286868 -0.816864 -2.29728)
(0.539293 -0.496821 -2.38612)
(0.319291 -0.594378 -2.35632)
(-0.143135 -0.048029 -2.12298)
(0.194817 0.114572 -1.78854)
(0.224704 0.435311 -1.58263)
(-0.059185 0.0300985 -1.67915)
(0.316657 0.335371 -1.51559)
(0.243949 -0.665159 -2.32481)
(-0.0290165 -0.693688 -2.16954)
(-0.575852 -1.01169 -2.20751)
(-0.800285 -0.624843 -2.42284)
(-0.772998 -0.364864 -2.19636)
(-0.57768 0.201457 -1.80047)
(-0.49323 0.402887 -1.60015)
(-0.222526 0.396183 -1.56011)
(-0.204965 0.637882 -1.39414)
(0.0150393 -0.410383 -2.49255)
(-0.100153 -0.486528 -2.18154)
(-0.734932 -0.948609 -2.16015)
(-0.942767 -0.880336 -2.20072)
(-1.2888 -0.724939 -1.89873)
(-1.4169 -0.0924031 -1.49866)
(-0.92598 0.230931 -1.60811)
(-0.715953 0.47208 -1.4199)
(-0.728712 0.560247 -1.34347)
(-0.643229 0.589475 -1.37755)
(2.53031 1.12626 3.12599)
(2.74171 1.02162 3.21833)
(2.71031 1.04036 3.14844)
(3.15179 1.17269 3.08867)
(2.97144 1.04463 3.23283)
(3.42523 0.876136 3.33457)
(3.2062 1.13936 3.27481)
(2.95862 1.20943 3.16625)
(3.56173 0.96114 3.18715)
(3.45447 0.991325 3.09175)
(3.46797 1.10615 2.98603)
(3.28182 1.29116 3.08844)
(2.79477 0.679601 2.58279)
(2.90787 1.25144 2.89791)
(3.26899 0.964599 2.79707)
(3.11028 1.32605 2.99056)
(3.25928 1.1554 3.0863)
(1.35141 0.0304954 0.930111)
(2.00074 0.870258 1.67758)
(2.32949 0.887093 2.12813)
(3.01237 0.76731 2.19849)
(3.15255 1.29502 2.37373)
(3.16396 1.2164 2.58404)
(0.919652 -0.29599 -0.653491)
(1.32212 0.221175 -0.337641)
(1.69207 0.487019 0.587913)
(2.35707 0.223436 1.29423)
(2.33236 0.321921 2.56761)
(1.94209 -0.288311 2.92129)
(2.22821 0.640079 2.29831)
(0.618451 -0.677076 -2.00402)
(0.999613 -0.481999 -1.55921)
(1.11692 -0.442425 -1.26406)
(1.21741 -0.0149029 -1.08499)
(1.32413 0.779764 -0.293684)
(1.16199 0.675251 -0.365064)
(1.30648 0.293118 -0.390864)
(1.52868 0.287884 -0.0874128)
(0.456506 -0.680864 -2.36946)
(0.505329 -0.591248 -2.3981)
(0.29977 -0.599653 -2.36152)
(-0.265467 -0.196511 -2.23156)
(0.0965744 0.066492 -1.7685)
(0.167293 0.359724 -1.56054)
(-0.0626051 -0.0213997 -1.68017)
(0.353858 0.257763 -1.52828)
(0.670939 0.465673 -1.45887)
(0.189255 -0.787449 -2.37651)
(-0.0400558 -0.680058 -2.23857)
(-0.640676 -1.07484 -2.18974)
(-0.969843 -0.834388 -2.3009)
(-0.823289 -0.413872 -2.19694)
(-0.580144 0.240629 -1.80688)
(-0.459286 0.384627 -1.60843)
(-0.206281 0.397956 -1.57998)
(-0.211051 0.641589 -1.43157)
(-0.163822 0.611021 -1.29433)
(0.0758355 -0.347609 -2.52585)
(-0.131791 -0.548617 -2.20791)
(-0.744396 -0.964496 -2.20399)
(-0.953728 -0.913388 -2.21584)
(-1.28652 -0.685388 -1.94626)
(-1.43614 -0.0624603 -1.49129)
(-0.93357 0.231662 -1.60982)
(-0.708548 0.469597 -1.42414)
(-0.673847 0.600556 -1.36615)
(-0.656999 0.595366 -1.37899)
(-0.356305 0.51142 -1.3302)
(2.57496 0.903276 2.9852)
(2.74525 0.818766 3.19065)
(2.59591 0.758619 3.15071)
(2.85849 0.892533 3.22282)
(2.80314 0.967739 3.13891)
(2.7178 0.835072 3.22072)
(3.33729 0.782696 3.26051)
(2.96361 0.929366 3.22613)
(2.84828 0.99402 3.21396)
(3.41137 0.694932 3.39837)
(3.3361 1.22454 3.21663)
(3.05697 0.854328 3.23207)
(2.97744 1.15437 3.18304)
(3.57935 0.678702 3.26567)
(3.44317 0.948189 3.06612)
(3.52091 0.942376 3.01714)
(3.33519 1.09996 3.1303)
(3.22638 1.39641 3.02278)
(2.66873 0.610159 2.25742)
(2.83619 1.21053 2.75747)
(3.26029 0.869044 2.64284)
(3.08009 1.33495 2.97181)
(3.27001 1.105 3.08174)
(3.36491 1.10969 3.0117)
(1.23913 -0.114755 0.531829)
(1.8022 0.631041 1.52468)
(2.26081 0.630178 1.93611)
(2.89533 0.838833 2.23105)
(3.12158 1.19261 2.37467)
(3.08659 1.08156 2.681)
(2.67589 1.29909 2.92548)
(0.704887 -0.753694 -0.903135)
(1.20417 -0.0809024 -0.265933)
(1.64619 0.350186 0.568483)
(2.22287 -0.335765 1.20913)
(2.30862 0.660386 2.33808)
(2.42669 0.895133 2.15034)
(2.18302 1.01849 2.17131)
(2.40613 1.12584 1.89211)
(0.641269 -0.805985 -2.10501)
(0.999278 -0.545184 -1.61351)
(1.09234 -0.272922 -1.18304)
(1.15441 -0.216422 -1.29304)
(1.25223 0.845636 -0.158668)
(1.03321 0.644806 -0.171029)
(1.19569 0.296504 -0.273927)
(1.50724 0.223291 -0.169318)
(2.24325 0.462137 -0.677376)
(0.21503 -0.990155 -2.33981)
(0.312267 -0.738988 -2.45981)
(0.183239 -0.621505 -2.36151)
(-0.322074 -0.315256 -2.28815)
(-0.0364744 -0.0357389 -1.78025)
(0.10374 0.262211 -1.59856)
(-0.077487 -0.0162078 -1.70507)
(0.33518 0.199683 -1.54147)
(0.69182 0.375868 -1.56656)
(0.881643 0.547703 -1.16209)
(0.0850409 -0.978565 -2.39945)
(-0.0822684 -0.761894 -2.29601)
(-0.73667 -1.17335 -2.13645)
(-0.98845 -0.855228 -2.27375)
(-0.862328 -0.429047 -2.20782)
(-0.597616 0.201554 -1.82119)
(-0.462134 0.343001 -1.6166)
(-0.185887 0.414437 -1.598)
(-0.188432 0.615678 -1.48209)
(-0.149518 0.593592 -1.32356)
(-0.103853 0.548422 -1.11609)
(0.091895 -0.346235 -2.55119)
(-0.172648 -0.62058 -2.24499)
(-0.723127 -0.931806 -2.27355)
(-0.96851 -0.946035 -2.23209)
(-1.29589 -0.710905 -1.95336)
(-1.40118 0.0228918 -1.52963)
(-0.942487 0.247758 -1.60895)
(-0.704766 0.484874 -1.4263)
(-0.749232 0.554177 -1.35783)
(-0.6332 0.628059 -1.38747)
(-0.34898 0.524816 -1.32426)
(-0.347316 0.409033 -1.38663)
(2.22603 0.963724 2.78647)
(2.49203 0.730841 2.9249)
(2.72837 0.587063 3.02091)
(2.52824 0.617664 3.02886)
(2.83477 0.521394 3.28593)
(2.60326 0.854061 3.15886)
(2.54623 0.785043 3.12574)
(3.10017 0.310694 3.32994)
(2.91637 0.870783 3.15528)
(2.76407 0.725761 3.19616)
(2.69259 0.913585 3.06299)
(3.3841 0.356881 3.33473)
(3.09778 0.707756 3.26901)
(2.85017 0.869881 3.23828)
(2.78863 1.17432 2.96061)
(3.61743 0.268785 3.48022)
(3.40708 0.964782 3.22149)
(3.15083 0.789291 3.25045)
(3.00972 0.846328 3.19086)
(3.17199 0.652983 3.06778)
(3.50155 0.218018 3.20062)
(3.47333 0.768938 3.12491)
(3.50682 0.817004 2.99979)
(3.33251 0.995712 3.15935)
(3.29091 1.17074 3.01925)
(3.26304 1.13699 2.92657)
(2.44441 0.230669 2.07738)
(2.69005 1.04405 2.5707)
(3.21998 0.65924 2.56714)
(3.17087 1.33053 2.87921)
(3.34483 0.884742 3.08292)
(3.39317 0.760742 3.06758)
(3.26244 0.94172 2.91629)
(1.02958 -0.359294 0.245584)
(1.76246 0.49764 1.21282)
(2.23923 0.524547 1.74153)
(2.88324 0.888328 2.22486)
(3.15058 0.970837 2.45788)
(3.05203 0.855588 2.84522)
(2.89888 1.04364 2.73658)
(2.82449 1.18835 2.47836)
(0.62567 -0.988047 -1.13616)
(1.11547 -0.228763 -0.388233)
(1.55522 0.175641 0.700812)
(2.1344 -0.16355 1.03611)
(2.53409 0.831546 1.84766)
(2.16251 0.769272 2.47011)
(2.12125 0.87052 2.28255)
(1.31183 -0.486861 2.86923)
(2.32236 0.326308 1.68765)
(0.518923 -0.976251 -2.24877)
(0.834509 -0.737955 -1.77072)
(1.03571 -0.275106 -1.13736)
(1.13066 -0.294636 -1.29783)
(1.16994 0.602581 -0.359728)
(0.938304 0.59024 -0.209645)
(1.06073 0.227502 -0.344851)
(1.4605 0.175432 -0.150999)
(2.15064 0.66787 -0.622888)
(2.49465 0.80795 -0.818746)
(0.237461 -0.919316 -2.40433)
(0.361436 -0.707524 -2.51304)
(-0.0245245 -0.660232 -2.34769)
(-0.559527 -0.45566 -2.33171)
(-0.164526 -0.1602 -1.81499)
(0.0331524 0.222224 -1.61065)
(-0.0971616 -0.0292247 -1.7428)
(0.363534 0.194465 -1.52744)
(0.683472 0.374902 -1.62174)
(0.907296 0.554156 -1.22758)
(0.128946 0.597704 -1.06933)
(-0.026846 -1.15657 -2.39673)
(-0.0825413 -0.776473 -2.3932)
(-0.82925 -1.2628 -2.07397)
(-1.0296 -0.885779 -2.22649)
(-0.884906 -0.427515 -2.21457)
(-0.617407 0.186657 -1.83264)
(-0.432564 0.326887 -1.62792)
(-0.194704 0.409651 -1.62398)
(-0.159574 0.585178 -1.54879)
(-0.148319 0.560311 -1.35888)
(-0.0985157 0.552611 -1.11484)
(-0.13156 0.382869 -1.10303)
(0.0663658 -0.410241 -2.56026)
(-0.220594 -0.688547 -2.29522)
(-0.700404 -0.905608 -2.33336)
(-0.983737 -0.979692 -2.25195)
(-1.31165 -0.74344 -1.94777)
(-1.43468 0.00579823 -1.51514)
(-0.935508 0.248916 -1.60628)
(-0.702806 0.475166 -1.42676)
(-0.683994 0.608477 -1.37306)
(-0.667468 0.581917 -1.40399)
(-0.356115 0.530676 -1.32287)
(-0.35208 0.415935 -1.38638)
(-0.0340488 -0.121915 -2.36508)
(2.28893 0.553494 2.7016)
(2.356 0.55104 2.87562)
(2.27006 0.661424 2.81306)
(2.56658 0.638768 2.92877)
(2.40894 0.744212 2.88755)
(2.76492 0.463035 3.0466)
(2.60361 0.714217 3.05611)
(2.43621 0.248588 3.10124)
(2.8592 0.274453 3.3168)
(2.71733 0.600164 3.22917)
(2.6566 0.766825 3.08435)
(2.50144 0.648364 3.04233)
(3.20726 0.16223 3.44362)
(2.97137 0.816104 3.19841)
(2.8022 0.704193 3.17387)
(2.75505 0.815735 3.09645)
(2.76553 0.603136 2.85445)
(3.4369 -0.296698 3.44755)
(3.20538 0.483236 3.35312)
(2.86734 0.857893 3.22264)
(2.87191 0.906336 3.04844)
(2.72143 0.740467 3.0196)
(3.62462 0.143945 3.62153)
(3.46164 0.623181 3.29957)
(3.1711 0.924754 3.318)
(3.06287 0.754026 3.16642)
(3.19672 0.529302 3.06767)
(3.11068 0.588961 2.92123)
(3.35509 -0.0608415 3.01991)
(3.46246 0.42146 3.12214)
(3.4798 0.810943 2.98439)
(3.52946 0.531781 3.06268)
(3.5405 0.482568 3.01305)
(3.3812 0.859514 2.89175)
(2.96985 1.14796 3.02927)
(2.28882 0.0319585 1.74059)
(2.51875 0.710948 2.36317)
(3.06971 0.69406 2.51716)
(3.25093 1.17931 2.85649)
(3.43189 0.811503 2.87318)
(3.42798 0.757111 3.05221)
(3.2131 0.784029 2.99887)
(3.14027 0.941841 2.9348)
(0.824422 -0.664258 -0.0472401)
(1.59292 0.404171 1.17526)
(2.26542 0.593568 1.50196)
(2.22698 1.11962 2.58912)
(3.21211 0.658961 2.5501)
(3.07435 0.837589 2.75919)
(2.78173 1.21911 2.70756)
(2.68905 0.76466 2.62863)
(2.45069 0.290221 2.61421)
(0.474393 -1.32212 -1.46225)
(1.07426 -0.34394 -0.467672)
(1.44873 -0.0337024 0.545367)
(1.98536 -0.610709 0.811875)
(2.20035 -0.288553 1.98992)
(2.29386 0.686616 2.14979)
(1.69295 0.479518 2.51331)
(2.14081 1.0176 1.59943)
(2.13481 0.0628631 1.81726)
(2.40328 0.653892 1.74085)
(0.497994 -1.16837 -2.2813)
(0.787147 -0.870059 -1.90167)
(0.841893 -0.414605 -1.35864)
(1.01526 -0.449356 -1.41918)
(1.09458 0.377222 -0.647294)
(0.791173 0.461539 -0.349273)
(0.90765 0.260942 -0.426631)
(1.29173 0.218624 -0.509846)
(2.05109 0.527173 -0.738157)
(2.31974 0.550195 -1.26445)
(1.27007 0.841241 -1.4995)
(0.146926 -0.995072 -2.42957)
(0.217898 -0.821031 -2.54801)
(-0.129663 -0.703956 -2.33638)
(-0.545356 -0.550606 -2.32112)
(-0.311497 -0.30823 -1.88688)
(-0.00977088 0.215093 -1.61533)
(-0.107654 0.000322822 -1.74808)
(0.347106 0.160965 -1.54814)
(0.698325 0.381874 -1.62304)
(0.932069 0.58492 -1.24085)
(0.122807 0.624385 -1.08789)
(-0.1093 0.438437 -1.06745)
(-0.13961 -1.26908 -2.35242)
(-0.0851734 -0.766368 -2.52267)
(-0.882762 -1.35891 -2.02155)
(-1.08367 -0.90756 -2.16928)
(-0.945625 -0.47841 -2.19587)
(-0.586421 0.244442 -1.85248)
(-0.461086 0.313421 -1.62152)
(-0.207915 0.371932 -1.65058)
(-0.192396 0.557744 -1.60246)
(-0.144159 0.511574 -1.40488)
(-0.10972 0.565029 -1.10692)
(-0.148314 0.38995 -1.08977)
(-0.0105574 0.0822118 -1.63958)
(0.010657 -0.492351 -2.55144)
(-0.264648 -0.74277 -2.356)
(-0.713445 -0.940834 -2.38486)
(-1.00833 -1.02294 -2.25905)
(-1.32101 -0.74794 -1.95424)
(-1.44603 -0.0111066 -1.51737)
(-0.935852 0.249345 -1.60399)
(-0.694791 0.487027 -1.43231)
(-0.721573 0.567991 -1.3739)
(-0.610022 0.652123 -1.41031)
(-0.363212 0.536458 -1.32553)
(-0.368454 0.439545 -1.3754)
(-0.0539432 -0.0898136 -2.33143)
(0.0330582 -0.463981 -2.66923)
(2.05978 0.668607 2.59044)
(2.24399 0.611111 2.69586)
(2.26316 0.722686 2.6274)
(2.4465 0.506768 2.92624)
(2.29662 0.537237 2.82927)
(2.28847 0.583376 2.82307)
(2.59067 0.565773 2.93412)
(2.47897 0.619174 2.98339)
(2.44871 0.464947 2.88355)
(2.69087 0.200437 3.08542)
(2.71213 0.425273 3.08483)
(2.59885 0.486491 3.02493)
(2.44497 0.519715 2.92339)
(2.92365 -0.0683718 3.33841)
(2.81285 0.231283 3.30388)
(2.70371 0.556482 3.09304)
(2.62599 0.496868 3.08058)
(2.44869 0.581295 2.87814)
(3.16987 -0.190252 3.46983)
(3.17643 0.321989 3.26536)
(2.99189 0.43748 3.17367)
(2.78392 0.372354 3.14544)
(2.82511 0.802581 2.82206)
(2.77057 0.589324 2.86979)
(3.61464 -0.318688 3.56071)
(3.27307 0.150337 3.35932)
(3.03637 0.602632 3.25386)
(2.88809 0.647231 3.12144)
(2.72706 0.633453 3.02349)
(2.75625 0.583257 3.0443)
(3.68384 -0.359898 3.64511)
(3.56314 0.175182 3.50846)
(3.22623 0.885443 3.29078)
(3.23419 0.553865 3.15137)
(3.16356 0.457047 3.01991)
(3.36205 0.137266 2.85677)
(2.94671 0.601799 2.9481)
(3.33329 -0.539335 2.69082)
(3.35746 0.183091 2.88297)
(3.49137 0.552178 2.96688)
(3.58636 0.49439 3.00499)
(3.47035 0.821449 3.06248)
(3.43259 0.580587 2.87978)
(3.21681 0.78092 2.94859)
(3.04131 1.03062 2.95422)
(2.01043 -0.320863 1.50037)
(2.45586 0.516585 2.02766)
(3.02308 0.542296 2.27914)
(3.37613 0.648322 2.65602)
(3.36788 0.587534 2.79591)
(3.51293 0.566368 3.02997)
(3.30664 0.575392 2.81693)
(3.07863 0.457659 3.00171)
(3.3605 0.67545 2.49204)
(0.649548 -0.827558 -0.201545)
(1.46742 0.0372043 1.09101)
(2.14651 0.391812 1.39242)
(2.34474 0.247685 2.14809)
(2.98185 0.53193 2.45342)
(3.04378 0.632788 2.71841)
(2.69329 0.857186 2.65802)
(2.61558 0.397699 2.65859)
(2.54312 0.490651 2.28407)
(2.3615 -0.181282 2.70119)
(0.476786 -1.42061 -1.66605)
(0.920229 -0.757668 -0.729746)
(1.33113 -0.149394 0.44131)
(1.77524 -0.772692 0.736899)
(2.26033 -0.133298 1.49298)
(1.92095 0.0313201 2.18548)
(1.68063 0.59098 2.14914)
(1.52403 0.158465 2.0969)
(2.27637 0.303698 1.47711)
(2.2896 0.576925 1.55606)
(2.00436 0.0421826 -0.111925)
(0.329986 -1.38972 -2.3077)
(0.720979 -0.977395 -2.04893)
(0.70891 -0.49046 -1.52303)
(0.881389 -0.602341 -1.54013)
(0.981326 0.270429 -0.803217)
(0.710297 0.334501 -0.53272)
(0.757822 0.219487 -0.525462)
(1.26447 0.174946 -0.420728)
(2.03929 0.586193 -0.728255)
(2.21315 0.577002 -0.989745)
(1.21356 0.764244 -1.72349)
(0.547259 -0.140742 -1.87589)
(0.112101 -1.01748 -2.50154)
(0.230337 -0.822813 -2.56558)
(-0.160953 -0.643575 -2.37052)
(-0.695966 -0.55999 -2.2941)
(-0.474697 -0.417235 -1.92815)
(-0.0620467 0.17701 -1.68535)
(-0.142736 -0.00423938 -1.78464)
(0.33711 0.154031 -1.55118)
(0.673397 0.375267 -1.625)
(0.941499 0.632382 -1.19888)
(0.146928 0.664099 -1.10939)
(-0.0854749 0.420919 -1.05576)
(-0.0244821 0.141227 -1.55091)
(-0.359796 -1.4864 -2.1673)
(-0.207176 -0.882472 -2.57833)
(-0.919263 -1.32919 -2.06103)
(-1.12727 -0.824603 -2.16348)
(-0.968535 -0.49501 -2.17029)
(-0.685427 0.138442 -1.85188)
(-0.451495 0.293356 -1.62268)
(-0.19386 0.353976 -1.67971)
(-0.220411 0.529001 -1.65032)
(-0.161828 0.477438 -1.44578)
(-0.108719 0.560903 -1.11451)
(-0.165186 0.413793 -1.0571)
(-0.0472927 0.118709 -1.62533)
(0.155877 -0.637443 -2.22914)
(-0.103751 -0.632593 -2.51658)
(-0.300917 -0.786149 -2.41367)
(-0.776949 -1.03256 -2.41115)
(-1.02782 -1.04855 -2.27046)
(-1.31318 -0.733768 -1.98148)
(-1.44359 -0.015988 -1.52677)
(-0.945967 0.25192 -1.59538)
(-0.707043 0.476975 -1.43416)
(-0.668555 0.627653 -1.39072)
(-0.670188 0.605828 -1.41634)
(-0.354063 0.57891 -1.30958)
(-0.372701 0.458465 -1.36674)
(-0.0713169 -0.0558028 -2.28698)
(0.038649 -0.414132 -2.60655)
(0.510175 -0.501101 -2.06226)
(2.17904 0.353005 2.4492)
(2.17734 0.533985 2.56612)
(2.10877 0.583161 2.50111)
(2.38318 0.332759 2.72293)
(2.29476 0.479066 2.70867)
(2.2961 0.527657 2.60888)
(2.52175 0.412347 2.89211)
(2.45935 0.420384 2.83098)
(2.3243 0.339487 2.82137)
(2.38475 0.451237 2.75404)
(2.67913 0.352682 3.01034)
(2.53799 0.438866 2.96133)
(2.63942 0.173089 2.78142)
(2.42784 0.0945012 2.88753)
(2.71656 0.130598 3.07961)
(2.7488 0.256063 3.09677)
(2.69705 0.251301 3.05751)
(2.58884 0.369617 2.88159)
(2.44748 0.458383 2.82812)
(2.9521 -0.123758 3.31021)
(2.87396 -0.0155441 3.3362)
(2.84782 0.261856 3.05707)
(2.67677 0.440453 3.06725)
(2.56982 0.453078 2.85436)
(2.56736 0.473336 2.79899)
(3.14052 -0.572173 3.53726)
(3.20416 -0.0917977 3.42778)
(3.07751 0.174284 3.18846)
(2.95637 0.186697 3.10723)
(2.86143 0.683542 2.86836)
(2.79172 0.584727 2.86308)
(2.5807 0.454214 2.98305)
(3.56711 -0.523207 3.62663)
(3.42545 -0.295523 3.42902)
(3.13981 0.352106 3.26972)
(2.97351 0.177563 3.10703)
(2.78123 0.541482 3.06211)
(2.77259 0.496661 3.01686)
(2.70583 0.589475 3.12346)
(3.7065 -0.488637 3.64841)
(3.58331 0.0184943 3.62343)
(3.35617 0.292402 3.30233)
(3.27816 0.559087 3.15911)
(3.2571 0.508195 3.00516)
(3.29901 0.269648 2.94338)
(3.00896 0.317551 2.9886)
(2.9438 0.627649 2.64222)
(2.99937 -0.798558 2.46065)
(3.36919 -0.403519 2.54025)
(3.2728 0.443804 3.02083)
(3.61443 0.199921 2.80784)
(3.45818 0.441078 3.05785)
(3.58676 -0.0135583 2.90479)
(3.29959 0.51766 2.98686)
(3.03047 0.828011 2.96956)
(3.12974 0.108035 2.65397)
(1.83107 -0.419192 1.19279)
(2.26545 0.255916 1.83454)
(2.98212 0.379157 1.86865)
(3.16046 0.603887 2.49179)
(3.42198 0.28892 2.57198)
(3.49949 0.215235 2.85425)
(3.25211 0.0378575 2.80878)
(3.05176 0.414441 2.84924)
(3.23151 0.373382 2.59465)
(3.10159 0.192522 2.42257)
(0.438466 -1.0535 -0.380829)
(1.28174 -0.137931 1.00417)
(2.02204 0.25562 1.15727)
(1.95371 0.41651 2.20169)
(2.88562 0.216025 2.14545)
(3.05859 0.347289 2.58548)
(2.65039 0.259012 2.65695)
(2.56991 0.53355 2.28725)
(2.36675 0.550334 2.46287)
(2.26509 0.019746 2.4587)
(2.70851 -0.608136 2.18757)
(0.413021 -1.59155 -1.81222)
(0.857512 -0.945678 -0.829515)
(1.19389 -0.35873 0.328642)
(1.69521 -0.726737 0.656225)
(2.17633 -0.360839 1.12943)
(1.94255 -0.00990986 1.79223)
(1.67297 0.464828 1.8971)
(1.54489 0.099834 1.78283)
(1.86578 0.120408 1.94712)
(2.30618 0.523009 0.958304)
(2.07954 0.268113 -0.837117)
(1.2061 0.172336 -1.07018)
(0.201157 -1.58947 -2.29488)
(0.708247 -1.0281 -2.19771)
(0.567497 -0.563134 -1.67964)
(0.694482 -0.710484 -1.6885)
(0.874444 0.107726 -1.02778)
(0.601924 0.215884 -0.74418)
(0.639241 0.126119 -0.695427)
(1.23812 0.233131 -0.473831)
(2.04673 0.562782 -0.857708)
(2.09672 0.6631 -0.619224)
(1.14189 0.550636 -1.80605)
(0.572769 -0.341577 -1.93721)
(1.08722 -0.0436624 -1.34803)
(-0.0655919 -1.16359 -2.53935)
(0.0129932 -1.00801 -2.5494)
(-0.234338 -0.605069 -2.38816)
(-0.814685 -0.598266 -2.23731)
(-0.59305 -0.508828 -1.96591)
(-0.120466 0.145032 -1.72454)
(-0.159985 -0.0199891 -1.82052)
(0.324541 0.164386 -1.54585)
(0.664812 0.382411 -1.61007)
(0.939865 0.656796 -1.17809)
(0.161927 0.673709 -1.1223)
(-0.0556718 0.421557 -1.01941)
(-0.0207328 0.0917342 -1.57233)
(0.438625 -0.311774 -1.38829)
(-0.482052 -1.59686 -2.0016)
(-0.310049 -1.01866 -2.6278)
(-0.853274 -1.25479 -2.19334)
(-1.14085 -0.881075 -2.12526)
(-1.03441 -0.573227 -2.09399)
(-0.533772 0.286947 -1.92058)
(-0.449151 0.28361 -1.62512)
(-0.21985 0.337738 -1.70705)
(-0.203502 0.498448 -1.68797)
(-0.155781 0.462015 -1.47112)
(-0.102767 0.570795 -1.11692)
(-0.178555 0.438732 -1.03871)
(-0.0916325 0.162314 -1.6031)
(0.145345 -0.614219 -2.20254)
(-0.0899321 -0.589702 -2.38618)
(-0.183407 -0.715983 -2.4726)
(-0.344629 -0.834408 -2.44383)
(-0.859731 -1.12924 -2.41757)
(-1.05761 -1.07925 -2.29607)
(-1.30387 -0.724593 -1.99246)
(-1.43798 -0.0290984 -1.54314)
(-0.955734 0.241421 -1.59955)
(-0.704062 0.453467 -1.43472)
(-0.702466 0.626005 -1.41069)
(-0.598624 0.662823 -1.43053)
(-0.337807 0.589228 -1.30986)
(-0.381623 0.471934 -1.36048)
(-0.0867032 -0.0226911 -2.23915)
(0.0487702 -0.372153 -2.52931)
(0.519865 -0.487203 -2.03084)
(0.777264 -0.89456 -1.85032)
(1.98783 0.412379 2.3977)
(2.15276 0.349621 2.39518)
(2.08429 0.522349 2.39653)
(2.20464 0.432878 2.58654)
(2.22139 0.423037 2.52461)
(2.06664 0.511731 2.49151)
(2.43054 0.272764 2.76108)
(2.32643 0.228608 2.75637)
(2.28922 0.375859 2.7043)
(2.19354 0.35831 2.70154)
(2.6625 0.0314511 2.85951)
(2.53226 0.371088 2.86549)
(2.35913 0.313476 2.8187)
(2.38566 0.321769 2.77542)
(2.19876 0.342532 2.85244)
(2.59189 -0.127781 3.14819)
(2.57244 0.13595 3.05524)
(2.46966 0.233994 2.95224)
(2.45975 0.217934 2.90926)
(2.32064 0.263051 2.78872)
(2.77632 -0.135047 3.14086)
(2.76345 -0.0619831 3.10413)
(2.68167 0.240153 3.07581)
(2.70429 0.147011 2.91848)
(2.49435 0.338342 2.84844)
(2.52462 0.455807 2.66747)
(2.87598 -0.161284 3.28561)
(2.94893 -0.211843 3.31228)
(2.86222 0.0788069 3.17496)
(2.66036 0.149249 3.08442)
(2.67092 0.430048 2.91401)
(2.61297 0.484587 2.78077)
(2.64973 0.542329 2.65456)
(3.21911 -0.444437 3.56756)
(3.07763 -0.330913 3.52665)
(3.11933 0.00212266 3.24249)
(2.97411 0.197883 3.1936)
(2.75513 -0.036191 3.10041)
(2.80914 0.179288 2.9526)
(2.67754 0.447489 2.97102)
(2.561 0.179649 2.83175)
(3.62195 -0.920063 3.72988)
(3.4225 -0.461145 3.63438)
(3.17925 0.0371264 3.26006)
(3.00141 0.295988 3.15476)
(2.8651 0.318261 3.04991)
(2.82762 0.46059 3.02181)
(2.66412 0.399358 3.13004)
(2.76223 0.613421 2.87692)
(3.38923 -0.953068 3.49842)
(3.62262 -0.226567 3.67383)
(3.43067 0.342964 3.34916)
(3.306 0.398772 3.13063)
(3.34457 0.429898 3.02573)
(3.27211 0.266119 2.92307)
(3.11486 0.210781 2.99747)
(3.00444 0.35228 2.68541)
(2.82427 0.141573 2.63353)
(2.86567 -1.21227 1.9261)
(3.11993 -0.603607 2.33438)
(3.32379 -0.132702 2.71008)
(3.44077 -0.0181883 2.75313)
(3.44894 0.130941 2.94693)
(3.61891 0.249209 2.93556)
(3.33516 0.419334 2.94084)
(2.95337 0.453667 3.10774)
(3.14804 0.249555 2.73634)
(2.99662 0.0676644 2.67652)
(1.60367 -0.822596 0.739389)
(1.9913 0.0316057 1.6935)
(2.8308 0.16527 1.46868)
(3.11477 0.291758 2.12596)
(3.35647 0.239418 2.29814)
(3.46776 -0.211772 2.53544)
(3.42165 -0.149896 2.37686)
(2.94489 0.594806 2.72372)
(3.20608 0.257803 2.49359)
(3.14057 0.372524 2.20178)
(2.633 0.303842 2.78724)
(0.319321 -1.1925 -0.493362)
(1.14571 -0.271956 0.896806)
(1.83862 -0.0157765 0.944409)
(1.83955 0.214604 2.0828)
(2.7248 0.0345264 2.05602)
(2.84027 -0.229872 2.62982)
(2.33852 -0.327612 2.68444)
(2.2412 0.549486 2.34973)
(2.34896 0.426339 2.41345)
(2.08861 -0.727069 2.05056)
(2.49735 -1.01498 1.94981)
(2.76852 -0.225583 1.536)
(0.382427 -1.76483 -1.87217)
(0.906522 -1.03117 -0.873783)
(1.12999 -0.505732 0.081012)
(1.59506 -0.662124 0.528367)
(2.04518 -0.533879 0.704567)
(1.88146 -0.11834 1.55496)
(1.40199 0.0500018 1.82242)
(1.37471 0.169871 1.75241)
(2.00388 -0.0810822 1.52186)
(2.06515 0.533858 0.464782)
(1.90644 -0.141522 -1.29586)
(1.11783 5.13587e-05 -1.36823)
(1.62041 0.248178 -1.42089)
(0.106747 -1.73772 -2.28039)
(0.673548 -1.06113 -2.34962)
(0.447704 -0.62787 -1.81085)
(0.480092 -0.825257 -1.78278)
(0.596603 -0.124996 -1.48075)
(0.495526 0.127384 -0.874358)
(0.512217 0.00267612 -0.892018)
(1.14927 0.292049 -0.611419)
(1.93673 0.516185 -0.907262)
(1.98193 0.522768 -0.82354)
(1.10999 0.291211 -1.77063)
(0.622634 -0.431255 -1.84896)
(1.08966 -0.151209 -1.44613)
(0.937611 0.0707529 -1.36082)
(-0.174947 -1.21658 -2.59304)
(-0.164827 -1.16561 -2.55622)
(-0.520686 -0.781157 -2.31288)
(-0.980049 -0.741215 -2.1586)
(-0.739729 -0.579713 -1.96512)
(-0.145736 0.118266 -1.76586)
(-0.176618 -0.022824 -1.84293)
(0.298036 0.176221 -1.54362)
(0.634473 0.393774 -1.59109)
(0.909094 0.663774 -1.20607)
(0.202971 0.699517 -1.11338)
(-0.0139596 0.42509 -1.0049)
(-0.032682 0.11871 -1.5906)
(0.3986 -0.255613 -1.47038)
(0.299732 -0.457226 -1.36497)
(-0.489233 -1.58043 -1.9179)
(-0.422249 -1.12095 -2.66579)
(-0.946514 -1.34633 -2.21634)
(-1.18421 -0.875879 -2.10658)
(-1.06853 -0.60183 -2.05942)
(-0.771088 0.132318 -1.86905)
(-0.478916 0.242752 -1.62329)
(-0.234288 0.327101 -1.73945)
(-0.223459 0.493463 -1.71578)
(-0.16543 0.476496 -1.47851)
(-0.109891 0.551798 -1.13414)
(-0.19269 0.448581 -1.04894)
(-0.119068 0.206853 -1.57685)
(0.0832807 -0.570875 -2.17411)
(-0.0899712 -0.587621 -2.47474)
(0.279911 -0.921628 -2.06191)
(-0.273316 -0.801261 -2.41541)
(-0.395358 -0.883396 -2.44068)
(-0.949767 -1.21726 -2.39264)
(-1.09018 -1.11725 -2.33711)
(-1.29659 -0.726504 -2.00218)
(-1.44572 -0.00119017 -1.53993)
(-0.953914 0.280733 -1.60105)
(-0.703616 0.451584 -1.4346)
(-0.698985 0.611554 -1.41812)
(-0.655247 0.626937 -1.43921)
(-0.380156 0.532025 -1.3368)
(-0.395744 0.495011 -1.34922)
(-0.0996583 0.0075836 -2.19294)
(0.0594362 -0.339865 -2.4514)
(0.531389 -0.491814 -2.01903)
(0.785276 -0.945018 -1.82592)
(0.865731 -1.79495 -1.73572)
(1.8416 0.194631 2.2498)
(1.93706 0.424392 2.37578)
(1.93285 0.501627 2.31473)
(2.13577 0.294455 2.38437)
(2.09514 0.357273 2.38414)
(2.05956 0.497261 2.34379)
(2.15616 0.35297 2.66664)
(2.18848 0.326437 2.58319)
(2.19933 0.372478 2.50207)
(2.02474 0.49067 2.54621)
(2.34912 0.202822 2.74079)