/*--------------------------------*- C++ -*----------------------------------*\
  =========                 |
  \\      /  F ield         | OpenFOAM: The Open Source CFD Toolbox
   \\    /   O peration     | Website:  https://openfoam.org
    \\  /    A nd           | Version:  7
     \\/     M anipulation  |
\*---------------------------------------------------------------------------*/
FoamFile
{
    version     2.0;
    format      ascii;
    class       surfaceScalarField;
    location    "0.5";
    object      phi;
}
// * * * * * * * * * * * * * * * * * * * * * * * * * * * * * * * * * * * * * //

dimensions      [0 3 -1 0 0 0 0];

internalField   nonuniform List<scalar> 
54006
(
-5.53369e-07
6.3211e-06
-5.54157e-06
9.22883e-05
-1.26113e-06
8.01585e-06
-6.60221e-06
0.000282633
-5.10551e-07
9.26412e-05
-6.66278e-07
-4.61251e-06
0.000101552
-5.12791e-07
7.46822e-06
-6.65885e-06
9.19917e-05
-1.50781e-06
9.46811e-06
-7.89604e-06
0.000475946
-1.19198e-06
0.000283751
-1.44022e-06
-5.02869e-06
0.00031092
-2.55367e-07
8.70592e-06
-7.40047e-06
0.00028107
-4.70814e-07
9.23478e-05
-7.05787e-07
-3.63913e-06
0.000101208
-5.94572e-07
-5.73204e-06
0.00010122
-2.77287e-07
8.64772e-06
-7.74336e-06
9.13646e-05
-2.01731e-06
8.65013e-06
-6.71848e-06
0.000671658
-1.45342e-06
0.000477835
-1.53207e-06
-6.30091e-06
0.000523552
1.55838e-06
7.7952e-06
-6.4683e-06
0.000472806
-2.05602e-07
0.000282186
-1.4933e-06
-3.44109e-06
0.000309696
-3.04554e-07
-5.95722e-06
0.000309187
6.13816e-07
1.03104e-05
-8.97287e-06
0.000278841
-2.41996e-07
9.17096e-05
-7.23823e-07
-2.65505e-06
0.000100844
-6.28338e-07
-4.76196e-06
0.000100866
-3.18534e-07
-6.71457e-06
0.000100509
-1.81314e-07
8.93315e-06
-7.9354e-06
9.05482e-05
-1.87002e-06
2.94585e-06
-1.40232e-07
0.00087124
-1.82519e-06
0.000674447
-1.32901e-06
-5.28699e-06
0.00073888
3.92061e-06
7.61674e-06
-6.30316e-06
0.000667982
1.66973e-06
0.000474689
-1.5533e-06
-4.72599e-06
0.000521471
1.79289e-06
-5.12155e-06
0.000520108
3.3061e-06
8.43252e-06
-7.17146e-06
0.000468852
6.71378e-07
0.000279944
-1.53104e-06
-1.83583e-06
0.000308436
-3.54174e-07
-4.49952e-06
0.000307965
6.96587e-07
-7.53488e-06
0.000306734
1.05339e-06
1.06337e-05
-9.21889e-06
0.000276192
-1.47925e-07
9.0862e-05
-7.27316e-07
-1.67621e-06
0.000100425
-6.47029e-07
-3.77802e-06
0.000100508
-3.46512e-07
-5.63497e-06
0.000100133
-2.17413e-07
-6.79677e-06
9.95873e-05
2.04886e-08
9.95378e-06
-9.02633e-06
8.96003e-05
-3.17636e-06
-1.06957e-06
8.52809e-06
0.00107589
-1.99511e-06
0.000874691
1.71359e-06
4.89953e-07
0.000958101
5.43412e-06
6.04618e-06
-2.51279e-06
0.000866193
4.16977e-06
0.000670698
-1.28925e-06
-3.87138e-06
0.000735983
4.67591e-06
-5.06326e-06
0.000734757
7.98301e-06
7.99387e-06
-6.9726e-06
0.000662284
3.42115e-06
0.00047072
-1.49062e-06
-3.26867e-06
0.00051934
1.72768e-06
-3.77374e-06
0.000518041
3.74509e-06
-5.88077e-06
0.000515769
4.34634e-06
9.35885e-06
-7.99978e-06
0.0004642
1.11817e-06
0.000277277
-1.56375e-06
-1.98336e-07
0.000307213
-3.88908e-07
-3.04124e-06
0.00030672
6.37214e-07
-6.07872e-06
0.000305525
1.16138e-06
-7.68664e-06
0.000303823
1.85027e-06
1.13847e-05
-1.00503e-05
0.000273028
5.98966e-08
8.98849e-05
-7.39833e-07
-6.89115e-07
0.000100032
-6.44602e-07
-2.81268e-06
0.000100104
-3.67397e-07
-4.53225e-06
9.97722e-05
-2.40028e-07
-5.60334e-06
9.91794e-05
-1.06057e-08
-7.9576e-06
9.85301e-05
1.71607e-07
1.20793e-05
-1.11463e-05
8.84957e-05
-5.87766e-07
3.88182e-06
-4.19079e-07
0.00128946
-1.27037e-05
0.00108023
1.29695e-05
4.29412e-06
0.00118308
3.45251e-06
-2.92648e-06
1.08114e-05
0.00106999
6.14404e-06
0.000869506
2.50277e-06
8.89717e-07
0.000954047
8.56378e-06
-6.88735e-07
0.000952389
1.28258e-05
6.3686e-06
-4.23056e-06
0.000859212
8.06985e-06
0.000664959
-1.40829e-06
-2.2717e-06
0.000733092
4.44293e-06
-3.6571e-06
0.000731862
8.72026e-06
-5.64558e-06
0.000728455
1.06761e-05
7.89659e-06
-6.80987e-06
0.000654868
4.45736e-06
0.000466053
-1.56291e-06
-1.77324e-06
0.000517261
1.78659e-06
-2.52974e-06
0.00051592
3.66432e-06
-4.58652e-06
0.00051372
4.81413e-06
-6.51257e-06
0.000510629
5.76868e-06
1.12264e-05
-9.93518e-06
0.000458991
1.93574e-06
0.000274084
-1.56402e-06
1.41699e-06
0.000305986
-4.17148e-07
-1.5642e-06
0.000305509
5.62149e-07
-4.58184e-06
0.000304294
1.10844e-06
-6.13323e-06
0.000302623
1.95354e-06
-8.53215e-06
0.000300341
2.50358e-06
1.32738e-05
-1.19833e-05
0.000269405
2.15396e-07
8.87748e-05
-8.79373e-07
4.76132e-07
9.98874e-05
-6.63791e-07
-1.81993e-06
9.9703e-05
-3.7552e-07
-3.44066e-06
9.93882e-05
-2.60392e-07
-4.38449e-06
9.88137e-05
-3.84299e-08
-6.8402e-06
9.81004e-05
1.39168e-07
-1.00726e-05
9.73175e-05
2.05112e-07
1.36593e-05
-1.25958e-05
8.7227e-05
1.41688e-05
1.12353e-05
-1.94144e-05
0.00151015
-1.05113e-05
0.00129551
1.55914e-05
3.10914e-06
0.00141785
1.12997e-05
-4.68018e-07
1.83379e-06
0.00128025
-1.20996e-06
0.00107397
1.32164e-05
1.99567e-06
0.00117897
1.8407e-05
8.04844e-06
0.001176
1.70226e-05
2.28106e-06
3.04912e-06
0.00106046
1.31199e-05
0.000862556
5.16886e-06
-1.05263e-06
0.000950105
8.28457e-06
9.96423e-07
0.00094852
1.50278e-05
-2.89049e-06
0.000944741
1.91988e-05
7.04064e-06
-5.47633e-06
0.000849125
1.07222e-05
0.000657501
-1.74372e-06
-4.36571e-07
0.000730212
4.426e-06
-2.16168e-06
0.000728957
8.5475e-06
-4.19801e-06
0.000725531
1.14932e-05
-5.31545e-06
0.000720281
1.27314e-05
1.05658e-05
-9.47523e-06
0.000646814
5.91773e-06
0.000460826
-1.43164e-06
-3.94423e-07
0.000515216
1.70019e-06
-1.24358e-06
0.000513857
3.60966e-06
-3.32492e-06
0.000511611
4.75782e-06
-5.04121e-06
0.000508599
6.18948e-06
-8.37549e-06
0.000504833
7.2111e-06
1.30874e-05
-1.18906e-05
0.000453086
2.60298e-06
0.000270447
-1.5665e-06
2.90297e-06
0.000304773
-4.1741e-07
-1.16105e-07
0.000304291
5.24519e-07
-3.06371e-06
0.000303091
1.03145e-06
-4.53989e-06
0.000301408
1.87814e-06
-6.97965e-06
0.000299154
2.61287e-06
-1.0474e-05
0.000296358
2.78266e-06
1.48224e-05
-1.34481e-05
0.000265453
2.54215e-07
8.75249e-05
-8.83047e-07
1.62539e-06
9.95127e-05
-7.36174e-07
-6.55859e-07
9.94595e-05
-3.96942e-07
-2.33571e-06
9.8995e-05
-2.78023e-07
-3.178e-06
9.84597e-05
-6.5189e-08
-5.69023e-06
9.77289e-05
1.0068e-07
-8.95935e-06
9.68865e-05
1.69828e-07
-1.13875e-05
9.59406e-05
1.58808e-07
1.50089e-05
-1.38151e-05
8.58744e-05
2.58767e-05
1.39708e-05
-1.15052e-05
0.00172049
1.63333e-05
0.00151508
1.64845e-05
-1.26296e-05
0.00165691
3.50696e-05
1.19511e-05
-1.53649e-05
0.00148979
5.72334e-06
0.00128584
1.90145e-05
1.66584e-06
0.00141196
2.35528e-05
7.39275e-06
0.00140714
2.99728e-05
2.7147e-06
-3.32929e-06
0.00126791
1.59309e-05
0.00106434
9.8734e-06
5.16738e-06
0.00117475
1.87481e-05
5.04593e-06
0.0011715
2.50482e-05
3.44512e-06
0.00116558
3.05415e-05
8.32899e-06
-6.30806e-06
0.0010471
1.90698e-05
0.000852472
4.05923e-06
-1.97939e-06
0.000946141
1.04054e-05
4.49783e-07
0.000944672
1.45354e-05
-1.26432e-06
0.000940906
2.11949e-05
-4.2441e-06
0.000933807
2.22819e-05
1.0681e-05
-9.15858e-06
0.000838052
1.28876e-05
0.000649432
-1.12912e-06
8.96926e-07
0.000727397
3.85976e-06
-2.05755e-07
0.000726097
8.56522e-06
-2.8214e-06
0.000722625
1.14384e-05
-3.86794e-06
0.000717403
1.36615e-05
-8.08902e-06
0.000711423
1.47637e-05
1.31038e-05
-1.19518e-05
0.00063811
7.36476e-06
0.0004549
-1.43083e-06
9.90122e-07
0.000513179
1.79031e-06
-7.33234e-08
0.000511838
3.53039e-06
-2.04785e-06
0.000509574
4.64096e-06
-3.57778e-06
0.000506538
6.09207e-06
-6.81739e-06
0.000502827
7.71241e-06
-1.04274e-05
0.000498271
8.11861e-06
1.45536e-05
-1.32272e-05
0.000446424
2.89476e-06
0.000266491
-1.54784e-06
4.36823e-06
0.000303567
-4.27161e-07
1.2599e-06
0.000303088
5.29698e-07
-1.58867e-06
0.00030189
1.00112e-06
-2.94326e-06
0.000300215
1.79931e-06
-5.39293e-06
0.000297957
2.51632e-06
-8.91862e-06
0.000295183
2.90619e-06
-1.18444e-05
0.000292019
2.77554e-06
1.63956e-05
-1.49152e-05
0.000261356
2.13995e-07
8.61896e-05
-7.49849e-07
2.63245e-06
9.88649e-05
-7.42019e-07
5.22539e-07
9.90763e-05
-4.23771e-07
-1.11782e-06
9.86654e-05
-2.92738e-07
-1.97097e-06
9.80807e-05
-9.60368e-08
-4.5221e-06
9.73877e-05
6.49108e-08
-7.80548e-06
9.65102e-05
1.22697e-07
-1.0156e-05
9.55323e-05
1.15099e-07
-1.24623e-05
9.44732e-05
5.87391e-08
1.68144e-05
-1.54935e-05
8.44948e-05
4.30545e-05
9.49958e-06
-1.03403e-05
0.00196146
3.18594e-05
0.00172629
2.5946e-05
-9.57255e-06
0.00189166
4.88736e-05
1.01181e-05
-6.80538e-06
0.00170337
3.70588e-05
0.00149496
1.84595e-05
-5.08343e-06
0.00165172
3.56691e-05
-8.02223e-06
0.00163745
5.03137e-05
9.15841e-06
-1.00544e-05
0.00147035
2.82042e-05
0.00127339
2.5055e-05
-8.23586e-06
0.00140505
2.42305e-05
1.24253e-05
0.00140144
3.48928e-05
1.46999e-06
0.0013925
4.78191e-05
7.74327e-06
-8.04282e-06
0.00125094
3.0741e-05
0.00105105
1.00521e-05
6.4956e-06
0.00116969
1.78028e-05
5.42118e-06
0.00116698
2.50918e-05
3.22514e-06
0.00116117
3.395e-05
-4.69756e-06
0.00115121
3.66965e-05
1.19753e-05
-1.15459e-05
0.00103226
2.24833e-05
0.000841447
5.79749e-06
-3.66447e-06
0.000942171
9.10544e-06
4.00384e-07
0.000940945
1.61754e-05
-1.22818e-06
0.000937026
2.09173e-05
-2.86859e-06
0.000930052
2.43294e-05
-7.7065e-06
0.000921687
2.49878e-05
1.27657e-05
-1.13969e-05
0.000826459
1.50127e-05
0.000640686
-1.173e-06
2.2517e-06
0.000724573
4.45718e-06
1.31399e-06
0.000723211
8.3947e-06
-1.32727e-06
0.000719738
1.14006e-05
-2.5384e-06
0.000714536
1.35007e-05
-6.63913e-06
0.000708545
1.59635e-05
-1.06739e-05
0.000701894
1.60995e-05
1.49772e-05
-1.37095e-05
0.000628861
8.28869e-06
0.000448207
-1.3696e-06
2.32258e-06
0.000511149
1.77525e-06
1.09198e-06
0.000509811
3.58166e-06
-8.50661e-07
0.000507589
4.5755e-06
-2.10029e-06
0.000504523
5.94621e-06
-5.28618e-06
0.00050086
7.55829e-06
-8.93102e-06
0.000496289
8.75125e-06
-1.17461e-05
0.000490944
8.43077e-06
1.60922e-05
-1.46379e-05
0.000439315
2.89968e-06
0.000262384
-1.52166e-06
5.93548e-06
0.000302354
-4.3199e-07
2.63725e-06
0.000301879
5.19382e-07
-1.36116e-07
0.000300692
9.96793e-07
-1.35606e-06
0.000299013
1.74933e-06
-3.79881e-06
0.000296775
2.43985e-06
-7.32576e-06
0.000293989
2.7906e-06
-1.01914e-05
0.000290862
2.90486e-06
-1.32086e-05
0.000287523
2.67932e-06
1.83889e-05
-1.68018e-05
0.000257148
1.19812e-07
8.48034e-05
-7.41574e-07
3.64133e-06
9.84595e-05
-6.86484e-07
1.55205e-06
9.85218e-05
-4.30016e-07
1.12962e-07
9.82755e-05
-2.94681e-07
-7.108e-07
9.76999e-05
-1.12605e-07
-3.34139e-06
9.70126e-05
2.73281e-08
-6.61591e-06
9.61708e-05
8.28085e-08
-8.88358e-06
9.51549e-05
6.21531e-08
-1.10978e-05
9.41057e-05
-1.34949e-09
-1.39887e-05
9.29703e-05
-9.2912e-08
1.86797e-05
-1.72286e-05
8.31365e-05
5.77813e-05
-1.04312e-06
9.32034e-06
0.00220453
5.52338e-05
0.00197316
4.01675e-05
-7.60488e-06
0.00215668
7.47173e-05
6.42434e-06
-7.47427e-06
0.00193666
5.19502e-05
0.00170904
2.22962e-05
-5.23687e-06
0.00188602
5.38451e-05
-7.2309e-06
0.00187391
6.68461e-05
9.40329e-06
-6.48616e-06
0.00168392
5.10357e-05
0.00147605
4.31447e-05
-1.58713e-05
0.00164747
3.50027e-05
6.95668e-07
0.00163223
5.14625e-05
-6.7662e-06
0.00161759
6.46242e-05
8.99591e-06
-7.51214e-06
0.00145206
4.83244e-05
0.00125612
3.89978e-06
-1.08985e-06
0.00140132
4.01454e-05
2.70342e-06
0.00139243
3.34113e-05
7.87289e-06
0.00138672
4.94425e-05
-4.55661e-06
0.00137352
5.52481e-05
1.00958e-05
-9.30262e-06
0.00123159
3.72312e-05
0.00103637
1.4082e-05
6.25439e-06
0.0011653
1.58762e-05
6.48593e-06
0.00116186
2.57621e-05
3.95796e-06
0.00115666
3.35236e-05
-2.8928e-06
0.00114676
3.88514e-05
-9.9828e-06
0.00113513
4.0155e-05
1.26515e-05
-1.2436e-05
0.00101687
2.52942e-05
0.000829806
5.95607e-06
-5.45756e-06
0.000938262
9.87288e-06
-1.07323e-08
0.000937166
1.55232e-05
-7.43683e-07
0.000933332
2.16015e-05
-2.30204e-06
0.000926258
2.41336e-05
-6.27165e-06
0.000917984
2.73326e-05
-1.00316e-05
0.000908953
2.70876e-05
1.43996e-05
-1.31413e-05
0.000814213
1.64157e-05
0.000631404
-1.36182e-06
3.78721e-06
0.000721738
4.42294e-06
2.88045e-06
0.000720359
8.46596e-06
1.218e-07
0.000716877
1.17334e-05
-1.66975e-06
0.000711712
1.33031e-05
-5.17742e-06
0.000705717
1.56924e-05
-9.31808e-06
0.000699055
1.75536e-05
-1.23645e-05
0.000691747
1.68882e-05
1.62957e-05
-1.49212e-05
0.000619029
8.6349e-06
0.000441067
-1.35594e-06
3.67889e-06
0.0005091
1.79546e-06
2.23661e-06
0.000507777
3.55509e-06
3.46224e-07
0.000505579
4.58523e-06
-6.2914e-07
0.000502529
5.83676e-06
-3.71934e-06
0.000498868
7.43862e-06
-7.45799e-06
0.000494388
8.54e-06
-1.01964e-05
0.000488989
9.1297e-06
-1.31277e-05
0.000483209
8.47573e-06
1.78905e-05
-1.63736e-05
0.000432001
2.81456e-06
0.000258172
-1.48129e-06
7.46189e-06
0.000301157
-4.23003e-07
4.05624e-06
0.000300672
4.72168e-07
1.34428e-06
0.000299497
9.99002e-07
2.2612e-07
0.000297817
1.70286e-06
-2.18204e-06
0.000295581
2.36479e-06
-5.71507e-06
0.000292827
2.7128e-06
-8.50662e-06
0.000289675
2.77815e-06
-1.1457e-05
0.000286394
2.79647e-06
-1.49903e-05
0.000282914
2.3819e-06
2.05348e-05
-1.88334e-05
0.000252972
-2.88724e-08
8.34241e-05
-7.3201e-07
4.63682e-06
9.80648e-05
-6.79309e-07
2.56065e-06
9.81302e-05
-4.1537e-07
1.24087e-06
9.78093e-05
-2.95935e-07
5.52431e-07
9.73082e-05
-1.16001e-07
-2.12796e-06
9.66025e-05
6.48657e-09
-5.40399e-06
9.57942e-05
4.47011e-08
-7.57148e-06
9.4814e-05
1.594e-08
-9.69488e-06
9.37361e-05
-6.21491e-08
-1.24596e-05
9.26387e-05
-1.75312e-07
-1.55684e-05
9.14853e-05
-2.22325e-07
2.07246e-05
-1.91511e-05
8.17853e-05
9.98191e-05
3.44396e-08
-2.57184e-06
0.00245105
6.74643e-05
0.0022138
6.2617e-05
1.36228e-05
0.00242239
0.00010821
5.47305e-07
3.16278e-06
0.00216733
7.95643e-05
0.001946
3.31843e-05
-2.2412e-06
0.00214888
8.00743e-05
-6.70095e-06
0.00212968
9.44884e-05
6.13434e-06
-5.32598e-06
0.00190821
6.83721e-05
0.00169025
3.58725e-05
1.07137e-05
0.0018732
5.31486e-05
-7.34637e-06
0.00186799
7.39887e-05
-8.17831e-06
0.00185308
8.48746e-05
1.13479e-05
-1.01198e-05
0.00166244
6.51463e-05
0.00145768
7.14719e-06
-1.50654e-05
0.00163024
6.22645e-05
-3.13661e-06
0.00162919
4.92529e-05
-2.05172e-06
0.00161167
6.80755e-05
-6.73517e-06
0.00159818
7.3909e-05
1.12619e-05
-9.23059e-06
0.00143136
5.59313e-05
0.00123661
7.47629e-06
7.78702e-06
0.00139486
2.56246e-05
3.37e-06
0.0013909
4.62384e-05
1.96408e-06
0.00137787
4.79512e-05
-4.54927e-09
0.00136774
5.76613e-05
-7.35213e-06
0.00135276
5.85671e-05
1.11899e-05
-9.50998e-06
0.0012115
4.0637e-05
0.00102102
1.38826e-05
6.57002e-06
0.00116042
1.76859e-05
6.76744e-06
0.0011572
2.50278e-05
4.36616e-06
0.00115195
3.42482e-05
-1.09317e-06
0.00114221
3.81312e-05
-7.87128e-06
0.00113065
4.2894e-05
-1.11907e-05
0.00111832
4.23246e-05
1.4e-05
-1.33899e-05
0.00100103
2.73417e-05
0.000817513
6.14761e-06
-7.84284e-06
0.000934382
9.81143e-06
-5.87838e-07
0.00093345
1.54836e-05
-2.00306e-07
0.000929605
2.16145e-05
-1.45851e-06
0.000922607
2.40354e-05
-5.00294e-06
0.000914257
2.70064e-05
-8.70222e-06
0.000905341
2.95578e-05
-1.16877e-05
0.000895495
2.85786e-05
1.61226e-05
-1.48541e-05
0.000801254
1.72046e-05
0.000621539
-1.94461e-06
5.88696e-06
0.000719019
4.47164e-06
4.42578e-06
0.000717516
8.44324e-06
1.5525e-06
0.00071404
1.12297e-05
-2.93508e-07
0.000708857
1.35324e-05
-4.06603e-06
0.000702905
1.5459e-05
-7.9118e-06
0.000696291
1.72123e-05
-1.09045e-05
0.000688923
1.84949e-05
-1.3452e-05
0.000680913
1.71487e-05
1.78753e-05
-1.64789e-05
0.00060896
8.69858e-06
0.000433725
-1.20203e-06
4.93491e-06
0.000507085
1.79633e-06
3.36804e-06
0.00050575
3.49067e-06
1.53778e-06
0.000503567
4.57041e-06
8.42335e-07
0.000500536
5.77301e-06
-2.10613e-06
0.000496846
7.29433e-06
-5.93469e-06
0.000492415
8.42745e-06
-8.62617e-06
0.000487103
8.89524e-06
-1.15406e-05
0.000481285
9.15961e-06
-1.47854e-05
0.000475258
7.95398e-06
1.97704e-05
-1.81424e-05
0.000424801
2.53051e-06
0.000253999
-1.44387e-06
8.95098e-06
0.000299943
-3.96958e-07
5.44574e-06
0.000299485
4.72782e-07
2.82635e-06
0.000298302
9.61639e-07
1.82004e-06
0.000296645
1.68545e-06
-5.51172e-07
0.000294384
2.2903e-06
-4.07657e-06
0.000291658
2.62314e-06
-6.78476e-06
0.000288527
2.68505e-06
-9.67937e-06
0.000285228
2.65696e-06
-1.31303e-05
0.000281815
2.45832e-06
-1.68797e-05
0.000278326
2.14093e-06
2.28033e-05
-2.09689e-05
0.000248775
-1.50708e-07
8.20716e-05
-7.23921e-07
5.62373e-06
9.76655e-05
-6.70305e-07
3.55259e-06
9.77432e-05
-4.12114e-07
2.36182e-06
9.74214e-05
-2.9213e-07
1.76122e-06
9.68926e-05
-1.19782e-07
-9.13801e-07
9.62139e-05
-9.23268e-09
-4.17318e-06
9.53809e-05
1.90895e-08
-6.23729e-06
9.4441e-05
-2.70158e-08
-8.23962e-06
9.33857e-05
-1.15531e-07
-1.08972e-05
9.22891e-05
-2.43411e-07
-1.38587e-05
9.11724e-05
-3.25246e-07
-1.73403e-05
8.99992e-05
-3.33136e-07
2.30046e-05
-2.12854e-05
8.03992e-05
0.000145566
1.45597e-05
-1.56173e-05
0.00272685
0.000109287
0.00245953
0.000105311
-2.77442e-06
0.00269429
0.000157869
7.18619e-06
-1.26743e-05
0.00240688
0.000110588
0.00217653
5.90449e-05
1.51213e-05
0.00241189
0.00011927
5.02284e-06
0.00238133
0.000130848
5.38583e-06
-3.6878e-06
0.00212927
9.63297e-05
0.00191691
4.05502e-05
8.11054e-06
0.00213626
7.92375e-05
-5.66987e-06
0.00212176
0.000104561
-4.49842e-06
0.00209828
0.000118496
9.65598e-06
-9.5217e-06
0.00187446
8.56889e-05
0.00166907
2.02918e-05
6.98599e-06
0.00186748
6.21472e-05
6.71294e-06
0.00185926
7.37981e-05
-1.1284e-05
0.00184655
9.32185e-05
-1.14336e-05
0.00182925
0.000101587
1.27627e-05
-1.26738e-05
0.00163467
7.44468e-05
0.00143692
6.91429e-06
-9.93293e-06
0.00162062
4.17169e-05
-6.32869e-06
0.00161734
6.81656e-05
-2.66684e-06
0.00160788
6.68353e-05
-6.4525e-06
0.0015925
8.04988e-05
-9.16267e-06
0.00157528
7.89463e-05
1.15754e-05
-9.94836e-06
0.00140936
5.90808e-05
0.00121645
9.91841e-06
1.54614e-05
0.00138915
2.31153e-05
8.05363e-06
0.00138474
4.14845e-05
3.64688e-07
0.00137604
5.45375e-05
-2.42583e-06
0.00136
5.73428e-05
-5.74831e-06
0.00134693
6.29799e-05
-8.32933e-06
0.00133149
6.04429e-05
1.42259e-05
-1.22394e-05
0.00119139
4.26497e-05
0.00100505
1.81253e-05
3.63967e-06
0.00115575
1.75958e-05
7.00346e-06
0.0011524
2.46764e-05
5.25817e-06
0.00114712
3.43985e-05
4.80464e-07
0.00113759
3.82441e-05
-6.00598e-06
0.00112614
4.2079e-05
-9.47465e-06
0.00111386
4.57213e-05
-1.21521e-05
0.00110092
4.38013e-05
1.51464e-05
-1.41986e-05
0.000984856
2.90607e-05
0.0008045
6.14506e-06
-1.20081e-05
0.000930615
9.91571e-06
-1.48022e-06
0.000929831
1.53076e-05
4.62805e-07
0.000925923
2.07609e-05
-2.44716e-07
0.00091886
2.42706e-05
-3.67889e-06
0.000910545
2.67326e-05
-7.39084e-06
0.000901672
2.9187e-05
-1.02564e-05
0.000891935
3.11903e-05
-1.32967e-05
0.000881242
2.9141e-05
1.75998e-05
-1.63407e-05
0.000788002
1.74932e-05
0.000611427
-1.84156e-06
7.99935e-06
0.000716201
4.55291e-06
5.99325e-06
0.000714695
8.48992e-06
2.85015e-06
0.000711219
1.11463e-05
1.13195e-06
0.000706039
1.29925e-05
-2.53425e-06
0.000700105
1.51762e-05
-6.42187e-06
0.000693533
1.69546e-05
-9.32492e-06
0.000686184
1.81179e-05
-1.18847e-05
0.000678133
1.87601e-05
-1.48987e-05
0.000669732
1.65042e-05
2.01024e-05
-1.86892e-05
0.000598997
8.18509e-06
0.000426499
-1.15323e-06
6.16551e-06
0.00050506
1.87389e-06
4.4237e-06
0.000503759
3.48427e-06
2.70281e-06
0.000501573
4.50107e-06
2.28951e-06
0.00049858
5.73171e-06
-4.93037e-07
0.000494876
7.17509e-06
-4.35175e-06
0.000490378
8.26673e-06
-7.00602e-06
0.000485152
8.75613e-06
-9.89085e-06
0.000479382
8.91679e-06
-1.31265e-05
0.000473367
8.57384e-06
-1.63991e-05
0.000467399
7.54801e-06
2.17532e-05
-2.0001e-05
0.000417642
2.30304e-06
0.000249797
-1.39444e-06
1.03769e-05
0.000298709
-3.70105e-07
6.80246e-06
0.000298286
4.92184e-07
4.27556e-06
0.000297131
9.65649e-07
3.40242e-06
0.000295462
1.65534e-06
1.06855e-06
0.00029325
2.23617e-06
-2.41448e-06
0.000290477
2.54344e-06
-5.03747e-06
0.000287387
2.59046e-06
-7.84334e-06
0.000284073
2.54494e-06
-1.12341e-05
0.000280671
2.30648e-06
-1.4881e-05
0.000277266
2.17253e-06
-1.88519e-05
0.000273711
1.97447e-06
2.5313e-05
-2.32962e-05
0.00024445
-2.51943e-07
8.0696e-05
-8.30953e-07
6.76644e-06
9.74805e-05
-6.61486e-07
4.53522e-06
9.73443e-05
-4.07379e-07
3.48018e-06
9.70322e-05
-2.85523e-07
2.96479e-06
9.65033e-05
-1.23306e-07
2.75741e-07
9.58264e-05
-2.14956e-08
-2.9357e-06
9.49979e-05
-1.19592e-09
-4.90461e-06
9.40494e-05
-5.99281e-08
-6.75501e-06
9.30163e-05
-1.63146e-07
-9.28071e-06
9.19324e-05
-3.01472e-07
-1.21109e-05
9.08428e-05
-4.01978e-07
-1.54565e-05
8.96907e-05
-4.54294e-07
-1.93008e-05
8.8468e-05
-4.63681e-07
2.55129e-05
-2.36224e-05
7.89724e-05
0.000230685
2.22136e-05
-4.8479e-05
0.00298193
0.000159259
0.00272724
0.000142954
-1.20732e-05
0.00298346
0.000218478
7.6165e-06
-7.66229e-06
0.00266629
0.000161734
0.00241415
9.7919e-05
-1.40431e-06
0.00267772
0.000171365
-1.52157e-05
0.00264474
0.000176995
4.91522e-06
-8.50567e-06
0.00236432
0.000130251
0.00213868
7.78425e-05
9.50356e-06
0.00240242
0.000120161
5.07939e-06
0.00237091
0.000142422
-1.2271e-06
0.00234101
0.00015621
1.15884e-05
-1.15487e-05
0.00209151
0.000119471
0.00188286
3.48877e-05
1.08432e-05
0.00212624
8.28152e-05
-2.55006e-07
0.00211017
0.00010704
-5.6662e-06
0.00208969
0.000129404
-8.81614e-06
0.00206139
0.000135841
1.15685e-05
-1.11353e-05
0.00183977
0.00010238
0.00164134
2.01869e-05
3.30347e-06
0.00185976
5.49197e-05
9.71222e-06
0.00185128
7.93225e-05
-3.22278e-06
0.00184004
9.31152e-05
-1.3532e-05
0.00182237
0.000111954
-1.31561e-05
0.00179827
0.000108453
1.24939e-05
-1.28682e-05
0.00160554
7.94467e-05
0.00141489
1.15768e-05
-5.13842e-06
0.00161263
3.47172e-05
-5.98056e-06
0.00160867
6.13025e-05
-3.67608e-06
0.00159854
7.47744e-05
-5.95293e-06
0.00158714
8.09719e-05
-1.02154e-05
0.00156993
8.74877e-05
-9.8522e-06
0.00155068
8.29601e-05
1.41957e-05
-1.28544e-05
0.0013855
6.10937e-05
0.00119628
1.67844e-05
2.20538e-05
0.0013841
2.37217e-05
1.24648e-05
0.00137861
3.70578e-05
2.58843e-06
0.00137014
5.37417e-05
-3.00735e-06
0.00135728
5.916e-05
-6.99473e-06
0.00134033
6.3384e-05
-8.47655e-06
0.00132577
6.60255e-05
-1.09661e-05
0.00130992
6.21465e-05
1.47533e-05
-1.30793e-05
0.00117138
4.42344e-05
0.000988732
1.48925e-05
3.7598e-06
0.00115131
1.89841e-05
5.915e-06
0.00114777
2.4355e-05
6.13302e-06
0.00114248
3.34247e-05
1.99916e-06
0.00113294
3.81199e-05
-3.87728e-06
0.00112161
4.19641e-05
-7.93412e-06
0.00110937
4.48894e-05
-1.05288e-05
0.00109653
4.76224e-05
-1.28427e-05
0.00108313
4.40154e-05
1.6794e-05
-1.55658e-05
0.000968754
2.95942e-05
0.000791185
6.05825e-06
-1.62602e-05
0.000927111
1.03811e-05
-3.10915e-06
0.000926416
1.53215e-05
1.20781e-06
0.000922254
2.04062e-05
1.24248e-06
0.000915176
2.32426e-05
-2.00332e-06
0.000906934
2.62087e-05
-5.76372e-06
0.000897885
2.88711e-05
-8.8334e-06
0.000888333
3.08096e-05
-1.17535e-05
0.0008777
3.17837e-05
-1.47735e-05
0.000866651
2.82681e-05
1.93326e-05
-1.80188e-05
0.000774925
1.68669e-05
0.000601427
-1.44795e-06
9.88356e-06
0.000713552
4.70997e-06
7.53506e-06
0.000711824
8.52954e-06
4.11559e-06
0.000708384
1.11981e-05
2.40727e-06
0.000703247
1.28175e-05
-8.94661e-07
0.000697313
1.50966e-05
-5.00208e-06
0.000690764
1.64245e-05
-7.43191e-06
0.000683482
1.78475e-05
-1.02248e-05
0.000675433
1.83523e-05
-1.32291e-05
0.000667027
1.79351e-05
-1.6932e-05
0.000658613
1.60593e-05
2.1931e-05
-2.04139e-05
0.000588968
7.79328e-06
0.000419313
-9.82031e-07
7.26969e-06
0.000503038
1.90649e-06
5.45517e-06
0.000501752
3.50376e-06
3.84694e-06
0.000499603
4.50244e-06
3.71449e-06
0.000496611
5.66794e-06
1.10137e-06
0.000492973
7.08681e-06
-2.75601e-06
0.00048843
8.13046e-06
-5.34996e-06
0.000483135
8.57031e-06
-8.17491e-06
0.000477456
8.734e-06
-1.13793e-05
0.000471446
8.31751e-06
-1.45791e-05
0.000465535
8.10117e-06
-1.81104e-05
0.00045958
7.37236e-06
2.41978e-05
-2.23358e-05
0.000410382
2.1523e-06
0.000245453
-1.31745e-06
1.16162e-05
0.000297529
-3.36827e-07
8.10375e-06
0.000297083
4.85967e-07
5.71846e-06
0.00029595
9.87286e-07
4.96762e-06
0.000294293
1.65114e-06
2.6679e-06
0.000292088
2.20759e-06
-7.56314e-07
0.000289363
2.47177e-06
-3.26795e-06
0.000286234
2.50755e-06
-5.97484e-06
0.000282951
2.44093e-06
-9.27378e-06
0.000279509
2.17659e-06
-1.28315e-05
0.000276144
2.00842e-06
-1.66891e-05
0.000272693
1.96565e-06
-2.09686e-05
0.000268964
1.8023e-06
2.80393e-05
-2.58437e-05
0.000239989
-3.73244e-07
7.92687e-05
-6.92018e-07
7.70796e-06
9.68857e-05
-7.00173e-07
5.65745e-06
9.70585e-05
-3.98982e-07
4.58848e-06
9.6635e-05
-2.78143e-07
4.15392e-06
9.61212e-05
-1.20029e-07
1.45751e-06
9.54416e-05
-3.12499e-08
-1.70035e-06
9.46223e-05
-1.8781e-08
-3.56007e-06
9.36721e-05
-8.54422e-08
-5.26566e-06
9.26455e-05
-2.0254e-07
-7.62772e-06
9.15658e-05
-3.51164e-07
-1.03194e-05
9.0492e-05
-4.66919e-07
-1.3515e-05
8.93682e-05
-5.40923e-07
-1.72226e-05
8.81534e-05
-6.07352e-07
-2.14399e-05
8.68918e-05
-5.94396e-07
2.80917e-05
-2.60095e-05
7.74845e-05
0.000292518
7.52285e-05
-6.57342e-05
0.00326199
0.000199127
0.00298266
0.000190569
-4.63061e-05
0.00327476
0.000309652
1.81475e-05
-4.21248e-05
0.00291473
0.000215785
0.00267217
0.000149006
-1.40217e-05
0.00297068
0.000230703
-7.35302e-06
0.00292381
0.000242972
1.10461e-05
-1.10608e-05
0.00260032
0.000175837
0.00237209
0.000118715
-2.72597e-06
0.0026706
0.000164865
-1.30897e-05
0.00263089
0.000194372
-1.32007e-05
0.00259748
0.00020856
1.1053e-05
-1.57073e-05
0.00231663
0.000155907
0.00210116
7.51305e-05
2.07841e-06
0.00239359
0.000129276
2.46273e-06
0.00235858
0.00014686
-1.81768e-07
0.00233005
0.00016912
-1.05098e-05
0.00230026
0.000174001
1.12469e-05
-1.2039e-05
0.00205415
0.000137139
0.00184792
3.7059e-05
1.18526e-05
0.0021167
7.71243e-05
3.64338e-06
0.00210014
0.000108717
-4.36294e-06
0.00207947
0.000130115
-8.09462e-06
0.00205197
0.000149117
-9.72203e-06
0.00202281
0.000141205
1.03034e-05
-9.32638e-06
0.00180604
0.000109381
0.00161205
1.88179e-05
4.84486e-06
0.00185388
5.32692e-05
7.25705e-06
0.00184366
7.70046e-05
1.81645e-06
0.00183054
9.36364e-05
-8.4762e-06
0.00181612
0.000111513
-1.25636e-05
0.00179124
0.000119164
-1.2351e-05
0.00176608
0.000110924
1.49621e-05
-1.47159e-05
0.00157733
8.36468e-05
0.00139097
1.69368e-05
2.24365e-07
0.001606
3.55946e-05
-5.12114e-06
0.00159989
5.55787e-05
-4.19329e-06
0.00159067
7.22922e-05
-4.30723e-06
0.00157834
8.22817e-05
-9.59191e-06
0.00156339
8.88608e-05
-1.07841e-05
0.00154538
9.18716e-05
-1.22523e-05
0.00152423
8.52008e-05
1.49452e-05
-1.35986e-05
0.0013611
6.24941e-05
0.00117623
1.69707e-05
2.53123e-05
0.00137831
2.67041e-05
1.61582e-05
0.00137269
3.63609e-05
5.14887e-06
0.00136405
5.01914e-05
-1.30983e-06
0.00135167
5.77545e-05
-5.96508e-06
0.00133662
6.28663e-05
-9.02487e-06
0.00131997
6.62035e-05
-1.09077e-05
0.0013044
6.83829e-05
-1.19186e-05
0.001288
6.23183e-05
1.65211e-05
-1.51487e-05
0.0011517
4.45553e-05
0.000972528
1.45028e-05
3.61319e-06
0.00114657
1.80737e-05
6.47573e-06
0.00114305
2.50826e-05
6.33603e-06
0.0011378
3.28902e-05
3.55064e-06
0.00112844
3.76349e-05
-2.36845e-06
0.00111703
4.16089e-05
-6.59e-06
0.00110487
4.45518e-05
-8.99339e-06
0.00109215
4.69749e-05
-1.11957e-05
0.00107872
4.8087e-05
-1.41491e-05
0.00106541
4.27675e-05
1.95278e-05
-1.81078e-05
0.000952834
2.85773e-05
0.000778086
-4.42927e-06
-1.01684e-05
0.00092426
1.02695e-05
-4.36353e-06
0.000922806
1.546e-05
2.00741e-06
0.000918686
2.03675e-05
2.81394e-06
0.000911513
2.28342e-05
-1.39545e-07
0.000903295
2.60178e-05
-4.14183e-06
0.000894391
2.79251e-05
-6.99946e-06
0.000884551
3.04426e-05
-1.01425e-05
0.000874127
3.12968e-05
-1.31744e-05
0.000863156
3.07148e-05
-1.6347e-05
0.0008522
2.75605e-05
2.11464e-05
-1.96635e-05
0.00076194
1.63676e-05
0.000591365
-8.91386e-07
1.14883e-05
0.000710822
5.08458e-06
8.87908e-06
0.00070903
8.60946e-06
5.29972e-06
0.000705534
1.11777e-05
3.67106e-06
0.000700445
1.28183e-05
6.29443e-07
0.000694573
1.49192e-05
-3.50597e-06
0.000687985
1.65503e-05
-5.83747e-06
0.00068075
1.73402e-05
-8.30768e-06
0.000672795
1.80303e-05
-1.14669e-05
0.000664374
1.75107e-05
-1.50924e-05
0.000655995
1.73598e-05
-1.85357e-05
0.000647476
1.58279e-05
2.40351e-05
-2.2306e-05
0.000578783
7.6472e-06
0.000412025
-9.40561e-07
8.42633e-06
0.000501034
1.96067e-06
6.44266e-06
0.000499753
3.50891e-06
4.97549e-06
0.000497601
4.50627e-06
5.15792e-06
0.00049464
5.6626e-06
2.68887e-06
0.000491012
7.03898e-06
-1.16275e-06
0.000486549
8.00486e-06
-3.67043e-06
0.000481217
8.43781e-06
-6.45737e-06
0.000475487
8.52977e-06
-9.5605e-06
0.000469548
8.0881e-06
-1.26657e-05
0.000463621
7.84062e-06
-1.6154e-05
0.000457747
7.84137e-06
-2.02817e-05
0.00045165
7.27118e-06
2.6748e-05
-2.47616e-05
0.000402927
2.00026e-06
0.000240966
-1.22667e-06
1.29132e-05
0.000296374
-2.97026e-07
9.32282e-06
0.000295907
5.03998e-07
7.13519e-06
0.000294764
9.8904e-07
6.52332e-06
0.000293127
1.65637e-06
4.28513e-06
0.0002909
2.18209e-06
9.02605e-07
0.000288215
2.44617e-06
-1.48902e-06
0.000285119
2.42856e-06
-4.09534e-06
0.000281841
2.34472e-06
-7.2679e-06
0.000278398
2.05951e-06
-1.06921e-05
0.000274959
1.86838e-06
-1.44693e-05
0.000271589
1.79194e-06
-1.85815e-05
0.000267973
1.75457e-06
-2.33221e-05
0.00026408
1.66195e-06
3.08279e-05
-2.84559e-05
0.00023536
-4.95649e-07
7.77755e-05
-6.76281e-07
8.65371e-06
9.64577e-05
-6.41276e-07
6.62386e-06
9.65606e-05
-3.98433e-07
5.77508e-06
9.62703e-05
-2.62441e-07
5.31838e-06
9.5733e-05
-1.11778e-07
2.60478e-06
9.50857e-05
-3.34144e-08
-4.65416e-07
9.42401e-05
-3.01448e-08
-2.20253e-06
9.32949e-05
-1.04595e-07
-3.76739e-06
9.22785e-05
-2.3467e-07
-5.95446e-06
9.12069e-05
-3.93923e-07
-8.48836e-06
9.01288e-05
-5.18621e-07
-1.15285e-05
8.90241e-05
-6.13417e-07
-1.50645e-05
8.78235e-05
-7.00746e-07
-1.91538e-05
8.65681e-05
-7.6139e-07
-2.36056e-05
8.52482e-05
-7.21524e-07
3.07855e-05
-2.84941e-05
7.59147e-05
0.000388347
0.000259607
-0.00029887
0.00352171
0.00025399
0.00327632
0.000268876
-8.15776e-05
0.00358774
0.000376592
3.20378e-05
-1.90582e-05
0.00318207
0.000272162
0.00292636
0.000212651
-4.10268e-05
0.0032624
0.00028469
-3.32105e-05
0.00321186
0.000323711
1.38856e-06
-5.42659e-06
0.00283803
0.000236652
0.00261226
0.000168374
-1.5916e-05
0.00294078
0.000229635
-1.32498e-05
0.00291181
0.000248131
-2.27648e-06
0.00286127
0.000272183
1.06821e-05
-8.02254e-06
0.00253404
0.000205594
0.00232506
0.000115553
-3.89743e-06
0.00266442
0.000176244
-1.08618e-05
0.00262141
0.000190498
-1.33216e-05
0.00258737
0.000223007
-1.84109e-05
0.0025463
0.000220577
1.08899e-05
-1.00806e-05
0.00226924
0.000174925
0.00206338