/*--------------------------------*- C++ -*----------------------------------*\
  =========                 |
  \\      /  F ield         | OpenFOAM: The Open Source CFD Toolbox
   \\    /   O peration     | Website:  https://openfoam.org
    \\  /    A nd           | Version:  7
     \\/     M anipulation  |
\*---------------------------------------------------------------------------*/
FoamFile
{
    version     2.0;
    format      ascii;
    class       volVectorField;
    location    "0.5";
    object      U;
}
// * * * * * * * * * * * * * * * * * * * * * * * * * * * * * * * * * * * * * //

dimensions      [0 1 -1 0 0 0 0];

internalField   nonuniform List<vector> 
18720
(
(-0.00429769 0.00303736 2.12642)
(-0.0054043 0.00360211 2.15931)
(-0.00407336 0.00319867 2.12596)
(-0.00466911 0.00286893 2.12761)
(-0.00514242 0.00358687 2.11984)
(-0.00543398 0.0042523 2.16845)
(-0.00541414 0.00398205 2.15927)
(-0.00541785 0.00315737 2.15985)
(-0.00330541 0.00403981 2.15027)
(-0.004951 0.00370834 2.11975)
(-0.00487934 0.00271399 2.12888)
(-0.00516048 0.0034592 2.12076)
(-0.00381328 0.00421097 2.10999)
(-0.00323692 0.00375306 2.17041)
(-0.00543498 0.00469365 2.16848)
(-0.00530621 0.00375271 2.16882)
(0.00132186 0.00366882 2.15981)
(-0.0034187 0.00449326 2.15023)
(-0.00551076 0.00274476 2.15989)
(-0.00322779 0.00353156 2.15064)
(-0.000390146 0.00490801 2.13741)
(-0.00378464 0.00445234 2.10975)
(-0.0048853 0.0025319 2.1296)
(-0.00525898 0.00333657 2.12187)
(-0.00358089 0.00394915 2.11073)
(-0.0032919 0.00434266 2.09396)
(-0.00542543 0.000153438 2.17705)
(-0.00355806 0.00451205 2.17074)
(-0.00214357 0.00303707 2.17102)
(0.00729868 0.00371683 2.16754)
(0.001296 0.00437916 2.15977)
(-0.00530487 0.00333446 2.16877)
(0.00149853 0.00287175 2.16014)
(0.00583132 0.00413891 2.144)
(-0.000528448 0.00558271 2.13738)
(-0.00567511 0.00230895 2.15966)
(-0.00325161 0.00303128 2.15067)
(-0.000267737 0.00422496 2.13772)
(0.00104022 0.00507891 2.11902)
(-0.00334184 0.00466077 2.09317)
(-0.00479007 0.00236341 2.12894)
(-0.0052497 0.00318372 2.12276)
(-0.00354265 0.00364811 2.11156)
(-0.00307602 0.00400232 2.0943)
(-0.00218343 0.0049239 2.07235)
(-0.000845843 -0.00458849 2.1906)
(-0.004745 0.00214116 2.17703)
(-0.00323275 1.93966e-05 2.1773)
(0.00924021 0.00210343 2.17367)
(0.00737653 0.00480855 2.16779)
(-0.00185523 0.00251289 2.17123)
(0.00796872 0.00260033 2.1679)
(0.0130388 0.00417493 2.15109)
(0.00577056 0.00507462 2.14403)
(-0.00528853 0.00291265 2.16845)
(0.00139469 0.00212367 2.16012)
(0.00642154 0.0030779 2.14441)
(0.00794508 0.00463429 2.12443)
(0.000946596 0.00588502 2.11897)
(-0.00586568 0.00190223 2.15965)
(-0.00331664 0.00251069 2.1505)
(-0.000292666 0.00353789 2.13773)
(0.00109924 0.0042708 2.11939)
(0.00364186 0.00554441 2.09545)
(-0.0022429 0.00526824 2.0709)
(-0.00493573 0.00212729 2.12911)
(-0.00507134 0.00302766 2.12242)
(-0.00353843 0.00333186 2.11242)
(-0.00297497 0.00360537 2.09443)
(-0.00206854 0.00454386 2.07212)
(-0.00134493 0.00604409 2.04862)
(-0.00796045 -2.06417e-05 2.20732)
(-0.00251545 0.00349371 2.18963)
(0.00906711 -0.00428588 2.19057)
(0.00850871 -0.00414764 2.18577)
(0.00947894 0.00493688 2.17348)
(-0.00344224 -0.000274557 2.17727)
(0.0101424 0.000461153 2.17296)
(0.0200271 0.00307209 2.15778)
(0.0130549 0.00541299 2.15124)
(-0.0012218 0.00181942 2.17133)
(0.00799133 0.00141904 2.16795)
(0.0134525 0.00276159 2.15126)
(0.0169127 0.00425635 2.12911)
(0.00781503 0.00574258 2.12446)
(-0.00537087 0.00257172 2.16835)
(0.00126415 0.00139585 2.1599)
(0.00634506 0.0020281 2.14436)
(0.00849381 0.00337946 2.12485)
(0.0119296 0.00570503 2.1014)
(0.00358923 0.00647305 2.09528)
(-0.00606562 0.00151403 2.15955)
(-0.00338548 0.00201705 2.1505)
(-0.000327109 0.00282228 2.13758)
(0.0010559 0.00344343 2.11941)
(0.00359542 0.00462012 2.09584)
(0.00551004 0.00655045 2.06915)
(-0.00142527 0.00642298 2.04679)
(-0.00650083 0.00258922 2.13652)
(-0.00520323 0.00290438 2.1224)
(-0.00348559 0.00301634 2.11241)
(-0.00297503 0.00318615 2.09514)
(-0.00195687 0.00413357 2.07147)
(-0.00129738 0.00559032 2.04819)
(-0.00125889 0.00680974 2.02172)
(0.00682842 0.0091964 2.23175)
(-0.0350713 0.00088413 2.2095)
(0.0246438 0.000593267 2.2071)
(0.00113188 -0.0010742 2.20019)
(0.00998419 0.00221535 2.18575)
(0.0120192 -0.00133304 2.19248)
(0.0155778 -0.00667434 2.18458)
(0.0235183 0.000452694 2.16596)
(0.019569 0.00552562 2.15744)
(-0.00470178 0.000731871 2.17757)
(0.00927672 -0.00115338 2.17259)
(0.0196722 0.00117725 2.15699)
(0.0275358 0.0038373 2.13518)
(0.0168988 0.0056951 2.1292)
(-0.00156162 0.00105122 2.17139)
(0.00857867 0.000123123 2.16792)
(0.0133751 0.0011371 2.15122)
(0.0169809 0.00245978 2.12919)
(0.0206257 0.00566955 2.10407)
(0.0118102 0.00699735 2.10145)
(-0.00533137 0.00217325 2.16841)
(0.00101869 0.000745603 2.15982)
(0.00591809 0.00103271 2.14406)
(0.00851173 0.00206636 2.12481)
(0.0119955 0.0042056 2.10161)
(0.0154934 0.00672836 2.07571)
(0.00542206 0.00756051 2.06887)
(-0.00630097 0.00124597 2.15957)
(-0.00355572 0.00150017 2.15045)
(-0.000384394 0.00210353 2.13756)
(0.000990667 0.00259816 2.1193)
(0.00351786 0.00361107 2.09587)
(0.00544982 0.00551864 2.06949)
(0.0060663 0.00731071 2.04043)
(-0.00135696 0.00726074 2.02021)
(-0.00664746 0.00240904 2.13702)
(-0.00603143 0.00301447 2.12672)
(-0.00362468 0.00274437 2.11236)
(-0.00304385 0.00280159 2.09568)
(-0.00194139 0.0036896 2.07196)
(-0.00121668 0.0051605 2.0472)
(-0.00122172 0.00629572 2.02158)
(-0.00167577 0.00743148 1.99085)
(0.0218186 0.0082092 2.22976)
(0.0121092 0.00352292 2.23046)
(0.009728 0.0105145 2.22773)
(0.0272457 0.00917723 2.20892)
(-0.0143279 -0.000361523 2.20141)
(0.0224473 -0.00738928 2.20582)
(0.0309563 -0.000379493 2.19962)
(0.0231198 0.00170451 2.18059)
(0.0241723 0.00466957 2.16524)
(0.0221656 -0.00543307 2.19269)
(0.0154852 -0.00345388 2.18523)
(0.0269545 -0.00361304 2.16437)
(0.0363729 0.00491295 2.14212)
(0.0268419 0.00635405 2.13503)
(-0.00564696 0.00222268 2.17737)
(0.00817495 -0.00197816 2.17235)
(0.0192922 -0.000996028 2.1567)
(0.0268208 0.00157682 2.13477)
(0.0326163 0.00587552 2.10869)
(0.0206113 0.00736185 2.10422)
(-0.00112 0.000143098 2.17166)
(0.00816572 -0.00129037 2.16791)
(0.0136105 -0.000461241 2.15113)
(0.0169577 0.000647833 2.12911)
(0.020369 0.00367445 2.10411)
(0.0249188 0.00698022 2.07636)
(0.0153808 0.00822355 2.07578)
(-0.00537951 0.00188193 2.16847)
(0.000936691 4.33678e-05 2.15979)
(0.00561292 8.45285e-05 2.14398)
(0.00809456 0.000860874 2.12451)
(0.0119552 0.00263582 2.10157)
(0.0152169 0.00507797 2.07559)
(0.0171907 0.00741612 2.04722)
(0.00598107 0.00836843 2.04029)
(-0.00655645 0.000972834 2.1596)
(-0.00373668 0.00110919 2.15044)
(-0.000586913 0.00140634 2.13755)
(0.000877844 0.00175643 2.11928)
(0.00339176 0.00264704 2.09579)
(0.0053832 0.0044054 2.06949)
(0.00602655 0.00619823 2.04085)
(0.00560112 0.00803209 2.00903)
(-0.00178327 0.00794718 1.99014)
(-0.00524535 0.00172859 2.12972)
(-0.00614687 0.00282399 2.12708)
(-0.0039586 0.00251706 2.11434)
(-0.00314885 0.00243362 2.0959)
(-0.00206231 0.00327908 2.07288)
(-0.00121435 0.00467356 2.04747)
(-0.001182 0.00578289 2.02067)
(-0.00162743 0.00689774 1.99116)
(-0.00248698 0.00828053 1.9588)
(0.0275356 0.00547954 2.26234)
(0.0200167 0.00865274 2.22832)
(0.0220678 0.00211795 2.22698)
(0.0440927 0.00612791 2.21232)
(0.0294993 0.00590872 2.20754)
(0.0173506 -9.98646e-05 2.23072)
(0.0214884 0.00579673 2.20502)
(0.048753 0.00694528 2.18119)
(0.0186041 0.00334329 2.18133)
(0.0031412 0.00274805 2.20458)
(0.0317599 -0.0115814 2.19915)
(0.0357515 0.00181299 2.17827)
(0.0487153 0.00510646 2.15372)
(0.0356253 0.0076613 2.14151)
(0.0191314 -0.00779329 2.19112)
(0.0230951 -0.006552 2.18565)
(0.0257171 -0.00334076 2.16475)
(0.0377875 0.00120271 2.14094)
(0.040898 0.0071166 2.11439)
(0.0321404 0.00857839 2.10874)
(-0.00355183 0.0024617 2.17734)
(0.0062055 -0.00150227 2.17226)
(0.018937 -0.00269721 2.15631)
(0.0268408 -0.000964627 2.1346)
(0.0321301 0.00311217 2.10852)
(0.0362035 0.00702584 2.07965)
(0.0247159 0.00902039 2.07649)
(-0.00135762 -0.000278824 2.17186)
(0.00837422 -0.00291617 2.16795)
(0.0132406 -0.00201214 2.15112)
(0.0167848 -0.00124009 2.12901)
(0.0203614 0.00172661 2.10398)
(0.0248445 0.00478857 2.07646)
(0.0281754 0.00793788 2.04701)
(0.0170608 0.00915626 2.04729)
(-0.00541529 0.00154397 2.16846)
(0.000699541 -0.000509041 2.15977)
(0.00560919 -0.000947095 2.14407)
(0.00786042 -0.000361973 2.12447)
(0.0116562 0.00116098 2.10154)
(0.015133 0.00336821 2.07554)
(0.0168767 0.00567002 2.04691)
(0.0176337 0.00813702 2.01512)
(0.00554278 0.00914787 2.00893)
(-0.00684792 0.000730632 2.15956)
(-0.00396799 0.000763254 2.15041)
(-0.000760433 0.000755206 2.13751)
(0.000663426 0.00093307 2.11923)
(0.00317279 0.00165453 2.09573)
(0.00523791 0.00331564 2.06941)
(0.00595668 0.00499755 2.04084)
(0.00557463 0.00690021 2.0094)
(0.00466664 0.00894981 1.97668)
(-0.00260532 0.00881785 1.95835)
(-0.00538637 0.00148044 2.12939)
(-0.00557116 0.00245891 2.12253)
(-0.00411221 0.00214336 2.11447)
(-0.00325797 0.00201341 2.09644)
(-0.00213337 0.00286053 2.07326)
(-0.00132597 0.00422963 2.04836)
(-0.00117467 0.00526649 2.02075)
(-0.00159901 0.00632844 1.99088)
(-0.00242429 0.00772395 1.95947)
(-0.00366858 0.00914548 1.92705)
(0.0424953 -0.00285203 2.29359)
(0.0398279 0.00823053 2.26747)
(0.0231781 0.00404061 2.26183)
(0.0470652 0.00475481 2.24247)
(0.0449401 0.00948957 2.21041)
(0.0185399 0.00541671 2.22905)
(0.0452793 -5.50161e-05 2.21246)
(0.0555731 0.00589551 2.18996)
(0.0483575 0.00787528 2.18078)
(0.0521429 -0.00362479 2.2338)
(0.0208426 -0.000527157 2.20726)
(0.0405208 0.00268987 2.18077)
(0.0643086 0.00600187 2.15264)
(0.048859 0.00838358 2.15422)
(0.00691539 0.00299948 2.20468)
(0.0208526 -0.00721905 2.19419)
(0.0368368 -0.00818494 2.17808)
(0.0485734 0.00277114 2.14986)
(0.0606944 0.00639036 2.12315)
(0.0407883 0.00958347 2.11424)
(0.022387 -0.0100569 2.19194)
(0.0206943 -0.00785367 2.18456)
(0.0308625 -0.00725418 2.16506)
(0.0370677 -0.00151737 2.14127)
(0.0415197 0.00416458 2.11387)
(0.0463927 0.00759293 2.08226)
(0.0361346 0.00992975 2.07981)
(-0.00330378 0.0033847 2.17704)
(0.00761514 -0.00241735 2.17211)
(0.0185085 -0.0036248 2.15633)
(0.0266989 -0.00318174 2.13431)
(0.0319209 0.000294538 2.10839)
(0.0359394 0.00409969 2.07955)
(0.038349 0.00791027 2.04958)
(0.0279252 0.010243 2.04715)
(-0.0014643 -0.00096875 2.17185)
(0.00799698 -0.00404616 2.16796)
(0.0130297 -0.00363834 2.15109)
(0.016414 -0.00277448 2.12901)
(0.0200193 -0.000401763 2.1039)
(0.0247454 0.00253787 2.07629)
(0.0284653 0.00552863 2.04725)
(0.0288843 0.00856305 2.01571)
(0.0174675 0.00997484 2.01515)
(-0.00550442 0.00122407 2.16852)
(0.000405489 -0.0010788 2.15971)
(0.00527314 -0.00182374 2.14404)
(0.00769707 -0.00162152 2.12454)
(0.0114054 -0.000340497 2.10149)
(0.0149921 0.0016761 2.07578)
(0.0167318 0.00384535 2.04686)
(0.0174548 0.00631924 2.01496)
(0.0178433 0.0089888 1.98139)
(0.00457657 0.0100618 1.9766)
(-0.00717031 0.00049053 2.15948)
(-0.00425369 0.000414443 2.15035)
(-0.00107155 0.00017012 2.13751)
(0.000467737 0.00014636 2.11914)
(0.00293107 0.000721413 2.09559)
(0.00497816 0.00223091 2.06935)
(0.00581206 0.00383095 2.04058)
(0.00550379 0.00569095 2.0094)
(0.00466205 0.00782355 1.97719)
(0.00323395 0.00995031 1.94453)
(-0.00380024 0.00968429 1.92626)
(-0.00549188 0.00138151 2.12915)
(-0.00560895 0.00237387 2.12232)
(-0.0040509 0.0018207 2.1122)
(-0.00339383 0.00160546 2.09641)
(-0.00214903 0.00242321 2.07289)
(-0.00137234 0.00375298 2.04856)
(-0.00125066 0.00473754 2.02155)
(-0.00159607 0.00578403 1.99088)
(-0.00237671 0.00714424 1.96003)
(-0.00358194 0.00860189 1.92796)
(-0.00475419 0.0101028 1.89596)
(0.047508 0.00177051 2.31838)
(0.0486646 0.00730407 2.29387)
(0.036241 -0.00667289 2.29122)
(0.0761909 0.000589739 2.26486)
(0.0506118 0.00767767 2.24509)
(0.0213513 0.00115193 2.263)
(0.0459856 0.00213072 2.24217)
(0.0674424 0.00499726 2.21155)
(0.0563052 0.0100196 2.18912)
(0.0302513 -0.00728409 2.22289)
(0.0453318 0.0015203 2.21448)
(0.0567837 0.000179582 2.19128)
(0.0689097 0.0075468 2.16336)
(0.0639155 0.0105618 2.15248)
(0.00361101 0.00838996 2.21584)
(0.0676364 -0.0119299 2.21202)
(0.0353634 -0.000998568 2.18149)
(0.0580113 0.00111286 2.15405)
(0.0697727 0.00702607 2.12423)
(0.0608762 0.0108328 2.12339)
(0.0105486 -0.00640439 2.20406)
(0.0191193 -0.00380576 2.19986)
(0.0323682 -0.00844592 2.17222)
(0.048239 -0.00476855 2.14943)
(0.0567184 0.00255918 2.11962)
(0.0642176 0.00686175 2.08842)
(0.0460401 0.0103832 2.08243)
(0.0224202 -0.0119077 2.19133)
(0.0212514 -0.00988799 2.18476)
(0.0286019 -0.00868517 2.16464)
(0.0391359 -0.00563231 2.14129)
(0.0415565 0.00019105 2.11394)
(0.0469788 0.00446872 2.08208)
(0.0506157 0.00826976 2.04974)
(0.0384665 0.0108768 2.04976)
(-0.003407 0.00572057 2.17663)
(0.00740397 -0.00273882 2.17207)
(0.0182584 -0.005371 2.15613)
(0.0280513 -0.00546828 2.13435)
(0.0314825 -0.00238976 2.10819)
(0.0355567 0.00110536 2.07947)
(0.0382809 0.00487066 2.04946)
(0.041038 0.00888564 2.01752)
(0.0287515 0.0109716 2.01583)
(-0.00201753 -0.00166615 2.17235)
(0.00761676 -0.00546761 2.16787)
(0.0124965 -0.00512206 2.15111)
(0.0161279 -0.00425902 2.12898)
(0.0195064 -0.00220686 2.10386)
(0.0245136 0.000284905 2.07625)
(0.0282223 0.00295975 2.04705)
(0.0293222 0.00603993 2.01601)
(0.0286292 0.00929516 1.98305)
(0.017697 0.010873 1.98143)
(-0.00556681 0.000892538 2.16855)
(0.000134701 -0.00164723 2.15964)
(0.00462298 -0.00259366 2.1439)
(0.00734487 -0.00280165 2.12453)
(0.010939 -0.00178313 2.10133)
(0.0146893 1.10312e-05 2.07572)
(0.0166516 0.00200068 2.04716)
(0.0173136 0.00445702 2.0149)
(0.0177309 0.00715652 1.98167)
(0.0167254 0.00984599 1.94812)
(0.00311902 0.010955 1.94464)
(-0.00754176 0.000301414 2.1593)
(-0.00454933 4.84074e-05 2.15031)
(-0.0014184 -0.000378601 2.13749)
(0.000133316 -0.000571636 2.11914)
(0.00260129 -0.000267133 2.09541)
(0.00470511 0.00119147 2.06922)
(0.0055527 0.0026757 2.04052)
(0.00534449 0.00451999 2.00919)
(0.00458299 0.00663557 1.97728)
(0.00325664 0.00881344 1.94521)
(0.00220441 0.0109854 1.91273)
(-0.00491673 0.0106304 1.89483)
(-0.00553779 0.00144855 2.12896)
(-0.00572608 0.0022482 2.12225)
(-0.00417889 0.00163668 2.11216)
(-0.00352213 0.00131467 2.09548)
(-0.00229243 0.00194084 2.0728)
(-0.00138787 0.00326383 2.04767)
(-0.00131162 0.00421752 2.02168)
(-0.00164481 0.00523085 1.9915)
(-0.00237622 0.00656615 1.96021)
(-0.00354005 0.00800116 1.92893)
(-0.00465766 0.00955988 1.897)
(-0.00578245 0.0111591 1.86479)
(0.087695 0.011571 2.37249)
(0.0545559 0.00431697 2.31905)
(0.0522034 0.000530365 2.31826)
(0.0883363 0.00698559 2.28068)
(0.0795963 0.00938676 2.265)
(0.0277315 -0.0103161 2.28933)
(0.0746463 -0.00412077 2.26234)
(0.0902914 0.00423746 2.21999)
(0.0679345 0.00914335 2.21319)
(0.0298305 -0.00609138 2.25785)
(0.045412 -0.00126513 2.24348)
(0.0671489 -3.93795e-05 2.21106)
(0.0870644 0.00739354 2.17469)
(0.068725 0.0117785 2.16328)
(0.0103571 -0.0104449 2.22672)
(0.0477497 -0.0069597 2.21099)
(0.0583591 0.000342458 2.19268)
(0.070135 0.00210223 2.16448)
(0.0816293 0.00882783 2.13123)
(0.069374 0.0123608 2.12398)
(0.00487856 0.00453915 2.21142)
(0.0375666 -0.0057721 2.20232)
(0.0680157 -0.01068 2.18598)
(0.0551232 -0.00192783 2.15463)
(0.0677792 0.00172574 2.12574)
(0.073233 0.00739946 2.09244)
(0.0643253 0.0118199 2.08856)
(0.00773618 -0.00807169 2.2051)
(0.0207958 -0.0100392 2.19861)
(0.0333193 -0.00682477 2.17884)
(0.0472564 -0.00782625 2.14479)
(0.055131 -0.00275487 2.11893)
(0.0609529 0.00225206 2.08632)
(0.0658206 0.00837342 2.05277)
(0.0497327 0.0114872 2.05002)
(0.0237202 -0.0136409 2.19179)
(0.0204307 -0.0113951 2.18424)
(0.0279027 -0.0108716 2.16435)
(0.0370262 -0.00848255 2.1411)
(0.0417062 -0.00337188 2.11388)
(0.0469325 0.000362211 2.08203)
(0.0508044 0.00461478 2.04959)
(0.0524019 0.00878418 2.01708)
(0.040934 0.01186 2.01764)
(-0.00522896 0.00707414 2.17529)
(0.0073155 -0.00259898 2.1722)
(0.0179955 -0.00672808 2.1561)
(0.025587 -0.00735737 2.13422)
(0.032561 -0.00535267 2.10813)
(0.0350278 -0.00176746 2.07926)
(0.0378927 0.00162798 2.04942)
(0.0411677 0.00553176 2.01745)
(0.0418299 0.00958365 1.98426)
(0.0284701 0.0117154 1.9832)
(-0.00220947 -0.00269234 2.17247)
(0.00692294 -0.00660056 2.16796)
(0.0118969 -0.00658641 2.15107)
(0.0154752 -0.0061328 2.12903)
(0.0191793 -0.00397667 2.10379)
(0.0239505 -0.00195888 2.07621)
(0.028022 0.000490569 2.04703)
(0.0290398 0.00339258 2.01577)
(0.0290395 0.00676201 1.98316)
(0.0270757 0.0102973 1.95034)
(0.0166203 0.0116915 1.94817)
(-0.00567982 0.000611793 2.16851)
(-0.000136292 -0.0021981 2.15955)
(0.00422735 -0.00340895 2.14393)
(0.00662424 -0.00382442 2.12456)
(0.0104958 -0.00324931 2.1013)
(0.0141153 -0.00158077 2.07536)
(0.0162798 0.000210037 2.04708)
(0.0172077 0.00254744 2.01505)
(0.0176033 0.00517009 1.98161)
(0.0166183 0.00799463 1.94876)
(0.0155994 0.010728 1.91564)
(0.0020714 0.0119907 1.91297)
(-0.00793327 0.000177991 2.15885)
(-0.00487359 -0.000269819 2.15017)
(-0.00178893 -0.000932218 2.13743)
(-0.000248485 -0.00129869 2.11912)
(0.00223905 -0.00111287 2.09557)
(0.00427359 0.000138027 2.069)
(0.00524477 0.00154181 2.04052)
(0.00508345 0.00335246 2.00912)
(0.00442959 0.00546963 1.97709)
(0.00320087 0.00766363 1.9454)
(0.00224191 0.00983031 1.91341)
(0.00148182 0.0121421 1.88026)
(-0.00593537 0.0117056 1.86417)
(-0.00719979 0.0019974 2.13576)
(-0.00574823 0.00231147 2.12206)
(-0.00438156 0.00142809 2.11209)
(-0.00371191 0.00102797 2.09532)
(-0.00249946 0.00154983 2.07253)
(-0.00151125 0.00279009 2.04756)
(-0.00137792 0.00368407 2.02099)
(-0.00173137 0.00465067 1.99162)
(-0.00241987 0.00599617 1.96037)
(-0.00352819 0.00743086 1.92951)
(-0.00460134 0.00896043 1.89809)
(-0.00567556 0.0106149 1.8657)
(-0.00699518 0.0123338 1.83228)
(0.094744 0.0186211 2.39082)
(0.0951506 0.0138084 2.3589)
(0.0777396 0.00310812 2.35418)
(0.129845 0.00688492 2.31666)
(0.0857635 0.0103285 2.2788)
(0.0543853 -0.00452253 2.31052)
(0.08993 0.00502311 2.2794)
(0.104254 0.00595166 2.23887)
(0.0913214 0.0121344 2.22086)
(0.0301369 -0.0129943 2.28928)
(0.073783 -0.0101883 2.26166)
(0.0921088 -0.00118036 2.21838)
(0.108415 0.00852534 2.17999)
(0.0869678 0.0124711 2.17585)
(0.0220216 -0.0116916 2.2568)
(0.056627 -0.00685741 2.23969)
(0.0664553 -0.00429058 2.21121)
(0.0862117 0.00163892 2.17424)
(0.105563 0.00875764 2.13406)
(0.0812551 0.0133137 2.13138)
(0.0100713 -0.00316167 2.2272)
(0.0384959 -0.0165249 2.21123)
(0.060043 -0.00488078 2.1928)
(0.0713865 -0.000262759 2.16507)
(0.0828251 0.00330115 2.13197)
(0.0886764 0.00896065 2.09291)
(0.072466 0.0126061 2.09229)
(0.0121494 5.71808e-05 2.21055)
(0.028576 -0.00569405 2.19873)
(0.0561523 -0.0113068 2.18097)
(0.070718 -0.00841728 2.157)
(0.0692892 -0.00181662 2.12683)
(0.0740974 0.00203204 2.09342)
(0.0750398 0.00876311 2.0578)
(0.0658603 0.013399 2.05301)
(0.0131232 -0.0178649 2.20689)
(0.0198607 -0.0123714 2.19795)
(0.031215 -0.0107478 2.17789)
(0.0496369 -0.00919182 2.14987)
(0.0550541 -0.00604174 2.11622)
(0.0594034 -0.00205542 2.08555)
(0.0642321 0.00332748 2.0518)
(0.0671653 0.00873385 2.01838)
(0.0523923 0.0123376 2.01714)
(0.0260411 -0.0151668 2.19178)
(0.0204271 -0.012786 2.18411)
(0.026175 -0.0129758 2.16408)
(0.0359908 -0.0115412 2.14073)
(0.0406118 -0.00702957 2.11373)
(0.0467507 -0.0034021 2.08188)
(0.0507347 0.000641893 2.04955)
(0.0524268 0.00485175 2.01694)
(0.0535813 0.00951094 1.9837)
(0.0417527 0.0126548 1.98435)
(-0.00254137 0.0111884 2.1756)
(0.0074923 -0.00308653 2.17289)
(0.0176378 -0.00837105 2.15611)
(0.0247926 -0.00946499 2.13418)
(0.0299917 -0.00761979 2.108)
(0.0341862 -0.00461946 2.07898)
(0.0373366 -0.00139449 2.04925)
(0.0407582 0.00211171 2.01738)
(0.0420155 0.00621096 1.98421)
(0.0401631 0.0102837 1.95103)
(0.0268168 0.0126554 1.95049)
(-0.00305673 -0.00337153 2.1733)
(0.00637955 -0.0078878 2.16788)
(0.0111556 -0.00786302 2.151)
(0.0148219 -0.00761161 2.12903)
(0.0184704 -0.00609911 2.10374)
(0.0234654 -0.00414571 2.07615)
(0.0274487 -0.00215249 2.04704)
(0.0287937 0.000780831 2.01573)
(0.0288064 0.00409344 1.98294)
(0.0275068 0.00783883 1.94999)
(0.0259265 0.0110574 1.91817)
(0.0155011 0.0125646 1.9157)
(-0.00577234 0.00030896 2.1685)
(-0.000470087 -0.00268366 2.15948)
(0.00379839 -0.00425249 2.14395)
(0.00605292 -0.0048813 2.12467)
(0.00978767 -0.00457508 2.1015)
(0.0135654 -0.00319372 2.07532)
(0.015716 -0.00155896 2.04662)
(0.0168658 0.000680537 2.01494)
(0.017449 0.00330652 1.98152)
(0.0164792 0.00603324 1.9487)
(0.0154464 0.00888977 1.91652)
(0.0148019 0.0118395 1.88286)
(0.00134038 0.0131618 1.88052)
(-0.00825066 7.28769e-05 2.15889)
(-0.00524062 -0.000534277 2.14998)
(-0.00220496 -0.00143998 2.13739)
(-0.000650257 -0.00196803 2.11917)
(0.00180039 -0.0019649 2.0956)
(0.00384903 -0.000851819 2.06933)
(0.00479853 0.000441645 2.04038)
(0.00476604 0.00220037 2.00916)
(0.00416429 0.00431881 1.97681)
(0.00307623 0.00652757 1.94522)
(0.00215568 0.00869935 1.91379)
(0.00155496 0.0109037 1.88087)
(0.000652231 0.0133872 1.8463)
(-0.00715735 0.012864 1.83187)
(-0.0059419 0.00135164 2.12878)
(-0.00647408 0.00254001 2.12556)
(-0.00455185 0.00128573 2.11183)
(-0.00394395 0.000765423 2.09514)
(-0.00267395 0.00121881 2.07224)
(-0.00170234 0.00235885 2.04768)
(-0.00151632 0.0031825 2.02089)
(-0.00183067 0.00410624 1.99141)
(-0.00251447 0.00540247 1.96037)
(-0.00357488 0.00683204 1.92965)
(-0.00459161 0.00836417 1.89886)
(-0.00561179 0.00999468 1.86662)
(-0.00687363 0.0117586 1.83301)
(-0.0081614 0.0135175 1.79869)
(0.184015 0.0338869 2.41808)
(0.10237 0.0157031 2.37424)
(0.0887012 0.0272733 2.37983)
(0.146234 0.0192211 2.33031)
(0.136521 0.0165014 2.31026)
(0.0674908 -0.00129736 2.35365)
(0.125821 2.17648e-05 2.30799)
(0.140913 0.0100482 2.25613)
(0.100282 0.0110268 2.23667)
(0.0756706 -0.01148 2.31454)
(0.0932967 -0.00191896 2.27497)
(0.100253 0.00211334 2.2363)
(0.12452 0.0096148 2.19732)
(0.107997 0.0158232 2.18138)
(0.0281653 -0.00737206 2.29003)
(0.0678599 -0.0138811 2.2594)
(0.0959576 -0.00979919 2.21742)
(0.108367 0.00229557 2.17957)
(0.115309 0.00881066 2.14388)
(0.105316 0.0151031 2.13505)
(0.0229016 -0.011911 2.25577)
(0.0503562 -0.0141297 2.23778)
(0.0738355 -0.00870331 2.20855)
(0.085638 -0.00448619 2.1731)
(0.105283 0.00173277 2.13365)
(0.108817 0.00797639 2.09368)
(0.0885788 0.0137561 2.09318)
(0.0088056 -0.0060641 2.22946)
(0.0349154 -0.0134476 2.21145)
(0.05751 -0.0151985 2.19041)
(0.0700109 -0.00508256 2.16678)
(0.082918 -0.00141732 2.13222)
(0.0897978 0.00325161 2.09313)
(0.0950157 0.0100921 2.05417)
(0.0744607 0.0139655 2.05774)
(0.0167358 -0.00710852 2.20949)
(0.0296109 -0.00771021 2.19587)
(0.0472869 -0.0127248 2.17825)
(0.0657506 -0.0127853 2.15353)
(0.0734894 -0.00695262 2.12698)
(0.0771919 -0.00238811 2.09465)
(0.0764828 0.00347437 2.05837)
(0.0780743 0.0092573 2.02147)
(0.0664508 0.0136363 2.01868)
(0.00127785 -0.0126188 2.20668)
(0.0206248 -0.0176787 2.19744)
(0.0308957 -0.0131938 2.1766)
(0.0463718 -0.0133413 2.14944)
(0.0553626 -0.00909473 2.11953)
(0.0592744 -0.00525047 2.08427)
(0.0628147 -0.00101871 2.05115)
(0.0665926 0.00371855 2.01791)
(0.0658745 0.00967394 1.98418)
(0.0533681 0.013264 1.98358)
(0.0240712 -0.018172 2.19084)
(0.0210109 -0.0142364 2.18402)
(0.0251427 -0.0146604 2.16373)
(0.0341034 -0.0143451 2.14065)
(0.0390969 -0.0103639 2.11347)
(0.0455181 -0.00704079 2.08172)
(0.0504068 -0.00365608 2.04939)
(0.0524506 0.000780083 2.01681)
(0.0534594 0.00544438 1.98358)
(0.051975 0.0107316 1.95083)
(0.0401545 0.0133931 1.95118)
(-0.000501087 0.00981095 2.1777)
(0.00834512 -0.00242704 2.17318)
(0.0171835 -0.0099891 2.15646)
(0.0241399 -0.012014 2.13411)
(0.0287143 -0.0101786 2.10791)
(0.033604 -0.00764783 2.07896)
(0.0355437 -0.00430712 2.04859)
(0.0402182 -0.00122307 2.0172)
(0.0415208 0.00273993 1.98403)
(0.0400094 0.00706659 1.95086)
(0.039164 0.01108 1.91856)
(0.0256331 0.0134808 1.91834)
(-0.00339245 -0.00420381 2.17385)
(0.00550154 -0.0089826 2.16799)
(0.0103238 -0.00911938 2.15089)
(0.0140639 -0.00916043 2.12902)
(0.0177415 -0.00787436 2.10371)
(0.0227478 -0.00629167 2.07604)
(0.0267741 -0.00475831 2.047)
(0.028133 -0.00186155 2.01585)
(0.0285008 0.00143609 1.98288)
(0.0273235 0.00516932 1.9499)
(0.0263822 0.00870175 1.91737)
(0.0256737 0.0119725 1.88543)
(0.014695 0.0136739 1.88292)
(-0.0057827 -1.23525e-05 2.16851)
(-0.000816443 -0.00316531 2.15937)
(0.00309979 -0.00487371 2.14389)
(0.00544834 -0.00591909 2.12466)
(0.00911619 -0.00586843 2.10156)
(0.012948 -0.00475567 2.07553)
(0.0150742 -0.00323438 2.04659)
(0.0163406 -0.00116636 2.01452)
(0.0171102 0.00129713 1.9814)
(0.016249 0.00414576 1.94844)
(0.0153734 0.00691288 1.91646)
(0.0145762 0.0100005 1.88389)
(0.0141171 0.0130042 1.84882)
(0.000516179 0.0144387 1.84649)
(-0.00856397 -2.11524e-05 2.15919)
(-0.00563252 -0.000732377 2.14998)
(-0.00269477 -0.00192237 2.13731)
(-0.00117004 -0.00262989 2.11916)
(0.00130306 -0.00275974 2.09541)
(0.00336439 -0.00181149 2.06937)
(0.00432155 -0.000635314 2.0406)
(0.00434826 0.00108275 2.00912)
(0.00383146 0.00319192 1.97681)
(0.00288395 0.00537845 1.94473)
(0.00203473 0.00753874 1.91361)
(0.00143729 0.00976521 1.88138)
(0.000729302 0.012095 1.84687)
(-0.000264807 0.0146269 1.81145)
(-0.0083423 0.0140742 1.7983)
(-0.00642234 0.00110644 2.1281)
(-0.00611455 0.00222198 2.1219)
(-0.00491785 0.00116837 2.11283)
(-0.00415737 0.000513641 2.09498)
(-0.00286772 0.000917821 2.07244)
(-0.00194199 0.00186376 2.04755)
(-0.0017128 0.00270153 2.02092)
(-0.00199283 0.00355672 1.99131)
(-0.00265577 0.00483512 1.96034)
(-0.00364607 0.0062671 1.92966)
(-0.00463411 0.00776536 1.89903)
(-0.00557987 0.0093675 1.86726)
(-0.00677956 0.0111286 1.83359)
(-0.00801036 0.0129245 1.79931)
(-0.00933861 0.0147672 1.76375)
(0.124112 0.14855 2.42856)
(0.13257 0.0564539 2.41653)
(0.122286 0.0294476 2.41378)
(0.219807 0.0153695 2.35557)
(0.134674 0.0156825 2.3273)
(0.10907 0.0050677 2.38172)
(0.14149 0.0202452 2.33169)
(0.167245 0.00287753 2.26964)
(0.141316 0.0175914 2.25668)
(0.0737019 -0.00397624 2.33651)
(0.113113 -0.00828964 2.30861)
(0.145824 -0.000131087 2.25412)
(0.159805 0.00861443 2.20425)
(0.121682 0.016027 2.19613)
(0.0742388 -0.0156302 2.31855)
(0.110841 -0.0125795 2.2769)
(0.10356 -0.00257091 2.23527)
(0.122018 0.00501508 2.195)
(0.144885 0.00941293 2.15135)
(0.115359 0.0158484 2.14527)
(0.0310267 -0.0109829 2.2917)
(0.063728 -0.0145495 2.25835)
(0.0906885 -0.0148035 2.21493)
(0.110445 -0.00638285 2.17754)
(0.11589 0.00258499 2.14408)
(0.122218 0.00893116 2.10321)
(0.108368 0.0149378 2.09457)
(0.0199578 -0.0146673 2.25519)
(0.050667 -0.0167237 2.23655)
(0.0700198 -0.0156258 2.20704)
(0.0879398 -0.0104221 2.17157)
(0.105037 -0.00611965 2.13201)
(0.108037 0.000761391 2.09305)
(0.105427 0.00993468 2.05536)
(0.0949071 0.0157649 2.05431)
(0.0112969 -0.00782304 2.22861)
(0.0339252 -0.0171068 2.21259)
(0.0550848 -0.0169424 2.18929)
(0.0685865 -0.0140709 2.16365)
(0.0808963 -0.00805054 2.13292)
(0.0898283 -0.0031049 2.09307)
(0.0954837 0.00381028 2.05429)
(0.0949727 0.00996806 2.01832)
(0.0776322 0.0145236 2.02152)
(0.0279256 -0.0149176 2.22668)
(0.0319292 -0.0124001 2.19501)
(0.0447851 -0.0141791 2.17485)
(0.0598148 -0.0164567 2.15193)
(0.0694399 -0.0120644 2.12365)
(0.0763104 -0.00733239 2.09374)
(0.0790638 -0.00184121 2.05934)
(0.0794594 0.00364903 2.02173)
(0.0790491 0.00984158 1.98492)
(0.0655716 0.0142502 1.98451)
(-0.0027684 -0.0157015 2.20722)
(0.0157233 -0.0177849 2.19642)
(0.031342 -0.0177517 2.17555)
(0.0452737 -0.016447 2.14878)
(0.0539808 -0.0140691 2.11918)
(0.0590267 -0.00938792 2.08605)
(0.0623367 -0.00482503 2.05062)
(0.0655892 -0.000819493 2.0175)
(0.0661829 0.00470747 1.98356)
(0.0639354 0.0108917 1.95042)
(0.05106 0.014389 1.95071)
(-0.00665652 0.00270696 2.19111)
(0.0189841 -0.0160334 2.18355)
(0.0241974 -0.0166194 2.16341)
(0.0327113 -0.0168964 2.14037)
(0.037672 -0.0132292 2.11347)
(0.0445437 -0.0104289 2.08156)
(0.0489632 -0.00717471 2.04916)
(0.0519732 -0.00356121 2.01675)
(0.0533487 0.00126913 1.98327)
(0.0520581 0.0066389 1.9507)
(0.0501771 0.0113137 1.91897)
(0.0388548 0.0141676 1.91881)
(-0.00151041 0.00473258 2.17833)
(0.00927408 -0.00405812 2.17506)
(0.0166997 -0.0117506 2.15637)
(0.0230103 -0.0141524 2.13412)
(0.0278028 -0.0129881 2.10778)
(0.0324743 -0.0104337 2.07883)
(0.0359055 -0.00770534 2.04888)
(0.0386352 -0.00433524 2.01666)
(0.0409044 -0.000695007 1.98381)
(0.0395332 0.00365904 1.95071)
(0.0387595 0.0077951 1.91818)
(0.0381596 0.0123245 1.88605)
(0.0254168 0.0145222 1.88561)
(-0.00436718 -0.00433589 2.17409)
(0.00470658 -0.00985454 2.16798)
(0.00959386 -0.0103592 2.15081)
(0.0131128 -0.0105696 2.12895)
(0.0169072 -0.00976044 2.10372)
(0.0219736 -0.00837678 2.07602)
(0.0259532 -0.00703662 2.04686)
(0.027474 -0.00454606 2.01577)
(0.0278465 -0.00117577 1.98299)
(0.0269397 0.00257407 1.94985)
(0.0261951 0.00598579 1.91741)
(0.0259982 0.00957038 1.88447)
(0.0256665 0.0132076 1.85129)
(0.0140123 0.0148512 1.84888)
(-0.00587619 -0.000420195 2.16852)
(-0.0011648 -0.00363455 2.15926)
(0.00248841 -0.00554746 2.14383)
(0.00459953 -0.0068049 2.12459)
(0.00833535 -0.00714316 2.10143)
(0.0121603 -0.0062329 2.07548)
(0.0145013 -0.00499699 2.04678)
(0.0156527 -0.00289259 2.01449)
(0.0165953 -0.000522477 1.98111)
(0.0158225 0.00222424 1.94831)
(0.0151738 0.005065 1.9161)
(0.0146114 0.00798795 1.88381)
(0.0138826 0.0111294 1.84992)
(0.0138446 0.0141647 1.81402)
(-0.000416141 0.0157468 1.81157)
(-0.00891017 -1.70789e-05 2.15922)
(-0.0060239 -0.000899457 2.14997)
(-0.00319443 -0.0023244 2.1374)
(-0.00171287 -0.00325003 2.11896)
(0.000750067 -0.00353348 2.0954)
(0.00282834 -0.00268888 2.06892)
(0.00381016 -0.00165508 2.04059)
(0.00386868 -1.19367e-05 2.00919)
(0.00342305 0.0020742 1.97689)
(0.00256272 0.00425198 1.94467)
(0.00192375 0.00637687 1.91277)
(0.00126841 0.00850083 1.88124)
(0.000621964 0.0109513 1.84736)
(-0.000214044 0.0133543 1.81216)
(-0.00108272 0.0159795 1.77561)
(-0.00951517 0.0153288 1.76339)
(-0.00676889 0.00121512 2.1275)
(-0.00624716 0.0020933 2.12106)
(-0.00507228 0.000932499 2.11125)
(-0.00441475 0.000265057 2.09493)
(-0.0030807 0.000627203 2.0724)
(-0.00215149 0.00148906 2.04821)
(-0.00197051 0.00216544 2.02055)