/*--------------------------------*- C++ -*----------------------------------*\
  =========                 |
  \\      /  F ield         | OpenFOAM: The Open Source CFD Toolbox
   \\    /   O peration     | Website:  https://openfoam.org
    \\  /    A nd           | Version:  7
     \\/     M anipulation  |
\*---------------------------------------------------------------------------*/
FoamFile
{
    version     2.0;
    format      ascii;
    class       volScalarField;
    location    "3";
    object      p;
}
// * * * * * * * * * * * * * * * * * * * * * * * * * * * * * * * * * * * * * //

dimensions      [0 2 -2 0 0 0 0];

internalField   nonuniform List<scalar> 
18750
(
-73.5586
-72.3778
-73.5576
-73.6905
-74.3528
-72.9601
-72.5265
-74.7884
-73.6255
-73.67
-73.4815
-73.7481
-74.0654
-73.7385
-73.0193
-72.6816
-75.0472
-74.8314
-73.7969
-73.589
-67.8007
-73.65
-73.0064
-73.8276
-73.5913
-73.7251
-74.1133
-73.7539
-73.0952
-72.8224
-75.3659
-75.1028
-74.8379
-73.9766
-73.5681
-66.7608
-71.0168
-67.8556
-74.9356
-72.9447
-72.3071
-73.6105
-73.7687
-73.524
-73.4777
-74.036
-74.1137
-73.7798
-73.1863
-72.9563
-75.7995
-75.3551
-75.1495
-74.757
-74.1697
-73.578
-65.1181
-67.8941
-66.4334
-71.9269
-70.2082
-67.9245
-74.174
-74.4331
-72.5276
-71.6122
-73.7123
-73.6079
-73.7672
-73.5166
-73.365
-74.6444
-74.0529
-74.1131
-73.8236
-73.2911
-73.0971
-75.7926
-75.7678
-75.3362
-75.1931
-74.6984
-74.3032
-73.5124
-63.3922
-64.9124
-65.0929
-68.2981
-67.9867
-66.6491
-72.5418
-71.271
-69.7412
-67.6982
-72.9763
-73.8276
-73.8529
-72.4196
-71.4586
-73.7468
-73.7451
-73.6005
-73.7633
-73.5831
-73.2861
-75.1264
-74.583
-74.063
-74.1221
-73.8727
-73.4056
-73.2372
-75.3663
-75.7647
-75.7405
-75.3211
-75.2284
-74.7662
-74.385
-73.4347
-62.3926
-63.6972
-63.45
-65.9617
-65.1743
-65.1023
-69.442
-68.4073
-68.0905
-66.7403
-72.376
-72.1157
-70.8679
-69.5476
-67.5179
-72.6461
-72.8403
-73.3997
-73.472
-72.4997
-71.3366
-73.8641
-73.7723
-73.7467
-73.5729
-73.7957
-73.6823
-73.3761
-75.3428
-75.0437
-74.5178
-74.0721
-74.1282
-73.9496
-73.5286
-73.3897
-74.8893
-75.3279
-75.7315
-75.7029
-75.3124
-75.234
-74.8729
-74.4361
-73.4181
-61.5712
-62.5113
-62.3831
-63.5327
-63.7414
-63.5366
-66.1455
-66.4325
-65.3344
-65.1328
-69.7184
-69.1572
-68.5746
-68.2295
-66.5811
-71.9499
-72.319
-71.6039
-70.7669
-69.9382
-67.3457
-72.9316
-72.7626
-72.8378
-73.0913
-73.2644
-72.6576
-71.3464
-74.4963
-73.8476
-73.7943
-73.7411
-73.5564
-73.842
-73.7856
-73.6847
-74.7915
-75.2433
-74.9429
-74.4679
-74.0685
-74.1335
-74.034
-73.6581
-73.5754
-74.8523
-74.8838
-75.278
-75.6958
-75.6588
-75.3023
-75.2398
-74.8917
-74.3832
-73.4522
-60.8651
-61.6109
-61.4671
-62.5733
-62.5559
-62.429
-64.1876
-63.4649
-63.6347
-63.5512
-66.5671
-66.4695
-66.9157
-65.6434
-65.1774
-69.4034
-69.7577
-69.2212
-68.8975
-68.7474
-66.5655
-70.8974
-71.9263
-71.9496
-71.3181
-70.5695
-69.9926
-67.0628
-73.0722
-72.9777
-72.8848
-72.7971
-72.8917
-73.1346
-72.7848
-71.7709
-74.496
-74.2181
-73.8462
-73.8615
-73.7362
-73.5581
-73.9071
-73.9488
-74.075
-74.7602
-74.755
-75.1387
-74.8627
-74.4411
-74.0562
-74.1296
-74.1003
-73.7841
-73.7574
-75.2392
-74.848
-74.8768
-75.2239
-75.6569
-75.6133
-75.2645
-75.251
-74.893
-74.3171
-73.4928
-60.0779
-60.904
-60.7313
-61.5426
-61.5108
-61.4243
-62.6464
-62.7096
-62.6147
-62.4089
-64.2251
-64.2819
-63.7501
-63.6435
-63.6866
-67.0548
-66.719
-66.5889
-66.7511
-65.3167
-65.2559
-69.3698
-69.6449
-69.6441
-69.1486
-69.1977
-69.1608
-66.5318
-71.1905
-71.1239
-71.884
-71.5812
-70.9222
-70.36
-69.8955
-67.0188
-73.4507
-73.0495
-73.0638
-72.9237
-72.7618
-72.7866
-73.0713
-72.836
-72.2353
-74.3557
-74.4104
-74.1625
-73.8756
-73.8853
-73.7058
-73.5589
-73.9905
-74.1862
-74.4866
-75.0211
-74.7558
-74.7228
-75.0166
-74.7874
-74.4169
-74.0479
-74.1141
-74.1642
-73.9151
-73.9241
-75.2653
-75.2319
-74.8434
-74.8672
-75.1643
-75.6054
-75.5796
-75.2186
-75.2507
-74.9007
-74.3325
-73.5296
-59.5342
-60.1153
-60.05
-60.8759
-60.821
-60.6008
-61.5635
-61.6007
-61.4814
-61.4724
-62.8443
-62.8314
-62.7391
-62.4452
-62.3348
-64.5613
-64.3691
-64.1656
-63.7849
-63.7401
-63.525
-67.1366
-67.2554
-66.9101
-66.7826
-66.5333
-65.5702
-65.2946
-69.1017
-69.5413
-69.8208
-70.0267
-69.3988
-69.1591
-69.3628
-66.7423
-71.5795
-71.2497
-71.3386
-71.8005
-71.5757
-70.7234
-69.9566
-70.1418
-66.9475
-73.5039
-73.4412
-73.0819
-73.0902
-73.0404
-72.7434
-72.7394
-73.0829
-73.1269
-72.5482
-74.5938
-74.2831
-74.3574
-74.1337
-73.7888
-73.8756
-73.6585
-73.5704
-74.1429
-74.3264
-75.0988
-75.1331
-74.9974
-74.7539
-74.6923
-74.8911
-74.7315
-74.38
-74.0476
-74.1356
-74.2279
-74.0351
-74.0913
-75.6495
-75.2326
-75.2198
-74.8372
-74.8566
-75.1223
-75.55
-75.5572
-75.2041
-75.2473
-74.8936
-74.3562
-73.5744
-59.1841
-59.6208
-59.534
-60.025
-60.0255
-60.0412
-60.9402
-60.8198
-60.7305
-60.4408
-61.742
-61.6779
-61.6
-61.4393
-61.4943
-63.0388
-62.9891
-62.8482
-62.7516
-62.53
-62.4285
-64.7471
-64.6621
-64.533
-64.2585
-63.4037
-63.6727
-63.4632
-67.2187
-67.3475
-67.3577
-67.3417
-67.1106
-66.2523
-65.7593
-65.3683
-69.0597
-69.1854
-69.7594
-69.9087
-70.2515
-69.9634
-69.2602
-69.8354
-67.1116
-71.8134
-71.474
-71.2924
-71.4566
-71.9714
-71.4581
-70.9317
-70.0498
-70.0578
-66.889
-73.994
-73.462
-73.4269
-73.1572
-73.0802
-73.0271
-72.7119
-72.7072
-73.308
-73.2083
-72.7615
-74.5794
-74.497
-74.2178
-74.2938
-73.99
-73.714
-73.8472
-73.5872
-73.5998
-74.3989
-74.4884
-75.5474
-75.5609
-75.0658
-74.975
-74.753
-74.6515
-74.7606
-74.6262
-74.3409
-74.0453
-74.1859
-74.281
-74.1685
-74.245
-76.0887
-75.5927
-75.2057
-75.2064
-74.8299
-74.8392
-75.0735
-75.5029
-75.5303
-75.2149
-75.2452
-74.9041
-74.3333
-73.6159
-58.8663
-59.2738
-59.2409
-59.49
-59.6028
-59.5113
-60.173
-60.1449
-59.9378
-59.8137
-60.9375
-60.8933
-60.8426
-60.6325
-60.6749
-61.9278
-61.7389
-61.6881
-61.5033
-61.2691
-61.5351
-63.1703
-63.1186
-63.0694
-62.9033
-62.8012
-62.6534
-62.3405
-64.8079
-64.9129
-64.7549
-64.5283
-64.2309
-63.2014
-63.7145
-63.55
-67.4329
-67.3246
-67.3778
-67.6178
-67.2192
-67.1996
-66.4076
-65.7302
-65.4261
-69.1926
-69.0354
-68.9904
-69.7979
-70.1327
-69.8938
-70.1427
-69.1576
-69.6781
-67.3995
-72.2149
-71.907
-71.6799
-71.4548
-71.6827
-71.9758
-71.1309
-70.5863
-70.1022
-70.2386
-66.6711
-74.3987
-73.8679
-73.398
-73.3379
-73.1317
-73.0857
-72.9507
-72.5764
-72.6784
-73.4291
-73.0153
-73.0233
-75.27
-74.5208
-74.3974
-74.138
-74.171
-73.8321
-73.6741
-73.7772
-73.4541
-73.6545
-74.7761
-74.6549
-75.7635
-75.8411
-75.4369
-75.0055
-74.9442
-74.7459
-74.5975
-74.6628
-74.5237
-74.3114
-74.0264
-74.2345
-74.3271
-74.3036
-74.3484
-77.0589
-76.0345
-75.534
-75.1778
-75.1821
-74.8215
-74.81
-75.0398
-75.4655
-75.5033
-75.2255
-75.2442
-74.9128
-74.3201
-73.6518
-58.6348
-58.9472
-58.9
-59.2689
-59.3737
-59.2164
-59.6195
-59.5985
-59.4771
-59.5212
-60.2759
-60.2456
-59.931
-59.7935
-59.762
-61.0227
-61.0028
-60.8959
-60.8141
-60.5707
-60.7316
-62.0537
-61.9325
-61.8186
-61.6305
-61.4794
-61.4367
-61.6071
-63.3046
-63.313
-63.1879
-63.1331
-62.9964
-62.6919
-62.587
-62.5465
-64.9926
-64.8678
-64.9283
-64.8095
-64.4629
-64.2644
-63.3322
-63.674
-63.3125
-67.4165
-67.3941
-67.2753
-67.5069
-67.4891
-67.3467
-66.6892
-66.1299
-66.0218
-65.7032
-69.785
-69.1359
-69.0407
-69.0086
-69.7743
-70.1478
-69.6304
-69.9624
-68.8268
-69.5199
-67.6893
-72.9818
-72.3052
-72.0013
-71.7142
-71.5285
-71.8389
-71.8815
-70.6896
-70.4048
-70.1026
-70.4965
-66.6394
-74.7739
-74.3609
-73.799
-73.3014
-73.2375
-73.0925
-73.024
-72.8817
-72.3398
-72.8079
-73.7403
-73.3639
-72.9729
-75.59
-75.1155
-74.4857
-74.2907
-74.0321
-74.0329
-73.7281
-73.6461
-73.7313
-73.3463
-73.7571
-75.1045
-74.8579
-75.9758
-77.0877
-75.7296
-75.3186
-74.948
-74.8953
-74.72
-74.5204
-74.5738
-74.4623
-74.2907
-74.0277
-74.2852
-74.3631
-74.4426
-74.3671
-77.487
-76.9607
-75.9739
-75.4765
-75.1485
-75.1482
-74.7951
-74.7656
-75.0129
-75.4324
-75.4778
-75.2258
-75.2435
-74.9268
-74.3259
-73.6658
-58.4668
-58.6664
-58.6247
-58.9138
-58.9303
-58.9473
-59.3027
-59.2043
-59.3281
-59.1627
-59.677
-59.6409
-59.575
-59.4083
-59.3282
-60.3435
-60.3183
-60.178
-60.0477
-59.8764
-60.0483
-61.1661
-61.0752
-60.8774
-60.8605
-60.8534
-60.6427
-60.7945
-62.1483
-62.1129
-61.9697
-61.8932
-61.6532
-61.4666
-61.4988
-61.5202
-63.3712
-63.3873
-63.3601
-63.264
-63.1667
-62.9296
-62.7489
-62.6258
-62.8082
-65.2369
-65.0433
-64.9254
-65.0114
-64.8049
-64.6495
-64.3094
-63.7458
-63.6803
-63.3087
-67.7756
-67.477
-67.2904
-67.3337
-67.5609
-67.5931
-67.5389
-66.9258
-65.898
-65.661
-65.8529
-70.2498
-69.6483
-69.202
-69.0847
-68.981
-69.8763
-70.1149
-70.5321
-69.7134
-68.4885
-69.4968
-68.1958
-73.8181
-73.0033
-72.4736
-71.967
-71.7669
-71.6446
-71.9653
-71.9034
-71.379
-70.1692
-70.0791
-70.719
-67.1366
-75.0156
-74.683
-74.2971
-73.6709
-73.1654
-73.1287
-73.019
-73.0033
-72.8425
-72.139
-72.772
-74.1469
-74.0458
-72.5432
-76.5326
-75.4357
-74.9717
-74.4343
-74.1582
-73.9001
-73.9179
-73.627
-73.6011
-73.7408
-73.2835
-73.9178
-75.3634
-75.1197
-76.044
-78.2433
-76.8976
-75.6211
-75.2085
-74.907
-74.8394
-74.6687
-74.4318
-74.4872
-74.3963
-74.2688
-74.0418
-74.3223
-74.3883
-74.5704
-74.3418
-77.1799
-77.4468
-76.871
-75.9134
-75.4243
-75.113
-75.1075
-74.7517
-74.7039
-74.9831
-75.4062
-75.4645
-75.228
-75.2425
-74.9378
-74.3042
-73.6617
-58.2753
-58.4852
-58.449
-58.6655
-58.6316
-58.6061
-58.901
-58.8923
-58.9719
-58.909
-59.3345
-59.2338
-59.3255
-59.2767
-59.1358
-59.769
-59.7179
-59.6759
-59.5933
-59.4556
-59.5245
-60.4091
-60.4665
-60.2698
-60.182
-59.9331
-59.9599
-60.0338
-61.2459
-61.2001
-61.0025
-60.9704
-60.8364
-60.8161
-60.6687
-60.6959
-62.2879
-62.1508
-62.083
-62.0301
-61.8481
-61.7182
-61.1796
-61.4731
-61.5708
-63.6019
-63.5322
-63.504
-63.4031
-63.2764
-63.1528
-62.9073
-63.0204
-62.592
-62.8171
-65.4037
-65.2134
-64.9918
-64.9557
-65.0457
-64.8626
-64.7175
-64.3788
-63.8982
-63.7266
-63.4257
-67.6294
-67.8328
-67.4687
-67.3859
-67.4471
-67.6901
-67.8199
-67.9095
-67.0802
-65.772
-65.6055
-65.7939
-70.8351
-70.2207
-69.7774
-69.1219
-68.9998
-69.0793
-69.8599
-70.1763
-70.5572
-69.508
-68.5869
-68.9534
-68.3065
-74.0454
-73.8932
-73.0263
-72.3797
-71.9107
-71.757
-71.6838
-72.2214
-71.9241
-71.1711
-69.9767
-70.232
-70.6799
-67.4789
-75.5543
-74.871
-74.6388
-74.1668
-73.4751
-73.0376
-72.9959
-72.9448
-73.1348
-72.6956
-71.9982
-72.818
-74.3575
-74.6225
-72.212
-77.7526
-76.2331
-75.2798
-74.8428
-74.4203
-74.0369
-73.768
-73.7577
-73.5469
-73.5657
-73.6372
-73.2621
-74.1672
-75.4518
-75.3186
-76.0439
-78.0944
-78.1156
-76.7071
-75.5197
-75.1103
-74.8676
-74.779
-74.6043
-74.3565
-74.4261
-74.3411
-74.2479
-74.0656
-74.3541
-74.4151
-74.676
-74.3463
-77.0387
-77.1812
-77.4012
-76.7895
-75.8578
-75.3735
-75.0741
-75.0636
-74.6913
-74.6294
-74.9532
-75.3889
-75.4557
-75.2462
-75.2401
-74.9283
-74.2974
-73.6595
-58.074
-58.2858
-58.2642
-58.5434
-58.5039
-58.4564
-58.6578
-58.6253
-58.6217
-58.6212
-58.9818
-58.8782
-58.9512
-58.8723
-58.8482
-59.3347
-59.3207
-59.3062
-59.1284
-59.0692
-59.2991
-59.8998
-59.7935
-59.7234
-59.633
-59.5561
-59.606
-59.5517
-60.5809
-60.4428
-60.3419
-60.2225
-60.1641
-60.0131
-59.9577
-60.0038
-61.3702
-61.2879
-61.1748
-61.0425
-61.0297
-60.8105
-60.8008
-60.702
-60.5242
-62.4585
-62.3465
-62.1998
-62.1031
-62.0511
-61.8087
-61.4916
-61.1414
-61.753
-61.7229
-63.59
-63.5702
-63.5688
-63.4995
-63.4691
-63.2784
-63.221
-63.0219
-62.9389
-62.5966
-62.858
-65.6531
-65.4655
-65.131
-65.0181
-65.0152
-65.0093
-64.8749
-64.946
-64.3601
-64.0043
-63.8434
-63.6943
-67.9455
-67.9909
-67.6187
-67.481
-67.3549
-67.4627
-67.7637
-68.0701
-67.1305
-66.8894
-65.6916
-65.5384
-65.8497
-71.4208
-71.0679
-70.2359
-69.6826
-69.161
-69.1157
-69.3098
-69.8529
-70.4543
-70.1911
-69.3834
-68.579
-68.6475
-67.8347
-74.2484
-74.1405
-73.7676
-72.9591
-72.3527
-71.816
-71.4939
-71.6812
-72.2669
-71.8389
-70.9632
-70.1682
-70.2603
-70.6025
-67.8693
-76.2623
-75.2808
-74.7587
-74.4366
-74.0099
-73.3526
-72.9739
-72.8613
-72.8783
-73.0128
-72.6855
-71.9341
-72.9956
-74.5235
-75.0685
-72.0148
-77.9876
-77.5261
-75.9864
-75.1349
-74.717
-74.4051
-73.9184
-73.6608
-73.6129
-73.4782
-73.5094
-73.6735
-73.2493
-74.4169
-75.3602
-75.4277
-76.0305
-77.889
-78.068
-77.9781
-76.5244
-75.4199
-75.0263
-74.8128
-74.727
-74.5293
-74.2844
-74.3827
-74.3153
-74.2329
-74.0941
-74.405
-74.4556
-74.7492
-74.3796
-76.9142
-77.0509
-77.1801
-77.3478
-76.7254
-75.797
-75.3253
-75.0269
-75.0248
-74.6205
-74.5656
-74.9298
-75.3793
-75.4423
-75.2637
-75.2372
-74.9223
-74.3125
-73.659
-58.0675
-58.1373
-58.1004
-58.2798
-58.3256
-58.2646
-58.5483
-58.4699
-58.4853
-58.4452
-58.6825
-58.6718
-58.6428
-58.6109
-58.6485
-59.0086
-58.9809
-58.9477
-58.9427
-58.8041
-58.8875
-59.4568
-59.3669
-59.3223
-59.2232
-59.266
-59.2863
-59.2673
-60.0119
-59.8416
-59.7508
-59.6919
-59.6742
-59.5986
-59.5547
-59.5039
-60.7045
-60.5207
-60.4447
-60.3183
-60.2355
-60.1543
-60.0216
-59.8913
-59.966
-61.5341
-61.4208
-61.2517
-61.0838
-61.1152
-60.9761
-60.808
-60.8402
-60.7052
-60.628
-62.5373
-62.481
-62.3248
-62.2683
-62.2208
-61.9144
-61.785
-61.5217
-61.4343
-61.8645
-61.851
-64.1348
-63.6549
-63.708
-63.654
-63.5128
-63.5037
-63.3617
-63.2098
-62.8475
-62.9038
-62.6732
-62.8771
-65.8114
-65.6041
-65.2981
-65.1926
-65.1151
-65.1463
-65.1671
-65.0621
-64.8742
-64.486
-64.2087
-64.1387
-63.9481
-68.4609
-68.2899
-67.8473
-67.7285
-67.429
-67.3617
-67.5002
-67.8617
-68.0674
-67.5785
-66.6742
-66.2463
-65.6248
-65.7381
-71.6028
-71.6341
-71.2296
-70.2602
-69.6521
-69.2239
-69.124
-69.4944
-69.9531
-70.4956
-70.1345
-69.2064
-68.6002
-68.2555
-67.5863
-74.6004
-74.1956
-74.2699
-73.4777
-72.7574
-72.1231
-71.6058
-71.6113
-71.6683
-72.1385
-71.8436
-70.7128
-70.4181
-70.14
-70.474
-68.2552
-76.169
-75.9641
-75.1243
-74.6601
-74.1877
-73.8046
-73.1393
-72.7768
-72.8275
-72.8514
-72.8014
-72.4946
-72.0572
-73.3715
-74.3403
-74.9628
-71.8822
-77.7356
-77.8407
-77.2875
-75.7654
-74.9859
-74.5447
-74.3127
-73.7799
-73.5574
-73.4874
-73.3951
-73.4573
-73.5586
-73.2466
-74.6496
-75.2862
-75.5665
-75.9849
-77.6323
-77.9025
-78.032
-77.8032
-76.3608
-75.3287
-74.9481
-74.7514
-74.6816
-74.4518
-74.212
-74.3152
-74.2833
-74.2204
-74.1272
-74.4553
-74.5125
-74.7668
-74.4152
-76.6848
-76.9658
-77.0574
-77.1732
-77.2901
-76.6673
-75.7208
-75.2739
-74.9778
-74.9914
-74.5478
-74.5236
-74.9077
-75.3759
-75.4346
-75.2717
-75.2339
-74.912
-74.3063
-73.6614
-57.8502
-58.0681
-58.0397
-58.2355
-58.1964
-58.0664
-58.3629
-58.1523
-58.3125
-58.2857
-58.5284
-58.5289
-58.4775
-58.4338
-58.4385
-58.7495
-58.7351
-58.6634
-58.6651
-58.6404
-58.6901
-59.0657
-59.0321
-59.014
-58.9196
-58.8877
-58.8977
-58.9075
-59.5436
-59.4857
-59.388
-59.2767
-59.2614
-59.2594
-59.2401
-59.2699
-60.091
-59.9814
-59.7503
-59.7299
-59.7393
-59.7219
-59.6324
-59.4805
-59.5171
-60.8149
-60.7288
-60.513
-60.3951
-60.3638
-60.2655
-60.1805
-59.9934
-59.9072
-60.0371
-61.6657
-61.5503
-61.412
-61.2861
-61.134
-60.9459
-61.0119
-60.7405
-60.9173
-60.7419
-60.7199
-62.9478
-62.6002
-62.5235
-62.4396
-62.2958
-62.2264
-62.0372
-61.645
-61.6001
-61.5767
-61.7714
-61.8367
-64.5004
-63.686
-63.8221
-63.7514
-63.6772
-63.5439
-63.5119
-63.4256
-63.1562
-62.9276
-63.365
-62.7111
-62.8977
-66.2827
-65.5134
-65.6889
-65.2862
-65.2497
-65.1724
-65.3113
-65.3157
-65.2298
-64.7981
-64.5054
-64.4065
-64.3866
-64.0994
-68.591
-68.5449
-68.2673
-67.6837
-67.5583
-67.3384
-67.4189
-67.6449
-67.8906
-68.0327
-67.746
-66.5443
-66.2342
-65.6884
-65.5553
-71.6916
-71.7799
-71.8249
-71.21
-70.1247
-69.5637
-69.1636
-69.1246
-69.4203
-70.2951
-70.3477
-70.0017
-69.039
-68.5465
-68.1986
-67.6768
-74.2338
-74.3711
-74.2392
-74.1917
-73.3693
-72.5663
-71.9445
-71.4906
-71.6327
-71.7317
-72.2388
-71.3045
-70.5638
-70.6146
-69.7702
-70.421
-68.2792
-76.7749
-76.081
-75.8176
-75.0683
-74.4982
-74.0435
-73.5754
-72.9736
-72.652
-72.7213
-72.8096
-72.7074
-72.185
-72.043
-73.4893
-74.0824
-74.4007
-71.7121
-77.1734
-77.8698
-77.7256
-77.0262
-75.5481
-74.8259
-74.3709
-74.2025
-73.6655
-73.4586
-73.3917
-73.3187
-73.4003
-73.5056
-73.3047
-74.9863
-75.1834
-75.629
-75.9654
-76.7981
-77.6994
-77.9133
-77.9949
-77.6303
-76.2067
-75.2461
-74.875
-74.6798
-74.624
-74.3711
-74.1385
-74.2545
-74.2593
-74.2022
-74.162
-74.4995
-74.5603
-74.7759
-74.4427
-76.7538
-76.7075
-77.0093
-77.0608
-77.1592
-77.2261
-76.6035
-75.6444
-75.2153
-74.9372
-74.9496
-74.4826
-74.4885
-74.8938
-75.3742
-75.4301
-75.2786
-75.2308
-74.9022
-74.304
-73.6647
-57.6927
-57.8448
-57.8358
-58.0346
-58.0488
-58.0142
-58.0837
-58.167
-58.127
-58.1026
-58.3729
-58.3492
-58.3539
-58.3076
-58.2467
-58.5664
-58.5263
-58.5113
-58.4596
-58.428
-58.4652
-58.7864
-58.7831
-58.753
-58.6908
-58.6973
-58.6832
-58.6958
-59.1513
-59.132
-59.0253
-58.986
-58.9202
-58.899
-58.9313
-58.9636
-59.6863
-59.5804
-59.4478
-59.341
-59.3268
-59.3098
-59.2769
-59.2471
-59.2286
-60.1836
-60.0512
-59.9052
-59.8334
-59.8209
-59.7454
-59.7019
-59.5296
-59.4742
-59.5917
-60.99
-60.7951
-60.704
-60.5328
-60.3792
-60.3013
-60.3177
-60.1627
-59.9596
-59.9793
-60.0861
-61.7617
-61.6675
-61.5476
-61.3955
-61.3511
-61.1508
-61.1391
-60.9452
-60.8106
-60.9861
-60.7425
-60.799
-63.1014
-62.8715
-62.5525
-62.5028
-62.5078
-62.2321
-62.067
-62.0463
-61.6609
-61.6008
-61.5772
-61.8926
-61.8443
-64.6386
-64.0271
-63.7812
-63.8533
-63.7663
-63.6129
-63.5945
-63.5393
-63.3778
-63.3849
-62.8468
-62.7815
-62.7291
-62.9435
-66.5102
-66.2105
-65.6453
-65.5988
-65.3847
-65.2598
-65.2288
-65.1519
-65.3883
-65.2604
-64.864
-64.6075
-64.3925
-64.4478
-64.1424
-68.5749
-68.7915
-68.5465
-68.295
-67.7038
-67.6081
-67.412
-67.3407
-67.713
-67.9084
-68.173
-67.7027
-66.8093
-66.286
-65.8171
-65.4787
-71.6655
-72.177
-71.9906
-71.9945
-70.9126
-70.0158
-69.3494
-69.2986
-69.042
-69.4614
-70.2841
-70.3679
-69.8779
-68.948
-68.4761
-68.0875
-67.6094
-74.0519
-74.4353
-74.5511
-74.248
-74.121
-73.149
-72.3695
-71.6781
-71.779
-71.4563
-71.8526
-72.1207
-71.3695
-70.461
-70.7761
-69.5168
-70.283
-68.4317
-75.9723
-76.6594
-76.1366
-75.6087
-74.9451
-74.3826
-73.8208
-73.3406
-72.8132
-72.7184
-72.6222
-72.7599
-72.5935
-72.2378
-72.0473
-73.8594
-73.7656
-74.2461
-71.6554
-76.2651
-77.3064
-77.797
-77.5768
-76.7545
-75.3644
-74.6588
-74.2272
-74.0703
-73.5813
-73.3441
-73.3284
-73.288
-73.3512
-73.466
-73.4085
-75.1736
-75.0706
-75.6399
-75.9831
-76.0916
-76.9178
-77.7485
-77.9358
-77.927
-77.461
-76.0693
-75.1648
-74.792
-74.6053
-74.5636
-74.2844
-74.0797
-74.2291
-74.2434
-74.1975
-74.1887
-74.5527
-74.6094
-74.772
-74.4815
-76.8316
-76.7561
-76.7394
-77.0457
-77.0616
-77.1438
-77.1548
-76.5398
-75.5769
-75.1584
-74.8994
-74.9099
-74.4394
-74.455
-74.8875
-75.3748
-75.424
-75.2839
-75.2284
-74.8951
-74.323
-73.6687
-57.6004
-57.6881
-57.7485
-57.8861
-57.8672
-57.8264
-58.0155
-58.1193
-58.0307
-57.9835
-58.1725
-58.1257
-58.0984
-58.1939
-58.0812
-58.397
-58.3537
-58.3241
-58.3252
-58.282
-58.2422
-58.6656
-58.5727
-58.5246
-58.4945
-58.4522
-58.4762
-58.4711
-58.9254
-58.7996
-58.7743
-58.7586
-58.7106
-58.6896
-58.6964
-58.7124
-59.2451
-59.1867
-59.1428
-59.0273
-58.9698
-58.9264
-58.9879
-58.9471
-58.9568
-59.7944
-59.6747
-59.5225
-59.4007
-59.3781
-59.3118
-59.2929
-59.276
-59.2187
-59.271
-60.2536
-60.2005
-60.0389
-59.9244
-59.8712
-59.8319
-59.7636
-59.688
-59.5436
-59.5598
-59.6461
-61.082
-60.9218
-60.8048
-60.5207
-60.5228
-60.4593
-60.2322
-60.3084
-60.1501
-60.0155
-60.0278
-60.1451
-61.8955
-61.8866
-61.635
-61.5938
-61.5205
-61.3219
-61.1819
-61.0513
-60.9022
-60.6517
-60.6802
-60.754
-60.7622
-63.1554
-63.1378
-62.7339
-62.6188
-62.5225
-62.3959
-62.253
-62.0418
-61.9631
-61.644
-61.7613
-61.8121
-61.9334
-61.785
-64.8177
-64.6483
-64.1985
-64.0893
-63.8749
-63.8302
-63.7407
-63.572
-63.4888
-63.4738
-63.2555
-62.9943
-62.9146
-62.9117
-62.9849
-66.7236
-66.5409
-66.116
-65.94
-65.6241
-65.4041
-65.3228
-65.2146
-65.1997
-65.2085
-65.2556
-64.855
-64.6518
-64.4782
-64.3407
-64.2285
-68.6922
-68.8662
-68.9701
-68.7496
-67.9404
-67.6931
-67.4977
-67.3848
-67.4258
-67.823
-68.1218
-68.1887
-67.6481
-66.8468
-66.2714
-65.8644
-65.354
-71.3226
-72.0103
-72.4662
-72.3253
-72.1063
-70.7186
-69.8548
-69.2926
-69.3794
-68.9868
-69.6553
-70.3842
-70.4242
-69.8254
-68.8748
-68.4057
-67.9244
-66.9688
-73.1037
-73.7446
-74.5421
-74.6505
-74.2401
-73.9387
-72.8824
-72.1233
-71.5124
-71.6502
-71.4767
-71.8416
-72.0623
-71.6807
-70.3963
-70.5903
-69.5237
-69.7915
-68.4762
-74.573
-76.0466
-76.3361
-75.9734
-75.4745
-74.779
-74.2663
-73.6117
-73.1124
-72.6457
-72.5085
-72.55
-72.6849
-72.5463
-72.289
-72.0753
-74.2164
-73.555
-74.2184
-71.8284
-75.2708
-76.3707
-77.3537
-77.9067
-77.4196
-76.5124
-75.2111
-74.5023
-74.1258
-73.9151
-73.5152
-73.2563
-73.2475
-73.2736
-73.3459
-73.4373
-73.5268
-75.2825
-75.016
-75.6253
-76.0607
-75.6328
-76.1809
-77.0124
-77.7984
-77.9594
-77.8431
-77.2981
-75.9256
-75.087
-74.6998
-74.5311
-74.5056
-74.2036
-74.033
-74.2173
-74.2327
-74.2142
-74.2203
-74.6111
-74.6734
-74.7828
-74.5255
-73.6824
-76.0541
-76.8562
-76.7621
-76.7584
-77.0861
-77.0595
-77.1228
-77.074
-76.4747
-75.5142
-75.1065
-74.8617
-74.8786
-74.4065
-74.4282
-74.8879
-75.3766
-75.4293
-75.2848
-75.2264
-74.8827
-74.3285
-73.6733
-57.5175
-57.6082
-57.6279
-57.7743
-57.7669
-57.7591
-57.8961
-57.8548
-57.8444
-57.8407
-58.0229
-58.0884
-57.8668
-57.9885
-57.9846
-58.1701
-58.1353
-58.1696
-58.1931
-58.1187
-58.1017
-58.4076
-58.3885
-58.3457
-58.3068
-58.2845
-58.255
-58.2294
-58.6626
-58.6177
-58.5689
-58.5419
-58.4854
-58.4917
-58.482
-58.4248
-58.9784
-58.9471
-58.8399
-58.8216
-58.7456
-58.7216
-58.6833
-58.7218
-58.8762
-59.3881
-59.3272
-59.1995
-59.1089
-58.9643
-58.9997
-58.9588
-58.968
-59.0017
-58.9193
-59.8476
-59.8141
-59.6783
-59.5144
-59.4543
-59.3455
-59.365
-59.31
-59.2272
-59.2058
-59.2794
-60.5488
-60.3383
-60.1832
-60.0664
-59.9895
-59.8915
-59.7146
-59.7782
-59.6819
-59.5956
-59.5816
-59.664
-61.2552
-61.0444
-60.8806
-60.7696
-60.7442
-60.5348
-60.3895
-60.2808
-60.1986
-60.1649
-60.1488
-60.1286
-60.16
-62.1188
-61.9945
-61.8527
-61.6395
-61.5958
-61.5406
-61.2927
-61.1134
-60.9937
-60.6163
-60.7221
-60.8068
-60.787
-60.7449
-63.3655
-63.1629
-63.0602
-62.7388
-62.6878
-62.5748
-62.4332
-62.3295
-62.0895
-61.9118
-61.705
-61.6766
-61.8234
-61.9258
-61.6829
-64.9888
-64.8638
-64.6734
-64.2557
-64.1193
-63.8932
-63.8053
-63.7434
-63.5109
-63.5184
-63.4407
-63.1931
-62.8623
-62.9996
-63.0002
-63.0001
-66.6267
-66.3207
-66.5235
-66.1554
-65.8528
-65.62
-65.3689
-65.3064
-65.1948
-65.3374
-65.2358
-65.1737
-64.7835
-64.6512
-64.4708
-64.2617
-64.3203
-68.547
-68.7489
-69.3107
-69.0585
-68.7683
-67.9414
-67.5918
-67.477
-67.3946
-67.4927
-67.7857
-68.0973
-68.1839
-67.7806
-66.9712
-66.4671
-66.0616
-65.2386
-70.4812
-71.5191
-72.3354
-72.6632
-72.6824
-71.9864
-70.5626
-69.6369
-69.2465
-68.8912
-69.1567
-69.6952
-70.4668
-70.3914
-69.8219
-69.0063
-68.618
-67.8408
-66.8947
-72.6558
-73.4305
-73.9862
-74.678
-74.6356
-74.063
-73.678
-72.6563
-71.9383
-71.5156
-71.3929
-71.5864
-71.901
-72.1522
-71.374
-70.314
-70.4762
-69.8259
-69.8365
-68.4602
-73.5533
-74.7933
-76.1851
-76.3919
-75.7587
-75.2664
-74.5428
-74.0051
-73.4074
-72.9402
-72.4851
-72.4273
-72.4989
-72.65
-72.5375
-72.2039
-72.1448
-74.2302
-73.7516
-74.341
-72.0864
-74.3736
-75.3686
-76.4827
-77.4505
-77.9732
-77.2592
-76.2615
-75.0673
-74.3755
-74.0565
-73.7989
-73.4551
-73.2348
-73.1667
-73.2432
-73.3594
-73.4478
-73.6357
-75.3633
-75.0038
-75.6371
-76.218
-74.5985
-74.6956
-75.6644
-76.2708
-77.1323
-77.8458
-77.955
-77.7481
-77.1318
-75.7701
-75.0054
-74.6342
-74.4698
-74.4507
-74.1309
-73.9989
-74.2006
-74.2287
-74.2356
-74.2693
-74.6663
-74.7267
-74.8279
-74.5624
-74.3345
-73.6776
-75.2495
-76.0813
-76.8767
-76.7698
-76.7638
-77.1193
-77.0555
-77.091
-76.9859
-76.4071
-75.4717
-75.0606
-74.8234
-74.8464
-74.3735
-74.4042
-74.8942
-75.3791
-75.4473
-75.2857
-75.2243
-74.8723
-74.3283
-57.436
-57.5199
-57.5181
-57.6045
-57.6211
-57.6303
-57.7847
-57.7879
-57.7858
-57.746
-57.9302
-57.819
-57.84
-57.8382
-57.8556
-58.0462
-58.0032
-58.0414
-57.9672
-57.9586
-57.9415
-58.2375
-58.1795
-58.1597
-58.1195
-58.1247
-58.1071
-58.0764
-58.4882
-58.4021
-58.3853
-58.3487
-58.348
-58.2825
-58.2839
-58.2023
-58.7301
-58.658
-58.6481
-58.5904
-58.5458
-58.485
-58.4737
-58.4364
-58.4483
-59.0894
-59.0405
-58.947
-58.8649
-58.7739
-58.7528
-58.6859
-58.667
-58.7802
-58.8752
-59.4976
-59.4232
-59.3248
-59.1762
-59.0942
-59.0343
-59.0387
-58.978
-58.9877
-58.9663
-58.9654
-60.0883
-59.8158
-59.795
-59.6873
-59.5211
-59.4318
-59.3545
-59.3509
-59.3426
-59.234
-59.2686
-59.3106
-60.6457
-60.3769
-60.2927
-60.181
-60.058
-59.9596
-59.8906
-59.7578
-59.7506
-59.6783
-59.635
-59.6576
-59.6744
-61.3135
-61.1853
-61.0621
-60.889
-60.821
-60.7357
-60.5529
-60.3883
-60.3007
-60.0892
-60.1649
-60.1437
-60.1515
-60.1667
-62.3856
-62.1812
-62.0376
-61.8138
-61.6802
-61.5608
-61.4164
-61.3241
-61.071
-60.9484
-60.6525
-60.5619
-60.8113
-60.8025
-60.7174
-63.5126
-63.2873
-63.2687
-62.7743
-62.7613
-62.6333
-62.56
-62.5107
-62.2678
-62.1482
-61.9439
-61.6952
-61.7262
-61.7019
-61.8867
-61.5897
-64.9426
-64.925
-64.8625
-64.5063
-64.296
-64.1093
-63.9576
-63.8202
-63.7423
-63.649
-63.6537
-63.2898
-63.114
-62.9965
-63.0127
-62.9961
-62.997
-66.6939
-66.6498
-66.4586
-66.4835
-65.9582
-65.7111
-65.5177
-65.403
-65.258
-65.2843
-65.255
-65.2402
-65.2177
-64.7545
-64.4896
-64.6474
-64.4192
-64.2618
-68.5842
-68.8075
-69.1359
-69.5417
-69.2988
-68.9518
-67.9837
-67.6118
-67.4273
-67.5454
-67.509
-67.9121
-68.1195
-68.2999
-67.4088
-67.0768
-66.8029
-66.3396
-65.2044
-70.241
-71.058
-71.7239
-72.6952
-72.7898
-72.7239
-71.7167
-70.2
-69.5662
-69.1083
-69.1951
-69.7476
-70.1158
-70.6816
-70.2718
-69.7557
-69.1571
-69.4826
-68.0469
-66.9604
-71.8467
-72.851
-73.839
-74.3145
-74.9167
-74.6219
-73.8392
-73.2663
-72.3917
-71.7839
-71.3417
-71.3705
-71.4979
-71.9386
-72.1004
-71.4714
-70.1785
-70.4374
-69.7739
-69.9128
-68.352
-72.7086
-73.8036
-75.0431
-76.4407
-76.4131
-75.7828
-75.1015
-74.3071
-73.7534
-73.2946
-72.787
-72.3571
-72.3061
-72.475
-72.6038
-72.4935
-72.3564
-72.3084
-74.5468
-74.1589
-74.1195
-72.3688
-76.528
-73.6004
-74.454
-75.5551
-76.6628
-77.5597
-78.0354
-77.0931
-76.0052
-74.9483
-74.2704
-74.0333
-73.7069
-73.393
-73.1509
-73.1367
-73.2236
-73.349
-73.4516
-73.7478
-75.4367
-75.0569
-75.6384
-76.3093
-74.8951
-74.5816
-74.4478
-74.7423
-75.7276
-76.362
-77.2635
-77.8787
-77.938
-77.6477
-76.9582
-75.6353
-74.9232
-74.5687
-74.4128
-74.3995
-74.0547
-73.9816
-74.1863
-74.2264
-74.2586
-74.3313
-74.7158
-74.7537
-74.8707
-74.844
-74.3345
-74.692
-75.2355
-76.1226
-76.8924
-76.7752
-76.7656
-77.1486
-77.0501
-77.0484
-76.8921
-76.3444
-75.444
-75.0166
-74.7866
-74.8181
-74.3483
-74.385
-74.9026
-75.3813
-75.4626
-75.2794
-75.222
-74.8611
-57.4105
-57.4158
-57.4988
-57.5034
-57.5178
-57.6138
-57.6598
-57.642
-57.6083
-57.8142
-57.8085
-57.7842
-57.7719
-57.7359
-57.9202
-57.9012
-57.8517
-57.8202
-57.8306
-57.8214
-58.1062
-57.9993
-58.0011
-57.982
-57.9888
-57.9088
-57.9503
-58.2996
-58.2191
-58.2042
-58.1048
-58.1845
-58.0934
-58.1553
-58.0435
-58.5648
-58.509
-58.4338
-58.3858
-58.4002
-58.3207
-58.2896
-58.208
-58.176
-58.8629
-58.7475
-58.6545
-58.6365
-58.5942
-58.5053
-58.5335
-58.4915
-58.4994
-58.5601
-59.1204
-59.0574
-59.0389
-58.9157
-58.8555
-58.7389
-58.7322
-58.6636
-58.7319
-58.8558
-58.7484
-59.7037
-59.4396
-59.4181
-59.2328
-59.1544
-59.0942
-59.0642
-59.0693
-58.9699
-58.9784
-58.9646
-58.9851
-60.1485
-60.0105
-59.854
-59.7294
-59.554
-59.5284
-59.4644
-59.3737
-59.3548
-59.305
-59.2725
-59.2853
-59.3377
-60.7799
-60.6077
-60.4615
-60.2595
-60.1936
-60.0979
-59.9865
-59.8629
-59.7929
-59.714
-59.6663
-59.6547
-59.7115
-59.6841
-61.6013
-61.3385
-61.1742
-61.0286
-60.8148
-60.7792
-60.6564
-60.4735
-60.3915
-60.2504
-60.1065
-60.1041
-60.1735
-60.1392
-60.1723
-62.433
-62.3501
-62.1575
-61.968
-61.8478
-61.7139
-61.5555
-61.4551
-61.336
-61.1159
-60.9033
-60.6769
-60.6618
-60.6884
-60.8092
-60.6852
-63.6399
-63.5474
-63.2875
-63.0474
-62.9493
-62.7928
-62.6688
-62.6389
-62.4904
-62.3608
-62.2054
-62.0092
-61.7468
-61.6687
-61.7104
-61.8261
-61.5374
-65.0393
-65.0838
-64.9296
-64.8093
-64.5799
-64.2339
-64.118
-63.8701
-63.799
-63.8376
-63.8062
-63.6015
-63.3837
-63.0289
-63.1044
-63.1419
-62.9715
-62.9948
-66.6637
-66.8471
-66.7086
-66.6033
-66.4194
-65.9908
-65.898
-65.497
-65.4789
-65.325
-65.3399
-65.306
-65.3076
-65.3897
-64.5192
-64.5847
-64.7718
-64.4411
-64.1627
-68.3577
-68.579
-69.0465
-69.3774
-69.6319
-69.3749
-68.6009
-67.8177
-67.6174
-67.528
-67.6112
-67.722
-67.8989
-68.2506
-68.1862
-67.3954
-67.0161
-66.7389
-66.0248
-65.1818
-69.9926
-70.6401
-71.5879
-72.1329
-72.8765
-73.0524
-72.6781
-71.3563
-69.9916
-69.5665
-69.1472
-69.3501
-69.7326
-70.3569
-70.5679
-70.3023
-69.6743
-69.3347
-69.3782
-68.2565
-67.0034
-71.2504
-72.0702
-73.1858
-74.1388
-74.5814
-75.0948
-74.5088
-73.5589
-72.8149
-72.1742
-71.6517
-71.263
-71.368
-71.4623
-71.9555
-72.042
-71.2588
-70.4035
-70.6492
-69.919
-69.9675
-68.2032
-72.7523
-72.0682
-72.9655
-74.0857
-75.4016
-76.4557
-76.3318
-75.6015
-74.9469
-74.1008
-73.5879
-73.2054
-72.6393
-72.2639
-72.2581
-72.4762
-72.5476
-72.4884
-72.3184
-72.5316
-74.6874
-74.5673
-73.9012
-72.6516
-76.1488
-76.3907
-72.9945
-73.6929
-74.5487
-75.6913
-76.8846
-77.5668
-77.9928
-76.8947
-75.7982
-74.8191
-74.1714
-74.012
-73.6307
-73.3039
-73.0883
-73.0889
-73.2195
-73.3411
-73.4635
-73.8847
-75.4772
-75.1742
-75.729
-74.8301
-74.894
-73.9494
-74.4969
-74.8313
-75.8099
-76.4581
-77.3804
-77.9
-77.9102
-77.544
-76.7952
-75.4753
-74.858
-74.5106
-74.3553
-74.3449
-73.9988
-73.9687
-74.1692
-74.2223
-74.2863
-74.3954
-74.7609
-74.765
-75.2201
-74.8512
-74.7223
-74.033
-75.2356
-76.1511
-76.9062
-76.7779
-76.781
-77.1731
-77.0384
-76.992
-76.7959
-76.2843
-75.4266
-74.9777
-74.7557
-74.7878
-74.3319
-74.3719
-74.9108
-75.3842
-75.4744
-75.2678
-75.221
-57.4309
-57.4094
-57.4261
-57.4983
-57.5302
-57.5022
-57.5324
-57.6692
-57.6461
-57.6695
-57.6196
-57.6258
-57.7965
-57.7676
-57.7921
-57.7796
-57.7428
-57.7008
-57.9988