/*--------------------------------*- C++ -*----------------------------------*\
  =========                 |
  \\      /  F ield         | OpenFOAM: The Open Source CFD Toolbox
   \\    /   O peration     | Website:  https://openfoam.org
    \\  /    A nd           | Version:  7
     \\/     M anipulation  |
\*---------------------------------------------------------------------------*/
FoamFile
{
    version     2.0;
    format      ascii;
    class       surfaceScalarField;
    location    "3";
    object      phi;
}
// * * * * * * * * * * * * * * * * * * * * * * * * * * * * * * * * * * * * * //

dimensions      [0 3 -1 0 0 0 0];

internalField   nonuniform List<scalar> 
54125
(
2.29399e-06
-3.14532e-05
-0.00158136
0.000101254
-4.0135e-05
-0.00062981
2.50056e-05
-5.00692e-05
-0.0013599
-7.52557e-06
-3.13091e-05
-0.00154252
0.000209389
5.62532e-06
-0.000246677
0.000127623
-5.79841e-05
-0.00067745
8.6156e-05
-4.92911e-05
-0.0006742
1.63114e-05
-7.30045e-05
-0.00145614
2.10661e-05
-4.88347e-05
-0.00136344
-1.89361e-05
-3.03481e-05
-0.00149324
-8.91048e-05
0.00036185
-0.0050769
0.000396601
-6.1407e-05
-0.00145357
0.000287486
-4.27196e-05
-0.000405287
6.65547e-05
-0.000103059
-0.00150093
0.000101854
-6.62297e-05
-0.0007413
6.54797e-05
-6.6888e-05
-0.000691728
-7.60442e-06
-7.06443e-05
-0.00166876
1.93794e-05
-7.25931e-05
-0.00145177
1.98575e-05
-4.71428e-05
-0.0013665
-3.26276e-05
-3.0087e-05
-0.00143052
-0.000772252
0.000565453
-0.00696066
0.000560481
0.000234136
-0.00458098
0.000166897
0.000396188
-0.0053525
0.000272893
-0.000103876
-0.00155024
0.0002949
-0.000136326
-0.00155301
0.000271495
-5.26948e-05
-0.000558608
2.2695e-05
-0.000105159
-0.00136944
4.62511e-05
-0.00012298
-0.00147105
7.58895e-05
-8.87169e-05
-0.000775503
3.00878e-05
-8.69002e-05
-0.000667543
-1.69109e-05
-6.70349e-05
-0.00143023
-9.40861e-06
-7.23067e-05
-0.00165964
2.81704e-05
-7.07361e-05
-0.00145634
1.58505e-05
-4.86407e-05
-0.0013638
-4.21891e-05
-2.96812e-05
-0.00135865
-0.00111613
0.00047597
-0.00564693
0.000522735
0.00058973
-0.00691462
-0.000616167
0.000658693
-0.00683629
0.000498654
0.000149346
-0.0043118
0.00027577
0.000243868
-0.00440952
0.000205662
0.000428695
-0.00571536
5.60824e-05
-0.000111456
-0.0019102
0.000154189
-0.000143107
-0.00165139
0.000246042
-0.000169836
-0.00160602
0.000213852
-5.46588e-05
-0.000687713
-1.16775e-05
-0.000114432
-0.00143065
1.80617e-05
-0.000126738
-0.00139315
5.24805e-05
-0.000143255
-0.00144082
4.87213e-05
-0.000113565
-0.000781709
7.44e-06
-0.00010416
-0.000613012
-2.15752e-05
-6.37401e-05
-0.000949065
-1.70602e-05
-6.95583e-05
-0.00141592
-1.63761e-05
-7.31031e-05
-0.00164089
1.16512e-05
-7.08169e-05
-0.00144582
1.11429e-05
-4.84472e-05
-0.00135617
-4.84736e-05
-2.93952e-05
-0.00128079
-0.00124823
-4.75055e-05
-0.00450674
-0.000403037
0.00111521
-0.00620581
-0.00112878
0.0003985
-0.00553282
0.000596865
0.0006264
-0.00581037
-0.000130587
0.000605484
-0.00645506
-0.000565926
0.000689788
-0.00675449
0.000270294
0.000166206
-0.00257983
0.000356668
-6.28484e-06
-0.00426412
0.000186597
0.000330605
-0.00425199
-0.000111394
0.000477566
-0.00586768
9.51894e-06
-0.000102527
-0.00210945
5.0997e-05
-0.000112141
-0.0019741
0.000168949
-0.000189119
-0.00174858
0.000204584
-0.000165911
-0.00165063
0.000186765
-3.96721e-05
-0.000827366
-6.06348e-05
-0.000144048
-0.00203188
-1.63999e-05
-0.000125048
-0.001433
3.12531e-05
-0.000142891
-0.00144114
4.77428e-05
-0.00015954
-0.00143094
3.31648e-05
-0.000136038
-0.000771853
-1.37477e-05
-0.000117316
-0.000530422
1.46551e-05
-5.32421e-05
-0.00026229
-1.72581e-05
-6.71416e-05
-0.000934224
-2.34533e-05
-7.22434e-05
-0.00139332
-1.72227e-05
-7.37699e-05
-0.00162072
1.47035e-05
-6.96049e-05
-0.00143936
8.48376e-06
-4.82845e-05
-0.00134577
-5.71889e-05
-2.87941e-05
-0.0011948
-0.00143546
0.000324066
-0.00405743
-0.00112439
0.000260584
-0.00553666
-0.00128654
3.14736e-05
-0.00438046
0.000120375
0.00133995
-0.00595051
-0.000943849
0.000970009
-0.00596406
-0.00124169
0.00039545
-0.0052525
0.000322738
0.000504202
-0.00430499
0.000340923
0.000463524
-0.00565267
-0.000316417
0.000617684
-0.00587994
-0.00099524
0.000595993
-0.00646663
0.000155344
0.000157448
-0.00242193
0.000381171
6.91394e-06
-0.0029232
0.00028243
-1.33375e-05
-0.00403366
0.000158806
0.000424737
-0.00415338
-0.000110908
0.000469263
-0.00603927
-0.000205297
-7.06501e-05
-0.00250874
-1.78416e-05
-8.377e-05
-0.00213638
8.22958e-05
-0.000116172
-0.00209809
9.73662e-05
-0.000198617
-0.0017655
0.000158995
-0.000139203
-0.00167693
0.000145387
-2.18212e-05
-0.000964679
-6.69437e-06
-0.000165973
-0.00179526
-6.88483e-05
-0.000153507
-0.00195183
-3.57168e-05
-0.000129886
-0.00143374
3.03255e-05
-0.000157097
-0.00149114
3.88234e-05
-0.000171964
-0.00141913
2.26785e-05
-0.000149921
-0.000753443
-5.19046e-05
-0.000123367
-0.000412339
5.04957e-05
-5.07164e-05
0.00032846
2.20449e-05
-5.63003e-05
-0.000295176
-1.52217e-05
-7.1048e-05
-0.000920198
-1.58224e-05
-7.48137e-05
-0.00137646
-2.18212e-05
-7.43448e-05
-0.00159416
8.60419e-06
-6.88364e-05
-0.00142742
7.37665e-06
-4.80781e-05
-0.00133386
-6.84577e-05
-2.82363e-05
-0.00109811
-0.0016486
0.000149844
-0.00356833
-0.000931937
0.00025672
-0.00430685
-0.0015797
0.000260201
-0.00402447
-0.000345402
0.000712945
-0.00649955
-0.00118058
0.000300819
-0.00556927
-0.00143293
0.000191974
-0.0043812
9.01618e-06
0.00128048
-0.00563354
-9.09567e-05
0.00124051
-0.00578913
-0.000886356
0.000830575
-0.00582925
-0.00139455
0.00038472
-0.00523791
0.000239055
0.000344922
-0.00396331
0.000463166
0.000312161
-0.00423563
9.75734e-05
0.000442544
-0.00529267
-0.000378046
0.00064721
-0.0053943
-0.00101095
0.000576729
-0.00614332
-0.000148364
0.000118639
-0.00328124
0.00011277
0.000101169
-0.00264679
0.000271104
-0.000114413
-0.00301093
0.000163979
2.11335e-05
-0.00369667
0.000180998
0.000451044
-0.00415717
-9.40978e-05
0.000408376
-0.00620816
-0.00019611
-0.000108423
-0.00220737
-0.000243624
-6.73333e-05
-0.0023504
-5.55018e-05
-9.06166e-05
-0.00214215
3.21437e-05
-0.000125259
-0.00217326
6.62915e-05
-0.000195006
-0.00173716
0.000129503
-0.000116913
-0.00168866
4.20548e-05
6.95776e-05
-0.00112822
0.000100496
-0.000124017
-0.000840196
4.32002e-06
-0.000167566
-0.00176347
-6.93688e-05
-0.000158711
-0.00186886
-1.41829e-05
-0.000137697
-0.00145478
2.88292e-05
-0.000167141
-0.00154661
2.8023e-05
-0.000174796
-0.00141368
1.17606e-05
-0.000155247
-0.000725947
-9.83072e-05
-0.000124401
-0.000258088
1.93955e-05
-3.83057e-05
0.000123331
6.54958e-05
-5.21113e-05
0.000258775
2.63993e-05
-5.98776e-05
-0.000332746
-1.10782e-05
-7.4568e-05
-0.000909365
-1.31842e-05
-7.64704e-05
-0.00136115
-2.46019e-05
-7.43601e-05
-0.00156403
1.03751e-05
-6.86061e-05
-0.00141726
4.93296e-06
-4.87316e-05
-0.0013183
-7.24545e-05
-2.90767e-05
-0.000996577
-0.00174497
0.000121572
-0.00323638
-0.00100114
0.00024499
-0.00471037
-0.00179757
0.000174437
-0.00352489
-0.000332305
0.000419474
-0.00559605
-0.000951278
0.000186626
-0.00446258
-0.00158805
0.00022289
-0.00409224
-0.000140441
0.000841236
-0.00621032
-0.000293749
0.000698834
-0.00669477
-0.000986707
0.000509016
-0.00578596
-0.00153846
0.000169216
-0.0044065
-5.20654e-05
0.00117493
-0.00504181
-2.93789e-05
0.00129956
-0.00520005
-0.000204027
0.00114888
-0.00580583
-0.000876444
0.000844377
-0.00579051
-0.00148215
0.000487016
-0.00525373
-9.65835e-05
0.000292306
-0.00370828
0.000241822
0.000198359
-0.00397856
0.000388435
0.000225206
-0.00413562
4.56971e-05
0.000337818
-0.004865
-8.67826e-05
0.000581017
-0.00513081
-0.000977302
0.000611898
-0.00587201
-0.000203421
5.88956e-05
-0.00358433
-0.000115113
6.90532e-05
-0.00337763
0.000103973
-1.67015e-05
-0.00290398
0.000194684
-0.000148568
-0.00300377
0.000171618
3.62509e-05
-0.0033872
0.000168093
0.000380764
-0.00416815
-0.000120287
0.000398132
-0.00644395
1.96923e-07
-0.000100464
-0.00194572
-0.000147666
-0.000102149
-0.00202057
-0.000227815
-8.91911e-05
-0.00219338
-9.80622e-05
-0.000111141
-0.00207239
2.55936e-05
-0.000145261
-0.00221977
5.91848e-05
-0.000189983
-0.00169525
0.000107313
-4.88167e-05
-0.00166582
-5.09462e-05
0.000186997
-0.00136257
1.87085e-05
-3.47198e-05
-0.000269649
7.23207e-05
-0.00012773
-0.000886857
4.52713e-06
-0.000182264
-0.00171805
-5.48729e-05
-0.000161765
-0.00180099
2.73507e-05
-0.000142364
-0.00152009
2.47525e-05
-0.000174439
-0.00159632
1.37478e-05
-0.000171219
-0.00140108
-2.62695e-06
-0.000154292
-0.000688496
-0.000109724
-0.000128011
-9.28077e-05
-1.18101e-06
-2.26092e-05
6.90313e-05
1.96679e-05
-3.86469e-05
9.01984e-05
7.11133e-05
-5.36328e-05
0.000181417
3.08888e-05
-6.39384e-05
-0.000374264
-1.05219e-05
-7.74995e-05
-0.000897814
-1.33726e-05
-7.80899e-05
-0.00134404
-2.90585e-05
-7.45399e-05
-0.00152904
-5.56668e-06
-6.83893e-05
-0.00139204
1.28018e-05
-4.86675e-05
-0.00131151
-7.44878e-05
-2.79019e-05
-0.000894187
-0.00160758
-0.000108538
-0.00349282
-0.00103548
0.00014029
-0.00440078
-0.00175004
9.29164e-05
-0.00337682
-0.000509366
0.000394953
-0.00474919
-0.000970999
0.000285855
-0.00480207
-0.00169677
0.000129097
-0.00354526
-4.9395e-05
0.000566107
-0.00578951
-0.000241104
0.000300069
-0.00576214
-0.000867715
0.000254008
-0.00461269
-0.00171241
0.000245032
-0.00416333
-0.000291766
0.00104372
-0.00602705
-0.000194777
0.000901875
-0.00624796
-0.000294762
0.000764093
-0.00685911
-0.000852568
0.000487346
-0.00612797
-0.00153842
0.000191011
-0.00454124
-0.000265151
0.00123703
-0.00486701
0.000117848
0.00117792
-0.00479619
0.000136265
0.00127026
-0.00506927
-0.000274158
0.00111172
-0.00575331
-0.000469956
0.00106264
-0.00598295
-0.00149453
0.000640796
-0.0053773
-0.000140663
0.000335248
-0.0042668
-7.74885e-05
0.000186273
-0.00373381
0.00020452
0.00012571
-0.00397961
0.000298942
0.000132307
-0.00403437
0.000215136
0.000181489
-0.00450898
0.000199323
0.000552762
-0.0051029
-0.000803008
0.000689169
-0.00587846
-0.000282811
0.000114534
-0.00338878
-0.000212574
-2.01148e-05
-0.00343025
-0.000129187
-8.47403e-06
-0.00348449
5.09221e-06
-4.74748e-05
-0.00310823
0.000166382
-0.000133441
-0.00297487
0.000184879
2.10368e-05
-0.00315317
0.00025618
0.000340835
-0.00425972
-1.88172e-05
0.000293872
-0.00676995
8.70152e-06
-3.15463e-05
-0.00168228
-5.926e-05
-7.7131e-05
-0.00183916
-0.000156859
-0.000115503
-0.00183287
-0.000189048
-0.000131563
-0.00203878
-6.14464e-05
-0.000136726
-0.00199212
2.82875e-05
-0.000135236
-0.00227805
4.70055e-05
-0.000190752
-0.00158657
5.83357e-05
-2.29498e-05
-0.00151683
-2.41721e-05
0.00029761
-0.00174574
2.10765e-05
-2.32464e-05
-0.000537851
2.17627e-05
-4.78565e-05
-0.000351617
9.02252e-05
-0.000146588
-0.000941645
1.74413e-05
-0.000188002
-0.00167836
-5.48968e-05
-0.000163972
-0.00173501
-6.06305e-07
-0.000157809
-0.00154949
1.33642e-05
-0.000179372
-0.00163059
-4.6594e-06
-0.000167227
-0.00138905
-1.82036e-05
-0.000149901
-0.0006356
-0.000109621
-0.000127214
6.95401e-05
3.02868e-05
-1.66326e-05
7.09344e-05
-5.7992e-06
-2.18943e-05
5.80779e-05
1.92585e-05
-3.86288e-05
5.59359e-05
7.81451e-05
-5.56002e-05
9.49341e-05
3.82334e-05
-6.82391e-05
-0.000421758
-2.85788e-06
-7.99472e-05
-0.000893099
-1.64436e-05
-7.84951e-05
-0.00132364
-3.40728e-05
-7.49289e-05
-0.00148843
-5.92123e-06
-6.57772e-05
-0.00136901
-2.05155e-05
-4.6842e-05
-0.00127205
-7.5293e-05
-2.89514e-05
-0.000789943
-0.00139237
-0.000201896
-0.00331972
-0.00130328
0.000110856
-0.0044132
-0.00151964
-8.88492e-05
-0.00363437
-0.000677686
0.000392568
-0.00449717
-0.0010648
0.000195415
-0.00440948
-0.00165996
5.63695e-05
-0.00347001
-0.000143695
0.000550372
-0.00494338
-0.000224011
0.000392482
-0.00487291
-0.00093841
0.00030161
-0.00490389
-0.00173396
4.9302e-05
-0.00357301
-0.000148273
0.000562174
-0.00588992
-0.000112328
0.000522693
-0.00609458
-0.000319646
0.000304677
-0.00578793
-0.000783242
0.000378792
-0.00481578
-0.0017241
0.000294177
-0.00427183
-0.000135315
0.00108212
-0.00603337
-0.00013264
0.00118765
-0.00606233
-0.000175187
0.000990001
-0.00616242
-0.000505352
0.00072403
-0.0068646
-0.000655533
0.000557842
-0.00630922
-0.00151693
0.000151415
-0.00467025
-0.000153671
0.00118206
-0.00470531
-0.000355492
0.00120663
-0.00461772
2.03217e-05
0.00120426
-0.004546
1.29006e-05
0.0012707
-0.0049422
-3.81008e-05
0.00113177
-0.00556921
-0.000202771
0.00127565
-0.00621571
-0.00136106
0.000558557
-0.0053778
-0.000218774
0.000376246
-0.00482437
-0.00029823
0.000112246
-0.00410712
-3.29075e-05
0.000166431
-0.00387082
0.000125335
-7.67529e-06
-0.00395988
0.000216941
-1.87709e-05
-0.00388467
0.000288008
9.76015e-05
-0.00415695
0.000172731
0.000606772
-0.00493706
-0.000462002
0.000729464
-0.00616474
-0.000154639
0.000131983
-0.00324179
-0.000174023
2.70374e-05
-0.00332117
-0.000264958
-5.06989e-05
-0.00327993
-6.76208e-05
-0.00010952
-0.00354387
-3.79053e-05
-7.26842e-05
-0.00319253
0.00017201
-0.000112069
-0.00298549
0.000155575
-2.26204e-06
-0.00291864
0.000220085
0.000254378
-0.00438197
-2.61388e-06
0.000285251
-0.00707676
3.88404e-05
-6.15043e-05
-0.00170334
9.19126e-06
-8.57206e-05
-0.00166112
-3.32125e-05
-8.75618e-05
-0.00174366
-4.04199e-05
-0.00014819
-0.00175838
-0.000126453
-0.000156115
-0.00194784
-3.46837e-05
-0.000131098
-0.00196218
-1.24276e-05
-0.000150469
-0.00229255
3.63909e-05
-0.000190168
-0.00146041
0.000102325
2.58564e-05
-0.00136561
-2.73901e-05
0.000332138
-0.00216011
8.67511e-05
-2.19241e-05
-0.000985286
2.71444e-05
-2.9053e-05
-0.000589598
2.16095e-05
-6.33383e-05
-0.000437218
0.000113811
-0.000158094
-0.00100722
2.91817e-05
-0.000191038
-0.00164225
-3.63425e-05
-0.000173762
-0.00168557
1.95194e-05
-0.000171009
-0.00159381
2.28675e-06
-0.000181874
-0.0016523
-1.90398e-05
-0.000166492
-0.00135934
-4.35057e-05
-0.000142495
-0.000597329
-0.000105212
-0.000125788
0.000225247
0.000101716
-7.12607e-06
7.10259e-05
3.36743e-05
-1.70368e-05
3.24025e-05
-9.22156e-06
-2.04318e-05
4.91024e-05
2.03528e-05
-3.84496e-05
1.84325e-05
8.74512e-05
-5.83538e-05
-2.40245e-06
4.37569e-05
-7.20847e-05
-0.000473377
-1.28259e-06
-8.17591e-05
-0.000888552
-1.57563e-05
-7.85726e-05
-0.00130424
-3.84871e-05
-7.44856e-05
-0.00144123
-1.0326e-05
-6.41334e-05
-0.00134139
-1.50818e-05
-4.71821e-05
-0.00123874
-7.41153e-05
-2.88391e-05
-0.000686989
-0.00156575
0.000268201
-0.00304856
-0.00151792
-7.64681e-05
-0.00371519
-0.0012808
-0.00025096
-0.00330759
-0.000804194
0.000275513
-0.00444349
-0.00139186
0.000168765
-0.00434376
-0.00150791
-8.83412e-05
-0.00369808
-0.00029554
0.000549037
-0.00456148
-0.000470574
0.000444006
-0.0044992
-0.00107485
0.000212718
-0.00442938
-0.00159694
4.52371e-05
-0.00365227
-0.000162469
0.000659694
-0.00506012
-0.00013231
0.000519046
-0.00504996
-0.000423881
0.000404157
-0.00487122
-0.000835896
0.000302801
-0.00510473
-0.0016522
-5.65081e-05
-0.0035884
-3.32256e-05
0.000673838
-0.00598962
-0.000109037
0.000588893
-0.00597972
-0.000343721
0.000473272
-0.00609464
-0.000491489
0.000419942
-0.00584294
-0.00048486
0.000487548
-0.00517982
-0.00164662
0.000225781
-0.00436792
2.54034e-05
0.00111923
-0.00598283
-0.000296229
0.00112526
-0.00603024
-0.000212032
0.00117824
-0.00601822
-0.000223744
0.000954283
-0.00615603
-0.000415174
0.000724148
-0.00665384
-0.000762552
0.000496479
-0.0060945
-0.00136259
9.91702e-05
-0.00476789
-3.38481e-05
0.00113986
-0.00515021
-0.000370515
0.00118936
-0.00461575
-0.000150395
0.00118292
-0.00447889
-0.000185052
0.00121519
-0.00418011
-3.8526e-05
0.00119364
-0.0047486
0.000104437
0.00117832
-0.00528831
-0.000418393
0.00102141
-0.00608745
-0.00111636
0.000538781
-0.00526222
-0.000196172
0.000370782
-0.00481729
-0.000182305
0.000152671
-0.00485651
-0.000286637
0.000205436
-0.00412444
0.000108464
-5.72274e-06
-0.00404885
0.000335384
-0.000244614
-0.00410732
0.000287498
-0.000151326
-0.00375123
0.000724851
0.000134834
-0.00425429
0.000159512
0.000623897
-0.00477092
-0.000552874
0.000586428
-0.00620091
-0.000103799
0.000156241
-0.00287518
-0.0001821
8.83592e-05
-0.00311182
-0.000266594
-2.90496e-06
-0.00313558
-0.000182421
-0.000158347
-0.0030891
-0.000111692
-0.000151726
-0.00347959
2.45463e-05
-9.39969e-05
-0.00326983
0.000110088
-9.55189e-05
-0.00301474
0.000169246
-2.8919e-05
-0.0027682
0.000377533
0.000172042
-0.00454397
-0.000170528
0.000244119
-0.00717774
0.000133061
1.5589e-05
-0.00166302
6.72323e-05
-0.000125025
-0.00170412
-1.30065e-05
-8.7791e-05
-0.00162627
7.08556e-06
-0.000107071
-0.00167805
-3.77003e-05
-0.000173017
-0.0016746
-0.000103499
-0.000168974
-0.00184281
3.52678e-06
-0.000155377
-0.00194128
-3.78197e-05
-0.000154625
-0.00228798
-3.97271e-05
-0.0001801
-0.00123376
0.00019696
6.18996e-05
-0.00133584
-6.96486e-05
0.000296133
-0.0024918
7.37542e-05
1.18317e-05
-0.00108487
8.49979e-05
-2.29946e-05
-0.00104267
3.00234e-05
-4.0916e-05
-0.000651265
4.49163e-05
-7.83063e-05
-0.000541569
0.000142071
-0.00016531
-0.00108757
2.48652e-05
-0.000193346
-0.00160377
-2.25336e-05
-0.000180395
-0.00165494
3.14578e-05
-0.000176871
-0.00164603
-1.17022e-05
-0.000184324
-0.00166126
-2.93884e-05
-0.000164252
-0.00131852
-7.45087e-05
-0.00013457
-0.00052912
-9.93055e-05
-0.000123819
0.000374257
0.000156492
-7.25512e-06
0.000558575
9.79457e-05
-9.59838e-06
-3.43581e-05
4.01787e-05
-1.60404e-05
-1.21676e-05
-7.47854e-06
-1.8377e-05
3.65083e-05
2.83653e-05
-3.84071e-05
-2.98795e-05
9.30912e-05
-6.13028e-05
-0.000106276
4.92911e-05
-7.48664e-05
-0.000529561
-8.12436e-06
-8.21097e-05
-0.000876891
-2.3448e-05
-7.86926e-05
-0.00127659
-4.56935e-05
-7.2877e-05
-0.00138679
-1.49461e-05
-6.30108e-05
-0.00131062
-1.64267e-05
-4.63196e-05
-0.00120483
-7.2024e-05
-2.94657e-05
-0.000585499
-0.00172059
4.21861e-05
-0.00234655
-0.00154044
0.000192652
-0.00320395
-0.00147846
0.000148872
-0.00299978
-0.00111088
0.000135257
-0.0042312
-0.00161169
-4.26482e-05
-0.00370367
-0.00136234
-0.000100556
-0.00335261
-0.00038682
0.000433895
-0.0044162
-0.00075666
0.000371228
-0.00435987
-0.0013314
0.00015484
-0.00433039
-0.00148746
-6.92763e-05
-0.00373827
-0.000248861
0.000678569
-0.00470214
-0.000177973
0.000552559
-0.00462437
-0.000508433
0.000403885
-0.00460582
-0.000961027
0.000279216
-0.00453823
-0.00131368
3.26564e-05
-0.00402345
-0.000192382
0.000787167
-0.00502392
-0.000203246
0.000656826
-0.00510369
-0.000424079
0.000535915
-0.00510136
-0.000557805
0.000377982
-0.00488008
-0.000518705
0.000180693
-0.00530809
-0.0013564
-5.2248e-05
-0.00382637
-4.09654e-06
0.000777254
-0.00582769
-0.000241626
0.000632686
-0.00608802
-0.000256058
0.000572982
-0.0060354
-0.000340933
0.000519733
-0.00607724
-0.000522889
0.000505587
-0.00575326
-0.000523074
0.000523756
-0.00571727
-0.00134279
0.000141622
-0.00452935
-5.42553e-05
0.00113152
-0.00587167
-0.000201857
0.00112421
-0.00615044
-0.000225602
0.0012043
-0.0059811
-0.000414339
0.00112067
-0.00595532
-0.0002812
0.000969882
-0.00615909
-0.000224149
0.000771583
-0.00660035
-0.0006246
0.000435753
-0.00622488
-0.0011072
7.33594e-05
-0.00485041
5.04842e-06
0.00112173
-0.00523113
-0.000145154
0.00114682
-0.00514482
-0.000268016
0.00110049
-0.00455195
-0.000114397
0.00116778
-0.00420861
0.000276862
0.00107621
-0.00400415
3.13287e-05
0.00112268
-0.00443679
0.000464209
0.00119244
-0.0051987
-0.000169471
0.000672421
-0.0058921
-0.00116135
0.000536766
-0.00519051
-0.000198099
0.000449141
-0.00476195
-0.000275065
0.00033645
-0.00490811
-0.000294007
0.000201821
-0.00482548
-0.000268944
7.16465e-05
-0.00411529
-2.77825e-05
-0.000197167
-0.00418021
0.000256571
-0.000329996
-0.00416068
0.000460963
-6.77469e-05
-0.00389952
0.000424552
0.00032312
-0.00420882
0.000370614
0.000520614
-0.00469819
-0.000765974
0.000451736
-0.0060572
1.74455e-05
0.000180301
-0.00264591
-9.63929e-05
0.000139578
-0.00276277
-0.000182659
6.70186e-05
-0.00301209
-0.000247554
-4.36753e-05
-0.00299561
-0.000202618
-0.000196882
-0.00287903
-8.00395e-05
-0.000147499
-0.00344955
5.9132e-05
-0.000112497
-0.00330846
0.000112758
-5.3072e-05
-0.00314117
5.30552e-05
8.40807e-05
-0.00277302
0.000573696
0.000106305
-0.00478289
-0.000314625
0.000283439
-0.00721621
4.52359e-05
0.000145325
-0.00148578
0.000148158
-1.42311e-05
-0.00183698
8.66583e-05
-0.000105277
-0.00174327
3.79819e-05
-6.24478e-05
-0.00166396
4.22522e-05
-0.000134826
-0.00161643
-0.000106208
-0.000177913
-0.00153458
-5.21504e-05
-0.000201546
-0.00176702
4.23987e-05
-0.00014944
-0.00195741
-4.47199e-05
-0.000159107
-0.00227596
-0.000106322
-0.000167908
-0.000927023
0.000238047
9.32449e-05
-0.0014455
3.93318e-05
0.000242807
-0.00287325
0.000271958
4.19808e-05
-9.3683e-05
6.39366e-05
8.36593e-06
-0.00108223
0.000105044
-3.07489e-05
-0.0011177
5.23047e-05
-5.19778e-05
-0.000737377
8.23393e-05
-9.3385e-05
-0.000667468
0.000137708
-0.000170733
-0.0011548
4.94258e-05
-0.000194132
-0.00159017
-3.98068e-05
-0.000181031
-0.0016191
2.92683e-05
-0.000180762
-0.00170231
-3.01603e-05
-0.000181138
-0.0016599
-2.76495e-05
-0.000154948
-0.00128544
-9.56959e-05
-0.000128326
-0.000445344
-4.5461e-05
-0.000121359
0.000469053
0.0001205
-9.23642e-07
-8.98462e-05
0.000155974
-7.42448e-06
0.000400427
9.23153e-05
-1.06508e-05
-0.000132063
5.15601e-05
-1.44789e-05
-6.76258e-05
7.71988e-06
-1.59008e-05
6.28215e-06
4.50558e-05
-3.86779e-05
-9.75602e-05
9.465e-05
-6.32448e-05
-0.000212547
4.60444e-05
-7.60275e-05
-0.000581688
-1.4749e-05
-8.12896e-05
-0.000859545
-3.20162e-05
-7.77103e-05
-0.00123974
-5.26561e-05
-7.0106e-05
-0.00132704
-1.15318e-05
-6.10928e-05
-0.00128431
-1.04605e-05
-4.63272e-05
-0.00117751
-6.89576e-05
-2.90639e-05
-0.000487477
-0.00153597
-0.000156539
-0.00244572
-0.00147683
-5.49128e-05
-0.00300543
-0.00174752
0.000146507
-0.00222399
-0.00122631
0.000395824
-0.00373214
-0.00164783
9.0519e-05
-0.00310946
-0.00159169
0.000185557
-0.00295599
-0.000649191
0.000311039
-0.004383
-0.000844612
0.000158711
-0.00434461
-0.00152188
0.000102263
-0.00371601
-0.00138458
3.09408e-05
-0.00348643
-0.000477103
0.000618744
-0.00438042
-0.000308712
0.000498234
-0.00441247
-0.000743425
0.000339997
-0.00431004
-0.00122053
0.000140756
-0.00428092
-0.00083898
-0.000147374
-0.0040656
-0.000353482
0.000818995
-0.00467616
-0.000284485
0.00071009
-0.00477843
-0.000366694
0.000469332
-0.0047472
-0.00050558
0.000422112
-0.00480094
-0.000889672
0.000322099
-0.00445671
-0.00111824
-2.82139e-05
-0.0042334
-7.09949e-05
0.000828803
-0.00507308
-0.000274094
0.000750353
-0.00508498
-0.000352096
0.000651321
-0.00512306
-0.000404731
0.000518386
-0.00517797
-0.000523052
0.000312883
-0.00501211
-0.000602272
8.44671e-05
-0.00536561
-0.00127775
-1.23375e-06
-0.00389017
-0.000288168
0.000925431
-0.00580084
-0.000132585
0.000718382
-0.00598266
-0.000376857
0.000679607
-0.00604338
-0.000373233
0.000553249
-0.00611002
-0.000511521
0.000590637
-0.00593197
-0.000520965
0.00062119
-0.00555388
-0.000575861
0.000459343
-0.00608373
-0.00113079
0.00013529
-0.00464105
0.000147138
0.00110341
-0.00561596
-0.000150891
0.00122961
-0.00597134
-0.000279889
0.00119135
-0.00612562
-0.000341633
0.00118876
-0.00582195
-0.000294946
0.00125173
-0.00566537
-0.000325912
0.00104027
-0.00607053
-0.000446052
0.000864554
-0.00611889
-0.000282478
0.000510441
-0.00654895
-0.00102844
0.00018593
-0.00516925
-0.000106861
0.00114577
-0.00549086
-8.66837e-05
0.00111386
-0.00538656
-0.000159022
0.00105381
-0.00523312
-0.000133518
0.00100395
-0.00452354
-8.48399e-05
0.0010085
-0.00408385
0.000282658
0.000945637
-0.00385319
0.00035904
0.00118341
-0.00432584
0.000455765
0.000817225
-0.00537472
0.000171582
0.000730884
-0.00588719
-0.00114591
0.000460328
-0.0052709
-8.72941e-05
0.000581767
-0.00453983
-0.000188229
0.000431477
-0.00476514
-0.000207241
0.000237893
-0.0049196
-0.000231828
4.77546e-05
-0.00481732
-0.000297839
-2.35708e-05
-0.00419366
-3.38681e-06
-0.000341158
-0.0042457
0.000221313
-0.000171885
-0.00421872
0.000260656
8.06588e-05
-0.00380496
0.000448821
0.000174671
-0.00425864
0.000720781
0.000593674
-0.00498721
-0.000759786
0.000483407
-0.00609544
-8.44699e-06
0.000227861
-0.00229804
1.28156e-05
0.000184815
-0.0025558
-6.1165e-05
0.000144295
-0.00269222
-0.000135846
3.74674e-05
-0.00291941
-0.000222537
-8.84788e-05
-0.00283923
-0.000229102
-0.000188714
-0.00271492
-4.83004e-05
-0.00025058
-0.00331532
0.000107921
-7.09202e-05
-0.00335613
0.000216728
0.000102152
-0.00342069
-2.80581e-05
0.000137566
-0.00288255
0.000347598
0.000341151
-0.00495015
-0.000195858
0.000405931
-0.00738695
0.0002202
0.000168825
-0.00110669
5.77525e-05
0.000125209
-0.00161904
0.000180605
-2.98899e-06
-0.00201483
0.000131935
-4.63359e-05
-0.00183902
8.13541e-05
-7.57559e-05
-0.00172205
4.73398e-05
-0.000146094
-0.00155788
-2.47528e-06
-0.000210513
-0.00147372
-7.85445e-05
-0.000179753
-0.00169797
7.39071e-05
-0.000160007
-0.00200115
-7.30589e-05
-0.000141709
-0.00225926
-4.72313e-05
-0.000146651
-0.000667545
0.000154976
9.82044e-05
-0.00155157
8.9367e-05
8.40766e-05
-0.00309215
0.000265395
7.82429e-05
-0.000432946
0.000278012
3.88329e-05
-0.000246188
5.18963e-05
5.57822e-06
-0.00107813
0.000132178
-3.66899e-05
-0.00121361
8.49874e-05
-5.60865e-05
-0.000851943
0.000122639
-0.00010036
-0.000815424
0.00014233
-0.000173641
-0.00122297
1.80241e-05
-0.000188054
-0.00155512
-4.05766e-05
-0.000179158
-0.00159487
-7.16474e-06
-0.000178322
-0.00172998
-5.14497e-05
-0.000168643
-0.00164742
-3.08294e-05
-0.000144607
-0.00124986
-0.000108444
-0.000123906
-0.000344813
9.55763e-06
-0.000117952
0.00050849
0.000181868
7.64559e-06
0.000801408
0.000114845
-3.28568e-06
-0.00020883
0.000154988
-7.00381e-06
0.000241792
8.69781e-05
-1.09376e-05
-0.000222582
6.48826e-05
-1.31055e-05
-0.000135304
3.02183e-05
-1.33771e-05
-4.92369e-05
6.36829e-05
-3.86704e-05
-0.000185818
9.81887e-05
-6.39007e-05
-0.000322863
4.45804e-05
-7.54145e-05
-0.000632143
-2.02748e-05
-8.03973e-05
-0.000836583
-3.77143e-05
-7.53348e-05
-0.0011968
-5.69343e-05
-6.84515e-05
-0.00126275
-1.73802e-05
-5.99996e-05
-0.00125326
-1.96175e-05
-4.46955e-05
-0.00114226
-6.62382e-05
-2.85946e-05
-0.000392645
-0.00164681
0.000153318
-0.00212946
-0.00136094
-0.00026005
-0.00300479
-0.00155361
-0.000204473
-0.00243517
-0.00119538
-3.72873e-05
-0.00352471
-0.00156923
2.60049e-05
-0.00296352
-0.00176433
0.000163082
-0.00221443
-0.000817518
0.000502215
-0.00407132
-0.00101209
0.000162524
-0.00363667
-0.00157457
0.000196259
-0.00306748
-0.00164611
0.000157965
-0.00285243
-0.000683536
0.000461332
-0.00441756
-0.000469528
0.000276339
-0.00433982
-0.0011451
0.000276853
-0.00411752
-0.00153318
0.00024037
-0.00361279
-0.000926428
7.14168e-05
-0.0034704
-0.000534415
0.000783852
-0.00444288
-0.000274847
0.000619956
-0.00451178
-0.000429323
0.000428719
-0.00443856
-0.000649064
0.00031484
-0.00434064
-0.00109191
8.38447e-05
-0.0043099
-0.00112946
-0.000129756
-0.00392462
-9.44979e-05
0.000886863
-0.00476916
-0.000186089
0.000796057
-0.00485013
-0.000388505
0.000622204
-0.0048949
-0.00034315
0.000488543
-0.00487522
-0.000473034
0.000376922
-0.00490578
-0.000907905
0.00021398
-0.00439327
-0.00128376
-4.89657e-06
-0.00422249
-0.000313793
0.000901905
-0.00508175
-0.00024059
0.00081065
-0.00502537
-0.000454435
0.00073578
-0.00509187
-0.000461442
0.000700923
-0.00521738
-0.000531934
0.000442883
-0.00528755
-0.000607153
0.000282991
-0.00512445
-0.000826967
0.000110821
-0.00522655
-0.0012849
3.46955e-05
-0.00377075
-0.00013035
0.0010943
-0.00584507
-0.000367361
0.000900031
-0.00576601
-0.000356404
0.000726799
-0.00595333
-0.000451032
0.000689912
-0.00607065
-0.000466254
0.000602493
-0.00595057
-0.000564857
0.000767614
-0.00583945
-0.000336727
0.000573839
-0.0057777
-0.000532488
0.00040494
-0.00610337
-0.0011171
0.000135649
-0.00468805
-8.39193e-05
0.001067
-0.00548955
2.95144e-05
0.00119052
-0.00569307
-0.000183845
0.00122615
-0.00598131
-0.000277528
0.00120232
-0.00599517
-0.000398809
0.00123522
-0.00549146
-0.000160759
0.00124674
-0.00542842
-0.000156016
0.00109893
-0.00578985
3.24855e-05
0.00092305
-0.00610822
-0.000123584
0.000584857
-0.00665271
-0.000856408
0.000116185
-0.00557494
-0.000161091
0.00122565
-0.00564279
-0.000130555
0.0010708
-0.00550547
-7.71304e-05
0.00105332
-0.00551617
-9.04097e-05
0.000934672
-0.00530526
-0.000280059
0.000844249
-0.00437707
-1.24205e-06
0.000945844
-0.0040862
0.000183308
0.000970376
-0.00360216
8.30159e-05
0.00101631
-0.00434728
0.000531911
0.000690251
-0.00541717
0.000498401
0.000860831
-0.00606531
-0.00104051
0.000352759
-0.00534294
-0.000154563
0.000636335
-0.00459807
-0.000336551
0.000547042
-0.00430603
-0.00020186
0.000296902
-0.00468345
-0.000215728
0.000109043
-0.00490101
-0.000319073
-5.14157e-05
-0.00469294
-0.00019855
-0.00020378
-0.00436159
-9.05137e-05
-0.000252873
-0.0041225
6.83166e-05
-0.000130442
-0.00396801
0.00049787
-7.10991e-05
-0.00384033
0.000348406
0.000379845
-0.00442128
0.000213472
0.000756868
-0.00512654
-0.000662283
0.00042157
-0.00605059
-4.60025e-06
0.000291767
-0.00196973
3.33049e-05
0.000209864
-0.00229864
3.78636e-05
0.000197321
-0.00246609
-4.99525e-05
0.000158677
-0.00263154
-9.46965e-05
2.72403e-05
-0.00285907
-0.000173868
-0.000131509
-0.00267523
-0.000126009
-0.000271728
-0.00257023
-3.03238e-05
-0.000218348
-0.00321611
0.000206118
-4.59204e-05
-0.00334027
9.64383e-05
0.000221806
-0.00367443
4.22746e-06
0.000330703
-0.00292356
0.000667716
0.000593675
-0.00565064
-0.000345552
0.00045419
-0.00740622
0.000228534
0.000244859
-0.000650091
0.000249574
0.000147904
-0.00110095
5.18293e-05
0.000110193
-0.00173215
0.000218347
2.39385e-05
-0.00217127
0.000148539
-2.32375e-05
-0.00195509
9.16931e-05
-0.000106557
-0.00173064
6.82904e-05
-0.00016758
-0.00152677
-5.2316e-05
-0.000204074
-0.00137905
-9.57033e-05
-0.000197088
-0.00160576
7.86179e-06
-0.000144271
-0.00201361
-0.000139058
-0.000127445
-0.00219086
1.75126e-05
-0.000120076
-0.000497607
9.96208e-05
8.59649e-05
-0.00176153
0.000128685
2.01262e-05
-0.0032314
0.000363036
0.000109553
-0.000646113
0.00027076
6.9616e-05
-0.000619644
0.000281111
3.74809e-05
-0.000404213
4.09302e-05
5.53519e-06
-0.00107431
0.000146191
-3.18813e-05
-0.00131912
0.000118422
-5.14171e-05
-0.00098909
0.00015601
-0.000100731
-0.000980661
0.000137918
-0.0001738
-0.00127695
3.41741e-05
-0.000179635
-0.00154424
-4.60709e-05
-0.000182641
-0.00156476
-2.11205e-05
-0.000169622
-0.00174559
-7.28911e-05
-0.000157429
-0.00161864
-3.16643e-05
-0.000137278
-0.0012222
-0.000107931