/*--------------------------------*- C++ -*----------------------------------*\
  =========                 |
  \\      /  F ield         | OpenFOAM: The Open Source CFD Toolbox
   \\    /   O peration     | Website:  https://openfoam.org
    \\  /    A nd           | Version:  7
     \\/     M anipulation  |
\*---------------------------------------------------------------------------*/
FoamFile
{
    version     2.0;
    format      ascii;
    class       surfaceScalarField;
    location    "3";
    object      phi_0;
}
// * * * * * * * * * * * * * * * * * * * * * * * * * * * * * * * * * * * * * //

dimensions      [0 3 -1 0 0 0 0];

internalField   nonuniform List<scalar> 
54125
(
2.43143e-06
-3.14074e-05
-0.00159398
0.000101342
-4.00485e-05
-0.000645156
2.59019e-05
-5.0536e-05
-0.00136512
-7.50349e-06
-3.13485e-05
-0.00155513
0.000195486
1.05535e-05
-0.000233155
0.000129035
-5.8052e-05
-0.000680342
8.73643e-05
-4.87755e-05
-0.000691248
1.49121e-05
-7.29854e-05
-0.00145967
2.08425e-05
-4.89883e-05
-0.00136832
-1.87652e-05
-3.03794e-05
-0.00150598
-0.000121064
0.000362437
-0.00504851
0.000405073
-5.40935e-05
-0.00145325
0.000281379
-3.87266e-05
-0.000388443
6.67247e-05
-0.000101691
-0.00150634
0.000103945
-6.52991e-05
-0.00074692
6.70939e-05
-6.59224e-05
-0.000711185
-8.30971e-06
-6.97627e-05
-0.00165574
1.67266e-05
-7.27092e-05
-0.00145268
1.99399e-05
-4.73338e-05
-0.00137131
-3.22412e-05
-3.00772e-05
-0.00144366
-0.000778368
0.000558886
-0.0069855
0.000578822
0.000237275
-0.00458799
0.000133585
0.0003926
-0.00529332
0.000277307
-0.000100002
-0.00154617
0.000300579
-0.000130731
-0.00155787
0.000277561
-5.05443e-05
-0.000548365
2.28647e-05
-0.000102801
-0.001367
4.50079e-05
-0.000121022
-0.00147889
7.79595e-05
-8.6845e-05
-0.000784017
3.20008e-05
-8.59107e-05
-0.000689516
-1.80345e-05
-6.6282e-05
-0.00142019
-8.5973e-06
-7.1743e-05
-0.00164811
2.78607e-05
-7.08269e-05
-0.00145705
1.61721e-05
-4.8582e-05
-0.00136897
-4.18426e-05
-2.97638e-05
-0.00137206
-0.00110409
0.00049147
-0.00564251
0.000544635
0.000601049
-0.0069345
-0.000645035
0.000641016
-0.00684789
0.000507577
0.000166405
-0.00428779
0.000299426
0.000235686
-0.00442993
0.000231544
0.000423376
-0.00567068
5.60779e-05
-0.000111076
-0.0019069
0.00015631
-0.000139048
-0.00164915
0.00025012
-0.000167417
-0.00161316
0.000221917
-5.39283e-05
-0.000684353
-1.25692e-05
-0.000113563
-0.00142929
1.69653e-05
-0.000124784
-0.0013888
5.13176e-05
-0.000141362
-0.00144783
5.04239e-05
-0.000111733
-0.000792447
9.98093e-06
-0.000103373
-0.000637967
-2.2006e-05
-6.3201e-05
-0.000948201
-1.62672e-05
-6.89691e-05
-0.00140669
-1.63771e-05
-7.26464e-05
-0.00162992
1.48675e-05
-7.06716e-05
-0.00144983
1.13235e-05
-4.83142e-05
-0.00136175
-4.84483e-05
-2.95101e-05
-0.0012941
-0.00124337
-6.34389e-05
-0.00452187
-0.00038749
0.00113651
-0.00623502
-0.00111719
0.000402366
-0.00557272
0.000617052
0.000634358
-0.00578418
-7.59856e-05
0.000599566
-0.00651764
-0.000532072
0.000693063
-0.00677734
0.000265966
0.000176741
-0.00253327
0.000369271
9.22591e-07
-0.00426599
0.00019244
0.000315721
-0.00426459
-7.25784e-05
0.000477454
-0.00585364
1.04541e-05
-0.000103952
-0.00210515
4.78018e-05
-0.000112218
-0.00196457
0.000170043
-0.000186699
-0.0017486
0.000209977
-0.000165894
-0.00166075
0.000191978
-4.04274e-05
-0.000825923
-6.00913e-05
-0.000143664
-0.00203059
-1.4573e-05
-0.000124365
-0.00143141
3.09988e-05
-0.000141292
-0.00143625
4.78209e-05
-0.000157972
-0.00143455
3.39309e-05
-0.000134693
-0.000783734
-1.2279e-05
-0.000116852
-0.000557285
1.44561e-05
-5.29149e-05
-0.000256821
-1.85097e-05
-6.65062e-05
-0.000932155
-2.39871e-05
-7.16148e-05
-0.00138374
-1.70961e-05
-7.32936e-05
-0.0016102
1.46999e-05
-6.96843e-05
-0.00144316
8.21449e-06
-4.80351e-05
-0.00135144
-5.68341e-05
-2.9097e-05
-0.00120817
-0.00142645
0.000327031
-0.00405607
-0.00111617
0.00024654
-0.00557345
-0.00127513
2.65895e-05
-0.00439052
0.000138714
0.00134608
-0.00597901
-0.00091045
0.00098617
-0.00598436
-0.00122555
0.000397545
-0.00527679
0.000315893
0.000518278
-0.00429957
0.000373771
0.000479775
-0.00566888
-0.000298083
0.000608478
-0.00594253
-0.000955423
0.000608604
-0.0065031
0.000154993
0.000162623
-0.00240499
0.000375235
2.33892e-05
-0.00288317
0.000295115
-1.72572e-05
-0.00405808
0.00016074
0.000417048
-0.00415495
-0.000120571
0.000476938
-0.00601802
-0.000202389
-7.0747e-05
-0.00251434
-1.49613e-05
-8.65202e-05
-0.00213046
8.29759e-05
-0.000115533
-0.00208771
0.000101666
-0.000198113
-0.00177023
0.000162763
-0.000140508
-0.0016895
0.000158825
-2.46748e-05
-0.000972352
-7.20916e-06
-0.000165684
-0.00179687
-6.93273e-05
-0.000152594
-0.00195154
-3.54794e-05
-0.000129306
-0.0014319
3.06457e-05
-0.000155756
-0.0014862
3.97784e-05
-0.000171131
-0.00142319
2.33653e-05
-0.000149448
-0.000766288
-4.84948e-05
-0.000123466
-0.000442158
5.04966e-05
-5.05731e-05
0.000330809
2.17385e-05
-5.59014e-05
-0.000289164
-1.64666e-05
-7.03664e-05
-0.000916936
-1.66291e-05
-7.43188e-05
-0.00136608
-2.13635e-05
-7.39397e-05
-0.00158458
7.05711e-06
-6.89632e-05
-0.00142928
6.4905e-06
-4.77716e-05
-0.00133925
-6.85822e-05
-2.84615e-05
-0.00111112
-0.00163969
0.000149527
-0.00357305
-0.000931621
0.000261348
-0.00429546
-0.00157203
0.000262432
-0.0040216
-0.000344493
0.000707981
-0.00650209
-0.0011833
0.000293826
-0.00556784
-0.00142202
0.000188392
-0.00438245
5.92182e-06
0.00127162
-0.0056723
-8.06447e-05
0.00125676
-0.00579519
-0.000886279
0.000840277
-0.0058389
-0.00138284
0.000385864
-0.00523524
0.000232194
0.000363534
-0.00396437
0.000453836
0.000332166
-0.00423057
0.000124266
0.000447084
-0.00533664
-0.000375498
0.000644573
-0.00544226
-0.00102458
0.000571808
-0.00617089
-0.000150798
0.000123769
-0.00327569
0.000115368
0.000110325
-0.00262225
0.000281461
-0.000104819
-0.00299409
0.000170955
1.78673e-05
-0.00372819
0.000185406
0.000453504
-0.00415416
-8.40034e-05
0.000416024
-0.00619122
-0.00019859
-0.000105271
-0.00221618
-0.000242606
-6.85793e-05
-0.002359
-5.07127e-05
-8.96206e-05
-0.00214114
3.58182e-05
-0.000124198
-0.0021668
6.77766e-05
-0.000194994
-0.00174374
0.000132196
-0.000119348
-0.00170366
5.59089e-05
6.15228e-05
-0.00113828
0.000100264
-0.000123908
-0.000838933
3.89697e-06
-0.000166712
-0.00176491
-7.11456e-05
-0.000158368
-0.0018678
-1.7641e-05
-0.000137182
-0.00144946
2.89643e-05
-0.000166154
-0.00154151
2.91935e-05
-0.000174835
-0.00141994
1.25443e-05
-0.000155547
-0.000740261
-9.69127e-05
-0.000124242
-0.000289585
1.9818e-05
-3.83631e-05
0.000129105
6.54105e-05
-5.19855e-05
0.000261482
2.646e-05
-5.94529e-05
-0.000326538
-1.18678e-05
-7.39708e-05
-0.000905417
-1.36644e-05
-7.60135e-05
-0.00135035
-2.42056e-05
-7.41366e-05
-0.0015552
1.1945e-05
-6.84107e-05
-0.00142059
4.02795e-06
-4.86412e-05
-0.0013231
-7.31106e-05
-2.91298e-05
-0.00100888
-0.00174477
0.000124049
-0.00322649
-0.00100024
0.000244471
-0.00470174
-0.00179498
0.000173702
-0.00352381
-0.000336016
0.000426021
-0.00558445
-0.000956603
0.00018734
-0.00444706
-0.00158306
0.000225128
-0.00408569
-0.000140357
0.000832285
-0.00621191
-0.000306111
0.000699902
-0.0066827
-0.00100396
0.000503505
-0.00576527
-0.00153382
0.000166033
-0.00439749
-6.83188e-05
0.00117028
-0.00507292
-3.28726e-05
0.0012994
-0.00522823
-0.000183055
0.00115978
-0.00580737
-0.000876584
0.000840551
-0.0057925
-0.00147713
0.000465839
-0.00524853
-0.00010419
0.000307296
-0.00370482
0.000244361
0.000206046
-0.00396724
0.000397781
0.000238212
-0.00413801
4.04391e-05
0.000349057
-0.00491061
-0.000127577
0.000584279
-0.00514175
-0.000982849
0.00060186
-0.00587391
-0.000207172
6.39194e-05
-0.00359028
-0.000116422
7.55396e-05
-0.00336709
0.000106777
-9.53285e-06
-0.00287503
0.000203285
-0.000146981
-0.00299671
0.000169431
3.54875e-05
-0.00341183
0.00016301
0.000385953
-0.0041549
-0.000120239
0.000407506
-0.00642258
-7.75195e-07
-9.78614e-05
-0.00194972
-0.00014989
-0.000101408
-0.00202956
-0.000229895
-8.64788e-05
-0.00220339
-9.88053e-05
-0.000109487
-0.00207469
2.72739e-05
-0.000144974
-0.00221513
6.07509e-05
-0.000189621
-0.00170502
0.000113313
-5.20025e-05
-0.0016909
-5.17587e-05
0.00017835
-0.00136178
1.91109e-05
-3.44302e-05
-0.000263481
7.2082e-05
-0.000127251
-0.000885066
4.2505e-06
-0.00018159
-0.00171948
-5.55947e-05
-0.0001618
-0.00179945
2.67331e-05
-0.000141342
-0.00151467
2.54507e-05
-0.000173547
-0.00159245
1.51555e-05
-0.000171621
-0.00140707
-2.08017e-06
-0.000154895
-0.0007035
-0.000110489
-0.000128099
-0.000124108
-9.5158e-07
-2.27874e-05
7.14406e-05
2.02089e-05
-3.87255e-05
9.56362e-05
7.10453e-05
-5.35404e-05
0.000184525
3.0792e-05
-6.35037e-05
-0.000367797
-1.15164e-05
-7.69656e-05
-0.000892948
-1.32672e-05
-7.77801e-05
-0.00133343
-2.81374e-05
-7.42554e-05
-0.00152122
-3.33601e-06
-6.85579e-05
-0.00139734
1.18035e-05
-4.87006e-05
-0.00131533
-7.52106e-05
-2.81371e-05
-0.000905536
-0.00161342
-0.000105524
-0.00348045
-0.00103143
0.000140113
-0.00439522
-0.00175369
9.60402e-05
-0.00336382
-0.000516173
0.000394599
-0.00474769
-0.000974886
0.000283305
-0.00479306
-0.00169761
0.000132426
-0.00354168
-5.68643e-05
0.00057
-0.00576869
-0.000239303
0.000302306
-0.00576622
-0.000873123
0.000247628
-0.0046004
-0.00170899
0.000245623
-0.00415614
-0.00030175
0.00103166
-0.0060287
-0.000192033
0.000898122
-0.00625097
-0.000280017
0.000764897
-0.00684713
-0.000862634
0.000486311
-0.0060995
-0.00154146
0.000192055
-0.00452521
-0.000265351
0.00123118
-0.00488292
0.000115397
0.00117381
-0.00481837
0.000133795
0.0012716
-0.00507607
-0.000282058
0.00111834
-0.00576267
-0.000521315
0.0010288
-0.00596173
-0.00149695
0.000641405
-0.00537584
-0.00014287
0.000354805
-0.00427629
-7.90128e-05
0.000190335
-0.00372652
0.000206586
0.00013709
-0.00396593
0.000310981
0.000142065
-0.00403872
0.000196648
0.000193164
-0.00454671
0.000189995
0.000546549
-0.00511342
-0.000835453
0.000680811
-0.0058395
-0.000291357
0.000121145
-0.0033882
-0.000211569
-1.39692e-05
-0.00343909
-0.00013098
-5.34004e-06
-0.0034702
1.18387e-05
-4.37975e-05
-0.00308885
0.000171249
-0.000135098
-0.0029701
0.00018777
2.20708e-05
-0.00317496
0.000253913
0.00034928
-0.00423727
-3.60761e-05
0.000297606
-0.00673587
7.69958e-06
-2.71731e-05
-0.00167834
-6.0981e-05
-7.65327e-05
-0.00184153
-0.000157742
-0.000113861
-0.00184019
-0.000196593
-0.000128982
-0.0020429
-6.42302e-05
-0.000136277
-0.00199242
2.98337e-05
-0.00013477
-0.00227436
4.86776e-05
-0.000190172
-0.00160038
6.35252e-05
-2.50318e-05
-0.00155313
-3.0112e-05
0.000290022
-0.00173218
2.06599e-05
-2.33049e-05
-0.000534186
2.25998e-05
-4.74026e-05
-0.00034572
9.02318e-05
-0.00014608
-0.000939763
1.63215e-05
-0.000187821
-0.00167899
-5.55872e-05
-0.000163219
-0.00173351
-4.34458e-07
-0.000156207
-0.00154484
1.42417e-05
-0.000178725
-0.00162773
-3.58943e-06
-0.00016735
-0.00139437
-1.68583e-05
-0.000150557
-0.00065238
-0.00011087
-0.000127271
3.88224e-05
3.04238e-05
-1.67676e-05
6.78815e-05
-5.51161e-06
-2.20804e-05
6.03071e-05
1.98093e-05
-3.87041e-05
6.09907e-05
7.77584e-05
-5.55065e-05
9.87691e-05
3.78135e-05
-6.78097e-05
-0.000414766
-3.98056e-06
-7.95439e-05
-0.000887204
-1.65059e-05
-7.84784e-05
-0.00131271
-3.34999e-05
-7.4642e-05
-0.00148163
-5.85559e-06
-6.64106e-05
-0.00137377
-1.86286e-05
-4.70043e-05
-0.00127784
-7.6043e-05
-2.90584e-05
-0.000800435
-0.00139727
-0.000205882
-0.00331908
-0.00129645
0.000112351
-0.00441355
-0.0015223
-8.67349e-05
-0.00362511
-0.000681862
0.000392947
-0.00449479
-0.00106345
0.000193269
-0.00440389
-0.00166712
5.8787e-05
-0.00345309
-0.000152608
0.000550034
-0.00494127
-0.000222756
0.000391496
-0.00487242
-0.000944611
0.000301651
-0.0048908
-0.00173718
5.25234e-05
-0.003566
-0.000144662
0.00056584
-0.00588568
-0.0001009
0.000524454
-0.00608197
-0.000309574
0.000296792
-0.00578583
-0.000791127
0.000369534
-0.00479582
-0.00172988
0.000296846
-0.00426457
-0.000122052
0.00107647
-0.0060302
-0.000131518
0.00118424
-0.0060679
-0.000177153
0.000990152
-0.00616528
-0.000501651
0.000724948
-0.00686617
-0.000652286
0.000552582
-0.00632905
-0.00152355
0.000157621
-0.00465623
-0.00014257
0.00117511
-0.0047101
-0.000367088
0.00121111
-0.00463214
3.78581e-05
0.00120046
-0.00457849
2.49071e-05
0.00127553
-0.00494718
-5.92207e-05
0.00112884
-0.00560684
-0.000194676
0.00127803
-0.00621368
-0.00138584
0.000565987
-0.00539144
-0.000229889
0.000393414
-0.00481346
-0.000290481
0.00010873
-0.00411577
-4.33869e-05
0.000174439
-0.00385146
0.000129598
1.14595e-05
-0.00395309
0.000221248
2.82104e-07
-0.00389584
0.000251596
9.58188e-05
-0.00415981
0.000176666
0.000599948
-0.00495531
-0.00047519
0.000731411
-0.0061318
-0.000153208
0.000136353
-0.00324403
-0.000171617
3.24398e-05
-0.00332397
-0.000259227
-4.88358e-05
-0.00329411
-7.43707e-05
-9.72548e-05
-0.00353897
-3.92802e-05
-7.03686e-05
-0.00317853
0.000176249
-0.00011482
-0.00297963
0.000159919
4.09919e-08
-0.00293697
0.000225229
0.000260833
-0.00436221
5.42775e-06
0.000289368
-0.00706077
3.70793e-05
-5.59655e-05
-0.00170291
1.12259e-05
-8.36208e-05
-0.00165988
-3.38633e-05
-8.67325e-05
-0.00174457
-5.16047e-05
-0.000146108
-0.00175513
-0.000130884
-0.000154492
-0.00194939
-3.86398e-05
-0.000130103
-0.00195889
-9.06575e-06
-0.000149328
-0.0022919
4.48716e-05
-0.000189816
-0.00148405
8.42473e-05
2.11972e-05
-0.00138541
-2.09614e-05
0.000331584
-0.00215367
8.74407e-05
-2.20918e-05
-0.000983236
2.70082e-05
-2.87335e-05
-0.000585375
2.21891e-05
-6.29839e-05
-0.000431196
0.000113003
-0.000157884
-0.00100494
2.82095e-05
-0.000190609
-0.001642
-3.84398e-05
-0.000172769
-0.00168248
1.78172e-05
-0.000170136
-0.00158776
2.96316e-06
-0.000181301
-0.00165024
-1.82595e-05
-0.000166362
-0.00136616
-4.11853e-05
-0.000143165
-0.00061393
-0.000106662
-0.000125756
0.000195198
0.000101975
-7.35594e-06
7.52942e-05
3.35636e-05
-1.71446e-05
2.93821e-05
-9.09069e-06
-2.06152e-05
5.13089e-05
2.07454e-05
-3.8533e-05
2.32718e-05
8.70318e-05
-5.8231e-05
2.15854e-06
4.32334e-05
-7.16811e-05
-0.000465862
-1.01411e-06
-8.15374e-05
-0.000883131
-1.57514e-05
-7.84037e-05
-0.00129319
-3.77901e-05
-7.47346e-05
-0.00143552
-9.59335e-06
-6.46582e-05
-0.00134653
-1.59484e-05
-4.72768e-05
-0.00124367
-7.5023e-05
-2.90131e-05
-0.000696399
-0.00156769
0.000264532
-0.00305037
-0.00151373
-8.11315e-05
-0.00371967
-0.00127947
-0.000253557
-0.00330835
-0.000800751
0.000274528
-0.00444235
-0.00138774
0.00016784
-0.00434383
-0.00151509
-8.87769e-05
-0.00368837
-0.000295511
0.000547541
-0.00456226
-0.000473852
0.000444126
-0.00449455
-0.00107646
0.000209983
-0.00442324
-0.00160247
4.68663e-05
-0.00363467
-0.000157964
0.000658476
-0.00506013
-0.00012267
0.000519056
-0.00504706
-0.000412523
0.000403892
-0.00487172
-0.000840714
0.000304396
-0.00509308
-0.00166661
-5.13825e-05
-0.0035779
-1.94332e-05
0.000681128
-0.00597784
-0.000102093
0.000587854
-0.0059785
-0.000337273
0.000472107
-0.00609717
-0.000483361
0.000408174
-0.00584276
-0.00049576
0.000484416
-0.00513992
-0.00165506
0.00023283
-0.00436589
3.11591e-05
0.00111259
-0.00596356
-0.000299086
0.00111683
-0.00603079
-0.000194861
0.00118581
-0.00603085
-0.000216604
0.000957269
-0.00615609
-0.000428516
0.000719475
-0.00666377
-0.000764992
0.000503646
-0.00610476
-0.00137999
0.000104274
-0.00476635
-3.42321e-05
0.0011328
-0.00514443
-0.000363668
0.00119388
-0.00461968
-0.000158938
0.00118323
-0.00449936
-0.000180371
0.00121971
-0.0042127
-3.788e-05
0.00120168
-0.00476089
5.97866e-05
0.00117801
-0.00531501
-0.000402837
0.00106224
-0.00613043
-0.0011157
0.000538098
-0.00528902
-0.000195167
0.00037285
-0.00480513
-0.000172789
0.000150937
-0.0048545
-0.000287138
0.000212011
-0.00412543
0.000108601
1.36753e-05
-0.00403665
0.000320332
-0.000223317
-0.0040891
0.000290872
-0.000151212
-0.00376343
0.000740314
0.000121636
-0.00426189
0.000145168
0.00062483
-0.00476867
-0.000523094
0.000605194
-0.00620847
-0.000101208
0.000157895
-0.00287818
-0.000178152
9.06703e-05
-0.00311288
-0.000264627
6.77969e-07
-0.00314272
-0.000194375
-0.000147525
-0.00310107
-0.000113194
-0.000150038
-0.00347699
1.97711e-05
-9.23913e-05
-0.00325937
0.000114223
-9.79238e-05
-0.00300495
0.000182053
-2.86629e-05
-0.00278465
0.000341495
0.000184488
-0.00451457
-0.000141944
0.000246147
-0.00718594
0.000132499
1.7733e-05
-0.00164994
6.64383e-05
-0.000123495
-0.00170247
-1.31653e-05
-8.87023e-05
-0.00162256
6.20004e-06
-0.000105437
-0.00167843
-3.39108e-05
-0.00017169
-0.00167582
-0.000107587
-0.00016621
-0.00184413
-6.81844e-07
-0.000154299
-0.00193542
-3.49471e-05
-0.000154101
-0.0022897
-3.3002e-05
-0.000180156
-0.00126796
0.000186891
5.78603e-05
-0.00133976
-8.01323e-05
0.000302342
-0.00248255
7.50632e-05
1.202e-05
-0.00108486
8.43799e-05
-2.28149e-05
-0.00103997
2.90451e-05
-4.03473e-05
-0.000646148
4.34633e-05
-7.79216e-05
-0.000533876
0.000141248
-0.000165088
-0.00108468
2.39283e-05
-0.000193002
-0.00160246
-2.2449e-05
-0.000180161
-0.00165103
3.2038e-05
-0.000176372
-0.00164047
-9.94139e-06
-0.000183936
-0.00166051
-2.95354e-05
-0.000164752
-0.00132463
-7.23917e-05
-0.000135058
-0.000548185
-0.00010234
-0.000123624
0.000346139
0.000156207
-7.52802e-06
0.00057565
9.79727e-05
-9.75064e-06
-3.00725e-05
3.974e-05
-1.61172e-05
-1.48559e-05
-7.84964e-06
-1.85758e-05
3.92014e-05
2.82249e-05
-3.84505e-05
-2.47336e-05
9.34115e-05
-6.11145e-05
-0.00010182
4.88087e-05
-7.45466e-05
-0.000521662
-7.30133e-06
-8.21205e-05
-0.000872112
-2.12354e-05
-7.86242e-05
-0.00126807
-4.50529e-05
-7.3379e-05
-0.00138175
-1.53273e-05
-6.35803e-05
-0.00131489
-1.74172e-05
-4.64944e-05
-0.00120877
-7.30291e-05
-2.96644e-05
-0.000593705
-0.00171936
4.20541e-05
-0.00235196
-0.00153842
0.000192679
-0.00320856
-0.00147538
0.000149088
-0.00300355
-0.00111508
0.000134703
-0.00423211
-0.00160983
-4.40065e-05
-0.00370713
-0.00136285
-0.000109975
-0.00335061
-0.000389192
0.000433543
-0.00441293
-0.000758382
0.000370353
-0.00436033
-0.0013343
0.000155378
-0.00433015
-0.00149037
-7.01101e-05
-0.00373036
-0.000245087
0.000677185
-0.00470182
-0.000174961
0.00055373
-0.00461957
-0.000506125
0.000404374
-0.00459534
-0.000961516
0.000277905
-0.00453347
-0.0013345
3.50348e-05
-0.00400182
-0.000183885
0.000788484
-0.00502487
-0.000196642
0.000656935
-0.00510346
-0.000415924
0.000534892
-0.00509941
-0.000555085
0.000380046
-0.00487564
-0.000530428
0.000188792
-0.00529859
-0.00136925
-5.38171e-05
-0.00380989
-2.74747e-06
0.000784143
-0.00581836
-0.000230201
0.000632225
-0.0060911
-0.000247725
0.000574348
-0.00602788
-0.000333586
0.000510465
-0.00608247
-0.000522588
0.000498113
-0.00576239
-0.000525
0.000527206
-0.00567428
-0.00136535
0.000144304
-0.00452484
-4.70235e-05
0.00111678
-0.00586465
-0.000188295
0.00111983
-0.00614194
-0.000217602
0.00120435
-0.00599066
-0.000404854
0.00112012
-0.00596922
-0.000280301
0.000964098
-0.00615829
-0.000217949
0.000762646
-0.00664503
-0.000641813
0.000430531
-0.00619204
-0.00111621
6.58428e-05
-0.00483169
-3.96465e-06
0.00111648
-0.00521123
-0.000137007
0.00114924
-0.00513558
-0.000275727
0.00111014
-0.00455801
-0.00011238
0.00117431
-0.00423298
0.000239751
0.00108778
-0.00401822
3.46113e-05
0.00112739
-0.00445401
0.00044002
0.0012156
-0.00516808
-0.000221569
0.000681114
-0.00590671
-0.00115765
0.000545218
-0.00519968
-0.000195131
0.000454766
-0.00475766
-0.000270254
0.00033957
-0.00490166
-0.000295849
0.00021114
-0.0048224
-0.000271641
8.03292e-05
-0.00411482
-2.43678e-05
-0.000180823
-0.00416797
0.000265291
-0.000335586
-0.00415024
0.000446349
-7.72563e-05
-0.00389666
0.000434293
0.000320487
-0.00420979
0.000344325
0.000525201
-0.00469151
-0.00074333
0.000456316
-0.0060634
1.84696e-05
0.000179567
-0.00264783
-9.86673e-05
0.000139411
-0.00276181
-0.000186539
6.9353e-05
-0.00300818
-0.000247718
-4.02103e-05
-0.00299612
-0.000199789
-0.000197003
-0.00288823
-8.24934e-05
-0.00014245
-0.00345202
5.20638e-05
-0.000113388
-0.00329665
0.00010569
-5.93513e-05
-0.0031149
6.51191e-05
7.16707e-05
-0.00276995
0.000577447
0.000101245
-0.00476023
-0.000320929
0.000266531
-0.00721167
4.66546e-05
0.000146021
-0.00147222
0.000146705
-1.34335e-05
-0.00182232
8.46299e-05
-0.000108383
-0.00173837
3.38208e-05
-6.25752e-05
-0.00165578
4.06685e-05
-0.000133069
-0.00161647
-0.000108651
-0.00017562
-0.00153383
-5.51303e-05
-0.000201383
-0.00176437
3.74483e-05
-0.000149036
-0.00194589
-4.23273e-05
-0.000159191
-0.00227828
-0.000101591
-0.00016957
-0.000968471
0.000243494
9.13446e-05
-0.00144465
2.36621e-05
0.000249582
-0.00285813
0.000271475
4.19644e-05
-8.43692e-05
6.42277e-05
8.63023e-06
-0.00108256
0.000102821
-3.02526e-05
-0.00111315
5.0585e-05
-5.18494e-05
-0.000730654
8.06708e-05
-9.3087e-05
-0.000658323
0.000137334
-0.000170494
-0.00115111
5.05008e-05
-0.00019415
-0.00159016
-3.83512e-05
-0.000180932
-0.00161541
3.14029e-05
-0.000180868
-0.00169618
-2.82783e-05
-0.00018206
-0.00165998
-2.83344e-05
-0.000156201
-0.00129048
-9.49446e-05
-0.000128646
-0.000465636
-5.58581e-05
-0.000121055
0.000450023
0.000121339
-1.50873e-06
-7.25442e-05
0.000156026
-7.61726e-06
0.000417491
9.22019e-05
-1.069e-05
-0.000127702
5.08169e-05
-1.45336e-05
-6.9715e-05
6.4374e-06
-1.60897e-05
1.04031e-05
4.4547e-05
-3.873e-05
-9.16651e-05
9.5161e-05
-6.31114e-05
-0.000208416
4.59321e-05
-7.58492e-05
-0.000573865
-1.42583e-05
-8.13959e-05
-0.000855082
-3.1143e-05
-7.79035e-05
-0.0012324
-5.22397e-05
-7.07193e-05
-0.00132237
-1.155e-05
-6.1599e-05
-0.00128824
-1.20052e-05
-4.65199e-05
-0.00117991
-7.00015e-05
-2.94533e-05
-0.000494251
-0.00153558
-0.000156945
-0.0024458
-0.00147574
-5.4563e-05
-0.00300624
-0.0017467
0.000146219
-0.00222686
-0.0012305
0.000397773
-0.00373419
-0.00164853
9.0728e-05
-0.0031115
-0.00158823
0.000184757
-0.00296292
-0.000648987
0.000311376
-0.0043861
-0.000843916
0.000154727
-0.00434531
-0.00152587
9.34743e-05
-0.003719
-0.00138371
2.95006e-05
-0.00348677
-0.000478653
0.000620709
-0.004378
-0.000307779
0.000500018
-0.00440978
-0.00074428
0.000340898
-0.0043077
-0.00122236
0.00014156
-0.00428098
-0.000859702
-0.000146135
-0.00405902
-0.000359239
0.000820577
-0.00466826
-0.000281524
0.000711478
-0.00477469
-0.000363765
0.000472348
-0.0047397
-0.000504334
0.000421939
-0.00479013
-0.000890913
0.000323656
-0.00446161
-0.00112299
-2.56864e-05
-0.00422239
-6.21535e-05
0.000829406
-0.00507939
-0.000266112
0.000750903
-0.00508293
-0.000344116
0.000649425
-0.0051216
-0.000401669
0.000520729
-0.00517201
-0.000522961
0.000315573
-0.00500205
-0.000592771
8.73255e-05
-0.00537196
-0.00128482
-2.8953e-06
-0.00388753
-0.000278365
0.000928844
-0.00580765
-0.000117114
0.000721188
-0.0059785
-0.000369318
0.000678512
-0.00604355
-0.000362682
0.00055079
-0.00611038
-0.000502816
0.000583248
-0.0059451
-0.000526009
0.000618886
-0.00554601
-0.000580335
0.000467258
-0.00605872
-0.00113854
0.000133375
-0.00463588
0.000135216
0.00109214
-0.0056024
-0.000144868
0.00122517
-0.00596213
-0.000272477
0.00119007
-0.0061309
-0.000329933
0.0011893
-0.00584228
-0.000313061
0.0012418
-0.00569411
-0.000327291
0.00103792
-0.00607167
-0.000496944
0.000853323
-0.00613086
-0.00031943
0.000503134
-0.00653147
-0.00104038
0.000181299
-0.00513026
-0.000115858
0.00114688
-0.00547996
-8.07951e-05
0.00111413
-0.00536558
-0.000161711
0.00106677
-0.00522634
-0.000134859
0.00101631
-0.00453679
-9.36679e-05
0.00101675
-0.00409265
0.000291251
0.000948155
-0.00386494
0.000342498
0.00119108
-0.00432564
0.00046701
0.000843792
-0.00536347
0.000148482
0.000712694
-0.00587835
-0.00114873
0.000471168
-0.00526545
-6.81673e-05
0.000585362
-0.0045485
-0.000189194
0.000438327
-0.00476589
-0.000218396
0.000249845
-0.00490851
-0.000229812
5.84614e-05
-0.00481844
-0.000303883
-1.08452e-05
-0.0041807
2.70158e-06
-0.000341825
-0.00424692
0.000224438
-0.000184312
-0.00421556
0.000246235
8.2948e-05
-0.00379967
0.000465337
0.000168059
-0.00425286
0.000728958
0.000571151
-0.00495785
-0.000771009
0.000477
-0.00609032
-1.00262e-05
0.000227937
-0.00229507
1.3735e-05
0.000182824
-0.00255827
-6.2982e-05
0.000143762
-0.00268861
-0.000141847
3.93929e-05
-0.00291211
-0.000225328
-8.46842e-05
-0.00284244
-0.00023215
-0.000185019
-0.00272216
-5.47119e-05
-0.000247421
-0.00331841
9.80607e-05
-7.47543e-05
-0.00334186
0.000224154
8.43184e-05
-0.00339403
-1.72035e-05
0.000131133
-0.00288423
0.000346206
0.000302355
-0.00489876
-0.000206859
0.000388546
-0.0073697
0.000218215
0.000169418
-0.00110088
5.79681e-05
0.000126085
-0.00160547
0.000177969
-5.17742e-06
-0.00200068
0.000129447
-4.89408e-05
-0.00183087
7.99036e-05
-7.32617e-05
-0.00171482
4.5003e-05
-0.00014435
-0.00155541
-2.67396e-06
-0.000210324
-0.00147171
-7.59664e-05
-0.00017931
-0.00169648
7.58487e-05
-0.000160065
-0.00198946
-6.6386e-05
-0.000143606
-0.00226614
-5.74947e-05
-0.00014919
-0.000698776
0.000165777
9.77944e-05
-0.00155358
8.12681e-05
0.000101498
-0.00309675
0.000266051
7.77922e-05
-0.000417364
0.000278192
3.87632e-05
-0.000236669
5.22533e-05
5.80007e-06
-0.00107867
0.000130103
-3.67973e-05
-0.00120748
8.26384e-05
-5.6491e-05
-0.000843452
0.000120981
-0.000100593
-0.000804658
0.000142942
-0.000173512
-0.00121953
1.82808e-05
-0.000188402
-0.00155504
-3.94631e-05
-0.000179555
-0.00159152
-4.07272e-06
-0.000179629
-0.00172568
-4.90022e-05
-0.00017025
-0.00164917
-3.15985e-05
-0.000145785
-0.00125329
-0.000108721
-0.000124095
-0.000365881
6.67062e-07
-0.000117655
0.00049701
0.000182427
6.96315e-06
0.000815101
0.000115737
-3.81457e-06
-0.000192084
0.000155247
-7.08886e-06
0.000258642
8.67173e-05
-1.09245e-05
-0.000218028
6.42716e-05
-1.30496e-05
-0.000137027
2.89206e-05
-1.35563e-05
-4.36911e-05
6.30644e-05
-3.87479e-05
-0.000179093
9.85095e-05
-6.38685e-05
-0.000318906
4.43717e-05
-7.52948e-05
-0.000624338
-1.99791e-05
-8.0457e-05
-0.00083255
-3.67e-05
-7.57709e-05
-0.00119065
-5.65325e-05
-6.87705e-05
-0.00125866
-1.72831e-05
-6.03757e-05
-0.0012571
-1.87801e-05
-4.5081e-05
-0.0011455
-6.70259e-05
-2.88351e-05
-0.00039839
-0.0016454
0.00015219
-0.00213023
-0.00135877
-0.000261775
-0.00300404
-0.00155331
-0.000206083
-0.0024331
-0.0011941
-3.94176e-05
-0.00352609
-0.00157362
2.58443e-05
-0.00296077
-0.00176434
0.000164612
-0.00221537
-0.000815392
0.000501871
-0.00407482
-0.0010117
0.000165816
-0.00364149
-0.00157582
0.000194512
-0.0030713
-0.00164329
0.000158224
-0.00286157
-0.000684831
0.000462802
-0.00442038
-0.000471991
0.000273234
-0.0043404
-0.00113982
0.000271064
-0.00412737
-0.00153368
0.000239658
-0.00361783
-0.000931696
6.65953e-05
-0.00348137
-0.000540135
0.000785531
-0.00444204
-0.000272778
0.000619875
-0.00450661
-0.000425699
0.000430289
-0.00443724
-0.000646864
0.000314929
-0.00433853
-0.00109457
8.80619e-05
-0.00431152
-0.00112002
-0.000129603
-0.00393239
-9.17088e-05
0.000888269
-0.00476637
-0.000167968
0.000796734
-0.00485166
-0.000385062
0.000624726
-0.00488612
-0.000340275
0.000489184
-0.00486834
-0.000476491
0.000381314
-0.00489426
-0.000906783
0.000222213
-0.0043955
-0.00127991
-4.12277e-06
-0.00422318
-0.000308971
0.000903461
-0.00508095
-0.000230941
0.000810725
-0.00502538
-0.000448712
0.000734484
-0.00508859
-0.000456059
0.00069955
-0.00520704
-0.000527186
0.000446449
-0.00527852
-0.000612272
0.000283633
-0.0051121
-0.000821911
0.000104174
-0.00523745
-0.00127908
2.87098e-05
-0.00377569
-0.000140149
0.00109525
-0.00585153
-0.000366385
0.000902742
-0.00576769
-0.000345616
0.0007242
-0.00595105
-0.00044603
0.00069051
-0.00606717
-0.00046601
0.000595517
-0.0059697
-0.000562124
0.000754802
-0.00584618
-0.000358052
0.000573857
-0.0057915
-0.00052892
0.000400391
-0.00611624
-0.00111517
0.000134928
-0.00469602
-8.97432e-05
0.0010564
-0.00549015
3.8667e-05
0.00118232
-0.00567901
-0.000179582
0.00122575
-0.00597995
-0.00026976
0.00120683
-0.00601353
-0.000400423
0.00122561
-0.00551933
-0.000168621
0.00125174
-0.00544806
-0.000157434
0.00109141
-0.00580983
3.43241e-05
0.000923702
-0.00611874
-0.000134416
0.000573726
-0.006641
-0.00086729
0.000125279
-0.00553699
-0.000153919
0.00123116
-0.00563906
-0.00013238
0.00107504
-0.00549769
-8.27681e-05
0.00106367
-0.00549811
-8.40517e-05
0.000946224
-0.00530201
-0.000281555
0.000851589
-0.00439396
4.08723e-06
0.000947109
-0.00409299
0.000194062
0.000970301
-0.00361378
7.52341e-05
0.00103363
-0.00434448
0.000546402
0.000683162
-0.005415
0.000473648
0.000856723
-0.00600859
-0.00106222
0.000361431
-0.00533567
-0.000151101
0.000636179
-0.00461054
-0.000338099
0.00055615
-0.00431449
-0.000206092
0.000309691
-0.00468262
-0.000216651
0.000119756
-0.004895
-0.000316458
-4.08036e-05
-0.00469735
-0.000198909
-0.000197653
-0.00435811
-9.12847e-05
-0.000263101
-0.00413156
6.83532e-05
-0.000136651
-0.00396626
0.000480671
-7.79144e-05
-0.00381021
0.000351392
0.000328106
-0.00437841
0.000216524
0.000741015
-0.00509219
-0.000667058
0.000434467
-0.00606459
-9.36688e-06
0.000293631
-0.00197648
3.1597e-05
0.000209142
-0.00229502
3.59406e-05
0.000195682
-0.00246816
-5.01992e-05
0.000157859
-0.00262743
-9.72306e-05
2.87425e-05
-0.00284841
-0.000177575
-0.000129498
-0.00267538
-0.000126815
-0.000267994
-0.00257745
-3.32725e-05
-0.000219209
-0.00321665
0.000202429
-4.99835e-05
-0.00333414
0.000110764
0.000211322
-0.00365137
-1.69651e-05
0.000300723
-0.00292313
0.000663816
0.000571509
-0.00557976
-0.000310234
0.000455963
-0.00743416
0.000227569
0.000245485
-0.000641975
0.00024998
0.000148368
-0.00109495
5.22865e-05
0.000110616
-0.0017213
0.000215124
2.24777e-05
-0.00215712
0.000147644
-2.36804e-05
-0.00194545
9.17504e-05
-0.000104283
-0.00172565
6.76387e-05
-0.000166192
-0.00152424
-5.21692e-05
-0.000203191
-0.00137738
-9.47174e-05
-0.000195806
-0.00160548
1.35303e-05
-0.000145167
-0.0020055
-0.00013165
-0.000128725
-0.00220395
8.58907e-06
-0.000122696
-0.000518473
9.95182e-05
8.68953e-05
-0.00174722
0.00012423
2.58043e-05
-0.00324612
0.000362781
0.00010911
-0.000625553
0.000271321
6.93793e-05
-0.000603565
0.00028146
3.72787e-05
-0.00039436
4.13126e-05
5.54789e-06
-0.00107561
0.000146044
-3.26504e-05
-0.0013131
0.000116945
-5.22667e-05
-0.000979802
0.000154952
-0.00010123
-0.000968828
0.000137613
-0.000174023
-0.00127301
3.0874e-05
-0.000180094
-0.001541
-4.52018e-05
-0.000183581
-0.00156235
-1.81249e-05
-0.000171018
-0.00174349
-7.01186e-05
-0.000158607
-0.00162276
-3.24678e-05
-0.000138319
-0.00122388
-0.000110216
-0.000120583
-0.000271517
5.12288e-05
-0.000113745