/*--------------------------------*- C++ -*----------------------------------*\
  =========                 |
  \\      /  F ield         | OpenFOAM: The Open Source CFD Toolbox
   \\    /   O peration     | Website:  https://openfoam.org
    \\  /    A nd           | Version:  7
     \\/     M anipulation  |
\*---------------------------------------------------------------------------*/
FoamFile
{
    version     2.0;
    format      ascii;
    class       volVectorField;
    location    "3";
    object      U;
}
// * * * * * * * * * * * * * * * * * * * * * * * * * * * * * * * * * * * * * //

dimensions      [0 1 -1 0 0 0 0];

internalField   nonuniform List<vector> 
18750
(
(1.09445 0.117144 -0.576214)
(0.348044 -0.512384 -0.545091)
(0.855429 -0.425305 -0.725016)
(1.06498 0.0699909 -0.574392)
(0.0729443 -0.445761 0.149114)
(0.398681 -0.268108 -0.0416381)
(0.402186 -0.327683 -0.606109)
(0.963091 -0.35368 -1.43629)
(0.849091 -0.395175 -0.72383)
(1.07633 0.0744006 -0.550861)
(3.28278 -1.26735 1.00777)
(0.795438 -1.16969 -0.0819505)
(0.128385 -0.58131 0.096755)
(1.01076 -0.184561 -0.805559)
(0.439713 -0.320876 -0.104682)
(0.43094 -0.197296 -0.63894)
(1.14274 0.195919 -1.60295)
(0.92681 -0.445404 -1.40239)
(0.838852 -0.425491 -0.720228)
(1.0768 0.0859175 -0.550348)
(4.84231 0.868973 0.705454)
(2.91757 -1.8547 1.04943)
(3.21689 -1.94342 1.03739)
(0.887788 -0.775165 -0.455362)
(0.890687 -0.938587 -0.424215)
(0.185682 -0.592211 0.0417328)
(0.884277 -0.425338 -0.608151)
(0.968557 -0.283444 -0.865009)
(0.442082 -0.359051 -0.319033)
(0.480412 0.0257466 -0.68603)
(0.989191 0.103041 -1.35971)
(1.15884 0.110012 -1.62514)
(0.881671 -0.619355 -1.34389)
(0.809262 -0.44574 -0.726617)
(1.06192 0.11949 -0.538011)
(3.9863 1.73236 -0.436281)
(4.53646 -1.92653 1.63778)
(4.69435 -0.234677 1.02697)
(2.68321 -1.31173 0.269097)
(2.78716 -1.68725 1.30575)
(3.38003 -2.15367 1.11418)
(1.28161 -0.00726676 -0.362988)
(1.01888 -0.565563 -0.760511)
(0.933514 -0.722179 -0.456213)
(0.268322 -0.574812 -0.0350478)
(0.962101 -0.0385707 -0.79441)
(0.872848 -0.417416 -0.824307)
(0.906429 -0.433468 -0.971597)
(0.453239 -0.329648 -0.558057)
(0.514438 0.132217 -0.703026)
(0.679901 0.134177 -1.4814)
(0.993137 0.0807531 -1.42038)
(1.1714 0.123597 -1.61709)
(0.946508 -0.375413 -1.38842)
(0.808853 -0.446593 -0.737672)
(1.05395 0.113658 -0.529184)
(3.19663 1.3241 0.326679)
(4.12988 -1.18674 2.09332)
(4.11266 1.63254 -0.367421)
(3.69596 -2.09523 1.2314)
(4.37888 -1.01541 1.79356)
(4.55398 -0.907293 1.2766)
(1.52543 -0.626186 0.680592)
(2.8407 -1.03699 0.029931)
(2.61533 -1.8436 1.44998)
(3.46871 -2.09243 1.06758)
(1.41681 -0.045937 -0.602534)
(1.28464 -0.109019 -0.379556)
(1.04603 -0.580097 -1.01436)
(0.981857 -0.581892 -0.409025)
(0.340879 -0.570825 -0.0876627)
(1.40859 0.0536952 -0.859449)
(0.950613 -0.153171 -0.883953)
(0.873756 -0.442248 -1.0079)
(0.853493 -0.528174 -1.08563)
(0.442972 -0.31336 -0.788614)
(0.518915 0.212789 -0.707064)
(0.184884 0.00173866 -1.20154)
(0.680459 0.0490935 -1.54314)
(1.00157 0.066803 -1.46864)
(1.1694 0.0502835 -1.59618)
(0.906701 -0.513082 -1.36074)
(0.758442 -0.461756 -0.748006)
(1.05542 0.138816 -0.503107)
(2.86018 1.72497 0.181462)
(4.04088 1.76515 -0.43912)
(3.22389 1.08267 0.403908)
(3.91518 -1.20956 2.18807)
(4.11895 0.200803 1.74732)
(4.10947 1.54739 -0.0826563)
(2.79594 -1.24802 1.53457)
(3.59707 -2.10574 1.12478)
(4.1059 -0.766041 1.72574)
(4.73123 0.276111 0.682957)
(1.53366 -0.341347 0.376657)
(1.78981 -0.734216 -0.0610317)
(2.53494 -1.37201 0.400904)
(2.35396 -1.91669 1.76801)
(3.4796 -2.25804 0.943174)
(1.75421 0.315716 -0.234176)
(1.43643 -0.0236407 -0.597446)
(1.32317 -0.398473 -0.511453)
(1.08916 -0.54599 -1.02839)
(1.0096 -0.551687 -0.2524)
(0.413985 -0.504058 -0.0959264)
(1.18398 -0.56568 -1.15552)
(1.34646 -0.0744746 -0.924859)
(0.960864 -0.137955 -0.93631)
(0.889936 -0.489776 -1.13434)
(0.837231 -0.523321 -1.17638)
(0.429052 -0.301012 -0.978731)
(0.514448 0.309529 -0.680419)
(-0.280196 -0.551894 -1.00727)
(0.185803 -0.0962326 -1.29429)
(0.659027 -0.0226469 -1.61911)
(0.992131 -0.0174458 -1.52591)
(1.18319 0.0301052 -1.59596)
(0.880941 -0.502502 -1.35984)
(0.748308 -0.545329 -0.763598)
(1.04349 0.19367 -0.488442)
(2.5938 1.52825 0.150805)
(2.95472 0.995972 0.643833)
(2.99962 1.67274 0.0469196)
(4.33522 0.0627742 1.17879)
(3.94674 1.70345 -0.29193)
(3.28406 1.21842 0.226614)
(3.7581 -0.790479 2.64173)
(3.80785 -0.599943 2.00107)
(4.12857 0.296003 1.45495)
(4.1545 1.64459 -0.1582)
(2.58583 -0.801949 0.825957)
(2.54759 -2.07527 0.917081)
(3.33731 -1.66303 1.2164)
(3.63977 -0.80677 1.91299)
(4.57659 -0.143749 0.566225)
(2.27684 0.669445 0.525704)
(1.61991 -0.396075 0.13422)
(1.84698 -0.886865 -0.456121)
(2.36667 -1.14464 0.653179)
(2.23 -1.87002 1.83121)
(3.4866 -2.38491 0.806803)
(1.60263 0.441509 -0.321257)
(1.73699 0.370222 -0.0865165)
(1.48796 0.0174261 -0.501881)
(1.36726 -0.507609 -0.580781)
(1.05637 -0.584038 -0.955096)
(1.00556 -0.560941 -0.10954)
(0.634179 -0.257718 0.109719)
(0.489617 -0.411144 -1.19782)
(1.09511 -0.707473 -1.22695)
(1.28572 -0.147227 -0.94178)
(0.908414 -0.35785 -1.02451)
(0.898689 -0.525725 -1.23115)
(0.828222 -0.504633 -1.19427)
(0.429598 -0.256044 -1.10146)
(0.55283 0.485694 -0.655291)
(-0.127126 -0.393756 -1.09733)
(-0.290384 -0.637709 -1.0554)
(0.181816 -0.205223 -1.39187)
(0.631403 -0.110391 -1.68316)
(0.997169 -0.0348894 -1.55993)
(1.16183 -0.0102912 -1.56414)
(0.82474 -0.648774 -1.33639)
(0.730587 -0.599339 -0.771403)
(0.988324 0.19138 -0.491819)
(2.38109 1.76435 0.213637)
(3.23423 0.788058 0.185875)
(2.56132 1.64155 0.173591)
(3.70131 0.0896902 0.103108)
(3.08705 0.775468 0.609003)
(3.1688 1.56931 -0.0343877)
(4.16837 -0.0092635 1.13221)
(4.3763 -0.394028 1.14504)
(4.13822 0.837791 0.424968)
(3.4348 1.19281 0.149129)
(3.44301 -0.852925 2.16856)
(3.4906 -0.911358 2.49607)
(3.86265 -0.439924 1.79028)
(4.13565 0.270538 1.4853)
(4.34261 1.61847 -0.306031)
(2.41365 -0.3447 0.782624)
(2.57253 -0.820247 0.556388)
(2.4904 -1.63546 0.762603)
(3.12215 -1.52839 1.14037)
(3.29841 -1.28412 1.94962)
(4.16902 -0.499666 0.635425)
(2.44456 0.597315 0.122988)
(2.30381 0.620088 0.430456)
(1.78982 -0.438909 -0.198704)
(1.90942 -0.681966 -0.508757)
(2.13273 -1.05315 0.766517)
(2.28856 -1.94541 1.5714)
(3.53948 -2.30354 0.650812)
(1.10299 -0.846462 -0.63499)
(1.48406 0.327138 -0.447246)
(1.62303 0.291409 -0.246201)
(1.45798 -0.132269 -0.513126)
(1.35178 -0.614706 -0.622454)
(1.00184 -0.608822 -0.905699)
(0.985109 -0.603545 0.460355)
(0.918622 -0.069397 0.865403)
(0.16966 0.148155 -0.44937)
(0.508958 -0.697153 -1.16208)
(1.02588 -0.743341 -1.28902)
(1.21449 -0.233356 -0.960917)
(0.860108 -0.561048 -1.08179)
(0.905085 -0.582059 -1.26098)
(0.822488 -0.475107 -1.15971)
(0.428063 -0.2151 -1.14567)
(0.583349 0.60572 -0.72032)
(-0.0518163 -0.0414484 -0.512314)
(-0.128074 -0.375258 -1.12012)
(-0.304671 -0.726515 -1.12098)
(0.165682 -0.327161 -1.48778)
(0.601032 -0.178249 -1.73352)
(0.978575 -0.0938715 -1.59707)
(1.18337 -0.0227933 -1.58491)
(0.85386 -0.466096 -1.35462)
(0.495856 -0.737155 -0.827252)
(0.972975 0.153859 -0.469512)
(2.43082 1.41211 -0.269128)
(3.01535 0.916689 0.0288326)
(2.44987 1.73901 0.110296)
(3.12536 0.158446 0.398533)
(3.29781 0.659106 0.219993)
(2.80476 1.3489 0.0429321)
(3.74215 -0.333708 0.95139)
(3.80836 -0.184163 -0.0538851)
(3.22912 0.525775 0.617069)
(3.31151 1.48486 -0.0867373)
(4.06907 0.290302 1.45115)
(4.21126 -0.254145 1.13548)
(4.54236 -0.735032 1.06354)
(4.19319 0.265704 0.418401)
(3.5586 1.02894 0.0409198)
(3.26795 0.140117 2.28182)
(3.09437 -1.21285 2.36774)
(3.19941 -1.39585 2.36386)
(3.8305 -0.752748 1.82388)
(3.88146 -0.899193 1.99667)
(4.59171 1.35609 -0.476241)
(2.81969 -0.174856 0.61209)
(2.38361 -0.806821 0.377608)
(2.49666 -1.07301 0.302299)
(2.31787 -1.74028 0.391043)
(2.68291 -1.84989 0.799141)
(3.14993 -1.55429 2.02609)
(3.88455 -0.949617 0.821557)
(2.34554 0.596068 0.259956)
(2.41052 0.123404 -0.0563939)
(2.48358 0.343063 0.0998838)
(2.0628 -0.254591 -0.345351)
(1.83775 -0.73627 -0.521135)
(1.89423 -1.10348 0.649441)
(2.16862 -1.92722 1.62644)
(3.78468 -2.42818 0.23013)
(1.06782 -0.494287 -0.168113)
(1.23488 -0.338914 -0.431664)
(1.37108 0.223745 -0.475681)
(1.49558 0.0778406 -0.409687)
(1.27062 -0.483816 -0.649456)
(1.35353 -0.689735 -0.636006)
(0.944847 -0.599588 -0.895294)
(0.946246 -0.584802 0.685657)
(1.10683 -0.274767 1.48424)
(0.355186 0.0784705 -0.0441512)
(0.228641 0.0958493 -0.54279)
(0.447587 -0.72916 -1.31399)
(0.952197 -0.755328 -1.31957)
(1.18395 -0.263778 -0.975376)
(0.853877 -0.616103 -1.16701)
(0.905635 -0.641572 -1.25314)
(0.833674 -0.445866 -1.11212)
(0.42043 -0.170026 -1.13378)
(0.558523 0.702754 -0.79361)
(-0.0787904 -0.260614 -0.469419)
(-0.0424722 -0.0157097 -0.509343)
(-0.128152 -0.349997 -1.13279)
(-0.328332 -0.808984 -1.20828)
(0.131484 -0.458565 -1.5741)
(0.581704 -0.230314 -1.77651)
(0.982351 -0.10583 -1.59427)
(1.19891 -0.0197976 -1.59148)
(0.79808 -0.546026 -1.31472)
(0.811473 -0.41903 -0.784197)
(0.928443 0.202543 -0.488825)
(2.28595 1.0906 -0.173658)
(3.03674 0.662853 0.0562889)
(2.60976 1.12095 -0.220392)
(2.96884 0.386397 0.279757)
(3.05723 0.537399 0.0782795)
(2.67754 1.37701 0.0118148)
(3.23459 -0.241266 0.553986)
(3.21991 -0.285994 0.463919)
(3.39521 0.262781 0.2472)
(2.88871 1.37185 -0.0872655)
(3.84761 -0.221489 0.620001)
(3.96049 -0.514126 0.795173)
(3.84972 -0.419341 0.099684)
(3.30483 0.1824 0.750521)
(3.5142 1.20625 -0.184083)
(4.03026 0.0811089 1.75471)
(3.96654 -0.369661 1.71529)
(4.0029 -0.771506 1.45132)
(4.56437 -0.709562 1.0249)
(4.37044 -0.585888 0.591407)
(3.73752 0.678782 0.0899845)
(3.17265 0.180001 2.2487)
(3.23192 0.200135 2.12424)
(2.88139 -1.10572 2.45663)
(3.06221 -1.21002 2.23605)
(3.58171 -1.39183 2.16353)
(3.50499 -2.27674 2.72457)
(4.48022 0.675732 -0.100747)
(3.1387 0.251748 0.893774)
(2.79469 0.046586 0.529687)
(2.39696 -0.801996 0.285551)
(2.36436 -1.13995 0.240045)
(2.14976 -1.78748 0.051686)
(2.23557 -1.98764 0.663883)
(2.55705 -2.2574 2.20935)
(3.60421 -2.07292 1.03689)
(2.19278 0.163177 0.37033)
(2.3627 0.231402 -0.0569556)
(2.2969 0.110916 -0.150072)
(2.48325 0.0949816 0.0442403)
(2.12396 -0.336377 -0.245946)
(1.77673 -0.907019 -0.501827)
(1.72717 -1.15608 0.399801)
(2.24737 -1.86128 1.42158)
(3.74124 -2.98424 0.494567)
(1.09733 -0.470769 -0.0766832)
(1.02417 -0.560202 -0.222978)
(1.11085 -0.607924 -0.515426)
(1.24044 -0.0371011 -0.667165)
(1.42277 -0.0337566 -0.508943)
(1.30591 -0.295798 -0.552472)
(1.38001 -0.692358 -0.65919)
(0.880344 -0.539917 -0.899926)
(0.833219 -0.425274 1.03578)
(1.24754 -0.559641 1.59992)
(0.595191 -0.434447 -0.30082)
(0.400005 0.141815 -0.138859)
(0.282554 0.0404966 -0.663567)
(0.445131 -0.832754 -1.36841)
(0.884694 -0.821422 -1.3459)
(1.05126 -0.474181 -1.12325)
(0.835486 -0.683167 -1.26524)
(0.884311 -0.681189 -1.25195)
(0.826369 -0.445655 -1.07436)
(0.475192 -0.0675566 -1.05298)
(0.507142 0.690864 -0.862842)
(-0.186777 -1.15981 -0.201974)
(-0.0884346 -0.349208 -0.442588)
(-0.0321391 0.00500163 -0.501164)
(-0.121108 -0.324755 -1.14371)
(-0.357835 -0.875789 -1.3161)
(0.0872402 -0.578471 -1.647)
(0.562842 -0.257674 -1.80948)
(0.974588 -0.138922 -1.61607)
(1.18513 -0.0501117 -1.53901)
(0.787765 -0.547028 -1.28766)
(0.657237 -0.578072 -0.804489)
(0.906523 0.19675 -0.483375)
(2.06 0.872269 0.206472)
(2.55635 1.17148 -0.186126)
(2.38783 0.899157 -0.245296)
(2.99848 0.465164 0.164319)
(3.02899 0.724066 0.046303)
(2.67371 0.941176 -0.159379)
(2.99107 -0.0264648 0.533406)
(2.98534 -0.253994 0.344739)
(3.07215 0.425085 0.10256)
(2.80766 1.09276 -0.099463)
(3.28818 -0.0858612 0.710616)
(3.29165 -0.384247 0.48203)
(3.23895 -0.316717 0.469887)
(3.3943 -0.0387848 0.216983)
(2.95283 1.1921 -0.0930187)
(3.83834 -0.517017 0.863588)
(3.88444 -0.547908 0.686836)
(3.98433 -0.572027 0.687456)
(3.95359 -0.411081 0.287293)
(3.47206 -0.183232 0.979467)
(3.56954 0.985584 -0.293403)
(3.82304 -0.366474 1.6614)
(3.99409 -0.1466 1.91735)
(3.96378 -0.562994 1.65812)
(3.96352 -0.958895 1.36575)
(4.31993 -1.39479 1.07793)
(4.28263 -0.496805 0.413629)
(3.78031 0.393334 0.0814436)
(3.40368 -0.0421203 2.15358)
(3.13846 0.255229 2.29672)
(3.07824 -0.341546 2.08886)
(2.76526 -0.943325 2.55569)
(3.08337 -1.1089 2.02832)
(3.37366 -1.71761 2.28627)
(3.80049 -1.78144 2.03552)
(4.1737 -0.114618 0.346879)
(3.19551 0.0559757 0.766962)
(3.27563 -0.340007 -0.0453282)
(2.80642 0.0213952 0.532939)
(2.33718 -1.22166 -0.288539)
(2.39629 -1.17656 -0.141107)
(1.94339 -1.87788 -0.226696)
(2.13927 -1.97141 0.733028)
(2.37168 -2.52972 2.1672)
(3.62012 -2.21029 0.883098)
(1.93852 -0.0423109 0.455942)
(2.13829 0.0299553 0.193951)
(2.21556 0.149131 -0.132948)
(2.06586 -0.647656 -0.70022)
(2.34264 -0.456981 -0.215302)
(1.97551 -0.963783 -0.152134)
(1.823 -0.897851 -0.411673)
(1.49985 -1.19533 0.110839)
(1.99358 -2.50609 1.13625)
(3.6898 -3.19842 0.528111)
(0.993885 -0.615824 -0.461047)
(1.01414 -0.721637 -0.459658)
(0.979185 -0.588921 -0.234432)
(0.959984 -0.862066 -0.610719)
(1.13167 -0.211658 -0.767462)
(1.35095 -0.103913 -0.578905)
(1.19265 -0.566548 -0.662484)
(1.38183 -0.703145 -0.659925)
(0.822641 -0.431295 -0.827075)
(0.883277 -0.352376 1.26879)
(1.45109 -0.831306 1.1624)
(0.636773 -0.811081 0.0157971)
(0.606525 -0.418686 -0.289267)
(0.459362 0.170503 -0.240777)
(0.322285 -0.0680966 -0.783207)
(0.374401 -1.01154 -1.37858)
(0.853363 -0.866718 -1.3537)
(0.970389 -0.559963 -1.21837)
(0.793241 -0.805023 -1.31656)
(0.885856 -0.690679 -1.284)
(0.791885 -0.459162 -1.05454)
(0.529852 0.022629 -0.964065)
(0.433562 0.712754 -0.880608)
(-0.529278 -1.44972 -0.107805)
(-0.20029 -1.17384 -0.251766)
(-0.110375 -0.45437 -0.38956)
(-0.0304446 -0.00692545 -0.487716)
(-0.125298 -0.347755 -1.16745)
(-0.383152 -0.947012 -1.4199)
(0.0523087 -0.663332 -1.70344)
(0.555354 -0.267167 -1.81389)
(1.01255 -0.121173 -1.65482)
(1.187 -0.0592724 -1.50305)
(0.77747 -0.4807 -1.28404)
(0.601666 -0.601785 -0.813181)
(0.882031 0.195343 -0.493128)
(1.69447 1.27719 0.0310744)
(2.27589 0.98664 0.191561)
(2.1255 0.552681 0.254342)
(2.82829 0.405531 0.0706343)
(2.63529 0.921345 -0.171104)
(2.42917 0.761907 -0.183003)
(2.87145 0.0744529 0.344712)
(2.97963 0.2946 0.281192)
(3.03072 0.47789 -0.0117484)
(2.75437 0.698367 -0.123922)
(3.08334 -0.165267 0.608882)
(3.00218 -0.34993 0.572036)
(3.0054 -0.174415 0.348487)
(3.14588 0.0574623 0.197679)
(2.91492 0.727553 -0.170356)
(3.29767 -0.0897665 0.865325)
(3.33972 -0.33529 0.727394)
(3.38052 -0.18768 0.5068)
(3.2354 -0.362507 0.479148)
(3.35761 -1.00215 -0.0456393)
(3.04883 0.766003 -0.00261054)
(3.73211 -0.47797 0.968185)
(3.99805 -0.364495 0.854023)
(3.88626 -0.664321 0.638252)
(3.98163 -0.794984 0.831505)
(3.92182 -0.486771 0.404417)
(3.73857 -0.538044 0.876262)
(3.52392 0.29332 -0.411039)
(3.75778 -0.552496 1.81368)
(4.05836 -0.183289 1.652)
(3.87138 -0.758082 1.97626)
(4.04824 -0.478999 1.58231)
(3.91887 -1.37395 1.28782)
(3.9351 -2.01685 1.08493)
(4.12524 -0.866184 0.220955)
(3.74658 -0.108491 -0.100914)
(3.38149 0.0321371 2.10248)
(3.41368 -0.0310824 2.17977)
(3.12616 -0.150626 2.26995)
(2.70064 -0.777962 2.04041)
(2.21473 -1.9934 2.3867)
(2.81997 -1.47321 2.09897)
(1.82452 -3.45071 2.04786)
(3.66663 -1.8117 1.52274)
(4.19128 -0.0976977 0.111999)
(3.14739 0.0642852 0.953548)
(3.23981 0.003806 0.702889)
(3.21705 -0.0434065 0.381638)
(2.88159 0.112951 0.281094)
(2.64034 -0.767729 -1.01001)
(2.56742 -1.22505 -0.494544)
(1.9488 -1.86508 -0.119572)
(2.002 -2.16602 0.883236)
(1.91041 -2.93324 1.65475)
(3.86454 -1.81124 0.522748)
(1.72144 -0.480322 0.422451)
(1.84054 -0.144382 0.367171)
(2.07527 0.0270809 0.113601)
(2.09634 -0.0347759 -0.220554)
(1.86166 -0.61363 -0.700616)
(2.21664 -0.726437 -0.446499)
(1.91517 -1.1207 -0.164225)
(1.81794 -0.916878 -0.266046)
(1.61894 -0.912034 -0.076688)
(1.43417 -3.44457 0.881455)
(3.67534 -3.19891 0.396503)
(0.93667 -0.0560613 0.618053)
(1.0409 -0.747924 -0.621716)
(0.955939 -0.912888 -0.459967)
(0.898918 -0.818179 -0.301945)
(0.695911 -1.00918 -0.718461)
(1.09801 -0.250661 -0.806002)
(1.21503 -0.259904 -0.689335)
(1.13209 -0.698019 -0.698013)
(1.37934 -0.709066 -0.654884)
(0.70885 -0.276278 -0.776471)
(1.03164 -0.243535 1.44841)
(1.51988 -1.03371 0.808492)
(-0.146307 -1.64957 0.133147)
(0.604692 -0.742454 -0.0108645)
(0.630264 -0.464341 -0.359143)
(0.511493 0.103562 -0.337754)
(0.326331 -0.290707 -0.895396)
(0.309902 -1.0903 -1.39395)
(0.670591 -0.912865 -1.36068)
(0.977633 -0.503116 -1.26214)
(0.8139 -0.818032 -1.33152)
(0.909125 -0.659317 -1.27857)
(0.71021 -0.530525 -1.03019)
(0.52493 0.047731 -0.919167)
(0.372179 0.702733 -0.866321)
(-0.0756341 -1.01558 -0.182539)
(-0.525752 -1.41935 -0.161467)
(-0.202187 -1.13393 -0.269761)
(-0.14113 -0.570527 -0.315391)
(-0.0519263 -0.100581 -0.467751)
(-0.151957 -0.448373 -1.20236)
(-0.413486 -1.0322 -1.49348)
(0.0267922 -0.710545 -1.72577)
(0.558165 -0.2593 -1.79931)
(1.03363 -0.0823411 -1.63492)
(1.1788 -0.083512 -1.46365)
(0.732044 -0.576914 -1.23643)
(0.456193 -0.678977 -0.83742)
(0.856509 0.180769 -0.513808)
(1.66583 0.885114 0.0436362)
(2.06511 1.02986 0.0240955)
(1.70941 1.23795 0.0386696)
(2.48402 0.961401 0.133618)
(2.21933 1.09977 -0.035853)
(2.13915 0.553469 0.184425)
(2.89068 0.0562773 0.145422)
(2.90914 0.133108 0.0912685)
(2.67921 0.709487 0.0213072)
(2.43875 0.641339 -0.0911819)
(2.87991 0.0820498 0.489812)
(2.89667 -0.239025 0.426001)
(2.87972 -0.0838974 0.306453)
(3.02569 0.199077 -0.0156583)
(2.84533 0.0890674 -0.125684)
(3.03541 -0.0878404 0.830518)
(3.0738 -0.271003 0.611954)
(3.07064 -0.334456 0.498474)
(3.14448 -0.278903 0.398982)
(3.1073 -0.163653 0.255044)
(3.13002 -0.0301748 -0.278213)
(3.28941 -0.198538 0.963992)
(3.3097 -0.195809 0.839948)
(3.38014 -0.305977 0.743936)
(3.39017 -0.467178 0.449742)
(3.27257 -0.652303 0.454237)
(3.46154 -1.14344 -0.140098)
(3.09539 0.217478 0.186796)
(3.80046 -0.0496923 1.12795)
(3.86171 -0.585685 0.861278)
(3.97544 -0.436041 0.88553)
(3.99202 -0.75705 0.607844)
(4.00281 -0.76146 0.912771)
(3.72846 -0.760784 0.652629)
(3.86316 -1.18794 0.773936)
(3.37442 -0.455413 -0.327485)
(3.60703 -0.758131 1.7291)
(3.83678 -0.656497 1.88193)
(4.0073 -0.611881 1.85421)
(3.9169 -0.800542 1.90987)
(3.68528 -1.27677 1.75965)
(3.75584 -1.63418 1.41251)
(3.94773 -1.49758 1.14609)
(3.76196 -2.22134 0.315457)
(3.72037 -0.452443 -0.301427)
(3.52829 0.00690665 2.05023)
(3.50879 -0.0692779 2.10151)
(3.39433 -0.342589 1.95754)
(2.89099 -0.691062 2.28211)
(2.55075 -1.06704 1.77626)
(1.9447 -1.96168 2.05838)
(1.93968 -2.25949 2.33609)
(2.6648 -2.67398 1.21665)
(3.11413 -2.33408 1.7563)
(4.37537 -0.200015 -0.341718)
(3.00282 -0.064116 1.07407)
(3.14141 -0.160561 0.8809)
(3.23201 -0.324464 0.522669)
(3.27893 -0.268015 0.0330265)
(2.86959 -0.0356612 0.119669)
(2.68834 -0.999164 -1.06294)
(2.32067 -1.50593 -0.172648)
(1.72165 -2.0985 0.594836)
(1.99427 -2.12233 0.960138)
(1.39631 -3.03425 1.40757)
(3.94176 -1.72979 0.389736)
(1.45888 -0.46297 0.660638)
(1.61433 -0.639049 0.427894)
(1.78587 -0.252507 0.318289)
(1.95694 -0.259164 -0.0515543)
(1.99687 -0.201712 -0.448396)
(1.94778 -0.236005 -0.430295)
(1.99718 -1.04639 -0.55034)
(1.74639 -1.43578 -0.0628765)
(1.85944 -1.15581 0.617726)
(1.85044 -0.700125 -0.212328)
(0.668527 -3.84151 1.28775)
(2.93386 -4.10189 0.747297)
(0.630608 -1.03879 0.521441)
(0.994118 -0.151811 0.522643)
(1.0561 -1.07898 -0.459703)
(0.869064 -1.2108 -0.185526)
(0.801704 -1.08322 -0.449209)
(0.760829 -0.989821 -0.702068)
(0.859175 -0.459653 -0.973227)
(1.19259 -0.265621 -0.615239)
(1.02986 -0.803051 -0.737135)
(1.38949 -0.72205 -0.594435)
(0.580579 -0.152579 -0.715735)
(1.23229 -0.211818 1.40414)
(1.22979 -1.76529 -0.40094)
(0.0768947 -1.5317 0.495802)
(-0.165701 -1.68106 0.115457)
(0.566909 -0.715815 -0.0469487)
(0.622529 -0.628546 -0.419562)
(0.498486 -0.199833 -0.445829)
(0.271028 -0.62278 -0.981873)
(0.354772 -1.07822 -1.40128)
(0.695602 -0.861171 -1.31957)
(0.990647 -0.482703 -1.30908)
(0.815072 -0.821055 -1.29688)
(0.954994 -0.60914 -1.17797)
(0.643518 -0.569431 -0.985872)
(0.494091 0.0719358 -0.90072)
(0.315284 0.680099 -0.824518)
(-0.706897 -1.59214 0.129846)
(-0.0485739 -0.959406 -0.141128)
(-0.518492 -1.37865 -0.18638)
(-0.195569 -1.09315 -0.282205)
(-0.181093 -0.694683 -0.227472)
(-0.0911276 -0.238867 -0.451196)
(-0.198201 -0.593625 -1.22435)
(-0.44494 -1.09684 -1.52972)
(0.0357802 -0.691194 -1.71671)
(0.574039 -0.241056 -1.78548)
(1.02865 -0.112583 -1.56346)
(1.16013 -0.104921 -1.43478)
(0.751061 -0.485355 -1.22975)
(0.536657 -0.595901 -0.79583)
(0.816709 0.191962 -0.527448)
(1.47212 0.911992 0.016958)
(2.05102 0.731292 -0.266844)
(1.73854 0.755552 -0.0324907)
(2.3269 0.543843 -0.104114)
(2.14265 0.865172 0.156642)
(1.76707 1.17106 0.0149615)
(2.65794 0.493198 0.456657)
(2.59711 0.382639 0.190121)
(2.28478 0.776641 0.120627)
(2.17085 0.4848 0.182392)
(2.88627 0.255145 0.400602)
(2.85124 -0.133551 0.185182)
(2.86901 0.130715 0.163833)
(2.61347 0.448991 0.153135)
(2.46904 -0.456463 0.163761)
(2.91215 0.214404 0.6614)
(2.93353 -0.107652 0.502437)
(2.90572 -0.26238 0.330663)
(2.84789 -0.399728 0.270783)
(2.99708 -0.0864835 -0.136808)
(2.8788 -0.106048 -0.054146)
(3.06184 -0.264368 0.865656)
(3.13688 -0.229436 0.842818)
(3.12318 -0.413167 0.509585)
(3.11934 -0.562146 0.493895)
(3.20928 -0.566472 0.408158)
(3.07526 -0.308213 0.22537)
(3.12944 -0.0724419 -0.227909)
(3.28462 0.107854 1.00718)
(3.28295 -0.240658 0.918243)
(3.37001 -0.245469 0.822017)
(3.40193 -0.416109 0.760325)
(3.47305 -0.549799 0.321487)
(3.28757 -0.768754 0.363584)
(3.46135 -0.895765 -0.193308)
(3.05454 0.0960389 0.167362)
(3.79006 -0.426311 1.34944)
(3.76075 -0.194679 1.11755)
(3.89291 -0.444353 0.952471)
(3.96668 -0.605002 0.875998)
(4.00246 -0.729065 0.743815)
(3.86601 -0.794304 0.951664)
(3.70095 -1.10477 0.552166)
(3.95867 -1.45089 0.678498)
(3.2376 -0.807484 -0.163046)
(3.57526 -0.321377 1.70712)
(3.56728 -0.791792 1.97491)
(3.85425 -0.750591 1.90926)
(3.8853 -0.914938 1.89786)
(3.59122 -0.939183 2.19013)
(3.24243 -1.48328 1.90206)
(3.28521 -2.03212 1.63558)
(3.11749 -2.88766 1.32188)
(3.29178 -3.05089 0.867041)
(3.72022 -1.17947 -0.682993)
(3.66459 -0.270583 2.14031)
(3.61509 -0.264926 2.04559)
(3.56361 -0.475296 1.94893)
(3.36773 -0.844988 1.62286)
(2.83802 -0.803988 1.97005)
(2.36986 -1.27921 1.56858)
(1.74195 -1.66746 2.15802)
(2.4729 -1.61177 1.81236)
(2.2381 -3.06727 1.21087)
(2.16624 -3.52745 1.92886)
(4.20398 -0.7591 -0.193045)
(3.09515 0.0931091 1.53911)
(2.84881 -0.127392 1.08384)
(3.07448 -0.533256 0.607745)
(3.19863 -0.565982 0.174657)
(3.15027 -0.497167 -0.227078)
(2.86925 -0.651821 -0.488807)
(2.56737 -1.04695 -0.673724)
(2.10957 -1.67335 -0.182542)
(1.18211 -2.62838 -0.133751)
(1.83528 -2.19227 1.58793)
(2.96178 -2.04931 1.6341)
(4.00471 -1.75695 -0.188162)
(1.26736 -0.554312 0.673823)
(1.42594 -0.612044 0.660091)
(1.53789 -0.697618 0.510222)
(1.70818 -0.415265 0.298988)
(1.87 -0.437697 -0.0966787)
(1.81411 -0.436835 -0.681212)
(1.52409 -0.775189 -0.943802)
(1.93538 -1.02572 -0.400009)
(1.52299 -1.71849 0.011239)
(2.03361 -1.31245 1.10288)
(1.53703 -1.27333 0.778892)
(1.01328 -3.94684 1.71595)
(2.91291 -4.20443 0.710086)
(0.32582 -1.06313 0.94979)
(0.545335 -1.12582 0.463826)
(1.09477 -0.182067 0.446463)
(1.03825 -1.35641 -0.229012)
(0.834887 -1.35763 -0.155872)
(0.693219 -1.2472 -0.570732)
(0.553667 -1.14063 -0.812483)
(0.924836 -0.307372 -0.875667)
(1.07863 -0.401918 -0.685958)
(1.20205 -0.656943 -0.641882)
(1.3764 -0.70847 -0.468082)
(0.51693 -0.0313586 -0.645828)
(1.39733 -0.269718 1.2455)
(0.573924 -2.25239 -0.841711)
(0.15769 -2.01462 0.539012)
(0.0988226 -1.5288 0.467665)
(-0.182846 -1.73733 0.116425)
(0.527655 -0.699448 -0.0725838)
(0.583348 -0.835253 -0.367025)
(0.40367 -0.605629 -0.463918)
(0.181866 -0.932411 -1.03782)
(0.304311 -1.12086 -1.37957)
(0.669742 -0.992201 -1.2478)
(0.966352 -0.496811 -1.32463)
(0.851978 -0.807665 -1.22022)
(0.977353 -0.617093 -1.08644)
(0.54761 -0.6312 -0.939342)
(0.460701 0.10084 -0.900327)
(0.32905 0.611777 -0.756694)
(-0.927941 -0.570193 0.182465)
(-0.6901 -1.60989 -0.0156661)
(-0.0186285 -0.912102 -0.102346)
(-0.493042 -1.31256 -0.186297)
(-0.207541 -1.09327 -0.315472)
(-0.235348 -0.826471 -0.134485)
(-0.146766 -0.415055 -0.435784)
(-0.271788 -0.767721 -1.22698)
(-0.438166 -1.08725 -1.52349)
(0.0802423 -0.626569 -1.70506)
(0.576167 -0.222823 -1.77325)
(1.02241 -0.11882 -1.53254)
(1.14291 -0.125658 -1.40723)
(0.685927 -0.531017 -1.21518)
(0.564085 -0.587303 -0.758596)
(0.796576 0.17433 -0.513473)
(1.36601 0.931751 0.0338304)
(1.82412 0.719444 0.166332)
(1.5517 0.857892 -0.0282437)
(2.08598 0.720161 -0.0636146)
(2.03615 0.716109 -0.251281)
(1.80673 0.650065 -0.0047498)
(2.42121 0.314932 0.0537491)
(2.35037 0.444856 -0.111386)
(2.1691 0.819798 0.206212)
(1.8237 1.06787 -0.0176398)
(2.70656 0.315807 0.344989)
(2.71495 0.0103188 0.0525509)
(2.46035 0.643816 0.178456)
(2.22923 0.821331 0.0865591)
(2.04139 0.513484 0.203424)
(2.98487 0.218633 0.364956)
(2.85718 -0.342642 0.285902)
(2.84123 -0.266701 0.292072)
(2.76252 -0.0569797 0.24083)
(2.63269 0.134436 -0.0442564)
(2.38462 0.0950347 -0.00454686)
(2.93119 -0.132852 0.805065)
(2.8983 -0.394541 0.689986)
(2.92513 -0.176049 0.50791)
(2.88814 -0.493626 0.344707)
(2.83822 -0.598917 0.278784)
(2.96638 -0.28718 -0.181947)
(2.90368 -0.0508676 -0.0462941)
(3.0932 -0.0207738 1.00664)
(3.13405 -0.262567 0.857279)
(3.13004 -0.189261 0.782712)
(3.25655 -0.516391 0.527867)
(3.1931 -0.688334 0.400357)
(3.30078 -0.740761 0.2161)
(3.08261 -0.42671 0.216707)
(3.05643 -0.293051 -0.256039)
(3.33474 0.0659318 1.12534)
(3.38418 0.0026906 0.995355)
(3.30535 -0.268291 0.913513)
(3.41936 -0.363011 0.903242)
(3.43246 -0.695412 0.715775)
(3.51543 -0.825508 0.317055)
(3.1253 -1.42366 0.472854)
(3.27784 -1.2671 -0.0809466)
(3.14085 0.104638 0.360947)
(3.82742 -0.19555 1.59605)
(3.76665 -0.528391 1.28111)
(3.7545 -0.529118 1.05402)
(3.86892 -0.631428 0.995243)
(3.992 -0.723922 0.883516)
(3.72386 -1.1751 1.20801)
(3.70933 -1.14312 0.966978)
(3.63167 -1.32664 0.508764)
(3.87049 -1.48721 0.518768)
(3.10987 -1.14998 -0.00462691)
(3.54069 0.121318 1.63061)
(3.51518 -0.433874 1.76674)
(3.64833 -0.916338 1.94713)
(3.76024 -0.953829 1.91836)
(3.91046 -0.705856 1.77012)
(3.28509 -1.25756 2.04924)
(3.15188 -1.65174 1.86682)
(3.13987 -2.24803 1.63907)
(2.80555 -2.92155 1.08976)
(3.11704 -3.17917 1.0456)
(3.77338 -1.65444 -0.548511)
(3.71546 -0.209304 2.42924)
(3.7159 0.335588 1.90042)
(3.63936 -0.262783 1.99072)
(3.60054 -0.648508 1.82179)
(3.44988 -0.672597 1.31417)
(2.68726 -0.990082 1.97418)
(2.37314 -1.15957 1.50977)
(2.38181 -1.33315 1.94204)
(2.06742 -2.06775 1.3558)
(2.25492 -2.86379 1.58773)
(2.3754 -4.00825 1.40134)
(3.65019 -1.53513 0.0437433)
(2.90311 0.223761 1.34728)
(2.8854 -0.236208 1.38751)
(2.81807 -0.468562 0.724708)
(2.94766 -0.695659 0.34814)
(3.10694 -0.882556 -0.018209)
(3.02601 -0.733938 -0.435652)
(2.84597 -0.729708 -0.487644)
(2.31237 -1.38311 -0.483822)
(2.04134 -2.12141 -0.236915)
(1.5144 -2.3987 0.253481)
(2.20054 -2.25168 2.17387)
(1.1694 -3.74561 1.92116)
(4.38357 -1.63121 -0.910058)
(1.19128 -0.557039 1.09482)
(1.11203 -0.779425 0.587781)
(1.38131 -0.734826 0.633726)
(1.40622 -0.837297 0.620521)
(1.5938 -0.54266 0.278757)
(1.85364 -0.493352 -0.129844)
(1.69147 -0.46845 -0.681051)
(1.50139 -0.73554 -0.905355)
(1.97036 -0.921802 -0.325399)
(1.50761 -1.67168 0.287132)
(2.32812 -1.22897 1.32795)
(1.01854 -1.81274 1.84615)
(1.30746 -4.23801 2.04859)
(2.88938 -4.04747 0.516328)
(0.527426 -1.60415 1.02104)
(0.239982 -1.18372 0.827203)
(0.458703 -1.1567 0.429662)
(1.14756 -0.205909 0.444501)
(1.03456 -1.43522 -0.0518908)
(0.823198 -1.38702 -0.290429)
(0.608522 -1.34831 -0.65594)
(0.488904 -1.12121 -0.873608)
(0.789066 -0.447856 -0.95725)
(1.04083 -0.434159 -0.657098)
(1.20133 -0.697992 -0.644957)
(1.41423 -0.630055 -0.313094)
(0.538339 0.0473016 -0.592034)
(1.48125 -0.518377 1.06838)
(0.131694 -2.62179 -0.818328)
(-0.200275 -0.878399 0.923495)
(0.176537 -2.0256 0.458845)
(0.124223 -1.52845 0.446031)
(-0.187729 -1.73035 0.143819)
(0.495468 -0.706495 -0.0623237)
(0.568675 -0.945158 -0.277362)
(0.302572 -0.937521 -0.420317)
(0.118284 -1.14213 -1.06471)
(0.249162 -1.13031 -1.33744)
(0.520726 -0.923291 -1.28908)
(0.950128 -0.510036 -1.29611)
(0.929173 -0.747886 -1.15754)
(0.993379 -0.554304 -1.0406)
(0.46108 -0.670641 -0.88367)
(0.434207 0.116781 -0.917301)
(0.338839 0.592566 -0.699286)
(-0.675541 -0.147748 0.140953)
(-0.918886 -0.620301 0.14102)
(-0.696117 -1.62182 -0.106268)
(0.00508321 -0.897809 -0.0944853)
(-0.469432 -1.24233 -0.15946)
(-0.246954 -1.15358 -0.37922)
(-0.304037 -0.955145 -0.043967)
(-0.226344 -0.613845 -0.421743)
(-0.366552 -0.950932 -1.20303)
(-0.400515 -1.02912 -1.51765)
(0.134686 -0.55898 -1.68792)
(0.597639 -0.197543 -1.7493)
(1.01823 -0.129509 -1.51709)
(1.1306 -0.137451 -1.38216)
(0.65641 -0.563274 -1.19716)
(0.416242 -0.62877 -0.811651)
(0.77261 0.175855 -0.503853)
(1.3233 0.921386 -0.0617507)
(1.65901 0.802778 0.0870245)
(1.44572 0.817451 0.0457102)
(1.88111 0.783359 0.110786)
(1.82999 0.730842 0.168746)
(1.5988 0.835136 -0.0697814)
(2.17082 0.591419 0.0971182)
(2.10839 0.59393 -0.0802437)
(2.15694 0.299346 -0.0909326)
(1.85951 0.494919 -0.00427326)
(2.4139 0.339605 0.210574)
(2.44189 0.194239 0.194348)
(2.34565 0.37545 -0.00349793)
(2.23735 0.484405 0.188859)
(1.87666 0.81086 -0.0732019)
(2.68713 0.181524 0.372047)
(2.66756 0.141907 0.367867)
(2.61038 0.10544 0.334204)
(2.52183 -0.100018 0.218468)
(2.34599 -0.123728 0.329877)
(1.98438 0.404284 0.165181)
(2.91232 0.0812136 0.534488)
(2.92515 0.0798672 0.322505)
(2.80359 -0.0655433 0.399396)
(2.74718 -0.365804 0.395166)
(2.75364 -0.252435 0.203606)
(2.67883 -0.0430223 -0.0976513)
(2.40557 0.0366561 0.0140297)
(2.93009 0.21565 0.944921)
(2.93013 -0.244364 0.777733)
(2.89873 0.0352459 0.684153)
(2.96763 -0.49145 0.414849)
(2.87306 -0.544145 0.332051)
(2.757 -0.917202 0.19722)
(2.94339 -0.49865 -0.169618)
(2.80942 0.0503086 0.102786)
(3.1938 0.0314737 1.08641)
(3.1168 -0.12013 1.00719)
(3.16951 -0.347991 0.816347)
(3.19019 -0.664014 0.762076)
(3.368 -0.623945 0.462383)
(3.31903 -0.745261 0.30195)
(3.26485 -1.07302 0.0372165)
(2.98645 -0.543725 0.266307)