/*--------------------------------*- C++ -*----------------------------------*\
  =========                 |
  \\      /  F ield         | OpenFOAM: The Open Source CFD Toolbox
   \\    /   O peration     | Website:  https://openfoam.org
    \\  /    A nd           | Version:  7
     \\/     M anipulation  |
\*---------------------------------------------------------------------------*/
FoamFile
{
    version     2.0;
    format      ascii;
    class       volVectorField;
    location    "3";
    object      U_0;
}
// * * * * * * * * * * * * * * * * * * * * * * * * * * * * * * * * * * * * * //

dimensions      [0 1 -1 0 0 0 0];

internalField   nonuniform List<vector> 
18750
(
(1.09577 0.116926 -0.578078)
(0.357209 -0.51795 -0.543807)
(0.857641 -0.443633 -0.724619)
(1.07804 0.0688989 -0.578084)
(0.06731 -0.441088 0.156785)
(0.400152 -0.268538 -0.0423622)
(0.41137 -0.33844 -0.605591)
(0.968338 -0.331356 -1.45025)
(0.844614 -0.398221 -0.724557)
(1.08996 0.0755293 -0.554732)
(3.2916 -1.16885 1.02079)
(0.789941 -1.18659 -0.0483569)
(0.118045 -0.58268 0.105858)
(1.01363 -0.183191 -0.805509)
(0.442928 -0.320575 -0.0986346)
(0.440923 -0.207756 -0.639561)
(1.135 0.206294 -1.58765)
(0.925564 -0.412289 -1.41288)
(0.846847 -0.429967 -0.720028)
(1.08528 0.0823365 -0.551884)
(4.86752 0.924071 0.634455)
(2.9059 -1.88729 1.02839)
(3.19251 -1.88641 1.03427)
(0.884396 -0.780051 -0.425463)
(0.887482 -0.964064 -0.401834)
(0.175477 -0.598703 0.0501287)
(0.881931 -0.425808 -0.588206)
(0.976937 -0.268894 -0.858133)
(0.446001 -0.36283 -0.305599)
(0.491903 0.0150186 -0.686911)
(0.982711 0.112676 -1.33813)
(1.14955 0.0999324 -1.61549)
(0.881299 -0.620821 -1.35118)
(0.816509 -0.453377 -0.723953)
(1.05994 0.115662 -0.541946)
(3.96881 1.69275 -0.416161)
(4.53436 -1.99305 1.67819)
(4.7297 -0.0865863 0.95507)
(2.65033 -1.33136 0.319642)
(2.79592 -1.6954 1.27844)
(3.33881 -2.17526 1.11899)
(1.28167 -0.00858957 -0.36065)
(1.01414 -0.572042 -0.735372)
(0.93289 -0.743237 -0.446801)
(0.259537 -0.585327 -0.0282512)
(0.96346 -0.027486 -0.783306)
(0.870342 -0.423738 -0.802591)
(0.914202 -0.422722 -0.959329)
(0.458552 -0.335162 -0.543998)
(0.527607 0.121104 -0.704403)
(0.680077 0.136366 -1.47016)
(0.984642 0.0747086 -1.40732)
(1.16692 0.128059 -1.61264)
(0.936499 -0.428469 -1.38766)
(0.80945 -0.452257 -0.735535)
(1.05963 0.113964 -0.532789)
(3.20991 1.31889 0.316755)
(4.15182 -1.21696 2.12823)
(4.12378 1.61187 -0.388033)
(3.66769 -2.11292 1.24725)
(4.38841 -1.14084 1.76936)
(4.53897 -1.02503 1.30563)
(1.49758 -0.621282 0.731527)
(2.83338 -1.03935 0.0120846)
(2.62863 -1.84771 1.41134)
(3.43939 -2.12411 1.08625)
(1.41475 -0.047462 -0.602208)
(1.28359 -0.087767 -0.371334)
(1.04355 -0.585226 -1.00363)
(0.982841 -0.597422 -0.409098)
(0.331975 -0.586614 -0.0846716)
(1.40783 0.0612482 -0.85716)
(0.948188 -0.160374 -0.879714)
(0.867885 -0.449668 -0.991652)
(0.857002 -0.530178 -1.07419)
(0.450484 -0.315639 -0.776636)
(0.534769 0.204834 -0.708955)
(0.182328 0.00780491 -1.19091)
(0.679519 0.0597796 -1.53061)
(0.997217 0.074968 -1.45464)
(1.16152 0.0518393 -1.58855)
(0.910554 -0.512844 -1.36383)
(0.766916 -0.459796 -0.745976)
(1.06422 0.136631 -0.512533)
(2.8565 1.71498 0.188811)
(4.07004 1.73488 -0.473081)
(3.2305 1.056 0.410961)
(3.93354 -1.2689 2.23192)
(4.11679 0.086254 1.7817)
(4.12874 1.52127 -0.0936279)
(2.79025 -1.22379 1.55604)
(3.59044 -2.16538 1.1244)
(4.14426 -0.811585 1.7034)
(4.71036 0.123704 0.761392)
(1.52736 -0.346193 0.391744)
(1.75582 -0.731154 0.0138148)
(2.54951 -1.37521 0.35155)
(2.35252 -1.93562 1.75147)
(3.46429 -2.26633 0.973495)
(1.75408 0.299765 -0.247044)
(1.42958 -0.0365508 -0.606353)
(1.3178 -0.385179 -0.501033)
(1.0902 -0.548486 -1.02854)
(1.01369 -0.562463 -0.260734)
(0.410319 -0.52328 -0.0986201)
(1.18234 -0.569563 -1.15256)
(1.34944 -0.0592811 -0.919185)
(0.96088 -0.133973 -0.930766)
(0.884551 -0.495102 -1.12199)
(0.836285 -0.532002 -1.17004)
(0.436234 -0.305861 -0.970693)
(0.529846 0.296949 -0.68489)
(-0.281709 -0.550432 -1.00335)
(0.182869 -0.0916784 -1.28091)
(0.660565 -0.00962985 -1.60568)
(0.986536 -0.0124582 -1.51446)
(1.17568 0.0246969 -1.59073)
(0.900701 -0.484375 -1.36142)
(0.760248 -0.531223 -0.760604)
(1.05235 0.191725 -0.494224)
(2.59744 1.51439 0.148808)
(2.94976 1.00089 0.644799)
(2.99697 1.6624 0.0501209)
(4.34502 0.054693 1.1712)
(3.96049 1.70633 -0.317767)
(3.28131 1.1883 0.242752)
(3.79751 -0.787592 2.62361)
(3.80568 -0.682939 2.03095)
(4.12476 0.245207 1.47383)
(4.15712 1.61576 -0.146964)
(2.58829 -0.792317 0.868457)
(2.55672 -2.0394 0.993342)
(3.34178 -1.73684 1.20273)
(3.68017 -0.813283 1.89584)
(4.6144 -0.0902184 0.564573)
(2.27678 0.666462 0.540114)
(1.60554 -0.397225 0.166516)
(1.82654 -0.901276 -0.429981)
(2.37651 -1.17504 0.621154)
(2.21941 -1.88149 1.85126)
(3.44306 -2.44749 0.840941)
(1.60931 0.45103 -0.309152)
(1.74042 0.355572 -0.101196)
(1.48345 0.0097347 -0.507407)
(1.36302 -0.504155 -0.576044)
(1.05969 -0.586395 -0.958166)
(1.01163 -0.569328 -0.131206)
(0.622203 -0.293736 0.0732811)
(0.488679 -0.411887 -1.19823)
(1.09829 -0.706777 -1.21919)
(1.28806 -0.136995 -0.939952)
(0.910616 -0.341554 -1.01872)
(0.894448 -0.52826 -1.22385)
(0.827613 -0.512825 -1.19597)
(0.436347 -0.262898 -1.09898)
(0.569575 0.473642 -0.651729)
(-0.131893 -0.398178 -1.09589)
(-0.291828 -0.634914 -1.05118)
(0.178494 -0.201432 -1.37707)
(0.631266 -0.0988613 -1.67261)
(0.991861 -0.0286677 -1.54897)
(1.15516 -0.0151993 -1.5621)
(0.823539 -0.676018 -1.33272)
(0.74099 -0.585148 -0.768515)
(0.995601 0.19409 -0.495782)
(2.37815 1.75705 0.218839)
(3.22807 0.78464 0.186834)
(2.56117 1.63294 0.174613)
(3.69379 0.0978618 0.115276)
(3.0765 0.78224 0.611145)
(3.16406 1.56422 -0.0323885)
(4.16966 -0.0027915 1.12317)
(4.37059 -0.348814 1.15116)
(4.13747 0.896041 0.398885)
(3.42887 1.18486 0.151684)
(3.46726 -0.838179 2.15374)
(3.50782 -0.911448 2.52077)
(3.84834 -0.486565 1.80892)
(4.13806 0.245182 1.48255)
(4.32733 1.60923 -0.284587)
(2.41616 -0.327379 0.828872)
(2.56566 -0.829879 0.572004)
(2.48046 -1.66644 0.794329)
(3.14511 -1.54687 1.15014)
(3.30319 -1.29554 1.94022)
(4.20032 -0.482973 0.613213)
(2.45011 0.604766 0.136017)
(2.297 0.62857 0.451947)
(1.76247 -0.458046 -0.170545)
(1.89455 -0.707652 -0.49964)
(2.14845 -1.06765 0.758172)
(2.28098 -1.95654 1.58358)
(3.49994 -2.35077 0.679031)
(1.11192 -0.845581 -0.619618)
(1.49188 0.3299 -0.442385)
(1.63107 0.297448 -0.23263)
(1.46509 -0.110855 -0.508744)
(1.34937 -0.612153 -0.619184)
(1.00519 -0.614427 -0.905252)
(0.995021 -0.614305 0.430999)
(0.911683 -0.0828175 0.810218)
(0.165123 0.145784 -0.446793)
(0.508016 -0.697762 -1.1586)
(1.02533 -0.750603 -1.28525)
(1.21414 -0.231265 -0.961532)
(0.858593 -0.554115 -1.07616)
(0.900471 -0.582436 -1.25859)
(0.823912 -0.483784 -1.16593)
(0.436703 -0.220318 -1.14737)
(0.603321 0.596888 -0.717467)
(-0.0534943 -0.0420521 -0.516152)
(-0.132444 -0.380452 -1.11949)
(-0.305693 -0.72175 -1.11737)
(0.163381 -0.322243 -1.47308)
(0.600864 -0.166474 -1.72419)
(0.968843 -0.0902917 -1.59142)
(1.16981 -0.0333547 -1.57527)
(0.847365 -0.498572 -1.35714)
(0.517742 -0.727566 -0.820314)
(0.982889 0.151071 -0.474691)
(2.42381 1.42096 -0.265963)
(3.01242 0.919321 0.0285319)
(2.4415 1.74334 0.118304)
(3.12347 0.161828 0.396229)
(3.29271 0.668689 0.216905)
(2.79996 1.34408 0.0496748)
(3.72769 -0.338212 0.957166)
(3.80707 -0.188794 -0.0551079)
(3.22281 0.524164 0.61995)
(3.3066 1.4808 -0.0765821)
(4.07533 0.327964 1.43064)
(4.21518 -0.248258 1.12865)
(4.52912 -0.75725 1.07199)
(4.18163 0.299174 0.410131)
(3.55089 1.03427 0.0467148)
(3.28146 0.152146 2.27554)
(3.11486 -1.21367 2.34574)
(3.21391 -1.40706 2.3834)
(3.83983 -0.727296 1.81026)
(3.92894 -0.71246 1.89773)
(4.59199 1.3504 -0.476995)
(2.81841 -0.16183 0.630511)
(2.37966 -0.807178 0.397364)
(2.49364 -1.05808 0.331734)
(2.31422 -1.75174 0.430073)
(2.72447 -1.84188 0.817872)
(3.17455 -1.51559 2.00567)
(3.89578 -0.880279 0.791447)
(2.34623 0.601499 0.279775)
(2.41759 0.136459 -0.0427934)
(2.47626 0.350726 0.112341)
(2.04167 -0.269401 -0.344967)
(1.82948 -0.748102 -0.519014)
(1.90325 -1.11385 0.664411)
(2.13856 -1.9547 1.64643)
(3.76764 -2.39493 0.23837)
(1.06477 -0.495088 -0.162715)
(1.23409 -0.336365 -0.430357)
(1.3786 0.234402 -0.466163)
(1.50131 0.0822878 -0.399729)
(1.27244 -0.485573 -0.651025)
(1.34787 -0.69405 -0.633074)
(0.948451 -0.609394 -0.893183)
(0.959546 -0.603226 0.667365)
(1.10594 -0.268884 1.45459)
(0.352514 0.0728907 -0.0419406)
(0.224068 0.0921869 -0.539352)
(0.445641 -0.733316 -1.30928)
(0.949947 -0.758844 -1.31822)
(1.18504 -0.25628 -0.967793)
(0.851104 -0.614883 -1.15762)
(0.903139 -0.643359 -1.25317)
(0.834343 -0.45149 -1.11822)
(0.429075 -0.177534 -1.1384)
(0.582088 0.699467 -0.787842)
(-0.0765558 -0.258668 -0.473035)
(-0.0444387 -0.0167745 -0.513363)
(-0.132743 -0.35535 -1.13273)
(-0.329991 -0.804002 -1.20445)
(0.127936 -0.452904 -1.56028)
(0.581651 -0.222057 -1.7682)
(0.977691 -0.0992536 -1.5947)
(1.1908 -0.0250225 -1.59355)
(0.79706 -0.546153 -1.32412)
(0.792439 -0.440688 -0.787782)
(0.939013 0.199866 -0.493849)
(2.28541 1.09364 -0.173514)
(3.0369 0.653551 0.058636)
(2.60471 1.1266 -0.21834)
(2.96661 0.400523 0.280034)
(3.05421 0.539029 0.0762403)
(2.66865 1.38702 0.0198037)
(3.23482 -0.216429 0.555509)
(3.21799 -0.287897 0.461169)
(3.39086 0.278322 0.247971)
(2.88733 1.36819 -0.0846903)
(3.83935 -0.228876 0.622511)
(3.94777 -0.524953 0.80352)
(3.84546 -0.435181 0.0801754)
(3.29626 0.192916 0.741958)
(3.5068 1.21432 -0.177409)
(4.02246 0.0681836 1.73727)
(3.97006 -0.362752 1.71167)
(4.00998 -0.756129 1.44449)
(4.56616 -0.704565 1.02381)
(4.36433 -0.596749 0.585848)
(3.731 0.699442 0.0839855)
(3.17647 0.169866 2.23464)
(3.24055 0.206887 2.1322)
(2.89447 -1.13306 2.44464)
(3.05059 -1.24958 2.26645)
(3.60659 -1.35235 2.13376)
(3.49491 -2.28871 2.73126)
(4.51222 0.742289 -0.151975)
(3.12681 0.292193 0.968361)
(2.80064 0.0230746 0.52749)
(2.39086 -0.79856 0.309018)
(2.35783 -1.14923 0.245793)
(2.1571 -1.79516 0.0847856)
(2.24366 -2.00522 0.65168)
(2.5957 -2.21568 2.1984)
(3.60862 -2.00341 1.0167)
(2.19496 0.171075 0.387774)
(2.36481 0.24322 -0.035811)
(2.30026 0.103919 -0.145529)
(2.48983 0.144285 0.0661673)
(2.12104 -0.313394 -0.257392)
(1.77144 -0.908747 -0.510797)
(1.73914 -1.16842 0.426122)
(2.22415 -1.87996 1.43143)
(3.74676 -2.94582 0.452598)
(1.09944 -0.459535 -0.0468495)
(1.02271 -0.563948 -0.219729)
(1.11289 -0.604385 -0.511233)
(1.24715 -0.0200113 -0.655272)
(1.42445 -0.0347427 -0.502525)
(1.30355 -0.296915 -0.552413)
(1.37481 -0.699091 -0.656293)
(0.885777 -0.555533 -0.899757)
(0.842327 -0.452227 1.00012)
(1.2429 -0.555008 1.62257)
(0.593097 -0.441603 -0.304179)
(0.396638 0.136322 -0.135285)
(0.277848 0.0376103 -0.661047)
(0.444702 -0.828067 -1.36722)
(0.888332 -0.817299 -1.34182)
(1.05678 -0.460307 -1.11004)
(0.834388 -0.678094 -1.25751)
(0.883726 -0.680894 -1.24844)
(0.829533 -0.448159 -1.07835)
(0.480454 -0.0792043 -1.06033)
(0.53116 0.686586 -0.859369)
(-0.191245 -1.15896 -0.204143)
(-0.0858996 -0.345911 -0.446262)
(-0.0334803 0.0046372 -0.504604)
(-0.125656 -0.329357 -1.14363)
(-0.357928 -0.8711 -1.31203)
(0.0880269 -0.567363 -1.6374)
(0.558257 -0.257232 -1.80611)
(0.969352 -0.129121 -1.60446)
(1.18095 -0.0488835 -1.55507)
(0.784918 -0.565222 -1.29349)
(0.666402 -0.567446 -0.802735)
(0.916157 0.196682 -0.488477)
(2.06002 0.877558 0.201621)
(2.55967 1.16701 -0.193009)
(2.38913 0.899116 -0.248949)
(2.99617 0.459747 0.16475)
(3.02888 0.720264 0.0488995)
(2.6684 0.950645 -0.160743)
(2.9898 -0.0302381 0.53308)
(2.98386 -0.253351 0.343286)
(3.06733 0.427676 0.0991131)
(2.80186 1.10565 -0.0952004)
(3.28718 -0.08928 0.708511)
(3.28663 -0.401834 0.483035)
(3.23843 -0.328207 0.468869)
(3.39279 -0.0261859 0.222145)
(2.94982 1.20633 -0.096507)
(3.82212 -0.53947 0.872192)
(3.88412 -0.556936 0.683414)
(3.9803 -0.57822 0.684152)
(3.94711 -0.428497 0.269769)
(3.45473 -0.177303 0.982332)
(3.57559 0.988894 -0.283491)
(3.805 -0.390795 1.66032)
(4.00126 -0.113817 1.90545)
(3.9576 -0.604651 1.66816)
(3.96281 -0.960204 1.3735)
(4.33327 -1.3574 1.0689)
(4.29587 -0.51659 0.440868)
(3.78413 0.405861 0.0936343)
(3.39607 -0.0379393 2.14135)
(3.13793 0.245192 2.30318)
(3.10164 -0.305058 2.08787)
(2.77501 -0.958148 2.5525)
(3.08095 -1.12997 2.04042)
(3.48882 -1.57495 2.28898)
(3.77608 -1.857 2.11876)
(4.18899 -0.130565 0.357684)
(3.19263 0.0382346 0.767144)
(3.27644 -0.370627 -0.0592493)
(2.80309 -0.00256203 0.546208)
(2.32033 -1.23467 -0.206456)
(2.37809 -1.18496 -0.0767847)
(1.94645 -1.89334 -0.225631)
(2.13018 -1.98407 0.708881)
(2.37237 -2.52702 2.19461)
(3.56746 -2.28032 0.913625)
(1.94055 -0.0429913 0.465254)
(2.13753 0.0198967 0.203475)
(2.22097 0.149554 -0.127627)
(2.09707 -0.588158 -0.648406)
(2.35297 -0.425091 -0.189099)
(1.97944 -0.932868 -0.159259)
(1.81108 -0.912319 -0.421529)
(1.48711 -1.24502 0.138716)
(2.05515 -2.36008 1.20226)
(3.65922 -3.24358 0.549598)
(0.986978 -0.613926 -0.443099)
(1.01467 -0.712602 -0.445426)
(0.975943 -0.590011 -0.231875)
(0.962345 -0.859545 -0.605677)
(1.13152 -0.205994 -0.759949)
(1.35467 -0.0975203 -0.569573)
(1.19566 -0.552977 -0.656514)
(1.37842 -0.709955 -0.657549)
(0.833131 -0.451793 -0.829818)
(0.874399 -0.375724 1.23916)
(1.44273 -0.819541 1.21999)
(0.635928 -0.81864 0.0170507)
(0.604843 -0.421935 -0.288588)
(0.455505 0.168455 -0.237778)
(0.31773 -0.0673304 -0.780905)
(0.375075 -1.0066 -1.37708)
(0.850868 -0.86939 -1.35212)
(0.966473 -0.562345 -1.21374)
(0.786195 -0.806833 -1.31264)
(0.876268 -0.700651 -1.27725)
(0.800217 -0.456506 -1.05709)
(0.538914 0.0152128 -0.967518)
(0.458001 0.708181 -0.877277)
(-0.539318 -1.44425 -0.115254)
(-0.203218 -1.17163 -0.252875)
(-0.10723 -0.450414 -0.393713)
(-0.0313366 -0.00353371 -0.491606)
(-0.129057 -0.347764 -1.1661)
(-0.387631 -0.948589 -1.41258)
(0.0516765 -0.653221 -1.6965)
(0.55004 -0.269205 -1.81606)
(0.990419 -0.144866 -1.65015)
(1.18307 -0.058258 -1.51874)
(0.77991 -0.483241 -1.29389)
(0.615762 -0.593778 -0.812432)
(0.892669 0.194875 -0.495713)
(1.69698 1.2746 0.0314899)
(2.27845 0.983493 0.190933)
(2.12799 0.549827 0.252997)
(2.82867 0.404595 0.0701498)
(2.63773 0.917528 -0.172277)
(2.42857 0.767124 -0.189302)
(2.8696 0.0769524 0.34303)
(2.98129 0.30124 0.27631)
(3.03023 0.479489 -0.0106699)
(2.75403 0.701708 -0.126109)
(3.08316 -0.171225 0.606656)
(3.00008 -0.352438 0.57342)
(2.99762 -0.187071 0.346674)
(3.14223 0.0571566 0.19647)
(2.90742 0.750836 -0.164749)
(3.29858 -0.101817 0.865158)
(3.33785 -0.344203 0.726022)
(3.37787 -0.199018 0.507318)
(3.23266 -0.365565 0.478028)
(3.35412 -0.969333 -0.0294528)
(3.04628 0.783205 -0.0130301)
(3.72499 -0.468416 0.979464)
(3.99313 -0.389472 0.85406)
(3.87988 -0.670833 0.641163)
(3.97836 -0.812627 0.817665)
(3.92679 -0.4932 0.388788)
(3.71783 -0.50649 0.886256)
(3.53573 0.333397 -0.41282)
(3.7565 -0.554314 1.79317)
(4.04674 -0.192892 1.63861)
(3.86807 -0.769504 1.98419)
(4.05176 -0.484209 1.58391)
(3.92325 -1.35416 1.28528)
(3.93885 -2.04716 1.07543)
(4.13258 -0.832752 0.226546)
(3.74926 -0.102894 -0.0882436)
(3.36777 0.0490451 2.09016)
(3.41223 -0.0388369 2.1899)
(3.13269 -0.123839 2.27353)
(2.72094 -0.76521 2.055)
(2.25906 -1.929 2.41302)
(2.81672 -1.48495 2.09989)
(1.78102 -3.4863 2.12479)
(3.72109 -1.77702 1.50957)
(4.17642 -0.139488 0.161356)
(3.14119 0.0505566 0.962098)
(3.23126 -0.0034708 0.703765)
(3.20766 -0.0552231 0.396387)
(2.881 0.103323 0.299084)
(2.61987 -0.789625 -0.9742)
(2.55353 -1.22542 -0.493324)
(1.94638 -1.86735 -0.151598)
(1.9946 -2.18386 0.859311)
(1.95557 -2.91037 1.70314)
(3.81617 -1.88523 0.545392)
(1.72345 -0.477734 0.422084)
(1.84065 -0.149042 0.371886)
(2.07487 0.0300045 0.124702)
(2.09789 -0.0331511 -0.20821)
(1.85684 -0.648418 -0.718137)
(2.22506 -0.705367 -0.429004)
(1.91528 -1.10564 -0.168803)
(1.80315 -0.923811 -0.293075)
(1.59355 -0.949532 -0.0665494)
(1.49954 -3.36253 0.861953)
(3.73187 -3.14635 0.348071)
(0.929066 -0.0598948 0.619547)
(1.03326 -0.734619 -0.622872)
(0.957246 -0.897916 -0.469751)
(0.900118 -0.801376 -0.292007)
(0.697159 -1.00544 -0.714564)
(1.10758 -0.239246 -0.791098)
(1.21682 -0.25661 -0.685149)
(1.12782 -0.695574 -0.696217)
(1.37688 -0.715854 -0.654566)
(0.723652 -0.299537 -0.780155)
(1.01055 -0.265294 1.44051)
(1.53862 -1.01718 0.862978)
(-0.152078 -1.64835 0.134319)
(0.604099 -0.746188 -0.00886645)
(0.628172 -0.459977 -0.354171)
(0.509136 0.109616 -0.334177)
(0.323223 -0.282475 -0.893038)
(0.306877 -1.09175 -1.39117)
(0.671351 -0.914437 -1.3616)
(0.967601 -0.514944 -1.25948)
(0.805044 -0.825988 -1.33295)
(0.899848 -0.670145 -1.28166)
(0.7211 -0.524496 -1.03426)
(0.537059 0.0406402 -0.919821)
(0.394465 0.699171 -0.862775)
(-0.0877898 -1.02333 -0.186724)
(-0.536521 -1.41831 -0.166502)
(-0.20431 -1.13048 -0.269227)
(-0.137846 -0.566298 -0.319893)
(-0.0509889 -0.092795 -0.47119)
(-0.154774 -0.444495 -1.20154)
(-0.418122 -1.03494 -1.48713)
(0.0234884 -0.703793 -1.72358)
(0.555034 -0.258683 -1.80341)
(1.02627 -0.0861754 -1.64125)
(1.17665 -0.0805215 -1.47712)
(0.729104 -0.583764 -1.24581)
(0.478393 -0.66984 -0.840831)
(0.868044 0.178136 -0.516266)
(1.66657 0.885319 0.0439976)
(2.06585 1.02897 0.0238151)
(1.71163 1.23507 0.0402756)
(2.48309 0.969595 0.134204)
(2.22173 1.0986 -0.034568)
(2.14086 0.54925 0.185832)
(2.89253 0.0593559 0.144723)
(2.90845 0.12963 0.090054)
(2.68106 0.714591 0.0111104)
(2.44 0.642972 -0.0953536)
(2.87863 0.0795792 0.490878)
(2.89404 -0.241644 0.429391)
(2.88086 -0.0751679 0.306787)
(3.02692 0.201218 -0.0143174)
(2.8421 0.118186 -0.129036)
(3.03246 -0.0947693 0.830895)
(3.07323 -0.274588 0.612285)
(3.06533 -0.339011 0.500913)
(3.13624 -0.278492 0.397502)
(3.10771 -0.165293 0.255458)
(3.12424 -0.00951659 -0.275418)
(3.29145 -0.211102 0.966042)
(3.30785 -0.201693 0.841226)
(3.37782 -0.318949 0.741617)
(3.38697 -0.468188 0.456127)
(3.26814 -0.648908 0.455991)
(3.45713 -1.16006 -0.134774)
(3.09592 0.235984 0.185149)
(3.80525 -0.0681349 1.13397)
(3.85246 -0.611545 0.861863)
(3.97676 -0.447773 0.885693)
(3.98225 -0.778331 0.597646)
(4.00282 -0.785609 0.909955)
(3.73235 -0.753994 0.649967)
(3.84681 -1.15814 0.785066)
(3.38496 -0.433647 -0.341658)
(3.60352 -0.731617 1.70567)
(3.82511 -0.674707 1.88079)
(4.00856 -0.611246 1.84758)
(3.91904 -0.828979 1.90451)
(3.72594 -1.2297 1.73972)
(3.75863 -1.63304 1.40016)
(4.03549 -1.38909 1.12141)
(3.79843 -2.1035 0.277142)
(3.72293 -0.407781 -0.26396)
(3.52176 0.0154882 2.0416)
(3.49863 -0.0771608 2.10133)
(3.39202 -0.319583 1.98582)
(2.9066 -0.672433 2.29404)
(2.56641 -1.05671 1.79256)
(1.9458 -1.99473 2.06731)
(1.98379 -2.21531 2.34956)
(2.64217 -2.68629 1.26103)
(3.153 -2.28497 1.73272)
(4.36489 -0.215229 -0.318045)
(3.00255 -0.072962 1.09009)
(3.14088 -0.145635 0.89563)
(3.22752 -0.306291 0.551428)
(3.2786 -0.269613 0.0537142)
(2.86867 -0.0142181 0.156614)
(2.68195 -1.00903 -1.08902)
(2.33473 -1.48263 -0.18853)
(1.7561 -2.05434 0.607754)
(1.98025 -2.14366 0.939261)
(1.27977 -3.11962 1.40271)
(3.91314 -1.76685 0.396391)
(1.45639 -0.467831 0.657267)
(1.6161 -0.642304 0.421314)
(1.78308 -0.253813 0.320991)
(1.95719 -0.247374 -0.0425153)
(2.00033 -0.195382 -0.430158)
(1.95106 -0.23352 -0.418209)
(2.0114 -1.03208 -0.551051)
(1.75705 -1.40036 -0.0755011)
(1.83439 -1.15222 0.528164)
(1.83478 -0.721767 -0.219554)
(0.658833 -3.83419 1.22363)
(2.9825 -4.02656 0.709208)
(0.629132 -1.03315 0.526117)
(0.983356 -0.148001 0.529812)
(1.05125 -1.05514 -0.476615)
(0.86871 -1.19623 -0.196012)
(0.800628 -1.07167 -0.437619)
(0.764118 -0.982905 -0.696641)
(0.850676 -0.468712 -0.975119)
(1.19174 -0.264199 -0.612693)
(1.0178 -0.807496 -0.738302)
(1.38672 -0.728689 -0.607032)
(0.594199 -0.174425 -0.722305)
(1.21995 -0.224032 1.40685)
(1.31576 -1.67315 -0.250831)
(0.0661687 -1.53678 0.494414)
(-0.171947 -1.67939 0.11687)
(0.566797 -0.717637 -0.04501)
(0.622649 -0.616476 -0.421467)
(0.500509 -0.178317 -0.443659)
(0.269287 -0.610576 -0.980668)
(0.347913 -1.08189 -1.40061)
(0.692815 -0.85995 -1.3207)
(0.982195 -0.490291 -1.30938)
(0.804043 -0.829523 -1.30824)
(0.947393 -0.618268 -1.19093)
(0.654859 -0.562563 -0.990755)
(0.507677 0.0644442 -0.899557)
(0.332628 0.683194 -0.820488)
(-0.712394 -1.5957 0.106954)
(-0.0628776 -0.966562 -0.144711)
(-0.529432 -1.37899 -0.188263)
(-0.197581 -1.08735 -0.280639)
(-0.177895 -0.689774 -0.232032)
(-0.0898232 -0.228134 -0.454328)
(-0.199608 -0.586978 -1.22493)
(-0.451059 -1.10081 -1.5258)
(0.02684 -0.693289 -1.71703)
(0.56949 -0.240355 -1.78908)
(1.02202 -0.112886 -1.57844)
(1.15917 -0.101972 -1.446)
(0.748957 -0.496911 -1.23498)
(0.518672 -0.604743 -0.809681)
(0.822495 0.193725 -0.532697)
(1.47231 0.911082 0.0172655)
(2.05163 0.730776 -0.268122)
(1.73778 0.757219 -0.0311893)
(2.32709 0.54207 -0.104054)
(2.142 0.866943 0.155051)
(1.76852 1.16866 0.0162795)
(2.66055 0.489193 0.459188)
(2.59981 0.383825 0.189864)
(2.2862 0.77708 0.117766)
(2.17454 0.478323 0.182658)
(2.88797 0.261522 0.402434)
(2.85191 -0.132827 0.179746)
(2.87357 0.124439 0.158396)
(2.61812 0.449697 0.154758)
(2.47453 -0.444207 0.15699)
(2.91237 0.233576 0.663448)
(2.93065 -0.111172 0.50236)
(2.90444 -0.262304 0.331648)
(2.84659 -0.399778 0.270478)
(2.99913 -0.0834849 -0.13189)
(2.88025 -0.113966 -0.05675)
(3.06145 -0.272472 0.867323)
(3.13315 -0.240248 0.844701)
(3.11726 -0.4165 0.513862)
(3.11397 -0.564038 0.494588)
(3.20241 -0.564721 0.412901)
(3.07426 -0.313949 0.227993)
(3.12954 -0.0725378 -0.227841)
(3.28294 0.101076 1.00814)
(3.28293 -0.254159 0.918944)
(3.36641 -0.254836 0.819485)
(3.39798 -0.418928 0.759869)
(3.46597 -0.548355 0.327566)
(3.28547 -0.762198 0.365256)
(3.46598 -0.905047 -0.196777)
(3.05342 0.0893588 0.167319)
(3.79522 -0.414101 1.35253)
(3.76178 -0.191899 1.1239)
(3.88933 -0.466944 0.950181)
(3.96087 -0.609085 0.878969)
(4.00642 -0.738202 0.726186)
(3.87356 -0.798233 0.949953)
(3.70468 -1.08922 0.558084)
(3.94964 -1.46152 0.685313)
(3.24072 -0.806951 -0.179461)
(3.57754 -0.298484 1.69199)
(3.55617 -0.802117 1.96284)
(3.85007 -0.762154 1.91119)
(3.88456 -0.935189 1.90564)
(3.61843 -0.932136 2.18049)
(3.2559 -1.49115 1.90308)
(3.29408 -2.03218 1.62385)
(3.11706 -2.90685 1.33371)
(3.30642 -3.02753 0.818536)
(3.71776 -1.13092 -0.6739)
(3.65905 -0.336082 2.15349)
(3.60743 -0.273943 2.0456)
(3.55089 -0.44167 1.97255)
(3.36088 -0.850631 1.65783)
(2.84967 -0.800788 1.98315)
(2.37004 -1.29324 1.57649)
(1.72321 -1.70501 2.1615)
(2.46391 -1.60416 1.8727)
(2.21719 -3.10164 1.16329)
(2.2181 -3.42302 1.94901)
(4.24805 -0.699162 -0.21382)
(3.10278 0.105956 1.54129)
(2.8547 -0.130838 1.09918)
(3.07821 -0.522959 0.634498)
(3.201 -0.548103 0.203153)
(3.15558 -0.492568 -0.206367)
(2.86813 -0.639353 -0.466612)
(2.58 -1.03695 -0.713537)
(2.1179 -1.65609 -0.187045)
(1.14769 -2.64262 -0.146679)
(1.81574 -2.20119 1.48872)
(2.95362 -2.03485 1.60694)
(3.96679 -1.79828 -0.0633181)
(1.27446 -0.546691 0.678069)
(1.42266 -0.615947 0.656183)
(1.53481 -0.703987 0.504886)
(1.70664 -0.412131 0.301954)
(1.86399 -0.436244 -0.0921117)
(1.81989 -0.431496 -0.670375)
(1.5392 -0.764331 -0.923818)
(1.92618 -1.04182 -0.41163)
(1.5171 -1.717 -0.0102522)
(1.98908 -1.33507 1.07024)
(1.59454 -1.20523 0.616678)
(0.92673 -3.94326 1.6427)
(2.86054 -4.25439 0.733595)
(0.32089 -1.0619 0.950958)
(0.539579 -1.12675 0.46409)
(1.08678 -0.182179 0.447151)
(1.03332 -1.34325 -0.241685)
(0.830406 -1.35359 -0.14653)
(0.692555 -1.24029 -0.561033)
(0.552284 -1.13768 -0.808285)
(0.92183 -0.308363 -0.874494)
(1.0791 -0.401581 -0.683429)
(1.18275 -0.668099 -0.647089)
(1.37088 -0.726422 -0.483226)
(0.524494 -0.0488125 -0.651296)
(1.39357 -0.274648 1.25347)
(0.661789 -2.20476 -0.806399)
(0.144153 -2.01693 0.534239)
(0.0875073 -1.5341 0.465184)
(-0.189535 -1.73735 0.117395)
(0.528533 -0.700841 -0.0719065)
(0.582283 -0.827553 -0.375279)
(0.406328 -0.586764 -0.468304)
(0.179674 -0.921346 -1.03776)
(0.304721 -1.11806 -1.38291)
(0.681738 -0.975952 -1.25279)
(0.961548 -0.499306 -1.33124)
(0.836215 -0.820389 -1.23177)
(0.969929 -0.626345 -1.09721)
(0.559414 -0.623446 -0.944562)
(0.474676 0.0941611 -0.8987)
(0.345496 0.6104 -0.75316)
(-0.934298 -0.573117 0.176896)
(-0.6992 -1.61185 -0.03474)
(-0.0313688 -0.917858 -0.104561)
(-0.504106 -1.31267 -0.186946)
(-0.207381 -1.08417 -0.30901)
(-0.231688 -0.821111 -0.138901)
(-0.14495 -0.401914 -0.438653)
(-0.2721 -0.758677 -1.22959)
(-0.446979 -1.09513 -1.51925)
(0.0698581 -0.632676 -1.70359)
(0.574266 -0.223291 -1.77646)
(1.02113 -0.11848 -1.53635)
(1.1409 -0.123675 -1.4174)
(0.69049 -0.525469 -1.22125)
(0.572341 -0.583877 -0.761366)
(0.807439 0.171782 -0.514448)
(1.36607 0.930713 0.0340731)
(1.82536 0.716743 0.164556)
(1.55219 0.85601 -0.0280552)
(2.08717 0.719588 -0.0641377)
(2.03519 0.721329 -0.254787)
(1.80555 0.652038 -0.00442535)
(2.42105 0.315038 0.0511091)
(2.35205 0.44295 -0.110528)
(2.16844 0.822003 0.206704)
(1.82366 1.06972 -0.0157201)
(2.70938 0.311022 0.341533)
(2.71652 0.0141501 0.057155)
(2.46401 0.636315 0.178845)
(2.23132 0.817821 0.086558)
(2.04659 0.505399 0.20498)
(2.98787 0.210701 0.364343)
(2.85861 -0.342344 0.285249)
(2.84216 -0.273215 0.288409)
(2.76404 -0.0607742 0.238586)
(2.63468 0.134845 -0.0450084)
(2.38986 0.0803289 -0.00438446)
(2.93275 -0.130586 0.80637)
(2.89587 -0.420722 0.690194)
(2.92355 -0.178055 0.509731)
(2.88698 -0.496403 0.344862)
(2.83914 -0.590422 0.282001)
(2.96737 -0.282816 -0.179548)
(2.90728 -0.0606182 -0.0506661)
(3.09294 -0.0235535 1.00789)
(3.12932 -0.270242 0.858724)
(3.12843 -0.190843 0.783486)
(3.24709 -0.521508 0.529718)
(3.18596 -0.694169 0.404651)
(3.29473 -0.729438 0.229272)
(3.08275 -0.434463 0.218337)
(3.05476 -0.29903 -0.257946)
(3.33897 0.0761593 1.12684)
(3.38339 -0.00120706 0.994103)
(3.30336 -0.273262 0.91321)
(3.41425 -0.369636 0.900131)
(3.42458 -0.684938 0.717532)
(3.51008 -0.830905 0.318185)
(3.13285 -1.38414 0.46026)
(3.28296 -1.26527 -0.0965669)
(3.13404 0.0910445 0.351314)
(3.82847 -0.203666 1.59646)
(3.76823 -0.544949 1.28227)
(3.75602 -0.531521 1.04959)
(3.86269 -0.629959 0.994586)
(3.98888 -0.737358 0.88257)
(3.74608 -1.15828 1.17442)
(3.70511 -1.14549 0.965615)
(3.64543 -1.32098 0.494782)
(3.88917 -1.49175 0.534452)
(3.11412 -1.15627 -0.0216975)
(3.53372 0.163612 1.618)
(3.51786 -0.416831 1.75246)
(3.63946 -0.926532 1.94367)
(3.75568 -0.96899 1.92335)
(3.92825 -0.715836 1.74995)
(3.29221 -1.27099 2.06465)
(3.15956 -1.65383 1.85962)
(3.16034 -2.22864 1.63162)
(2.80242 -2.93606 1.09961)
(3.10025 -3.19725 1.0626)
(3.76704 -1.63504 -0.585989)
(3.70971 -0.236196 2.43685)
(3.71625 0.345387 1.91602)
(3.63615 -0.256551 2.00416)
(3.59214 -0.662893 1.83146)
(3.44698 -0.690154 1.33111)
(2.69287 -1.00267 1.96915)
(2.36807 -1.17046 1.5152)
(2.37612 -1.35429 1.94486)
(2.13606 -1.98413 1.37796)
(2.2566 -2.84778 1.54912)
(2.33347 -3.98568 1.45663)
(3.70543 -1.46638 0.0358935)
(2.91422 0.242671 1.34754)
(2.8997 -0.225585 1.41256)
(2.82128 -0.450975 0.756111)
(2.94787 -0.697336 0.370194)
(3.10609 -0.867571 0.0118226)
(3.02975 -0.72477 -0.429874)
(2.84259 -0.745731 -0.496432)
(2.33236 -1.35132 -0.507665)
(2.05104 -2.09825 -0.257032)
(1.47929 -2.42036 0.106325)
(2.16813 -2.22031 2.12028)
(1.20742 -3.66196 1.85385)
(4.29206 -1.71206 -0.853213)
(1.1992 -0.551825 1.10194)
(1.11364 -0.780427 0.587355)
(1.37692 -0.735125 0.631012)
(1.41185 -0.829124 0.61331)
(1.59311 -0.537749 0.283717)
(1.84414 -0.49667 -0.128648)
(1.69127 -0.465064 -0.678126)
(1.5052 -0.735714 -0.897819)
(1.96462 -0.925359 -0.328819)
(1.49155 -1.68864 0.250615)
(2.29999 -1.25314 1.30113)
(1.06968 -1.75877 1.79164)
(1.27963 -4.19983 2.04218)
(2.8572 -4.12651 0.573576)
(0.517357 -1.59425 1.02307)
(0.235185 -1.1803 0.831557)
(0.456098 -1.1571 0.431557)
(1.14207 -0.207612 0.44471)
(1.02511 -1.43765 -0.066058)
(0.815744 -1.38853 -0.281303)
(0.604858 -1.34523 -0.648887)
(0.489412 -1.11993 -0.867285)
(0.797442 -0.436137 -0.948915)
(1.03589 -0.43501 -0.658256)
(1.19001 -0.705358 -0.643079)
(1.40536 -0.651839 -0.329187)
(0.538581 0.0364929 -0.590472)
(1.48074 -0.488354 1.09121)
(0.185275 -2.60122 -0.831869)
(-0.208689 -0.864508 0.923271)
(0.160862 -2.03507 0.458317)
(0.111604 -1.53446 0.441857)
(-0.195817 -1.73529 0.143115)
(0.495913 -0.704658 -0.0645485)
(0.563606 -0.946821 -0.285326)
(0.303146 -0.923136 -0.42729)
(0.113109 -1.13468 -1.06586)
(0.244832 -1.13078 -1.33881)
(0.512626 -0.928603 -1.29527)
(0.953569 -0.50443 -1.30447)
(0.913938 -0.762927 -1.16517)
(0.987957 -0.565222 -1.04893)
(0.470128 -0.665355 -0.889718)
(0.44741 0.113855 -0.913961)
(0.349854 0.596196 -0.697765)
(-0.679021 -0.146602 0.143288)
(-0.9243 -0.624112 0.135881)
(-0.703687 -1.62169 -0.120608)
(-0.00579739 -0.89829 -0.0925162)
(-0.481633 -1.24113 -0.159375)
(-0.246452 -1.14375 -0.372733)
(-0.300048 -0.949786 -0.0485215)
(-0.223604 -0.599391 -0.42439)
(-0.366137 -0.940699 -1.20794)
(-0.409674 -1.03818 -1.51003)
(0.124255 -0.564325 -1.6891)
(0.588077 -0.201042 -1.75647)
(1.00908 -0.133718 -1.52161)
(1.12773 -0.136818 -1.39117)
(0.654365 -0.570897 -1.20079)
(0.436206 -0.623715 -0.810272)
(0.781089 0.176183 -0.505161)
(1.32329 0.921263 -0.0622996)
(1.66017 0.799935 0.0870378)
(1.44546 0.817391 0.0453899)
(1.88117 0.782382 0.110407)
(1.83159 0.72792 0.16754)
(1.5994 0.833585 -0.0699886)
(2.17169 0.58932 0.0956795)
(2.10827 0.595156 -0.0809782)
(2.15782 0.296725 -0.0915623)
(1.85896 0.497162 -0.00350605)
(2.41369 0.341345 0.209111)
(2.44196 0.192913 0.195373)
(2.34546 0.376479 -0.00455032)
(2.23458 0.497861 0.193457)
(1.87721 0.813274 -0.0706958)
(2.6887 0.178298 0.372516)
(2.66983 0.142735 0.368287)
(2.61383 0.104165 0.32979)
(2.52257 -0.0858799 0.217493)
(2.34616 -0.105804 0.323788)
(1.98825 0.391429 0.169148)
(2.91413 0.0777741 0.534796)
(2.92642 0.0788504 0.32342)
(2.80365 -0.0753984 0.397236)
(2.74892 -0.365293 0.3926)
(2.75207 -0.254727 0.20108)
(2.67905 -0.0390635 -0.0991718)
(2.40923 0.0255262 0.0139695)
(2.93076 0.219051 0.943638)
(2.92796 -0.251842 0.780312)
(2.89514 0.0429357 0.685419)
(2.96373 -0.48738 0.419436)
(2.8707 -0.547904 0.334487)
(2.7574 -0.914198 0.198335)
(2.9458 -0.492617 -0.168067)
(2.81383 0.0469057 0.0973754)
(3.19358 0.0381259 1.09226)
(3.11401 -0.125094 1.00741)
(3.16679 -0.357858 0.81729)
(3.18179 -0.658163 0.762245)
(3.36206 -0.621668 0.465148)
(3.31134 -0.745195 0.303599)
(3.26453 -1.06714 0.0522253)