/*--------------------------------*- C++ -*----------------------------------*\
  =========                 |
  \\      /  F ield         | OpenFOAM: The Open Source CFD Toolbox
   \\    /   O peration     | Website:  https://openfoam.org
    \\  /    A nd           | Version:  7
     \\/     M anipulation  |
\*---------------------------------------------------------------------------*/
FoamFile
{
    version     2.0;
    format      ascii;
    class       volScalarField;
    location    "8";
    object      nut;
}
// * * * * * * * * * * * * * * * * * * * * * * * * * * * * * * * * * * * * * //

dimensions      [0 2 -1 0 0 0 0];

internalField   nonuniform List<scalar> 
18630
(
5.81137e-05
0.000141402
5.73715e-05
0.000115772
0.000755605
0.000116481
0.000249101
8.49897e-05
0.000134491
0.000136415
0.000667632
0.000537505
0.000395277
0.000330917
0.000422667
0.00023419
0.000115721
0.000159354
0.000124013
0.000312619
0.000156736
0.00122282
0.000815005
0.00052238
0.000589521
0.000673867
0.000415694
0.000427127
0.000178348
0.000214802
9.25002e-05
0.000178644
0.000125497
0.000288343
0.000141393
0.00126853
0.000677411
0.000691051
0.000680982
0.000654861
0.000557419
0.0006189
0.000378003
0.000534188
0.00046398
0.000388799
0.000371342
0.000249577
0.000209091
0.000362726
9.46527e-05
0.00018295
0.000104025
0.000272155
0.000152252
0.000352816
0.0017135
0.0013533
0.000543882
0.000601376
0.000239282
0.000437781
0.000584523
0.000670029
0.000774175
0.000503926
0.000533632
0.000462464
0.000336746
0.000556007
0.000481562
0.000337494
0.000280637
0.000260413
0.000258568
0.000324542
0.00037015
8.5129e-05
0.00017783
9.4549e-05
0.000211598
0.000181024
0.000192274
0.000326163
0.00118944
0.000604301
0.000878089
0.00066706
0.000673679
0.000831419
0.00057918
0.00041853
0.0003281
0.000895796
0.000758639
0.000778322
0.000593548
0.000409157
0.000416044
0.000611956
0.000403031
0.000264129
0.000568372
0.000613484
0.000533052
0.00041792
0.000220819
0.000222436
0.000298269
0.000310444
0.000376452
0.000574577
6.11741e-05
0.000169174
8.20127e-05
0.000117601
0.000191662
0.000262778
0.000307143
0.000222426
0.00111602
0.000905643
0.00126898
0.000901929
0.00153785
0.000785031
0.0011189
0.00109709
0.00100095
0.000691673
0.00073414
0.000414939
0.000693725
0.00103523
0.000621036
0.000443867
0.000544926
0.000408285
0.000592764
0.000458131
0.000558496
0.000600239
0.00043633
0.000489146
0.000655535
0.000714742
0.000679077
0.000564437
0.000457759
0.000183413
0.00018855
0.000291972
0.000330372
0.000335489
0.000555898
0.000585304
4.76686e-05
0.000163784
0.000104715
8.23151e-05
0.000171934
0.000317441
0.000305561
0.000229472
0.0001756
0.000890699
0.00139284
0.00124998
0.00106929
0.00130123
0.000947694
0.00102348
0.00107535
0.000805989
0.000695075
0.000570885
0.000584428
0.000581278
0.000454802
0.000424604
0.000286986
0.00036836
0.0011663
0.00081453
0.00037923
0.000673201
0.000372292
0.000643689
0.000500073
0.000877795
0.000580629
0.000561194
0.00072795
0.000598246
0.000595233
0.00057138
0.000841854
0.000815043
0.000851892
0.000634899
0.000601012
0.000423573
0.000157513
0.00017589
0.000277171
0.000316541
0.000330105
0.000482068
0.000658996
0.000317116
3.89506e-05
0.00014874
0.000103023
0.000119657
0.000172856
0.000315162
0.000312234
0.000261168
0.00026444
0.000152319
0.00151645
0.00106681
0.00143245
0.00134492
0.00133692
0.00140715
0.00103559
0.00112497
0.000815448
0.000229989
0.000757495
0.00133279
0.000909317
0.000551535
0.000252978
0.000783079
0.00091933
0.000524254
0.00047469
0.00050141
0.000951996
0.000725615
0.000465558
0.00112065
0.000784487
0.000327649
0.000464567
0.000729336
0.000493812
0.000432024
0.000802908
0.000865725
0.000622933
0.000675172
0.00079424
0.000617007
0.000574955
0.000562527
0.000607936
0.000990123
0.000938281
0.000753368
0.000584344
0.000342963
0.000693515
0.000396287
0.000155959
0.000202564
0.000264853
0.000352314
0.000305482
0.000511713
0.00065241
0.000341613
0.000306732
4.95092e-05
0.000127444
6.72103e-05
0.000144684
0.000185816
0.000298593
0.000271825
0.000122845
0.000308475
0.000122525
6.65489e-05
0.000806754
0.000777494
0.00174214
0.00141164
0.00210425
0.000795736
0.00127574
0.00117682
0.00145984
0.00128551
0.000940432
0.00116762
0.000483685
0.000517787
0.000817825
0.00105489
0.00109211
0.000454007
0.00060458
0.000393722
0.000827316
0.000663806
0.000918762
0.000516527
0.000704263
0.000213282
0.000362083
0.000625545
0.000459447
0.000672819
0.000877137
0.000657257
0.000287944
0.000676751
0.00076038
0.000366444
0.000547323
0.000323744
0.000749828
0.000595179
0.000577451
0.000792226
0.000773223
0.000643088
0.000779124
0.000399736
0.0004143
0.000475515
0.000922741
0.000654713
0.000512655
0.000291803
0.00071279
0.000807797
0.00104518
0.000275498
0.000161483
0.00023141
0.000285752
0.000334019
0.000211659
0.000585656
0.000842812
0.000328378
0.000366259
0.000497882
4.23332e-05
9.72598e-05
9.33191e-05
9.67045e-05
0.000229236
0.000295358
0.000229919
0.000255396
0.00019659
0.000186338
5.01231e-05
0.000101346
0.00104812
0.00113677
0.00084021
0.00265721
0.0010399
0.00190751
0.0010199
0.00153668
0.00119532
0.000865434
0.000548722
0.00126344
0.00124194
0.000822215
0.00113373
0.00175854
0.000787591
0.000850631
0.000675478
0.000666587
0.000724167
0.000967358
0.000835383
0.000728543
0.000392141
0.00033276
0.000159647
0.000143117
0.000459586
0.000608606
0.000714417
0.000342737
0.000479798
0.000710879
0.000846734
0.000568137
0.000789693
0.000314218
0.00060656
0.000603926
0.000432109
0.000355715
0.000779449
0.000591055
0.000996145
0.000772355
0.000405463
0.000314328
0.000814462
0.000813512
0.000938999
0.000879771
0.000682082
0.000446325
0.000719855
0.00051088
0.000250326
0.000441012
0.000337877
0.000626017
0.000706554
0.000506608
0.00053874
0.000797769
0.000836991
0.000956715
0.00104073
0.000331839
0.00017727
0.000221062
0.000303909
0.000333966
0.000251217
0.000643597
0.000804862
0.000327032
0.000391259
0.000493005
0.000504718
2.74663e-05
5.38674e-05
6.5972e-05
0.000138317
0.000213817
0.000254595
0.000251203
0.000378335
0.000136739
5.98141e-05
0.000277274
6.95497e-05
0.00018289
0.000457377
0.000560407
0.000729535
0.00106441
0.00136151
0.00120757
0.00050825
0.00124604
0.00127761
0.00130216
0.00199759
0.000995684
0.00150358
0.00116027
0.00067076
0.000864569
0.00134693
0.00124331
0.00106663
0.0012838
0.000986416
0.000917689
0.0011878
0.00083348
0.000662908
0.00047326
0.000623036
0.000862962
0.000539055
0.000574917
0.0008421
0.000555897
0.000256049
0.000396982
0.000636949
0.000422862
0.00043096
0.000583179
0.000620242
0.000653986
0.000308814
0.000167985
0.000334346
0.00046441
0.000877954
0.00167698
0.000685542
0.000334115
0.000572825
0.000809091
0.000350058
0.000430492
0.000826007
0.000961753
0.00148687
0.00154684
0.0010754
0.000247653
0.000570383
0.000978259
0.00110554
0.000993828
0.000749842
0.000496712
0.000197535
0.000365527
0.000526285
0.000722075
0.000392807
0.000613352
0.000570171
0.000445535
0.000701375
0.000561788
0.00056222
0.000628471
0.000810696
0.000722736
0.000868553
0.000872257
0.000392481
0.000197626
0.000219254
0.000296309
0.000343017
0.000179058
0.000574472
0.000634985
0.000328505
0.000366935
0.000388318
0.000403497
0.000381522
6.81585e-05
7.88695e-05
8.97222e-05
0.00019446
0.000223408
0.000253262
0.000366045
0.000136562
0.000182259
9.53917e-05
0.000210848
0.000150536
0.000213431
0.00031859
0.000346119
0.000482228
0.000478301
0.000587961
0.000390331
0.00104517
0.00110876
0.000436561
0.00093456
0.00127811
0.000903631
0.00128552
0.00131527
0.00159658
0.00150517
0.00109839
0.00108335
0.000808637
0.0008077
0.00133477
0.00111972
0.000794109
0.000612631
0.000857469
0.00138207
0.00121524
0.00111934
0.000687687
0.000876338
0.00102339
0.00165949
0.00134649
0.000663319
0.000745786
0.000411235
0.000751944
0.000602006
0.000555581
0.000352838
0.000487963
0.000609641
0.000777417
0.000351382
0.000362943
0.000484627
0.000978486
0.000762824
0.000179214
0.000634593
0.000689267
0.00072204
0.000605839
0.000324624
0.000405879
0.00088881
0.00114718
0.000764663
0.000869204
0.00109753
0.000438221
0.000395356
0.00059917
0.000436952
0.000706515
0.00113265
0.000782021
0.000326546
0.000653093
0.00048866
0.000480595
0.000315106
0.000708454
0.000818728
0.0010279
0.00101413
0.000709534
0.000269333
0.000520423
0.00101703
0.000729569
0.00069121
0.000659507
0.00099775
0.000800045
0.000593775
0.000634707
0.000351043
0.000485717
0.000419191
0.000652358
0.000744312
0.000702708
0.000686822
0.000758485
0.000806302
0.000299423
0.000202247
0.000206119
0.000275192
0.000301251
0.00014384
0.000454261
0.000585369
0.000387859
0.000335637
0.000292418
0.000246153
0.000360683
0.00031464
8.27299e-05
7.66737e-05
6.55751e-05
0.00014935
0.000218074
0.000287187
0.000370767
6.25158e-05
0.00025501
0.000251454
0.000224772
0.000207351
0.000206817
0.000184377
0.000218666
0.00042247
0.000477291
0.000377919
0.000568858
0.000697629
0.000456269
0.000566037
0.000814682
0.000757282
0.00120156
0.00133906
0.000926693
0.000818741
0.00123454
0.00190256
0.00100391
0.000896348
0.00143053
0.00164223
0.000777986
0.000868579
0.00169383
0.00158724
0.000719919
0.000315539
0.000682956
0.00168108
0.00201344
0.00117333
0.000609918
0.00113579
0.00133634
0.00170898
0.00124564
0.00129526
0.00108134
0.000513735
0.00114645
0.000795332
0.00145741
0.000967692
0.000904787
0.000531387
0.000684405
0.000641465
0.000366561
0.000554769
0.00134131
0.000234732
0.00056665
0.000358023
0.000613344
0.000732754
0.000683482
0.000552469
0.000313843
0.000562322
0.000420846
0.000565263
0.000705486
0.000675464
0.000562829
0.000415957
0.000771903
0.000551671
0.000395868
0.000851098
0.000719141
0.000907042
0.000756574
0.000713817
0.000484059
0.000229498
0.00048022
0.000479097
0.000658267
0.000822619
0.00074663
0.000609676
0.00121421
0.000615649
0.000358208
0.000444079
0.000287095
0.000200144
0.000775091
0.000705124
0.00115351
0.000938667
0.000483653
0.000337968
0.000627291
0.000896196
0.000429439
0.000376453
0.00102682
0.000787159
0.000983755
0.00067438
0.000574722
0.000741205
0.000508256
0.000495416
0.00058668
0.000668919
0.00073706
0.00060583
0.000630519
0.000712327
0.000776898
0.000333578
0.000351521
0.000211023
0.000194916
0.0002505
0.00030517
0.000178261
0.000896254
0.00058879
0.000351673
0.000236738
0.000397156
0.000253965
0.000363286
0.000283658
0.000394749
7.39065e-05
4.90433e-05
0.000153597
0.000121463
0.000275713
0.000226335
0.000276226
0.000208148
0.000198759
0.000155161
0.000221185
0.000287587
0.000226319
0.000233791
0.000176878
0.000299123
0.000428271
0.000479681
0.000491603
0.000412233
0.000657796
0.000829784
0.000502315
0.000692865
0.00101634
0.000217658
0.00054522
0.00105199
0.000813429
0.000580748
0.000684127
0.0010302
0.000860505
0.000791562
0.000774819
0.00117037
0.00114625
0.000716013
0.000666824
0.00102912
0.000988233
0.000945535
0.000890982
0.000410074
0.00090126
0.00141217
0.00138488
0.000912734
0.000847912
0.000824591
0.00157315
0.00172913
0.00136585
0.00135837
0.000791929
0.00116795
0.0010972
0.00211399
0.00162487
0.000881194
0.00126147
0.00081342
0.000788558
0.00130383
0.00125726
0.00115495
0.0005159
0.000371684
0.000681249
0.000821458
0.000809905
0.000770627
0.000846531
0.000625606
0.000159907
0.000176578
0.000560497
0.000443988
0.000411954
0.000693375
0.000670279
0.000477772
0.000502535
0.000263235
0.000453992
0.000276255
0.000643606
0.000906519
0.000865145
0.000911559
0.000775123
0.000421045
0.000378312
0.000295837
0.000415825
0.000499582
0.000888755
0.00139135
0.00116416
0.000605745
0.000591421
0.000649095
0.000294055
0.000447129
0.000507277
0.000708676
0.000935357
0.00072829
0.000827815
0.000797437
0.00107408
0.00105148
0.000395892
0.000352312
0.000927097
0.000303968
0.000809709
0.000846221
0.0010351
0.000373997
0.000694696
0.000323234
0.000880597
0.000999934
0.000730789
0.000570887
0.00130568
0.000713354
0.000651698
0.000570467
0.000579473
0.000535207
0.000761677
0.000699286
0.000567484
0.000293461
0.000656003
0.000559297
0.000482894
0.000554603
0.000570362
0.000646602
0.000345121
0.000494507
0.000363216
0.000216086
0.000198699
0.000220755
0.000311725
0.000266343
0.00066654
0.000381231
0.000280713
0.000297786
0.000117804
0.000239563
0.000347719
0.000270978
0.000419033
0.000373137
6.79571e-05
7.22257e-05
6.90225e-05
0.000178182
0.00034001
0.000200742
0.000288338
0.00021884
0.000187915
0.000156602
0.00019586
0.000124118
0.000167559
0.000190855
0.000211182
0.000224879
0.00021494
0.000345494
0.000389227
0.000434604
0.000557758
0.000487869
0.000561929
0.00029635
0.00062897
0.000784289
0.000711113
0.000210654
0.000893278
0.00113996
0.00076021
6.13092e-05
0.000858971
0.000803883
0.000805217
0.000642729
0.000432285
0.000627485
0.000560065
0.000702132
0.000692386
0.000606923
0.00111328
0.000636001
0.000763138
0.00062749
0.000758117
0.00078642
0.000290107
0.00105034
0.00162975
0.00058275
0.000604299
0.000856785
0.00121272
0.00149348
0.00151723
0.0013693
0.000715617
0.00109737
0.00150962
0.00182402
0.00136438
0.00162606
0.00118607
0.000995594
0.00122727
0.00152389
0.000934802
0.0014313
0.000985572
0.000829458
0.00113118
0.000962531
0.000539869
0.00115625
0.00102351
0.00108355
0.00116757
0.000588095
0.000604686
0.000511372
0.000705087
0.000654498
0.00105816
0.000953774
0.000489754
0.000755727
0.000385461
0.000493104
0.00100963
0.000949269
0.0012262
0.00053261
0.000641205
0.000644144
0.000407826
0.000373803
0.000484759
0.000634759
0.000621376
0.000470454
0.000677916
0.000766229
0.000743312
0.000674501
0.000470702
0.000508772
0.000512818
0.000465677
0.000765756
0.00109069
0.000796942
0.000691341
0.000912923
0.000657231
0.000387984
0.00119608
0.000465869
0.000543049
0.000612427
0.000753737
0.000862555
0.0014176
0.000765084
0.000668572
0.00064574
0.00105476
0.000611161
0.000363561
0.000528371
0.00114391
0.000299057
0.000446153
0.00073462
0.000730553
0.000317392
0.000291898
0.000608777
0.000710969
0.00104675
0.000997088
0.000973692
0.000825285
0.000679649
0.000443706
0.000504537
0.000366527
0.000589145
0.000469732
0.000723769
0.000779269
0.000592591
0.00023968
0.000690386
0.000734134
0.000493216
0.000462897
0.000444525
0.000472333
0.000333779
0.000432412
0.000550153
0.000371359
0.000204928
0.000203375
0.00018765
0.000324614
0.000369543
0.000426991
0.000335
0.000287154
0.000356016
0.000135578
0.000192011
0.000295331
0.000273071
0.000382088
0.000521048
0.000347396
2.71566e-05
6.87679e-05
5.97558e-05
0.000209268
0.000204647
0.000218215
0.000161057
0.00016933
0.000244818
0.000173534
0.000442327
0.000105445
0.000183523
0.000200789
0.000183266
0.000324101
0.000151399
0.000144144
0.000622797
0.00045228
0.000417224
0.000588801
0.000492071
0.000493154
0.000494935
0.000517893
0.000673185
0.000453393
0.000518623
0.000620594
0.000687194
0.000594635
0.000574499
0.000589115
0.000599845
0.000878844
0.000603427
0.000528586
0.000513721
0.000556266
0.000680016
0.000787524
0.000636622
0.000607214
0.000513255
0.000692865
0.000706898
0.000867165
0.000698318
0.000569343
0.000327188
0.000730635
0.000900757
0.000790481
0.000751883
0.000593399
0.000529747
0.000690445
0.00141918
0.000668755
0.00127336
0.000442909
0.000497121
0.000816822
0.00132891
0.00138163
0.00173927
0.000862372
0.00130377
0.000752281
0.00135273
0.00150332
0.0018841
0.00138315
0.00100549
0.00160963
0.00110161
0.000873866
0.00128783
0.00195811
0.00181696
0.00155218
0.000976651
0.000852914
0.00115944
0.00107259
0.000924999
0.000950116
0.00109758
0.000957403
0.00110223
0.000643589
0.000505293
0.000464867
0.00088434
0.000653492
0.000639897
0.000739178
0.000776872
0.000967098
0.000815101
0.000444814
0.000288381
0.000700201
0.000369645
0.000773121
0.000668853
0.00155693
0.000453148
0.000655908
0.000339818
0.000605569
0.000429038
0.000549959
0.000433564
0.000871648
0.00103603
0.000469449
0.000809067
0.00109517
0.00122001
0.000783838
0.000508728
0.00035665
0.000625503
0.000469007
0.000616715
0.000921412
0.000901573
0.00117427
0.000796923
0.000483307
0.000285892
0.000876761
0.00154498
0.000422258
0.000542025
0.000542408
0.000780832
0.000714074
0.000506696
0.00103505
0.000788621
0.000510847
0.000619178
0.000643897
0.000556893
0.000435265
0.00121421
0.000373453
0.000999712
0.000856773
0.000695871
0.000805068
0.00047634
0.000266729
0.000528499
0.000741851
0.000876861
0.000913427
0.000877472
0.000726197
0.00100515
0.00047504
0.000456695
0.000445497
0.000377308
0.000600667
0.000452847
0.000581139
0.00072159
0.000555988
0.000401151
0.000535098
0.000627954
0.000488575
0.000419663
0.000283151
0.000278479
0.000278117
0.000437535
0.000563789
0.000463703
0.000384501
0.000194541
0.000188204
0.000183148
0.000335046
0.000433278
0.000446281
0.000337239
0.000239575
0.000298539
0.000247966
0.000188037
0.000276202
0.000252964
0.00039174
0.000461622
0.000385276
0.000289784
4.89365e-05
2.91552e-05
0.000170396
0.000203836
0.000426897
0.000245795
0.00013086
8.79836e-05
0.000251103
0.000157389
0.000190356
0.000198102
0.000245495
0.000270047
0.000205038
0.000408495
0.000176476
0.000164003
0.000325734
0.000730847
0.000524389
0.000576901
0.000487288
0.000551837
0.000579306
0.000411194
0.000524993
0.000663337
0.000647646
0.000494453
0.000375567
0.000825191
0.000668343
0.000615077
0.000419455
0.000577588
0.000707909
0.000734755
0.000626399
0.000561175
0.00044899
0.00105236
0.000947282
0.000745611
0.000669217
0.000478508
0.000382215
0.000944288
0.00074051
0.000838973
0.000688291
0.000648767
0.000517777
0.000418391
0.000959874
0.000908224
0.00101216
0.000583707
0.000604817
0.000639198
0.000650948
0.000746704
0.000662705
0.00101333
0.000944034
0.000591038
0.000599859
0.000567803
0.00101759
0.000587905
0.000818812
0.000712084
0.000450467
0.000487978
0.000723436
0.00122364
0.00143072
0.00158003
0.00145734
0.0012919
0.0010519
0.000877328
0.00147748
0.00161809
0.00186412
0.00132544
0.000949826
0.0010916
0.00138893
0.00120317
0.00101928
0.00109772
0.00222755
0.00153312
0.00119501
0.000945671
0.000909878
0.000756469
0.00162684
0.000972539
0.000963723
0.000633298
0.00106707
0.00163993
0.00123773
0.000952965
0.000726456
0.000940981
0.000586105
0.000760495
0.00119998
0.00065077
0.000930006
0.000326124
0.000861506
0.00111343
0.000897757
0.000838796
0.000578362
0.00139346
0.000453823
0.000752115
0.000735204
0.00211664
0.000676308
0.000425058
0.000620719
9.88054e-05
0.000313893
0.000151531
0.000318809
0.000866278
0.0013812
0.000996981
0.000704038
0.000794433
0.00163102
0.00130541
0.000571029
0.000506048
0.000485937
0.000631021
0.00053683
0.000992949
0.000769464
0.000914261
0.000976997
0.0010627
0.000640034
0.000470699
0.000501045
0.000834652
0.00180416
0.00057446
0.000385616
0.000397325
0.000591678
0.000678596
0.000598295
0.000732431
0.000885627
0.00078116
0.000436595
0.000458505
0.000911163
0.000576299
0.000493889
0.000741902
0.000579231
0.000570031
0.000846049
0.000620942
0.000796583
0.000651687
0.000452861
0.000459801
0.000404891
0.000834758
0.000804753
0.000718295
0.000733662
0.000606798
0.000329333
0.000324422
0.000548014
0.00082368
0.000523007
0.000544514
0.000439925
0.000444939
0.00061542
0.000588225
0.000484867
0.000481687
0.000397696
0.000526382
0.000332279
0.000279597
0.000210475
0.000291698
0.000528949
0.000628548
0.000480555
0.000574058
0.000393949
0.000177813
0.000174001
0.000174554
0.000280834
0.000429084
0.000286285
0.000359833
0.000189175
0.00021292
0.000422679
0.000168998
0.000259319
0.000249025
0.000423861
0.000562448
0.000325147
0.000216193
0.00025481
3.75052e-05
4.46245e-05
0.000161722
0.000255705
0.000198573
0.000289329
0.000217529
0.000173247
0.000260949
0.0003581
0.000315709
8.27336e-05
0.00020736
0.000194877
0.000153622
0.000228394
0.00020019
0.000146422
0.000166176
0.000254616
0.00130377
0.000752236
0.000766907
0.000561055
0.000683341
0.000601386
0.000370741
0.000468058
0.000479476
0.000475997
0.000512992
0.000490837
0.000577567
0.000609483
0.000514349
0.000603271
0.000642797
0.000681074
0.00067524
0.000647291
0.000690652
0.000510095
0.000573455
0.000618552
0.000677846
0.000801543
0.000663699
0.000580138
0.000700501
0.000889492
0.000943958
0.000719814
0.000714551
0.000697045
0.000325547
0.000346362
0.000886621
0.00138546
0.000842364
0.000481934
0.000514818
0.000509565
0.0004085
0.000515683
0.00102193
0.00105486
0.00089266
0.00060133
0.000613788
0.000707494
0.000515674
0.00106104
0.000522621
0.00137804
0.000748781
0.000699783
0.000484644
0.000646766
0.000579856
0.00102634
0.00100661
0.000503591
0.00152013
0.000546784
0.000312556
0.000613365
0.000791317
0.00134445
0.00152769
0.00120567
0.00148701
0.00113329
0.00143805
0.00104246
0.000852019
0.00132717
0.00189067
0.00159258
0.00114637
0.00122822
0.00119444
0.001101
0.00127946
0.00073469
0.00120202
0.00150908
0.00178888
0.00178809
0.00124439
0.000906066
0.000944279
0.000846107
0.000718399
0.000986316
0.000812877
0.000708071
0.00158893
0.00125994
0.00146488
0.00129321
0.00101977
0.000640174
0.000369644
0.00133222
0.000888383
0.00159945
0.00111493
0.000662492
0.000869634
0.00151597
0.00103744
0.000997416
0.000854075
0.000929304
0.000706183
0.000403701
0.00123778
0.000524845
0.000854768
0.00179754
0.00149981
0.000602007
0.000561963
0.000603694
0.000627949
0.000552647
0.000747527
0.000383155
0.000510333
0.00121448
0.00075995
0.000509281
0.000588571
0.00158049
0.0013105
0.00130554
0.000500616
0.000647316
0.000284423
0.000323758
0.000669893
0.000871783
0.000758096
0.000870361
0.00109564
0.000904157
0.00072465
0.0006365
0.000693775
0.000760784
0.00163307
0.00156351
0.000895278
0.000639198
0.000364313
0.00043413
0.000751758
0.000588022
0.000687485
0.000620783
0.000500914
0.000475922
0.000552152
0.000465874
0.000485003
0.000687583
0.000871383
0.00065562
0.000815909
0.000425589
0.000516495
0.000667903
0.000777007
0.000784256
0.000575736
0.000633837
0.000829358
0.000894934
0.000581523
0.000645541
0.00056435
0.000221437
0.000388039
0.00044754
0.000737051
0.000910105
0.000854397
0.00057061
0.000527926
0.000371784
0.000351883
0.000502728
0.000668838
0.000200122
0.000572079
0.000382284
0.000497957
0.000281676
0.000240709
0.000211332
0.000305373
0.00057062
0.000594709
0.000654189
0.000510897
0.000413254
0.000379959
0.000163798
0.000170301
0.000166211
0.000223462
0.000397125
0.000334055
0.000376678
0.00020062
0.000265643
0.000319488
0.000302763
0.000198976
0.000252557
0.000401644
0.000511465
0.000304139
0.000214399
0.000174691
0.000417019
8.26842e-05
8.16618e-05
8.80798e-05
0.000295101
0.000199488
0.000307037
0.000231703
0.000225123
0.000242158
0.000193635
0.000335192
0.000181532
0.000213949
0.00024352
0.000147694
0.000450999
0.00016572
0.000147043
0.000180063
0.000161835
0.000155475
0.000999463
0.00130191
0.00123951
0.0008104
0.00090144
0.000971711
0.00061623
0.000545724
0.000741834
0.000660555
0.000840417
0.000442649
0.000574595
0.00057429
0.000546924
0.000714911
0.000632793
0.000685002
0.000550087
0.000482975
0.000488981
0.000762184
0.000294384
0.000583247
0.00053789
0.000652021
0.000588564
0.000482424
0.000580296
0.000340585
0.000594676
0.00081139
0.000728866
0.000758722
0.000544518
0.00059865
0.00079471
0.000546125
0.000933867
0.000752634
0.000698747
0.000691131
0.000428002
0.000418451
0.000374393
0.000588202
0.00061011
0.000592205
0.000645117
0.000496371
0.000400272
0.000227722
0.000825621
0.000776969
0.000845039
0.000688609
0.000592624
0.000560807
0.00061128
0.000583157
0.000752822
0.00118339
0.00105401
0.000976992
0.000998359
0.000867962
0.0007789
0.000577619
0.000461303
0.000652044
0.00108953
0.00112356
0.00125013
0.000772888
0.00091814
0.000342725
0.000436624
0.000809071
0.000858363
0.00109115
0.00126727
0.00144242
0.0014066
0.00109227
0.000955888
0.00131712
0.000810368
0.000750827
0.000898111
0.00147889
0.00157616
0.00111133
0.00129397
0.0011235
0.00116532
0.00260663
0.0011395
0.000936219
0.0010624
0.00117879
0.00144866
0.00173883
0.00143232
0.00097442
0.00102039
0.00091175
0.000799634
0.00209401
0.00148315
0.000831347
0.00069097
0.00104896
0.00145626
0.00150127
0.00162628
0.0010448
0.000785837
0.000762422
0.000304323
0.000578164
0.000643482
0.00182105
0.0016651
0.000671849
0.000732443
0.000921817
0.00123228
0.000843672
0.000897934
0.000654911
0.0005509
0.000531187
0.000623046
0.000572421
0.0005052
0.00133155
0.00189574
0.000629004
0.000438018
0.000378392
0.000425917
0.000687673
0.000536132
0.000444499
0.00105698
0.000432803
0.000837242
0.000709149
0.000838305
0.000663118
0.00109615
0.0015985
0.00094128
0.000912004
0.000393655
0.00080955
0.00052536
0.000897618
0.000570125
0.000638774
0.00114312
0.000912665
0.00130252
0.000888269
0.0007533
0.000664574
0.000559999
0.00105379
0.000660517
0.00106588
0.000645729
0.000813217
0.000676482
0.00042035
0.00059119
0.000581112
0.000845023
0.000596656
0.000413912
0.000122191
0.000350961
0.000546346
0.00125031
0.000402805
0.000753023
0.000607198
0.0004667
0.000727346
0.000535323
0.000285107
0.000495661
0.000506099
0.000614414
0.00076036
0.000714497
0.000772877
0.000756193
0.000949716
0.000368066
0.000769231
0.000482958
0.000342467
0.000405095
0.000318599
0.000945498
0.000907561
0.000723391
0.000640456
0.000681104
0.000558499
0.000321136
0.000262312
0.000228874
0.000481341
0.000352442
0.000545835
0.000419666
0.000768428
0.00022264
0.000259056
0.000173726
0.000320624
0.000477994
0.000647069
0.000698321
0.000460114
0.000474635
0.000476954
0.000346501
0.000149051
0.000183986
0.000187297
0.000206806
0.000368239
0.000362331
0.000305646
0.000184443
0.000168109
0.000297028
0.000269856
0.000174491
0.000271201
0.000444851
0.000426445
0.000351035
0.00021482
0.000286602
0.000390558
0.000426839
0.000101359
3.61086e-05
0.000166122
0.00026659
0.000207326
0.000333051
0.000149159
0.000187554
0.000172469
0.000178323
0.000258323
0.000163992
0.000224761
0.000224522
0.000115346
0.000286937
0.000136043
0.000150794
0.000222188
0.000190681
0.000136587
0.000156767
8.97588e-05
0.00235219
0.00117997
0.000838348
0.00125828
0.00119137
0.00127878
0.00082669
0.000853941
0.000988028
0.000930881
0.000682965
0.000669557
0.000724056
0.000692923
0.000857082
0.000444435
0.000610301
0.000546378
0.000586191
0.000698341
0.000735985
0.00059902
0.000549716
0.00076386
0.000621868
0.000706275
0.000599087
0.000506077
0.000619663
0.000686831
0.000863214
0.000798499
0.000826869
0.000648167
0.000532281
0.000460801
0.000514488
0.000582439
0.000843504
0.000504898
0.000691977
0.000610077
0.000707318
0.000351277
0.000481332
0.000977697
0.000522765
0.000443966
0.000406363
0.000536143
0.000802679
0.000672224
0.000757684
0.000554043
0.000530763
0.000436024
0.000649596
0.000608178
0.000510809
0.000635381
0.000564574
0.00105472
0.000431415
0.000945539
0.000830441
0.000614688
0.00069569
0.000702395
0.000593079
0.000530902
0.000605488
0.00056116
0.000632469
0.000772279
0.00120918
0.00109623
0.00084617
0.000777255
0.000905353
0.000476501
0.000332136
0.000799417
0.00112331
0.000962489
0.00122528
0.00153224
0.00101852
0.000939388
0.000708475
0.000520704
0.000694481
0.00063357
0.00128074
0.00134506
0.00139404
0.00176617
0.00153299
0.00272034
0.00110299
0.00122324
0.000714598
0.000698081
0.000905871
0.00129858
0.00148174
0.00142047
0.00120804
0.00126134
0.00142923
0.000949537
0.00192023
0.00110365
0.00088388
0.0012719
0.00135371
0.00131184
0.00142462
0.00143215
0.00120956
0.00106693
0.000729287
0.000878359
0.000684923
0.00193394
0.00177096
0.000823606
0.000928824
0.00136234
0.00124037
0.00112845
0.00111742
0.00155201
0.000836333
0.000756335
0.000592236
0.0006589
0.000528753
0.00154185
0.00200113
0.00113489
0.000682789
0.000897649
0.00105602
0.00102739
0.000835545
0.000769317
0.00137882
0.000495919
0.000538661
0.00113673
0.000687009
0.000974685
0.000932133
0.00202806
0.00171381
0.00109133
0.000304102
0.000381698
0.000908751
0.000525223
0.00039412
0.000879491
0.000728718
0.000666925
0.000599326
0.00129248
0.000513019
0.000393233
0.000928781
0.00127487
0.0015664
0.00176913
0.00108964
0.000424443
0.000502206
0.000660173
0.000558388
0.000699559
0.00101375
0.000928237
0.00111403
0.000935376
0.000873685
0.000357658
0.000361561
0.00083128
0.000679881
0.00086272
0.00123056
0.000696323
0.00108197
0.000464592
0.000311167
0.00027998
0.000406716
0.000396139
0.000963032
0.000553482
0.000454483
0.000319516
0.000488609
0.000526704
0.000497331
0.000242413
0.000317051
0.000520176
0.000863196
0.000738172
0.000512755
0.000565535
0.0003205
0.000517747
0.000624479
0.00054509
0.000848065
0.000943833
0.000561989
0.000300582
0.000854106
0.000648085
0.000710732
0.000587184
0.000507583
0.000310595
0.000565092
0.000979488
0.000756737
0.000682671
0.000680586
0.000605641
0.000749109
0.000516777
0.000243399
0.000265549
0.000190169
0.000219408
0.000440353
0.000692573
0.000472191
0.000738225
0.000348725
0.000301556
0.000253015
0.000297793
0.000414291
0.000614236
0.000603297
0.000513706
0.000400063
0.000312989
0.000601976
0.000327672
0.000141646
0.000179358
0.00022526
0.000202299
0.000356235
0.000419467
0.000277777
0.00024317
0.000225864
0.000317255
0.000260325
0.00020594
0.000344171
0.000412494
0.000384836
0.000252816
0.000157062
0.000353354
0.000371249
0.000330593
0.000364021
0.000272373
9.49034e-05
0.000109909
0.000164289
0.000253326
0.00021062
0.000376668
0.000174192
0.00021988
0.000138831
0.000155306
0.000243651
9.57112e-05
0.000226219
0.000202378
0.000129655
0.000165626
0.000122861
0.000220755
0.000152903
0.000136523
0.00016945
0.000176121
3.58753e-05
6.65195e-05
0.00242914
0.00243598
0.00114824
0.00106741
0.00103454
0.00123046
0.00106049
0.00124391
0.00109677
0.000802159
0.000796229
0.000903859
0.000889474
0.000896691
0.000618322
0.00061798
0.000652034
0.000769939
0.000758743
0.000832291
0.000498728
0.000512142
0.000627494
0.000895403
0.000737254
0.00077664
0.000710726
0.000574287
0.000764367
0.000764941
0.00071612
0.000748045
0.000652737
0.000543566
0.000450614
0.00047134
0.000805679
0.000728188
0.000527166
0.000577439
0.000680484
0.000589197
0.000455848
0.000322888
0.000335502
0.000579893
0.000728886
0.000617824
0.000520086
0.000581783
0.00061756
0.000749179
0.000514488
0.000766201
0.000469477
0.00064743
0.000784833
0.000823274
0.000502493
0.000516077
0.000609605
0.000778072
0.00067974
0.000667809
0.000556304
0.000637855
0.000774001
0.00067445
0.000554391
0.000451119
0.000588982
0.000690569
0.000912787
0.000755202
0.000947715
0.000927354
0.000743131
0.000796232
0.000666115
0.000561796
0.000528484
0.000525555
0.000600719