/*--------------------------------*- C++ -*----------------------------------*\
  =========                 |
  \\      /  F ield         | OpenFOAM: The Open Source CFD Toolbox
   \\    /   O peration     | Website:  https://openfoam.org
    \\  /    A nd           | Version:  7
     \\/     M anipulation  |
\*---------------------------------------------------------------------------*/
FoamFile
{
    version     2.0;
    format      ascii;
    class       volScalarField;
    location    "8";
    object      p;
}
// * * * * * * * * * * * * * * * * * * * * * * * * * * * * * * * * * * * * * //

dimensions      [0 2 -2 0 0 0 0];

internalField   nonuniform List<scalar> 
18630
(
-66.2881
-65.9115
-66.3106
-66.1458
-65.1685
-65.9659
-65.7234
-66.3352
-66.1684
-65.9618
-63.5814
-65.2537
-65.4213
-66.023
-65.8327
-65.7916
-66.3533
-66.1917
-65.992
-65.9607
-61.9827
-63.674
-64.3397
-65.382
-65.5655
-65.6817
-66.0866
-65.9552
-65.8833
-66.0297
-66.3699
-66.2168
-66.021
-66.0166
-66.169
-59.86
-62.2153
-62.3219
-63.8651
-64.7118
-65.1323
-65.5181
-65.7478
-65.9049
-65.967
-66.1598
-66.057
-65.9644
-66.0925
-65.8728
-66.3907
-66.2419
-66.0507
-66.0715
-66.2372
-66.1634
-58.0309
-59.8923
-59.7744
-62.4338
-62.5955
-62.4863
-64.1791
-64.6987
-65.3934
-65.2263
-65.6776
-65.9116
-66.0728
-66.045
-65.5506
-66.2366
-66.1552
-66.0361
-66.145
-65.9837
-65.7055
-66.411
-66.2661
-66.0833
-66.1296
-66.3021
-66.2577
-65.3599
-56.723
-58.6553
-58.1243
-60.4625
-60.0502
-60.5583
-62.3806
-62.8046
-62.5831
-62.2247
-64.3608
-64.9723
-65.611
-65.2285
-64.3408
-65.8422
-66.0865
-66.186
-66.1113
-65.6155
-64.9621
-66.3111
-66.2507
-66.107
-66.1739
-66.0938
-65.8469
-64.9277
-66.4321
-66.2899
-66.1195
-66.1847
-66.3683
-66.3321
-65.481
-64.0946
-55.3937
-56.7414
-56.6032
-58.8947
-58.1296
-58.9562
-60.7433
-60.2516
-60.8428
-61.2246
-62.5326
-62.9492
-62.6219
-62.3666
-62.4471
-64.6365
-65.424
-65.7419
-65.1717
-64.4199
-63.873
-66.012
-66.2602
-66.2565
-66.1626
-65.6996
-65.1202
-64.4762
-66.3925
-66.3367
-66.1749
-66.2237
-66.2042
-66.0028
-65.1045
-64.0787
-66.4534
-66.3134
-66.1551
-66.2237
-66.4439
-66.4142
-65.6073
-64.167
-63.2852
-54.5628
-55.387
-55.5144
-56.8749
-56.9872
-58.039
-58.4708
-58.7312
-59.2065
-60.0504
-60.5057
-60.7908
-61.0698
-61.4328
-61.442
-62.8365
-62.9965
-62.7188
-62.5561
-62.6523
-62.5906
-65.0933
-65.7487
-65.8165
-65.1083
-64.5335
-64.0346
-63.5599
-66.1935
-66.4361
-66.3334
-66.2335
-65.8126
-65.3229
-64.7316
-64.0461
-66.4771
-66.4163
-66.2408
-66.2873
-66.3183
-66.15
-65.3002
-64.2384
-63.4124
-66.4747
-66.3362
-66.1884
-66.255
-66.5175
-66.5078
-65.7133
-64.2272
-63.325
-62.7662
-53.4248
-54.409
-55.6072
-55.4186
-55.9678
-57.264
-57.0326
-57.3311
-58.2363
-59.6752
-58.687
-58.9829
-59.5655
-60.1316
-60.5893
-60.7239
-60.9873
-61.3389
-61.6321
-61.643
-61.3405
-63.0519
-63.1931
-62.8647
-62.7647
-62.8752
-62.8279
-62.5792
-65.2615
-65.8881
-65.9111
-65.1026
-64.7115
-64.2546
-63.8755
-63.6574
-66.3865
-66.5606
-66.4018
-66.29
-65.9567
-65.5871
-64.9962
-64.3231
-63.7621
-66.5559
-66.4872
-66.3029
-66.3633
-66.408
-66.3146
-65.4955
-64.3952
-63.5434
-63.1509
-66.4962
-66.3579
-66.2202
-66.294
-66.5651
-66.6119
-65.8125
-64.2848
-63.3494
-62.8546
-62.0509
-52.66
-53.6464
-54.6211
-54.4253
-55.0867
-57.3216
-55.5859
-56.342
-57.7043
-59.1981
-57.2468
-57.7193
-58.8298
-59.9445
-59.8196
-59.0297
-59.0504
-60.0111
-60.4218
-60.812
-60.7295
-61.0183
-61.1205
-61.5353
-61.7443
-61.8934
-61.6322
-61.2973
-63.2324
-63.2512
-63.0604
-62.9923
-63.1051
-63.0764
-62.8356
-62.6269
-65.4839
-66.0408
-66.002
-65.1739
-64.9015
-64.4879
-64.2464
-64.1006
-63.1881
-66.6345
-66.7155
-66.4509
-66.3313
-66.12
-65.8613
-65.2816
-64.6221
-63.9835
-63.8026
-66.6343
-66.5561
-66.359
-66.4313
-66.4979
-66.5086
-65.6868
-64.5333
-63.6767
-63.2954
-62.6809
-66.5179
-66.3783
-66.2509
-66.3447
-66.6113
-66.7207
-65.9396
-64.3425
-63.4182
-62.9481
-62.0859
-61.4657
-51.6045
-52.2574
-52.8836
-52.7869
-53.7145
-55.0245
-56.8612
-54.497
-55.6148
-57.8719
-60.7132
-55.821
-56.8465
-58.4809
-59.6021
-59.6773
-57.5252
-57.9652
-59.2157
-60.0151
-60.1095
-59.7822
-59.2385
-59.4095
-60.3257
-60.8416
-61.2175
-61.019
-60.4657
-61.3031
-61.3875
-61.766
-61.9356
-61.8846
-61.6286
-61.5145
-61.5009
-63.3278
-63.3629
-63.2994
-63.1924
-63.3291
-63.3717
-63.0996
-62.8282
-62.4461
-65.797
-66.1333
-66.058
-65.2266
-65.0695
-64.7803
-64.7147
-64.5652
-63.6394
-63.3129
-66.8961
-66.8124
-66.5169
-66.3702
-66.2109
-65.9836
-65.558
-64.9413
-64.2252
-64.0369
-63.433
-66.6946
-66.6182
-66.4116
-66.4797
-66.5991
-66.6917
-65.8786
-64.727
-63.801
-63.4382
-62.7931
-62.1491
-66.5385
-66.396
-66.2807
-66.3897
-66.689
-66.8118
-66.0865
-64.4411
-63.4867
-63.0398
-62.1022
-61.5412
-60.8115
-51.3298
-51.8197
-52.1139
-52.2401
-52.3655
-53.0863
-54.512
-55.6409
-53.7045
-54.9763
-56.856
-59.7277
-54.6513
-56.1407
-58.5898
-60.6876
-60.35
-56.0546
-57.2674
-58.9823
-59.8557
-59.5131
-58.5859
-57.7389
-58.3885
-59.5133
-60.2556
-60.3191
-60.0086
-59.5158
-59.4835
-59.7674
-60.6589
-61.0843
-61.3942
-61.0123
-60.6515
-60.3535
-61.4502
-61.656
-62.0053
-62.1161
-62.1058
-62.1253
-61.7772
-61.6443
-61.4113
-63.4534
-63.487
-63.5044
-63.4295
-63.6062
-63.5561
-63.4482
-63.1007
-62.7455
-62.7351
-66.1218
-66.1677
-66.1303
-65.2768
-65.2955
-65.142
-65.1565
-65.111
-64.1902
-63.8576
-63.4069
-67.1263
-66.8476
-66.5737
-66.3733
-66.271
-66.1218
-65.8819
-65.2371
-64.4883
-64.2848
-63.72
-63.0131
-66.7796
-66.675
-66.4644
-66.5287
-66.6837
-66.8811
-66.0768
-64.9435
-63.9138
-63.5742
-62.895
-62.3149
-61.5313
-66.5575
-66.4113
-66.3104
-66.4233
-66.7613
-66.8883
-66.2011
-64.5572
-63.5581
-63.092
-62.1207
-61.579
-60.8455
-59.9618
-50.7253
-51.0285
-51.3661
-51.4153
-51.9786
-52.0218
-52.5808
-52.4394
-53.0259
-54.073
-53.1698
-54.1117
-55.5574
-56.5891
-53.839
-55.2995
-57.2178
-59.7735
-60.4719
-55.0352
-56.7702
-59.373
-60.8958
-60.0286
-58.4942
-56.3273
-57.5518
-59.1985
-59.9742
-59.5967
-58.5345
-58.4255
-58.0402
-58.7526
-59.8903
-60.385
-60.5509
-60.226
-59.6672
-59.4676
-59.866
-60.1203
-60.988
-61.3626
-61.278
-61.0109
-60.8146
-60.5877
-60.3139
-61.6566
-61.8523
-62.2205
-62.3542
-62.4249
-62.3763
-61.9649
-61.6725
-61.655
-61.3407
-63.6304
-63.6115
-63.7692
-63.6366
-63.8533
-63.8794
-63.7237
-63.7931
-63.6845
-63.0586
-63.0452
-66.2971
-66.1893
-66.1395
-65.4003
-65.5703
-65.4857
-65.5549
-65.5369
-64.6223
-64.3556
-63.8782
-63.2264
-67.2784
-66.8808
-66.6176
-66.3821
-66.3766
-66.4072
-66.2697
-65.4739
-64.7665
-64.539
-64.0153
-63.1989
-62.3624
-66.8739
-66.7323
-66.5168
-66.5798
-66.7739
-67.0806
-66.2593
-65.1275
-64.0241
-63.701
-62.9882
-62.4854
-61.6123
-60.9019
-66.5758
-66.4265
-66.3397
-66.4546
-66.8027
-66.9639
-66.2961
-64.6686
-63.6407
-63.1341
-62.1175
-61.6032
-60.8745
-59.9855
-59.1547
-50.5867
-50.6168
-50.8578
-51.1212
-50.9716
-51.4213
-51.5132
-51.8515
-51.9388
-52.0709
-52.6006
-53.4372
-52.5767
-53.2178
-54.1977
-54.8435
-53.3502
-54.1403
-55.5429
-56.8392
-57.3808
-53.9805
-55.63
-57.976
-59.8373
-59.9153
-57.8991
-55.3818
-57.3748
-59.8145
-60.8148
-59.6664
-58.1321
-57.3157
-56.6774
-57.9238
-59.696
-60.0796
-59.8206
-58.9658
-58.1831
-57.845
-58.4642
-59.105
-60.2642
-60.9003
-60.4508
-59.8997
-59.849
-59.617
-59.3178
-60.091
-60.3944
-61.2292
-61.2614
-61.463
-61.3727
-61.0688
-60.8085
-60.3947
-60.2686
-61.8654
-62.1327
-62.4039
-62.5847
-62.6959
-62.1547
-62.0739
-62.0012
-62.1261
-61.8944
-62.1942
-63.8005
-63.8073
-63.9736
-63.8489
-64.1465
-64.2331
-64.1822
-64.2006
-64.2028
-63.4963
-63.3875
-63.1798
-66.3906
-66.2609
-66.1928
-65.5328
-65.8461
-65.838
-65.9129
-66.0041
-65.1523
-64.9636
-64.463
-63.5926
-62.8171
-67.3605
-66.9229
-66.6813
-66.4107
-66.5174
-66.6395
-66.6191
-65.7868
-65.0516
-64.7948
-64.3013
-63.3961
-62.5553
-62.0074
-66.9387
-66.7892
-66.5619
-66.6339
-66.8619
-67.2688
-66.395
-65.2917
-64.1302
-63.8158
-63.0959
-62.6273
-61.695
-60.9492
-59.8823
-66.5937
-66.4416
-66.3674
-66.4865
-66.839
-67.0461
-66.3808
-64.7709
-63.7345
-63.1815
-62.1211
-61.6328
-60.9013
-60.0116
-59.1605
-57.9941
-50.3646
-50.4915
-50.5632
-50.8012
-50.6551
-50.8117
-50.9583
-51.0862
-51.2257
-51.5119
-51.5634
-51.7534
-52.4367
-52.0769
-52.4701
-52.9943
-53.4984
-53.6239
-52.7012
-53.0448
-54.1247
-54.8839
-55.2596
-53.4329
-54.5919
-55.9128
-56.6685
-57.2142
-56.2221
-54.2
-56.2389
-58.2449
-59.6465
-59.4865
-57.4597
-55.9868
-56.1932
-57.867
-60.2228
-60.5271
-59.4503
-57.8204
-57.1242
-56.6828
-57.0442
-58.4723
-59.9546
-60.255
-59.8099
-58.9809
-58.3245
-58.2271
-57.9342
-58.6137
-59.4925
-60.4545
-61.1467
-60.496
-60.0365
-59.9398
-59.7443
-59.3045
-59.3611
-60.4367
-60.807
-61.4989
-61.4197
-61.7872
-61.6863
-61.3816
-61.0015
-60.7022
-60.6275
-60.9954
-62.1283
-62.2864
-62.6747
-62.7526
-62.922
-62.4476
-62.2793
-62.4633
-62.3877
-62.3993
-62.4891
-62.5705
-63.9246
-64.067
-64.2302
-64.179
-64.4184
-64.6059
-64.4539
-64.4936
-64.2675
-63.7589
-63.7865
-63.5445
-63.0524
-66.4456
-66.3414
-66.2911
-65.7419
-66.0827
-66.1199
-66.3787
-66.4648
-65.6876
-65.5546
-65.0182
-64.0105
-63.0439
-62.8582
-67.3438
-66.9894
-66.7472
-66.4647
-66.6509
-66.8139
-66.9746
-66.117
-65.3245
-65.0344
-64.548
-63.6939
-62.768
-62.1256
-61.15
-67.0013
-66.8481
-66.6005
-66.6916
-66.9473
-67.4362
-66.6271
-65.4423
-64.2326
-63.8916
-63.2064
-62.7403
-61.776
-60.9921
-59.9356
-58.6145
-66.6127
-66.4557
-66.395
-66.5156
-66.8824
-67.1154
-66.4457
-64.8813
-63.8392
-63.2239
-62.1343
-61.6718
-60.9283
-60.0304
-59.1658
-57.984
-57.1356
-50.2732
-50.3967
-50.3875
-50.4534
-50.5958
-50.6261
-50.872
-50.7761
-50.6849
-51.1251
-51.1031
-50.9812
-51.1553
-51.7381
-51.6518
-51.673
-52.0954
-52.5024
-52.5734
-52.2959
-52.5324
-53.1188
-53.4428
-53.607
-53.6334
-52.9152
-53.4271
-54.2499
-54.7906
-55.1008
-54.8145
-53.9834
-54.8878
-55.7923
-56.9303
-57.0786
-55.9754
-54.9459
-54.9233
-56.6553
-58.3319
-59.4743
-58.8864
-57.0906
-55.6128
-55.4441
-56.0776
-58.2975
-60.287
-60.443
-59.114
-58.0083
-57.0242
-56.7687
-56.3908
-57.63
-58.9694
-60.26
-60.5508
-59.7331
-58.9803
-58.3838
-58.2372
-58.0655
-58.0941
-59.018
-59.8008
-60.5871
-60.5445
-60.5363
-60.1564
-60.0854
-60.0108
-59.4153
-59.2866
-59.4556
-60.7741
-61.2436
-61.7814
-61.8324
-62.0795
-61.9403
-61.5259
-61.4894
-61.0823
-61.0307
-61.6041
-61.808
-62.379
-62.5215
-62.9013
-62.8301
-63.2122
-62.7208
-62.6496
-62.3506
-62.5664
-62.6296
-62.9319
-62.8661
-62.6535
-64.0562
-64.2831
-64.5069
-64.5884
-64.7427
-64.8708
-64.8371
-65.1426
-64.8656
-64.2591
-64.1767
-64.0174
-63.3222
-63.2492
-66.5066
-66.5036
-66.4282
-66.0183
-66.2382
-66.3907
-66.7572
-66.9084
-66.1872
-66.0061
-65.4591
-64.4889
-63.2934
-63.0364
-62.5653
-67.3178
-67.0616
-66.8174
-66.5593
-66.7735
-66.9798
-67.2795
-66.4287
-65.6003
-65.2607
-64.7608
-63.9932
-62.9943
-62.2349
-61.2906
-59.9585
-67.055
-66.9025
-66.641
-66.7514
-67.0317
-67.5917
-66.9166
-65.5867
-64.3401
-63.9722
-63.2864
-62.8369
-61.8728
-61.0301
-59.9833
-58.6542
-57.5315
-66.6312
-66.4688
-66.4206
-66.5433
-66.9181
-67.1752
-66.5183
-65.0061
-63.9028
-63.2453
-62.1328
-61.7069
-60.9504
-60.0352
-59.172
-57.9673
-57.1373
-56.5462
-50.1803
-50.2612
-50.2902
-50.2498
-50.414
-50.4542
-50.531
-50.4924
-50.5797
-50.7969
-50.7403
-50.7485
-50.8711
-51.1886
-51.2472
-51.034
-51.2268
-51.2585
-51.8242
-51.8249
-51.805
-51.7427
-52.0555
-52.3989
-52.5
-52.6098
-52.4388
-52.4941
-52.9673
-53.3419
-53.5914
-53.6086
-53.4445
-53.061
-53.3739
-54.57
-54.7406
-54.9689
-54.5356
-54.1419
-53.6649
-55.0235
-55.6678
-56.8494
-56.7218
-55.7729
-54.7261
-54.3037
-55.2799
-56.9105
-58.3588
-59.3618
-58.4916
-56.9737
-55.4689
-55.3618
-55.2753
-56.453
-58.9178
-60.3891
-60.4328
-58.7123
-57.8405
-57.0788
-56.87
-56.6173
-56.4796
-58.1943
-59.3941
-60.2436
-60.4709
-59.7875
-59.0219
-58.5225
-58.1868
-58.0538
-58.2025
-58.5903
-59.4632
-60.0857
-60.6696
-60.6388
-60.5389
-60.2953
-60.3961
-60.2802
-59.9708
-59.5625
-59.9295
-60.5414
-61.1347
-61.5262
-62.2504
-62.0785
-62.335
-62.1733
-61.976
-61.5266
-61.0318
-61.3294
-61.6439
-61.9949
-61.783
-62.6263
-62.779
-63.037
-63.1267
-63.46
-63.0982
-62.5951
-62.5263
-62.6338
-63.2656
-63.433
-63.2106
-62.9791
-63.3814
-64.3291
-64.5257
-64.7682
-65.08
-65.0345
-65.0362
-65.3346
-65.7699
-65.6996
-64.956
-64.7014
-64.4689
-63.61
-63.5197
-63.753
-66.4755
-66.7337
-66.6211
-66.2816
-66.4325
-66.7193
-67.1546
-67.3101
-66.686
-66.4404
-65.8584
-64.9733
-63.5519
-63.2212
-62.862
-61.8374
-67.3456
-67.1296
-66.8917
-66.6683
-66.8582
-67.1171
-67.5071
-66.7103
-65.8452
-65.4906
-64.9495
-64.2342
-63.2182
-62.3291
-61.429
-60.0335
-58.2231
-67.0978
-66.9515
-66.6865
-66.8106
-67.1163
-67.7357
-67.191
-65.7145
-64.4435
-64.0706
-63.3433
-62.9214
-61.9751
-61.0585
-60.022
-58.6952
-57.5203
-56.6739
-66.645
-66.4802
-66.4425
-66.5694
-66.9589
-67.2297
-66.5727
-65.1373
-63.9293
-63.2496
-62.1278
-61.7293
-60.967
-60.0363
-59.173
-57.9702
-57.1326
-56.511
-56.2384
-50.0829
-50.1454
-50.1503
-50.246
-50.2589
-50.2687
-50.2835
-50.3214
-50.4222
-50.5088
-50.4851
-50.603
-50.5412
-50.7933
-50.9162
-50.7068
-50.77
-50.9199
-51.1286
-51.1867
-51.3691
-51.1085
-51.2297
-51.3338
-51.8204
-51.7768
-51.8437
-51.7358
-51.796
-51.9599
-52.3597
-52.5009
-52.5747
-52.5473
-52.4759
-52.4853
-53.306
-53.2237
-53.4994
-53.4595
-53.4208
-53.0065
-53.0021
-53.7639
-54.169
-54.5722
-54.7987
-54.4937
-54.0276
-53.4997
-54.135
-55.2611
-55.9163
-56.7975
-56.357
-55.5122
-54.7365
-54.3139
-54.0437
-55.2047
-56.9664
-58.4879
-59.1668
-58.0947
-56.6134
-55.5257
-55.4349
-55.3635
-55.3106
-57.3405
-59.1804
-60.658
-60.4723
-58.4256
-57.5578
-57.1864
-57.0144
-56.6441
-56.5672
-56.9415
-58.5639
-59.8367
-60.1973
-60.1369
-59.668
-59.1028
-58.7422
-58.3029
-57.9939
-58.2317
-58.472
-58.9679
-59.8209
-60.4815
-61.3022
-61.0094
-60.6824
-60.5528
-60.4243
-60.3742
-60.0669
-60.0993
-60.1536
-60.9556
-60.8001
-61.4658
-61.784
-62.1117
-62.1689
-62.6357
-62.6319
-62.2677
-61.7335
-61.2804
-61.4107
-61.9903
-62.1789
-61.9291
-63.1242
-62.8299
-63.0665
-63.1459
-63.3418
-63.7242
-63.414
-62.9157
-62.9056
-63.1157
-63.6777
-63.9064
-63.6124
-63.3456
-63.7508
-64.4909
-64.5522
-64.7118
-65.0672
-65.4956
-65.2749
-65.2092
-65.6365
-66.4014
-66.3504
-65.9
-65.4296
-64.9339
-63.9033
-63.8005
-64.1988
-63.6653
-66.5093
-66.901
-66.8223
-66.599
-66.691
-67.019
-67.5239
-67.778
-67.2204
-66.8808
-66.2373
-65.4414
-63.834
-63.376
-63.2254
-62.0432
-59.2436
-67.3658
-67.1927
-66.9601
-66.7643
-66.9123
-67.2166
-67.7306
-66.968
-66.01
-65.695
-65.1023
-64.4242
-63.4219
-62.4075
-61.5674
-60.0873
-58.2224
-56.962
-67.1325
-66.9976
-66.742
-66.8673
-67.1962
-67.8782
-67.4108
-65.826
-64.5395
-64.143
-63.3838
-62.9865
-62.0583
-61.0774
-60.0516
-58.7228
-57.5097
-56.6609
-56.3372
-66.658
-66.4906
-66.4642
-66.592
-67.0046
-67.2693
-66.6373
-65.239
-63.9505
-63.2536
-62.1264
-61.7324
-60.9782
-60.0348
-59.1698
-57.9885
-57.1191
-56.48
-56.2152
-56.3026
-49.925
-50.0511
-50.0431
-50.0745
-50.0492
-50.0979
-50.2791
-50.2468
-50.2807
-50.3102
-50.2636
-50.3511
-50.3305
-50.4963
-50.5871
-50.4711
-50.4738
-50.7236
-50.8316
-50.9044
-50.8997
-50.7868
-50.8585
-50.9345
-51.1899
-51.126
-51.2411
-51.3678
-51.0842
-51.2126
-51.392
-51.8658
-51.8563
-51.8231
-51.9583
-51.8305
-51.9722
-51.8505
-52.3234
-52.3593
-52.4608
-52.3923
-52.4478
-52.5366
-52.6259
-53.3027
-53.2731
-53.5017
-53.3943
-53.1975
-52.9894
-52.832
-53.1361
-53.6492
-54.3673
-54.6601
-54.6398
-54.3728
-53.9852
-53.5133
-53.5263
-54.3726
-55.303
-56.2006
-56.4885
-56.0813
-55.4406
-54.7175
-54.344
-54.246
-54.3546
-55.7222
-56.9321
-58.3072
-58.9676
-57.8307
-56.4813
-55.7289
-55.5
-55.5289
-55.2701
-55.509
-57.8587
-59.7958
-60.413
-60.3189
-58.4486
-57.4619
-57.2498
-57.0621
-56.762
-56.7256
-56.8119
-57.1567
-59.1484
-60.0802
-59.8703
-60.0313
-59.4543
-58.98
-58.7631
-58.8472
-58.6797
-58.3271
-58.7217
-59.3686
-59.4196
-60.2148
-60.8263
-61.4249
-61.1363
-61.0561
-60.9503
-60.6416
-60.4062
-60.3166
-60.2941
-60.5093
-61.0988
-61.0105
-61.4486
-61.7087
-62.0543
-62.2133
-62.5091
-62.8531
-62.5263
-62.5425
-62.0292
-61.3437
-61.7892
-62.3463
-62.7469
-62.411
-63.5678
-64.8671
-63.0466
-63.3694
-63.353
-63.6031
-63.9575
-63.6392
-63.1343
-63.1748
-63.5932
-63.8688
-64.4037
-64.0244
-63.7184
-64.1425
-65.1144
-65.5234
-64.6984
-64.8752
-65.4165
-65.8262
-65.5649
-65.4614
-66.0285
-67.0653
-67.1591
-66.8031
-66.0951
-65.433
-64.2106
-64.0234
-64.5204
-64.085
-61.0245
-66.6221
-67.001
-67.0327
-66.8865
-66.898
-67.2745
-67.8479
-68.0849
-67.6843
-67.3457
-66.5696
-65.7334
-64.1072
-63.4827
-63.5547
-62.1803
-59.3481
-57.271
-67.3826
-67.263
-67.0326
-66.84
-66.9539
-67.2668
-67.9567
-67.1419
-66.1413
-65.8773
-65.2309
-64.587
-63.6198
-62.4825
-61.7024
-60.1125
-58.2212
-56.9124
-56.2873
-67.1648
-67.0344
-66.8074
-66.9143
-67.2627
-68.0136
-67.5597
-65.932
-64.6177
-64.1938
-63.4138
-63.0433
-62.1213
-61.0865
-60.0761
-58.7134
-57.4952
-56.6387
-56.2956
-56.1114
-66.6692
-66.5024
-66.4834
-66.6154
-67.0466
-67.3026
-66.7169
-65.3304
-63.9801
-63.2567
-62.1232
-61.7224
-60.9831
-60.0283
-59.1631
-57.9995
-57.1007
-56.4496
-56.2099
-56.2645
-56.2491
-49.871
-49.8466
-49.8298
-50.0132
-49.9993
-49.9828
-50.0653
-50.0641
-50.0351
-50.1
-50.1634
-50.2567
-50.2284
-50.3141
-50.3587
-50.2727
-50.3169
-50.364
-50.4302
-50.5954
-50.5664
-50.4191
-50.606
-50.6446
-51.0902
-50.8799
-50.9917
-51.0449
-50.7723
-50.8945
-50.9668
-51.0916
-51.1214
-51.2245
-51.3213
-51.3656
-50.9932
-51.3467
-51.4055
-51.7383
-51.833
-51.8789
-51.9243
-51.9178
-51.7946
-51.9095
-52.4452
-52.5487
-52.479
-52.4208
-52.4366
-52.4978
-52.3157
-52.4244
-52.6466
-53.1775
-53.2703
-53.4645
-53.3753
-53.1126
-52.9351
-52.861
-53.0137
-53.1785
-53.7232
-54.4193
-54.622
-54.4773
-54.4209
-53.9121
-53.5166
-53.6547
-53.6677
-54.5496
-55.4226
-56.1102
-56.214
-55.8436
-55.2256
-54.7563
-54.4402
-54.4557
-54.4161
-55.0677
-56.0905
-56.9985
-58.198
-58.6308
-57.5549
-56.4878
-55.7881
-55.726
-55.6221
-55.4542
-55.4197
-55.5032
-58.1584
-60.1153
-60.4181
-60.057
-58.397
-57.3946
-57.2207
-57.1816
-56.9219
-56.67
-57.1872
-57.4581
-57.7449
-59.6949
-60.2566
-60.4102
-59.9246
-59.407
-58.8604
-58.8904
-58.8739
-58.7499
-58.8739
-58.8838
-59.5282
-60.2441
-60.4025
-60.5707
-60.9769
-61.0216
-61.1138
-61.2395
-61.1584
-60.9392
-60.5201
-60.4582
-60.4247
-60.8106
-61.5344
-61.3959
-61.9039
-64.5037
-61.9575
-62.3409
-62.4312
-62.6037
-63.0479
-62.8301
-62.9122
-62.2787
-61.8313
-62.2451
-62.6165
-62.9432
-62.8872
-63.9595
-65.8543
-66.5997
-63.1839
-63.5982
-63.7219
-63.8768
-64.1753
-63.8336
-63.3485
-63.3856
-63.781
-64.1905
-64.7731
-64.4088
-64.1933
-64.5039
-65.7258
-66.0611
-62.8616
-64.8741
-64.9795
-65.6764
-66.2501
-65.869
-65.6707
-66.4565
-67.6315
-67.9477
-67.5594
-66.6684
-65.8009
-64.5457
-64.2104
-64.7592
-64.4976
-61.29
-58.685
-66.6969
-67.1783
-67.2307
-67.0698
-67.0774
-67.5181
-68.087
-68.225
-68.0362
-67.7748
-66.8235
-65.9468
-64.3264
-63.5769
-63.6713
-62.2827
-59.4128
-57.2764
-56.4193
-67.3841
-67.3339
-67.1181
-66.8965
-66.9982
-67.296
-68.1491
-67.2541
-66.2169
-66.0253
-65.3128
-64.673
-63.8001
-62.5489
-61.8113
-60.1139
-58.2193
-56.8715
-56.2217
-55.839
-67.1901
-67.0621
-66.8707
-66.956
-67.3233
-68.1416
-67.6788
-66.0337
-64.6883
-64.2107
-63.4365
-63.0937
-62.1606
-61.0861
-60.0833
-58.6929
-57.4812
-56.6123
-56.2287
-56.0397
-55.8282
-66.6834
-66.5126
-66.4957
-66.6408
-67.0812
-67.3291
-66.7967
-65.4135
-64.0052
-63.2562
-62.1235
-61.7055
-60.9823
-60.0179
-59.1508
-57.9993
-57.0767
-56.4193
-56.1975
-56.2267
-56.2187
-56.6056
-66.6916
-49.7484
-49.8057
-49.8563
-49.8447
-49.8174
-49.7758
-49.9645
-49.9929
-49.9784
-49.9809
-50.0367
-50.0629
-50.0139
-50.0662
-50.0686
-50.1362
-50.2244
-50.2633
-50.2783
-50.328
-50.3675
-50.2393
-50.302
-50.33
-50.4839
-50.5294
-50.619
-50.7042
-50.5582
-50.6198
-50.6657
-50.7641
-50.6288
-50.8727
-51.0578
-51.1316
-50.7098
-50.9055
-50.9343
-51.1887
-51.2729
-51.2883
-51.1813
-51.3632
-51.5456
-50.9829
-51.4007
-51.7328
-51.8659
-51.8058
-51.8205
-51.9509
-51.895
-51.9152
-51.8421
-52.0725
-52.4079
-52.3849
-52.5014
-52.5094
-52.4757
-52.1977
-52.4417
-52.5374
-52.2553
-52.6218
-53.1856
-53.2811
-53.4022
-53.399
-53.003
-53.1291
-52.9607
-53.0237
-53.2546
-53.1942
-53.8713
-54.427
-54.4063
-54.3752
-54.2941
-53.9045
-53.6685
-53.7382
-53.7453
-53.8725
-54.8699
-55.2246
-56.3534
-56.1714
-55.6701
-55.16
-54.872
-54.6089
-54.6247
-54.3777
-54.7301
-54.7556
-56.2582
-57.4125
-58.1786
-58.3071
-57.4683
-56.5211
-55.871
-55.7545
-55.6995
-55.6143
-55.5259
-55.8595
-56.3498
-58.6334
-60.206
-60.5678
-59.7862
-58.2988
-57.4095
-57.2919
-57.1254
-57.036
-56.9126
-57.1798
-57.7902
-58.2312
-58.5161
-60.175
-60.5691
-60.1353
-59.5747
-59.5764
-59.3197
-59.0441
-58.9413
-58.7757
-59.061
-59.2426
-59.6886
-60.722
-60.9116
-63.0256
-60.8575
-61.1581
-61.0397
-61.1635
-61.2518
-60.9433
-60.7553
-60.6596
-60.5692
-60.5755
-61.1029
-61.6316
-61.9359
-62.3132
-65.3408
-68.7002
-62.1773
-62.4163
-62.7191
-62.8717
-63.3362
-63.1058
-63.0189
-62.5685
-62.3224
-62.6198
-63.0122
-63.4703
-63.3001
-64.2807
-66.5737
-67.409
-64.9394
-63.34
-63.7516
-63.895
-64.0245
-64.4169
-63.9561
-63.5902
-63.6401
-64.1557
-64.8596
-65.3236
-64.9399
-64.6809
-64.8125
-66.0674
-66.0246
-63.0865
-59.5956
-65.0301
-65.1556
-65.9404
-66.592
-66.1575
-65.8936
-66.8586
-67.9659
-68.4555
-68.2277
-67.1259
-66.0898
-64.8274
-64.4502
-65.0169
-64.5318
-61.4074
-58.7636
-57.0187
-66.7746
-67.3366
-67.4483
-67.2327
-67.276
-67.7097
-68.2042
-68.3964
-68.2491
-68.0418
-67.0688
-66.1979
-64.5234
-63.677
-63.7187
-62.395
-59.4736
-57.2735
-56.3665
-55.6361
-67.3938
-67.4028
-67.1847
-66.9193
-67.0303
-67.322
-68.2087
-67.3363
-66.2566
-66.1001
-65.3198
-64.7383
-63.9526
-62.5964
-61.882
-60.0975
-58.2117
-56.8163
-56.1629
-55.747
-55.404
-67.208
-67.0841
-66.9265
-67.0018
-67.3796
-68.2638
-67.7967
-66.1153
-64.7515
-64.2039
-63.444
-63.0618
-62.1823
-61.0831
-60.0817
-58.6689
-57.4665
-56.5841
-56.1711
-55.9671
-55.7365
-55.8892
-67.2331
-66.6917
-66.5209
-66.505
-66.663
-67.1121
-67.3438
-66.8751
-65.4737
-64.0031
-63.257
-62.1341
-61.6978
-60.9755
-60.0028
-59.1343
-57.9856
-57.0537
-56.3891
-56.1808
-56.1921
-56.1914
-56.5785
-57.0348
-66.5349
-49.7069
-49.7595
-49.8642
-49.8193
-49.8145
-49.8416
-49.8286
-49.7352
-49.7866
-49.9356
-49.9649
-49.9477
-50.0094
-49.9588
-50.0566
-50.0515
-50.0748
-50.056
-50.0758
-50.0798
-50.1753
-50.2246
-50.2483
-50.1089
-50.2911
-50.3387
-50.4333
-50.3531
-50.2937
-50.3835
-50.5317
-50.5218
-50.5322
-50.6668
-50.7722
-50.6518
-50.6473
-50.6099
-50.7896
-50.8418
-50.8453
-51.0259
-51.0696
-51.1998
-50.9111
-51.0195
-51.0585
-51.2493
-51.2601
-51.3138
-51.2497
-51.276
-51.5512
-51.6349
-51.359
-51.4497
-51.6793
-51.4432
-51.8361
-51.9436
-51.8812
-52.0326
-51.9563
-52.0382
-51.756
-52.0682
-52.2855
-52.3466
-52.4783
-52.5074
-52.4926
-52.3671
-52.4014
-52.5115
-52.4878
-52.3264
-52.7312
-53.2243
-53.2694
-53.3597
-53.3335
-53.0457
-53.1004
-53.1006
-53.1513
-53.2231
-53.3848
-53.3688
-53.9545
-54.2635
-54.3971
-54.3758
-54.2641
-53.9535
-53.6741
-53.8525
-53.732
-53.9087
-54.1818
-54.8275
-55.4003
-56.2177
-56.1845
-55.567
-55.081
-54.9109
-54.7169
-54.8725
-54.5996
-54.6625
-54.6966
-54.3468
-56.6301
-57.4492
-58.0842
-57.7594
-57.1875
-56.5855
-56.0062
-56.0407
-55.7427
-55.7976
-55.4948
-55.977
-56.2971
-56.2992
-59.0052
-60.2792
-60.3352
-59.2664
-58.1994
-57.4687
-57.3262
-57.2621
-57.1398
-57.2089
-57.1916
-57.6026
-59.0926
-59.465
-61.0884
-60.4832
-60.5676
-59.8058
-59.3144
-59.5796
-59.1754
-58.7396
-59.0479
-58.774
-59.223
-59.4335
-60.1134
-61.0148
-61.0701
-63.6249
-66.7393
-61.1583
-61.3064
-61.3182
-61.1881
-61.3725
-61.0845
-61.0123
-60.9136
-60.8311
-61.1107
-61.1024
-61.8582
-62.359
-62.9834
-65.7862
-69.629
-67.8014
-62.2989
-62.6547
-62.7982
-62.9458
-63.483
-63.2262
-63.2603
-62.8936
-62.6477
-62.8654
-63.3531
-63.4656
-63.657
-64.5172
-66.472
-67.6102
-65.1244
-61.7933
-63.6144
-63.8257
-64.2081
-64.3877
-64.6575
-64.0976
-63.773
-63.9079
-64.5665
-65.5483
-65.9173
-65.3229
-65.0864
-65.1384
-66.1717
-65.9775
-63.1203
-59.7703
-57.9885
-65.1864
-65.3751
-66.1551
-66.7178
-66.4481
-66.1584
-67.0918
-68.0518
-68.7835
-68.741
-67.4073
-66.2787
-64.9916
-64.6196
-65.114
-64.5017
-61.4289
-58.7507
-56.9955
-55.7549
-66.8782
-67.4519
-67.6172
-67.4096
-67.4097
-67.8053
-68.1887
-68.4399
-68.2159
-68.2249
-67.2413
-66.2135
-64.6682
-63.7045
-63.7253
-62.478
-59.5074
-57.1838
-56.3022
-55.5353
-54.9603
-67.4129
-67.4688
-67.24
-66.9204
-67.044
-67.3151
-68.2462
-67.4251
-66.2782
-66.1017
-65.3283
-64.7616
-64.1037
-62.6205
-61.9331
-60.0493
-58.1746
-56.7708
-56.1051
-55.6497
-55.2654
-55.0009
-67.4317
-67.2213
-67.1012
-66.9817
-67.048
-67.4348
-68.3691
-67.9251
-66.177
-64.8031
-64.1944
-63.4204
-63.0053
-62.1828
-61.0737
-60.0664
-58.6441
-57.4488
-56.5479
-56.12
-55.8947
-55.6577
-55.7569
-56.2369
-67.1211
-66.5283
-66.5109
-66.682
-67.139
-67.3491
-66.977
-65.5174
-64.0002
-63.2505
-62.1124
-61.6851
-60.9622
-59.9834
-59.1163
-57.9624
-57.0277
-56.3601
-56.1635
-56.1598
-56.1594
-56.5333
-57.0023
-57.2977
-66.5141
-49.7246
-49.7204
-49.6554
-49.8302
-49.9296
-49.8109
-49.8176
-49.8443
-49.8259
-49.7843
-49.7845
-49.7541
-50.0172
-49.977
-49.9925
-49.9633
-49.9842
-49.9732
-50.0416
-50.0587
-50.084
-50.0934
-50.111
-50.084
-50.1457
-50.2519
-50.1726
-50.2277
-50.3747
-50.4914
-50.3791
-50.4199
-50.4668
-50.389
-50.3697
-50.4051
-50.5241
-50.4851
-50.6126
-50.6687
-50.7109
-50.7828
-50.7467
-50.6814
-50.6334
-50.7513
-50.8665
-50.9093
-51.0387
-51.0329
-51.1491
-51.241
-51.0058
-51.0146
-51.0901
-51.244
-51.2843
-51.321
-51.3444
-51.3469
-51.3899
-51.6145
-51.8138
-51.3673
-51.5589
-51.5654
-51.5655
-51.7841
-51.927
-51.9776
-51.9708
-51.9659
-52.0714
-52.1257
-51.6949
-52.1366
-52.2276
-52.3833
-52.4848
-52.5567
-52.465
-52.5365
-52.4463
-52.5142
-52.4868
-52.8193
-52.3306
-52.9469
-53.1661
-53.2712
-53.285
-53.285
-53.1489
-53.0779
-53.1256
-53.1117
-53.2677
-53.292
-54.0904
-53.4539
-53.8534
-54.3549
-54.1541
-54.2891
-54.167
-54.1442
-53.8851
-53.9084
-53.8107
-53.7766
-54.1501
-54.6575
-54.7998
-55.6154
-56.0802
-55.9675
-55.5545
-55.1082
-54.9916
-54.8525
-54.8229
-54.7224
-54.8099
-54.7231
-54.9682
-54.4665
-56.7395
-57.406
-58.1057
-57.569
-56.9958
-56.4976
-56.1342
-55.8569
-55.8466
-55.8993
-55.5866
-55.8793
-56.9704
-56.9707
-58.5084
-59.3252
-60.288
-60.0301
-58.8759
-57.8914
-57.4404
-57.4584
-57.3411
-57.2579
-57.3464
-57.5137
-58.1209
-59.2409
-59.9954
-62.1803
-63.7507
-60.5838
-60.7377
-59.7776
-59.2988
-59.2942
-59.128
-58.9278
-59.2013
-59.0987
-59.4153
-59.6287
-60.0284
-61.2687
-61.6039
-63.9121
-67.2086
-70.4107
-61.4021
-61.229
-61.3903
-61.269
-61.0269
-61.2285
-61.0591
-61.1022
-61.0487
-61.2975
-61.4445
-62.1175
-62.7239
-63.3653
-65.4288
-69.2747
-67.9732
-63.7339
-62.5121
-62.6701
-62.9162
-63.0748
-63.4122
-63.3894
-63.3577
-63.1274
-62.9755
-63.2147
-63.642
-64.019
-63.8384
-64.5826
-66.152
-67.4637
-64.8769
-61.7746
-59.5186
-63.766
-63.9461
-64.3407
-64.5152
-64.6034
-64.3054
-63.9591
-63.8637
-65.0708
-66.034
-66.1784
-65.574
-65.3189
-65.4112
-66.101
-65.6837
-62.9491
-59.8594
-57.9257
-56.2389
-65.3497
-65.5369
-66.4666
-67.0148
-66.6524
-66.3886
-67.2631
-68.126
-68.9747
-69.0967
-67.5757
-66.2899
-65.0771
-64.7367
-65.0379
-64.3228
-61.3003
-58.6921
-56.9161
-55.6676
-54.7834
-66.9875
-67.6224
-67.7795
-67.5512
-67.368
-67.7595
-68.162
-68.3075
-68.0997
-68.1423
-67.3153
-66.2729
-64.752
-63.6672
-63.6683
-62.2881
-59.3806
-57.142
-56.2582
-55.4446
-54.8393
-54.3298
-67.0805
-67.4189
-67.5454
-67.2886
-66.9344
-67.0467
-67.2923
-68.3534
-67.4749
-66.263
-66.0208
-65.292
-64.7092
-64.1561
-62.6142
-61.9345
-59.9993
-58.1524
-56.7253
-56.0454
-55.5554
-55.155
-54.8448
-54.8556
-67.544
-67.113
-67.0296
-67.0975
-67.4893
-68.4856
-68.0449
-66.2009
-64.8407
-64.1599
-63.3884
-62.9494
-62.1852
-61.0567
-60.0293
-58.6155
-57.4311
-56.5087
-56.0749
-55.8299
-55.5768
-55.6405
-56.1258
-55.9292
-67.0896
-66.5133
-66.7009
-67.1556
-67.35
-67.0963
-65.5602
-64.0058
-63.2382
-62.0502
-61.6487
-60.9427
-59.9601
-59.0955
-57.9396
-56.9972
-56.3382
-56.146
-56.1285
-56.1293
-56.5025
-56.9535
-57.2608
-57.2504
-66.7252
-49.6356
-49.6177
-49.6157
-49.6428
-49.756
-49.7433
-49.7121
-49.779
-49.7766
-49.8149
-49.8214
-49.7874
-49.7842
-49.766
-49.8007
-50.0095
-49.9513
-49.9646
-49.9978
-49.9698
-49.9893
-50.0405
-50.0254
-50.0133
-50.029
-50.0907
-50.1149
-50.0952
-50.1359
-50.2535
-50.2567
-50.2434
-50.2334
-50.3522
-50.4138
-50.4127
-50.4081
-50.5013
-50.573
-50.3303
-50.3551
-50.459
-50.4995
-50.5541
-50.5939
-50.7489
-50.7563
-50.773
-50.8967
-50.7166
-50.728
-50.764
-50.9991
-50.8486
-50.9452
-50.9833
-51.0422
-51.107
-51.2583
-51.3888
-50.9533
-51.0927
-51.0579
-51.1705
-51.2741
-51.314
-51.3889
-51.4485
-51.4749
-51.5614
-51.7436
-52.0054
-51.1562
-51.468
-51.5651
-51.7194
-51.8306
-51.8768
-51.9603
-51.9885
-51.9566
-52.0463
-52.2616
-52.3116
-51.8086
-52.1162
-52.2261
-52.3556
-52.548
-52.5654
-52.4623
-52.4974
-52.5201
-52.7296
-52.6164
-52.8522
-53.0769
-52.4838
-52.8631
-53.0269
-53.2059
-53.3391
-53.3045
-53.2726
-53.2245
-53.1081
-53.0863
-53.2178
-53.4499
-53.839
-54.5056
-53.4219
-53.8851
-54.4117
-54.4366
-54.2883
-54.1413
-54.1443
-53.5143
-53.9737
-53.96
-53.8811
-54.1606
-54.6125
-54.0352
-54.9125
-55.5903
-56.1166
-55.8578
-55.4308
-55.1511
-55.0952
-54.9066
-54.9829
-54.7833
-54.7394
-55.2439
-55.2505
-54.5435
-56.2477
-56.7826
-57.3146
-57.8827
-57.2555
-56.856
-56.561
-56.3217
-55.895
-55.9412
-56.1603
-55.9212
-56.0362
-56.8408
-57.7261
-59.1902
-60.2322
-59.3091
-59.9721
-59.655
-58.5513
-57.4705
-57.4456
-57.185
-57.4372
-57.3156
-57.2943
-57.8806
-58.2404
-59.2104
-59.9682
-62.3832
-63.87
-69.1008
-60.9239
-60.4933
-59.8262
-59.254
-59.0877
-59.3385
-58.9892
-59.1073
-59.3577
-59.5359
-59.7779
-60.3791
-61.0492
-61.9892
-63.8727
-67.2355
-70.3792
-65.835
-61.3558
-61.2818
-61.1474
-61.2143
-61.0509
-61.0929
-61.3121
-61.2819
-61.1825
-61.3777
-61.6235
-62.1794
-62.4148
-63.4498
-65.0958
-68.4496
-67.1277
-63.5396
-61.5586
-62.6274
-62.8097
-63.1701
-63.5277
-63.4735
-63.4907