/*--------------------------------*- C++ -*----------------------------------*\
  =========                 |
  \\      /  F ield         | OpenFOAM: The Open Source CFD Toolbox
   \\    /   O peration     | Website:  https://openfoam.org
    \\  /    A nd           | Version:  7
     \\/     M anipulation  |
\*---------------------------------------------------------------------------*/
FoamFile
{
    version     2.0;
    format      ascii;
    class       surfaceScalarField;
    location    "8";
    object      phi;
}
// * * * * * * * * * * * * * * * * * * * * * * * * * * * * * * * * * * * * * //

dimensions      [0 3 -1 0 0 0 0];

internalField   nonuniform List<scalar> 
53739
(
5.20088e-05
-0.000248188
-7.24266e-05
0.000125817
0.000764869
-0.000268117
4.84148e-05
-0.000288627
-7.26994e-05
4.97171e-05
-0.000231865
-6.91636e-05
0.000213272
0.00270641
-0.000252257
0.000124485
0.000710598
-0.00026995
0.000160013
-3.11725e-05
-0.000295068
4.31685e-05
-0.000324005
-7.31024e-05
4.75417e-05
-0.00028267
-6.94354e-05
7.6275e-05
-0.000543373
-6.17372e-05
0.000410877
0.00422277
-0.000173879
0.000233951
0.0027058
-0.000252549
0.000478081
0.00172463
-0.000314131
0.000119814
0.000657331
-0.000269187
0.000161958
-0.000116722
-0.000298817
0.000214302
-0.000441514
-0.000342485
3.4146e-05
-0.000350497
-7.37229e-05
4.82164e-05
-0.000334032
-6.99565e-05
7.21896e-05
-0.000622299
-6.26991e-05
9.6343e-05
-0.000541356
-5.18072e-05
0.000468574
0.00554309
5.20891e-05
0.000363076
0.00422322
-0.000140467
0.000459035
0.00399832
-0.000172286
0.000316544
0.00261871
-0.000243409
0.00038909
0.00157424
-0.000329291
0.000385273
0.000847908
-0.000293126
0.000112148
0.00060681
-0.000265337
0.000172246
-0.000205241
-0.000304697
0.000185993
-0.000507182
-0.000346953
0.000148922
5.31867e-05
-0.000370202
2.70561e-05
-0.000370291
-7.39794e-05
4.66734e-05
-0.000384077
-7.03521e-05
6.31933e-05
-0.000691576
-6.38726e-05
8.75424e-05
-0.000639139
-5.24583e-05
0.000124163
-0.000381901
-4.45122e-05
0.000109948
0.00635528
0.000167087
0.000163847
0.00575442
6.32946e-05
0.000182617
0.00625006
0.000152566
0.00045185
0.0042371
-0.000204432
0.000287833
0.00409439
-0.000135278
0.000233507
0.00422221
-3.7114e-05
0.000326311
0.00251986
-0.000249603
0.000434202
0.00140741
-0.000338528
0.0003299
0.000686048
-0.000311338
0.000160734
0.00111851
-0.000253449
0.000101613
0.000568036
-0.000257051
0.000167262
-0.000282794
-0.000308373
0.000134044
-0.000535464
-0.000347266
0.000135335
3.22757e-05
-0.000373835
0.000116584
0.000485488
-0.000352081
2.33752e-05
-0.000386781
-7.4133e-05
4.25892e-05
-0.000429813
-7.08326e-05
5.58604e-05
-0.000753068
-6.47202e-05
7.78153e-05
-0.000727201
-5.36252e-05
0.000119628
-0.000509724
-4.42628e-05
0.00017914
0.000107854
-3.16956e-05
-1.97745e-05
0.00628665
0.000283867
-0.000161006
0.00661301
4.07212e-05
0.00025302
0.00703373
-8.06161e-05
0.000469819
0.00576459
3.85956e-05
0.00017731
0.00623733
0.000186551
0.000259485
0.00602896
8.09385e-05
0.000356911
0.00433042
-0.000205197
0.000378632
0.00414403
-0.000198507
0.000196379
0.0043017
-8.1245e-05
0.000145576
0.00446591
-2.99708e-05
0.000369825
0.0023602
-0.000260627
0.00036864
0.00129057
-0.000334146
0.000204415
0.00059504
-0.000317891
9.56243e-05
0.00109683
-0.000249946
5.98943e-05
0.00203939
-0.000270834
0.000104908
0.000530606
-0.000249349
0.00015598
-0.000342862
-0.000310375
9.46343e-05
-0.00053918
-0.000343431
0.000119343
1.55481e-05
-0.000372066
0.000108401
0.000472375
-0.000349494
0.000166071
0.000838269
-0.000293379
2.25881e-05
-0.000402928
-7.43284e-05
3.68711e-05
-0.00046962
-7.11972e-05
4.8516e-05
-0.000806999
-6.54172e-05
6.92398e-05
-0.000806196
-5.49653e-05
0.000115332
-0.000633176
-4.55054e-05
0.000177482
-8.34098e-05
-3.04811e-05
0.000210273
-0.000988807
-3.11281e-05
0.000363761
0.00640162
0.00064374
-1.11911e-05
0.00627746
0.000676194
0.000521147
0.0063129
-2.84113e-05
0.000345061
0.00672068
0.000328949
0.000291363
0.00713896
-0.000178561
0.000696686
0.0059013
-0.00035447
0.000271485
0.00579021
9.71376e-05
0.000231308
0.00626783
0.000155413
0.00027599
0.00608122
5.46874e-05
0.000518853
0.00543899
-0.000219116
0.000389939
0.00445113
-0.000238346
0.000238593
0.00427625
-0.000207365
0.000146722
0.00430352
-0.000142631
0.000134746
0.00440578
-6.02389e-05
0.000253812
0.00370713
-0.000174242
0.000372734
0.00221373
-0.000265203
0.000425451
0.00110887
-0.000348398
0.000151207
0.000519177
-0.000314856
6.3572e-05
0.00108668
-0.000251968
9.17214e-05
0.00209033
-0.000284204
0.000150989
0.0024867
-0.000360921
0.000112895
0.000488692
-0.000245146
0.000147998
-0.000392664
-0.000310673
7.32956e-05
-0.000537071
-0.000337263
0.000112767
-6.38059e-06
-0.000365029
0.000107292
0.000452121
-0.000343772
0.000168436
0.00077848
-0.00028066
0.000225807
-0.000357647
-0.000196302
2.49239e-05
-0.000421972
-7.44271e-05
3.07096e-05
-0.000503064
-7.15936e-05
4.28205e-05
-0.000855056
-6.5961e-05
6.22466e-05
-0.000877991
-5.58689e-05
0.000111286
-0.000751834
-4.75932e-05
0.000177754
-0.000276271
-3.03987e-05
0.00021254
-0.00120222
-2.96063e-05
0.000193242
-0.00215186
-2.95314e-05
0.000897038
0.00617583
0.00107203
0.000443939
0.0065007
0.000555235
0.00100872
0.00649723
-3.63105e-05
0.000146831
0.00662178
0.000452055
0.000719663
0.00667864
-0.000117841
0.00115297
0.00567943
-0.000453153
0.000169272
0.00690126
4.18144e-05
0.000439032
0.00743812
-0.000177937
0.000794985
0.00564691
-0.000443167
0.000825339
0.00484621
-0.000608063
0.000253456
0.00597356
9.31381e-05
0.000192549
0.00626729
0.000143726
0.000292342
0.00608306
7.94908e-06
0.000567736
0.00535026
-0.000289578
0.000446743
0.00422534
-0.000319474
0.000496206
0.0044582
-0.000222176
0.000317465
0.0043473
-0.000201416
0.00018367
0.00426912
-0.000205433
0.000152089
0.00422362
-4.89792e-05
0.000273293
0.00364133
-0.000176013
0.000341071
0.00351044
-0.000405311
0.000378515
0.00210206
-0.000292784
0.000351877
0.00101648
-0.000376688
0.000164515
0.000425176
-0.000345617
4.12081e-05
0.00111806
-0.000274684
0.000143859
0.00212365
-0.000321855
0.000177611
0.00259006
-0.000396736
0.000330638
0.00248187
-0.000418742
0.000134086
0.000433544
-0.000244128
0.000110219
-0.000408202
-0.000309117
4.53911e-05
-0.000518895
-0.00033142
0.000102295
-2.84907e-05
-0.000355201
0.000115196
0.000418013
-0.000334832
0.000173115
0.000709744
-0.000270397
0.000225547
-0.000463083
-0.000188232
0.000265049
-0.00104495
-0.000128099
2.56322e-05
-0.00044221
-7.45831e-05
2.44713e-05
-0.000529943
-7.20192e-05
3.78762e-05
-0.000898008
-6.65181e-05
5.57456e-05
-0.000943578
-5.61195e-05
0.000107505
-0.000865662
-4.95465e-05
0.000176983
-0.000470615
-3.02316e-05
0.000212261
-0.00141678
-2.80987e-05
0.000193673
-0.00234627
-2.88687e-05
0.000149444
-0.00270639
-1.42796e-05
0.00104178
0.00577273
0.00176691
0.00109563
0.0062071
0.000903699
0.00145146
0.00642896
0.000682906
0.000653809
0.00658314
0.000376584
0.00128409
0.0066085
-0.00012047
0.00155298
0.00571781
-0.000400812
0.000323243
0.00685148
0.00018346
0.000900726
0.00672623
-5.72282e-05
0.00128512
0.00558777
-0.000516327
0.00101419
0.00510136
-0.000718046
0.000270826
0.00700871
-3.9333e-05
0.000524321
0.0073075
-0.000159338
0.000714967
0.00549824
-0.00045189
0.000795236
0.00470779
-0.000532246
0.000517639
0.00412379
-0.000607745
0.000463679
0.00599246
8.52256e-05
0.000250603
0.00638448
4.28095e-05
0.00044568
0.00602056
-5.57794e-05
0.000647765
0.00518954
-0.000327004
0.000488031
0.00407688
-0.000355855
0.000605915
0.00385553
-0.000540209
0.000362912
0.00440632
-0.000178442
0.000225338
0.0045236
-0.000271929
0.000296045
0.00415039
-0.000214211
0.000143833
0.00406084
-0.000145285
0.000345773
0.00355207
-0.000161627
0.000341986
0.00359064
-0.000420591
0.000441115
0.00350034
-0.000544818
0.000403654
0.00198819
-0.000312169
0.000294597
0.000956943
-0.000417625
0.000101951
0.00040744
-0.000415512
7.09753e-05
0.00114795
-0.00034418
0.000175498
0.00215155
-0.000362886
0.000204867
0.00266349
-0.00042704
0.000382464
0.00237492
-0.000446698
0.000480881
0.00145085
-0.000393632
0.000154846
0.000369515
-0.000243534
8.26871e-05
-0.000403374
-0.000307172
3.6485e-05
-0.000499116
-0.000327505
8.27896e-05
-4.10968e-05
-0.000345858
0.000113046
0.000383851
-0.000326579
0.000187988
0.000625376
-0.000261469
0.000257188
-0.000597355
-0.000181052
0.000273176
-0.00118869
-0.000123998
0.000246893
-0.000897471
-9.19797e-05
2.64662e-05
-0.000463586
-7.47033e-05
1.72762e-05
-0.000549429
-7.23734e-05
3.29276e-05
-0.000936119
-6.68353e-05
4.88647e-05
-0.0010025
-5.64633e-05
0.00010259
-0.000973396
-5.09753e-05
0.000175409
-0.000665148
-3.04222e-05
0.000212167
-0.00163355
-2.56301e-05
0.000193749
-0.00254008
-2.8045e-05
0.00014311
-0.00286426
-1.41112e-05
0.000132839
-0.00252012
-7.76958e-06
0.00118039
0.00590458
0.00216832
0.00140908
0.00588944
0.00151482
0.00260698
0.006231
0.000822289
0.00128618
0.0062958
0.000571684
0.00191472
0.00639646
0.000305575
0.00218326
0.00517038
0.000142864
0.000841763
0.00662152
0.000158012
0.00140177
0.00664566
-0.00016161
0.0014649
0.00588185
-0.000464274
0.00130278
0.0052012
-0.000550177
0.000524213
0.00697266
0.000153564
0.00102294
0.006717
-0.000305929
0.00120718
0.00558662
-0.000548286
0.000988773
0.00499402
-0.000602532
0.000559811
0.00448671
-0.000706113
0.000473419
0.00725584
-0.000131152
0.000649966
0.00707804
-0.00020923
0.000784794
0.0053883
-0.000388508
0.000833893
0.00455039
-0.000480626
0.0004195
0.00420686
-0.000546792
0.000672993
0.00350886
-0.000508054
0.000275668
0.00612511
-2.50222e-05
0.000262635
0.00643808
-5.66981e-06
0.000616974
0.00591833
-0.000175897
0.000633948
0.00494978
-0.000306136
0.000496035
0.00397282
-0.000373201
0.000564675
0.00385427
-0.000577282
0.000550172
0.00406268
-0.000840702
0.000371164
0.00451878
-0.000188445
0.000255418
0.00464195
-0.000257619
0.000295998
0.00397404
-0.000289625
0.00020906
0.00389914
-0.00019059
0.000398518
0.00343092
-0.000247157
0.000410234
0.00368866
-0.000465014
0.000468651
0.00360571
-0.000612139
0.000577393
0.00327865
-0.000622137
0.000394633
0.00189717
-0.000332962
0.000222854
0.000965358
-0.000460751
8.61088e-05
0.000427741
-0.00048755
0.000106855
0.00113672
-0.000428349
0.000194298
0.00215648
-0.000430364
0.000258373
0.00270098
-0.000470761
0.000423848
0.00222025
-0.000439038
0.000493593
0.00115652
-0.000372787
0.000454576
0.00121856
-0.000364538
0.000158229
0.000310819
-0.00024145
5.07518e-05
-0.000375406
-0.000304978
1.4352e-05
-0.00046372
-0.000323992
5.19379e-05
-3.3772e-05
-0.000337903
9.96145e-05
0.000360075
-0.000319106
0.000187418
0.000544217
-0.000257429
0.000249887
-0.000724019
-0.000172524
0.000281915
-0.00134076
-0.000117145
0.000242383
-0.00103461
-8.6135e-05
0.0003267
-0.000722476
-8.16255e-05
2.57335e-05
-0.000484597
-7.48462e-05
1.1478e-05
-0.00056302
-7.25907e-05
2.6833e-05
-0.000968191
-6.7135e-05
4.24075e-05
-0.00105423
-5.75099e-05
9.6779e-05
-0.00107455
-5.20883e-05
0.000167345
-0.000852191
-3.12774e-05
0.000209929
-0.00184892
-2.49817e-05
0.000196895
-0.00273576
-2.68389e-05
0.000139018
-0.00301745
-1.38701e-05
0.000125441
-0.00265219
-7.48943e-06
0.000117443
-0.0025996
8.12209e-07
0.00116986
0.0057978
0.00299901
0.00133631
0.00572591
0.00278445
0.00312062
0.00629851
0.00137028
0.00171414
0.00605018
0.00128085
0.00189502
0.0067417
0.00102383
0.00314538
0.00640504
0.000454122
0.00139155
0.00640663
0.000519784
0.00198531
0.00618132
0.000203281
0.0019611
0.00520192
-0.000222162
0.00157847
0.00488254
-0.000425947
0.00101325
0.00664511
2.13683e-05
0.00158021
0.00652339
-0.000276996
0.00171526
0.00562991
-0.000417759
0.00113036
0.00523834
-0.000642995
0.000253567
0.00493494
-0.000528812
0.000738557
0.00714514
-7.66106e-06
0.00113942
0.00669899
-0.000317882
0.00123064
0.00534065
-0.000505799
0.000960321
0.00500198
-0.000682673
0.000391177
0.00454407
-0.000631567
0.00023334
0.00430344
-0.000529593
0.000535291
0.00724831
-0.000261216
0.000716744
0.00674571
-0.000252934
0.000962876
0.00525873
-0.000425565
0.000732417
0.00454009
-0.000476677
0.000702465
0.00401103
-0.000491221
0.000608799
0.00345221
-0.00053427
0.000611554
0.00371848
-0.000668848
0.000301167
0.00627249
-4.45956e-05
0.000369138
0.0064152
-0.000115864
0.000686072
0.00575372
-0.000231128
0.000589017
0.00470621
-0.00031228
0.000598647
0.00387203
-0.00040548
0.000553231
0.00394497
-0.000606895
0.000381011
0.00439351
-0.00082048
0.000600849
0.00499578
-0.000902249
0.000324133
0.00468253
-0.000174584
0.000272965
0.00470813
-0.000304729
0.000325911
0.00376666
-0.000290041
0.000265856
0.00368808
-0.000237566
0.000390989
0.00334531
-0.000301676
0.000377773
0.0038289
-0.000506791
0.000563633
0.00368812
-0.000687215
0.000602169
0.00326
-0.000702064
0.000503048
0.00351126
-0.000630922
0.000380662
0.00180511
-0.000341673
0.000156265
0.00100746
-0.000480576
6.53473e-05
0.000469989
-0.000553994
0.000105871
0.00110234
-0.000507108
0.000197929
0.00211781
-0.000487994
0.000276739
0.002684
-0.000502706
0.000438069
0.00198925
-0.000427943
0.000486675
0.00085042
-0.0003377
0.000514386
0.000869452
-0.000295678
0.000533756
0.00136306
-0.000320896
0.000141428
0.000271545
-0.00023893
3.54249e-05
-0.00033851
-0.000302292
-8.61798e-06
-0.000413056
-0.000320191
8.55651e-06
4.56775e-06
-0.000328481
9.60299e-05
0.000332409
-0.000309488
0.00017672
0.000469226
-0.00025349
0.00025221
-0.000862074
-0.000161654
0.000298935
-0.00150851
-0.00010682
0.000230908
-0.00116656
-7.70866e-05
0.000331775
-0.000943869
-7.10767e-05
0.000335481
-0.0012018
-3.59934e-05
2.3005e-05
-0.000503216
-7.50277e-05
6.1627e-06
-0.000571241
-7.27872e-05
2.22844e-05
-0.00099568
-6.73857e-05
3.61859e-05
-0.00109958
-5.7971e-05
8.7224e-05
-0.00116523
-5.40521e-05
0.000163135
-0.00103529
-3.21284e-05
0.000209668
-0.00206755
-2.23167e-05
0.000189501
-0.00292219
-2.80528e-05
0.000132151
-0.00316239
-1.40586e-05
0.000118504
-0.00277767
-6.89209e-06
0.000107691
-0.00271554
7.57858e-07
8.02235e-05
-0.00328307
7.88893e-06
0.000798096
0.00596393
0.0039776
0.000695973
0.00606282
0.00369118
0.000931615
0.00590641
0.00345289
0.00219678
0.00668392
0.00312816
0.0015922
0.0057404
0.00239958
0.00175313
0.00670734
0.0025175
0.00363316
0.00682554
0.00136095
0.00181602
0.00619739
0.00126612
0.00240997
0.0067072
0.000890676
0.00244116
0.0062392
0.000709605
0.00177174
0.00424545
0.000535069
0.00151402
0.00648659
0.000326267
0.00214281
0.00612732
1.11824e-05
0.00229369
0.00511987
-0.000293102
0.00124209
0.00488783
-0.000339181
-5.48427e-05
0.00495457
-0.000510988
0.00115141
0.00660822
-0.000111399
0.00166393
0.00635019
-0.000329933
0.0015672
0.00549303
-0.000476668
0.000852881
0.0055005
-0.000572483
3.28744e-05
0.00519322
-0.000542966
-0.000179296
0.00562257
-0.000448596
0.000955709
0.00705163
-0.000123014
0.00127007
0.00644776
-0.000309753
0.00117005
0.00531672
-0.000501131
0.000874669
0.00494383
-0.000589896
0.000750716
0.00452237
-0.000709225
0.000636722
0.00419891
-0.000554957
0.000406234
0.00409704
-0.000418101
0.000691771
0.00704253
-0.000270126
0.00081013
0.00632507
-0.000281571
0.000907005
0.00517124
-0.000386383
0.000686266
0.00453165
-0.000514375
0.0005386
0.00409714
-0.000502741
0.000514273
0.0035662
-0.000566251
0.000441736
0.00380917
-0.000685687
0.000573132
0.00485345
-0.000703113
0.000437511
0.00626112
-7.94996e-05
0.000517214
0.00622017
-9.38174e-05
0.00078517
0.00543849
-0.000259896
0.000589984
0.00448264
-0.000331686
0.000654448
0.0037504
-0.000454102
0.000651758
0.00395159
-0.000686089
0.000616465
0.00460757
-0.000873782
0.000285088
0.00529243
-0.000800042
0.000205547
0.00552614
-0.000729469
0.00038764
0.00471826
-0.000128366
0.000299601
0.00460247
-0.000212268
0.000359684
0.00356519
-0.000397595
0.000332547
0.00345249
-0.000281129
0.00041661
0.0032973
-0.000408228
0.000432491
0.00392679
-0.00055532
0.000512596
0.00381834
-0.00071153
0.000504113
0.00330818
-0.000752839
0.000532819
0.00345222
-0.000661456
0.000728716
0.00360627
-0.000598322
0.00034192
0.00170968
-0.000327229
0.000128614
0.00103368
-0.000461086
7.70199e-05
0.000484039
-0.000580264
5.90525e-05
0.00107432
-0.000576469
0.000237452
0.00199653
-0.000527252
0.000274746
0.00261489
-0.000516913
0.000413444
0.00172999
-0.000404673
0.000471804
0.00053229
-0.000282682
0.000502359
0.000499711
-0.000239411
0.000582897
0.00105515
-0.000238893
0.000575554
0.000190207
-0.000207378
0.000124615
0.000248316
-0.000236282
1.65517e-05
-0.000288263
-0.000299566
-2.01725e-05
-0.000357289
-0.000315603
-1.32586e-05
5.45317e-05
-0.000320711
7.04877e-05
0.000320212
-0.000299548
0.00017638
0.000394668
-0.000248175
0.000262594
-0.00101864
-0.000149849
0.000302639
-0.00168958
-9.3723e-05
0.000208543
-0.00128228
-6.74888e-05
0.00032426
-0.00116767
-5.90377e-05
0.000331804
-0.00146948
-2.75036e-05
0.000208865
-0.00225181
5.69505e-06
1.67821e-05
-0.000515874
-7.5155e-05
1.94385e-06
-0.000575169
-7.30438e-05
1.85643e-05
-0.00101961
-6.74203e-05
3.18799e-05
-0.00114069
-5.81596e-05
8.0724e-05
-0.00124922
-5.47112e-05
0.000157552
-0.00121343
-3.3463e-05
0.000207808
-0.00228658
-2.09065e-05
0.000194145
-0.00311276
-2.58995e-05
0.000122143
-0.00329863
-1.39495e-05
0.000107892
-0.0028927
-6.91954e-06
9.91606e-05
-0.0028229
1.3092e-06
6.48737e-05
-0.00335486
7.67204e-06
3.42176e-05
-0.00317512
7.00236e-06
0.000585795
0.00552574
0.00424492
0.00055263
0.00594544
0.00405114
0.00144597
0.00567808
0.00409786
0.000474712
0.00640221
0.00374761
0.00169103
0.00634254
0.0039179
0.00092958
0.00644862
0.00332875
0.00240155
0.00615386
0.00333453
0.00354499
0.00617948
0.00334233
0.00163391
0.00586914
0.00246191
0.00257133
0.00667932
0.00226624
0.00275571
0.00681933
0.00220916
0.00182197
0.00668697
0.00189249
0.00192255
0.00626751
0.00124339
0.00250815
0.00660492
0.00100306
0.00244258
0.00633932
0.000641672
0.00111026
0.00449765
0.000589233
-0.000157678
0.00412231
2.35128e-05
0.00170986
0.00643128
0.000105648
0.00225725
0.00592656
-6.62983e-05
0.0016971
0.00549273
-0.000491578
0.000783272
0.00525496
-0.000590626
-0.000442448
0.00534588
-0.000255163
-0.000403349
0.00503544
-0.000424885
0.00135738
0.00652244
-0.000121869
0.00172786
0.00611441
-0.000333417
0.00127429
0.00545079
-0.000391929
0.00118566
0.00529539
-0.000582548
0.000356215
0.00556343
-0.000548196
0.000355596
0.00576054
-0.000399814
0.000236564
0.0056816
-0.00057604
0.00116744
0.00687498
-0.00011403
0.00133576
0.00608171
-0.000282596
0.00117692
0.0051577
-0.000420652
0.000643191
0.00507376
-0.000587991
0.00042145
0.00473104
-0.000681416
0.000317776
0.0041676
-0.000481418
0.000254425
0.00419038
-0.000460994
0.000434471
0.00445354
-0.000362057
0.00090037
0.00671076
-0.000173218
0.000957062
0.00576603
-0.000150934
0.00101874
0.00500008
-0.00034397
0.000709157
0.00446752
-0.000441423
0.00060357
0.00410069
-0.000467044
0.000672275
0.0036872
-0.00064426
0.000533042
0.00410754
-0.000781197
0.000146318
0.00503344
-0.000726901
0.000146923
0.00608061
-0.000702365
0.000452851
0.00625504
-4.89319e-05
0.000635805
0.00592807
-0.0001236
0.000794269
0.00512483
-0.000214742
0.000653037
0.0042509
-0.000348649
0.000644183
0.00372229
-0.000531151
0.000539924
0.00415368
-0.000763624
0.000363463
0.00491492
-0.000844312
0.000118839
0.00568669
-0.000882775
0.000396587
0.005523
-0.000660668
0.00062326
0.00520139
-0.000659416
0.000382104
0.00469618
-0.000156972
0.000304849
0.00443403
-0.000136157
0.000431209
0.00335874
-0.000360008
0.000352801
0.00316322
-0.000402071
0.000430651
0.0033302
-0.000507228
0.000427195
0.00398178
-0.000615666
0.000476029
0.00390036
-0.000699933
0.000744907
0.0030769
-0.000753354
0.000788521
0.00309821
-0.000684985
0.000766655
0.00337423
-0.00061318
0.000686626
0.00261989
-0.000516664
0.000271454
0.00162487
-0.000281338
9.84674e-05
0.00104327
-0.000418726
6.29054e-05
0.000501695
-0.00056182
4.98044e-05
0.00103613
-0.000605136
0.000240642
0.00179725
-0.000547344
0.000330879
0.00244465
-0.000511509
0.000423448
0.0014454
-0.000393182
0.000467079
0.000200554
-0.000237378
0.00050789
0.000109244
-0.000191562
0.000622594
0.000698685
-0.000181277
0.000619244
-0.000187394
-0.000148732
0.00035499
-0.000105724
-0.000161714
9.53575e-05
0.000256748
-0.000241442
5.65731e-06
-0.000231292
-0.000296967
-3.48991e-05
-0.000293033
-0.000310359
-1.5905e-05
9.95185e-05
-0.000312805
5.35323e-05
0.000317523
-0.00029083
0.000191163
0.00030515
-0.000243641
0.000266643
-0.00118405
-0.000141598
0.000304864
-0.00186686
-8.3286e-05
0.000190703
-0.00138494
-5.96239e-05
0.000306817
-0.00138596
-4.81275e-05
0.000303176
-0.00170501
-2.75266e-05
0.000193888
-0.00241364
5.31075e-06
8.67952e-05
-0.00125823
-3.05857e-05
1.1916e-05
-0.000524027
-7.51942e-05
-7.5985e-07
-0.000576354
-7.32107e-05
1.31416e-05
-0.00103844
-6.73613e-05
3.04285e-05
-0.00117991
-5.86286e-05
7.5564e-05
-0.00132667
-5.62729e-05
0.000152967
-0.00138667
-3.44347e-05
0.000208776
-0.00250672
-2.20992e-05
0.000188532
-0.00329729
-2.4899e-05
0.000113754
-0.00342466
-1.36272e-05
9.68635e-05
-0.00299801
-5.49794e-06
9.08641e-05
-0.00292351
2.82633e-06
5.759e-05
-0.00341929
8.14933e-06
2.52076e-05
-0.00319987
7.20782e-06
6.28498e-07
-0.00260158
7.43859e-08
0.000515074
0.0047205
0.00452726
0.000397013
0.00514161
0.00443946
0.000459583
0.00551136
0.00424332
0.00122311
0.00577503
0.00427404
0.00042639
0.00579692
0.00411188
0.00124736
0.00593466
0.00423824
0.00219887
0.00592875
0.00446633
0.000765226
0.00651108
0.00380238
0.00207734
0.00646739
0.00394697
0.00290284
0.00584915
0.0042489
0.00117654
0.00676194
0.00336952
0.00229391
0.00622723
0.00353279
0.00264447
0.00611296
0.00351229
0.00126422
0.00678567
0.00371982
0.00161252
0.00621444
0.00257645
0.00270649
0.00657738
0.00236551
0.00243822
0.00681166
0.00227827
0.00123193
0.00649702
0.00227745
-0.000197718
0.00597939
0.00208218
0.00194929
0.00628787
0.00125445
0.00257048
0.00651465
0.00102043
0.00206736
0.00634413
0.000627982
0.000873831
0.00448186
0.000566903
-0.000349783
0.00427095
0.000347927
-0.000726794
0.0044778
-0.000109715
0.00180305
0.00636883
7.60804e-05
0.002221
0.00578232
-0.000243249
0.0016489
0.00543534
-0.000383523
0.0011285
0.00552705
-0.000706506
-9.95459e-05
0.00574677
-0.000535756
-0.000467191
0.00592466
-0.000321596
-0.00013154
0.00638086
-0.000402033
0.00137636
0.00643165
-0.000139623
0.001695
0.00594242
-0.000309112
0.00144684
0.00541766
-0.000570207
0.000568406
0.00543415
-0.000455906
0.000236274
0.00565637
-0.000490311
0.00029285
0.00571662
-0.000479349
0.000146635
0.00585813
-0.000468554
0.000260632
0.00565961
-0.000577003
0.00122383
0.00658408
-9.52309e-05
0.00129322
0.00586863
-0.000237111
0.00124916
0.00505579
-0.000411101
0.00103908
0.00487934
-0.000556151
0.000448563
0.00489378
-0.000595721
0.000147775
0.00448219
-0.000471506
0.000209494
0.00448036
-0.000447849
0.000195017
0.00435932
-0.000415477
0.000361515
0.00519906
-0.000372422
0.000809812
0.00645828
-0.00019554
0.000788258
0.005633
-0.00019264
0.000994938
0.00486173
-0.000213256
0.000691435
0.00447311
-0.00038796
0.000587656
0.00416129
-0.000445498
0.00046256
0.00395153
-0.000654012
0.000408854
0.0042961
-0.000878204
0.000137375
0.00502727
-0.000793564
0.000289996
0.00613698
-0.000676682
0.00034037
0.00597922
-0.000716401
0.000481038
0.00622568
-3.34465e-05
0.000577806
0.00570513
-9.89507e-05
0.000738962
0.00492115
-0.000227666
0.000615392
0.00418319
-0.000409627
0.000642944
0.00379864
-0.000637289
0.000533654
0.00437379
-0.000857719
0.000284353
0.00525886
-0.000915887
0.000767111
0.00558153
-0.000761352
0.000757673
0.00543249
-0.000761411
0.00088365
0.00502821
-0.000604487
0.000658879
0.00414534
-0.000735504
0.000345752
0.0046733
-0.000151042
0.000332109
0.0042292
-0.000185786
0.000324395
0.00332736
-0.000366266
0.00037009
0.00300561
-0.000522685
0.000463452
0.00331015
-0.000604831
0.000354397
0.00410371
-0.000652672
0.000554834
0.00381589
-0.000662582
0.000554563
0.0029688
-0.000679313
0.000734346
0.00278646
-0.000668063
0.000762688
0.00314806
-0.000598904
0.000739463
0.0024075
-0.000521006
0.000442044
0.00215239
-0.00050522
0.000197469
0.00153875
-0.000207936
0.00010581
0.00102468
-0.000362901
2.61649e-05
0.000543081
-0.000521175
7.13546e-05
0.000980082
-0.000593031
0.000206247
0.00159325
-0.000553856
0.000389321
0.0021746
-0.000475451
0.000410633
0.00117695
-0.000387051
0.000434363
-0.000112148
-0.000209978
0.000505282
-0.00028946
-0.000153252
0.00063923
0.000319583
-0.000144873
0.000615523
-0.000579648
-0.000101371
0.000389181
-0.000329058
-0.00012069
0.000135618
0.000665168
-0.000177422
6.98846e-05
0.000295373
-0.000241367
3.15248e-06
-0.000182647
-0.000294
-4.44469e-05
-0.000227318
-0.000305093
-1.60748e-05
0.000140117
-0.000304454
3.65757e-05
0.00032621
-0.000282503
0.000181189
0.000223061
-0.000236963
0.000266804
-0.00135364
-0.000132082
0.000290759
-0.00203856
-7.2124e-05
0.000180613
-0.00147964
-5.54433e-05
0.000288348
-0.00159622
-4.0845e-05
0.000264801
-0.00190836
-1.87144e-05
0.000172703
-0.00255239
-3.88278e-06
9.31547e-05
-0.0012904
-3.04612e-05
4.97551e-05
-0.000701756
-7.66552e-05
5.92095e-06
-0.000526025
-7.51899e-05
-1.62167e-06
-0.00057674
-7.31858e-05
5.84407e-06
-0.00104997
-6.75223e-05
2.76313e-05
-0.00121622
-5.86768e-05
6.96166e-05
-0.00139729
-5.76215e-05
0.000146329
-0.00155251
-3.67654e-05
0.000209629
-0.00272916
-2.16271e-05
0.000179966
-0.00347313
-2.62335e-05
0.000108046
-0.00354408
-1.35245e-05
8.43534e-05
-0.00309176
-4.2311e-06
7.91561e-05
-0.00301136
3.20073e-06
3.97994e-05
-0.00346643
1.01687e-05
1.77704e-05
-0.00321714
7.64995e-06
-6.08479e-06
-0.00258873
4.47912e-07
-1.10279e-05
-0.00245206
-1.43382e-05
0.000369527
0.00465279
0.00466193
0.000355976
0.00484893
0.00448897
0.000917611
0.00464229
0.00466272
0.00026078
0.00537834
0.0042829
0.00104083
0.00512582
0.00447307
0.000433702
0.00549479
0.0042347
0.0010654
0.00589688
0.00430343
0.00175002
0.00601479
0.00462455
0.000561612
0.00581277
0.00413436
0.00138606
0.00634658
0.00439124
0.00222718
0.00629884
0.00454382
0.000992825
0.00613405
0.00466744
0.000865736
0.00679385
0.00372056
0.00167404
0.00681003
0.00407961
0.00171308
0.0063316
0.00439591
0.000935414
0.00625099
0.00447749
0.00119101
0.00691372
0.00358335
0.00207386
0.00656368
0.00366571
0.00188382
0.00639372
0.00380643
0.00112955
0.00664077
0.00375957
0.000106033
0.00654739
0.00358307
0.00174999
0.00630808
0.00268181
0.00251719
0.00681449
0.00239263
0.00224463
0.00662986
0.00237003
0.00100843
0.00632778
0.0023129
-0.000326403
0.00599222
0.00224124
-0.000554884
0.00524856
0.00168039
0.00153418
0.006821
0.00145729
0.00248475
0.00650674
0.000998612
0.00219657
0.00605055
0.000766335
0.000830685
0.00499251
0.000415151
-0.00052336
0.00469394
0.000567725
-0.000891823
0.00504859
0.000201768
-0.000512287
0.00596449
0.000127096
0.00185992
0.00655592
4.23806e-05
0.00199095
0.00578741
-0.000224955
0.00173416
0.0053868
-0.000482025
0.000603282
0.00578966
-0.000681009
-0.000239054
0.00567739
-0.000161807
-0.000190658
0.0062228
-0.000350388
-9.46138e-05
0.00658071
-0.000280196
-0.000105171
0.00708466
-0.000454557
0.00141727
0.00626586
-0.000179665
0.0015077
0.00588581
-0.000297495
0.0012935
0.00547985
-0.000415648
0.00096179
0.0055413
-0.000600065
0.000362888
0.00577177
-0.000485634
-0.000448539
0.00626078
-0.000438162
0.000120094
0.00593965
-0.000471467
-2.24655e-05
0.00586972
-0.000461184
0.000186186
0.00569254
-0.000467636
0.00114239
0.00636958
-0.00024014
0.0010906
0.00566911
-0.000198044
0.00107826
0.00515749
-0.00042213
0.000686247
0.00497494
-0.000501519
0.000475437
0.00500758
-0.000557738
0.000172837
0.00463097
-0.000454777
0.000302546
0.004517
-0.00040184
0.000238542
0.00441047
-0.000600163
0.000141864
0.00525604
-0.000324321
0.000404849
0.00627269
-0.000564634
0.000809757
0.00611163
-8.71783e-05
0.000853788
0.00534195
-0.000180468
0.00081775
0.00485679
-0.000266487
0.000659938
0.0045739
-0.000358589
0.000623178
0.00422104
-0.000427949
0.000529323
0.00417299
-0.000662621
0.000353847
0.00439451
-0.000821918
0.000517329
0.00530744
-0.000908593
0.00064066
0.00615609
-0.000695667
0.000745037
0.00611708
-0.000675929
0.000645591
0.0046815
-0.000754856
0.000492923
0.00609419
-9.442e-06
0.000656985
0.00547178
-0.000124976
0.000560421
0.00478418
-0.000198013
0.00058016
0.00421886
-0.000473401
0.000680294
0.00388525
-0.000713082
0.000370727
0.00467793
-0.000957761
0.000539412
0.00537296
-0.000956392
0.000254307
0.00580984
-0.000843937
0.000571355
0.0055268
-0.000692672
0.000764646
0.00485597
-0.000591124
0.000763769
0.004213
-0.000696453
0.00054424
0.00365555
-0.000798634
0.000327887
0.00464932
-0.000183385
0.000329124
0.00407897
-0.000224123
0.000366332
0.00322767
-0.000426264
0.00049504
0.00283738
-0.000621724
0.000426111
0.00330584
-0.000738244
0.000579772
0.00397838
-0.000669959
0.000424091
0.00376972
-0.00061996
0.000557979
0.00276582
-0.000583222
0.000767031
0.0024106
-0.000565204
0.000824932
0.00287576
-0.000581465
0.000735559
0.00216257
-0.000474013
0.000463404
0.00201816
-0.000460992
0.000226692
0.00255436
-0.00045816
0.000187153
0.00143218
-0.000122916
0.000135944
0.0009927
-0.000308752
2.82162e-05
0.00058213
-0.000474613
9.37097e-05
0.000897804
-0.000548681
0.000174552
0.00140524
-0.000542992
0.000350473
0.0018928
-0.000441335
0.000407204
0.000935395
-0.000374292
0.000421532
-0.000421108
-0.000208865
0.000475924
-0.000665781
-0.000128969
0.000624355
-5.43589e-05
-0.000115318
0.000539895
-0.000917408
-8.22061e-05
0.000409818
-0.000584323
-8.32205e-05
0.00016975
0.000623948
-0.000156066
0.000205857
0.000715574
-0.000230199
5.92493e-05
0.000344359
-0.000238403
4.26843e-06
-0.000139444
-0.00029046
-5.56895e-05
-0.000160145
-0.00029964
-1.62606e-05
0.000174862
-0.000295946
1.31937e-05
0.00035164
-0.000273461
0.000150729
0.000152178
-0.00021602
0.000261868
-0.00152735
-0.00011549
0.000278516
-0.00220607
-6.31271e-05
0.000175705
-0.00156782
-5.16064e-05
0.000262218
-0.00179565
-3.38849e-05
0.000225616
-0.002072
-2.36625e-05
0.000123332
-0.00265373
-9.08573e-07
9.84153e-05
-0.00134279
-3.21432e-05
4.35904e-05
-0.000707058
-7.48346e-05
0.000135757
-0.00099801
-0.000116456
6.6527e-08
-0.000522028
-7.52516e-05
-4.56114e-06
-0.000574158
-7.32113e-05
3.01069e-06
-0.00105856
-6.76032e-05
2.28358e-05
-0.00124827
-5.831e-05
6.30524e-05
-0.00146115
-5.78722e-05
0.000138485
-0.00171096
-3.76516e-05
0.000211907
-0.00295633