/*--------------------------------*- C++ -*----------------------------------*\
  =========                 |
  \\      /  F ield         | OpenFOAM: The Open Source CFD Toolbox
   \\    /   O peration     | Website:  https://openfoam.org
    \\  /    A nd           | Version:  7
     \\/     M anipulation  |
\*---------------------------------------------------------------------------*/
FoamFile
{
    version     2.0;
    format      ascii;
    class       volVectorField;
    location    "8";
    object      U_0;
}
// * * * * * * * * * * * * * * * * * * * * * * * * * * * * * * * * * * * * * //

dimensions      [0 1 -1 0 0 0 0];

internalField   nonuniform List<vector> 
18630
(
(0.0084144 0.470863 -1.6467)
(-0.470907 0.317778 -1.96466)
(0.00890621 0.458538 -1.65397)
(-0.0220186 0.574216 -1.63173)
(-1.44653 0.355118 -0.941564)
(-0.464076 0.236183 -1.95943)
(-0.064063 0.191804 -2.04549)
(0.00637893 0.443062 -1.65882)
(-0.0240787 0.546448 -1.62559)
(0.11422 0.644933 -1.51124)
(-2.33622 0.0720388 -0.221135)
(-1.50176 0.294791 -0.944901)
(-1.17184 0.95502 -1.35264)
(-0.421796 0.133997 -1.88693)
(0.00137269 0.198125 -2.06169)
(0.0533823 0.720009 -2.41237)
(0.00545579 0.401315 -1.66801)
(-0.0202665 0.51297 -1.62152)
(0.118841 0.627627 -1.5172)
(0.0473524 0.902859 -1.29921)
(-2.84111 0.559771 0.173337)
(-2.22705 0.0882216 -0.402367)
(-1.96106 1.12407 -0.890103)
(-1.54331 0.26018 -0.896335)
(-1.11617 0.942142 -1.3279)
(-0.675569 0.959712 -1.48294)
(-0.338954 0.00256397 -1.77215)
(-0.00923088 0.26922 -2.12074)
(0.058836 0.695828 -2.43098)
(-0.16304 0.637572 -2.76964)
(0.012946 0.375142 -1.66917)
(-0.00833127 0.474007 -1.62112)
(0.128938 0.595067 -1.53272)
(0.0622041 0.839967 -1.32229)
(-0.0980347 1.19368 -1.08919)
(-3.10528 -0.184667 0.377107)
(-3.0087 -0.0507625 0.182)
(-3.07962 -0.285356 0.078583)
(-2.24578 0.370184 -0.647968)
(-2.39024 0.251739 -0.557481)
(-2.28798 0.510179 -0.215039)
(-1.52011 0.27763 -0.926658)
(-1.10203 0.898235 -1.29)
(-0.583598 0.724085 -1.64927)
(-0.661402 0.391095 -1.1738)
(-0.287555 -0.105707 -1.60316)
(0.00163522 0.320349 -2.16681)
(0.0780704 0.589492 -2.43036)
(-0.170436 0.564789 -2.79313)
(-0.390761 0.689427 -2.80364)
(0.0101314 0.3563 -1.66392)
(0.00781197 0.434091 -1.62233)
(0.136591 0.583372 -1.53842)
(0.0807232 0.78066 -1.34571)
(-0.107005 1.19249 -1.08724)
(-0.474407 1.76045 -0.959882)
(-3.05572 -0.870662 0.465078)
(-3.05914 -1.08496 -0.0247708)
(-3.47871 -0.474227 0.312581)
(-3.01736 -0.215873 0.125566)
(-3.07578 -0.507395 0.113)
(-2.90687 -0.593581 0.702972)
(-2.46927 0.0400511 -0.707919)
(-2.29207 0.450201 -0.686511)
(-2.32217 0.257216 -0.337812)
(-2.24562 -0.207771 -0.0151061)
(-1.49007 0.230521 -0.969646)
(-1.06359 0.761766 -1.32473)
(-0.483972 0.391364 -1.75682)
(-0.650388 0.311878 -1.12283)
(-1.00291 -0.113753 -1.07218)
(-0.240732 -0.144083 -1.46948)
(0.0162199 0.329473 -2.20289)
(0.0865772 0.485494 -2.40817)
(-0.171911 0.474297 -2.77353)
(-0.406341 0.562391 -2.82222)
(-0.612547 0.763254 -2.57522)
(0.0142601 0.324889 -1.65962)
(0.027023 0.395895 -1.62348)
(0.143717 0.567652 -1.54544)
(0.10241 0.727471 -1.36651)
(-0.12549 1.19312 -1.10737)
(-0.482262 1.73729 -0.946877)
(-0.0439415 2.23326 -0.48402)
(-3.1018 -0.494799 1.37991)
(-2.68241 -1.01554 2.0021)
(-3.17768 -0.239933 0.534102)
(-3.30449 -0.262325 1.18669)
(-3.49068 -0.657232 0.218734)
(-3.12071 0.18609 -0.672975)
(-2.87425 -0.653371 0.14973)
(-3.09822 -0.665474 0.0553071)
(-2.92383 -0.861351 0.835135)
(-2.73495 -0.158352 -0.281753)
(-2.46745 0.123732 -0.849537)
(-2.29885 0.00283028 -0.606274)
(-2.1953 -0.204911 -0.62867)
(-2.15439 -0.620909 -0.177237)
(-1.86625 -0.120148 -0.157205)
(-1.46575 0.240679 -0.99682)
(-0.966971 0.658125 -1.3812)
(-0.377338 0.185161 -1.65517)
(-0.656433 0.225423 -1.04963)
(-1.04349 -0.128832 -1.0949)
(-1.26279 0.164947 -1.33531)
(-0.24301 -0.107879 -1.40646)
(0.0412998 0.309008 -2.21696)
(0.111579 0.396374 -2.37293)
(-0.167462 0.410517 -2.71453)
(-0.400581 0.448078 -2.80049)
(-0.616897 0.708365 -2.49444)
(-0.0509021 0.969138 -1.80863)
(0.0186669 0.311285 -1.65094)
(0.0470029 0.361701 -1.62381)
(0.146806 0.563189 -1.54699)
(0.121604 0.694346 -1.38001)
(-0.133813 1.18786 -1.13513)
(-0.512479 1.73863 -0.971674)
(-0.0804532 2.2565 -0.442044)
(0.569152 2.08637 -0.908447)
(-3.10769 -0.0389951 1.76255)
(-3.1457 -0.597493 1.22172)
(-3.26434 0.155731 0.517908)
(-3.24834 -1.07243 1.01808)
(-3.16596 -0.316248 0.341797)
(-3.0515 0.532856 -0.658266)
(-3.42734 -1.03043 0.210808)
(-3.5203 -0.745798 0.155421)
(-2.92426 0.174645 -1.0038)
(-2.57939 0.72434 -0.771612)
(-2.79143 -0.90072 0.155454)
(-2.95017 -1.11979 0.318172)
(-2.90022 -0.843062 0.726426)
(-2.74468 -0.0352649 -0.566478)
(-2.22826 0.40901 -0.854333)
(-2.48318 -0.171049 -0.757939)
(-2.38869 0.213746 -0.698316)
(-2.15547 -0.38656 -0.751931)
(-2.01472 -0.838271 -0.254699)
(-1.87068 -0.096227 -0.175741)
(-1.78399 0.0573754 -0.956635)
(-1.41983 0.198682 -1.06115)
(-0.960082 0.591411 -1.39004)
(-0.3426 0.117197 -1.6733)
(-0.670891 0.194302 -1.11764)
(-1.06322 -0.0872014 -1.18499)
(-1.36757 0.112261 -1.42934)
(-1.41939 0.545168 -1.89298)
(-0.2673 -0.0317056 -1.38535)
(0.0610724 0.274682 -2.20898)
(0.120203 0.324365 -2.33856)
(-0.1529 0.352114 -2.63933)
(-0.385333 0.363616 -2.73694)
(-0.611657 0.654995 -2.40963)
(-0.0738014 0.997062 -1.68672)
(0.246954 1.10306 -1.15722)
(0.0252607 0.291493 -1.64509)
(0.0685894 0.329472 -1.62413)
(0.150367 0.547305 -1.55006)
(0.123526 0.679304 -1.3868)
(-0.138774 1.1854 -1.15138)
(-0.527237 1.73127 -1.0259)
(-0.109654 2.26665 -0.407929)
(0.53913 2.08954 -0.881291)
(0.941903 1.70918 -0.427302)
(-2.98942 0.396562 1.9959)
(-3.12998 -0.176968 1.49461)
(-3.40197 0.625077 0.99561)
(-3.17927 -0.698967 0.999745)
(-3.39492 0.253179 0.384422)
(-3.14426 0.920092 -0.662081)
(-3.14609 -1.13529 0.8943)
(-3.38683 -0.362044 0.516185)
(-2.98428 0.516264 -0.804685)
(-2.76483 0.509236 -0.92083)
(-3.30698 -1.12999 0.0644687)
(-3.62436 -0.913958 -0.0543639)
(-2.87128 -0.148936 -0.917797)
(-2.58499 0.422932 -0.776928)
(-2.1058 0.114173 -1.62873)
(-3.06941 -0.586049 0.143314)
(-2.85822 -1.33614 0.278645)
(-2.93368 -0.785384 0.394465)
(-2.75912 -0.01689 -0.714108)
(-2.16545 0.231668 -0.91546)
(-2.07202 0.570253 -0.73963)
(-2.48238 -0.310343 -0.688353)
(-2.40251 -0.393537 -0.652582)
(-2.20414 -0.400839 -0.599467)
(-1.79398 -1.00638 -0.510604)
(-1.86691 -0.0199072 -0.0529775)
(-1.79966 0.0475599 -0.941543)
(-1.90305 0.660889 -1.59472)
(-1.4281 0.192738 -1.07116)
(-0.811505 0.315909 -1.54756)
(-0.207952 0.010109 -1.87378)
(-0.685115 0.121253 -1.37418)
(-1.1546 -0.0252184 -1.31956)
(-1.3897 0.0959152 -1.67996)
(-1.37345 0.443714 -2.11291)
(-0.96299 0.903714 -1.89051)
(-0.284864 0.0225233 -1.36866)
(0.0785496 0.241049 -2.20174)
(0.121776 0.290145 -2.30609)
(-0.134225 0.273724 -2.56722)
(-0.359265 0.299879 -2.64798)
(-0.635944 0.606357 -2.31837)
(-0.0693534 1.0138 -1.60617)
(0.246424 1.20317 -1.1376)
(0.230603 0.850576 -0.774628)
(0.0333616 0.283795 -1.63901)
(0.0912447 0.299287 -1.62448)
(0.16648 0.52424 -1.55461)
(0.119913 0.667909 -1.39486)
(-0.157396 1.17998 -1.15629)
(-0.53543 1.71012 -1.08571)
(-0.146638 2.26461 -0.355759)
(0.53266 2.08995 -0.851338)
(0.922633 1.7111 -0.430066)
(0.952625 1.28661 -0.228404)
(-2.93993 0.161178 2.73988)
(-3.00675 0.543153 2.02452)
(-3.41822 0.553502 1.92029)
(-3.24772 -0.0344359 0.949807)
(-3.41515 0.653163 0.782028)
(-2.82004 1.11234 0.653718)
(-3.23809 -0.685212 0.707852)
(-3.55612 0.235109 0.0402306)
(-3.11927 0.893719 -0.786695)
(-2.71462 0.708423 -0.559104)
(-3.17647 -1.19296 0.87618)
(-3.49477 -0.422147 -0.301094)
(-3.00606 0.293017 -0.779125)
(-2.72968 0.439116 -0.934609)
(-2.22659 0.408045 -1.45273)
(-3.32269 -1.23318 -0.0102262)
(-3.5625 -0.903461 -0.249994)
(-2.90891 -0.0851801 -0.6199)
(-2.51742 0.366086 -0.850917)
(-2.12008 0.207909 -1.32573)
(-1.8278 0.662755 -0.812158)
(-2.81354 -1.41355 -0.0207794)
(-2.84214 -1.45824 0.252964)
(-2.97524 -0.629047 -0.0788273)
(-2.69898 -0.0846465 -0.717805)
(-2.1929 0.20697 -0.920059)
(-2.07069 0.36624 -0.831422)
(-2.05713 0.297136 -1.90626)
(-2.46509 -0.396413 -0.706411)
(-2.39353 -0.596377 -0.440231)
(-1.94154 -0.624555 -1.0677)
(-1.7265 -0.854293 -0.687243)
(-1.78685 -0.110181 -0.452705)
(-1.90763 -0.0103826 -0.964021)
(-2.03195 0.855591 -1.70477)
(-1.90453 1.1494 -1.97181)
(-1.45178 0.208923 -1.10491)
(-0.698612 0.136381 -1.67531)
(-0.247264 -0.0523881 -2.06338)
(-0.65172 0.00652325 -1.7835)
(-1.13685 -0.044106 -1.68081)
(-1.47917 0.118892 -1.921)
(-1.41708 0.639777 -2.1218)
(-0.906244 0.858608 -1.91434)
(-0.907363 1.02692 -1.63856)
(-0.302109 0.0689899 -1.34126)
(0.0968989 0.184588 -2.19221)
(0.102494 0.270392 -2.27372)
(-0.0884911 0.186962 -2.51072)
(-0.337872 0.202527 -2.5587)
(-0.601565 0.598806 -2.26895)
(-0.0855946 1.05177 -1.55747)
(0.205893 1.31395 -1.09267)
(0.260147 0.827261 -0.727239)
(0.0595846 1.13536 -0.649242)
(0.0397578 0.273732 -1.63523)
(0.111864 0.273867 -1.62378)
(0.17651 0.508918 -1.55608)
(0.133901 0.669339 -1.39652)
(-0.193949 1.16768 -1.15693)
(-0.531503 1.68288 -1.13494)
(-0.177192 2.25216 -0.290838)
(0.437081 2.11718 -0.772633)
(0.889922 1.75353 -0.436086)
(0.938423 1.28708 -0.220061)
(1.02783 1.07148 -0.119773)
(-2.96047 0.363134 2.87986)
(-2.97671 0.256345 2.63634)
(-3.43232 2.49397 1.60294)
(-3.26851 0.22948 1.66199)
(-3.52643 1.07547 1.45986)
(-3.65131 1.45625 -0.11667)
(-3.28531 -0.092968 0.997994)
(-3.45885 0.420467 0.463656)
(-2.8783 0.579451 -0.0817954)
(-2.56938 1.02062 -0.344086)
(-3.35337 -0.596319 0.496435)
(-3.57335 0.099471 -0.273446)
(-3.2408 0.518462 -0.583357)
(-2.78215 0.343054 -0.630404)
(-2.39046 -0.0397268 -0.981949)
(-3.38968 -1.11655 0.463749)
(-3.45203 -0.482863 -0.386589)
(-2.97263 0.0270276 -0.774801)
(-2.60893 0.329804 -1.02814)
(-2.35772 -0.285965 -1.08141)
(-2.14668 0.289709 -0.942447)
(-3.32323 -1.59034 -0.385292)
(-3.3311 -1.07201 -0.536965)
(-2.87299 -0.0326117 -0.619888)
(-2.48043 0.103802 -0.914237)
(-2.17171 -0.0190227 -1.10166)
(-1.89297 0.492465 -0.858278)
(-1.95476 0.744594 -1.22607)
(-2.703 -1.54757 -0.0215818)
(-2.85272 -1.51866 -0.114655)
(-2.98398 -0.620494 -0.313955)
(-2.55496 -0.13947 -0.79544)
(-2.19744 0.310581 -0.796671)
(-2.12354 0.385594 -0.908757)
(-2.16947 -0.0698772 -1.98924)
(-2.45536 0.360091 -2.27229)
(-2.41539 -0.761682 -0.702651)
(-2.26369 -0.916462 -0.477741)
(-1.82449 -0.772223 -1.18087)
(-1.76872 -0.676158 -0.677121)
(-1.80749 -0.178365 -0.555161)
(-2.01005 0.00573311 -1.09437)
(-2.1348 0.610181 -1.96769)
(-1.96634 1.078 -2.29638)
(-1.96755 0.923304 -1.93763)
(-1.39153 0.115144 -1.1913)
(-0.598795 -0.0735852 -1.78411)
(-0.12007 -0.180054 -2.29812)
(-0.559166 -0.154952 -2.21468)
(-1.12705 -0.139564 -2.01965)
(-1.47472 0.00727797 -2.16167)
(-1.31915 0.498046 -2.26621)
(-0.823126 0.812928 -1.82251)
(-0.827694 1.03543 -1.4023)
(-1.05185 1.32251 -1.66647)
(-0.302993 0.0918486 -1.31677)
(0.107552 0.150891 -2.1732)
(0.107817 0.217326 -2.24219)
(-0.0639563 0.111851 -2.46099)
(-0.252818 0.108926 -2.47958)
(-0.54994 0.468821 -2.23668)
(-0.0965356 1.08209 -1.53017)
(0.129116 1.43058 -0.999614)
(0.291476 0.814665 -0.664423)
(0.10947 1.10752 -0.605071)
(0.273575 1.19056 -0.596116)
(0.0574795 0.264363 -1.63208)
(0.1316 0.254653 -1.62187)
(0.171403 0.513659 -1.55155)
(0.137337 0.665021 -1.39854)
(-0.157716 1.14604 -1.17108)
(-0.532309 1.64397 -1.17758)
(-0.180746 2.23926 -0.265697)
(0.530187 2.06374 -0.814072)
(0.879777 1.79363 -0.441844)
(0.944544 1.30005 -0.201531)
(1.02793 1.05191 -0.107247)
(1.39776 0.969571 0.157409)
(-2.79527 0.130494 3.10126)
(-2.98069 -0.0395044 3.14737)
(-2.85068 0.156282 3.13654)
(-3.31076 0.925972 2.79747)
(-3.17243 0.580043 2.43646)
(-3.48765 0.112034 2.92486)
(-4.01182 2.22536 1.13489)
(-3.29336 0.0955402 1.61857)
(-3.81123 0.836686 1.20064)
(-3.51063 1.20211 0.748599)
(-2.2679 0.652209 1.0373)
(-3.3858 -0.35367 0.730214)
(-3.42628 0.506679 0.289972)
(-2.83857 1.08484 -0.0166857)
(-2.62941 0.582907 -0.560869)
(-2.37862 -0.467181 -0.751591)
(-3.40203 -0.696088 0.174135)
(-3.53618 0.0224283 -0.471384)
(-3.17727 0.580438 -0.577899)
(-2.8335 0.0902656 -0.614821)
(-2.43211 -0.0809921 -1.17664)
(-2.53028 -0.746263 -0.522099)
(-3.52242 -1.10953 0.00926263)
(-3.44329 -0.459696 -0.520342)
(-2.89551 0.131976 -0.734377)
(-2.62898 -0.0917714 -0.897948)
(-2.26777 0.47117 -1.31968)
(-2.16449 0.0280237 -1.06275)
(-2.01381 0.0663449 -0.817141)
(-3.23097 -1.6741 -0.559913)
(-3.20927 -1.00934 -0.630752)
(-2.87801 -0.183038 -0.504767)
(-2.39048 -0.211642 -1.05111)
(-2.17733 0.0156968 -0.968113)
(-1.96942 0.157157 -0.792376)
(-2.07241 0.232347 -1.25455)
(-2.41444 0.609032 -1.47017)
(-2.64983 -1.75204 -0.0458699)
(-2.89464 -1.4072 -0.20104)
(-2.94465 -0.589838 -0.474806)
(-2.43263 -0.32696 -0.811893)
(-2.14399 0.0956264 -0.7532)
(-2.10418 -0.0532778 -1.18076)
(-2.36066 0.269281 -2.06067)
(-2.76434 0.17088 -2.07242)
(-2.65992 0.158741 -2.13516)
(-2.37345 -0.953203 -0.536969)
(-2.11806 -1.17611 -0.353658)
(-1.68669 -0.72023 -1.42415)
(-1.78381 -0.637613 -0.56771)
(-1.75587 -0.214022 -0.850478)
(-2.11252 -0.0433998 -1.32886)
(-2.2051 0.622728 -2.11314)
(-2.02598 0.923244 -2.47722)
(-2.00176 1.05566 -2.09887)
(-2.02965 0.985602 -2.15651)
(-1.2289 -0.091151 -1.21936)
(-0.545716 -0.185144 -1.73257)
(-0.0600102 -0.312597 -2.36916)
(-0.385947 -0.410659 -2.52542)
(-1.2025 -0.138763 -2.25333)
(-1.55334 -0.0538359 -2.30322)
(-1.30518 0.443438 -2.28766)
(-0.696425 0.852784 -1.55721)
(-0.703924 1.00188 -1.16416)
(-1.01099 1.40337 -1.28304)
(-0.514065 1.51796 -1.22918)
(-0.314626 0.0614258 -1.3001)
(0.109126 0.111423 -2.15006)
(0.120415 0.158305 -2.20751)
(-0.0449129 0.0328908 -2.4135)
(-0.219954 0.00689731 -2.37673)
(-0.549935 0.422121 -2.16353)
(-0.138304 1.17159 -1.48209)
(0.16397 1.57062 -0.854359)
(0.310979 0.807892 -0.600634)
(0.16182 1.1019 -0.528304)
(0.349573 1.1677 -0.468823)
(0.885577 0.807143 0.0509458)
(0.056805 0.263641 -1.62868)
(0.145014 0.239134 -1.61948)
(0.160328 0.518657 -1.54678)
(0.12829 0.657151 -1.40051)
(-0.179678 1.13812 -1.17505)
(-0.531362 1.60439 -1.24149)
(-0.18947 2.23221 -0.252739)
(0.45816 2.09518 -0.724216)
(0.882836 1.78345 -0.45534)
(0.964522 1.29807 -0.198847)
(1.04402 1.04643 -0.0943481)
(1.41204 0.954595 0.140534)
(1.43299 0.545566 0.201213)
(-2.65088 -0.0375388 3.14194)
(-2.91173 -0.367933 3.20171)
(-2.84236 0.670517 3.13783)
(-3.01967 -0.448081 3.16969)
(-3.15424 0.66335 3.18024)
(-3.12182 -0.306074 3.04861)
(-3.49856 0.67957 3.15883)
(-3.43438 1.78774 2.82533)
(-3.24625 0.412331 2.53522)
(-3.73555 0.769504 2.35995)
(-3.70428 0.972237 2.16289)
(-3.6827 1.05196 1.58671)
(-3.39992 0.0823786 1.56965)
(-3.81594 0.588986 1.17297)
(-3.50954 0.927146 0.699784)
(-2.26629 0.189029 0.769911)
(-1.81936 -0.581259 0.271845)
(-3.43107 -0.457188 0.388498)
(-3.44423 0.314112 0.0496313)
(-3.04466 0.210964 -0.285549)
(-2.61032 -0.104204 -0.736494)
(-2.23836 -1.17591 -0.265227)
(-2.3374 -0.655214 -0.455333)
(-3.3946 -0.689087 0.0869482)
(-3.49864 -0.0578974 -0.503291)
(-3.01272 0.0183195 -0.541677)
(-2.84268 0.031929 -0.816014)
(-2.71051 -0.334178 -1.00809)
(-2.83391 0.137615 -0.393413)
(-2.72677 -0.141165 -0.784284)
(-3.5697 -0.997818 -0.122045)
(-3.33802 -0.579335 -0.414511)
(-2.88183 -0.273488 -0.565005)
(-2.62699 -0.205262 -0.907751)
(-2.41583 -0.423088 -1.11205)
(-2.16117 -0.189628 -0.998123)
(-2.02889 -0.187706 -0.755119)
(-2.12513 -0.0439804 -0.615212)
(-3.24977 -1.38439 -0.321266)
(-3.02867 -0.929165 -0.467818)
(-2.84576 -0.206918 -0.497026)
(-2.37871 -0.235679 -0.991481)
(-2.20159 0.124144 -0.99258)
(-1.96445 0.71358 -1.05467)
(-2.03418 0.388187 -1.502)
(-2.3959 -0.684254 -1.49593)
(-2.86176 -0.660848 -1.33507)
(-2.7215 -1.66833 0.0936767)
(-2.85355 -1.30086 -0.323864)
(-2.81473 -0.626903 -0.257012)
(-2.36124 -0.33018 -0.758858)
(-2.12128 0.0417777 -0.814859)
(-2.15204 -0.0690951 -1.44595)
(-2.44431 -0.339299 -2.14934)
(-2.70486 -0.362584 -2.16941)
(-2.95774 -0.181071 -1.81938)
(-2.87426 1.00517 -1.4391)
(-2.30782 -1.09167 -0.434334)
(-1.92877 -1.2774 -0.212593)
(-1.7641 -0.65576 -0.92449)
(-1.56996 -0.586542 -0.965824)
(-1.76448 -0.243544 -1.2587)
(-2.07589 -0.278235 -1.70222)
(-2.29398 0.255253 -2.19256)
(-2.01295 0.700553 -2.45509)
(-2.06165 0.881193 -2.22165)
(-2.09827 0.972677 -2.15517)
(-1.62593 1.22945 -1.68943)
(-1.06325 -0.21931 -1.1059)
(-0.457319 -0.301591 -1.54227)
(-0.0161223 -0.334685 -2.25378)
(-0.27102 -0.496293 -2.63852)
(-0.984555 -0.200459 -2.53615)
(-1.44415 -0.0228494 -2.39399)
(-1.11105 0.457504 -2.28801)
(-0.613998 0.801053 -1.31399)
(-0.53383 0.8925 -0.926961)
(-0.939779 1.37563 -1.01856)
(-0.440423 1.57645 -0.880462)
(-0.203148 1.06406 -0.633249)
(-0.199741 0.0149101 -1.39892)
(0.105632 0.0833013 -2.12231)
(0.124597 0.110207 -2.17296)
(-0.02981 -0.0185295 -2.35897)
(-0.144717 -0.0658763 -2.28923)
(-0.499461 0.389685 -2.1085)
(-0.152207 1.24509 -1.46471)
(0.0402532 1.67957 -0.721612)
(0.334082 0.810252 -0.541715)
(0.22204 1.08184 -0.441784)
(0.423687 1.15867 -0.353015)
(1.0242 0.744327 0.0486572)
(0.532364 0.408139 0.0458414)
(0.0706281 0.253504 -1.62734)
(0.147527 0.2372 -1.61518)
(0.170526 0.508056 -1.5437)
(0.101279 0.669886 -1.39398)
(-0.208527 1.12595 -1.18077)
(-0.530943 1.60103 -1.25239)
(-0.236527 2.24971 -0.246253)
(0.490445 2.12349 -0.626285)
(0.873677 1.77313 -0.455708)
(0.954747 1.28295 -0.180465)
(1.05769 1.09379 -0.0987873)
(1.41791 0.935652 0.145144)
(1.44979 0.550303 0.207556)
(1.24764 0.179644 0.128488)
(-2.24257 0.0373516 2.88354)
(-2.32719 -0.0594204 3.08105)
(-2.68222 -0.153018 3.13452)
(-2.7846 0.203752 3.04368)
(-2.79807 -0.584881 3.24978)
(-2.92331 0.260408 3.19875)
(-2.96057 1.08063 3.26632)
(-3.1191 -0.485655 3.14515)
(-3.39424 0.87599 3.07997)
(-3.04431 1.66594 3.34162)
(-3.30403 -0.573617 3.02347)
(-3.41439 0.859349 3.11765)
(-3.48509 1.26586 3.01404)
(-3.42286 0.231549 3.37162)
(-3.2875 0.152111 2.69493)
(-3.72838 0.733877 2.37075)
(-3.74804 0.8371 2.15762)
(-3.29365 0.139055 2.21557)
(-2.78166 -0.731476 2.33594)
(-3.55978 -0.000851764 1.54028)
(-3.75178 0.573016 1.14171)
(-3.46425 0.218614 0.958288)
(-2.20996 -0.206824 0.679967)
(-1.92355 -0.892251 0.651292)
(-1.87891 -1.07417 -0.179744)
(-3.43085 -0.465437 0.38607)
(-3.39068 0.142974 -0.157227)
(-2.981 -0.103622 -0.254873)
(-2.85114 0.242525 -0.930545)
(-2.58811 -0.733582 -0.725129)
(-2.44177 -0.815983 -0.329579)
(-3.0088 -0.573978 -0.652606)
(-3.38111 -0.799143 0.00942981)
(-3.40731 -0.0997705 -0.455436)
(-3.03675 0.0897494 -0.500319)
(-2.67001 -0.721539 -0.570321)
(-2.77702 -0.626028 -0.831065)
(-2.77298 -0.747863 -0.528199)
(-2.77863 -0.579626 -0.750923)
(-2.73347 -0.0160836 -0.870102)
(-3.44146 -1.07304 -0.252792)
(-3.27205 -0.492814 -0.238524)
(-2.83426 -0.201532 -0.565519)
(-2.59787 -0.404483 -0.806757)
(-2.35749 -0.585208 -1.0195)
(-2.01809 -0.484844 -1.08258)
(-2.0976 -0.364342 -0.603322)
(-2.18336 -0.180083 -0.830852)
(-2.63714 -0.0647626 -0.605915)
(-2.87382 -1.75397 -0.398128)
(-2.83788 -0.907874 -0.324321)
(-2.75396 -0.403675 -0.130068)
(-2.41379 -0.309655 -0.819971)
(-2.29797 -0.185227 -0.775307)
(-2.19714 -0.10642 -0.882176)
(-2.20511 -0.309448 -1.44991)
(-2.28828 -0.930613 -1.56742)
(-2.98149 -0.0843715 -1.38589)
(-2.87488 -0.173557 -1.43431)
(-2.57704 -1.86807 -0.0634448)
(-2.7222 -1.32333 -0.311574)
(-2.62998 -0.619136 -0.289613)
(-2.28869 -0.411199 -0.737872)
(-2.13041 -0.139757 -0.945088)
(-2.27239 -0.220564 -1.75059)
(-2.48911 -0.447742 -2.27888)
(-3.1095 0.493877 -1.93947)
(-2.69257 0.853649 -2.23781)
(-2.72842 0.930228 -1.41638)
(-2.1662 0.767613 -1.83126)
(-2.07469 -1.39691 -0.302246)
(-1.73432 -1.31334 -0.483317)
(-1.59758 -0.731377 -0.642743)
(-1.50159 -0.578185 -1.19967)
(-1.84567 -0.316479 -1.63156)
(-2.22135 -0.223678 -1.89294)
(-2.31127 0.194499 -2.17181)
(-1.9595 0.642435 -2.26353)
(-1.95706 1.01472 -2.20511)
(-2.01506 1.08983 -2.14463)
(-1.5863 1.29057 -1.78535)
(-1.19932 0.592409 -1.64144)
(-0.932526 -0.334471 -0.770626)
(-0.392066 -0.364147 -1.2358)
(0.0522425 -0.399569 -2.07332)
(-0.246867 -0.467594 -2.56259)
(-0.902329 -0.237549 -2.65384)
(-1.51081 0.0788242 -2.2828)
(-1.05644 0.416583 -2.1371)
(-0.456782 0.767214 -1.17566)
(-0.362513 0.848861 -0.756322)
(-0.820064 1.33125 -0.82668)
(-0.301001 1.44074 -0.632127)
(-0.231361 1.11347 -0.439718)
(-0.398314 0.30426 -0.788744)
(-0.175721 -0.0597499 -1.4233)
(0.104739 0.0526055 -2.08625)
(0.124937 0.0727038 -2.14043)
(-0.0213712 -0.0571158 -2.29814)
(-0.0901785 -0.134246 -2.20799)
(-0.463262 0.338957 -2.0611)
(-0.177625 1.28959 -1.43498)
(0.00449903 1.75675 -0.611257)
(0.336446 0.832971 -0.501358)
(0.295866 1.05441 -0.376429)
(0.474011 1.13612 -0.264759)
(0.975119 0.828082 -0.075278)
(0.526056 0.41334 0.0502996)
(0.307781 0.186602 -0.514044)
(0.0965281 0.239128 -1.62597)
(0.131392 0.248905 -1.60852)
(0.194751 0.487996 -1.54216)
(0.0837497 0.684839 -1.38433)
(-0.236847 1.09121 -1.20383)
(-0.533521 1.57368 -1.30115)
(-0.302286 2.29832 -0.259286)
(0.481889 2.11587 -0.696035)
(0.874444 1.78635 -0.453166)
(0.98516 1.27937 -0.165992)
(1.05691 1.10087 -0.0657171)
(1.42802 0.915044 0.2009)
(1.4569 0.563552 0.215701)
(1.26805 0.181607 0.128013)
(1.24305 -0.0653818 -0.127942)
(-2.14753 0.0705577 2.76566)
(-2.33189 -0.211564 2.80077)
(-2.19584 0.248863 2.86466)
(-2.55361 -0.477549 2.88979)
(-2.47919 0.346463 2.96381)
(-2.63649 -0.389565 3.12126)
(-2.89576 -0.0190819 3.02645)
(-3.0312 0.554124 3.12765)
(-2.76785 -0.5083 3.20517)
(-3.01742 0.0447429 3.19422)
(-3.13472 0.655853 3.34593)
(-2.95315 0.301948 3.65297)
(-3.35532 -0.428974 2.98964)
(-3.45742 0.0196779 3.18928)
(-3.29485 0.507421 3.53716)
(-3.05804 0.0389501 3.83721)
(-3.32586 -0.791015 3.12196)
(-3.53148 0.599578 3.13112)
(-3.34923 0.55426 3.30506)
(-3.34841 -0.0341843 3.41466)
(-3.04462 -0.773234 3.52456)
(-3.49772 -0.325846 2.65257)
(-3.85961 0.412139 2.40258)
(-3.75116 0.491542 2.29949)
(-3.22527 -0.185242 2.35907)
(-2.66821 -1.04831 2.50725)
(-2.272 -1.02044 2.09265)
(-3.57604 -0.30575 1.82847)
(-3.77767 0.200468 1.17035)
(-3.42438 0.0867664 1.01239)
(-2.32161 -0.329691 0.485914)
(-1.9134 -1.03869 0.688707)
(-1.99005 -1.35366 0.221479)
(-2.68298 -0.895446 -0.0437761)
(-3.38114 -0.743732 0.387314)
(-3.25866 -0.225521 -0.211523)
(-2.9132 -0.100522 -0.514264)
(-2.84319 -0.773137 -0.698526)
(-2.60699 -1.1176 -0.814288)
(-2.97374 -0.59427 -0.583503)
(-3.07835 -0.7203 -0.505516)
(-3.24022 -0.702047 -0.35106)
(-3.30579 -0.940763 -0.00604636)
(-3.19877 -0.616682 -0.431148)
(-3.04411 -0.238598 -0.475082)
(-2.81476 0.0343082 -1.13535)
(-2.70432 -0.730703 -0.704479)
(-2.68015 -1.09352 -0.514866)
(-2.74285 -0.818301 -0.828787)
(-2.6953 -0.738965 -0.629471)
(-2.71992 -0.264178 -0.775343)
(-3.28458 -1.16244 -0.374929)
(-2.85044 -1.16523 -0.0629806)
(-2.76457 -0.444461 -0.584709)
(-2.50287 -0.636641 -0.745302)
(-2.33556 -0.67485 -1.00508)
(-2.15782 -0.679069 -0.960725)
(-2.22433 -0.407286 -0.526573)
(-2.16834 -0.205405 -0.907853)
(-2.44035 -0.576342 -0.534798)
(-3.09646 -0.14438 -0.618878)
(-2.74044 -1.73719 -0.347412)
(-2.58176 -1.28518 -0.342188)
(-2.51651 -0.695465 -0.45978)
(-2.36161 -0.606381 -0.677541)
(-2.29032 -0.258117 -0.719517)
(-2.15882 -0.258782 -0.914686)
(-2.04402 -0.686242 -1.62394)
(-2.46992 -0.118362 -2.00268)
(-3.08859 -0.23959 -1.59944)
(-3.0386 0.386634 -1.30417)
(-2.42382 0.453229 -1.46868)
(-2.51009 -1.95474 -0.117429)
(-2.64536 -1.3084 -0.088758)
(-2.35917 -1.12383 -0.186828)
(-2.25053 -0.581268 -0.761652)
(-2.13973 -0.252429 -1.26474)
(-2.06281 -0.879984 -2.12796)
(-2.73023 -0.521495 -2.42793)
(-2.96941 -0.524344 -2.17449)
(-3.12948 -0.0316105 -1.90026)
(-2.76879 0.558288 -1.40166)
(-2.31739 0.731644 -1.58846)
(-1.99229 0.507068 -1.83082)
(-1.75389 -1.6501 -0.352673)
(-1.70417 -1.31563 -0.58466)
(-1.45545 -0.871176 -0.69114)
(-1.46626 -0.559138 -1.5268)
(-1.6502 -0.522077 -2.13787)
(-2.28038 -0.348196 -2.09874)
(-2.22938 0.0221598 -2.19842)
(-1.90173 0.459548 -2.03123)
(-1.90929 1.00666 -1.90315)
(-2.0116 1.09596 -2.06263)
(-1.62987 1.32444 -1.70431)
(-1.25069 0.60449 -1.54226)
(-1.32176 0.068854 -1.5157)
(-0.750796 -0.429194 -0.120721)
(-0.365937 -0.36263 -0.928867)
(0.0973552 -0.440202 -1.8903)
(-0.220872 -0.426107 -2.36558)
(-0.766747 -0.254131 -2.60351)
(-1.37888 0.0655846 -2.17982)
(-0.961272 0.400717 -1.93025)
(-0.286631 0.687409 -1.22971)
(-0.21489 0.855841 -0.654274)
(-0.713458 1.31626 -0.64941)
(-0.130295 1.26971 -0.493133)
(-0.0884132 0.95587 -0.257028)
(-0.416122 0.366259 -0.615137)
(-0.408631 0.174619 -0.843975)
(-0.137974 -0.115968 -1.42408)
(0.111142 0.0274661 -2.04464)
(0.139188 0.0253768 -2.1083)
(-0.00462579 -0.0956847 -2.23703)
(-0.0409124 -0.187112 -2.12281)
(-0.407171 0.296718 -2.00702)
(-0.243881 1.31354 -1.35173)
(-0.0329589 1.7832 -0.495381)
(0.320653 0.892237 -0.435563)
(0.370216 1.03377 -0.349046)
(0.54556 1.08702 -0.213454)
(1.07153 0.746896 -0.0249085)
(0.526798 0.429296 0.0330969)
(0.30368 0.188876 -0.513031)
(0.38101 0.353033 -0.639356)
(0.119861 0.225953 -1.62337)
(0.132101 0.246906 -1.60119)
(0.178541 0.49511 -1.53646)
(0.0833232 0.680849 -1.38169)
(-0.219095 1.08525 -1.20303)
(-0.532388 1.56928 -1.33695)
(-0.327183 2.32143 -0.305022)
(0.488122 2.11986 -0.666342)
(0.86902 1.80495 -0.451957)
(0.997694 1.29601 -0.156002)
(1.06851 1.11354 -0.00174732)
(1.44084 0.943716 0.195226)
(1.46033 0.575994 0.230154)
(1.26653 0.186446 0.135046)
(1.25377 -0.0977172 -0.111028)
(1.19607 -0.180246 -0.507738)
(-1.97557 -0.100884 2.56591)
(-2.26898 -0.155615 2.66298)
(-2.18787 0.233024 2.7445)
(-2.20225 -0.280078 3.03508)
(-2.29992 0.00393098 2.86132)
(-2.24676 0.393348 3.04261)
(-2.57511 -0.54819 2.85434)
(-2.54658 0.0523477 2.92317)
(-2.67651 0.495528 3.05024)
(-2.58015 -0.664201 3.16077)
(-2.88864 -0.0573222 3.02338)
(-3.05164 0.587505 3.1659)
(-2.89366 -0.0356147 3.50044)
(-2.64497 -0.891348 3.31413)
(-3.28069 -0.136195 3.16215)
(-3.1724 -0.142518 3.54631)
(-3.0061 -0.168113 3.68712)
(-2.8927 0.0634657 3.69678)
(-3.29706 -0.671369 3.15937)
(-3.48812 -0.485384 3.27458)
(-3.24103 -0.218072 3.65436)
(-3.10364 -0.242995 3.82961)
(-3.06471 -0.404801 3.73108)
(-3.45729 -0.755443 3.20902)
(-3.6845 -0.0309759 3.32662)
(-3.39185 0.166423 3.48514)
(-3.22325 -0.422436 3.61402)
(-2.96907 -0.968172 3.54788)
(-2.86308 -0.854523 3.21951)
(-2.97588 -0.943863 3.41088)
(-3.87779 0.152424 2.60753)
(-3.77185 0.439284 2.31127)
(-3.11947 -0.494011 2.44372)
(-2.6048 -1.49259 2.44423)
(-2.34583 -1.34877 2.21704)
(-2.64397 -1.04011 1.38907)
(-3.79599 -0.578336 1.54739)
(-3.7167 -0.238668 1.31206)
(-3.30082 -0.0659538 0.95329)
(-2.45604 -0.759948 0.755703)
(-1.97171 -1.27065 0.517226)
(-2.21426 -1.59027 0.660108)
(-2.75724 -1.09544 0.24088)
(-3.08169 -0.824001 0.321221)
(-3.36896 -1.03774 0.185565)
(-3.11656 -0.383293 -0.310275)
(-2.82129 -0.520895 -0.398391)
(-2.75629 -0.950919 -0.636795)
(-2.61795 -1.08419 -0.92954)
(-2.58714 -2.12799 0.444789)
(-3.03681 -0.885986 -0.267021)
(-3.33225 -0.978415 -0.21224)
(-3.33087 -0.651631 -0.797805)
(-3.07548 -1.29156 -0.18714)
(-3.19046 -0.641156 -0.515234)
(-2.94054 -0.707122 -0.474308)
(-2.81746 -1.05044 -0.710089)
(-2.73011 -0.92871 -0.50824)
(-2.76074 -1.27284 -0.675337)
(-2.72705 -0.900639 -0.783208)
(-2.71104 -0.931152 -0.560013)
(-2.73878 -0.552969 -0.679663)
(-3.03513 -0.242531 -0.595913)
(-3.06325 -1.43066 -0.285286)
(-2.84113 -0.809221 -0.399638)
(-2.61118 -0.889068 -0.644455)
(-2.44237 -0.788996 -0.756768)
(-2.39546 -0.894742 -0.944933)
(-2.2414 -0.720163 -0.855341)
(-2.2366 -0.395438 -0.532069)
(-2.18055 -0.408979 -0.793222)
(-2.62105 0.0349673 -1.04209)
(-3.11841 0.0133231 -0.563214)
(-2.82654 0.177591 -1.29226)
(-2.4721 -1.79113 -0.422268)
(-2.53437 -1.22276 0.0328608)
(-2.39518 -0.930796 -0.369245)
(-2.28626 -0.801563 -0.559653)
(-2.33037 -0.330069 -0.748821)
(-2.16076 -0.332496 -0.914623)
(-2.2281 -0.245253 -1.70287)
(-2.46651 -1.19694 -1.66942)
(-3.08122 -0.468926 -1.58164)
(-3.23294 -0.0552957 -1.17227)
(-2.46957 0.504784 -1.42547)
(-2.25463 0.414081 -1.56438)
(-2.49614 -1.90229 -0.105804)
(-2.41527 -1.51936 0.083285)
(-2.37374 -0.953869 -0.487123)
(-2.42419 -0.383257 -0.764434)
(-2.19387 -0.420369 -1.54719)
(-2.6189 -0.401823 -2.14198)
(-2.52796 -1.12171 -2.45034)
(-2.92195 -0.586312 -2.20744)
(-3.00635 0.00205186 -1.96972)
(-2.80556 0.594327 -1.37277)
(-2.35044 0.465167 -1.53923)
(-1.88404 0.422878 -1.8673)
(-1.87372 0.157853 -2.00369)
(-1.70857 -1.67281 -0.243976)
(-1.66661 -1.23896 -0.721771)
(-1.42452 -0.902201 -0.822443)
(-1.43012 -0.545817 -1.84922)
(-1.5719 -0.753854 -2.39956)
(-2.04724 -0.633197 -2.37459)
(-2.18769 -0.0932208 -2.12678)
(-1.85845 0.510071 -1.73416)
(-1.74949 0.885857 -1.52713)
(-1.98254 0.942477 -1.69603)
(-1.53186 1.07958 -1.61539)
(-1.23347 0.87827 -1.29417)
(-1.24971 0.113456 -1.31822)
(-1.42294 0.566541 -1.44571)
(-0.687299 -0.455601 0.171058)
(-0.365887 -0.347095 -0.856883)
(0.146497 -0.476534 -1.72613)
(-0.202869 -0.378005 -2.13169)
(-0.601099 -0.329577 -2.39662)
(-1.13918 -0.0615777 -2.09794)
(-0.799691 0.358277 -1.74386)
(-0.135816 0.673622 -1.30565)
(-0.0591231 0.893161 -0.584425)
(-0.588221 1.25515 -0.524432)
(0.0234864 1.15262 -0.395531)
(0.0709405 0.81105 -0.22803)
(-0.442961 0.403999 -0.467317)
(-0.371019 0.127455 -0.813367)
(-0.533932 0.738186 -1.21493)
(-0.0993857 -0.157776 -1.44317)
(0.13025 0.00187452 -1.98834)
(0.147042 -0.016118 -2.07819)
(0.022822 -0.12698 -2.17612)
(-0.0029736 -0.233088 -2.03373)
(-0.34126 0.220892 -1.94299)
(-0.266187 1.50597 -1.10015)
(-0.0640786 1.80784 -0.319877)
(0.294947 0.918515 -0.414905)
(0.426256 1.00747 -0.354859)
(0.638957 1.04897 -0.128414)
(1.06208 0.790897 -0.155123)
(0.543971 0.441259 0.0281557)
(0.301753 0.186674 -0.519269)
(0.437747 0.344221 -0.60966)
(0.382151 0.0149569 -1.07576)
(0.142853 0.21941 -1.61906)
(0.146076 0.239902 -1.59419)
(0.154266 0.507909 -1.52854)
(0.0752902 0.680056 -1.37804)
(-0.271109 1.08195 -1.18475)
(-0.533838 1.54971 -1.34529)
(-0.320942 2.33958 -0.310132)
(0.487776 2.12383 -0.616262)
(0.836083 1.8141 -0.452373)
(0.987698 1.30078 -0.143939)
(1.08265 1.13267 -0.0520961)
(1.42991 0.966849 0.165931)
(1.4537 0.610733 0.245538)
(1.26839 0.217977 0.174517)
(1.26599 -0.0791589 -0.0762071)
(1.20688 -0.201867 -0.444289)
(1.14684 -0.829125 -0.639778)
(-1.98338 -0.0319172 2.3634)