/*--------------------------------*- C++ -*----------------------------------*\
  =========                 |
  \\      /  F ield         | OpenFOAM: The Open Source CFD Toolbox
   \\    /   O peration     | Website:  https://openfoam.org
    \\  /    A nd           | Version:  7
     \\/     M anipulation  |
\*---------------------------------------------------------------------------*/
FoamFile
{
    version     2.0;
    format      ascii;
    class       volVectorField;
    location    "9.5";
    object      U;
}
// * * * * * * * * * * * * * * * * * * * * * * * * * * * * * * * * * * * * * //

dimensions      [0 1 -1 0 0 0 0];

internalField   nonuniform List<vector> 
18870
(
(0.986676 0.206477 -1.61715)
(0.841628 0.269259 -1.5219)
(0.98507 0.206962 -1.53365)
(1.09042 0.0517514 -1.69508)
(0.609174 0.464152 -1.65748)
(0.784157 0.271212 -1.50935)
(0.825786 0.0774407 -1.8409)
(0.979752 0.209272 -1.45025)
(1.02276 0.0455923 -1.69194)
(1.08745 -0.206629 -1.55102)
(0.984793 0.829277 -1.22579)
(0.615818 0.498724 -1.63158)
(0.752017 0.378866 -2.03654)
(0.754746 0.284245 -1.51936)
(0.807313 0.0967048 -1.83946)
(0.912902 0.0135057 -1.83492)
(0.967529 0.211518 -1.38546)
(0.989938 0.052459 -1.6755)
(1.08732 -0.203198 -1.55363)
(0.827068 -0.402989 -1.39341)
(0.932006 1.54742 -0.387664)
(1.043 0.882774 -1.3272)
(0.949175 0.676329 -1.6156)
(0.646874 0.401136 -1.70874)
(0.793108 0.388861 -2.03166)
(0.951294 0.354073 -2.06132)
(0.743257 0.281686 -1.54799)
(0.812837 0.118366 -1.82355)
(0.847093 0.00287355 -1.86704)
(0.632403 -0.0353248 -1.88714)
(0.961648 0.213655 -1.35069)
(0.983627 0.042206 -1.65486)
(1.10087 -0.198257 -1.57466)
(0.83251 -0.39958 -1.38334)
(0.457512 -0.446505 -1.59861)
(1.07666 2.09886 -0.227686)
(1.06016 1.44609 -0.652217)
(1.00292 1.49105 -0.653919)
(1.13388 0.765071 -1.37564)
(0.911199 0.655096 -1.65149)
(0.941917 0.404738 -1.67462)
(0.648834 0.427872 -1.74495)
(0.790196 0.398365 -2.0034)
(0.918612 0.338539 -2.08834)
(0.895567 0.26626 -1.92557)
(0.697245 0.287814 -1.59629)
(0.851371 0.153304 -1.78698)
(0.739266 -0.0227089 -1.91329)
(0.723618 -0.0277011 -1.86223)
(0.413011 -0.0097757 -1.84478)
(0.928159 0.205256 -1.34721)
(0.978359 0.0594211 -1.64076)
(1.10515 -0.187852 -1.59678)
(0.848146 -0.402519 -1.37695)
(0.463017 -0.443061 -1.59655)
(0.290646 -0.412224 -1.60114)
(1.54712 2.19087 -0.201664)
(1.19744 1.97904 -0.371475)
(1.17274 1.71007 -0.449898)
(1.04173 1.38779 -0.877891)
(0.883445 1.43658 -0.543407)
(0.971629 1.04893 -0.680106)
(1.11143 0.783969 -1.32801)
(0.870405 0.642097 -1.65378)
(0.905339 0.388012 -1.63746)
(0.76256 0.289508 -1.7695)
(0.764 0.45209 -1.6697)
(0.751694 0.376585 -1.98968)
(0.875751 0.302703 -2.10107)
(0.778935 0.219349 -1.95542)
(0.676242 0.473379 -1.75468)
(0.725874 0.27214 -1.60378)
(0.867711 0.178674 -1.75693)
(0.756171 -0.0152131 -1.90426)
(0.794824 -0.0117445 -1.83868)
(0.425354 -0.000962428 -1.85391)
(0.384368 0.106447 -1.98019)
(0.896214 0.18751 -1.34069)
(0.985321 0.059329 -1.62092)
(1.11202 -0.192664 -1.59381)
(0.856035 -0.396231 -1.37113)
(0.472016 -0.442418 -1.59325)
(0.295423 -0.412262 -1.60073)
(-0.107369 -0.111551 -2.05648)
(1.49592 2.29405 0.777662)
(1.49176 2.09561 -0.101921)
(0.983087 1.78475 -0.140044)
(1.17359 1.87125 -0.51883)
(1.07439 1.70281 -0.475315)
(1.17533 1.50765 -0.313931)
(0.983833 1.289 -1.01843)
(0.776086 1.35247 -0.617444)
(0.727416 1.02744 -0.590852)
(0.750991 0.776015 -0.72933)
(1.03218 0.699199 -1.36166)
(0.827119 0.603853 -1.65014)
(0.799275 0.405347 -1.59323)
(0.677862 0.311739 -1.71557)
(0.730069 0.447225 -1.66493)
(0.715426 0.438643 -1.70408)
(0.692231 0.36504 -1.98473)
(0.826695 0.289244 -2.08912)
(0.680001 0.180524 -1.99127)
(0.568615 0.410489 -1.76176)
(0.50329 0.561035 -1.85442)
(0.659811 0.271318 -1.62333)
(0.807228 0.184506 -1.76651)
(0.737057 -0.0173013 -1.90333)
(0.805751 -0.0112151 -1.84417)
(0.415996 -0.0207376 -1.86704)
(0.356811 0.100795 -1.9575)
(0.312255 0.33186 -2.5444)
(0.870828 0.17728 -1.33039)
(0.982208 0.0703199 -1.60641)
(1.10933 -0.186782 -1.59031)
(0.880331 -0.39562 -1.36039)
(0.47656 -0.44363 -1.59133)
(0.301805 -0.410951 -1.60003)
(-0.117561 -0.116878 -2.05136)
(-0.022845 -0.285483 -2.37392)
(1.70265 2.77718 1.49839)
(1.08819 2.14408 0.626497)
(0.935392 2.0825 0.594009)
(1.07657 2.0775 -0.0887182)
(0.75184 1.75953 -0.169408)
(0.842826 1.71658 0.0435819)
(0.988327 1.72895 -0.708029)
(0.961791 1.64046 -0.488127)
(1.10238 1.41804 -0.318977)
(1.28327 1.36859 -0.515834)
(0.87256 1.24836 -1.08866)
(0.65982 1.28318 -0.676282)
(0.561084 0.851721 -0.714537)
(0.58509 0.650711 -0.66803)
(0.880352 0.755881 -0.706671)
(1.01916 0.674295 -1.35552)
(0.672073 0.564951 -1.62979)
(0.652019 0.365091 -1.61256)
(0.515081 0.294327 -1.63446)
(0.683634 0.371618 -1.70411)
(0.743944 0.563586 -1.56269)
(0.627627 0.405389 -1.74666)
(0.626188 0.368386 -1.96783)
(0.732261 0.25764 -2.08249)
(0.626863 0.175143 -2.00833)
(0.520748 0.365169 -1.7686)
(0.422331 0.555649 -1.82754)
(0.206662 0.610957 -2.28816)
(0.596899 0.24721 -1.63643)
(0.726233 0.158935 -1.7887)
(0.714505 -0.0130732 -1.89788)
(0.818616 -0.0039329 -1.8541)
(0.413096 -0.0264971 -1.87403)
(0.342392 0.103467 -1.93758)
(0.222399 0.323867 -2.50488)
(0.123392 0.0250285 -2.63897)
(0.85934 0.172521 -1.31866)
(0.965335 0.0639359 -1.60166)
(1.1059 -0.178524 -1.58304)
(0.887198 -0.40069 -1.3575)
(0.48683 -0.441885 -1.58818)
(0.307108 -0.411423 -1.59746)
(-0.127837 -0.122148 -2.04558)
(-0.0361086 -0.288456 -2.36529)
(-0.0237291 -0.289067 -2.47549)
(1.73474 3.13162 2.07028)
(1.27155 2.69613 1.42597)
(0.77937 2.63243 1.26166)
(0.746852 2.07783 0.47883)
(1.01775 2.03041 0.622971)
(0.520497 2.41826 0.917168)
(0.803806 1.94589 -0.190623)
(0.752725 1.72209 -0.075668)
(0.528394 1.75924 -0.13358)
(0.589403 1.8583 0.157921)
(0.665515 1.58607 -0.836059)
(0.892641 1.5353 -0.563337)
(0.839046 1.36917 -0.378633)
(1.06913 1.27972 -0.388329)
(1.1289 1.4479 -0.29662)
(0.701507 1.24139 -1.08688)
(0.563913 1.14724 -0.786746)
(0.287662 0.851378 -0.732722)
(0.414857 0.5482 -0.635148)
(0.720265 0.627169 -0.73135)
(0.80992 0.764159 -0.745201)
(0.852938 0.612818 -1.40291)
(0.472043 0.486318 -1.68274)
(0.418726 0.357825 -1.61031)
(0.430522 0.285063 -1.63898)
(0.572382 0.325585 -1.65012)
(0.764769 0.51521 -1.56108)
(0.279341 0.796374 -1.77228)
(0.563593 0.386073 -1.76503)
(0.563389 0.353584 -1.97578)
(0.63237 0.244027 -2.07785)
(0.525798 0.130884 -2.01992)
(0.460565 0.322921 -1.78535)
(0.392965 0.515403 -1.79407)
(0.0790945 0.595251 -2.25613)
(-0.122473 0.238051 -2.33032)
(0.532108 0.229373 -1.65089)
(0.687609 0.167646 -1.78561)
(0.702386 -0.0102355 -1.88323)
(0.79315 -0.00104019 -1.87432)
(0.42469 -0.0327842 -1.87674)
(0.329848 0.0992372 -1.92248)
(0.136203 0.319496 -2.4607)
(0.0696219 0.0143494 -2.6122)
(0.0268218 -0.0862487 -2.50936)
(0.841602 0.163467 -1.31965)
(0.950385 0.0626537 -1.59726)
(1.09683 -0.174052 -1.57747)
(0.89199 -0.386035 -1.34847)
(0.49471 -0.442085 -1.58528)
(0.314287 -0.412329 -1.5942)
(-0.137143 -0.126962 -2.03902)
(-0.0437461 -0.292814 -2.35656)
(-0.0469238 -0.295694 -2.46077)
(0.168068 -0.528052 -2.33786)
(1.41395 3.59192 2.14274)
(1.10013 3.24586 2.08118)
(1.25257 3.41324 1.37922)
(0.769641 2.58001 1.45947)
(0.166806 2.59466 0.835831)
(0.584143 3.2341 0.674515)
(0.556066 2.09449 0.570766)
(0.766659 2.16053 0.5465)
(0.360796 2.45859 0.823788)
(0.750297 2.84209 0.41582)
(0.543973 1.78721 -0.211408)
(0.42626 1.61372 0.150767)
(0.16752 1.71971 0.17451)
(0.290182 1.96076 0.202599)
(0.693643 1.92118 0.506682)
(0.362843 1.3513 -1.02098)
(0.50273 1.42282 -0.606834)
(0.551031 1.27427 -0.30659)
(0.722837 1.23336 -0.208698)
(0.971179 1.43021 -0.194639)
(1.35296 1.49178 -0.419242)
(0.482093 1.19675 -1.03257)
(0.236087 0.997033 -1.00306)
(0.282159 0.674185 -0.874061)
(0.284931 0.440454 -0.701512)
(0.457589 0.529792 -0.753368)
(0.422518 0.563841 -0.743685)
(0.346528 0.537597 -0.79615)
(0.765358 0.539632 -1.36868)
(0.459532 0.536736 -1.61557)
(0.322616 0.319909 -1.63803)
(0.333456 0.312683 -1.6506)
(0.438945 0.302736 -1.63236)
(0.653454 0.507288 -1.53168)
(0.0955335 0.857747 -1.66451)
(-0.220933 0.610062 -1.74569)
(0.55677 0.394775 -1.74308)
(0.491756 0.333883 -1.98076)
(0.589321 0.238902 -2.07013)
(0.424911 0.0956702 -2.01236)
(0.417867 0.29455 -1.80345)
(0.324674 0.512729 -1.77411)
(-0.0347843 0.635059 -2.1974)
(-0.195549 0.232699 -2.31393)
(-0.135759 0.134926 -2.15906)
(0.504925 0.222727 -1.65958)
(0.644207 0.167299 -1.78543)
(0.656164 -0.0195212 -1.88427)
(0.78414 -0.00287605 -1.87896)
(0.442145 -0.0253147 -1.87278)
(0.325124 0.0966662 -1.91004)
(0.0559742 0.30241 -2.41859)
(0.0125605 0.0131743 -2.57868)
(-0.0379351 -0.106199 -2.48033)
(-0.0208482 -0.172383 -2.41363)
(0.827725 0.156303 -1.32317)
(0.928535 0.054593 -1.59902)
(1.085 -0.192918 -1.57306)
(0.91129 -0.379457 -1.35281)
(0.506785 -0.43774 -1.58202)
(0.311039 -0.413386 -1.5934)
(-0.147062 -0.13045 -2.03178)
(-0.051952 -0.296045 -2.34802)
(-0.0683912 -0.30543 -2.44644)
(0.147956 -0.534917 -2.33097)
(0.0789892 -0.739648 -2.21148)
(1.57168 3.54702 3.05946)
(1.46264 3.66095 2.03886)
(1.49068 3.61027 1.79965)
(0.95614 3.37656 1.70677)
(1.00355 3.5411 0.779294)
(0.766011 4.04571 0.187567)
(0.162262 2.45551 1.34018)
(-0.284308 2.56418 0.562312)
(-0.0169274 3.0865 0.539723)
(0.158298 3.59342 0.0644931)
(0.302039 2.16228 0.403594)
(0.430576 2.1905 0.585206)
(0.015334 2.51145 0.813142)
(-0.690174 2.63369 0.428721)
(0.440122 2.77168 0.387131)
(0.236861 1.72501 -0.297023)
(0.264019 1.4813 -0.157989)
(-0.289833 1.55894 0.278183)
(-0.294822 1.84666 0.31734)
(0.401894 1.91088 0.580551)
(0.446886 1.88557 0.607353)
(0.296263 1.31161 -1.00969)
(0.388409 1.20726 -0.577586)
(0.427538 1.18947 -0.464982)
(0.172264 1.11494 0.0376226)
(0.499689 1.39976 -0.0240792)
(1.09446 1.45766 -0.466927)
(0.254293 0.662988 0.20738)
(0.318886 1.07941 -1.02462)
(0.0308336 0.850742 -0.951912)
(0.0959331 0.628694 -0.971793)
(0.0592919 0.345411 -0.755298)
(0.0640491 0.38265 -0.729932)
(0.160807 0.456361 -0.838926)
(0.107081 0.542619 -0.613489)
(-0.377109 0.185741 -0.90994)
(0.592254 0.484301 -1.35426)
(0.21011 0.445071 -1.61448)
(0.125594 0.280659 -1.63677)
(0.115658 0.241399 -1.64924)
(0.358224 0.282484 -1.68129)
(0.431034 0.462931 -1.45446)
(-0.126726 0.782997 -1.55548)
(-0.452694 0.57479 -1.71544)
(-0.346432 0.653888 -1.75502)
(0.554205 0.431997 -1.71884)
(0.366564 0.302735 -2.00065)
(0.495348 0.246681 -2.08063)
(0.301614 0.0771842 -2.00928)
(0.328756 0.197194 -1.82466)
(0.296985 0.457516 -1.78419)
(-0.122278 0.629304 -2.14038)
(-0.339966 0.234918 -2.28468)
(-0.21514 0.0962697 -2.16162)
(-0.351459 0.0099717 -1.952)
(0.477651 0.222078 -1.67161)
(0.602202 0.168535 -1.78544)
(0.633173 -0.0220845 -1.87603)
(0.723793 0.00906007 -1.89541)
(0.468316 -0.0122357 -1.86103)
(0.332466 0.0913679 -1.9012)
(-0.0247291 0.291748 -2.38076)
(-0.0550936 -0.000628636 -2.54555)
(-0.0951921 -0.125521 -2.45227)
(-0.0807811 -0.166497 -2.39965)
(-0.385036 -0.214812 -2.28454)
(0.820095 0.153749 -1.32546)
(0.905042 0.0369952 -1.60252)
(1.07068 -0.181892 -1.57416)
(0.916831 -0.393561 -1.36371)
(0.520407 -0.434387 -1.57843)
(0.322534 -0.409152 -1.58751)
(-0.155572 -0.133338 -2.02362)
(-0.0590487 -0.297211 -2.33995)
(-0.085911 -0.311855 -2.43417)
(0.123485 -0.539147 -2.32406)
(0.0615414 -0.754611 -2.20806)
(0.00749609 -0.674068 -1.86939)
(1.10633 3.44195 3.37412)
(1.0174 4.11777 2.51792)
(1.48512 3.96591 2.316)
(1.12855 3.67555 2.11799)
(0.966501 3.58049 1.85407)
(1.06976 3.7168 1.37409)
(0.623305 3.36278 1.70249)
(0.595291 3.59007 0.750625)
(0.489048 4.21325 0.0762094)
(0.494993 3.5959 -0.312749)
(0.034379 2.37614 0.998288)
(-0.403015 2.65006 0.566032)
(-0.249417 2.94305 0.141411)
(-0.419953 3.33551 0.0820884)
(0.2051 3.44573 0.220041)
(-0.0153676 2.06007 0.691138)
(0.11949 2.13071 0.475801)
(-0.15846 2.55633 0.586159)
(0.438076 3.09595 0.394245)
(-0.026845 2.77428 0.480845)
(0.208491 2.73903 0.610281)
(-0.0135536 1.56544 -0.291265)
(0.0153115 1.36224 -0.138255)
(-0.533392 1.47215 0.338462)
(-0.67723 1.73364 0.383261)
(-0.165538 1.82987 0.573347)
(-0.0997252 1.86 0.634165)
(0.0482592 1.8234 0.980274)
(0.0510153 1.19511 -0.872984)
(0.324663 1.14932 -0.712525)
(-0.176205 0.982816 -0.320672)
(0.09317 1.13397 0.0440968)
(0.266343 1.42115 0.0122949)
(0.587895 1.36365 -0.381647)
(-0.00269496 0.570382 0.331578)
(-0.0118485 0.0772866 -0.0409551)
(0.0774459 1.03374 -0.899009)
(-0.0636703 0.735103 -1.01639)
(-0.0885953 0.525851 -0.94651)
(0.188088 0.380862 -0.892001)
(0.0706781 0.365935 -0.927541)
(-0.136908 0.350279 -0.912036)
(-0.101819 0.50705 -0.630069)
(-0.476016 0.231547 -0.97043)
(-0.407886 0.617621 -1.31774)
(0.485794 0.411322 -1.2905)
(0.0281302 0.392525 -1.60128)
(-0.120392 0.16548 -1.61821)
(-0.0740056 0.147958 -1.60296)
(0.0820959 0.215306 -1.57092)
(0.320037 0.456774 -1.4388)
(-0.301799 0.746493 -1.3754)
(-0.576383 0.59044 -1.6742)
(-0.482741 0.678622 -1.79667)
(-0.809739 0.476253 -1.5542)
(0.498069 0.413887 -1.71867)
(0.262883 0.27306 -1.99973)
(0.386745 0.236859 -2.0973)
(0.211855 0.0561531 -2.00703)
(0.222828 0.200474 -1.81616)
(0.235112 0.523364 -1.8057)
(-0.282874 0.652231 -2.05849)
(-0.443489 0.231583 -2.26206)
(-0.250632 0.113753 -2.16243)
(-0.437808 0.014968 -1.92722)
(-0.589249 -0.15433 -1.82438)
(0.47429 0.237174 -1.67123)
(0.558678 0.167716 -1.78684)
(0.590238 -0.0326891 -1.87378)
(0.724386 0.00784716 -1.88308)
(0.483536 -0.0102434 -1.8516)
(0.325638 0.0883956 -1.89143)
(-0.0774094 0.286098 -2.35035)
(-0.128769 -0.00897747 -2.5143)
(-0.151227 -0.145874 -2.42058)
(-0.130461 -0.159569 -2.38719)
(-0.409198 -0.197644 -2.28257)
(-0.357132 -0.247495 -2.23797)
(0.810551 0.141805 -1.33391)
(0.88873 0.0341108 -1.60301)
(1.06481 -0.196024 -1.56781)
(0.923397 -0.38345 -1.36125)
(0.530337 -0.430418 -1.57625)
(0.323744 -0.410804 -1.5848)
(-0.164805 -0.135838 -2.01533)
(-0.0663266 -0.298733 -2.33226)
(-0.0976587 -0.319661 -2.42377)
(0.121761 -0.53316 -2.31803)
(-0.0143631 -0.736375 -2.20397)
(0.0374155 -0.687678 -1.85522)
(0.0205689 -0.493021 -1.62418)
(1.2029 3.30956 3.00018)
(1.23184 3.37388 3.45061)
(1.42192 3.54422 3.243)
(0.757713 4.55078 1.79007)
(1.06412 4.25291 2.15251)
(0.302292 3.66073 2.57567)
(0.869881 3.79035 1.91197)
(0.326751 3.49093 1.96472)
(0.416489 3.79608 1.40643)
(-0.0193843 3.63994 1.37957)
(0.495796 3.27316 1.42494)
(0.135741 3.52415 0.988096)
(0.58726 4.07426 -0.160979)
(-0.0583925 3.32698 0.319376)
(-0.430084 3.14316 0.68164)
(-0.110364 2.31664 0.865209)
(-0.570332 2.73573 0.21109)
(-0.742994 2.52748 0.403209)
(-1.04228 3.12241 0.206691)
(-0.779167 3.37135 0.217531)
(-0.427376 3.51718 0.62701)
(-0.320126 2.02925 0.478469)
(-0.404856 2.02572 0.363688)
(-0.447991 2.4968 0.380086)
(-1.26736 2.89486 0.370718)
(-0.260001 2.91687 0.54553)
(-0.220144 2.71265 0.57726)
(-0.486339 2.57878 0.988707)
(-0.0461807 1.48165 -0.329262)
(-0.449316 1.08454 -0.0457179)
(-0.946253 1.35405 0.257627)
(-1.164 1.58569 0.398082)
(-0.648939 1.68361 0.590792)
(-0.223586 1.94866 0.484271)
(-0.195852 1.82973 0.942248)
(-0.126987 1.48538 0.805277)
(-0.130581 1.02912 -0.850756)
(-0.108837 0.904713 -0.704189)
(-0.0882563 0.965133 -0.527366)
(-0.414298 0.950905 0.325532)
(-0.112714 1.29319 0.16933)
(-0.159771 1.12971 0.0249984)
(-0.260948 0.508494 0.341631)
(-0.136537 0.139838 -0.202877)
(-0.307664 0.348062 -0.762481)
(-0.0614142 0.908954 -0.916586)
(-0.195767 0.686279 -0.999759)
(-0.0848349 0.510597 -1.01121)
(-0.0252639 0.265202 -1.0715)
(-0.521875 0.140893 -0.868359)
(-0.567335 0.205833 -0.944946)
(-0.368511 0.490254 -0.38875)
(-0.574853 0.249771 -1.03248)
(-0.512861 0.617486 -1.42761)
(-0.465649 0.865779 -1.17394)
(0.314638 0.417933 -1.19202)
(-0.0833813 0.327634 -1.60924)
(-0.21074 0.159286 -1.63188)
(-0.234264 0.0908595 -1.57007)
(-0.050912 0.221201 -1.56013)
(0.160285 0.465686 -1.4476)
(-0.467026 0.75516 -1.2678)
(-0.664115 0.607359 -1.67561)
(-0.819941 0.60783 -1.71881)
(-0.807143 0.440329 -1.5301)
(-0.737684 0.200403 -1.47283)
(0.398144 0.373912 -1.71898)
(0.159462 0.263226 -1.98947)
(0.259318 0.185866 -2.10941)
(0.128395 0.071742 -2.0097)
(0.19922 0.166021 -1.8017)
(0.217281 0.458736 -1.81363)
(-0.429018 0.6279 -1.98371)
(-0.493336 0.245767 -2.25856)
(-0.343219 0.0884964 -2.15207)
(-0.527159 0.0100976 -1.90083)
(-0.647714 -0.149869 -1.80166)
(-0.666361 -0.127552 -1.8936)
(0.432284 0.232056 -1.67717)
(0.507008 0.158376 -1.79228)
(0.539068 -0.0413762 -1.87458)
(0.660209 -0.00938669 -1.88693)
(0.452578 -0.0242254 -1.84947)
(0.304909 0.0787994 -1.88301)
(-0.126072 0.287765 -2.32512)
(-0.185633 -0.0277381 -2.48241)
(-0.200037 -0.170426 -2.39076)
(-0.17854 -0.153944 -2.37346)
(-0.43658 -0.178975 -2.27839)
(-0.380126 -0.227109 -2.23651)
(-0.524238 -0.0951914 -2.15394)
(0.804462 0.133677 -1.33852)
(0.882241 0.0302045 -1.59973)
(1.05747 -0.195923 -1.56979)
(0.939052 -0.368753 -1.36419)
(0.542239 -0.42399 -1.57448)
(0.329798 -0.410388 -1.58457)
(-0.172093 -0.138615 -2.00654)
(-0.0747679 -0.298325 -2.3251)
(-0.111289 -0.326933 -2.41505)
(0.136236 -0.544958 -2.31023)
(0.0963308 -0.741101 -2.19228)
(0.0254577 -0.677853 -1.84946)
(0.0139238 -0.488831 -1.60949)
(0.442585 -0.455937 -1.32978)
(0.715599 2.8302 3.09728)
(1.14849 3.35088 3.18468)
(0.766327 3.17918 3.48745)
(0.883433 3.41716 3.51253)
(0.188286 3.4706 3.60656)
(0.338955 3.45558 3.64009)
(0.208062 4.27866 2.10305)
(0.543498 4.31835 2.11385)
(-0.0804745 3.68733 2.64785)
(-0.411875 3.53597 2.86381)
(0.566031 3.76263 1.80456)
(0.00473053 3.45956 2.00088)
(0.174969 4.03669 1.32192)
(-0.111583 3.88359 1.6386)
(-0.553512 3.30551 2.00583)
(0.00576473 2.93157 1.41671)
(-0.327007 3.3289 1.19422)
(-0.0830949 3.7428 0.37382)
(-0.90832 2.71411 1.32057)
(-0.648214 3.05629 0.953183)
(-0.565521 3.55481 0.968153)
(-0.421949 2.30019 0.608216)
(-0.605118 2.77782 -0.00892475)
(-0.899887 2.50102 0.491418)
(-1.62787 3.05081 0.2028)
(-1.32875 3.07901 0.615646)
(-0.802077 3.50944 0.602416)
(-0.838837 3.38324 1.03904)
(-0.453328 1.94012 0.253322)
(-0.776122 1.92964 0.204769)
(-1.21398 2.20125 0.281071)
(-1.71783 2.6836 0.353263)
(-0.900805 2.90659 0.537214)
(-0.540221 2.65653 0.519144)
(-0.892932 2.51477 0.904817)
(-0.290732 2.40224 1.21318)
(-0.227299 1.34778 -0.520618)
(-0.630603 1.07484 -0.00964105)
(-1.36602 1.02279 0.23673)
(-1.38895 1.78319 0.338169)
(-0.916755 1.76462 0.686004)
(-0.852459 1.80335 0.510054)
(-0.59679 1.78069 0.944327)
(-0.477214 1.23673 0.922517)
(-0.305939 0.647095 1.26911)
(-0.206984 0.967271 -0.897274)
(-0.170404 0.821574 -0.873141)
(-0.735073 0.729025 -0.310377)
(-0.671116 0.93332 0.269546)
(-0.468721 1.25285 0.14955)
(-0.306267 1.11445 0.159898)
(-0.432704 0.443832 0.138881)
(-0.24747 0.257992 -0.214544)
(-0.419948 0.400872 -0.943687)
(-0.613331 0.555312 -0.81491)
(-0.431581 0.637541 -0.754669)
(-0.238601 0.609509 -1.06673)
(-0.22259 0.434504 -1.06189)
(-0.268461 0.190378 -1.05447)
(-0.575204 0.0705908 -0.963257)
(-0.828834 0.0287689 -0.881519)
(-0.47494 0.473123 -0.523991)
(-0.538211 0.347364 -1.17227)
(-0.61863 0.594712 -1.4807)
(-0.609262 0.800631 -1.14126)
(-0.609689 0.766472 -1.21843)
(0.167292 0.348212 -1.1689)
(-0.413302 0.183531 -1.4773)
(-0.202848 0.189631 -1.70936)
(-0.309513 0.100836 -1.58999)
(-0.138338 0.254427 -1.61855)
(-0.0481269 0.490701 -1.42693)
(-0.577973 0.7809 -1.1926)
(-0.792891 0.551988 -1.70574)
(-0.822159 0.590615 -1.72002)
(-0.859288 0.396835 -1.44782)
(-0.834679 0.162936 -1.37143)
(-0.709097 0.229549 -1.58821)
(0.307343 0.349834 -1.69579)
(0.0206081 0.246088 -1.99574)
(0.121625 0.139958 -2.10217)
(0.10547 0.061857 -2.02551)
(0.065112 0.118878 -1.78182)
(-0.0149954 0.401037 -1.80509)
(-0.601352 0.605399 -1.88697)
(-0.550152 0.266099 -2.24349)
(-0.451174 0.0478988 -2.11908)
(-0.622073 -0.00477796 -1.89697)
(-0.686599 -0.141823 -1.78602)
(-0.745983 -0.137007 -1.87337)
(-0.770389 -0.00823859 -1.92116)
(0.42812 0.252499 -1.65284)
(0.447397 0.139625 -1.80275)
(0.495216 -0.0627462 -1.87566)
(0.602182 -0.0315667 -1.89379)
(0.436352 -0.0322021 -1.83872)
(0.278545 0.0728009 -1.87662)
(-0.188574 0.277349 -2.30474)
(-0.213729 -0.0283512 -2.46326)
(-0.260147 -0.18768 -2.35112)
(-0.248225 -0.141264 -2.35624)
(-0.459674 -0.168987 -2.27686)
(-0.416919 -0.202793 -2.22349)
(-0.631973 -0.0934265 -2.12765)
(-0.291401 -0.180243 -1.94205)
(0.791518 0.139796 -1.33845)
(0.868749 0.0294956 -1.60272)
(1.05997 -0.190321 -1.56664)
(0.942279 -0.374893 -1.36357)
(0.547399 -0.420736 -1.5735)
(0.332637 -0.410225 -1.58522)
(-0.179469 -0.13758 -1.99649)
(-0.081261 -0.30043 -2.31805)
(-0.129179 -0.336963 -2.40603)
(0.110751 -0.531931 -2.309)
(-0.0320756 -0.752488 -2.18927)
(0.0341029 -0.685239 -1.83638)
(0.00862591 -0.484933 -1.59317)
(0.45182 -0.44134 -1.29656)
(0.516287 -0.755716 -1.36134)
(0.577711 2.44239 3.16201)
(0.699277 2.95422 3.2352)
(0.322362 2.88505 3.46186)
(0.43692 3.23692 3.49542)
(0.408384 3.23547 3.57123)
(-0.0395145 3.14836 3.78147)
(0.482655 3.527 3.45925)
(0.0522999 3.53072 3.55837)
(-0.222988 3.4 3.71824)
(-0.872499 3.18812 3.92553)
(0.604321 4.5644 1.93852)
(-0.0382013 4.08152 2.42489)
(-0.669391 3.54775 2.84196)
(-0.627123 3.71471 2.95407)
(-1.15316 3.32372 3.43712)
(0.0769121 3.70621 1.76946)
(-0.488352 3.31971 2.13074)
(-0.499799 4.11054 1.38175)
(-1.70006 3.22769 2.40461)
(-1.41987 2.89143 2.55308)
(-0.914531 3.27851 2.45811)
(-0.668085 2.52449 1.37409)
(-0.790033 3.10532 1.2629)
(-1.01152 3.01869 1.16117)
(-1.10111 2.56575 1.52896)
(-0.853501 2.93014 1.45482)
(-0.891293 3.49636 1.31175)
(-1.05113 3.63656 1.63462)
(-0.725786 2.224 0.544157)
(-0.835436 2.53009 0.120366)
(-1.1298 2.43195 0.646708)
(-1.82476 2.95506 0.0250081)
(-1.18551 3.44507 0.591644)
(-1.31511 3.2557 0.726327)
(-1.30579 3.18228 1.24461)
(-0.911862 3.12789 1.60983)
(-0.845134 1.70987 0.09464)
(-1.03979 1.56831 0.324301)
(-1.47307 1.9177 0.36879)
(-2.01608 2.49332 0.289469)
(-1.69854 2.50097 0.688249)
(-0.953523 2.5924 0.615855)
(-1.12834 2.47102 1.17539)
(-0.660748 2.42105 1.25083)
(-1.06491 2.30907 1.23593)
(-0.570735 1.11586 -0.60365)
(-0.76549 0.962231 -0.423856)
(-1.49339 1.16111 0.125533)
(-1.81404 1.64766 0.314626)
(-1.63298 1.62172 0.417806)
(-1.26539 1.64534 0.420926)
(-0.828466 1.81235 0.809089)
(-0.770753 1.28187 0.74518)
(-0.700387 0.79193 1.1924)
(-0.467568 0.51377 1.66142)
(-0.394927 0.857785 -0.937005)
(-0.413047 0.69807 -0.891578)
(-0.127442 1.02399 -0.764609)
(-0.790705 0.904789 0.104264)
(-0.809677 1.1761 0.254286)
(-0.41628 1.16754 0.486334)
(-0.540297 0.416639 0.0790175)
(-0.322433 0.304178 -0.159516)
(-0.582552 0.446304 -0.830764)
(-0.736031 0.661745 -0.737436)
(-0.656001 0.736519 -1.00639)
(-0.379584 0.658565 -0.85318)
(-0.469074 0.507641 -1.04879)
(-0.408655 0.194743 -1.03725)
(-0.330344 0.0178193 -1.15363)
(-0.625822 0.0152556 -1.08058)
(-0.888504 -0.0329412 -0.820458)
(-0.693806 0.486161 -0.260009)
(-0.618902 0.355706 -1.29909)
(-0.628877 0.597493 -1.43564)
(-0.637563 0.703533 -1.19308)
(-0.723299 0.707994 -1.10677)
(-0.622616 0.730802 -1.19999)
(-0.0619206 0.255318 -1.0689)
(-0.401747 0.16652 -1.49387)
(-0.550545 0.0046848 -1.63595)
(-0.161583 0.210873 -1.70415)
(-0.232753 0.251006 -1.60238)
(-0.247126 0.429929 -1.41152)
(-0.680289 0.748495 -1.12955)
(-0.87489 0.57701 -1.72052)
(-0.910327 0.581373 -1.64109)
(-0.91599 0.338619 -1.41763)
(-0.877447 0.140734 -1.27591)
(-0.853681 0.20128 -1.48111)
(-0.792253 0.250654 -1.71461)
(0.20491 0.325812 -1.68436)
(-0.0902104 0.204177 -1.97098)
(0.0059742 0.141731 -2.11356)
(0.0438935 0.0503766 -2.01217)
(0.00169838 0.0786238 -1.79037)
(-0.0786616 0.363684 -1.80955)
(-0.699744 0.566485 -1.81261)
(-0.57548 0.286988 -2.23043)
(-0.621748 0.000647884 -2.02715)
(-0.722452 -0.0225854 -1.86775)
(-0.723767 -0.152185 -1.81471)
(-0.877458 -0.132373 -1.78829)
(-0.837865 -0.0315307 -1.92625)
(-0.881248 0.0390107 -1.7394)
(0.40301 0.266434 -1.62975)
(0.38272 0.115922 -1.81547)
(0.437411 -0.0820167 -1.88443)
(0.56784 -0.053006 -1.89637)
(0.424475 -0.0338164 -1.82791)
(0.259039 0.0623592 -1.87095)
(-0.266607 0.26882 -2.28302)
(-0.224977 -0.0209646 -2.45159)
(-0.310649 -0.206456 -2.32784)
(-0.319445 -0.146842 -2.33276)
(-0.486074 -0.152906 -2.26604)
(-0.419623 -0.171123 -2.23192)
(-0.715805 -0.0872163 -2.09983)
(-0.372089 -0.15742 -1.91817)
(-0.387896 -0.1268 -1.57398)
(0.78115 0.126942 -1.35101)
(0.865739 0.0278109 -1.60027)
(1.0761 -0.173404 -1.55529)
(0.941381 -0.37006 -1.35793)
(0.551692 -0.418638 -1.57211)
(0.339505 -0.408691 -1.58061)
(-0.182742 -0.137215 -1.98553)
(-0.088852 -0.300141 -2.31157)
(-0.136238 -0.347293 -2.3971)
(0.100391 -0.546298 -2.30058)
(0.0680263 -0.761598 -2.17697)
(0.0376386 -0.683523 -1.82628)
(0.00236408 -0.481023 -1.57583)
(0.4632 -0.423538 -1.26104)
(0.531131 -0.734299 -1.34289)
(0.870833 -0.746517 -1.20595)
(0.330784 2.33626 2.9272)
(0.533157 2.56093 3.24266)
(0.573067 2.49833 3.51351)
(0.435273 2.8972 3.36785)
(-0.0822293 2.75581 3.56429)
(-0.183447 2.77667 3.68342)
(-0.00143988 3.15778 3.5818)
(-0.0553336 3.214 3.67594)
(-0.491915 3.04016 3.94759)
(-0.816836 2.82174 4.15556)
(0.0499386 3.55875 3.53981)
(-0.463385 3.48964 3.58925)
(-0.450641 3.41893 3.80993)
(-1.15287 3.14699 3.92226)
(-1.33337 3.0532 3.95976)
(-1.24105 3.9556 2.80727)
(-0.773191 3.77355 2.74899)
(-0.928992 3.39484 3.02509)
(-1.41763 3.52359 3.24677)
(-1.58741 3.14514 3.59727)
(-1.51687 3.07268 3.61019)
(-0.639311 3.40552 1.88888)
(-1.16417 3.0487 2.20696)
(-0.941574 3.91249 1.56426)
(-2.39562 2.76954 2.68285)
(-1.15554 3.318 2.67395)
(-1.48851 3.2784 2.72785)
(-0.867525 3.57311 2.97801)
(-1.04267 2.30584 1.29195)
(-1.02456 3.10765 1.24313)
(-1.20786 2.8954 1.30958)
(-1.31757 2.33673 1.92671)
(-1.56596 2.56414 2.05575)
(-1.38274 3.25067 1.89287)
(-1.27777 3.31416 2.20521)
(-1.13764 3.36473 2.25863)
(-0.880188 2.16778 0.57746)
(-1.2571 2.11618 0.526823)
(-1.4793 1.96815 0.97845)
(-1.95676 2.45729 0.268507)
(-2.2652 2.74905 1.25088)
(-1.474 3.20361 0.728542)
(-1.65211 2.80486 1.73607)
(-1.34525 3.29371 1.66564)
(-0.978295 3.3841 1.90549)
(-0.999965 1.64009 0.057016)
(-1.18016 1.55043 0.174006)
(-1.59622 1.77533 0.415566)
(-2.27587 2.27088 0.351283)
(-1.74977 2.64415 0.705789)
(-1.35764 2.44969 0.820228)
(-1.51719 2.42518 1.00615)
(-1.17814 2.29859 1.28436)
(-1.41991 2.12403 1.37688)
(-1.52586 1.53984 1.31202)
(-0.665237 0.973349 -0.68136)
(-1.03316 0.71968 -0.425057)
(-1.80571 0.88694 0.144751)
(-2.15379 1.45463 0.147137)
(-1.85465 1.47427 0.754238)
(-1.70622 1.4691 0.384482)
(-1.09831 1.6179 0.855857)
(-0.505881 1.21438 1.30878)
(-0.806853 0.632245 1.396)
(-0.91429 0.741627 1.58397)
(-0.839401 1.18298 1.12324)
(-0.731317 0.525754 -0.742106)
(-0.688653 0.535412 -0.916031)
(-0.944092 0.633299 -0.624115)
(-1.1171 0.813884 0.294283)
(-1.09861 0.964326 0.506628)
(-0.754226 1.02786 0.80956)
(-0.624113 0.50883 0.0647599)
(-0.453544 0.347302 -0.232176)
(-0.65572 0.555373 -0.677935)
(-0.809375 0.645078 -0.872922)
(-0.754364 0.750992 -0.816799)
(-0.550513 0.723636 -0.886299)
(-0.674213 0.487395 -0.79065)
(-0.699004 0.355282 -0.955927)
(-0.476941 0.209903 -1.17182)
(-0.478808 0.0745508 -1.16482)
(-0.721109 0.0225796 -1.02033)
(-0.933846 -0.0882867 -0.712585)
(-0.89081 0.430976 -0.201241)
(-0.783683 0.418046 -1.18386)
(-0.760042 0.484272 -1.27558)
(-0.658493 0.643732 -1.16488)
(-0.629539 0.710951 -1.01823)
(-0.768944 0.69917 -1.05552)
(-0.720709 0.64808 -1.5055)
(-0.185428 0.211462 -1.08792)
(-0.742516 0.0571107 -1.37572)
(-0.725636 -0.0738576 -1.59021)
(-0.510581 0.0687608 -1.67098)
(-0.414935 0.185133 -1.52717)
(-0.429942 0.388559 -1.38627)
(-0.772121 0.809493 -1.06994)
(-0.888883 0.591121 -1.75035)
(-1.03874 0.47526 -1.5503)
(-1.00757 0.258013 -1.35431)
(-0.860457 0.0976323 -1.31694)
(-1.04765 0.193984 -1.28211)
(-0.857533 0.190655 -1.70787)
(-1.00552 0.20763 -1.4866)
(0.0884804 0.292806 -1.66502)
(-0.257589 0.164337 -1.95365)
(-0.0854439 0.120486 -2.13147)
(0.0200718 0.0739828 -2.02745)
(-0.0502606 0.0790552 -1.80471)
(-0.160601 0.35712 -1.82023)
(-0.781033 0.543679 -1.75049)
(-0.645436 0.269121 -2.19574)
(-0.728229 -0.0745046 -1.95471)
(-0.769849 -0.0233287 -1.84498)
(-0.794806 -0.144092 -1.78064)
(-0.893541 -0.115307 -1.80524)
(-0.903919 -0.0373801 -1.89413)
(-0.934446 0.0451877 -1.70778)
(-0.764661 0.192847 -1.60063)
(0.379489 0.257695 -1.61534)
(0.323404 0.0879786 -1.82825)
(0.394697 -0.0987094 -1.88839)
(0.535114 -0.0637785 -1.90193)
(0.421083 -0.0321103 -1.81714)
(0.233474 0.0537388 -1.86365)
(-0.292303 0.269193 -2.27965)
(-0.23676 -0.0155079 -2.44896)
(-0.373203 -0.22841 -2.29868)
(-0.399525 -0.154105 -2.30532)
(-0.470775 -0.128259 -2.27589)
(-0.427175 -0.136606 -2.23387)
(-0.777919 -0.079971 -2.0775)
(-0.414853 -0.122543 -1.90568)
(-0.444747 -0.104566 -1.54262)
(-0.389272 -0.0370749 -1.42337)
(0.796903 0.121882 -1.35243)
(0.865098 0.05495 -1.596)
(1.09079 -0.129751 -1.54891)
(0.941835 -0.374399 -1.35849)
(0.554694 -0.418555 -1.57056)
(0.344802 -0.407734 -1.5734)
(-0.184231 -0.136571 -1.97472)
(-0.0937461 -0.30365 -2.30425)
(-0.151878 -0.350513 -2.38856)
(0.116071 -0.535186 -2.29691)
(0.0411567 -0.732749 -2.1769)
(0.0425532 -0.689691 -1.81263)
(0.0049036 -0.474629 -1.55704)
(0.475157 -0.404479 -1.22424)
(0.548863 -0.710349 -1.3254)
(0.849615 -0.727358 -1.21102)
(1.22484 -0.83749 -1.14295)
(-0.0357747 2.2958 2.84318)
(0.190405 2.42998 3.01479)
(0.00117574 2.42171 3.26676)
(0.0642069 2.58193 3.34332)
(-0.279613 2.45665 3.55461)
(-0.48159 2.41996 3.61278)
(0.141155 2.78877 3.5202)
(-0.28285 2.88006 3.59941)
(-0.555278 2.77902 3.70579)
(-0.693217 2.67099 3.72408)
(0.0907475 3.30708 3.6846)
(-0.571764 3.14696 3.80628)
(-0.847726 3.00176 4.01619)
(-0.924216 2.81006 4.09527)
(-0.852351 2.84261 3.96884)
(-0.504918 3.33168 3.6741)
(-0.784446 3.46014 3.61837)
(-1.0257 3.24959 3.89701)
(-1.50813 3.08346 3.95806)
(-1.52407 2.96937 3.97333)
(-1.22926 2.83903 3.99007)
(-1.36676 3.93023 2.71306)
(-1.41491 3.33183 3.01387)
(-1.21393 3.25072 3.1455)
(-1.71835 3.32669 3.35784)
(-1.98207 3.02417 3.42351)
(-1.33688 3.23795 3.50563)
(-1.51573 3.15045 3.65239)
(-1.2588 2.90757 2.09042)
(-1.27174 3.05931 2.13637)
(-1.42825 3.58975 1.81579)
(-2.51408 2.62769 2.70041)
(-2.0973 2.9728 2.78402)
(-1.93609 3.06008 2.97806)
(-1.63989 3.3441 3.31658)
(-0.883495 3.31361 3.37725)
(-1.21676 2.10043 1.41144)
(-1.45468 2.65473 1.45899)
(-1.70613 2.2347 1.74487)