/*--------------------------------*- C++ -*----------------------------------*\
  =========                 |
  \\      /  F ield         | OpenFOAM: The Open Source CFD Toolbox
   \\    /   O peration     | Website:  https://openfoam.org
    \\  /    A nd           | Version:  7
     \\/     M anipulation  |
\*---------------------------------------------------------------------------*/
FoamFile
{
    version     2.0;
    format      ascii;
    class       volVectorField;
    location    "9.5";
    object      U_0;
}
// * * * * * * * * * * * * * * * * * * * * * * * * * * * * * * * * * * * * * //

dimensions      [0 1 -1 0 0 0 0];

internalField   nonuniform List<vector> 
18870
(
(0.987897 0.207416 -1.61756)
(0.843734 0.267849 -1.52054)
(0.986637 0.207888 -1.53383)
(1.08811 0.0483147 -1.69582)
(0.612209 0.462874 -1.65489)
(0.786474 0.269862 -1.50849)
(0.826394 0.0751169 -1.84072)
(0.981213 0.210162 -1.45048)
(1.02256 0.0424669 -1.69199)
(1.08935 -0.210133 -1.55301)
(0.994478 0.827238 -1.22665)
(0.6194 0.496829 -1.6302)
(0.752294 0.375887 -2.03634)
(0.757086 0.282531 -1.5192)
(0.808025 0.0945285 -1.83929)
(0.914378 0.0108306 -1.83568)
(0.968486 0.212351 -1.38628)
(0.990556 0.0495232 -1.67553)
(1.08766 -0.20759 -1.5543)
(0.828715 -0.405008 -1.3938)
(0.943646 1.54535 -0.384792)
(1.04872 0.878999 -1.32915)
(0.949579 0.674812 -1.61294)
(0.649179 0.399105 -1.70822)
(0.793087 0.385963 -2.03081)
(0.950329 0.350104 -2.06288)
(0.744945 0.27966 -1.54867)
(0.814033 0.116326 -1.82321)
(0.849658 0.000693463 -1.86708)
(0.634072 -0.0373894 -1.88845)
(0.963074 0.214694 -1.35223)
(0.983775 0.039144 -1.65526)
(1.09964 -0.201044 -1.57336)
(0.83242 -0.401576 -1.38293)
(0.456607 -0.448288 -1.59815)
(1.09054 2.08992 -0.233703)
(1.06624 1.441 -0.660647)
(1.00124 1.48683 -0.650328)
(1.13896 0.763448 -1.37165)
(0.912549 0.652694 -1.6478)
(0.940884 0.401137 -1.67045)
(0.649995 0.424495 -1.74496)
(0.790017 0.39546 -2.00232)
(0.91837 0.334975 -2.08924)
(0.894647 0.261455 -1.92726)
(0.698531 0.285827 -1.5973)
(0.852532 0.151365 -1.78674)
(0.738941 -0.0255822 -1.9143)
(0.724709 -0.0298927 -1.86372)
(0.412982 -0.0111774 -1.84485)
(0.930251 0.2068 -1.34904)
(0.978268 0.056063 -1.64141)
(1.10431 -0.190082 -1.59651)
(0.847759 -0.404619 -1.37588)
(0.46247 -0.444591 -1.59592)
(0.289607 -0.414015 -1.59933)
(1.55111 2.17952 -0.19837)
(1.2067 1.96985 -0.379126)
(1.17316 1.70335 -0.455189)
(1.04452 1.38188 -0.884324)
(0.881929 1.43248 -0.542915)
(0.969574 1.04548 -0.676524)
(1.11716 0.781955 -1.32407)
(0.870593 0.639031 -1.65168)
(0.904556 0.385101 -1.633)
(0.760223 0.284947 -1.76603)
(0.767774 0.450342 -1.66736)
(0.751107 0.373513 -1.98887)
(0.875576 0.299349 -2.10133)
(0.778269 0.215027 -1.95702)
(0.673111 0.468448 -1.75573)
(0.728551 0.269636 -1.60445)
(0.869395 0.176904 -1.75647)
(0.755932 -0.0179033 -1.90505)
(0.795085 -0.013997 -1.8403)
(0.424629 -0.00291164 -1.85398)
(0.381931 0.10378 -1.97557)
(0.898067 0.188844 -1.34306)
(0.98505 0.0560542 -1.62181)
(1.11322 -0.19616 -1.59523)
(0.856066 -0.398661 -1.37012)
(0.471724 -0.443978 -1.59259)
(0.295011 -0.413956 -1.59863)
(-0.109256 -0.11351 -2.05236)
(1.4869 2.28069 0.782868)
(1.48715 2.08343 -0.103787)
(0.97216 1.7759 -0.136579)
(1.17413 1.86352 -0.523342)
(1.07407 1.69616 -0.480581)
(1.17173 1.50137 -0.31299)
(0.984787 1.28376 -1.02293)
(0.775434 1.34838 -0.619415)
(0.723503 1.02354 -0.589794)
(0.746374 0.771035 -0.725426)
(1.03419 0.694481 -1.36203)
(0.827182 0.601127 -1.64807)
(0.798132 0.402893 -1.58981)
(0.674457 0.307185 -1.712)
(0.72632 0.441181 -1.66374)
(0.718644 0.436736 -1.70207)
(0.692084 0.362299 -1.98374)
(0.826197 0.286104 -2.0891)
(0.679063 0.176576 -1.99277)
(0.566376 0.406114 -1.76242)
(0.502344 0.558293 -1.85058)
(0.661987 0.270227 -1.62349)
(0.809358 0.183076 -1.76581)
(0.737397 -0.0198477 -1.90359)
(0.805982 -0.0135956 -1.8455)
(0.415411 -0.0224829 -1.86689)
(0.355025 0.097965 -1.95348)
(0.308678 0.331532 -2.53987)
(0.872099 0.178226 -1.33309)
(0.982976 0.0673234 -1.60675)
(1.11116 -0.191459 -1.59314)
(0.880241 -0.398385 -1.3596)
(0.475975 -0.445382 -1.59057)
(0.301034 -0.412786 -1.59796)
(-0.11944 -0.118874 -2.04721)
(-0.0252187 -0.286817 -2.37077)
(1.69556 2.76946 1.49675)
(1.07438 2.13326 0.625432)
(0.933658 2.07703 0.595544)
(1.06543 2.06663 -0.0939261)
(0.750583 1.75209 -0.169275)
(0.833525 1.71161 0.0410393)
(0.982805 1.72103 -0.711801)
(0.962299 1.6325 -0.494185)
(1.09625 1.41267 -0.321659)
(1.27687 1.36473 -0.50999)
(0.87167 1.24635 -1.08959)
(0.659408 1.27889 -0.678591)
(0.55622 0.848583 -0.715818)
(0.580121 0.646445 -0.665543)
(0.874361 0.750558 -0.703958)
(1.02004 0.671325 -1.35448)
(0.674028 0.563454 -1.6262)
(0.650245 0.362859 -1.61011)
(0.510668 0.290611 -1.63109)
(0.678427 0.365279 -1.70305)
(0.741942 0.558936 -1.55928)
(0.630599 0.403322 -1.74465)
(0.626198 0.365563 -1.96696)
(0.731552 0.254694 -2.08238)
(0.626245 0.171968 -2.0095)
(0.518711 0.361535 -1.76917)
(0.422287 0.552838 -1.82404)
(0.19847 0.610132 -2.28533)
(0.599896 0.246307 -1.63605)
(0.727577 0.156996 -1.78846)
(0.713594 -0.0159041 -1.89834)
(0.818376 -0.00641016 -1.85541)
(0.41256 -0.0284755 -1.87373)
(0.341072 0.100647 -1.93415)
(0.218385 0.323724 -2.50031)
(0.119746 0.0241157 -2.63854)
(0.860666 0.173644 -1.3207)
(0.966865 0.061525 -1.60151)
(1.10711 -0.1815 -1.58552)
(0.886713 -0.403363 -1.35616)
(0.486293 -0.443634 -1.5874)
(0.306324 -0.413103 -1.59578)
(-0.129744 -0.124183 -2.04139)
(-0.0384548 -0.289802 -2.36215)
(-0.0264575 -0.288962 -2.47519)
(1.7275 3.13326 2.06409)
(1.25745 2.69059 1.42449)
(0.771441 2.63231 1.24615)
(0.738782 2.07177 0.480353)
(1.01493 2.02913 0.622186)
(0.506702 2.41867 0.912876)
(0.797576 1.93512 -0.195063)
(0.749434 1.71518 -0.0730723)
(0.518735 1.75357 -0.134761)
(0.576573 1.84993 0.159486)
(0.659128 1.577 -0.843366)
(0.890234 1.52813 -0.56846)
(0.829932 1.36362 -0.378884)
(1.06078 1.27517 -0.384464)
(1.12435 1.44566 -0.292545)
(0.699485 1.23831 -1.08773)
(0.560623 1.14226 -0.79113)
(0.283223 0.848226 -0.73526)
(0.408923 0.544606 -0.634368)
(0.714136 0.622329 -0.729213)
(0.800561 0.760102 -0.741272)
(0.856202 0.610034 -1.40014)
(0.475303 0.485536 -1.67993)
(0.415864 0.355514 -1.60857)
(0.427032 0.281715 -1.6365)
(0.5662 0.320244 -1.64829)
(0.761863 0.511194 -1.5595)
(0.275727 0.795467 -1.76938)
(0.566829 0.384179 -1.76292)
(0.56343 0.350895 -1.97492)
(0.631648 0.241377 -2.07774)
(0.525129 0.127824 -2.02075)
(0.459499 0.319042 -1.78603)
(0.393332 0.512055 -1.79118)
(0.0771854 0.598115 -2.25251)
(-0.122371 0.24057 -2.32998)
(0.535038 0.228382 -1.6505)
(0.688671 0.165652 -1.78544)
(0.701595 -0.0128648 -1.88328)
(0.792973 -0.00323577 -1.87482)
(0.423948 -0.0344706 -1.87634)
(0.328865 0.0965129 -1.91948)
(0.132065 0.319357 -2.45616)
(0.0662359 0.0135829 -2.61172)
(0.0237848 -0.0871695 -2.50974)
(0.843215 0.164797 -1.32069)
(0.952615 0.0605259 -1.59664)
(1.09938 -0.175926 -1.57957)
(0.89163 -0.387931 -1.34594)
(0.494034 -0.444147 -1.58449)
(0.314258 -0.41372 -1.59206)
(-0.139064 -0.129004 -2.03475)
(-0.0461025 -0.294133 -2.35339)
(-0.049748 -0.295591 -2.46042)
(0.16656 -0.529767 -2.33798)
(1.41415 3.59917 2.13096)
(1.09613 3.25099 2.06554)
(1.2546 3.41616 1.3539)
(0.755225 2.5743 1.4547)
(0.142679 2.59496 0.811395)
(0.571584 3.23956 0.649644)
(0.552784 2.09103 0.568549)
(0.760585 2.16105 0.544937)
(0.358138 2.45879 0.822285)
(0.73041 2.84684 0.413484)
(0.537042 1.77951 -0.212373)
(0.417119 1.60455 0.150279)
(0.154701 1.71249 0.177046)
(0.273501 1.95661 0.205932)
(0.685935 1.91849 0.50949)
(0.35896 1.34434 -1.02705)
(0.49574 1.41529 -0.610343)
(0.544547 1.26816 -0.310003)
(0.709675 1.22929 -0.204705)
(0.961488 1.42788 -0.187766)
(1.34939 1.49103 -0.421585)
(0.480333 1.19342 -1.03321)
(0.232733 0.994773 -1.00345)
(0.280224 0.673065 -0.875359)
(0.279859 0.437776 -0.701981)
(0.448705 0.525327 -0.751987)
(0.411376 0.559078 -0.742725)
(0.342035 0.539814 -0.787101)
(0.768802 0.537787 -1.36558)
(0.458922 0.534911 -1.61451)
(0.320478 0.31812 -1.63705)
(0.329462 0.31025 -1.64815)
(0.433241 0.29838 -1.63147)
(0.651434 0.502706 -1.53054)
(0.0881541 0.85723 -1.66038)
(-0.230782 0.610214 -1.74589)
(0.560177 0.393147 -1.74082)
(0.491624 0.331346 -1.9799)
(0.589113 0.236538 -2.06997)
(0.424403 0.0930024 -2.01301)
(0.4162 0.29089 -1.80437)
(0.323462 0.509802 -1.77212)
(-0.035613 0.638174 -2.19326)
(-0.200542 0.232474 -2.31414)
(-0.139274 0.13433 -2.16025)
(0.507635 0.221671 -1.65929)
(0.645 0.165318 -1.78529)
(0.655577 -0.0221421 -1.88394)
(0.785039 -0.00502326 -1.87895)
(0.442047 -0.027565 -1.87219)
(0.324754 0.0932252 -1.90736)
(0.0520158 0.302214 -2.41422)
(0.0094551 0.0128776 -2.5781)
(-0.0409809 -0.1071 -2.48062)
(-0.0211311 -0.17308 -2.41438)
(0.82872 0.157442 -1.32369)
(0.931772 0.0535629 -1.59779)
(1.0883 -0.195321 -1.57439)
(0.912725 -0.381642 -1.34945)
(0.505756 -0.440179 -1.58113)
(0.310609 -0.414886 -1.59155)
(-0.149015 -0.132468 -2.02745)
(-0.0542433 -0.297303 -2.3448)
(-0.0712936 -0.305247 -2.44596)
(0.146863 -0.536189 -2.33105)
(0.079247 -0.739878 -2.21317)
(1.57714 3.55418 3.04935)
(1.47031 3.6613 2.02959)
(1.48965 3.60981 1.79212)
(0.956053 3.37992 1.69018)
(0.998578 3.54547 0.760838)
(0.759107 4.05108 0.176877)
(0.150341 2.45094 1.32697)
(-0.282324 2.56744 0.555388)
(-0.0322134 3.08232 0.522758)
(0.146834 3.59519 0.0568761)
(0.295389 2.15889 0.403804)
(0.422193 2.19025 0.581032)
(0.00493938 2.51411 0.805693)
(-0.705595 2.63494 0.427174)
(0.422548 2.7749 0.388997)
(0.232211 1.7205 -0.295557)
(0.259586 1.474 -0.163058)
(-0.30392 1.55042 0.278745)
(-0.318494 1.83983 0.321971)
(0.38844 1.90838 0.582645)
(0.419217 1.88653 0.615068)
(0.294257 1.30853 -1.01046)
(0.385786 1.20014 -0.582549)
(0.41994 1.18543 -0.466188)
(0.162567 1.11209 0.0400866)
(0.483843 1.39892 -0.0185406)
(1.0799 1.45921 -0.459679)
(0.242824 0.6637 0.212363)
(0.31569 1.07706 -1.02371)
(0.0263353 0.846829 -0.953039)
(0.0895289 0.627981 -0.971895)
(0.053266 0.342721 -0.755998)
(0.055611 0.379044 -0.728829)
(0.153628 0.455297 -0.837502)
(0.0977425 0.544091 -0.608409)
(-0.383659 0.186536 -0.908166)
(0.594107 0.482167 -1.35161)
(0.208442 0.443092 -1.61386)
(0.123683 0.279828 -1.636)
(0.112425 0.23932 -1.64782)
(0.352347 0.279122 -1.68129)
(0.421912 0.460634 -1.45355)
(-0.134702 0.783937 -1.55124)
(-0.45589 0.577394 -1.71417)
(-0.344585 0.655426 -1.75833)
(0.557656 0.430512 -1.71653)
(0.36651 0.30048 -1.9997)
(0.495212 0.244785 -2.0805)
(0.300557 0.0747211 -2.01024)
(0.326111 0.193878 -1.82506)
(0.297005 0.455031 -1.78318)
(-0.123982 0.632006 -2.13602)
(-0.346079 0.235404 -2.2848)
(-0.218062 0.0958596 -2.16259)
(-0.352927 0.0115066 -1.9529)
(0.480191 0.220712 -1.67149)
(0.603123 0.166663 -1.78519)
(0.632367 -0.0245276 -1.87561)
(0.724794 0.00733949 -1.89556)
(0.468099 -0.0141696 -1.86052)
(0.331876 0.088483 -1.89889)
(-0.0282084 0.291808 -2.37663)
(-0.058139 -0.000804613 -2.5449)
(-0.0982293 -0.126443 -2.45242)
(-0.0813456 -0.167227 -2.40018)
(-0.386488 -0.213155 -2.28518)
(0.821487 0.154837 -1.32512)
(0.908186 0.0356059 -1.60143)
(1.07272 -0.183999 -1.57548)
(0.916723 -0.396734 -1.3608)
(0.518783 -0.43721 -1.57708)
(0.322009 -0.410975 -1.58608)
(-0.15751 -0.135367 -2.01925)
(-0.0613047 -0.298306 -2.33669)
(-0.0891152 -0.311855 -2.43353)
(0.121511 -0.540897 -2.32399)
(0.0650905 -0.75692 -2.20951)
(0.00521628 -0.675972 -1.87141)
(1.12015 3.4411 3.36636)
(1.01428 4.13061 2.49808)
(1.47875 3.9713 2.31347)
(1.12772 3.6789 2.10435)
(0.944152 3.57743 1.85312)
(1.04521 3.71995 1.37692)
(0.625981 3.36259 1.68855)
(0.588752 3.5914 0.753183)
(0.494777 4.20911 0.0636161)
(0.47996 3.58853 -0.29036)
(0.0333251 2.37304 0.987468)
(-0.403032 2.65542 0.555084)
(-0.257384 2.93424 0.136527)
(-0.462866 3.32402 0.0886027)
(0.16845 3.44696 0.216698)
(-0.0233757 2.05537 0.690794)
(0.107399 2.12769 0.468695)
(-0.166508 2.55689 0.572932)
(0.40547 3.10228 0.39016)
(-0.0298557 2.77975 0.481553)
(0.198263 2.74315 0.608721)
(-0.0174218 1.56035 -0.291541)
(0.00686897 1.35569 -0.139759)
(-0.538886 1.46959 0.336592)
(-0.684635 1.73331 0.38309)
(-0.189288 1.82396 0.57528)
(-0.103696 1.86167 0.631949)
(0.03402 1.8271 0.982166)
(0.0466912 1.19049 -0.872791)
(0.322307 1.14554 -0.716236)
(-0.185934 0.976849 -0.322571)
(0.0854278 1.13202 0.0456234)
(0.259828 1.42021 0.0147791)
(0.570162 1.36248 -0.371924)
(-0.00781614 0.573666 0.334135)
(-0.0168919 0.0803702 -0.0370348)
(0.073139 1.03125 -0.898298)
(-0.0653439 0.734812 -1.01579)
(-0.0941103 0.525001 -0.946429)
(0.183065 0.379616 -0.893988)
(0.0621302 0.362175 -0.928046)
(-0.149803 0.347951 -0.913522)
(-0.108123 0.509183 -0.626782)
(-0.480252 0.233719 -0.968246)
(-0.412686 0.618195 -1.31748)
(0.487217 0.409863 -1.28732)
(0.0283897 0.391928 -1.60002)
(-0.12189 0.165087 -1.61789)
(-0.0782969 0.146193 -1.60192)
(0.0743965 0.212396 -1.57056)
(0.318609 0.454279 -1.44036)
(-0.304835 0.746677 -1.36978)
(-0.576613 0.592939 -1.67458)
(-0.492974 0.679171 -1.7963)
(-0.813413 0.479298 -1.55394)
(0.501404 0.412757 -1.71622)
(0.263626 0.271413 -1.99858)
(0.386751 0.234939 -2.09721)
(0.210192 0.0541396 -2.00819)
(0.220253 0.197411 -1.81639)
(0.235392 0.520485 -1.80589)
(-0.286487 0.654816 -2.05356)
(-0.447453 0.232886 -2.26218)
(-0.253755 0.113721 -2.1637)
(-0.439277 0.0163512 -1.92816)
(-0.592552 -0.152939 -1.82432)
(0.476755 0.236092 -1.67116)
(0.55993 0.166184 -1.7864)
(0.58994 -0.0348948 -1.87294)
(0.725785 0.0064429 -1.88314)
(0.483832 -0.0118767 -1.85109)
(0.32557 0.0854243 -1.88921)
(-0.0800895 0.286597 -2.34655)
(-0.131988 -0.00890258 -2.51355)
(-0.154373 -0.14677 -2.42057)
(-0.131151 -0.160379 -2.38754)
(-0.410643 -0.195849 -2.28314)
(-0.360635 -0.245276 -2.2374)
(0.811832 0.143374 -1.33289)
(0.890886 0.0319343 -1.60241)
(1.06668 -0.198012 -1.56866)
(0.922942 -0.386659 -1.35794)
(0.529356 -0.432746 -1.57438)
(0.323491 -0.412255 -1.58263)
(-0.166687 -0.137884 -2.01091)
(-0.0684476 -0.299736 -2.32897)
(-0.101063 -0.319549 -2.42299)
(0.117521 -0.535393 -2.31781)
(-0.0205904 -0.737913 -2.20696)
(0.0334283 -0.689373 -1.85732)
(0.0176294 -0.494628 -1.62611)
(1.20854 3.30862 3.00417)
(1.22713 3.37361 3.45183)
(1.38568 3.54131 3.25625)
(0.753948 4.55302 1.78769)
(1.04747 4.25538 2.15544)
(0.283714 3.65643 2.58789)
(0.869385 3.79108 1.89729)
(0.309799 3.48759 1.96449)
(0.406978 3.79479 1.41569)
(-0.0314248 3.63846 1.39782)
(0.488566 3.26745 1.41358)
(0.125322 3.52103 0.993748)
(0.584913 4.05842 -0.146957)
(-0.0892568 3.30528 0.366649)
(-0.432047 3.13917 0.694974)
(-0.114499 2.3155 0.855268)
(-0.568928 2.7393 0.197578)
(-0.752398 2.52008 0.40828)
(-1.04608 3.12167 0.208261)
(-0.780016 3.36972 0.223261)
(-0.425486 3.51763 0.627489)
(-0.324795 2.02746 0.469631)
(-0.420346 2.02114 0.354059)
(-0.471176 2.49085 0.371263)
(-1.2703 2.89307 0.369588)
(-0.276211 2.9206 0.547641)
(-0.239411 2.71164 0.57374)
(-0.499048 2.58112 0.985235)
(-0.0473037 1.47803 -0.332428)
(-0.457328 1.07928 -0.0461023)
(-0.960816 1.34811 0.253912)
(-1.17616 1.58533 0.398407)
(-0.651685 1.68621 0.592364)
(-0.238053 1.95187 0.482276)
(-0.206024 1.83304 0.942054)
(-0.135976 1.48315 0.806537)
(-0.133979 1.02605 -0.852931)
(-0.114069 0.900449 -0.708024)
(-0.0872079 0.964513 -0.535086)
(-0.426106 0.946338 0.328972)
(-0.120718 1.29123 0.173503)
(-0.171659 1.1303 0.0324865)
(-0.270747 0.511239 0.344119)
(-0.141687 0.144091 -0.199593)
(-0.313874 0.349862 -0.759862)
(-0.066167 0.905353 -0.916399)
(-0.197935 0.686208 -0.999126)
(-0.0882114 0.511364 -1.01247)
(-0.0319271 0.264421 -1.07301)
(-0.525299 0.140123 -0.869391)
(-0.580281 0.202934 -0.945491)
(-0.37653 0.492531 -0.383904)
(-0.57866 0.252641 -1.03129)
(-0.517716 0.618038 -1.42863)
(-0.469265 0.867484 -1.17402)
(0.314942 0.415909 -1.19017)
(-0.0835734 0.326993 -1.60703)
(-0.212997 0.158994 -1.63191)
(-0.239315 0.0889875 -1.56904)
(-0.0563082 0.218469 -1.56041)
(0.154695 0.465464 -1.44847)
(-0.472547 0.758627 -1.26401)
(-0.667588 0.609666 -1.67573)
(-0.823159 0.609744 -1.71934)
(-0.808573 0.443712 -1.53082)
(-0.742056 0.20269 -1.47166)
(0.401358 0.373044 -1.71644)
(0.160315 0.262251 -1.98834)
(0.259036 0.183886 -2.10915)
(0.127338 0.070449 -2.0111)
(0.196842 0.163345 -1.80193)
(0.216116 0.454915 -1.81397)
(-0.433091 0.630188 -1.97852)
(-0.495907 0.24776 -2.25878)
(-0.345681 0.088406 -2.15315)
(-0.528478 0.0114122 -1.90201)
(-0.650814 -0.14848 -1.80188)
(-0.670002 -0.127209 -1.89277)
(0.434622 0.230863 -1.67733)
(0.508696 0.15732 -1.7916)
(0.538932 -0.0430891 -1.8734)
(0.661333 -0.0107716 -1.88681)
(0.453064 -0.0258328 -1.84892)
(0.305055 0.0761053 -1.88082)
(-0.12872 0.288283 -2.32155)
(-0.188604 -0.0276555 -2.48174)
(-0.202996 -0.171307 -2.39075)
(-0.179215 -0.154689 -2.3736)
(-0.438399 -0.176864 -2.27898)
(-0.383056 -0.225094 -2.23612)
(-0.527556 -0.0941224 -2.15327)
(0.80431 0.133811 -1.33837)
(0.884481 0.0277537 -1.59893)
(1.05891 -0.200117 -1.57033)
(0.939098 -0.370903 -1.361)
(0.542367 -0.425939 -1.5731)
(0.329202 -0.412373 -1.58241)
(-0.173929 -0.1407 -2.00208)
(-0.0768186 -0.299204 -2.32178)
(-0.114268 -0.326782 -2.41421)
(0.133044 -0.546957 -2.30988)
(0.0928391 -0.741224 -2.19463)
(0.022764 -0.679708 -1.85138)
(0.0105699 -0.49051 -1.61142)
(0.439428 -0.458121 -1.33316)
(0.71892 2.83563 3.1039)
(1.12911 3.34818 3.19709)
(0.749473 3.17536 3.49382)
(0.863798 3.41971 3.51412)
(0.190324 3.47171 3.60441)
(0.312295 3.45102 3.64885)
(0.206686 4.27676 2.1104)
(0.521955 4.30358 2.13257)
(-0.101914 3.67984 2.66146)
(-0.423694 3.53861 2.87529)
(0.557717 3.76571 1.7958)
(-0.00457318 3.45835 2.00275)
(0.150124 4.04225 1.32393)
(-0.1501 3.87254 1.67327)
(-0.56877 3.30267 2.02426)
(-0.00958602 2.91941 1.41386)
(-0.340766 3.31899 1.20012)
(-0.115378 3.72081 0.406184)
(-0.92195 2.69939 1.34443)
(-0.652653 3.05135 0.97365)
(-0.574953 3.54878 0.989722)
(-0.432064 2.29786 0.600655)
(-0.602445 2.77728 -0.0133297)
(-0.910576 2.49958 0.498422)
(-1.63789 3.04793 0.203347)
(-1.33455 3.0813 0.624567)
(-0.812296 3.50588 0.605976)
(-0.852865 3.38071 1.04469)
(-0.460008 1.93569 0.24631)
(-0.777632 1.92672 0.204234)
(-1.2262 2.19608 0.281393)
(-1.73493 2.67932 0.353963)
(-0.928158 2.89903 0.543225)
(-0.539107 2.65884 0.521719)
(-0.899641 2.51693 0.907535)
(-0.286746 2.40532 1.21367)
(-0.231699 1.34286 -0.525226)
(-0.637129 1.07215 -0.0145988)
(-1.37492 1.02069 0.233383)
(-1.39841 1.78565 0.337177)
(-0.932521 1.76766 0.683853)
(-0.865305 1.80254 0.509691)
(-0.607471 1.78307 0.943054)
(-0.48465 1.23334 0.925408)
(-0.312993 0.645419 1.27391)
(-0.209634 0.965976 -0.898872)
(-0.174189 0.819193 -0.878872)
(-0.745759 0.724518 -0.312159)
(-0.678347 0.931384 0.263581)
(-0.483232 1.25037 0.148838)
(-0.313813 1.1186 0.167827)
(-0.439505 0.447412 0.140812)
(-0.251984 0.261821 -0.211347)
(-0.426089 0.403497 -0.942551)
(-0.617777 0.55946 -0.815134)
(-0.437182 0.634317 -0.752467)
(-0.242763 0.609675 -1.06627)
(-0.227795 0.434842 -1.062)
(-0.274837 0.189329 -1.05545)
(-0.578188 0.0702381 -0.966057)
(-0.837955 0.027046 -0.881662)
(-0.483331 0.475967 -0.519499)
(-0.542162 0.350963 -1.17239)
(-0.622369 0.596039 -1.48079)
(-0.613715 0.802096 -1.14214)
(-0.612251 0.769106 -1.21793)
(0.166846 0.346752 -1.16704)
(-0.414647 0.183077 -1.47467)
(-0.203346 0.190721 -1.7097)
(-0.313458 0.0998568 -1.58992)
(-0.142864 0.252994 -1.61923)
(-0.0519716 0.489632 -1.42927)
(-0.578299 0.783064 -1.19153)
(-0.796932 0.55393 -1.70674)
(-0.824692 0.592729 -1.72038)
(-0.86366 0.399319 -1.44761)
(-0.838533 0.164489 -1.37025)
(-0.714192 0.230323 -1.5856)
(0.310578 0.349573 -1.69315)
(0.0219923 0.245319 -1.99455)
(0.12137 0.138505 -2.10189)
(0.104855 0.0611549 -2.02669)
(0.0628843 0.116416 -1.78197)
(-0.0170015 0.397156 -1.80533)
(-0.605413 0.607546 -1.88166)
(-0.552837 0.268814 -2.24356)
(-0.454176 0.0475794 -2.11982)
(-0.62442 -0.00332076 -1.89793)
(-0.689336 -0.140281 -1.78685)
(-0.74929 -0.136547 -1.87298)
(-0.774701 -0.00705725 -1.91998)
(0.430266 0.251324 -1.65325)
(0.44942 0.138912 -1.80182)
(0.495316 -0.0644006 -1.87414)
(0.603204 -0.0330827 -1.89346)
(0.43647 -0.034043 -1.83813)
(0.278866 0.0702508 -1.87449)
(-0.191752 0.277713 -2.30128)
(-0.216353 -0.0279487 -2.46264)
(-0.262941 -0.188403 -2.35104)
(-0.24856 -0.142069 -2.35631)
(-0.46171 -0.167182 -2.27723)
(-0.42001 -0.200643 -2.22311)
(-0.634904 -0.0922913 -2.12706)
(-0.294008 -0.178169 -1.94252)
(0.792438 0.140382 -1.33767)
(0.870754 0.026967 -1.60194)
(1.0577 -0.195896 -1.56843)
(0.943872 -0.377087 -1.36113)
(0.5467 -0.422262 -1.57244)
(0.332374 -0.412264 -1.58351)
(-0.181281 -0.139571 -1.99199)
(-0.08332 -0.301273 -2.3147)
(-0.132342 -0.336587 -2.40519)
(0.109624 -0.533633 -2.30853)
(-0.0211348 -0.749541 -2.19237)
(0.0311306 -0.686843 -1.83846)
(0.00562444 -0.486509 -1.59513)
(0.448606 -0.443546 -1.3001)
(0.513494 -0.756344 -1.36314)
(0.584769 2.44609 3.16545)
(0.681574 2.94948 3.24662)
(0.314303 2.8803 3.46681)
(0.431217 3.2358 3.49651)
(0.391157 3.22973 3.5774)
(-0.0603184 3.1457 3.78787)
(0.467612 3.52648 3.4651)
(0.0482644 3.53141 3.55926)
(-0.239481 3.39894 3.72421)
(-0.884446 3.1864 3.92836)
(0.549062 4.54468 1.97752)
(-0.0736676 4.05879 2.45191)
(-0.686198 3.5361 2.86025)
(-0.647349 3.71388 2.97297)
(-1.165 3.32 3.45188)
(0.0510147 3.70269 1.77392)
(-0.510582 3.31516 2.13704)
(-0.520837 4.10748 1.3942)
(-1.73375 3.20628 2.42761)
(-1.43653 2.88778 2.57502)
(-0.926588 3.28227 2.47932)
(-0.686598 2.51324 1.37052)
(-0.796095 3.10197 1.26287)
(-1.02874 3.00199 1.18179)
(-1.10856 2.5553 1.55262)
(-0.865044 2.92857 1.48222)
(-0.901532 3.49308 1.33835)
(-1.05717 3.62636 1.65474)
(-0.7246 2.2239 0.542931)
(-0.843546 2.51754 0.131135)
(-1.13885 2.42453 0.657224)
(-1.83267 2.94781 0.0201059)
(-1.20295 3.44279 0.609624)
(-1.32111 3.25157 0.731848)
(-1.31536 3.17554 1.25811)
(-0.913863 3.13151 1.62423)
(-0.847939 1.70697 0.0915602)
(-1.04467 1.56321 0.326157)
(-1.48259 1.91056 0.373879)
(-2.02538 2.49108 0.293307)
(-1.70206 2.50509 0.690879)
(-0.966123 2.59125 0.625763)
(-1.13644 2.47332 1.18013)
(-0.67108 2.42097 1.25332)
(-1.07874 2.30723 1.22931)
(-0.575323 1.11081 -0.607353)
(-0.771225 0.95853 -0.429232)
(-1.50051 1.16248 0.12259)
(-1.82459 1.64408 0.312365)
(-1.64771 1.61894 0.419922)
(-1.27822 1.64475 0.419076)
(-0.830493 1.81827 0.807856)
(-0.773834 1.28361 0.746173)
(-0.705119 0.794861 1.19219)
(-0.477583 0.521496 1.66427)
(-0.400297 0.855423 -0.936885)
(-0.420693 0.695258 -0.894676)
(-0.122264 1.02734 -0.773426)
(-0.794288 0.904624 0.1031)
(-0.820649 1.17352 0.259015)
(-0.424632 1.1709 0.497086)
(-0.546162 0.420897 0.0818394)
(-0.327875 0.309222 -0.156891)
(-0.588514 0.449946 -0.827828)
(-0.73979 0.666764 -0.74006)
(-0.657968 0.739657 -1.00631)
(-0.383949 0.656033 -0.854343)
(-0.473628 0.507989 -1.04726)
(-0.414903 0.194213 -1.037)
(-0.334007 0.0179339 -1.15538)
(-0.631173 0.0151611 -1.08238)
(-0.896189 -0.0332722 -0.819698)
(-0.700511 0.489692 -0.255619)
(-0.62205 0.359325 -1.3006)
(-0.632325 0.599457 -1.43399)
(-0.640525 0.704465 -1.19484)
(-0.725456 0.709902 -1.10553)
(-0.626296 0.734138 -1.19852)
(-0.0618669 0.253859 -1.06781)
(-0.403035 0.166312 -1.49162)
(-0.557541 0.00258511 -1.63432)
(-0.16562 0.210338 -1.70498)
(-0.237509 0.249766 -1.60271)
(-0.252092 0.429713 -1.41317)
(-0.684604 0.752172 -1.12714)
(-0.877159 0.580617 -1.72175)
(-0.915122 0.583329 -1.63988)
(-0.919516 0.342333 -1.4183)
(-0.880726 0.142464 -1.27575)
(-0.859722 0.202106 -1.4778)
(-0.796409 0.252698 -1.71174)
(0.208785 0.326284 -1.68169)
(-0.0901404 0.203253 -1.96941)
(0.00566566 0.140753 -2.11342)
(0.0428702 0.0497793 -2.01319)
(-0.000285276 0.0766049 -1.79069)
(-0.0786783 0.361103 -1.80978)
(-0.703048 0.568301 -1.80811)
(-0.577674 0.290001 -2.23041)
(-0.62525 0.000459201 -2.02738)
(-0.723432 -0.0208715 -1.86903)
(-0.72668 -0.150553 -1.8155)
(-0.880667 -0.131761 -1.78837)
(-0.842266 -0.0304234 -1.9254)
(-0.88408 0.0418925 -1.73859)
(0.405819 0.265795 -1.62996)
(0.385225 0.115549 -1.81427)
(0.437386 -0.0838297 -1.8828)
(0.568647 -0.0548241 -1.89587)
(0.424471 -0.0358367 -1.82722)
(0.259552 0.0595454 -1.86875)
(-0.269267 0.269349 -2.28003)
(-0.227267 -0.0200783 -2.45118)
(-0.312854 -0.20688 -2.32803)
(-0.320393 -0.147875 -2.33237)
(-0.488418 -0.151139 -2.2662)
(-0.422353 -0.168973 -2.23162)
(-0.718844 -0.0857862 -2.09911)
(-0.375809 -0.155458 -1.91804)
(-0.387432 -0.123995 -1.57448)
(0.782617 0.126854 -1.34994)
(0.866462 0.0228366 -1.60003)
(1.07472 -0.180444 -1.55761)
(0.943256 -0.37145 -1.35517)
(0.55147 -0.419698 -1.57084)
(0.338681 -0.410707 -1.57934)
(-0.18449 -0.139159 -1.981)
(-0.0908596 -0.300955 -2.30818)
(-0.139453 -0.347092 -2.39623)
(0.0970162 -0.547975 -2.30019)
(0.0633331 -0.762439 -2.179)
(0.0345732 -0.685459 -1.82827)
(-0.000855129 -0.482731 -1.57782)
(0.460012 -0.425712 -1.26466)
(0.527874 -0.735057 -1.34452)
(0.868309 -0.748345 -1.20522)
(0.334216 2.34051 2.93006)
(0.523176 2.56037 3.2497)
(0.559609 2.49571 3.5181)
(0.423855 2.89525 3.37305)
(-0.0938059 2.75357 3.56775)
(-0.197125 2.77611 3.6832)
(-0.00971908 3.1557 3.58634)
(-0.0707964 3.2102 3.68183)
(-0.512072 3.03198 3.95623)
(-0.820208 2.81779 4.15677)
(0.0390203 3.55809 3.54258)
(-0.475422 3.4859 3.59418)
(-0.471405 3.41248 3.81691)
(-1.17038 3.14166 3.92468)
(-1.33889 3.04841 3.96109)
(-1.24408 3.95062 2.80983)
(-0.793778 3.75303 2.76811)
(-0.937949 3.38772 3.03953)
(-1.43802 3.51506 3.26054)
(-1.59349 3.1424 3.60438)
(-1.5179 3.07862 3.60969)
(-0.661417 3.39408 1.89794)
(-1.1715 3.04791 2.20872)
(-0.970175 3.89691 1.5823)
(-2.40741 2.75773 2.69384)
(-1.16265 3.32548 2.68559)
(-1.50363 3.2792 2.7457)
(-0.87175 3.57029 3.00453)
(-1.04994 2.30172 1.29374)
(-1.02856 3.10421 1.24515)
(-1.22116 2.88063 1.32606)
(-1.32435 2.32946 1.95046)
(-1.59241 2.55928 2.07861)
(-1.39299 3.2467 1.91605)
(-1.28176 3.29985 2.23519)
(-1.14329 3.35702 2.27077)
(-0.883653 2.16209 0.579175)
(-1.26728 2.10122 0.538164)
(-1.4942 1.95782 0.990611)
(-1.96461 2.44524 0.288998)
(-2.28095 2.74087 1.25722)
(-1.48042 3.19829 0.740104)
(-1.65583 2.79845 1.75641)
(-1.36205 3.29435 1.67759)
(-0.972204 3.39081 1.9096)
(-1.00184 1.63771 0.054658)
(-1.1854 1.54874 0.171979)
(-1.59913 1.77874 0.418239)
(-2.27496 2.27509 0.355852)
(-1.74665 2.65371 0.708286)
(-1.36458 2.45173 0.83016)
(-1.51527 2.43191 1.00289)
(-1.18728 2.29843 1.28214)
(-1.42761 2.11872 1.37736)
(-1.5387 1.5331 1.31868)
(-0.668724 0.969322 -0.680015)
(-1.03978 0.714907 -0.423487)
(-1.81354 0.883237 0.14356)
(-2.16366 1.44618 0.151803)
(-1.85282 1.47616 0.769901)
(-1.71794 1.46744 0.387398)
(-1.10838 1.61513 0.858492)
(-0.519313 1.21161 1.3086)
(-0.80883 0.632548 1.4014)
(-0.917622 0.752602 1.58371)
(-0.841202 1.19345 1.11875)
(-0.738226 0.521988 -0.740326)
(-0.695379 0.5339 -0.918884)
(-0.958001 0.625989 -0.625386)
(-1.12326 0.81241 0.293522)
(-1.10853 0.960487 0.510049)
(-0.765357 1.02796 0.815238)
(-0.629198 0.51487 0.0699162)
(-0.459011 0.353014 -0.23144)
(-0.660184 0.560413 -0.675658)
(-0.811396 0.648983 -0.876579)
(-0.756446 0.754068 -0.815485)
(-0.554021 0.725071 -0.888715)
(-0.678344 0.486945 -0.788581)
(-0.703769 0.357092 -0.954056)
(-0.482412 0.212421 -1.17209)
(-0.483108 0.076024 -1.16612)
(-0.725034 0.0235222 -1.02233)
(-0.94033 -0.0864871 -0.712561)
(-0.900752 0.433454 -0.200471)
(-0.788537 0.423004 -1.18327)
(-0.766486 0.484308 -1.27373)
(-0.661149 0.644941 -1.16498)
(-0.631898 0.712134 -1.01694)
(-0.77616 0.701433 -1.0502)
(-0.7259 0.651502 -1.50582)
(-0.18524 0.211511 -1.08702)
(-0.743724 0.0577036 -1.37259)
(-0.729278 -0.0735833 -1.58932)
(-0.5143 0.0686149 -1.67183)
(-0.418609 0.183858 -1.52818)
(-0.434514 0.388517 -1.38843)
(-0.773482 0.813914 -1.0688)
(-0.889551 0.594708 -1.75144)
(-1.04539 0.476449 -1.54838)
(-1.01092 0.261457 -1.35516)
(-0.862607 0.0994794 -1.31893)
(-1.05277 0.19517 -1.27993)
(-0.861258 0.191875 -1.70618)
(-1.0088 0.208736 -1.48503)
(0.0924285 0.293917 -1.66217)
(-0.255694 0.16473 -1.95241)
(-0.0862164 0.1195 -2.13094)
(0.0190743 0.0735867 -2.02844)
(-0.0520725 0.077301 -1.80495)
(-0.161427 0.354291 -1.82085)
(-0.78252 0.54659 -1.74709)
(-0.648398 0.271494 -2.19506)
(-0.730485 -0.074362 -1.95568)
(-0.773127 -0.0220016 -1.84427)
(-0.79733 -0.142647 -1.78156)
(-0.895974 -0.114533 -1.8063)
(-0.908394 -0.0361381 -1.89307)
(-0.936831 0.0480494 -1.70716)
(-0.768707 0.194256 -1.59821)
(0.382665 0.257526 -1.61539)
(0.326324 0.0876975 -1.82695)
(0.394703 -0.100765 -1.88669)
(0.535698 -0.0656851 -1.90135)
(0.421069 -0.034245 -1.81641)
(0.233529 0.0510813 -1.86128)
(-0.294819 0.269789 -2.27695)
(-0.238486 -0.0144302 -2.44878)
(-0.3748 -0.228534 -2.29913)
(-0.400506 -0.155202 -2.30496)
(-0.473393 -0.126164 -2.27581)
(-0.429676 -0.134531 -2.23353)
(-0.779829 -0.0784024 -2.07726)
(-0.418887 -0.120703 -1.90518)
(-0.444327 -0.101555 -1.54309)
(-0.393143 -0.0358193 -1.42309)
(0.797316 0.121907 -1.35163)
(0.864739 0.0486075 -1.59654)
(1.0866 -0.142863 -1.55278)
(0.943019 -0.375545 -1.35458)
(0.554203 -0.419601 -1.56952)
(0.344344 -0.409891 -1.57174)
(-0.185831 -0.138573 -1.97014)
(-0.0957868 -0.304429 -2.30081)
(-0.154983 -0.350124 -2.38775)
(0.113996 -0.53746 -2.2964)
(0.0408952 -0.732352 -2.17956)
(0.0399929 -0.691328 -1.81472)
(0.0017098 -0.4763 -1.5591)
(0.472077 -0.406653 -1.22787)
(0.545376 -0.711289 -1.3267)
(0.847897 -0.72909 -1.21036)
(1.22143 -0.838867 -1.14399)
(-0.0369572 2.29559 2.84782)
(0.184498 2.43289 3.02095)
(-0.0105176 2.4222 3.27139)
(0.0501523 2.57784 3.35008)
(-0.304628 2.45554 3.55536)
(-0.487047 2.42264 3.60798)
(0.127122 2.78951 3.52478)
(-0.298135 2.88026 3.60279)
(-0.563595 2.77832 3.70629)
(-0.691531 2.67071 3.72093)
(0.0674092 3.29932 3.69392)
(-0.58908 3.14335 3.81419)
(-0.858256 2.99909 4.02127)
(-0.925983 2.80826 4.09137)
(-0.85441 2.84283 3.96137)
(-0.519412 3.31789 3.68561)
(-0.794022 3.45359 3.62465)
(-1.04049 3.24282 3.89973)
(-1.52649 3.07447 3.95693)
(-1.52242 2.96733 3.97298)
(-1.22061 2.8369 3.98939)
(-1.36878 3.91525 2.72626)
(-1.4262 3.31473 3.02401)
(-1.21864 3.24931 3.15427)
(-1.71969 3.32762 3.36237)
(-1.98696 3.0207 3.4265)
(-1.31954 3.2447 3.50685)
(-1.50717 3.1551 3.65223)
(-1.27929 2.885 2.10103)
(-1.28164 3.05767 2.13989)
(-1.43534 3.58715 1.82766)
(-2.51841 2.621 2.70772)
(-2.11217 2.97185 2.78598)
(-1.94906 3.05443 2.98738)
(-1.65823 3.33577 3.32942)
(-0.891323 3.31809 3.38075)
(-1.21521 2.107 1.40913)
(-1.46344 2.63921 1.46845)
(-1.72372 2.21503 1.76293)