/*--------------------------------*- C++ -*----------------------------------*\
  =========                 |
  \\      /  F ield         | OpenFOAM: The Open Source CFD Toolbox
   \\    /   O peration     | Website:  https://openfoam.org
    \\  /    A nd           | Version:  7
     \\/     M anipulation  |
\*---------------------------------------------------------------------------*/
FoamFile
{
    version     2.0;
    format      ascii;
    class       volScalarField;
    location    "9.5";
    object      p;
}
// * * * * * * * * * * * * * * * * * * * * * * * * * * * * * * * * * * * * * //

dimensions      [0 2 -2 0 0 0 0];

internalField   nonuniform List<scalar> 
18720
(
-60.0316
-59.5597
-60.045
-60.0177
-59.8542
-59.1219
-59.6163
-59.5005
-59.7153
-59.887
-59.9985
-59.8142
-59.7662
-58.6046
-59.1848
-59.0286
-59.3694
-59.7621
-59.4447
-59.6531
-59.6174
-59.7988
-59.977
-59.775
-59.7346
-59.462
-58.1593
-58.7197
-58.5026
-59.0533
-59.4836
-58.9096
-59.2663
-59.6175
-59.6741
-59.3923
-59.5817
-59.5217
-59.5276
-59.4808
-59.9522
-59.7367
-59.7066
-59.443
-59.3523
-57.4018
-58.3971
-57.9346
-59.0381
-59.2348
-58.3506
-58.827
-59.6402
-59.7262
-58.7839
-59.1687
-59.5154
-59.7334
-59.5809
-59.3415
-59.5281
-59.4614
-59.4743
-59.5435
-59.364
-59.9373
-59.7038
-59.6821
-59.4249
-59.3416
-59.2205
-56.8199
-57.7431
-57.0175
-58.546
-59.416
-57.6817
-58.6725
-59.8237
-59.8696
-58.1883
-58.6167
-59.3557
-60.0182
-59.8223
-58.6837
-59.0703
-59.4048
-59.6512
-59.7047
-59.5808
-59.293
-59.4876
-59.4278
-59.4124
-59.5022
-59.614
-59.2249
-59.9259
-59.6768
-59.6571
-59.4067
-59.3301
-59.215
-59.1953
-56.8171
-57.3715
-56.1568
-58.2769
-58.9513
-56.746
-58.0922
-59.4308
-60.0936
-57.4139
-58.354
-59.5215
-60.3576
-60.1997
-58.057
-58.4688
-59.0959
-59.7912
-60.0647
-59.7888
-58.6109
-58.9822
-59.2919
-59.5708
-59.6189
-59.9758
-59.6359
-59.238
-59.4476
-59.3842
-59.3544
-59.4646
-59.571
-59.7277
-59.204
-59.9095
-59.6525
-59.633
-59.3866
-59.32
-59.2085
-59.1852
-59.1578
-56.1321
-57.4618
-56.3331
-58.1424
-58.8503
-55.896
-57.7186
-59.5143
-59.8172
-56.5551
-57.634
-58.9831
-60.1051
-60.6138
-57.2049
-58.0807
-59.141
-60.0526
-60.6666
-60.2239
-57.9006
-58.3567
-58.8895
-59.5812
-59.9041
-60.4362
-60.0241
-58.5397
-58.8941
-59.2035
-59.4941
-59.5254
-59.9266
-60.3503
-59.7766
-59.1964
-59.4049
-59.3375
-59.3115
-59.4348
-59.5311
-59.6936
-59.6724
-59.168
-59.9043
-59.636
-59.6125
-59.3657
-59.3041
-59.2004
-59.1728
-59.1456
-58.8391
-54.8271
-56.6818
-55.383
-57.7057
-58.6829
-55.7323
-57.5943
-59.1408
-60.051
-55.6437
-57.1449
-58.8948
-60.4528
-60.6586
-56.3308
-57.2596
-58.5123
-59.7337
-60.9736
-60.8981
-57.0931
-57.8431
-58.7877
-59.6478
-60.3836
-61.3013
-60.5246
-57.7511
-58.3011
-58.7169
-59.4059
-59.7696
-60.3225
-60.8472
-60.3994
-58.4683
-58.808
-59.1278
-59.4184
-59.4533
-59.8474
-60.2732
-60.3196
-59.6913
-59.1713
-59.3604
-59.2883
-59.2811
-59.4133
-59.4946
-59.6755
-59.6302
-59.3698
-58.8496
-59.8989
-59.6267
-59.5912
-59.3446
-59.282
-59.1897
-59.1582
-59.1321
-58.827
-58.5096
-53.7803
-55.5147
-54.0754
-55.6896
-58.3058
-54.8811
-57.0147
-58.2639
-59.7461
-55.309
-56.9346
-58.5789
-60.4292
-60.7714
-55.4581
-56.6742
-58.3431
-59.8448
-60.905
-61.3504
-56.2369
-56.9814
-58.0475
-59.2952
-60.5938
-61.982
-61.4996
-56.9981
-57.6927
-58.4629
-59.2663
-60.0536
-61.042
-61.6031
-60.8914
-57.6488
-58.2098
-58.524
-59.2136
-59.6305
-60.1964
-60.7739
-60.8485
-60.3778
-58.3985
-58.7537
-59.0481
-59.3458
-59.416
-59.7403
-60.1728
-60.2741
-60.0708
-59.3969
-59.1494
-59.3179
-59.2373
-59.2441
-59.4007
-59.4538
-59.6375
-59.5436
-59.3384
-59.1366
-58.5236
-59.8856
-59.6292
-59.571
-59.3241
-59.2607
-59.1759
-59.1415
-59.1185
-58.8135
-58.4939
-58.1833
-53.1115
-54.1596
-53.4473
-55.9378
-56.5124
-53.9376
-55.1581
-57.2449
-58.9354
-54.5427
-56.2059
-57.7336
-58.3977
-61.0587
-55.0287
-56.3657
-57.9814
-59.1156
-60.3859
-61.2587
-55.3492
-56.2938
-57.8637
-59.2407
-60.5329
-61.6513
-62.3685
-56.2566
-56.7219
-57.5557
-58.8422
-60.205
-61.5436
-62.6131
-61.6487
-56.9945
-57.565
-58.1791
-58.9034
-59.7201
-60.7697
-61.5186
-61.538
-60.8526
-57.5895
-58.1528
-58.337
-59.0629
-59.4629
-60.0567
-60.6667
-60.8234
-60.7679
-60.0836
-58.3502
-58.7208
-58.9675
-59.3068
-59.3751
-59.6156
-60.0677
-60.1905
-60.0416
-59.7581
-59.1548
-59.1333
-59.2795
-59.1887
-59.2076
-59.3955
-59.4179
-59.5834
-59.4588
-59.2957
-59.1113
-58.8933
-58.192
-59.8733
-59.6367
-59.5504
-59.3038
-59.2397
-59.1593
-59.1236
-59.104
-58.7994
-58.4755
-58.1722
-57.8831
-51.359
-53.4417
-51.5924
-54.4696
-55.7685
-52.6914
-54.8799
-57.1788
-57.8594
-53.7089
-54.797
-56.5156
-58.2149
-59.4298
-54.3281
-55.4832
-57.0283
-58.1749
-59.1877
-60.8237
-54.7004
-55.7243
-57.2991
-58.53
-59.9965
-61.0669
-61.9064
-55.2652
-55.9145
-57.3306
-58.5964
-60.0759
-61.3323
-62.6341
-62.5975
-56.3129
-56.5846
-57.1805
-58.413
-59.8582
-61.1186
-62.5779
-62.3487
-61.4825
-57.1248
-57.3807
-58.0044
-58.6587
-59.447
-60.4702
-61.3306
-61.5331
-60.9805
-60.7538
-57.5672
-58.086
-58.2228
-58.927
-59.3135
-59.909
-60.5239
-60.7652
-60.7783
-60.6202
-59.7655
-58.3175
-58.6776
-58.8979
-59.246
-59.34
-59.4745
-59.9548
-60.0876
-59.9966
-59.7482
-59.485
-58.8724
-59.1308
-59.2475
-59.145
-59.1799
-59.392
-59.3867
-59.5104
-59.3851
-59.2456
-59.0769
-58.91
-58.6681
-57.88
-59.8683
-59.6428
-59.527
-59.286
-59.2251
-59.1413
-59.1046
-59.0888
-58.7842
-58.4563
-58.1577
-57.8849
-57.5998
-51.1491
-52.875
-51.9939
-52.3187
-55.1099
-51.6079
-53.0828
-55.8935
-57.1059
-52.0682
-54.5717
-56.3358
-57.707
-58.8873
-53.2427
-55.0586
-56.4385
-57.8278
-58.1576
-59.3389
-54.1087
-55.5028
-56.7703
-57.97
-58.9038
-59.5398
-61.4057
-54.4605
-55.2008
-56.5889
-58.2425
-59.4942
-60.6572
-61.8347
-62.7861
-55.2561
-55.6258
-56.9
-58.1938
-59.6163
-60.9286
-62.4729
-62.8985
-62.2346
-56.38
-56.501
-56.9118
-57.9778
-59.3813
-60.7162
-62.4872
-62.4024
-61.6353
-60.9397
-57.3344
-57.184
-57.8268
-58.4522
-59.1786
-60.0955
-61.1151
-61.4446
-61.0194
-60.6434
-60.5585
-57.6116
-57.9932
-58.1563
-58.8027
-59.1887
-59.6972
-60.3347
-60.6775
-60.7655
-60.6686
-60.2644
-59.4374
-58.311
-58.5927
-58.854
-59.1602
-59.3257
-59.3201
-59.8306
-59.9668
-59.9213
-59.7153
-59.524
-59.1785
-58.6247
-59.1398
-59.2239
-59.1065
-59.1593
-59.3738
-59.3533
-59.4031
-59.3003
-59.1823
-59.0335
-58.92
-58.7071
-58.1941
-57.5975
-59.8692
-59.6497
-59.5028
-59.2696
-59.2137
-59.1222
-59.0859
-59.073
-58.7685
-58.4358
-58.147
-57.8819
-57.6001
-57.3339
-50.698
-51.4419
-51.0058
-51.7397
-53.3389
-51.4248
-52.6781
-53.3487
-56.2125
-51.2716
-53.2216
-55.3509
-56.8258
-58.1004
-52.0707
-53.9857
-56.1702
-57.3106
-57.895
-58.0978
-53.0519
-54.3492
-56.0143
-57.2622
-58.0576
-57.8973
-59.8065
-53.7957
-55.0263
-55.8146
-57.4275
-58.5548
-59.2214
-60.3956
-61.7658
-54.4545
-54.9171
-56.1074
-57.5521
-59.0438
-60.2496
-61.6755
-61.9562
-62.825
-55.2481
-55.3457
-56.52
-57.6266
-59.2268
-60.3829
-62.0772
-63.0454
-62.7114
-61.5643
-56.4557
-56.4593
-56.7291
-57.591
-58.8764
-60.285
-62.179
-62.3413
-61.6896
-61.4388
-60.5489
-57.578
-56.9818
-57.6691
-58.175
-58.9263
-59.7698
-60.9438
-61.3272
-61.0675
-60.7117
-60.4284
-60.2174
-57.6716
-57.9067
-58.1388
-58.6624
-59.0276
-59.4661
-60.0951
-60.5401
-60.7253
-60.6624
-60.3213
-60.054
-59.1103
-58.3414
-58.4984
-58.827
-59.0858
-59.303
-59.1703
-59.6927
-59.7999
-59.8123
-59.66
-59.5613
-59.2464
-58.7818
-58.1617
-59.1567
-59.1964
-59.072
-59.1441
-59.3509
-59.3128
-59.2932
-59.2446
-59.1173
-58.9827
-58.9222
-58.7428
-58.2224
-57.5256
-57.3397
-59.876
-59.6588
-59.4763
-59.2499
-59.199
-59.101
-59.0677
-59.0561
-58.7525
-58.4138
-58.1359
-57.8804
-57.5984
-57.3256
-57.0019
-50.0042
-50.668
-50.1431
-50.6277
-52.2912
-50.5857
-51.7773
-52.6413
-53.972
-51.0232
-52.5438
-53.69
-54.6529
-56.8129
-51.2264
-52.3967
-55.2147
-56.7008
-56.5818
-58.0349
-51.7241
-52.7095
-55.4848
-57.0044
-57.7655
-56.7926
-57.7803
-52.7719
-53.7364
-55.4472
-56.6068
-57.748
-57.7343
-58.2022
-60.4947
-53.5305
-54.4122
-56.0619
-56.4083
-58.0614
-58.9657
-60.362
-60.9073
-61.732
-54.4498
-54.7351
-56.0071
-57.1041
-58.5873
-60.0788
-61.4771
-62.3466
-62.3944
-62.6677
-55.2625
-55.2264
-56.0963
-57.3392
-58.7307
-60.1566
-61.7251
-62.8919
-62.7041
-61.807
-61.2834
-56.5924
-56.3721
-56.5417
-57.3408
-58.445
-59.8413
-61.7484
-62.1182
-61.6727
-61.5129
-60.7068
-60.2825
-57.804
-56.8629
-57.5534
-57.9771
-58.5601
-59.4744
-60.6212
-61.2184
-61.0508
-60.7558
-60.559
-60.3308
-59.9582
-57.7503
-57.852
-58.1343
-58.5382
-58.8757
-59.245
-59.8018
-60.3385
-60.6409
-60.6064
-60.3891
-60.1334
-59.6029
-58.7415
-58.4064
-58.4401
-58.8091
-59.0272
-59.2403
-59.076
-59.4931
-59.5986
-59.6834
-59.5957
-59.5797
-59.3066
-58.8213
-58.1152
-57.4941
-59.1818
-59.1706
-59.0365
-59.128
-59.3293
-59.2641
-59.2108
-59.181
-59.0358
-58.9237
-58.9169
-58.7739
-58.2438
-57.5555
-57.0174
-56.9947
-59.8864
-59.6758
-59.4526
-59.2276
-59.1842
-59.0819
-59.0503
-59.0401
-58.7361
-58.3903
-58.1172
-57.8767
-57.5947
-57.3145
-57.0076
-56.6592
-49.7757
-50.201
-49.8835
-50.2038
-50.7935
-50.3016
-50.7385
-51.5442
-52.6629
-50.5603
-51.4534
-52.5089
-52.7424
-54.651
-50.7509
-51.9389
-53.7819
-54.8547
-54.5838
-56.441
-51.0126
-51.9139
-54.5694
-56.6954
-56.8136
-55.7737
-56.71
-51.5189
-52.6035
-54.8255
-56.6413
-57.5646
-56.6805
-56.6862
-58.3711
-52.5245
-53.3102
-55.135
-56.3954
-57.3022
-57.53
-58.074
-58.5803
-60.5328
-53.3328
-54.1288
-55.3779
-56.2457
-57.5741
-58.9089
-60.2676
-61.053
-61.2383
-62.2313
-54.4172
-54.4941
-55.3226
-56.7428
-57.9698
-59.9187
-61.1879
-62.2332
-62.4282
-62.3703
-61.5665
-55.2514
-55.165
-55.8278
-56.8843
-58.237
-59.85
-61.2488
-62.5687
-62.6699
-61.9359
-60.7845
-60.5723
-56.6967
-56.2865
-56.384
-57.0416
-58.1907
-59.3063
-61.3275
-61.9155
-61.6161
-61.5486
-60.8581
-60.3578
-60.1793
-57.8723
-56.8423
-57.4834
-57.8561
-58.3026
-59.1408
-60.1994
-61.0603
-60.9762
-60.7733
-60.6722
-60.4808
-60.1768
-59.5018
-57.826
-57.8245
-58.1525
-58.4488
-58.757
-59.0089
-59.5082
-60.088
-60.511
-60.5287
-60.4174
-60.1948
-59.6981
-58.8373
-58.024
-58.4988
-58.4156
-58.7744
-58.9737
-59.1923
-58.9933
-59.2773
-59.384
-59.537
-59.512
-59.5812
-59.3383
-58.8334
-58.1975
-57.315
-56.9717
-59.2137
-59.1449
-58.997
-59.1085
-59.3195
-59.223
-59.1365
-59.0903
-58.9487
-58.8556
-58.9035
-58.797
-58.2565
-57.5796
-57.0599
-56.7906
-56.6547
-59.8989
-59.6891
-59.4306
-59.205
-59.1696
-59.0665
-59.0335
-59.0242
-58.7187
-58.3649
-58.0964
-57.8705
-57.5892
-57.3018
-57.0132
-56.6642
-56.4656
-49.4766
-49.7759
-49.6283
-49.9681
-50.2594
-49.9246
-50.2021
-50.6228
-51.5242
-50.0994
-50.7209
-51.4018
-51.8778
-52.8529
-50.427
-51.37
-52.612
-52.8057
-53.3598
-54.6045
-50.5883
-51.4333
-53.7168
-54.6648
-54.7097
-54.2856
-55.6029
-50.7675
-51.7084
-54.2805
-56.3949
-57.0404
-55.9342
-55.2153
-56.6933
-51.3828
-52.2978
-54.6608
-56.3691
-57.2126
-56.4159
-56.5238
-56.9912
-58.167
-52.4552
-52.9131
-54.1808
-55.791
-57.0693
-57.3019
-58.1068
-58.993
-59.147
-61.0724
-53.3083
-53.8393
-55.0058
-56.1454
-57.3047
-58.5087
-59.8921
-61.1863
-61.4125
-62.0297
-62.1396
-54.4294
-54.3686
-55.2729
-56.2618
-57.5899
-59.3938
-60.7457
-62.0565
-62.4952
-62.7562
-61.1858
-60.6888
-55.3718
-55.1253
-55.5618
-56.42
-57.6407
-59.2317
-60.7966
-62.275
-62.5182
-62.1088
-61.0318
-60.8375
-60.3009
-56.6829
-56.3968
-56.2987
-56.7556
-57.8257
-58.837
-60.7849
-61.6841
-61.5255
-61.5061
-60.9653
-60.4548
-60.652
-59.9818
-57.9492
-57.0175
-57.4004
-57.8108
-58.1891
-58.6791
-59.8276
-60.8145
-60.8843
-60.7585
-60.7205
-60.6205
-60.3696
-59.3856
-58.6948
-57.8415
-57.8121
-58.1338
-58.4055
-58.6615
-58.7583
-59.3431
-59.7611
-60.3484
-60.447
-60.4201
-60.2602
-59.7753
-58.9687
-57.7028
-57.2185
-58.6007
-58.4185
-58.7215
-58.9687
-59.1569
-58.9369
-59.0852
-59.1623
-59.3643
-59.4028
-59.5684
-59.3402
-58.8582
-58.2701
-57.4362
-57.0226
-56.7621
-59.242
-59.1215
-58.9604
-59.0902
-59.326
-59.1771
-59.0633
-59.0072
-58.8595
-58.7809
-58.8791
-58.811
-58.2612
-57.5968
-57.1023
-56.8224
-56.5188
-56.4697
-59.913
-59.7127
-59.413
-59.1793
-59.1568
-59.0532
-59.0164
-59.0084
-58.7008
-58.3378
-58.0804
-57.8634
-57.5813
-57.2882
-57.0167
-56.6697
-56.4618
-55.8568
-49.2443
-49.5486
-49.4571
-49.6422
-49.9651
-49.634
-49.7517
-50.1416
-50.8274
-49.8494
-50.1963
-50.6463
-51.3568
-51.7509
-50.1197
-50.6213
-51.3581
-51.7699
-52.1454
-53.3305
-50.3883
-50.8251
-52.6396
-52.5796
-53.3569
-53.2409
-54.2905
-50.4092
-51.1183
-53.9918
-54.3568
-54.9759
-54.4264
-53.9614
-55.2048
-50.7505
-51.5695
-53.928
-56.3791
-56.9766
-55.8592
-55.1004
-55.5312
-57.0299
-51.3437
-51.9881
-54.1108
-56.1988
-56.8444
-56.1167
-56.3709
-56.8627
-56.9172
-58.6245
-52.325
-52.8762
-54.2461
-55.8612
-56.7503
-56.9849
-58.0951
-58.7713
-59.3757
-59.6964
-61.5126
-53.2874
-53.701
-54.7546
-55.8423
-56.8399
-58.108
-59.6582
-61.1377
-62.0041
-62.2486
-61.9211
-60.9239
-54.6343
-54.2947
-55.0756
-55.9139
-57.136
-58.5714
-60.2647
-62.0618
-62.4733
-62.6333
-61.6723
-60.2872
-60.6114
-55.6383
-55.1933
-55.4758
-56.1583
-57.0379
-58.7327
-60.403
-62.0083
-62.3454
-62.0124
-61.247
-61.0974
-61.0009
-60.5677
-56.8127
-56.4768
-56.2593
-56.6449
-57.4761
-58.4519
-60.1106
-61.3936
-61.375
-61.4245
-60.9886
-60.5634
-60.7375
-60.2455
-59.0866
-57.9651
-57.2555
-57.3597
-57.7546
-58.0098
-58.2999
-59.3363
-60.5675
-60.755
-60.7259
-60.7354
-60.7517
-60.521
-59.6542
-58.2433
-57.4959
-57.8773
-57.8498
-58.0896
-58.4024
-58.5681
-58.5516
-59.0222
-59.294
-60.1419
-60.3747
-60.4265
-60.2716
-59.833
-59.0897
-57.9086
-56.6102
-56.946
-58.7064
-58.4426
-58.6801
-58.9855
-59.1162
-58.9105
-58.9034
-58.9393
-59.1693
-59.2919
-59.542
-59.3279
-58.8908
-58.3251
-57.5904
-57.1083
-56.1563
-56.5214
-59.2631
-59.1074
-58.9271
-59.0745
-59.3332
-59.1255
-58.9988
-58.9222
-58.7706
-58.6995
-58.8428
-58.8159
-58.26
-57.6052
-57.14
-56.8575
-56.5191
-56.1108
-55.8452
-59.9288
-59.7343
-59.3977
-59.1537
-59.1449
-59.0408
-59.0003
-58.9923
-58.6814
-58.3086
-58.0654
-57.8533
-57.5708
-57.2749
-57.0157
-56.6751
-56.4565
-55.8739
-55.8875
-49.1318
-49.2908
-49.2367
-49.3465
-49.6663
-49.4028
-49.5338
-49.8151
-50.3287
-49.5341
-49.7414
-50.1032
-50.5578
-51.1807
-49.8793
-50.0846
-50.4787
-51.1092
-51.4552
-52.176
-50.0316
-50.4449
-51.3703
-51.8215
-52.1919
-52.3337
-53.2774
-50.26
-50.9092
-52.9177
-52.7918
-53.2025
-53.2192
-53.0612
-53.9755
-50.3241
-51.1944
-53.0573
-54.238
-55.1334
-54.5236
-53.9322
-54.1691
-55.3431
-50.6573
-51.3489
-53.206
-56.0492
-57.019
-55.589
-55.1265
-55.6687
-55.481
-56.6828
-51.2233
-51.6828
-53.3236
-55.98
-56.6434
-55.9825
-56.3441
-56.7764
-56.8994
-57.0533
-59.0293
-52.1735
-52.6541
-53.5856
-55.3439
-56.2989
-56.6622
-57.8835
-58.9706
-59.6633
-59.7709
-59.5219
-60.3632
-53.2035
-53.5105
-54.2313
-55.2655
-56.3153
-57.8109
-59.3489
-61.1243
-61.8787
-62.603
-63.2134
-59.8569
-59.7693
-54.6434
-54.2436
-54.8649
-55.7471
-56.7596
-58.0115
-59.8867
-61.8092
-62.4194
-62.7405
-62.0547
-60.5708
-59.9984
-60.6728
-55.5983
-55.2931
-55.3857
-56.0244
-56.735
-58.0044
-59.8235
-61.6462
-62.1093
-61.9527
-61.4384
-61.3937
-61.2617
-60.222
-60.0424
-56.7015
-56.6386
-56.2717
-56.4705
-57.1852
-58.042
-59.3752
-60.9663
-61.2377
-61.2762
-61.0318
-60.6781
-60.8278
-60.4186
-58.5085
-58.0199
-58.0001
-57.4875
-57.3636
-57.6344
-57.8874
-58.0907
-58.7977
-60.3362
-60.5788
-60.647
-60.7404
-60.8539
-60.6619
-59.9254
-58.4748
-56.7742
-56.565
-57.8911
-57.9613
-58.0701
-58.4017
-58.4887
-58.3624
-58.6262
-58.9333
-59.9174
-60.2484
-60.333
-60.2567
-59.8809
-59.1935
-57.9909
-56.7177
-55.6471
-56.1171
-58.8121
-58.4614
-58.65
-58.9886
-59.0843
-58.8823
-58.7352
-58.7653
-58.964
-59.1849
-59.4862
-59.3103
-58.8921
-58.3782
-57.7063
-57.2143
-56.2094
-56.2653
-56.0925
-59.29
-59.1019
-58.8949
-59.0572
-59.3325
-59.0818
-58.9454
-58.8492
-58.6843
-58.6074
-58.7992
-58.8081
-58.254
-57.6072
-57.173
-56.8909
-56.529
-56.123
-55.9086
-55.8757
-59.9454
-59.733
-59.3811
-59.1323
-59.1301
-59.028
-58.9856
-58.9764
-58.6582
-58.2772
-58.048
-57.8425
-57.5571
-57.2658
-57.012
-56.679
-56.4512
-55.8895
-55.8986
-55.4328
-48.9511
-49.1226
-49.0591
-49.144
-49.3899
-49.1695
-49.2592
-49.5625
-49.9365
-49.2565
-49.4728
-49.6856
-50.1918
-50.622
-49.4676
-49.7373
-50.0416
-50.457
-50.7938
-51.4921
-49.6646
-50.074
-50.4933
-51.1005
-51.4071
-51.6549
-52.3039
-50.0041
-50.3924
-50.9193
-51.892
-52.1819
-52.3234
-52.362
-53.1213
-50.2851
-50.8622
-52.1822
-53.0322
-53.2812
-53.2194
-53.0385
-53.1809
-54.1849
-50.4893
-50.7574
-52.7587
-54.2294
-55.2467
-54.5245
-53.8806
-54.3192
-54.1322
-55.2163
-50.5665
-50.957
-53.0435
-55.499
-56.7462
-55.5028
-55.1571
-55.7073
-55.706
-55.4006
-56.8536
-51.1063
-51.4202
-53.3024
-55.0724
-56.4736
-55.8299
-56.0213
-56.8249
-56.3268
-57.2727
-57.922
-59.3221
-51.9614
-52.4817
-53.382
-54.8183
-56.4416
-56.5197
-57.4888
-58.9291
-59.7669
-60.4793
-61.0101
-59.0147
-59.2478
-52.943
-53.3045
-54.0178
-54.875
-55.9058
-57.1185
-58.7063
-60.582
-61.7961
-62.5509
-62.8223
-60.5793
-59.0396
-59.422
-54.5086
-54.2436
-54.5908
-55.3856
-56.1166
-57.2872
-59.1334
-61.4057
-62.249
-62.6761
-62.3077
-60.6589
-60.3271
-59.3795
-59.8333
-55.5907
-55.3528
-55.3319
-55.8536
-56.4075
-57.256
-59.3163
-61.1723
-61.8102
-61.7191
-61.576
-61.6002
-61.6303
-60.6409
-58.8938
-58.129
-56.5976
-56.8117
-56.3438
-56.3851
-56.9177
-57.5415
-58.7785
-60.3724
-61.078
-61.1455
-61.0058
-60.7838
-60.9531
-60.5223
-58.8972
-56.7944
-56.669
-58.0944
-57.7442
-57.4557
-57.6229
-57.7606
-57.7468
-58.3588
-59.8825
-60.3691
-60.5076
-60.7109
-60.8808
-60.767
-60.1592
-58.7298
-56.8941
-55.4441
-55.5503
-57.909
-58.0623
-58.0615
-58.4317
-58.3909
-58.1547
-58.3029
-58.6266
-59.6527
-60.0695
-60.2261
-60.2215
-59.9005
-59.2966
-58.1031
-56.9089
-55.7527
-54.9717
-56.1752
-58.917
-58.4958
-58.637
-59.0167
-59.049
-58.8616
-58.5892
-58.5805
-58.7132
-59.0419
-59.4063
-59.2888
-58.8639
-58.4145
-57.812
-57.3156
-56.3546
-56.3186
-55.7786
-55.9391
-59.3196
-59.1088
-58.8608
-59.0278
-59.3301
-59.0409
-58.8987
-58.7905
-58.5955
-58.5078
-58.7497
-58.8041
-58.2496
-57.6009
-57.2021
-56.9203
-56.5501
-56.1253
-55.8714
-55.6167
-55.4334
-59.9664
-59.7331
-59.3746
-59.1132
-59.114
-59.0152
-58.9724
-58.9614
-58.6334
-58.2441
-58.0277
-57.8282
-57.5401
-57.2495
-56.9995
-56.6809
-56.4476
-55.891
-55.9125
-55.4302
-55.851
-48.9391
-48.9929
-48.9018
-48.9768
-49.248
-49.0371
-49.1406
-49.3199
-49.6391
-49.1044
-49.2566
-49.3857
-49.8223
-50.2551
-49.2308
-49.4109
-49.7279
-50.0869
-50.4189
-50.8049
-49.3934
-49.6291
-49.8141
-50.4211
-50.839
-51.0075
-51.5889
-49.6924
-49.7447
-50.0972
-51.1936
-51.3144
-51.5826
-51.7458
-52.334
-50.099
-50.3746
-51.143
-51.9632
-52.1569
-52.2795
-52.2933
-52.44
-53.057
-50.2085
-50.3378
-52.0778
-52.8564
-53.2623
-53.263
-53.0015
-53.248
-53.1654
-54.0695
-50.2887
-50.5885
-52.5338
-54.0741
-54.8856
-54.6134
-53.8933
-54.3389
-54.2046
-54.0708
-55.1838
-50.3709
-50.9994
-52.7628
-55.192
-56.6255
-55.7059
-55.1471
-55.7783
-55.8684
-55.574
-55.6625
-57.0768
-51.0303
-51.4103
-52.8949
-54.9153
-56.1266
-55.8875
-55.6887
-56.2929
-56.7502
-57.296
-57.3037
-57.3174
-58.289
-51.8614
-52.4023
-53.3716
-54.8998
-55.9465
-56.0766
-56.7548
-58.6258
-59.471
-60.5491
-62.1486
-60.1745
-58.0201
-58.4898
-52.8638
-53.1056
-53.9076
-54.8842
-56.1256
-56.0817
-58.01
-60.258
-61.3978
-62.5541
-63.5737
-61.1508
-59.516
-58.1049
-58.9343
-54.3255
-54.2556
-54.4992
-55.1488
-55.9565
-56.9989
-58.27
-60.9463
-61.7089
-62.6016
-62.453
-60.9813
-60.7289
-59.8644
-58.1424
-58.4632
-55.5612
-55.4919
-55.3729
-55.7287
-56.1981
-56.9217
-58.6598
-60.5126
-61.4833
-61.5143
-61.68
-61.8073
-61.9649
-61.0064
-59.5283
-57.226
-56.4279
-56.7155
-57.0401
-56.4606
-56.3498
-56.6732
-57.2526
-58.1781
-59.6251
-60.7958
-60.9685
-60.9532
-60.865
-61.0772
-60.6285
-59.2418
-57.1607
-55.24
-55.3506
-58.2796
-57.9532
-57.6287
-57.633
-57.6728
-57.4492
-57.9741
-59.014
-60.139
-60.3199
-60.6633
-60.8589
-60.8431
-60.3792
-58.9629
-56.9842
-55.5084
-54.9666
-54.9717
-58.0017
-58.1722
-58.0714
-58.4742
-58.3257
-58.0039
-57.9995
-58.3884
-59.3712
-59.875
-60.0979
-60.1389
-59.8715
-59.3612
-58.2721
-56.9889
-55.8125
-54.9078
-54.8265
-55.759
-58.9807
-58.5353
-58.63
-59.0405
-59.0249
-58.7822
-58.4773
-58.3872
-58.5136
-58.8774
-59.3517
-59.2476
-58.8137
-58.4231
-57.9069
-57.3863
-56.4564
-56.3425
-55.8162
-55.4907
-55.6313
-59.3442
-59.135
-58.8274
-58.9907
-59.3247
-58.9963
-58.8529
-58.7356
-58.5148
-58.4034
-58.6958
-58.8218
-58.2195
-57.5835
-57.2267
-56.9503
-56.5549
-56.1132
-55.8424
-55.5989
-56.356
-55.8516
-59.9876
-59.7363
-59.3752
-59.0946
-59.099
-59.0032
-58.9601
-58.9476
-58.6104
-58.2101
-58.0038
-57.8089
-57.5224
-57.2233
-56.9853
-56.6802
-56.4465
-55.8895
-55.9269
-55.423
-55.8508
-55.6277
-48.6571
-48.9495
-48.8984
-48.9068
-48.9951
-48.901
-48.9497
-49.1022
-49.4006
-49.013
-49.0646
-49.3244
-49.526
-49.9014
-49.0517
-49.1887
-49.3715
-49.7711
-50.0572
-50.3888
-49.2236
-49.337
-49.528
-50.0908
-50.39
-50.6162
-51.0347
-49.3743
-49.5602
-49.7211
-50.5899
-50.7175
-51.0126
-51.1999
-51.69
-49.6656
-49.6438
-50.2724
-51.1732
-51.1664
-51.5797
-51.6614
-51.724
-52.4142
-49.7129
-50.3037
-51.1054
-51.7076
-52.2329
-52.283
-52.2551
-52.4052
-52.4258
-53.1332
-50.1606
-50.4152
-51.828
-52.7498
-53.2635
-53.15
-53.0541
-53.2467
-53.206
-53.1705
-54.028
-50.278
-50.7169
-52.0875
-54.3203
-54.9628
-54.5482
-53.8642
-54.1864
-54.2775
-54.235
-54.1561
-55.2027
-50.5612
-50.8285
-52.2075
-55.4222
-56.072
-55.8043
-54.9056
-55.5826
-55.8957
-55.3836
-55.8889
-55.5961
-56.6376
-50.8397
-51.2604
-52.7565
-55.0563
-55.4586
-55.8569
-55.6561
-56.1865
-56.4801
-57.5879
-58.1609
-57.9177
-56.4643
-57.383
-51.6735
-52.1994
-53.1716
-54.6002
-55.4499
-55.338
-57.132
-58.1545
-59.103
-60.7521
-62.4611
-60.9376
-58.7643
-56.964
-57.5864
-52.6611
-52.9833
-53.8847
-54.8164
-55.4913
-56.341
-57.891
-59.538
-61.0079
-62.4349
-63.4417
-61.6461
-59.869
-58.9179
-57.3549
-57.7845
-53.9763
-54.2152
-54.4016
-55.2625
-55.7209
-56.5305
-57.4864
-60.3203
-61.7041
-62.277
-62.1879
-61.1973
-61.2281
-60.3945
-58.4897
-56.5782
-56.8385
-55.565
-55.5596
-55.4313
-55.6993
-56.1103
-56.4205
-57.8479
-59.7788
-61.1622
-61.1976
-61.6554
-61.9364
-62.2144
-61.3619
-59.9114
-57.6985
-55.7286
-55.0592
-56.8355
-57.2372
-56.6544
-56.361
-56.475
-56.9751
-57.5901
-58.9496
-60.4299
-60.7265
-60.8688
-60.9473
-61.1485
-60.8081
-59.5575
-57.6459
-55.6971
-54.1912
-54.8539
-58.4143
-58.1342
-57.9095
-57.6778
-57.5514
-57.2811
-57.4269
-58.3363
-59.8168
-60.0978
-60.5635
-60.823
-60.8816
-60.5697
-59.1879
-57.0536
-55.5116
-55.0341
-54.3352
-54.9156
-58.113
-58.226
-58.1178
-58.463
-58.2732
-57.8965
-57.7249
-58.1379
-58.9981
-59.6691
-59.9482
-60.0409
-59.7955
-59.3933
-58.3355
-57.0825
-55.8928
-54.9144
-54.7952
-54.7491
-55.4432
-59.0356
-58.5903
-58.6385
-59.0551
-59.0098
-58.65
-58.4079
-58.2576
-58.3488
-58.7095
-59.3088
-59.1928
-58.7376
-58.4161
-57.9968
-57.4297
-56.5741
-56.3828
-55.8328
-55.5177
-56.3954
-56.3764
-59.3705
-59.1656
-58.7913
-58.9622
-59.3133
-58.9525
-58.8069
-58.6903
-58.4446
-58.2805
-58.6358
-58.8289
-58.1383
-57.5564
-57.2482
-56.9769
-56.556
-56.0953
-55.8174
-55.5791
-56.3307
-55.9853
-55.6521
-60.0049
-59.7399
-59.3736
-59.076
-59.0851
-58.9919
-58.9486
-58.9354
-58.5864
-58.173
-57.972
-57.7845
-57.5034
-57.1974
-56.9774
-56.6764
-56.4426
-55.8836
-55.9375
-55.41
-55.8501
-55.5979
-55.7043
-48.7904
-48.7505
-48.6909
-48.7008
-48.9711
-48.902
-48.9279
-48.9895
-49.1337
-48.8927
-48.9456
-49.0833
-49.305
-49.6027
-48.9217
-49.025
-49.1696
-49.4122
-49.74
-50.0871
-49.0621
-49.1869
-49.3188
-49.7554
-50.0287
-50.2623
-50.6936
-49.104
-49.3566
-49.481
-49.9046
-50.316
-50.5986
-50.8244
-51.2283
-49.2983
-49.4841
-49.7457
-50.5011
-50.6848
-50.9955
-51.1508
-51.2657
-51.7493
-49.5595
-49.9757
-50.1876
-51.0821
-51.1009
-51.3906
-51.5844
-51.7769
-51.7784
-52.4299
-49.8658
-49.9726
-50.9311
-51.6381
-52.0553
-52.145
-52.2251
-52.4232
-52.4677
-52.439
-53.1016
-50.0212
-50.1392
-51.7866
-52.7758
-53.2181
-53.1134
-52.9713
-53.2348
-53.2661
-53.1664
-53.0916
-54.016
-50.2058
-50.3995
-52.3797
-54.1885
-55.0285
-54.3956
-53.9087
-53.9676
-54.4057
-54.1393
-54.2956
-54.1281
-55.2528
-50.5623
-50.7444
-52.3289
-54.6373
-56.0856
-55.6385
-55.0157
-55.1309
-55.4445
-55.4268
-56.1563
-56.0794
-55.2684
-55.9725
-50.8177
-51.1983
-52.5833
-54.1059
-55.8262
-55.3801
-55.3337
-55.4889
-56.6383
-57.5337
-59.0132
-58.7179
-56.995
-55.8209
-56.5727
-51.7163
-51.9917
-52.8812
-53.9494
-54.9226
-55.3638
-56.7744
-57.4337
-59.5549
-60.7132
-62.5833
-61.6753
-59.467
-57.491
-56.139
-56.8253
-52.5681
-52.7851
-53.6213
-54.6734
-55.038
-55.4956
-57.3872
-58.7962
-60.7237
-62.3891
-63.5481
-62.0474
-60.5088
-59.5256
-57.7595
-55.9998
-56.2053
-53.6984
-54.1585
-54.211
-55.0605
-55.5235
-55.455
-57.5764
-59.5069
-61.3258
-62.0767
-61.9421
-61.4962
-61.6604
-61.0404
-59.0122
-57.0874
-55.4686
-55.5012
-55.4432
-55.6006
-55.5192
-55.6477
-55.9719
-56.0135
-57.258
-58.9487
-60.6255
-61.0141
-61.6154
-62.0124
-62.2943
-61.7986
-60.5286
-58.2399
-55.932
-54.4644
-54.1366
-57.0039
-57.3996
-56.9866
-56.4171
-56.3543
-56.4899
-57.1387
-58.3033
-60.006
-60.4738
-60.7617
-61.0089
-61.2316
-61.0193
-59.9527
-57.9249
-55.675
-54.2761
-53.5067
-54.3523
-58.5335
-58.2321
-58.2573
-57.8336
-57.4438
-57.1357
-56.9739
-57.9236
-59.3325
-59.8713
-60.3997
-60.7488
-60.8601
-60.7132
-59.4048
-57.2926
-55.7162
-55.091
-54.2322
-53.6851
-54.7897
-58.1862
-58.2503
-58.1572
-58.4504
-58.2082
-57.8189
-57.4637
-57.813
-58.6717
-59.4583
-59.8085
-59.9198
-59.6786
-59.4252
-58.4334
-57.2257
-55.8991
-55.1475
-54.8011
-54.6712
-55.1328
-56.3826
-59.1115
-58.6551
-58.6674
-59.0518
-58.9908
-58.5555
-58.3371
-58.171
-58.1746
-58.5515
-59.2405
-59.1258
-58.6421
-58.3897
-58.0783
-57.5053
-56.6966
-56.3749
-55.8735
-55.5353
-56.4397
-56.3311
-56.0654
-59.4006
-59.191
-58.7728
-58.9457
-59.3013
-58.9268
-58.7618
-58.6482
-58.381
-58.1618
-58.5765
-58.7813
-58.0519
-57.5231
-57.2696
-56.9992
-56.5776
-56.0656
-55.7971
-55.5598
-56.308
-55.9269
-56.1926
-55.7365
-60.0154
-59.7443
-59.3686
-59.0585
-59.0696
-58.9803
-58.9378
-58.9243
-58.559
-58.1392
-57.9331
-57.7572
-57.4821
-57.1681
-56.9666
-56.6687
-56.4341
-55.8736
-55.9437
-55.3961
-55.8475
-55.5617
-55.6722
-55.2762
-48.6875
-48.795
-48.7466
-48.7876
-48.7307
-48.6594
-48.7255
-48.7824
-49.0503
-48.8459
-48.881
-48.9586
-49.147
-49.3695
-48.8533
-48.9075
-49.0122
-49.2667
-49.5642
-49.8165
-48.9181
-49
-49.1723
-49.428
-49.703
-50.0017
-50.3249
-48.9843
-49.1652
-49.2733
-49.696
-49.9533
-50.321
-50.4874
-50.8525
-49.1895
-49.1964
-49.5107
-49.8699
-50.2565
-50.4933
-50.794
-50.9249
-51.2776
-49.3494
-49.4202
-49.7698
-50.3238
-50.4808
-50.8392
-51.0982
-51.2429
-51.3485
-51.8095
-49.5318
-49.7017
-50.1572
-50.943
-51.052
-51.3385
-51.5388
-51.7245
-51.7719
-51.7771
-52.3875
-49.7495
-49.9346
-50.8022
-51.4318
-52.0137
-51.9782
-52.1934
-52.3632
-52.4096
-52.5049
-52.3118
-53.0066
-49.9951
-50.1099
-51.6583
-52.7132
-53.0545
-53.0106
-52.9055
-52.9886
-53.2188
-53.1675
-53.2916
-53.1825
-54.0206
-50.1742
-50.325
-51.991
-53.7776
-55.0498
-54.2932
-53.739
-53.4272
-54.1504
-53.9808
-54.1785
-54.3723
-53.8598
-54.8892
-50.4993
-50.4393
-51.929
-54.3046
-55.9724
-55.6738
-54.4945
-54.3613
-55.3504
-55.209
-56.5893
-56.7385
-55.6607
-54.7391
-55.4474
-50.9125
-51.0228
-52.2393
-53.8662
-55.2315
-55.6588
-54.112
-55.3665
-56.8899
-57.4067
-59.4748
-59.1749
-57.8476
-56.3123
-55.2032
-55.8418
-51.6735
-51.8195
-52.5927
-53.928
-54.7363
-55.3359
-55.6402
-57.1243
-59.1164
-60.5877
-62.6888
-62.7371
-60.1997
-58.2689
-56.5265
-54.9151
-55.5358
-52.4742
-52.6589
-53.3724
-54.2235
-54.7755
-54.9492
-56.4929
-57.6863
-60.5998
-62.1907
-63.0949
-62.3526
-60.8425
-60.0105
-58.2923
-56.4746
-54.4074
-55.1072
-53.678
-54.1152
-54.167
-54.9128
-55.3277
-55.5257
-56.715
-58.7078
-60.7527
-61.4851
-61.5944
-61.6207
-61.9692
-61.7496
-59.595
-57.6321
-55.8024
-54.3229
-54.292
-55.5504
-55.6697
-55.5543
-55.5954
-55.7922
-55.8502
-56.6593
-58.2444
-60.0556
-60.7129
-61.5107
-61.99
-62.2514
-62.1449
-61.1479
-58.8307
-56.2898
-54.6007
-53.6552
-53.529
-57.159
-57.4242
-57.3533
-56.6034
-56.3097
-56.1538
-56.6958
-58.0193
-59.5253
-60.1945
-60.5886
-61.0082
-61.2627
-61.1969
-60.2375
-57.979
-55.6722
-54.3032
-53.5306
-53.2188
-53.7649
-58.4525
-58.2414
-58.6252
-58.0042
-57.3558
-56.9497
-56.6855
-57.6109
-58.8402
-59.6091
-60.1721
-60.6299
-60.7958
-60.8334
-59.6369
-57.4894
-55.8668
-55.1987
-54.3195
-53.6944
-53.5734
-55.2499
-58.2533
-58.2241
-58.2025
-58.4844
-58.1785
-57.7231
-57.2771
-57.527
-58.4487
-59.2422
-59.6384
-59.7598
-59.521
-59.3709
-58.5695
-57.272
-56.0121
-55.0819
-54.8068
-54.5988
-55.0698
-55.2896
-56.3912
-59.1806
-58.7233
-58.6952
-59.0294
-58.9714
-58.4929
-58.2613
-58.1161
-58.0326
-58.4344
-59.1521
-59.0405
-58.5309
-58.3432
-58.1057
-57.5641
-56.7383
-56.3306
-55.9333
-55.5421
-56.3634
-56.2096
-56.1352
-56.2512
-59.4381
-59.2212
-58.7862
-58.9225
-59.2917
-58.9141
-58.7192
-58.6268
-58.3024
-58.0577
-58.4883
-58.6912
-57.9957
-57.4823
-57.2846
-57.0149
-56.5957
-56.0308
-55.7616
-55.5419
-56.2486
-55.8383
-56.105
-54.4793
-55.402
-60.0208
-59.7477
-59.3636
-59.0429
-59.0531
-58.9684
-58.9281
-58.9092
-58.5269
-58.1045
-57.8868
-57.7244
-57.4586
-57.1347
-56.9542
-56.6534
-56.4238
-55.8586
-55.9453
-55.3865
-55.843
-55.5211
-55.6379
-55.1907
-55.2504
-48.6211
-48.5738
-48.6353
-48.8478
-48.6325
-48.774
-48.8241
-48.8323
-48.6467
-48.664
-48.8082
-49.0021
-49.1546
-48.815
-48.8172
-48.9144
-49.1406
-49.3818
-49.5835
-48.7257
-48.8454
-48.9376
-49.2223
-49.5066
-49.8555
-50.0645
-48.8947
-49.0069
-49.1356
-49.3485
-49.6573
-49.9209
-50.2238
-50.554
-48.9795
-49.0035
-49.2602
-49.4791
-49.8302
-50.207
-50.515
-50.6154
-50.9428
-49.0917
-49.1617
-49.5319
-49.7826
-50.1418
-50.4544
-50.699
-50.8815
-50.9235
-51.3355
-49.3175
-49.4405
-49.672
-50.1694
-50.4546
-50.7162
-51.0745
-51.207
-51.3258
-51.3405
-51.785
-49.5936
-49.7227
-49.9629
-50.7321
-50.8852
-51.2783
-51.4728
-51.634
-51.7969
-51.8727
-51.8042
-52.322
-49.9983