/*--------------------------------*- C++ -*----------------------------------*\
  =========                 |
  \\      /  F ield         | OpenFOAM: The Open Source CFD Toolbox
   \\    /   O peration     | Website:  https://openfoam.org
    \\  /    A nd           | Version:  7
     \\/     M anipulation  |
\*---------------------------------------------------------------------------*/
FoamFile
{
    version     2.0;
    format      ascii;
    class       surfaceScalarField;
    location    "9.5";
    object      phi_0;
}
// * * * * * * * * * * * * * * * * * * * * * * * * * * * * * * * * * * * * * //

dimensions      [0 3 -1 0 0 0 0];

internalField   nonuniform List<scalar> 
54006
(
0.000117151
0.00028525
-0.000408321
-7.40323e-05
0.000201468
0.000378649
-0.000471623
-0.000222381
0.000114888
-7.39491e-05
0.00012975
-0.000545873
-8.02106e-05
0.0001338
-5.63584e-05
-8.1353e-05
-7.01212e-05
0.000243327
0.000832548
-0.000863882
-0.0004142
0.000187969
-0.000221727
0.000236596
-0.00059057
-0.000246756
0.000194471
-3.46979e-05
-7.48311e-06
-0.000240871
0.000125661
-7.08139e-05
0.000131721
-0.000686928
-7.78599e-05
0.000157103
-0.00024273
-7.59355e-05
0.000118224
-0.000583734
0.000460634
-6.52451e-05
0.000362263
0.00173078
-0.00185087
-0.000368505
0.00025164
-0.000412351
0.000295405
-0.000926337
-0.000445625
0.000332986
0.000659586
-0.000791036
-0.000421265
0.000192059
-0.000241664
0.000225798
-0.000701519
-0.000247499
0.000214033
-4.44565e-05
-0.000266711
0.000226369
-0.000103614
-9.57814e-07
-0.000244445
0.000119558
-6.51672e-05
0.000134729
-0.000833817
-7.47414e-05
0.000166731
-0.000413326
-7.39956e-05
0.000126474
0.000329937
-7.17107e-05
8.49112e-05
-0.000953804
0.000869599
-6.59505e-05
0.000456301
0.00300795
-0.00322481
-0.000322625
0.000424226
-0.00039166
0.00037815
-0.00192438
-0.000436845
0.000583119
0.00128378
-0.00142939
-0.000473035
0.000321971
-0.00044037
0.000321297
-0.00103797
-0.000422748
0.000354615
-0.000933931
-0.000443312
0.000367418
0.000625355
-0.000769426
-0.000418242
0.000229853
-0.000245799
0.000190445
-0.00078399
-0.000245886
0.000218321
-7.89209e-05
-0.000264624
0.000231626
-0.000103812
-0.00026901
0.000182271
-0.000113783
1.54423e-05
-0.000243463
8.43559e-05
-6.56186e-05
0.000136373
-0.000984762
-7.22399e-05
0.000173121
-0.000590105
-7.10831e-05
0.000122597
0.000205077
-7.17328e-05
9.69134e-05
0.000773894
-7.29178e-05
5.03584e-05
-0.000968814
0.000922447
-6.99425e-05
0.000831074
0.00437226
-0.00467373
-0.000203857
0.000603465
-0.000264634
0.000479809
-0.00353735
-0.000398414
0.000726385
0.00282977
-0.00294588
-0.000349785
0.000568384
-0.000489097
0.000433318
-0.00206621
-0.000437254
0.000598988
-0.00159851
-0.000512092
0.000572141
0.00066318
-0.000786684
-0.000554254
0.00036419
-0.000432797
0.000277894
-0.00114706
-0.0004017
0.000308538
-0.0010161
-0.000430794
0.000380779
-0.000917377
-0.000444514
0.000367008
0.00053066
-0.000735253
-0.000398386
0.000186047
-0.0002455
0.000164517
-0.000841968
-0.000242631
0.000225
-0.000116745
-0.000259941
0.000207631
-0.000186003
-0.000267468
0.000190394
-8.05124e-05
-0.000266535
0.000149501
-1.1014e-05
-7.5612e-05
-0.00025598
4.97566e-05
-7.00578e-05
0.000125318
-0.00112539
-7.13516e-05
0.000170483
-0.000764141
-6.8688e-05
0.000118934
8.69697e-05
-7.19097e-05
9.74288e-05
0.000677925
-7.31923e-05
5.4873e-05
0.00087171
-7.70529e-05
3.95025e-05
-0.000866467
0.000836334
-7.93121e-05
0.00149764
0.00446254
-0.00486404
-9.12258e-05
0.00104401
-0.000153627
0.000794755
-0.0048504
-0.00023285
0.00106186
0.00337861
-0.00360599
-0.000311959
0.000762716
-0.00031553
0.000516961
-0.00376867
-0.000438012
0.000746998
-0.00309919
-0.000393112
0.000825898
0.00220292
-0.00242346
-0.000383002
0.00052863
-0.000543756
0.00041805
-0.00225806
-0.000425063
0.000485727
-0.00176204
-0.000450912
0.000651353
-0.000971022
-0.000598328
0.000553936
0.000550618
-0.000738483
-0.000553319
0.000360085
-0.000406258
0.000229323
-0.00125347
-0.000381507
0.000258029
-0.00103047
-0.000420357
0.000355032
-0.00105717
-0.0004384
0.000385048
-0.000945446
-0.000428975
0.000325981
0.000963
-0.00114042
-0.000397442
0.000142913
-0.000254923
0.000153359
-0.000902073
-0.000239093
0.0002321
-0.000165054
-0.000255939
0.000180365
-0.000242988
-0.000264386
0.000171387
-0.000159154
-0.000262784
0.000159888
-0.000164435
-0.000282727
0.000134815
0.000147235
-0.000196725
-0.000301803
3.8266e-05
-7.95232e-05
0.00011112
-0.00125275
-7.08833e-05
0.000159923
-0.000928452
-6.69625e-05
0.000119636
-2.88507e-05
-7.25036e-05
9.82534e-05
0.000581121
-7.33591e-05
5.35337e-05
0.000821687
-7.67035e-05
4.59941e-05
0.000800578
-8.72913e-05
1.5816e-05
-0.000210417
0.000211567
-9.62784e-05
0.00194482
0.00468405
-0.00504093
0.000437095
0.00162424
-0.000164914
0.00156652
-0.0050566
-1.95376e-05
0.00134661
0.0034993
-0.00372329
-0.000151987
0.00106735
-0.000233617
0.000634874
-0.00470933
-0.000205265
0.00107794
-0.00382225
-0.000347532
0.00105994
0.00284813
-0.00312011
-0.000274022
0.000787618
-0.000322658
0.000508459
-0.00392605
-0.00047612
0.000608697
-0.00322123
-0.000438944
0.000878679
-0.00257502
-0.000468875
0.000788464
0.00168644
-0.0019173
-0.000386672
0.000490954
-0.000540616
0.000340814
-0.00240735
-0.000431939
0.000374031
-0.00185933
-0.000443774
0.000647096
-0.00117247
-0.000541529
0.000643174
-0.000981185
-0.000613752
0.000555101
0.000956865
-0.00121054
-0.000528765
0.000301287
-0.000399911
0.000231457
-0.0013972
-0.00036434
0.000229193
-0.00101002
-0.000399058
0.000324025
-0.00118011
-0.000441083
0.000359385
-0.0011385
-0.000433344
0.000374131
-0.00134048
-0.000443165
0.00029193
0.00109781
-0.00119083
-0.000461537
0.000124249
-0.000298341
0.000138278
-0.000962688
-0.000236846
0.00024087
-0.000232706
-0.000252388
0.000167948
-0.000287412
-0.000259827
0.00014302
-0.000210847
-0.00025746
0.000142063
-0.000234662
-0.000281086
0.000160944
-0.000259007
-0.000335394
0.000126848
0.00062505
-0.000690837
-0.000347047
1.17495e-05
-9.64054e-05
9.94297e-05
-0.0013689
-7.02447e-05
0.000148252
-0.0010825
-6.50827e-05
0.000125125
-0.000148256
-7.26823e-05
9.7619e-05
0.000484591
-7.35921e-05
5.16828e-05
0.000773021
-7.63762e-05
4.84378e-05
0.000762433
-8.69963e-05
2.25794e-05
0.00020786
-0.000106162
9.89122e-06
-0.000587752
0.000588469
-0.000106887
0.00219173
0.00559704
-0.00583094
0.00126424
0.00201042
0.000334311
0.00230888
-0.00544889
0.000422127
0.00144482
0.00414806
-0.0042938
0.00048463
0.00121503
-0.000138012
0.00134784
-0.00512761
0.000329326
0.00145312
-0.00394089
-0.000177114
0.001096
0.00338189
-0.00359208
2.21413e-05
0.00100011
-0.000283943
0.000616579
-0.00454936
-9.82778e-05
0.000929708
-0.00400063
-0.000347903
0.00118145
-0.00343664
-0.000333778
0.000933189
0.00271809
-0.00300421
-0.000132626
0.000748758
-0.000333187
0.00042048
-0.0039719
-0.000483237
0.00048883
-0.00337044
-0.000441705
0.000807863
-0.00267399
-0.000500744
0.000900065
-0.00216004
-0.000483026
0.000811917
0.00166455
-0.00195759
-0.000350445
0.000482303
-0.000509593
0.000323869
-0.00251654
-0.000440419
0.000247339
-0.00185075
-0.000458668
0.000608075
-0.00135826
-0.000542032
0.000655292
-0.00121043
-0.00060819
0.000674212
-0.00151285
-0.000611523
0.000563042
0.00120009
-0.00145426
-0.00054571
0.000266419
-0.000455641
0.00021152
-0.00154894
-0.00035687
0.000210422
-0.000970752
-0.000373157
0.000291389
-0.00126373
-0.000438872
0.000302719
-0.00128738
-0.000451906
0.000368586
-0.00154055
-0.000459795
0.000334858
-0.00128434
-0.000523576
0.00021297
0.00115057
-0.00118345
-0.000514776
0.000107727
-0.000346206
0.00012403
-0.00102181
-0.000234107
0.000241137
-0.000313951
-0.000248486
0.000174371
-0.000333128
-0.000255918
0.000109339
-0.000229323
-0.000253071
0.000115613
-0.00027649
-0.000279563
0.000168915
-0.000324302
-0.000336268
0.000156181
-0.000776308
-0.000383526
1.96815e-05
2.43328e-05
-3.62582e-05
-0.000344912
4.8417e-06
-0.000106849
8.68857e-05
-0.00147215
-7.05547e-05
0.000139617
-0.00122962
-6.27443e-05
0.000131547
-0.000272462
-7.2424e-05
9.49229e-05
0.000390735
-7.37491e-05
4.91628e-05
0.000726387
-7.612e-05
5.09772e-05
0.000721749
-8.66693e-05
2.86853e-05
0.000198105
-0.000105927
1.70115e-05
0.000583393
-0.000118096
7.76286e-06
-0.000581486
0.000572333
-0.000105497
0.00225606
0.00616093
-0.0063533
0.00157982
0.00229545
0.00120596
0.00249233
-0.00592245
0.00126647
0.0016899
0.00523866
-0.00531023
0.00109073
0.00125817
0.000480734
0.00216163
-0.00559394
0.000514999
0.00193524
-0.00475909
0.000405295
0.00117234
0.00478868
-0.00484833
0.000467953
0.00099047
1.89904e-05
0.00123974
-0.00519022
0.000440712
0.00140268
-0.00403652
-4.80152e-05
0.00126902
-0.00387158
1.48226e-05
0.00135712
0.00383588
-0.00426213
2.44611e-05
0.00105147
-0.000243343
0.000544688
-0.00435506
-1.56967e-05
0.000799405
-0.00412747
-0.000282014
0.00109522
-0.00373379
-0.000338111
0.00109316
-0.0033094
-0.000221683
0.000917485
0.00289862
-0.00300374
-0.000133077
0.000747718
-0.000316494
0.000319072
-0.00394175
-0.000401171
0.000336442
-0.00347128
-0.000471494
0.000716933
-0.00280029
-0.000424257
0.000890598
-0.00240013
-0.000495958
0.000973044
-0.00231009
-0.000429355
0.000966045
0.00171081
-0.00203079
-0.00043347
0.000502285
-0.000516353
0.000266359
-0.00260128
-0.000426179
0.000305975
-0.00191834
-0.000468387
0.000558057
-0.00157118
-0.00051242
0.00063766
-0.00144873
-0.000638671
0.000692963
-0.00180348
-0.000641934
0.000660819
-0.00175238
-0.000639359
0.000306682
0.00165329
-0.00172829
-0.000564421
0.000171604
-0.000514625
0.000150898
-0.0016593
-0.000359567
0.000184384
-0.000915749
-0.00035512
0.000267122
-0.00131674
-0.000412897
0.0002778
-0.00141913
-0.000475575
0.00034148
-0.00174253
-0.000475789
0.000370612
-0.00140456
-0.000541267
0.000254473
-0.00123412
-0.000571203
4.63739e-06
0.00048095
-0.000495634
-0.000485048
1.52566e-05
-0.000344864
0.000115947
-0.00108812
-0.000229375
0.000234902
-0.000400047
-0.000243296
0.0001926
-0.000390649
-0.000252017
0.000111579
-0.00025039
-0.000251507
8.73324e-05
-0.000289937
-0.000277793
0.000182435
-0.000398082
-0.000337241
0.000169341
-0.000869443
-0.000383788
3.98148e-05
-6.20773e-05
-0.00038051
-9.42471e-07
-0.000166893
0.000156695
-0.000326008
1.56365e-06
-0.00010538
8.35219e-05
-0.00157202
-7.03915e-05
0.000133639
-0.0013728
-6.10122e-05
0.000136256
-0.000399946
-7.15165e-05
9.07663e-05
0.000301648
-7.41041e-05
4.56609e-05
0.000682854
-7.58774e-05
5.47427e-05
0.000677217
-8.63313e-05
3.37688e-05
0.000183284
-0.000105618
2.15496e-05
0.000574063
-0.000118146
1.49936e-05
0.0005558
-0.000116557
1.96038e-05
-0.00112556
0.00110099
-0.000100529
0.00270261
0.00675278
-0.00709925
0.00178542
0.00249986
0.00160216
0.00246253
-0.006296
0.00167767
0.00224565
0.00649624
-0.00637338
0.000901193
0.00154638
0.00103255
0.00247637
-0.00624086
0.00139941
0.00213933
-0.00543274
0.00118489
0.00144274
0.00602986
-0.00584373
0.000634194
0.00110308
0.000446123
0.00187455
-0.00565061
0.000720189
0.00191922
-0.00504114
0.000280512
0.00128353
-0.00492089
0.000463336
0.00148692
0.00496018
-0.00496112
0.000339095
0.00106287
0.000130079
0.000946926
-0.00523296
0.000583056
0.00131637
-0.0041648
5.20307e-05
0.00129612
-0.00411188
-8.61921e-06
0.000814914
-0.00409377
0.000124701
0.000900396
0.00391629
-0.00405426
0.00017952
0.000861939
-0.000153393
0.00047126
-0.00431556
-2.90548e-05
0.000687287
-0.00434617
-0.000147837
0.000945288
-0.00389451
-0.000349653
0.00104917
-0.00356721
-0.000238869
0.0011833
-0.00320652
-0.00022916
0.00111334
0.00288898
-0.00301567
-0.000153675
0.000877331
-0.000389578
0.000198065
-0.00369336
-0.000547243
0.000468904
-0.0036196
-0.000415784
0.000641224
-0.00292301
-0.000431942
0.000820603
-0.0025646
-0.000442728
0.000955688
-0.0026073
-0.000461479
0.00110041
-0.00237127
-0.000528467
0.000524305
0.00115714
-0.00138743
-0.000420803
0.000232316
-0.000557056
0.000128112
-0.00263803
-0.000409387
0.000205638
-0.00195357
-0.000412204
0.000458823
-0.00174539
-0.000485876
0.0006499
-0.00170711
-0.00062614
0.000679838
-0.00207038
-0.000710133
0.000701684
-0.00204036
-0.000685031
0.000411902
-0.00189112
-0.000633963
2.06425e-05
0.00129834
-0.00135875
-0.000520008
-5.07789e-07
-0.000495338
7.71436e-05
-0.00170254
-0.000368937
0.000169503
-0.000856511
-0.000353406
0.00024662
-0.00134289
-0.000382992
0.000259406
-0.00151044
-0.000469424
0.000307543
-0.00193526
-0.000503055
0.000417915
-0.00155902
-0.00055681
0.000290117
-0.00131766
-0.000578499
1.69098e-05
-0.000513695
-0.000530237
-0.000102407
0.000230026
-0.000167197
-0.000446413
-4.45164e-06
-0.000325133
9.75316e-05
-0.00114155
-0.000227966
0.000236837
-0.000496407
-0.000236213
0.00019376
-0.000443885
-0.000247564
0.000118502
-0.000280069
-0.000250073
5.81236e-05
-0.000278815
-0.000275092
0.00018975
-0.000473558
-0.000337325
0.000177636
-0.000966059
-0.000384493
5.73786e-05
-0.000101249
-0.000380445
5.14612e-06
0.000146536
-0.000360503
-1.16288e-05
-0.000385146
0.000400755
-0.000310385
1.32423e-05
-9.97755e-05
8.72971e-05
-0.00167658
-6.96679e-05
0.000126901
-0.00151033
-5.97673e-05
0.000135911
-0.000525933
-7.09367e-05
8.53772e-05
0.000219254
-7.44995e-05
4.39243e-05
0.000640536
-7.57102e-05
6.05701e-05
0.000626738
-8.59678e-05
3.71351e-05
0.000165143
-0.000105325
2.62164e-05
0.000560349
-0.00011812
2.15377e-05
0.000532714
-0.000116597
2.91395e-05
0.00106556
-0.000110268
-8.97492e-06
-0.00152131
0.0015194
-8.96494e-05
0.00292606
0.0065532
-0.00640516
0.00298483
0.0024301
0.00215199
0.00192807
-0.00643391
0.00204005
0.00295472
0.00685901
-0.00726436
0.00148171
0.00232624
0.000709376
0.00223919
-0.00629788
0.00173559
0.00263846
-0.00631518
0.00112034
0.00211991
0.00745229
-0.00720616
-2.2108e-05
0.00144435
0.000531082
0.00200505
-0.00621523
0.00141062
0.00207876
-0.00567527
0.0014824
0.00156505
-0.00577465
0.000834294
0.00130846
0.00686077
-0.00634941
0.000301293
0.000823607
0.000244772
0.00149583
-0.00576109
0.000962741
0.00191741
-0.00526619
0.000344196
0.00143676
-0.00500511
0.000224093
0.000857189
-0.00492661
0.000386548
0.000756654
0.00543278
-0.00538492
0.00043498
0.000870162
0.000277678
0.000656631
-0.00522116
0.000599356
0.00127777
-0.00442876
0.00025654
0.00121536
-0.00434657
1.66546e-05
0.00138943
-0.0045201
7.74529e-05
0.00121145
-0.00426978
0.000312064
0.000946902
0.00362183
-0.00368748
0.000411607
0.00101546
-9.29666e-05
0.000337701
-0.00441291
8.95876e-05
0.000686326
-0.00453019
-6.24612e-05
0.000839251
-0.00394351
-0.000296854
0.00104105
-0.00386237
-0.000274943
0.00115378
-0.00340416
-0.000239326
0.00125937
-0.00318659
-0.000217207
0.000657437
0.00157653
-0.0018419
-2.14374e-05
0.00038776
-0.000397773
8.00774e-05
-0.00340553
-0.000570152
0.000431191
-0.00383113
-0.000561261
0.000516962
-0.00295627
-0.000440667
0.000709202
-0.00257164
-0.000484209
0.000924662
-0.00274219
-0.000552663
0.00105285
-0.00259
-0.000593913
0.000711569
-0.00168529
-0.000530275
5.54701e-05
0.000435217
-0.000470025
-0.000420823
-9.20268e-06
-0.000519506
-2.02818e-05
-0.00262351
-0.000382086
0.000153804
-0.00199774
-0.000349513
0.000369711
-0.00185443
-0.000426257
0.000567924
-0.00190723
-0.000594274
0.000662398
-0.00229506
-0.000756309
0.000741028
-0.00231529
-0.000758315
0.000448393
-0.00206453
-0.000669888
2.97519e-05
-0.00142747
-0.000578094
-0.000160767
0.00135635
-0.00129446
-0.000523532
-0.00011538
-0.000450786
6.54878e-05
-0.00174903
-0.000375255
0.000185579
-0.000821219
-0.000352972
0.000184712
-0.00132266
-0.000364584
0.000206653
-0.00154412
-0.000437458
0.000275799
-0.00208664
-0.000535725
0.000454547
-0.00175027
-0.000576597
0.000312166
-0.00141494
-0.000594059
5.57296e-05
-0.000559053
-0.000531492
-0.000100854
-0.000103051
-0.000488382
-0.000101898
-7.15171e-06
7.82183e-05
-0.000427211
-2.45677e-05
-0.000310265
6.7506e-05
-0.0011638
-0.000225973
0.000232161
-0.000600343
-0.00022929
0.00017638
-0.000478469
-0.000242098
0.000109324
-0.000304315
-0.000247264
4.63996e-05
-0.000260103
-0.00027126
0.000178363
-0.000533166
-0.000333277
0.000193534
-0.00107466
-0.000385124
5.60714e-05
-0.000135317
-0.000380281
1.70364e-05
0.000131486
-0.000360893
3.35779e-06
0.000408561
-0.000342526
-8.64452e-05
-0.000444472
0.000511792
-0.000300234
-1.34125e-05
-8.91772e-05
9.39344e-05
-0.00178833
-6.9052e-05
0.000120093
-0.00164102
-5.90722e-05
0.000132896
-0.000647468
-7.11289e-05
8.20078e-05
0.000141394
-7.50846e-05
4.34806e-05
0.000598013
-7.54571e-05
6.51881e-05
0.0005715
-8.56607e-05
3.76457e-05
0.000146532
-0.000105003
3.14779e-05
0.000541587
-0.000118041
2.81182e-05
0.000503116
-0.000116641
3.85757e-05
0.00102
-0.00010962
-5.4428e-06
0.00151264
-9.80583e-05
-1.52317e-05
-0.00136438
0.00136683
-7.68679e-05
0.00195343
0.00660297
-0.00555202
0.00396445
0.00207057
0.00254287
0.00210383
-0.00638903
0.00291523
0.00315845
0.00713233
-0.00684034
0.0024891
0.00271914
0.00172274
0.00185357
-0.00610121
0.00209606
0.00264121
-0.00673174
0.00150468
0.00264636
0.0067677
-0.0068624
0.00104996
0.00194658
-0.000181852
0.00188254
-0.00645399
0.00175832
0.00229209
-0.00631015
0.00151724
0.00223854
-0.00678327
2.39685e-05
0.00131674
0.00732431
-0.00702944
-0.000325259
0.00109074
0.000203481
0.0017223
-0.00627046
0.00151379
0.00203401
-0.00576873
0.00138747
0.00177065
-0.00561821
0.000992067
0.00150854
-0.00653827
0.000371801
0.00070187
0.00673049
-0.00667654
0.000302128
0.000692456
0.000361166
0.00111373
-0.00569186
0.0012496
0.00186412
-0.005303
0.0004132
0.00143058
-0.00510397
0.000227832
0.00164899
-0.00516267
0.000200587
0.00128511
-0.00549637
0.00042434
0.000691542
0.00534172
-0.00532749
0.000676109
0.000843193
0.000440376
0.000501842
-0.00508727
0.000457478
0.00121894
-0.00467784
0.000315824
0.00110067
-0.0044491
9.76574e-05
0.00103238
-0.00462712
0.000132344
0.00128004
-0.0045525
0.000233913
0.00116924
-0.00378168
0.000496397
0.000400856
0.00352988
-0.0034079
0.000546207
0.000545516
-2.77747e-06
0.000172815
-0.00449459
0.000322445
0.00076756
-0.00488214
0.000105167
0.000784114
-0.00403187
-0.000241259
0.000935374
-0.00411472
-0.000270673
0.00111577
-0.00359063
-0.000279584
0.00128198
-0.00332912
-0.000325921
0.000819436
-0.00215424
-1.27298e-05
0.000191168
8.40491e-05
-8.50892e-05
-0.000156095
-9.68555e-06
-0.000439622
-2.75269e-06
-0.00314411
-0.000488517
0.000379662
-0.00398187
-0.000645273
0.000444673
-0.00303623
-0.000556264
0.000649133
-0.00254388
-0.000549633
0.000964617
-0.00281154
-0.000717076
0.00107514
-0.00279859
-0.000678192
0.00077518
-0.00197046
-0.000635529
0.000168077
-0.000664427
-0.000474197
-8.01538e-05
0.00137673
-0.00138299
-0.000495171
-0.000211138
-0.000511994
-5.25651e-05
-0.00257955
-0.000345943
0.000151578
-0.00203892
-0.000306911
0.000220652
-0.00192564
-0.000314244
0.000408425
-0.00203063
-0.000504627
0.000653127
-0.00252156
-0.000745105
0.000777068
-0.00258752
-0.0008066
0.000476546
-0.0022608
-0.000726428
4.82218e-05
-0.00147554
-0.000614308
-0.000138047
-0.001249
-0.000586362
-0.000180626
0.0010874
-0.00100853
-0.000523677
-0.000129001
-0.00042242
-2.09763e-05
-0.00173927
-0.000375245
0.000260399
-0.000883639
-0.000341072
0.000102404
-0.00125689
-0.000344766
0.000195106
-0.0016109
-0.000383582
0.000257873
-0.00219393
-0.00054164
0.00044049
-0.00193534
-0.000612787
0.000361997
-0.00154413
-0.000615878
5.00366e-05
-0.000603229
-0.000543847
-4.66957e-05
-7.86854e-05
-0.000492126
-8.8853e-05
0.000151185
-0.000469138
-0.000152125
-0.000266821
0.000334467
-0.000429177
-0.000112171
-0.00029976
3.27669e-05
-0.00114387
-0.000228622
0.00021711
-0.000698394
-0.000224939
0.000170374
-0.000508906
-0.000236331
8.92223e-05
-0.000310528
-0.0002431
5.93151e-05
-0.000255864
-0.000267338
0.00017298
-0.000586558
-0.00032566
0.000183089
-0.00116831
-0.000385068
0.000103917
-0.000211526
-0.000381354
5.34877e-05
8.79348e-05
-0.000362099
2.55334e-05
0.000403086
-0.000342375
-7.70317e-05
0.00057261
-0.000331756
-0.000105223
-0.000519816
0.000599606
-0.000290033
-1.62266e-05
-7.65506e-05
8.76187e-05
-0.00189379
-6.87805e-05
0.000108029
-0.0017595
-5.85942e-05
0.000126073
-0.00076095
-7.16627e-05
8.00302e-05
6.63609e-05
-7.61257e-05
4.34738e-05
0.000554688
-7.52339e-05
6.61012e-05
0.000515331
-8.53888e-05
3.51158e-05
0.000130466
-0.000104711
3.58954e-05
0.000518621
-0.000117933
3.42458e-05
0.000467455
-0.000116626
4.72524e-05
0.000965587
-0.000109475
1.61565e-06
0.00149931
-9.79096e-05
-3.76336e-06
0.00135727
-8.47308e-05
-1.0331e-05
-0.00100058
0.00100027
-6.62296e-05
0.00114827
0.0064671
-0.00582574
0.00424254
0.00220202
0.00401561
0.00262922
-0.00575201
0.00400883
0.00278712
0.00674163
-0.00643472
0.00402887
0.00225257
0.00246772
0.00236339
-0.00636157
0.00272968
0.00272973
-0.00655704
0.00254342
0.00215818
0.00746123
-0.00712065
0.0026367
0.00201831
0.00128333
0.00180831
-0.00577739
0.00162668
0.00293678
-0.00666793
0.00138756
0.00281647
-0.00679132
0.000855665
0.00100319
0.00716786
-0.00690757
0.00110322
0.00123194
-0.000156897
0.00168247
-0.00624484
0.00136322
0.0024223
-0.00632303
0.00138291
0.00231484
-0.00608182
0.000271585
0.00167071
-0.00672001
-0.000447626
0.000571116
0.00687603
-0.00712733
5.67941e-05
0.000369354
0.000364163
0.00150862
-0.00638459
0.00136761
0.00252593
-0.00626792
0.00135117
0.00225167
-0.00597127
0.000919446
0.00163783
-0.00592039
0.000385351
0.00143766
-0.00675452
0.000297229
0.000494336
0.00740427
-0.00742612
0.000521185
0.000480912
0.000588587
0.000771659
-0.00577839
0.0012816
0.00183932
-0.00544076
0.000766977
0.00139989
-0.00518653
0.000196541
0.0014227
-0.00559049
0.000265342
0.00136853
-0.00569223
0.000307956
0.000857063
-0.005324
0.000733026
0.000156765
0.00519194
-0.00510162
0.000829874
0.000389256
0.00054975
0.00034321
-0.0049688
0.000496409
0.00118732
-0.00487727
0.000237142
0.000961713
-0.00431826
7.38335e-06
0.00122111
-0.00487859
6.33794e-05
0.00123735
-0.00480155
0.00025982
0.00125803
-0.00389334
0.000369524
0.000738002
-0.00342971
0.000599639
-0.000102709
0.00297178
-0.00273095
0.00059925
0.000142234
-0.000204429
6.5394e-05
-0.00465813
0.000396522
0.000705479
-0.00508916
0.000203654
0.000725264
-0.00404174
-0.000165551
0.000949394
-0.0042395
-0.000416744
0.00114468
-0.00361746
-0.000423911
0.00129271
-0.00343688
-0.000389394
0.00106361
-0.00264754
-0.000121056
0.00038019
-0.000221962
-8.797e-05
5.0065e-05
0.000653846
-0.000582941
-0.000357218
-0.00013216
-0.00048949
-6.57156e-05
-0.00292605
-0.000326116
0.000300327
-0.00396073
-0.000658409
0.000340778
-0.00311476
-0.000686867
0.00057864
-0.00254555
-0.000724815
0.00089811
-0.00274898
-0.000857176
0.00108556
-0.00305447
-0.000769691
0.00084052
-0.00232709
-0.000685537
0.0002433
-0.000985317
-0.000509718
-1.49201e-05
-0.00142962
-0.000550692
-0.000196963
0.00196852
-0.00194203
-0.000505329
-0.000222364
-0.000500879
-0.000133301
-0.00248868
-0.000340242
0.00025166
-0.00209956
-0.000276564
7.30633e-05
-0.0019555
-0.000247704
0.000378657
-0.00218418
-0.000344252
0.000616707
-0.00276747
-0.000617547
0.000814488
-0.00289917
-0.000807451
0.000616042
-0.00254294
-0.000778501
5.24932e-05
-0.001553
-0.000651422
-5.61108e-05
-0.00122038
-0.00063352
-0.000167111
-0.000945959
-0.000570673
-0.00022801
0.000541397
-0.000490706
-0.000498481
-0.000206371
-0.000422093
-0.000137681
-0.00164819
-0.000366408
0.000271923
-0.000988278
-0.000325419
5.80374e-05
-0.00116913
-0.000316504
0.000125795
-0.00166419
-0.000328049
0.000233348
-0.00224422
-0.000507327
0.000429749
-0.00208904
-0.000644703
0.000399321
-0.00173315
-0.000639991
0.000143852
-0.000690957
-0.000568085
5.15109e-05
-0.000114699
-0.000505857
-3.34932e-05
0.00019233
-0.000474245
-0.00014692
0.000414521
-0.000479304
-0.000196614
-0.00021042
0.000306941
-0.000434306
-0.000117764
-0.00028889
2.01938e-05
-0.00111335
-0.00023231
0.000194996
-0.000790009
-0.000223975
0.000167481
-0.000541189
-0.000234064
7.10706e-05
-0.000298723
-0.000239177
7.97374e-05
-0.000271609
-0.000263619
0.000169302
-0.000643188
-0.000313907
0.000172155
-0.00125038
-0.000380634
0.000133124
-0.00031013
-0.000383693
8.44932e-05
2.02039e-05
-0.00036387
4.98038e-05
0.000380935
-0.0003425
-5.66806e-05
0.000620914
-0.000332383
-9.54798e-05
0.000681016
-0.000321449
-0.000113642
-0.000195346
0.000283989
-0.000275366
-1.88962e-05
-6.55999e-05
7.45912e-05
-0.00198589
-6.86432e-05
9.83612e-05
-0.00186821
-5.8435e-05
0.000122228
-0.00087004
-7.17329e-05
8.21074e-05
-1.04166e-05
-7.69926e-05
4.63163e-05
0.000507348
-7.51017e-05
6.18086e-05
0.000463459
-8.51706e-05
3.30842e-05
0.00011648
-0.000104487
4.07186e-05
0.000490972
-0.00011778
3.95449e-05
0.000426495
-0.000116518
5.4872e-05
0.000903113
-0.000109024
1.10013e-05
0.00147681
-9.7978e-05
-2.02754e-06
0.00134629
-8.48993e-05
-1.67654e-06
0.000991071
-7.38546e-05
2.41621e-05
-0.0010314
0.0010016
-6.05866e-05
0.000950188
0.00524862
-0.00538098
0.0044011
0.00205916
0.00408886
0.00235185
-0.00575056
0.00447988
0.00203136
0.0065108
-0.00611687
0.00460437
0.00212645
0.00414449
0.00245583
-0.00553593
0.00392814
0.00314816
-0.00677574
0.00393142
0.00158916
0.0068693
-0.00658448
0.00431308
0.00180199
0.00277502
0.00210917
-0.00611709
0.00215683
0.00346447
-0.00639558
0.00204053
0.0025348
-0.00685027
0.00255471
0.000343211
0.00713341
-0.00684456
0.00300784
0.000855499
0.00141527
0.00198946
-0.00595326
0.00152922
0.00323547
-0.0066825
0.000828082
0.00322116
-0.0067448
0.000434733
0.00131204
-0.00650175
0.000808513
5.15277e-05
0.00654162
-0.00644686
0.00152805
9.99527e-05
0.0002735
0.00141306
-0.00613773
0.00152667
0.00293023
-0.00617512
0.000811021
0.00328346
-0.00598555
0.000254853
0.0021025
-0.0066025
-0.000310595
0.00108079
-0.00720191
-1.6169e-05
-4.13626e-05
0.00782714
-0.00779151
0.000556869
0.000291173
0.000608898
0.00104173
-0.00633091
0.00132383
0.00185073
-0.00617365
0.00126192
0.00173982
-0.00573666
0.00077663
0.00218035
-0.0060772
0.000318608
0.0014134
-0.00668147
0.000267423
0.000430948
-0.00723677
0.000533996
0.000178717
0.00729563
-0.00755817
0.00076177
6.79268e-05
0.000785746
0.000467233
-0.00573001
0.00129607
0.00164144
-0.00538237
0.000769108
0.00119546
-0.00501096
0.000357653
0.00117424
-0.00544072
9.36409e-05
0.00125155
-0.00575222
0.000311134
0.000847176
-0.00526076
0.000655572
0.000551519
-0.00510181
0.000919702
-0.000417167
0.00488645
-0.0046737
0.000931578
4.6249e-05
0.00060965
0.000244739
-0.00494427
0.000618572
0.0010639
-0.00501582
0.000276536
0.00112352
-0.00452103
4.16573e-05
0.00119567
-0.00497347
-0.000144005
0.00118287
-0.0048824
0.000106052
0.00120475
-0.00386416
0.000318603
0.0010699
-0.00354347
0.000477006
0.000323995
-0.0027091
0.000633989
1.71115e-05
0.00154644
-0.00155774
0.000643498
-3.14551e-05
-0.000388466
1.03864e-05
-0.00479107
0.000439321
0.000507301
-0.0052056
0.000305984
0.000731806
-0.00411034
-0.000118781
0.000904143
-0.00425622
-0.000474334
0.00147426
-0.00396531
-0.000645037
0.00133489
-0.00351081
-0.000599299
0.00115699
-0.0031402
-0.000213204
0.000655274
-0.000721492
-3.34998e-05
0.000225117
-0.000541836
-0.000369113
-0.000102991
0.00117436
-0.00122175
-0.000403798
-0.000214965
-0.000478871
-2.9091e-05
-0.00286162
-0.000222655
0.000240701
-0.00368687
-0.000589015
0.000283695
-0.00324134
-0.000742458
0.00055482
-0.0025688
-0.00083978
0.000899771
-0.00280972
-0.000947136
0.00115023
-0.00326305
-0.00098433
0.000915889
-0.00269631
-0.000700318
0.000293912
-0.00133263
-0.000579638
2.95336e-05
-0.00149087
-0.000534115
-0.000163798
-0.0018957
-0.000600336
-0.000235941
0.00178512
-0.00176446
-0.000518066
-0.000287244
-0.000487544
-0.000181813
-0.00237659
-0.000352911
0.000235777
-0.00212397
-0.000279682
1.86468e-05
-0.0019655
-0.000227181
0.000292379
-0.00236387
-0.000234591
0.0005053
-0.00293082
-0.000452858
0.000841672
-0.00317305
-0.000755594
0.000638497
-0.00278781
-0.000801766
0.000127193
-0.00162772
-0.000687121
3.90772e-05
-0.00120362
-0.000655744
-0.000109145
-0.000895286
-0.000608542
-0.000224584
-0.000415789
-0.000567927
-0.000250478
0.000487711
-0.000384901
-0.000547426
-0.000208417
-0.00042683
-0.000167372
-0.00153731
-0.000352912
0.00024728
-0.00109859
-0.000308384
4.54781e-05
-0.00108521
-0.000287331
5.43397e-05
-0.00168018
-0.000283787
0.000219567
-0.00227599
-0.000436106
0.000407208
-0.00217774
-0.000656539
0.000414701
-0.00195584
-0.000664559
0.000213933
-0.000825857
-0.0005859
0.000101662
-0.000176571
-0.000523382
-7.39697e-07
0.000222064
-0.000485047
-9.59442e-05
0.000471105
-0.000491565
-0.000166007
0.000386578
-0.000488414
-0.000206077
6.99934e-05
1.5126e-05
-0.000426991
-0.000137946
-0.000274493
-5.05978e-06
-0.00106918
-0.000236781
0.000196524
-0.000898362
-0.000222119
0.000169819
-0.000579711
-0.000233043
7.28221e-05
-0.000287044
-0.000236457
9.41859e-05
-0.000301443
-0.000257212
0.00017688
-0.000721574
-0.000300304
0.000160287
-0.00131885
-0.000372638
0.000160723
-0.000424361
-0.000386407
0.000117023
-7.4749e-05
-0.000366217
7.6644e-05
0.000338223
-0.00034293
-3.04475e-05
0.000653192
-0.00033333
-7.0395e-05
0.000740251
-0.00032325
-9.6643e-05
0.000362036
-0.000304529
-9.56255e-05
-0.00042694
0.000508017
-0.000236655
1.89922e-05
-5.98731e-05
5.87998e-05
-0.0020622
-6.81829e-05
8.7477e-05
-0.00196602
-5.83092e-05
0.000118029
-0.000975022
-7.14826e-05
8.40578e-05
-8.85566e-05
-7.76508e-05
4.55074e-05
0.000459774
-7.49262e-05
5.45801e-05
0.000418838
-8.50606e-05
3.08346e-05
0.000104744
-0.000104269
4.04321e-05
0.000463656
-0.000117603
4.4065e-05
0.000381067
-0.000116417
6.25459e-05
0.000833007
-0.000108958
1.69014e-05
0.00144835
-9.7461e-05
9.2159e-06
0.00132393
-8.48367e-05
1.10781e-05
0.000969602
-7.45087e-05
3.35837e-05
0.00096168
-6.75192e-05
2.25191e-05
-0.00164925
0.00162288
-5.67381e-05
0.000745402
0.0046161
-0.00471409
0.00480837
0.00153409
0.00432973
0.00158585
-0.00506976
0.00485355
0.00112595
0.005807
-0.00542567
0.00492518
0.00198181
0.0045392
0.00180005
-0.00536417
0.00442332
0.00257224
-0.0061152
0.00505413
0.00096837
0.00604733
-0.00593818
0.00511601
0.00152196
0.00433621
0.00237828
-0.00574967
0.00361535
0.00314835
-0.00640584
0.00387435
0.00224133
-0.00670401
0.00434443
3.17584e-05
0.00667531
-0.00660284
0.00455206
0.000205913
0.00323986
0.00199971
-0.00558188
0.00212826
0.003502
-0.00638195
0.00187668
0.00311258
-0.00671697
0.0020158
0.000653493
-0.00666626
0.00303496
-0.000570181
0.00704222
-0.00683462
0.00342195