/*--------------------------------*- C++ -*----------------------------------*\
  =========                 |
  \\      /  F ield         | OpenFOAM: The Open Source CFD Toolbox
   \\    /   O peration     | Website:  https://openfoam.org
    \\  /    A nd           | Version:  7
     \\/     M anipulation  |
\*---------------------------------------------------------------------------*/
FoamFile
{
    version     2.0;
    format      ascii;
    class       volVectorField;
    location    "9.5";
    object      U;
}
// * * * * * * * * * * * * * * * * * * * * * * * * * * * * * * * * * * * * * //

dimensions      [0 1 -1 0 0 0 0];

internalField   nonuniform List<vector> 
18720
(
(0.992986 0.212658 -1.72076)
(1.01385 0.244505 -1.58685)
(0.987438 0.208105 -1.68702)
(1.04068 0.21863 -1.70215)
(1.28707 0.0535789 -1.66899)
(0.629845 0.462939 -1.85611)
(0.922669 0.262031 -1.55911)
(1.00841 0.239398 -1.62275)
(0.867738 0.02545 -1.83263)
(1.18062 0.0558139 -1.68825)
(1.15148 0.210081 -1.67601)
(1.39543 0.0459627 -1.63182)
(1.06968 -0.215693 -1.56086)
(0.728393 0.928504 -1.05834)
(0.571053 0.472571 -1.76892)
(0.803143 0.418024 -1.85642)
(0.776691 0.383897 -1.92105)
(0.853552 0.0514352 -1.83741)
(0.920248 0.242131 -1.67876)
(0.893382 -0.0152408 -1.82907)
(0.901311 0.0152958 -1.82281)
(1.08201 -0.207584 -1.56107)
(1.26129 0.192951 -1.67122)
(1.46464 0.0351948 -1.57195)
(1.0406 -0.216462 -1.54876)
(0.842058 -0.415063 -1.42137)
(0.675419 1.55565 -0.813021)
(0.750355 0.927202 -1.07572)
(0.7714 0.947433 -1.23627)
(1.11508 0.743877 -1.32101)
(0.743884 0.381621 -1.99141)
(0.884463 0.393644 -1.76173)
(0.771534 0.413926 -1.8171)
(0.997935 0.378224 -1.91983)
(0.929526 0.00746689 -1.81803)
(0.867211 0.242498 -1.72212)
(0.995883 -0.0635812 -1.79859)
(0.863977 -0.0108182 -1.84335)
(0.52443 -0.0143088 -1.88488)
(0.837956 -0.406187 -1.40371)
(1.33393 0.167741 -1.68795)
(1.49014 0.0225222 -1.45793)
(1.00448 -0.221969 -1.53975)
(0.866069 -0.421496 -1.42882)
(0.420676 -0.451166 -1.61274)
(0.790402 2.34022 -0.300631)
(0.76199 1.51682 -0.571099)
(0.734473 1.6934 -1.00314)
(1.20639 1.45409 -0.846819)
(1.02232 0.690365 -1.45421)
(0.896288 0.90084 -1.35195)
(1.12398 0.690195 -1.31011)
(1.03139 0.410984 -1.7768)
(0.981484 0.377577 -2.01096)
(0.731355 0.434577 -1.67502)
(0.72257 0.435869 -1.73504)
(0.89915 0.412375 -1.86149)
(1.02171 0.350509 -1.88788)
(0.559108 -0.0268695 -1.89416)
(0.848402 0.231062 -1.73002)
(1.10978 -0.130582 -1.74599)
(0.843883 0.0108598 -1.85726)
(0.518682 0.0073099 -1.87123)
(0.435812 0.0335752 -1.82194)
(0.443373 -0.446289 -1.60441)
(1.2392 0.196024 -1.73718)
(1.44428 0.0283355 -1.34907)
(0.97964 -0.224221 -1.54308)
(0.854544 -0.433597 -1.44957)
(0.389764 -0.45091 -1.6216)
(0.279032 -0.410874 -1.60104)
(1.3766 2.40257 0.226518)
(0.988872 2.13338 -0.239685)
(0.910778 2.37106 -0.412156)
(1.19494 1.79273 -0.56486)
(1.10639 1.49581 -0.794878)
(1.02209 1.76979 -1.09104)
(1.16343 1.46792 -0.837632)
(1.27481 1.19118 -0.894582)
(0.965075 0.388916 -1.73579)
(0.924947 0.940678 -1.32918)
(1.02248 0.761856 -1.18946)
(1.10729 0.354087 -1.72549)
(0.986337 0.347189 -1.8247)
(1.00383 0.30584 -1.90821)
(0.615957 0.485684 -1.61375)
(0.675451 0.414551 -1.67908)
(0.754063 0.410251 -1.85229)
(0.959156 0.39479 -1.82344)
(0.853554 0.550404 -1.69106)
(0.420167 0.0120747 -1.83069)
(0.83637 0.211556 -1.7129)
(1.16433 -0.192797 -1.70972)
(0.803798 -0.0220265 -1.86074)
(0.530962 0.00984643 -1.85248)
(0.425208 0.0462396 -1.81589)
(0.40618 0.0927997 -2.06213)
(0.285374 -0.410083 -1.60174)
(1.16714 0.211959 -1.77077)
(1.34831 0.0496938 -1.28157)
(1.00561 -0.244575 -1.56363)
(0.834588 -0.443139 -1.46919)
(0.369953 -0.449143 -1.6235)
(0.270783 -0.409791 -1.59997)
(-0.0867571 -0.100728 -2.06451)
(1.9694 2.48904 0.613764)
(1.49785 2.25498 -0.0644494)
(1.30384 2.39614 0.437795)
(1.62374 1.84023 -0.548467)
(1.24247 1.73472 -0.407695)
(1.01985 2.30066 -0.291489)
(1.2681 1.80835 -0.478068)
(1.48838 1.51298 -0.688295)
(1.08085 1.14663 -0.762361)
(1.12925 1.74468 -1.21241)
(1.00164 1.48344 -0.930252)
(1.3602 1.25101 -0.965954)
(1.25508 0.948704 -1.04362)
(0.923744 0.335744 -1.7697)
(0.938827 0.999151 -1.35843)
(0.891425 0.777741 -1.15204)
(1.21924 0.462972 -1.48319)
(1.0144 0.394814 -1.82509)
(0.933106 0.570255 -1.70109)
(0.786406 0.52022 -1.72989)
(0.610546 0.505646 -1.60537)
(0.699983 0.377555 -1.58999)
(0.634721 0.471941 -1.81977)
(0.821148 0.452514 -1.80971)
(0.862806 0.59868 -1.67761)
(0.749259 0.598458 -1.90739)
(0.403299 0.104927 -2.01684)
(0.783353 0.201063 -1.70833)
(1.15523 -0.245864 -1.69441)
(0.776522 -0.0383055 -1.8542)
(0.557763 0.00909709 -1.81373)
(0.389922 0.0666763 -1.79773)
(0.436031 0.100353 -2.08761)
(0.475905 0.343637 -2.6043)
(-0.0953648 -0.10623 -2.06088)
(1.14681 0.215953 -1.78307)
(1.2625 0.0798955 -1.23381)
(1.07076 -0.271704 -1.56838)
(0.80882 -0.448325 -1.48912)
(0.361448 -0.451492 -1.62372)
(0.257952 -0.407166 -1.59934)
(-0.0734634 -0.0940441 -2.06774)
(-0.00137161 -0.281223 -2.391)
(2.0085 2.92143 1.60709)
(1.86002 2.35907 0.474305)
(2.14982 2.547 0.710164)
(1.42122 2.10783 0.696968)
(1.36162 1.81815 -0.512436)
(1.11861 2.46677 1.01905)
(1.56345 1.85769 -0.483759)
(1.29558 1.75659 0.0314464)
(1.40237 1.49434 -0.52159)
(1.12801 2.15322 -0.0638183)
(1.23161 1.82853 -0.486972)
(1.48874 1.5764 -0.795809)
(1.39945 1.44146 -0.397655)
(0.995652 0.87028 -0.871015)
(1.04448 1.79116 -1.12989)
(0.888065 1.50692 -0.998896)
(1.34643 1.11834 -1.09864)
(1.43313 0.979456 -1.17726)
(1.31347 0.948544 -0.861827)
(0.798494 0.498548 -1.66429)
(1.10279 0.955601 -1.40962)
(0.792939 0.767724 -1.18864)
(1.26297 0.420239 -1.49048)
(1.13582 0.450136 -1.75063)
(1.08858 0.637047 -1.72084)
(0.876406 0.682148 -1.71639)
(0.613673 0.583075 -1.87496)
(0.634427 0.574142 -1.6412)
(0.804716 0.283175 -1.47546)
(0.617463 0.495796 -1.73632)
(0.591316 0.522018 -1.89217)
(0.81306 0.624308 -1.73862)
(0.856166 0.599616 -1.97967)
(0.563637 0.604686 -2.36643)
(0.392628 0.335622 -2.57936)
(0.701335 0.243962 -1.71028)
(1.12873 -0.269468 -1.68398)
(0.785989 -0.0701215 -1.83059)
(0.563426 -0.0137751 -1.77317)
(0.33462 0.0778999 -1.78321)
(0.479387 0.105694 -2.1028)
(0.570818 0.341166 -2.62355)
(0.228152 0.0264982 -2.66804)
(-0.014187 -0.283047 -2.3826)
(1.08153 0.253819 -1.82312)
(1.20485 0.108515 -1.20309)
(1.125 -0.297265 -1.54784)
(0.784899 -0.453694 -1.50627)
(0.344597 -0.455278 -1.62753)
(0.243126 -0.405423 -1.59878)
(-0.0609391 -0.0873904 -2.0687)
(0.0149896 -0.279902 -2.39902)
(0.0256861 -0.276368 -2.50327)
(1.97256 3.11521 1.9574)
(1.95648 2.87507 1.57655)
(2.51587 2.72639 1.32208)
(1.40007 2.65951 1.5833)
(1.16395 2.12625 0.531055)
(2.22612 2.53069 0.990669)
(1.64828 2.18214 0.427455)
(1.16304 2.38381 0.712697)
(1.01467 1.71452 0.0259441)
(1.2618 2.35584 1.155)
(1.50193 1.8272 0.00289697)
(1.53989 1.81546 -0.0563752)
(0.972051 2.09612 0.0306865)
(1.36477 1.34231 -0.64788)
(1.18337 1.96137 -0.118193)
(1.22825 1.84552 -0.31575)
(1.47643 1.66269 -0.790543)
(1.45342 1.5372 -0.420759)
(1.31178 1.52394 -0.126919)
(1.07 0.85168 -0.758813)
(1.01375 1.79397 -1.07074)
(0.677568 1.58253 -1.13936)
(1.29415 1.18666 -1.03992)
(1.47252 0.953305 -1.18854)
(1.49155 1.00886 -0.990424)
(1.37827 0.975247 -0.941585)
(0.805897 0.606176 -1.6108)
(1.1348 0.929628 -1.44327)
(0.631001 0.790124 -1.2443)
(1.21331 0.491045 -1.54328)
(1.18684 0.476646 -1.76479)
(1.22339 0.720134 -1.77874)
(0.917526 0.754924 -1.86746)
(0.602315 0.813246 -1.87796)
(0.429591 0.603588 -2.32614)
(0.720421 0.566539 -1.69773)
(0.845292 0.166195 -1.39656)
(0.704902 0.481409 -1.64314)
(0.369187 0.607996 -1.97674)
(0.735926 0.710777 -1.82642)
(0.926815 0.572471 -2.08349)
(0.653871 0.568981 -2.42162)
(-0.110184 0.239487 -2.30183)
(0.170174 0.0238678 -2.6604)
(0.669086 0.243047 -1.71497)
(1.1269 -0.308458 -1.65439)
(0.836968 -0.115668 -1.79464)
(0.523824 -0.0282201 -1.75906)
(0.284354 0.0834139 -1.78007)
(0.531806 0.100832 -2.11428)
(0.689567 0.354916 -2.63799)
(0.288257 0.0159293 -2.67477)
(0.138668 -0.0703095 -2.54954)
(0.000729549 -0.281969 -2.48971)
(1.15719 0.201023 -1.81827)
(1.18242 0.126902 -1.19149)
(1.16024 -0.327905 -1.4918)
(0.750467 -0.455414 -1.52959)
(0.330918 -0.456005 -1.63057)
(0.229002 -0.400961 -1.5982)
(-0.0474396 -0.0791659 -2.06802)
(0.0308844 -0.278752 -2.40671)
(0.0550863 -0.272033 -2.51623)
(0.208107 -0.522624 -2.35195)
(1.47003 3.67972 1.88027)
(1.79353 3.1763 2.14244)
(1.92545 3.07848 1.69747)
(1.718 3.15854 1.73371)
(0.991845 2.63916 1.51731)
(2.48453 2.81737 1.32527)
(2.13387 2.5559 1.56812)
(1.1685 2.89758 1.25627)
(0.944591 2.43278 0.860394)
(2.19764 2.45578 1.18585)
(1.89336 2.24983 0.409224)
(1.30566 2.3396 0.624817)
(2.03775 2.02902 0.613284)
(1.23236 1.94711 0.0317165)
(1.28305 2.37757 1.15866)
(1.45265 1.80377 0.195695)
(1.59874 1.79498 -0.129943)
(1.33128 1.96145 0.10314)
(1.11782 2.00405 0.0639325)
(1.18275 1.48683 -0.299317)
(1.14979 1.88584 -0.172248)
(1.24607 1.87681 0.0536246)
(1.47533 1.6878 -0.718237)
(1.56122 1.58283 -0.452606)
(1.55488 1.43995 -0.413389)
(1.70648 1.48062 -0.450405)
(1.11398 0.860125 -0.869252)
(0.900807 1.67602 -1.16682)
(1.29473 1.50618 -0.847312)
(1.30345 1.13517 -1.05389)
(1.49261 1.04627 -0.903981)
(1.57523 1.08376 -1.04313)
(1.60333 1.03398 -1.00863)
(0.617307 0.624666 -1.23783)
(0.417403 0.887604 -1.77699)
(0.878854 1.03609 -1.48788)
(0.505769 0.857488 -1.16528)
(1.09668 0.519993 -1.51804)
(1.44317 0.474245 -1.53981)
(1.2937 0.776428 -1.97173)
(1.14628 0.854433 -2.00663)
(0.701119 0.881394 -1.96028)
(0.127748 0.655426 -1.71959)
(-0.0954065 0.206529 -2.32619)
(0.78615 0.536107 -1.77268)
(0.815725 0.140167 -1.38516)
(0.817557 0.40678 -1.58695)
(0.50406 0.619936 -1.86125)
(0.642137 0.798724 -1.95193)
(1.04951 0.571408 -2.15116)
(0.700701 0.562239 -2.47992)
(-0.0224063 0.264874 -2.28965)
(-0.170772 0.0998143 -2.06364)
(0.0853991 -0.0773371 -2.53481)
(0.623286 0.28725 -1.74118)
(1.13494 -0.340391 -1.5999)
(0.888674 -0.162616 -1.75802)
(0.478534 -0.0402117 -1.75618)
(0.210275 0.0865618 -1.79031)
(0.612357 0.0828823 -2.10858)
(0.788333 0.342227 -2.65903)
(0.323993 0.0075535 -2.68419)
(0.181586 -0.0758829 -2.55968)
(0.0885153 -0.187692 -2.44073)
(0.190078 -0.526701 -2.34383)
(1.26259 0.122593 -1.79326)
(1.18918 0.131355 -1.18728)
(1.14606 -0.332419 -1.44117)
(0.711671 -0.452995 -1.5599)
(0.307729 -0.459733 -1.63541)
(0.213909 -0.393006 -1.5976)
(-0.036693 -0.0713739 -2.06648)
(0.0424391 -0.278952 -2.41399)
(0.0867953 -0.268819 -2.52862)
(0.227722 -0.52408 -2.35943)
(0.076138 -0.737674 -2.2171)
(2.41301 2.56428 3.20876)
(1.7799 3.2779 2.40532)
(1.8633 3.09007 1.98119)
(1.63035 3.63644 1.81375)
(1.45174 3.37019 1.58572)
(2.28855 2.79908 1.46295)
(1.79304 3.01618 1.86958)
(1.31422 3.54505 0.313078)
(0.907505 3.04867 1.16711)
(2.3077 2.72098 1.65406)
(2.25069 2.49567 1.91466)
(1.34779 2.81453 1.2893)
(1.03008 3.16545 0.448659)
(0.733185 2.85346 0.380945)
(1.89717 2.46272 1.66492)
(2.06392 2.26082 0.757935)
(1.59321 2.33559 0.31503)
(0.617199 2.69431 0.632693)
(0.835177 2.65553 0.451763)
(0.888601 1.93412 0.427905)
(1.37636 2.31152 1.0469)
(1.44369 1.85355 0.636701)
(1.49702 1.88619 -0.0202981)
(1.37397 2.00825 0.112417)
(1.50827 1.98558 0.302837)
(1.32826 1.81349 0.532541)
(1.52655 1.51933 -0.357253)
(1.10047 1.90108 -0.0417773)
(1.31084 1.87797 0.0609877)
(1.43596 1.63729 -0.565464)
(1.52442 1.56575 -0.561565)
(1.60575 1.48269 -0.446424)
(1.76251 1.45533 -0.449989)
(1.02303 0.848744 -0.209935)
(0.402536 0.557618 -1.06358)
(0.790313 1.56888 -1.07042)
(1.22009 1.48584 -1.45998)
(1.19224 1.18821 -1.10117)
(1.40214 0.946663 -0.925164)
(1.63561 1.07022 -1.09821)
(1.68301 1.0779 -1.10668)
(0.906288 0.741885 -1.43553)
(-0.0767852 0.208183 -0.861668)
(0.0268665 0.634914 -1.75372)
(0.578298 1.20357 -1.392)
(0.540651 0.840876 -1.04077)
(0.97012 0.585855 -1.23601)
(1.32263 0.55093 -1.42864)
(1.37715 0.798691 -2.13658)
(1.3834 0.864811 -2.23359)
(0.938948 0.893124 -2.10489)
(0.157237 0.675603 -1.71406)
(-0.447766 0.627671 -1.65568)
(-0.143217 0.116373 -2.10526)
(0.806202 0.524333 -1.83397)
(0.810997 0.0385252 -1.41671)
(0.79188 0.381715 -1.58904)
(0.662221 0.589768 -1.68366)
(0.574199 0.884057 -2.03307)
(1.09195 0.590868 -2.27148)
(0.740302 0.558315 -2.55654)
(0.0953414 0.228765 -2.30895)
(-0.169374 0.0645879 -2.04415)
(-0.191244 -0.0251126 -1.98465)
(0.0471408 -0.182714 -2.42793)
(0.636149 0.281928 -1.76559)
(1.0894 -0.338434 -1.56779)
(0.926536 -0.219978 -1.72186)
(0.425747 -0.0348542 -1.74464)
(0.180522 0.0783106 -1.79321)
(0.736933 0.0506032 -2.07573)
(0.863593 0.323936 -2.67921)
(0.376429 -0.00427598 -2.68777)
(0.225989 -0.0883982 -2.56945)
(0.134549 -0.198014 -2.45202)
(-0.292587 -0.248219 -2.30592)
(0.095559 -0.72413 -2.21371)
(1.33697 0.0573187 -1.77364)
(1.21058 0.119364 -1.19002)
(1.11385 -0.322189 -1.40647)
(0.675287 -0.451425 -1.59988)
(0.297487 -0.463332 -1.63598)
(0.198044 -0.380422 -1.59782)
(-0.0302403 -0.0619547 -2.06513)
(0.0556668 -0.280086 -2.42048)
(0.117207 -0.268793 -2.54015)
(0.260004 -0.52254 -2.36632)
(0.0418905 -0.753465 -2.21676)
(-0.00833114 -0.667987 -1.88561)
(1.56846 2.80776 3.47342)
(1.21829 4.02844 2.56582)
(1.10942 3.46952 2.4828)
(2.75709 3.08937 2.504)
(1.72354 3.43179 2.00175)
(1.66025 2.92438 1.93106)
(2.23116 3.20857 1.84612)
(1.90362 3.28376 1.20418)
(1.14342 3.83488 0.0141766)
(2.02598 2.87163 1.51745)
(1.91781 2.8734 2.24702)
(1.51885 3.36769 0.449635)
(1.0934 3.49256 -0.348512)
(0.536586 3.39611 0.232356)
(2.19919 2.5993 1.82657)
(2.50484 2.38969 1.7075)
(1.71245 2.57903 1.61574)
(1.27084 3.18066 0.703137)
(0.619552 3.26933 0.320135)
(0.698588 2.72105 0.39594)
(1.53724 2.4375 2.13696)
(2.33459 2.12873 0.933205)
(1.86165 2.20602 0.161613)
(2.13797 2.06477 0.304559)
(1.22485 2.62504 0.375567)
(0.720864 2.61059 0.797659)
(1.04847 1.84897 0.491622)
(1.37107 2.18761 1.1007)
(1.66926 1.85744 0.786774)
(1.51996 1.91381 0.171822)
(1.69119 1.98148 0.0880911)
(1.62375 2.02923 0.141869)
(1.5277 1.78664 0.668703)
(0.691978 1.69345 0.829753)
(0.731877 0.779385 -0.0127877)
(1.06172 1.95717 0.650774)
(1.52823 1.93822 0.390734)
(1.39194 1.64896 -0.260508)
(1.48267 1.71045 -0.528042)
(1.61605 1.52764 -0.490804)
(1.74507 1.44751 -0.429459)
(1.21653 0.926762 -0.407433)
(0.261457 0.0556634 0.121751)
(-0.148855 0.213307 -0.90838)
(0.720264 1.45327 -0.762967)
(1.24392 1.619 -1.64216)
(1.13018 1.15916 -1.17943)
(1.35911 0.935654 -0.928043)
(1.65522 1.04373 -1.30449)
(1.75857 1.04652 -1.49105)
(0.941458 0.805223 -1.66603)
(-0.0145968 0.266646 -0.973366)
(-0.19149 0.666982 -1.20559)
(-0.603345 0.634635 -1.61189)
(0.611919 1.14478 -1.21338)
(0.676354 0.792672 -0.980389)
(0.772021 0.697648 -0.993327)
(1.00267 0.68294 -1.35461)
(1.46859 0.797438 -2.06789)
(1.66375 0.869952 -2.35173)
(1.11412 0.88237 -2.32706)
(0.30083 0.689629 -1.79697)
(-0.338927 0.655345 -1.70132)
(-0.425931 0.486507 -1.73161)
(-0.245345 -0.0114986 -1.9762)
(0.653919 0.61539 -1.83983)
(0.840957 -0.0151696 -1.42645)
(0.631354 0.398917 -1.55164)
(0.694456 0.550164 -1.54212)
(0.599774 0.918846 -1.95088)
(0.942323 0.673194 -2.47137)
(0.876145 0.555106 -2.62562)
(0.0595224 0.308998 -2.37575)
(-0.12933 0.0609625 -2.05662)
(-0.135434 -0.0491122 -1.97574)
(-0.382162 -0.169059 -1.92102)
(-0.343987 -0.233736 -2.29063)
(0.665843 0.197236 -1.80956)
(1.00909 -0.321319 -1.52837)
(0.945626 -0.286023 -1.67658)
(0.416846 -0.0357239 -1.71817)
(0.157865 0.0718774 -1.788)
(0.835543 -0.00827501 -2.03177)
(0.89764 0.32604 -2.6748)
(0.441722 -0.0122989 -2.6981)
(0.277131 -0.0976911 -2.5892)
(0.197673 -0.218004 -2.46178)
(-0.243847 -0.261734 -2.31853)
(-0.305694 -0.288339 -2.25823)
(0.0490071 -0.687738 -1.87107)
(1.3402 0.0447816 -1.76941)
(1.21471 0.122124 -1.20803)
(1.08328 -0.316605 -1.38987)
(0.64429 -0.449743 -1.65521)
(0.27458 -0.458337 -1.6347)
(0.182672 -0.364911 -1.59901)
(-0.0289975 -0.053414 -2.06555)
(0.0684054 -0.280877 -2.42627)
(0.146713 -0.269764 -2.55095)
(0.288357 -0.523524 -2.37374)
(0.0525397 -0.741294 -2.22009)
(0.0802397 -0.687977 -1.88254)
(0.0768989 -0.490335 -1.64885)
(0.597878 2.97058 3.29219)
(0.928139 3.44653 3.54307)
(1.55984 2.77306 3.31721)
(1.5598 3.10782 3.31878)
(1.63355 4.00296 2.2014)
(1.51936 2.77091 2.7047)
(1.75368 3.45469 2.3934)
(1.91071 3.52643 2.07023)
(1.42434 3.55643 1.51489)
(1.84129 2.54722 1.81777)
(2.01094 3.17973 1.93201)
(1.99095 3.26867 0.910371)
(0.925099 3.3907 0.949305)
(0.783413 3.63872 -0.463252)
(2.06581 2.7172 1.53743)
(1.85519 3.01567 2.14253)
(1.80307 3.17129 0.869401)
(1.43809 3.30791 -0.374869)
(0.537489 3.42675 -0.370009)
(0.242075 3.31118 0.338314)
(2.15408 2.62635 1.77222)
(2.36988 2.54587 1.70722)
(1.69678 2.62687 1.52213)
(1.53888 2.96488 0.728993)
(1.47588 3.22216 0.19876)
(0.575941 3.65042 0.490717)
(0.478733 2.66648 0.628949)
(1.53243 2.48454 2.07392)
(2.29419 2.03452 1.24253)
(1.88818 2.09004 0.215253)
(1.29051 2.65773 0.471306)
(1.59315 2.54534 0.225066)
(1.08344 2.54732 0.784653)
(0.148081 2.48433 1.18648)
(0.506492 1.75614 0.948715)
(1.30068 2.1634 1.29274)
(2.00066 1.79638 0.314551)
(1.66276 1.72256 0.177839)
(1.79673 2.01144 0.152765)
(1.83838 1.914 0.326716)
(1.80954 1.69947 0.586051)
(0.953528 1.64545 0.812105)
(0.191356 1.37099 1.04671)
(0.10582 0.0463295 -0.00754201)
(1.09751 2.00231 0.936717)
(1.68178 1.97489 0.569866)
(1.43923 1.59125 0.032539)
(1.56094 1.67645 -0.628214)
(1.9255 1.30281 -0.519719)
(1.93234 1.35789 -0.524771)
(1.50078 1.0492 -0.856439)
(0.534526 0.0229742 0.349772)
(-0.0922674 0.291787 -0.732986)
(-0.314446 0.633996 -1.25996)
(0.651006 1.36958 -0.372454)
(1.29455 1.58373 -1.52849)
(0.947911 1.21589 -1.39771)
(1.231 0.890826 -1.40349)
(1.67618 0.933155 -1.64282)
(1.81808 1.05207 -2.02281)
(1.04005 0.852067 -1.69031)
(-0.0142106 0.373477 -1.22383)
(-0.0737323 0.674928 -1.13931)
(-0.28609 0.944002 -1.25574)
(-0.553252 0.499535 -1.67721)
(0.459009 1.22423 -1.08727)
(1.06532 0.562717 -0.946956)
(0.605757 0.781551 -0.812638)
(1.01658 0.694185 -0.92793)
(1.54604 0.840581 -1.59416)
(1.90075 0.841484 -2.35966)
(1.37612 0.913275 -2.49686)
(0.394934 0.696505 -1.92982)
(-0.0458827 0.579717 -1.85282)
(-0.331456 0.509159 -1.7493)
(-0.486371 0.176519 -1.61166)
(-0.521965 -0.149801 -1.8589)
(0.397802 0.768766 -1.78486)
(0.847953 -0.0343352 -1.4364)
(0.566409 0.365953 -1.44803)
(0.609568 0.588749 -1.41393)
(0.815352 0.863765 -1.65312)
(0.879873 0.750514 -2.60082)
(0.847396 0.582842 -2.75666)
(0.395122 0.224667 -2.50718)
(0.105391 0.0257203 -2.12496)
(-0.0433598 -0.0840607 -2.00222)
(-0.323158 -0.164185 -1.92956)
(-0.516389 -0.137193 -1.96859)
(-0.334172 -0.267713 -2.24798)
(0.625456 0.202028 -1.87533)
(0.897413 -0.227787 -1.53313)
(0.901887 -0.311008 -1.67117)
(0.412853 -0.0731668 -1.69924)
(0.167949 0.0574975 -1.7785)
(0.862757 -0.0450169 -1.99338)
(0.87798 0.307906 -2.62076)
(0.492996 -0.0280124 -2.72144)
(0.326 -0.102494 -2.61718)
(0.259019 -0.23348 -2.47103)
(-0.211286 -0.276155 -2.33083)
(-0.26905 -0.312969 -2.26788)
(-0.339144 -0.128976 -2.19758)
(0.0454317 -0.490168 -1.6378)
(1.27576 0.0902825 -1.76765)
(1.20394 0.13908 -1.21517)
(1.08009 -0.320329 -1.35946)
(0.648566 -0.469598 -1.70693)
(0.254261 -0.458168 -1.63613)
(0.16819 -0.350155 -1.60192)
(-0.0312668 -0.0434921 -2.0672)
(0.0771813 -0.28199 -2.43111)
(0.175015 -0.272643 -2.56094)
(0.315245 -0.526366 -2.38038)
(0.0779879 -0.72167 -2.2283)
(0.031735 -0.668003 -1.8981)
(0.103652 -0.491032 -1.66021)
(0.431358 -0.474491 -1.38979)
(0.58214 2.5364 3.0712)
(1.34319 3.26457 2.96121)
(1.7629 2.71322 3.05424)
(1.70935 3.12292 3.32747)
(0.908121 3.39044 3.46217)
(1.87349 2.51683 3.12311)
(1.83467 3.27084 2.97105)
(1.01711 3.18697 3.48579)
(0.91602 3.75845 2.34275)
(1.56439 2.99095 2.03471)
(2.75898 2.73373 1.95596)
(2.07933 3.3325 1.82214)
(0.34212 3.31861 2.78255)
(0.602209 3.61957 1.09599)
(1.83075 2.56682 1.54121)
(2.81368 2.83961 1.12646)
(2.26734 3.14603 0.650761)
(1.28732 3.22385 0.686999)
(0.184721 3.13021 1.28854)
(-0.104512 3.31594 0.102756)
(2.12749 2.55724 1.49245)
(3.21176 2.13348 1.28362)
(2.9951 2.09232 0.731249)
(1.82163 3.09811 -0.247525)
(1.18974 3.43859 -0.533968)
(0.128884 3.76014 0.49164)
(0.00434951 3.56463 0.569839)
(1.92471 2.68011 1.86522)
(2.65785 2.3996 1.49383)
(1.94138 2.42867 1.56328)
(2.34802 2.36505 0.717083)
(1.62824 3.12186 0.195313)
(0.769528 3.5061 0.542062)
(0.0167792 3.58067 0.829173)
(0.0579583 2.54239 1.11374)
(1.56613 2.42425 1.99773)
(2.2087 2.0293 1.42499)
(1.78445 2.12273 0.877479)
(1.90678 2.25863 0.317161)
(1.59094 2.57801 0.263477)
(1.28 2.43348 0.629389)
(0.797336 2.45509 1.13763)
(-0.520786 2.31599 1.29197)
(0.120792 1.47684 0.948988)
(1.27937 2.089 1.42723)
(2.03767 1.75466 0.296948)
(1.72678 1.68591 0.412718)
(2.02799 1.91699 -0.151103)
(1.87986 2.21818 0.0134391)
(1.87026 1.58704 0.48648)
(1.5337 1.52629 0.513602)
(0.417831 1.3097 1.01649)
(0.195186 0.745909 0.959219)
(-0.196088 0.314913 -0.798652)
(1.19486 1.99915 0.989176)
(1.66642 2.04672 0.55247)
(1.52258 1.52907 0.240218)
(1.68094 1.61771 -0.662381)
(1.91656 1.4001 -0.983889)
(2.13188 1.25805 -1.06631)
(1.78076 1.1485 -1.01882)
(0.800464 0.11732 0.421237)
(0.0725676 0.278966 -0.660589)
(-0.444139 0.539861 -0.773645)
(-0.407298 0.932422 -1.15744)
(0.622761 1.30227 -0.102349)
(1.35632 1.41849 -1.10828)
(0.809427 1.38373 -1.58447)
(1.24176 0.803839 -1.80249)
(1.60315 0.849708 -2.0024)
(1.93295 1.06006 -2.31295)
(1.508 0.990289 -1.60103)
(0.0178507 0.603206 -1.441)
(0.00278043 0.751995 -1.06182)
(-0.174252 0.922948 -1.34932)
(-0.427392 0.883564 -1.28754)
(-0.659752 0.249154 -1.51888)
(0.328641 1.30888 -1.05867)
(1.1665 0.474342 -1.03968)
(0.522661 0.835055 -0.681546)
(0.897902 0.808333 -0.71506)
(1.36878 0.951568 -1.07639)
(2.11765 0.824262 -2.0475)
(1.77429 0.846264 -2.49444)
(0.589575 0.666365 -2.08614)
(0.257072 0.588635 -1.9503)
(-0.111823 0.436754 -1.87224)
(-0.43801 0.294367 -1.56162)
(-0.601493 0.216365 -1.66222)
(-0.567617 -0.137635 -1.95291)
(0.396518 0.729463 -1.72673)
(0.892123 -0.0712502 -1.41788)
(0.592353 0.281777 -1.32225)
(0.538357 0.6627 -1.28102)
(1.01402 0.754534 -1.34496)
(0.910817 0.739536 -2.5917)
(0.888097 0.652993 -2.90934)
(0.615819 0.211332 -2.58827)
(0.310285 0.00645781 -2.22309)
(0.063972 -0.112478 -2.05654)
(-0.23722 -0.197498 -1.96976)
(-0.430204 -0.158427 -2.023)
(-0.571774 -0.00355264 -2.02349)
(-0.424755 -0.113448 -2.17476)
(0.584321 0.183629 -1.93018)
(0.856446 -0.210877 -1.53413)
(0.876717 -0.337999 -1.66578)
(0.419197 -0.111399 -1.68875)
(0.229743 0.0278128 -1.76114)
(0.798459 -0.0364684 -1.96091)
(0.889395 0.308322 -2.49384)
(0.581016 0.00984255 -2.74308)
(0.369656 -0.0943598 -2.65065)
(0.306873 -0.248914 -2.48309)
(-0.173025 -0.292294 -2.34718)
(-0.236081 -0.330447 -2.28585)
(-0.240472 -0.152923 -2.2178)
(-0.15177 -0.233265 -1.95909)
(0.43481 -0.465746 -1.36104)
(1.22048 0.145575 -1.76967)
(1.17444 0.159018 -1.2196)
(1.04247 -0.314923 -1.34952)
(0.668204 -0.503758 -1.75393)
(0.244145 -0.457939 -1.63643)
(0.158005 -0.341753 -1.60611)
(-0.0328253 -0.0357303 -2.07004)
(0.0882812 -0.28411 -2.43567)
(0.202096 -0.2772 -2.57025)
(0.346052 -0.531401 -2.3852)
(0.0558117 -0.736187 -2.22977)
(0.0591693 -0.6815 -1.89873)
(0.151469 -0.496039 -1.66869)
(0.433067 -0.481944 -1.41795)
(0.494851 -0.788817 -1.3961)
(0.330225 2.1993 3.19526)
(0.533367 2.60082 3.01548)
(0.947843 2.57757 3.03571)
(0.587229 2.66172 3.36883)
(1.13674 3.20651 3.4456)
(1.54171 2.53311 3.08366)
(1.98681 2.768 3.36879)
(0.755334 2.88955 3.94349)
(1.0402 3.44964 3.50713)
(1.9572 2.39327 2.84402)
(2.15281 2.96335 3.0326)
(1.42896 3.25838 3.07428)
(-0.00674131 3.12519 3.89326)
(0.032394 3.55286 2.78697)
(2.1279 2.31046 1.99363)
(2.7504 2.72121 1.68868)
(2.73849 3.0242 1.44465)
(0.6764 3.22716 2.48926)
(-0.273453 3.41229 2.93376)
(-0.315461 3.16651 1.82812)
(1.69843 2.444 1.66965)
(2.54943 2.51753 1.42223)
(2.80562 2.6666 0.40945)
(1.94102 2.94968 0.192065)
(0.592934 3.02633 0.781242)
(-0.424567 3.10938 1.93072)
(-0.0680537 3.7946 0.457504)
(1.91029 2.42267 1.68058)
(2.20053 2.56149 1.81031)
(2.22948 2.68692 0.407148)
(2.28103 2.68383 -0.164477)
(1.43822 3.41572 -0.39223)
(0.199021 3.75658 0.508188)
(0.125738 4.15608 0.780815)
(-0.476523 3.44534 0.995587)
(1.64163 2.57065 2.01391)
(2.66482 2.17884 1.30882)
(1.94581 2.54768 1.45151)
(1.64393 2.70524 0.309191)
(1.7877 2.97402 0.0364235)
(0.928024 3.35395 0.473891)
(0.418692 3.68046 0.680466)
(-0.551977 3.39818 1.15418)
(-0.354871 2.32855 1.21698)
(1.64448 2.32685 1.99282)
(2.15775 2.00986 1.51428)
(2.2296 1.8452 0.633714)
(1.91658 2.14768 0.108986)
(1.89125 2.55789 -0.0726609)
(1.37053 2.35177 0.584053)
(1.12143 2.3579 1.08179)
(0.452044 2.26508 1.32727)
(-0.234464 2.04226 1.38562)
(0.00987961 0.779888 1.07683)
(1.32909 2.03562 1.35919)
(1.91447 1.82707 0.56689)
(1.92737 1.61849 0.575912)
(2.06225 1.86211 -0.261863)
(2.87065 1.52375 -0.338262)
(1.9741 1.48707 0.307559)
(1.70544 1.50775 0.44406)
(0.944495 1.24705 0.92025)
(0.500363 0.752392 0.928567)
(0.194292 0.321126 1.28721)
(-0.47083 0.562303 -0.820117)
(1.57704 1.90298 0.733809)
(1.58558 2.03167 0.682795)
(1.75652 1.41779 0.631392)
(1.7553 1.54003 -0.679144)
(2.18434 1.28532 -1.15907)
(2.4236 1.12566 -1.42963)
(1.77256 1.23115 -1.29443)
(1.04135 0.326702 0.243473)
(0.203741 0.232045 -0.542376)
(-0.291074 0.627249 -0.756805)
(-0.397399 0.696949 -0.809441)
(-0.537524 0.806676 -1.23618)
(0.749522 1.23395 0.118997)
(1.2006 1.23694 -0.875697)
(0.896252 1.36148 -1.71775)
(1.23842 0.81622 -1.86592)
(1.57563 0.839844 -2.1337)
(2.03124 1.00564 -2.35803)
(1.32037 1.0363 -2.31875)
(0.203585 0.691402 -1.64226)
(0.123155 0.700182 -1.17375)
(-0.112892 0.931966 -1.3527)
(-0.312079 0.81324 -1.39381)
(-0.399733 0.780062 -1.32577)
(-0.61507 0.190535 -1.66)
(0.290068 1.34492 -1.17209)
(1.06426 0.505591 -1.14803)
(0.488018 0.85896 -0.637395)
(0.794586 0.942844 -0.72657)
(1.24082 1.0182 -0.66084)
(2.1225 0.816489 -1.59634)
(1.99603 0.768601 -2.49088)
(0.806186 0.621208 -2.2519)
(0.314719 0.51768 -2.02767)
(-0.0197871 0.451927 -1.91297)
(-0.273142 0.173003 -1.69367)
(-0.424533 0.156431 -1.82899)
(-0.577246 0.260241 -1.89305)
(-0.679184 -0.0114614 -1.95915)
(0.264232 0.775583 -1.68227)
(1.02255 -0.140508 -1.35873)
(0.624269 0.178573 -1.22432)
(0.578229 0.62366 -1.1609)
(1.09051 0.653189 -1.13607)
(1.13786 0.657481 -2.29487)
(0.901135 0.71739 -3.03421)
(0.82135 0.168417 -2.65664)
(0.541717 -0.0490986 -2.32237)
(0.205138 -0.158735 -2.11726)
(-0.117712 -0.219364 -2.02918)
(-0.311708 -0.166079 -2.09958)
(-0.469604 -0.0113889 -2.05075)
(-0.666541 0.00377918 -1.82928)
(-0.208853 -0.20743 -1.95148)
(0.518816 0.200926 -1.98028)
(0.843274 -0.173429 -1.55961)
(0.882752 -0.392988 -1.64519)
(0.394649 -0.136533 -1.69563)
(0.217541 0.0436423 -1.75022)
(0.695096 0.0219775 -1.89653)
(0.888829 0.299159 -2.33716)
(0.539565 0.00233992 -2.78944)
(0.409055 -0.0828919 -2.68582)
(0.35773 -0.260735 -2.49649)
(-0.131851 -0.303315 -2.36534)
(-0.181496 -0.355254 -2.30622)
(-0.144884 -0.178913 -2.2368)
(-0.0853964 -0.267282 -1.96122)
(-0.275668 -0.171203 -1.62299)
(0.505232 -0.775117 -1.37862)
(1.18775 0.172955 -1.75871)
(1.1773 0.177212 -1.2087)
(1.02281 -0.292713 -1.34634)
(0.701624 -0.541926 -1.76854)
(0.233288 -0.45362 -1.63106)
(0.148541 -0.334764 -1.6118)
(-0.0357308 -0.0266419 -2.0752)
(0.0958922 -0.287903 -2.44053)
(0.225291 -0.282565 -2.58014)
(0.374586 -0.538532 -2.38999)
(0.0748251 -0.74328 -2.2305)
(0.0944901 -0.67988 -1.90185)
(0.188324 -0.499068 -1.67934)
(0.43851 -0.491135 -1.44627)
(0.48434 -0.806215 -1.4088)
(0.907505 -0.791367 -1.19706)
(0.279353 2.21283 2.92081)
(0.653168 2.30065 3.18069)
(0.75356 2.26345 2.98629)
(0.467851 2.4239 3.33256)
(0.745909 2.92706 3.29653)
(0.797621 2.23875 3.19492)
(0.99983 2.53247 3.43381)
(0.25928 2.66335 3.72794)
(0.311385 3.05074 3.77158)
(1.63836 2.31175 3.00545)
(2.08635 2.86304 3.18692)
(1.33469 2.77603 3.81708)
(-0.108466 2.87149 4.10032)
(-0.307476 3.2372 3.95042)
(1.58582 2.52784 2.66802)
(2.53645 2.63851 2.80157)
(1.85195 2.90918 2.98414)
(0.434836 3.25484 3.63296)
(-0.63755 3.27319 3.94363)
(-0.980413 3.21239 3.33136)
(2.06808 2.14628 1.9493)
(2.66416 2.52562 1.71307)
(2.70643 2.71705 1.4385)
(1.4286 3.09901 1.96761)
(0.141846 3.15966 2.73201)
(-0.909215 3.00447 3.46545)
(-0.459445 3.30397 2.03101)
(1.9001 2.27159 1.51697)
(2.72916 2.32082 1.13994)
(2.68968 2.503 0.488107)
(2.0281 2.66001 0.301644)
(0.934839 3.05952 0.438481)
(-0.277448 3.04074 1.87066)
(-0.442222 3.60176 1.95948)
(-0.303152 4.01487 1.09527)
(1.97122 2.27723 1.45691)
(2.75676 2.07419 1.07486)
(2.78482 2.06244 0.467197)
(2.31119 2.58367 -0.238931)
(1.71492 3.2772 -0.43435)
(0.379688 3.70457 0.477797)
(0.166019 4.07676 0.820424)
(-0.522095 4.14318 1.26468)
(-0.743067 3.20131 1.25148)
(1.72511 2.40208 1.97164)
(2.83759 1.83199 0.882445)
(3.19798 1.40342 0.125413)
(2.39431 2.1335 0.0823625)
(1.99398 2.8471 -0.165479)
(1.18119 3.32016 0.26126)
(0.59811 3.50223 0.91606)
(-0.190925 3.42457 1.14713)
(-0.50499 3.27608 1.45726)
(-0.477683 2.0542 1.69186)
(1.66002 2.27119 1.91667)
(2.06651 1.74331 1.71788)
(2.32051 1.69085 0.722455)
(2.31823 1.68878 -0.364874)
(2.354 2.10784 -0.859388)
(1.85312 2.16865 0.328299)
(1.45805 2.12695 0.988053)
(0.631307 1.98365 1.41373)
(0.32309 1.74279 1.43374)
(-0.533131 1.3687 1.29439)
(-0.242687 0.732203 1.30809)
(1.52216 2.0413 1.27155)
(1.61165 2.04405 1.3069)
(2.02214 1.60835 0.696749)
(2.14764 1.67568 -0.453252)
(2.60465 1.76626 -0.926735)
(2.42531 1.35183 -0.559532)
(1.86484 1.44332 0.0153871)
(1.18529 1.13452 0.796811)
(0.734426 0.647902 1.06385)
(0.256481 0.588383 0.62124)
(-0.422042 0.737672 0.440184)
(-0.499135 0.670347 -1.09222)
(1.77511 1.84481 0.610922)
(1.52257 1.89852 0.839845)
(1.82024 1.42779 0.558)
(1.87957 1.22705 -0.571146)
(2.12591 1.34957 -1.36576)
(2.41433 1.20266 -1.68743)
(2.11285 1.25239 -1.44325)
(1.05578 0.620325 -0.458951)
(0.233986 0.269296 -0.487268)
(-0.120109 0.615363 -0.700597)
(-0.320036 0.664388 -0.892664)
(-0.191194 0.724525 -1.00233)
(-0.579194 0.735773 -1.21338)
(1.36756 0.810084 0.761873)
(0.974105 1.155 -0.593413)
(1.04465 1.32175 -1.72686)
(1.19518 0.911593 -1.7123)
(1.6227 0.892903 -2.04644)
(2.07218 1.0152 -2.22328)
(1.56659 1.10962 -2.32815)
(0.396837 0.757353 -1.71535)
(0.186191 0.737602 -1.28158)
(0.0349575 0.878747 -1.39082)
(-0.188794 0.90945 -1.35912)