/*--------------------------------*- C++ -*----------------------------------*\
  =========                 |
  \\      /  F ield         | OpenFOAM: The Open Source CFD Toolbox
   \\    /   O peration     | Website:  https://openfoam.org
    \\  /    A nd           | Version:  7
     \\/     M anipulation  |
\*---------------------------------------------------------------------------*/
FoamFile
{
    version     2.0;
    format      ascii;
    class       volVectorField;
    location    "9.5";
    object      U_0;
}
// * * * * * * * * * * * * * * * * * * * * * * * * * * * * * * * * * * * * * //

dimensions      [0 1 -1 0 0 0 0];

internalField   nonuniform List<vector> 
18720
(
(0.9912 0.213213 -1.72238)
(1.0171 0.243087 -1.58647)
(0.987842 0.208986 -1.6878)
(1.03088 0.219573 -1.70561)
(1.28507 0.0502043 -1.67004)
(0.628237 0.462103 -1.85594)
(0.924409 0.26079 -1.55822)
(1.01236 0.23813 -1.623)
(0.868106 0.022607 -1.83266)
(1.17843 0.0525637 -1.6887)
(1.14105 0.211948 -1.67779)
(1.39467 0.0423069 -1.63451)
(1.07112 -0.218457 -1.56152)
(0.730288 0.928623 -1.05499)
(0.572473 0.471856 -1.76638)
(0.803175 0.417185 -1.8587)
(0.777534 0.38084 -1.92261)
(0.853647 0.0492784 -1.83753)
(0.925078 0.241053 -1.67768)
(0.892434 -0.0165612 -1.82902)
(0.90361 0.0116324 -1.82296)
(1.08349 -0.209555 -1.5626)
(1.25349 0.193899 -1.67116)
(1.46681 0.0313868 -1.57667)
(1.04167 -0.218966 -1.54879)
(0.845766 -0.417103 -1.42183)
(0.679834 1.55135 -0.804611)
(0.756233 0.926166 -1.0769)
(0.770987 0.948341 -1.23157)
(1.11662 0.741905 -1.31813)
(0.743821 0.378466 -1.99178)
(0.889249 0.390588 -1.76616)
(0.7756 0.409711 -1.81857)
(0.998687 0.373947 -1.92211)
(0.931659 0.00473682 -1.81846)
(0.866876 0.242931 -1.72322)
(0.993985 -0.0656369 -1.79935)
(0.865905 -0.0146238 -1.84348)
(0.526732 -0.016519 -1.88603)
(0.840888 -0.408173 -1.40444)
(1.33037 0.168881 -1.68897)
(1.4952 0.0187248 -1.4647)
(1.00568 -0.224506 -1.53995)
(0.869273 -0.423234 -1.42922)
(0.416128 -0.453336 -1.61391)
(0.79919 2.33107 -0.295507)
(0.768416 1.51517 -0.567197)
(0.729574 1.68837 -1.00067)
(1.20753 1.45104 -0.84651)
(1.02188 0.68642 -1.45506)
(0.897276 0.901627 -1.35226)
(1.1275 0.688733 -1.3089)
(1.03243 0.407299 -1.77269)
(0.98011 0.373502 -2.0133)
(0.739829 0.432714 -1.67691)
(0.727256 0.433644 -1.73535)
(0.902084 0.407968 -1.86276)
(1.02276 0.345171 -1.89064)
(0.561345 -0.0290471 -1.89529)
(0.847545 0.232508 -1.73164)
(1.10838 -0.132359 -1.74717)
(0.847334 0.00740812 -1.85706)
(0.520684 0.00508967 -1.87254)
(0.436104 0.0325606 -1.82148)
(0.441655 -0.447404 -1.6042)
(1.25419 0.190168 -1.73314)
(1.45269 0.0228402 -1.35408)
(0.981351 -0.226678 -1.54289)
(0.852415 -0.435554 -1.45156)
(0.388427 -0.452381 -1.62157)
(0.27779 -0.412713 -1.5991)
(1.38894 2.38831 0.210686)
(1.0027 2.12378 -0.240898)
(0.916063 2.36714 -0.410346)
(1.19787 1.78503 -0.567848)
(1.10508 1.49431 -0.789603)
(1.01739 1.76798 -1.08672)
(1.17043 1.46497 -0.835734)
(1.27341 1.18757 -0.88993)
(0.964522 0.385433 -1.73088)
(0.927829 0.937918 -1.33262)
(1.02826 0.758829 -1.19017)
(1.10763 0.35021 -1.72471)
(0.984639 0.34048 -1.82286)
(1.00398 0.301149 -1.91002)
(0.619935 0.483506 -1.61652)
(0.678384 0.412874 -1.67988)
(0.758089 0.405985 -1.85248)
(0.962359 0.389424 -1.82562)
(0.852568 0.545942 -1.6924)
(0.420158 0.0104986 -1.83064)
(0.836491 0.212559 -1.71452)
(1.1646 -0.194935 -1.71049)
(0.807949 -0.0255326 -1.86049)
(0.532675 0.00758263 -1.85415)
(0.425656 0.0453078 -1.81531)
(0.404536 0.0907493 -2.05627)
(0.284282 -0.41191 -1.59984)
(1.16718 0.213322 -1.77252)
(1.35705 0.0447825 -1.28505)
(1.00662 -0.246638 -1.56324)
(0.833219 -0.44479 -1.47032)
(0.371357 -0.450958 -1.62223)
(0.269395 -0.411453 -1.59807)
(-0.0885077 -0.102643 -2.06046)
(1.97017 2.47696 0.609808)
(1.5106 2.2393 -0.0787652)
(1.31729 2.38474 0.417856)
(1.62424 1.83218 -0.54569)
(1.24613 1.72694 -0.409501)
(1.01959 2.30312 -0.299686)
(1.27292 1.80013 -0.481727)
(1.49019 1.50468 -0.687321)
(1.07866 1.14272 -0.757585)
(1.13617 1.74267 -1.20846)
(1.01127 1.47993 -0.927504)
(1.36124 1.24924 -0.962496)
(1.25115 0.944392 -1.03725)
(0.92094 0.330072 -1.76689)
(0.938038 0.99935 -1.35863)
(0.896529 0.777131 -1.15102)
(1.22015 0.458568 -1.48206)
(1.01399 0.388968 -1.82451)
(0.928589 0.563844 -1.69943)
(0.78443 0.515797 -1.73124)
(0.612719 0.504193 -1.60778)
(0.700471 0.376988 -1.59176)
(0.637366 0.467608 -1.82134)
(0.82355 0.447425 -1.81008)
(0.863314 0.593635 -1.67694)
(0.745524 0.595886 -1.90216)
(0.400596 0.101906 -2.01184)
(0.785212 0.201271 -1.70949)
(1.15607 -0.248563 -1.69528)
(0.779898 -0.0415673 -1.85402)
(0.559321 0.0073731 -1.81569)
(0.390215 0.066185 -1.79714)
(0.433638 0.0977669 -2.08196)
(0.472601 0.343546 -2.60048)
(-0.0970884 -0.108178 -2.05679)
(1.14134 0.218185 -1.78676)
(1.26903 0.0747687 -1.23714)
(1.07106 -0.274313 -1.56945)
(0.808081 -0.450048 -1.48961)
(0.363387 -0.454214 -1.62294)
(0.256408 -0.408823 -1.59754)
(-0.0747647 -0.0960261 -2.0636)
(-0.00385448 -0.282657 -2.38774)
(2.00789 2.91557 1.61402)
(1.85695 2.34614 0.480781)
(2.15769 2.53671 0.698199)
(1.41399 2.10106 0.700059)
(1.35241 1.80887 -0.509093)
(1.13288 2.46119 1.001)
(1.56991 1.84966 -0.498539)
(1.28517 1.74905 0.0366019)
(1.40056 1.48862 -0.518381)
(1.12995 2.15709 -0.067767)
(1.23734 1.82107 -0.492189)
(1.49252 1.56803 -0.792621)
(1.39744 1.43493 -0.401244)
(0.990079 0.865372 -0.865637)
(1.0539 1.78791 -1.13387)
(0.895015 1.50361 -0.998247)
(1.34889 1.11741 -1.09622)
(1.43259 0.975468 -1.17223)
(1.30658 0.943106 -0.854625)
(0.794074 0.491394 -1.66256)
(1.09913 0.958709 -1.40838)
(0.797541 0.767296 -1.1875)
(1.26665 0.416239 -1.4863)
(1.13345 0.441766 -1.75187)
(1.08428 0.628708 -1.72047)
(0.87643 0.676306 -1.7102)
(0.611433 0.580792 -1.87035)
(0.63491 0.572582 -1.64313)
(0.804234 0.283873 -1.477)
(0.620081 0.491966 -1.73723)
(0.603467 0.515158 -1.88803)
(0.815501 0.620275 -1.73501)
(0.852914 0.597782 -1.97353)
(0.561561 0.605303 -2.36291)
(0.389416 0.334899 -2.57502)
(0.703191 0.244007 -1.71152)
(1.12927 -0.272535 -1.68512)
(0.788762 -0.0733916 -1.83036)
(0.565637 -0.014898 -1.77466)
(0.334337 0.0779434 -1.78254)
(0.47557 0.103293 -2.09746)
(0.563502 0.338548 -2.62104)
(0.224193 0.0249659 -2.66781)
(-0.0167706 -0.284444 -2.3794)
(1.08314 0.251899 -1.82102)
(1.20934 0.104562 -1.20536)
(1.12701 -0.299284 -1.54872)
(0.784823 -0.455525 -1.50616)
(0.345408 -0.45613 -1.62608)
(0.241623 -0.407164 -1.59706)
(-0.0626058 -0.0895746 -2.06455)
(0.0124998 -0.281347 -2.39568)
(0.023099 -0.276355 -2.5029)
(1.97335 3.11486 1.96724)
(1.95575 2.86663 1.58148)
(2.50832 2.72562 1.32929)
(1.38395 2.65829 1.57986)
(1.15524 2.12058 0.532075)
(2.24377 2.52434 0.964715)
(1.64257 2.17362 0.43815)
(1.15459 2.38465 0.722056)
(1.00432 1.70814 0.0283378)
(1.26887 2.3544 1.14496)
(1.50887 1.82035 -0.0151434)
(1.53564 1.80772 -0.0548559)
(0.977864 2.08802 0.0302694)
(1.36637 1.33622 -0.648002)
(1.19018 1.96419 -0.113321)
(1.23348 1.83828 -0.322123)
(1.48029 1.65466 -0.790129)
(1.45016 1.53237 -0.417705)
(1.30276 1.52277 -0.123584)
(1.06253 0.846229 -0.753915)
(1.0205 1.79487 -1.07088)
(0.681566 1.57976 -1.13925)
(1.29546 1.18435 -1.04114)
(1.475 0.948405 -1.18755)
(1.48767 1.00284 -0.983463)
(1.37207 0.971413 -0.936043)
(0.803811 0.600583 -1.60619)
(1.14012 0.929359 -1.44227)
(0.639572 0.788037 -1.24438)
(1.21588 0.48497 -1.54412)
(1.18829 0.470179 -1.76202)
(1.22012 0.712833 -1.77431)
(0.916249 0.749521 -1.85994)
(0.596947 0.812217 -1.87506)
(0.423793 0.604599 -2.32269)
(0.719654 0.567153 -1.69884)
(0.846106 0.166636 -1.39651)
(0.705548 0.478511 -1.64398)
(0.372843 0.603896 -1.97601)
(0.737809 0.70521 -1.82192)
(0.924062 0.571001 -2.07713)
(0.653374 0.568963 -2.41855)
(-0.110549 0.23985 -2.30299)
(0.166228 0.0228658 -2.66012)
(0.670219 0.243406 -1.71601)
(1.12654 -0.311321 -1.65624)
(0.839873 -0.119147 -1.79424)
(0.52669 -0.0294569 -1.75999)
(0.283248 0.0839607 -1.77944)
(0.526935 0.0988068 -2.10907)
(0.682751 0.353543 -2.63531)
(0.288082 0.0165135 -2.67371)
(0.135291 -0.0713175 -2.54984)
(-0.00195517 -0.281875 -2.4894)
(1.14106 0.210743 -1.82454)
(1.18398 0.124224 -1.19349)
(1.16327 -0.330659 -1.4928)
(0.750589 -0.457293 -1.52907)
(0.330063 -0.45694 -1.62943)
(0.227585 -0.402785 -1.59656)
(-0.049035 -0.0812664 -2.06401)
(0.0282951 -0.280126 -2.40329)
(0.0526691 -0.272075 -2.51579)
(0.205972 -0.524242 -2.35247)
(1.48521 3.67242 1.89455)
(1.79999 3.17128 2.14337)
(1.93097 3.07981 1.70359)
(1.72038 3.16287 1.71742)
(0.986837 2.63678 1.51045)
(2.50065 2.81279 1.31355)
(2.12315 2.55419 1.56508)
(1.17295 2.89814 1.24791)
(0.940232 2.43115 0.861158)
(2.21717 2.44839 1.17068)
(1.89155 2.24239 0.406495)
(1.30244 2.33619 0.632692)
(2.04184 2.02853 0.602079)
(1.22158 1.94313 0.0343793)
(1.28962 2.37554 1.1598)
(1.45822 1.79601 0.184832)
(1.60203 1.78568 -0.136358)
(1.32415 1.95738 0.10141)
(1.10515 2.00159 0.0662544)
(1.17838 1.48388 -0.299893)
(1.16005 1.8851 -0.174406)
(1.25082 1.86948 0.0441741)
(1.47881 1.68278 -0.717815)
(1.56131 1.57945 -0.446267)
(1.54929 1.43827 -0.406195)
(1.70036 1.48018 -0.438983)
(1.10612 0.856533 -0.864046)
(0.908368 1.68168 -1.16324)
(1.28159 1.509 -0.840289)
(1.30649 1.13503 -1.05159)
(1.4962 1.04183 -0.903506)
(1.5725 1.0779 -1.03811)
(1.60083 1.03022 -1.00232)
(0.613633 0.624667 -1.22791)
(0.41105 0.887069 -1.77389)
(0.891962 1.03234 -1.48895)
(0.510677 0.855222 -1.17121)
(1.1029 0.51507 -1.52236)
(1.43993 0.467177 -1.54267)
(1.29053 0.769461 -1.96295)
(1.14019 0.850013 -1.99799)
(0.695306 0.878909 -1.95701)
(0.128376 0.655377 -1.72053)
(-0.0949513 0.206897 -2.32679)
(0.786239 0.537265 -1.77348)
(0.817179 0.141227 -1.38399)
(0.818849 0.404097 -1.58668)
(0.499543 0.61702 -1.86563)
(0.642769 0.793707 -1.94662)
(1.04769 0.56904 -2.14441)
(0.700843 0.561906 -2.4771)
(-0.0224026 0.265591 -2.29101)
(-0.175482 0.0996836 -2.06426)
(0.0821322 -0.0784089 -2.53524)
(0.623725 0.287807 -1.74171)
(1.13469 -0.343643 -1.60194)
(0.892091 -0.166384 -1.75771)
(0.481929 -0.0418804 -1.7568)
(0.208256 0.087575 -1.78991)
(0.605795 0.0814908 -2.10402)
(0.783336 0.341469 -2.65602)
(0.324099 0.00664523 -2.6832)
(0.178085 -0.0770822 -2.5599)
(0.0877029 -0.188447 -2.44163)
(0.188188 -0.528291 -2.34416)
(1.23583 0.14006 -1.8028)
(1.18764 0.129475 -1.18969)
(1.14984 -0.336052 -1.44117)
(0.712175 -0.455016 -1.55873)
(0.307074 -0.461132 -1.63449)
(0.212567 -0.394932 -1.59604)
(-0.0383137 -0.073648 -2.06246)
(0.0398867 -0.280281 -2.41049)
(0.0843394 -0.268896 -2.5281)
(0.226236 -0.525818 -2.35996)
(0.0673537 -0.73938 -2.21946)
(2.44863 2.56549 3.20183)
(1.78659 3.27676 2.40459)
(1.87588 3.10038 1.97704)
(1.63805 3.63158 1.80891)
(1.44943 3.37486 1.56975)
(2.29625 2.7992 1.46649)
(1.7976 3.01859 1.85378)
(1.31362 3.55071 0.29599)
(0.901989 3.05713 1.14573)
(2.32647 2.72199 1.63823)
(2.24225 2.49172 1.92817)
(1.33788 2.82212 1.27401)
(1.02089 3.1678 0.431172)
(0.733583 2.85606 0.378742)
(1.93215 2.45437 1.63117)
(2.06258 2.25655 0.749691)
(1.58455 2.33259 0.328146)
(0.599432 2.69441 0.63769)
(0.829835 2.65564 0.452655)
(0.881803 1.93053 0.434752)
(1.38224 2.31369 1.05009)
(1.44699 1.84431 0.620049)
(1.49849 1.87753 -0.0303971)
(1.36966 1.99803 0.111526)
(1.49998 1.98324 0.30329)
(1.32088 1.81196 0.527333)
(1.52299 1.51677 -0.357018)
(1.10861 1.89935 -0.0532808)
(1.30874 1.87143 0.0533281)
(1.44042 1.63169 -0.573632)
(1.52718 1.55827 -0.56272)
(1.60421 1.47994 -0.442733)
(1.76114 1.45206 -0.444991)
(1.01607 0.850291 -0.205144)
(0.399921 0.558561 -1.05445)
(0.79799 1.57544 -1.07385)
(1.22781 1.47995 -1.43593)
(1.19947 1.18627 -1.09732)
(1.40563 0.944534 -0.921886)
(1.63339 1.06577 -1.08872)
(1.68131 1.07272 -1.09654)
(0.905539 0.740676 -1.42653)
(-0.0809995 0.207519 -0.858322)
(0.027033 0.635652 -1.75494)
(0.585281 1.20262 -1.40003)
(0.540814 0.840473 -1.04709)
(0.976457 0.579541 -1.24473)
(1.33217 0.54215 -1.42742)
(1.37456 0.792011 -2.13178)
(1.37251 0.861848 -2.22775)
(0.932672 0.891453 -2.10015)
(0.154314 0.67466 -1.71398)
(-0.451088 0.628579 -1.65511)
(-0.146639 0.115897 -2.10654)
(0.807504 0.525377 -1.83666)
(0.81314 0.038961 -1.4162)
(0.798027 0.377428 -1.58907)
(0.66187 0.586883 -1.68742)
(0.574406 0.881189 -2.02969)
(1.09543 0.586759 -2.26182)
(0.73965 0.55726 -2.55432)
(0.0946269 0.22862 -2.30996)
(-0.174489 0.0642692 -2.04451)
(-0.194595 -0.0241874 -1.98439)
(0.046768 -0.183446 -2.42881)
(0.633397 0.287595 -1.76644)
(1.09145 -0.342339 -1.56911)
(0.929948 -0.223318 -1.72187)
(0.428674 -0.036826 -1.74529)
(0.177946 0.0798818 -1.79295)
(0.730805 0.0494657 -2.0716)
(0.859502 0.321596 -2.67694)
(0.375473 -0.00575702 -2.68698)
(0.222129 -0.0897984 -2.56969)
(0.133564 -0.19891 -2.45292)
(-0.293957 -0.246717 -2.30663)
(0.0931251 -0.724368 -2.2156)
(1.32341 0.0652223 -1.78095)
(1.20996 0.119314 -1.18918)
(1.11969 -0.325513 -1.40422)
(0.67629 -0.453027 -1.5982)
(0.296871 -0.464107 -1.63497)
(0.196781 -0.38241 -1.5963)
(-0.0321051 -0.064141 -2.06117)
(0.0532378 -0.281405 -2.41689)
(0.114662 -0.268946 -2.53955)
(0.258783 -0.524134 -2.36691)
(0.0394559 -0.755151 -2.21909)
(-0.0101357 -0.669807 -1.88758)
(1.57033 2.82215 3.47482)
(1.20925 4.03279 2.57574)
(1.13033 3.46865 2.48849)
(2.75349 3.10434 2.49048)
(1.72344 3.43685 1.98882)
(1.66708 2.93098 1.93477)
(2.22879 3.21608 1.83664)
(1.89916 3.28183 1.21665)
(1.13819 3.84175 0.00912705)
(2.03968 2.86808 1.51275)
(1.92131 2.87534 2.23619)
(1.51658 3.37461 0.42357)
(1.08068 3.49631 -0.357196)
(0.518725 3.40205 0.215022)
(2.21655 2.59609 1.81782)
(2.50439 2.38832 1.71197)
(1.71011 2.58187 1.60338)
(1.26822 3.18796 0.683724)
(0.602286 3.27098 0.318098)
(0.695538 2.72279 0.393363)
(1.56024 2.43216 2.11942)
(2.33755 2.12617 0.923767)
(1.86104 2.20174 0.163344)
(2.13864 2.06107 0.305599)
(1.21387 2.62529 0.375985)
(0.706814 2.61371 0.792119)
(1.03151 1.84982 0.497974)
(1.38122 2.18723 1.09697)
(1.66601 1.8505 0.794763)
(1.51914 1.91202 0.166324)
(1.68399 1.97664 0.0875094)
(1.62282 2.02661 0.142739)
(1.51763 1.78614 0.670288)
(0.687166 1.69493 0.833266)
(0.721809 0.781097 -0.00700929)
(1.06765 1.95375 0.627411)
(1.52672 1.9311 0.376979)
(1.39516 1.64473 -0.273)
(1.48397 1.70419 -0.526614)
(1.61002 1.52741 -0.485346)
(1.74274 1.44524 -0.42232)
(1.20871 0.926595 -0.39627)
(0.256413 0.0579362 0.125636)
(-0.154086 0.213766 -0.905728)
(0.727129 1.45929 -0.774633)
(1.25061 1.61505 -1.63311)
(1.13772 1.15619 -1.17575)
(1.36316 0.933336 -0.918107)
(1.65311 1.04128 -1.28576)
(1.75924 1.04406 -1.46209)
(0.946804 0.805219 -1.65628)
(-0.0178174 0.264239 -0.968527)
(-0.196944 0.665711 -1.20419)
(-0.605927 0.636075 -1.61236)
(0.617686 1.14497 -1.22095)
(0.674089 0.79429 -0.984052)
(0.778923 0.692711 -1.00084)
(1.00754 0.675463 -1.36463)
(1.46259 0.790531 -2.07641)
(1.65043 0.866442 -2.35169)
(1.11079 0.879114 -2.32077)
(0.297266 0.688988 -1.79517)
(-0.344854 0.656571 -1.69914)
(-0.429366 0.489246 -1.7316)
(-0.247316 -0.0104398 -1.97658)
(0.66446 0.611204 -1.84412)
(0.843791 -0.0160652 -1.4266)
(0.636664 0.394769 -1.55474)
(0.696635 0.546802 -1.54667)
(0.595043 0.916872 -1.956)
(0.947359 0.66745 -2.46069)
(0.876045 0.554384 -2.6223)
(0.054797 0.309118 -2.37587)
(-0.13562 0.0606636 -2.05656)
(-0.139321 -0.048561 -1.97527)
(-0.38564 -0.168008 -1.92069)
(-0.345365 -0.232237 -2.2913)
(0.666294 0.201159 -1.8092)
(1.01381 -0.328148 -1.52817)
(0.948518 -0.289223 -1.67667)
(0.417792 -0.0359871 -1.71884)
(0.154432 0.0734491 -1.78765)
(0.829361 -0.00856069 -2.02901)
(0.896058 0.323614 -2.6737)
(0.44076 -0.0137316 -2.69715)
(0.273175 -0.0993738 -2.58942)
(0.196779 -0.219161 -2.46272)
(-0.245759 -0.260156 -2.31923)
(-0.309173 -0.286143 -2.25764)
(0.0445636 -0.689367 -1.87326)
(1.33744 0.0429883 -1.77519)
(1.21856 0.117043 -1.20595)
(1.08621 -0.319756 -1.38856)
(0.643031 -0.451383 -1.65462)
(0.27269 -0.459627 -1.63447)
(0.181213 -0.367147 -1.5975)
(-0.0309891 -0.0553618 -2.06156)
(0.0659478 -0.282174 -2.42261)
(0.144135 -0.269966 -2.55029)
(0.286726 -0.525146 -2.37439)
(0.0515335 -0.742601 -2.22245)
(0.0787331 -0.689889 -1.88466)
(0.0743396 -0.491919 -1.65083)
(0.623114 2.97722 3.28718)
(0.930027 3.45508 3.53873)
(1.57406 2.77925 3.31552)
(1.53331 3.10716 3.33613)
(1.63158 3.99768 2.20606)
(1.53246 2.77557 2.70626)
(1.75886 3.45592 2.39631)
(1.87032 3.53417 2.09363)
(1.41222 3.56277 1.51645)
(1.85385 2.54964 1.81836)
(2.02674 3.17523 1.91837)
(1.98348 3.2675 0.919242)
(0.906956 3.39345 0.970184)
(0.778672 3.63522 -0.457558)
(2.07817 2.71624 1.5294)
(1.86195 3.01772 2.13164)
(1.80404 3.17615 0.842886)
(1.43622 3.30605 -0.378999)
(0.511302 3.42423 -0.355181)
(0.232309 3.31583 0.335754)
(2.17245 2.61808 1.76333)
(2.37678 2.5382 1.70969)
(1.70115 2.62415 1.51131)
(1.53498 2.97006 0.720066)
(1.46556 3.22448 0.191288)
(0.572451 3.65238 0.486903)
(0.475977 2.66952 0.626599)
(1.54142 2.48194 2.07561)
(2.30787 2.03243 1.2231)
(1.89395 2.0826 0.201577)
(1.30766 2.64226 0.467168)
(1.59123 2.54401 0.223551)
(1.07846 2.5499 0.785671)
(0.136772 2.48559 1.18758)
(0.501763 1.75921 0.95373)
(1.31033 2.16427 1.28422)
(2.00184 1.79084 0.321891)
(1.66437 1.71795 0.174358)
(1.79163 2.00777 0.157669)
(1.83347 1.91172 0.324843)
(1.80554 1.69807 0.59122)
(0.93678 1.64806 0.820212)
(0.185422 1.37534 1.04752)
(0.100842 0.0485452 -0.00340516)
(1.10046 1.99959 0.931157)
(1.68862 1.96635 0.565314)
(1.44324 1.58646 0.0300555)
(1.55994 1.67441 -0.625532)
(1.91777 1.30342 -0.504081)
(1.92407 1.35552 -0.513162)
(1.49213 1.04584 -0.847851)
(0.528653 0.0242694 0.353637)
(-0.0987258 0.292391 -0.730347)
(-0.31944 0.633054 -1.25909)
(0.657765 1.37522 -0.382698)
(1.2969 1.58639 -1.53824)
(0.961512 1.20926 -1.38401)
(1.23509 0.890681 -1.38303)
(1.67541 0.930211 -1.6215)
(1.81545 1.04699 -2.00392)
(1.03444 0.848373 -1.69135)
(-0.0164716 0.370035 -1.21868)
(-0.078734 0.672884 -1.13785)
(-0.291585 0.946157 -1.25293)
(-0.558957 0.501901 -1.67637)
(0.466316 1.22256 -1.09062)
(1.06176 0.56523 -0.948254)
(0.612449 0.777055 -0.818693)
(1.02054 0.685388 -0.941138)
(1.54542 0.831263 -1.61634)
(1.89645 0.838023 -2.3612)
(1.36892 0.910623 -2.49377)
(0.389688 0.695393 -1.92801)
(-0.0544644 0.580112 -1.85029)
(-0.337509 0.510944 -1.7486)
(-0.489465 0.177896 -1.61113)
(-0.525583 -0.148637 -1.85856)
(0.402469 0.770015 -1.7902)
(0.850824 -0.0352758 -1.43723)
(0.569385 0.362799 -1.4526)
(0.613125 0.583006 -1.41895)
(0.805035 0.866713 -1.66171)
(0.882388 0.747477 -2.59174)
(0.848495 0.579417 -2.75103)
(0.389766 0.224418 -2.50717)
(0.0984825 0.0254873 -2.12454)
(-0.0476396 -0.0836404 -2.00162)
(-0.326833 -0.163155 -1.92887)
(-0.520062 -0.136805 -1.96724)
(-0.337688 -0.265523 -2.24746)
(0.62659 0.206764 -1.87507)
(0.900259 -0.232297 -1.5331)
(0.904478 -0.314191 -1.67086)
(0.413996 -0.0732192 -1.6996)
(0.167193 0.0576763 -1.77721)
(0.859608 -0.0466889 -1.99156)
(0.878213 0.305662 -2.62234)
(0.492314 -0.0290224 -2.72027)
(0.322301 -0.104307 -2.61741)
(0.258014 -0.234774 -2.47204)
(-0.213454 -0.274781 -2.33154)
(-0.272729 -0.31072 -2.26726)
(-0.343101 -0.128319 -2.19682)
(0.043534 -0.491677 -1.63969)
(1.28023 0.0815746 -1.77262)
(1.20944 0.134471 -1.21547)
(1.08436 -0.323196 -1.35752)
(0.648713 -0.471578 -1.70538)
(0.253851 -0.460144 -1.6362)
(0.167401 -0.352273 -1.60017)
(-0.0332178 -0.0454181 -2.06293)
(0.0746 -0.283215 -2.42739)
(0.172367 -0.272872 -2.56023)
(0.313575 -0.528006 -2.381)
(0.0749822 -0.722 -2.23109)
(0.0240757 -0.669012 -1.90079)
(0.101267 -0.492694 -1.66222)
(0.428618 -0.476533 -1.39268)
(0.584334 2.53422 3.07533)
(1.36576 3.26898 2.95464)
(1.75787 2.7202 3.05652)
(1.69884 3.12138 3.33578)
(0.915009 3.39222 3.45767)
(1.89223 2.51941 3.1232)
(1.83971 3.26633 2.9763)
(1.0038 3.18632 3.4998)
(0.885457 3.75358 2.3613)
(1.5688 2.99968 2.04025)
(2.76184 2.73787 1.95841)
(2.05593 3.33942 1.83958)
(0.328305 3.32283 2.7967)
(0.576129 3.61992 1.11242)
(1.8442 2.56439 1.54093)
(2.80411 2.84399 1.1401)
(2.27749 3.14033 0.64071)
(1.26023 3.22993 0.712949)
(0.168019 3.13026 1.31863)
(-0.12404 3.31048 0.131924)
(2.14059 2.55511 1.48549)
(3.20603 2.13735 1.28907)
(2.98701 2.107 0.722945)
(1.80176 3.10674 -0.261523)
(1.17499 3.43609 -0.532434)
(0.132188 3.76151 0.490492)
(-0.0269634 3.56012 0.573163)
(1.9482 2.67207 1.85304)
(2.66318 2.39741 1.49277)
(1.94489 2.42559 1.55436)
(2.34644 2.368 0.715578)
(1.62324 3.12766 0.192663)
(0.76665 3.51493 0.538518)
(-0.00321664 3.57239 0.837718)
(0.0522063 2.54799 1.10884)
(1.57322 2.42379 1.99711)
(2.21948 2.02342 1.41982)
(1.77787 2.1281 0.866741)
(1.88813 2.26836 0.322788)
(1.58824 2.57469 0.262991)
(1.27577 2.43927 0.630514)
(0.778626 2.46022 1.13758)
(-0.525398 2.31899 1.29007)
(0.118056 1.48002 0.94748)
(1.28433 2.08736 1.42939)
(2.04996 1.74525 0.284458)
(1.7241 1.68154 0.40033)
(2.0256 1.91406 -0.146065)
(1.85341 2.22792 0.02759)
(1.86415 1.59076 0.497641)
(1.52325 1.52645 0.524337)
(0.409789 1.3119 1.01913)
(0.191038 0.744589 0.963287)
(-0.203178 0.316082 -0.795852)
(1.19406 1.99906 0.99245)
(1.67539 2.03946 0.551548)
(1.51818 1.52812 0.220494)
(1.67929 1.61952 -0.659296)
(1.91292 1.39877 -0.963013)
(2.12007 1.25723 -1.0387)
(1.78228 1.14314 -1.01186)
(0.795185 0.116269 0.426787)
(0.0666507 0.279015 -0.657178)
(-0.448216 0.541904 -0.77231)
(-0.412808 0.933236 -1.1563)
(0.627129 1.3064 -0.106237)
(1.36474 1.42344 -1.11833)
(0.817097 1.37808 -1.57261)
(1.24488 0.803759 -1.78902)
(1.60419 0.845293 -1.98583)
(1.92958 1.05437 -2.30479)
(1.50598 0.984663 -1.58806)
(0.0145929 0.599506 -1.43686)
(-0.00118278 0.749992 -1.05885)
(-0.179814 0.923864 -1.34796)
(-0.432054 0.886632 -1.28639)
(-0.6649 0.251581 -1.51731)
(0.338292 1.30531 -1.05969)
(1.17166 0.471949 -1.03732)
(0.528406 0.831071 -0.685297)
(0.901197 0.800161 -0.7204)
(1.37491 0.941675 -1.09714)
(2.10841 0.819512 -2.06701)
(1.76506 0.844313 -2.49653)
(0.583686 0.665757 -2.08421)
(0.251849 0.58965 -1.94823)
(-0.115938 0.439233 -1.87153)
(-0.442025 0.297708 -1.55915)
(-0.606285 0.217363 -1.65893)
(-0.570826 -0.13728 -1.95214)
(0.401192 0.731513 -1.7307)
(0.891325 -0.0702799 -1.42119)
(0.594145 0.280055 -1.32645)
(0.539354 0.659685 -1.28631)
(1.0064 0.757876 -1.35128)
(0.901896 0.739566 -2.59331)
(0.889156 0.648174 -2.90311)
(0.608957 0.210885 -2.5885)
(0.303687 0.0059646 -2.2231)
(0.0600984 -0.112328 -2.05623)
(-0.241096 -0.196576 -1.96885)
(-0.433967 -0.157939 -2.02158)
(-0.576466 -0.00257141 -2.02213)
(-0.428348 -0.112597 -2.17405)
(0.586733 0.187015 -1.9305)
(0.857714 -0.214785 -1.53392)
(0.878464 -0.340806 -1.66532)
(0.420582 -0.111788 -1.68867)
(0.22961 0.0265703 -1.75985)
(0.79801 -0.0402267 -1.96037)
(0.889118 0.305293 -2.49747)
(0.579281 0.00722558 -2.742)
(0.366135 -0.0966732 -2.65095)
(0.305685 -0.25034 -2.48427)
(-0.175249 -0.291051 -2.34794)
(-0.239786 -0.328182 -2.28529)
(-0.244826 -0.15252 -2.21701)
(-0.153776 -0.231462 -1.95979)
(0.431762 -0.467843 -1.36419)
(1.22094 0.141052 -1.77531)
(1.17994 0.153209 -1.22169)
(1.04725 -0.319432 -1.34578)
(0.667791 -0.506122 -1.75298)
(0.243512 -0.459198 -1.63624)
(0.156433 -0.342953 -1.60444)
(-0.034632 -0.0377252 -2.06554)
(0.0854718 -0.285241 -2.43192)
(0.199392 -0.277448 -2.56952)
(0.344305 -0.533021 -2.38579)
(0.0531322 -0.738174 -2.23204)
(0.058114 -0.684183 -1.90058)
(0.149397 -0.497796 -1.67069)
(0.430499 -0.483918 -1.4207)
(0.49217 -0.789125 -1.39744)
(0.335651 2.20063 3.19926)
(0.537811 2.60506 3.02004)
(0.95456 2.57814 3.03816)
(0.576784 2.66394 3.37169)
(1.10949 3.20212 3.45375)
(1.55644 2.53646 3.08399)
(1.98 2.77004 3.37413)
(0.741402 2.89086 3.94288)
(1.04096 3.44712 3.51455)
(1.9782 2.38737 2.84998)
(2.14111 2.97434 3.03742)
(1.40967 3.26186 3.09183)
(-0.0207955 3.12709 3.89982)
(0.019565 3.55444 2.79668)
(2.13475 2.31861 1.99377)
(2.76204 2.71355 1.69204)
(2.73942 3.0265 1.45024)
(0.656775 3.2292 2.51064)
(-0.294485 3.41411 2.95265)
(-0.326388 3.16689 1.84773)
(1.70905 2.44347 1.66531)
(2.55258 2.52272 1.41788)
(2.79096 2.68293 0.411656)
(1.93569 2.95067 0.198242)
(0.58173 3.02375 0.802108)
(-0.423942 3.11629 1.93787)
(-0.0712514 3.79365 0.465712)
(1.92504 2.41826 1.67505)
(2.21379 2.55496 1.80809)
(2.24058 2.67556 0.40197)
(2.27336 2.68954 -0.169563)
(1.42704 3.4159 -0.393692)
(0.201191 3.75757 0.508419)
(0.128525 4.15691 0.783092)
(-0.475713 3.44417 0.998457)
(1.65468 2.56894 2.00532)
(2.67242 2.17892 1.31107)
(1.94647 2.54374 1.44705)
(1.65009 2.70052 0.307226)
(1.78514 2.97575 0.0347391)
(0.930168 3.35802 0.471991)
(0.420597 3.68458 0.672271)
(-0.545105 3.39552 1.15496)
(-0.342536 2.33151 1.21456)
(1.64964 2.3254 1.9936)
(2.1739 2.00788 1.50004)
(2.22971 1.84531 0.623296)
(1.9152 2.14804 0.114223)
(1.87932 2.56145 -0.0550227)
(1.37159 2.35401 0.580626)
(1.1167 2.36323 1.08151)
(0.433442 2.27113 1.3247)
(-0.241089 2.0448 1.38827)
(0.00362241 0.778027 1.0825)
(1.33078 2.03278 1.36248)
(1.93085 1.81461 0.546346)
(1.92685 1.6126 0.567858)
(2.06508 1.85636 -0.260295)
(2.86459 1.52559 -0.320719)
(1.96622 1.48761 0.322474)
(1.70208 1.50605 0.4584)
(0.934302 1.2481 0.9255)
(0.493181 0.752926 0.932802)
(0.186899 0.322639 1.29626)
(-0.475267 0.565029 -0.818719)
(1.56669 1.90643 0.747226)
(1.5974 2.03136 0.672997)
(1.75679 1.4118 0.626277)
(1.75502 1.54043 -0.681964)
(2.18346 1.28258 -1.14615)
(2.41904 1.11889 -1.41122)
(1.77097 1.22579 -1.2846)
(1.03843 0.322798 0.25333)
(0.198232 0.231298 -0.538988)
(-0.298739 0.627209 -0.756086)
(-0.39961 0.699633 -0.812276)
(-0.542246 0.808841 -1.23524)
(0.737921 1.24506 0.101024)
(1.21395 1.23969 -0.880964)
(0.89444 1.36218 -1.71022)
(1.23886 0.810844 -1.87092)
(1.57588 0.834174 -2.1296)
(2.02702 0.998701 -2.36347)
(1.32714 1.03197 -2.30637)
(0.200987 0.689012 -1.63959)
(0.118171 0.698679 -1.16896)
(-0.119398 0.933922 -1.35095)
(-0.316409 0.814742 -1.39439)
(-0.404094 0.782675 -1.32381)
(-0.619475 0.191168 -1.65771)
(0.29211 1.34751 -1.16624)
(1.07081 0.502563 -1.14938)
(0.492553 0.8554 -0.638996)
(0.800117 0.930644 -0.726612)
(1.24387 1.01097 -0.674005)
(2.13334 0.808309 -1.60407)
(1.99069 0.767658 -2.49238)
(0.798673 0.621606 -2.24992)
(0.310748 0.518788 -2.02789)
(-0.0225008 0.452789 -1.91324)
(-0.277756 0.175474 -1.69146)
(-0.429856 0.157202 -1.82625)
(-0.582799 0.261729 -1.89086)
(-0.684043 -0.0104159 -1.95765)
(0.27241 0.774239 -1.68577)
(1.0223 -0.138358 -1.36167)
(0.62543 0.176517 -1.22736)
(0.577181 0.622801 -1.16515)
(1.08759 0.655579 -1.13731)
(1.13061 0.661669 -2.29935)
(0.904515 0.713479 -3.03056)
(0.813747 0.167271 -2.65711)
(0.53568 -0.0497128 -2.32272)
(0.202047 -0.158625 -2.11723)
(-0.121525 -0.218422 -2.0283)
(-0.315582 -0.165946 -2.09815)
(-0.474478 -0.010625 -2.04942)
(-0.670959 0.00637707 -1.82744)
(-0.211533 -0.205279 -1.9521)
(0.521915 0.203615 -1.98044)
(0.843025 -0.177328 -1.55952)
(0.883365 -0.395101 -1.64508)
(0.396714 -0.137229 -1.69529)
(0.2191 0.0419979 -1.74972)
(0.694799 0.0175523 -1.89856)
(0.888671 0.296293 -2.34135)
(0.540499 -6.87478e-05 -2.78712)
(0.405428 -0.0854797 -2.68629)
(0.356585 -0.262377 -2.49786)
(-0.134209 -0.302135 -2.36611)
(-0.185403 -0.352848 -2.30573)
(-0.149649 -0.178672 -2.23612)
(-0.0877388 -0.26552 -1.96198)
(-0.275352 -0.168732 -1.62337)
(0.502703 -0.775446 -1.38039)
(1.18954 0.167801 -1.76723)
(1.17922 0.174855 -1.21242)
(1.02399 -0.293739 -1.34242)
(0.701945 -0.544371 -1.76844)
(0.232478 -0.454587 -1.63059)
(0.147183 -0.336773 -1.60975)
(-0.0374958 -0.0284677 -2.07056)
(0.0931161 -0.288945 -2.43672)
(0.222509 -0.282809 -2.57939)
(0.372669 -0.540131 -2.39062)
(0.07391 -0.745133 -2.2327)
(0.0907322 -0.681285 -1.90419)
(0.185168 -0.500764 -1.6816)
(0.436208 -0.493103 -1.44891)
(0.481022 -0.806142 -1.41)
(0.902745 -0.79336 -1.19751)
(0.279034 2.21338 2.92319)
(0.660074 2.30507 3.18291)
(0.760762 2.26294 2.98953)
(0.467487 2.42553 3.33539)
(0.733381 2.92608 3.30462)
(0.804644 2.24061 3.19726)
(0.99329 2.53219 3.43671)
(0.242882 2.66578 3.72755)
(0.296811 3.05183 3.77144)
(1.645 2.31022 3.01278)
(2.08449 2.86009 3.19513)
(1.31634 2.77708 3.82417)
(-0.116559 2.87216 4.10074)
(-0.332724 3.23733 3.95218)
(1.59656 2.53105 2.67018)
(2.53465 2.64403 2.80901)
(1.83756 2.91739 2.99434)
(0.411165 3.25424 3.64904)
(-0.641203 3.27472 3.94595)
(-0.994141 3.20837 3.34884)
(2.08449 2.14734 1.94466)
(2.6735 2.52885 1.70819)
(2.70098 2.71626 1.44537)
(1.40034 3.10439 1.99411)
(0.126974 3.16493 2.75167)
(-0.911001 3.00816 3.47497)
(-0.462459 3.31287 2.04587)
(1.9092 2.27057 1.5143)
(2.74089 2.31732 1.13196)
(2.69698 2.50155 0.480343)
(2.01447 2.66699 0.310635)
(0.920708 3.05417 0.457246)
(-0.279705 3.04173 1.87836)
(-0.443601 3.60347 1.97658)
(-0.333898 3.99347 1.13216)
(1.98019 2.2719 1.4556)
(2.76061 2.07686 1.08067)
(2.77847 2.07433 0.450223)
(2.3061 2.58578 -0.244693)
(1.70741 3.27837 -0.431077)
(0.373895 3.70145 0.482652)
(0.166502 4.07521 0.820277)
(-0.529682 4.12495 1.28929)
(-0.739236 3.19816 1.25816)
(1.72942 2.39953 1.96636)
(2.85174 1.82892 0.869518)
(3.18945 1.40974 0.145249)
(2.38262 2.14874 0.088269)
(1.98736 2.85346 -0.158421)
(1.16974 3.32419 0.27021)
(0.589244 3.51199 0.90991)
(-0.212231 3.42131 1.15719)
(-0.510512 3.28365 1.45714)
(-0.490218 2.05651 1.68773)
(1.66428 2.27283 1.91288)
(2.07873 1.72937 1.72089)
(2.31985 1.6959 0.712344)
(2.31252 1.69601 -0.358536)
(2.33952 2.11622 -0.851481)
(1.82131 2.18016 0.343985)
(1.44933 2.13311 0.991993)
(0.626003 1.98701 1.41742)
(0.318974 1.74639 1.43597)
(-0.547066 1.36965 1.29371)
(-0.252029 0.738284 1.31335)
(1.52355 2.04074 1.26937)
(1.62881 2.03218 1.28944)
(2.02215 1.60679 0.687986)
(2.14641 1.68086 -0.448803)
(2.60664 1.7655 -0.919844)
(2.41 1.35322 -0.523781)
(1.86109 1.43913 0.0343929)
(1.17985 1.13362 0.803136)
(0.729782 0.647101 1.0685)
(0.249732 0.592249 0.627291)
(-0.426813 0.742883 0.445892)
(-0.504893 0.673785 -1.09229)
(1.76185 1.85729 0.627315)
(1.53142 1.90012 0.836588)
(1.82377 1.42091 0.562292)
(1.88801 1.22774 -0.568341)
(2.12696 1.34524 -1.36715)
(2.41621 1.1919 -1.67427)
(2.10607 1.24315 -1.43175)
(1.05513 0.615545 -0.445914)
(0.229774 0.267845 -0.482456)
(-0.124847 0.61496 -0.695694)
(-0.324524 0.668178 -0.890928)
(-0.193386 0.726219 -1.00303)
(-0.582977 0.738589 -1.21167)
(1.35101 0.825405 0.756405)
(0.988405 1.15739 -0.600313)
(1.0463 1.31936 -1.73001)
(1.19887 0.904544 -1.71716)
(1.61789 0.881384 -2.06048)
(2.07117 1.00726 -2.22987)
(1.55268 1.10617 -2.33562)
(0.391326 0.754549 -1.71543)
(0.182156 0.735053 -1.27824)
(0.0320505 0.879438 -1.3907)