/*--------------------------------*- C++ -*----------------------------------*\
  =========                 |
  \\      /  F ield         | OpenFOAM: The Open Source CFD Toolbox
   \\    /   O peration     | Website:  https://openfoam.org
    \\  /    A nd           | Version:  7
     \\/     M anipulation  |
\*---------------------------------------------------------------------------*/
FoamFile
{
    version     2.0;
    format      ascii;
    class       volScalarField;
    location    "7";
    object      nut;
}
// * * * * * * * * * * * * * * * * * * * * * * * * * * * * * * * * * * * * * //

dimensions      [0 2 -1 0 0 0 0];

internalField   nonuniform List<scalar> 
18750
(
0.000395911
0.000843435
0.000221125
0.000436012
0.00166829
0.00187061
0.00138526
0.000253639
0.000234603
0.000477482
0.00263711
0.000772122
0.0017127
0.000862867
0.000960615
0.00175958
9.06814e-05
0.000217648
0.000228036
0.000479334
0.00244233
0.000612352
0.00271624
0.00247068
0.000668029
0.001958
0.000589736
0.00114773
0.000678407
0.00116383
0.000347004
5.7392e-05
0.000333057
0.00023233
0.000381162
0.00275765
0.000391813
0.00199912
0.00217551
0.000875596
0.00223318
0.00118993
0.00163057
0.000435368
0.00226978
0.00072745
0.000468173
0.00110765
0.000625513
0.00126666
0.000215602
0.000193278
7.07979e-05
0.000338593
0.000237881
0.000313738
0.00265067
0.000964148
0.00220433
0.00130375
0.00175984
0.00226868
0.00168022
0.00179156
0.000952855
0.00231919
0.000767608
0.00152581
0.00140433
0.00062898
0.00225759
0.000607228
0.000528942
0.000391002
0.000999816
0.00069566
0.00177871
0.000109238
0.000264259
0.000108788
6.05896e-05
0.000397748
0.000259944
0.000207469
0.00222865
0.00100809
0.0025186
0.00145865
0.000736475
0.00206022
0.000947627
0.00236211
0.000726374
0.00248126
0.000690156
0.00193721
0.00140185
0.00112607
0.00256052
0.000513825
0.000632393
0.00149824
0.001174
0.000897996
0.00238535
0.000346904
0.000520221
0.000535411
0.000427754
0.000937811
0.000620446
0.00213628
0.000138423
0.000188838
0.000213951
0.000138571
4.92919e-05
9.87307e-05
0.000267372
0.000118797
0.00249577
0.000790109
0.00252101
0.00107332
0.000779395
0.00249235
0.000946288
0.000994944
0.000984293
0.00201868
0.00151448
0.00136247
0.00142251
0.000567761
0.0024663
0.0013642
0.00148118
0.0017982
0.00131031
0.00149165
0.0026644
0.000969722
0.000465087
0.000859925
0.00142809
0.00109589
0.000964598
0.00263665
9.49224e-05
0.000265932
0.000343455
0.000433359
0.000478496
0.00100465
0.000637238
0.00183014
0.000194465
0.000124556
0.000212669
0.000155184
0.000125256
6.31782e-05
0.000449769
0.000236441
0.000119632
0.00244664
0.000566922
0.00238964
0.000580987
0.000893653
0.00231314
0.00109629
0.000664494
0.000670788
0.00236955
0.0007599
0.00112905
0.000905898
0.00126512
0.00180293
0.0011281
0.00135425
0.00166032
0.00125015
0.000785902
0.00227776
0.000912396
0.00162912
0.00239674
0.00113199
0.00135524
0.00110404
0.00240312
0.00047479
0.000480979
0.000563449
0.00120541
0.00127633
0.00119075
0.00101503
0.00207387
0.000275907
0.000168766
0.000187959
0.000278468
0.000243197
0.000529871
0.000998779
0.000745231
0.00146901
0.000154009
0.000168499
0.000105401
0.000129233
0.000149342
0.000125601
0.000106563
0.000388473
0.000222725
0.000184666
0.00215505
0.000875827
0.00239975
0.000458077
0.000697227
0.00253418
0.000692893
0.00088177
0.000842939
0.00246029
0.000652968
0.000512918
0.00113378
0.00060617
0.00218896
0.000374811
0.000380402
0.000843977
0.000820913
0.000978859
0.00199968
0.00101667
0.00149296
0.000549923
0.00147502
0.00113899
0.000553455
0.00213235
0.000739537
0.000773661
0.00140403
0.00164721
0.000707795
0.00123463
0.000843421
0.00220233
0.000537331
0.000616006
0.000371407
0.000681773
0.0015021
0.00139598
0.00119465
0.000875321
0.00177279
0.000179372
0.000246618
0.000104733
0.000257537
0.000330943
0.000321653
0.000623164
0.00102301
0.000760415
0.00139319
0.000318649
0.000164567
0.000133229
0.000139332
0.000102099
0.000139309
0.000101416
0.000143402
0.0001886
0.000228813
0.000217774
0.00239486
0.000864768
0.00208923
0.000823758
0.000478011
0.00227832
0.000427033
0.000502156
0.000624967
0.00227894
0.000758716
0.00130796
0.000692764
0.000891965
0.00255395
0.000833451
0.0014446
0.000732795
0.00133688
0.00115795
0.00208776
0.000622238
0.000502726
0.000398177
0.00102725
0.000812527
0.000960636
0.00228094
0.000752707
0.00169742
0.00105185
0.000737314
0.00089378
0.00094475
0.000678624
0.0021999
0.000938729
0.000391216
0.00124802
0.00186386
0.000563766
0.000913248
0.00114725
0.00111274
0.0021273
0.00050209
0.000651572
0.000471201
0.000396356
0.00112345
0.00159497
0.00147951
0.0021149
0.000743587
0.00202878
0.000411238
0.000604406
0.000304397
0.0001384
0.00021459
0.000359477
0.000452994
0.000676166
0.000983786
0.000847535
0.00131472
0.000117332
0.000293298
0.000297724
0.000115638
0.000127077
0.000139139
0.000125302
8.3692e-05
0.000173515
0.000152203
0.000257897
0.000236193
0.00220564
0.000599983
0.00189669
0.000648023
0.000738479
0.002162
0.000475499
0.000815274
0.000514706
0.00224674
0.00141023
0.000771243
0.000518995
0.000432177
0.00217532
0.00128919
0.00128349
0.000354673
0.000516498
0.000752767
0.00236912
0.000889367
0.000911393
0.000424412
0.00064082
0.00072762
0.00114374
0.002246
0.000688189
0.000289426
0.000268139
0.000697848
0.00110458
0.00104715
0.000570217
0.00242272
0.00104492
0.000910546
0.00120111
0.000850665
0.000741957
0.000945008
0.00057422
0.000689812
0.00214552
0.000631322
0.000654339
0.000948811
0.00134892
0.0020619
0.000673542
0.00101727
0.001557
0.000798624
0.00214809
0.000698407
0.00060845
0.000591606
0.000358738
0.000553506
0.00092448
0.00111154
0.00115377
0.00104219
0.000852571
0.00217085
0.000293676
0.000596007
0.000509656
0.000317541
0.000239077
0.000223204
0.000396201
0.000391555
0.000675187
0.000717204
0.000789064
0.00118737
0.000496053
0.000110752
0.000216865
0.000163943
0.000217741
0.000137438
0.000216795
0.000102891
8.46146e-05
0.000185153
0.000282494
0.000280085
0.000265482
0.00214735
0.000554225
0.00239888
0.000367962
0.000692092
0.00205259
0.000483964
0.000780778
0.000645521
0.00202138
0.000533921
0.000582244
0.000669092
0.000442948
0.00226295
0.000910677
0.000338478
0.000181613
0.000468471
0.000319778
0.00243571
0.000659168
0.000869981
0.0010752
0.000700443
0.000460304
0.000806619
0.0024676
0.000362162
0.000523493
0.000649869
0.000671038
0.000815142
0.000440541
0.000780059
0.00241342
0.000495918
0.000889579
0.00045761
0.000530647
0.000654484
0.000455724
0.000989681
0.00114348
0.0024768
0.000758915
0.000900442
0.00123294
0.000921272
0.000984323
0.000969097
0.000935029
0.000927501
0.000705972
0.00215163
0.000728606
0.000781944
0.00090867
0.000918049
0.00197509
0.000614767
0.00106862
0.00122102
0.000603464
0.000456561
0.0021509
0.000286245
0.000802642
0.000595955
0.000450569
0.000333676
0.000951192
0.000850254
0.000916688
0.00120894
0.00111026
0.000679203
0.00174235
0.000252046
0.000599956
0.000487506
0.000337786
0.000277778
0.000282628
0.000335538
0.000387694
0.000327347
0.000613914
0.0008296
0.000830091
0.00105197
0.00038686
0.000528645
0.000172614
0.000171802
0.000181445
0.000219374
0.000108659
0.000210129
0.000113684
7.16144e-05
0.000182266
0.000384146
0.000364144
0.000281995
0.00213947
0.000429936
0.00219436
0.000310293
0.000401993
0.00225597
0.000296056
0.000302898
0.000412868
0.0020145
0.000412902
0.000405205
0.000819413
0.000574915
0.00195963
0.000729302
0.000444375
0.000649503
0.000663114
0.000472659
0.00235789
0.00113893
0.000651074
0.000564082
0.000394901
0.000286853
0.000214056
0.00241035
0.00095868
0.00145337
0.000870109
0.000939908
0.000369488
0.000516903
0.000872017
0.00249708
0.000426584
0.000785887
0.00145793
0.00105791
0.000381515
0.00047229
0.000779646
0.000811252
0.00252259
0.00166673
0.00076748
0.000943393
0.000610782
0.000490843
0.000706629
0.000899706
0.000432963
0.00120116
0.00247049
0.000897956
0.00118075
0.00109166
0.000951422
0.000898272
0.000749594
0.00107873
0.0013606
0.000889624
0.000919968
0.00209485
0.000694892
0.000552095
0.000862362
0.000725586
0.00071542
0.00164865
0.000561132
0.000778088
0.00127499
0.00203476
0.000861808
0.00195346
0.000306091
0.000395772
0.000498155
0.000619815
0.000472601
0.000324417
0.000713243
0.000943947
0.00104395
0.00118662
0.00155188
0.00050647
0.00185467
0.000386622
0.000366857
0.000678761
0.000515711
0.000553912
0.000423112
0.000279203
0.000423091
0.000360569
0.000335505
0.000615891
0.000816421
0.000691258
0.000992976
0.000176084
0.000454173
0.000451759
0.000528819
0.00019515
0.000280628
0.000236812
8.64414e-05
0.000133549
0.000150103
0.000174408
0.000176648
0.000548817
0.000408072
0.000292378
0.00219229
0.000550513
0.00225169
0.00032585
0.000330548
0.00212079
0.000152251
0.000499347
0.000367564
0.00213651
0.000316696
0.000361891
0.000400333
0.000396614
0.00197895
0.00042173
0.000335589
0.000272876
0.000652842
0.000665835
0.00203785
0.000878784
0.000677422
0.000594262
0.000631299
0.00060807
0.000419873
0.00243044
0.000833736
0.000503292
0.000953182
0.000398397
0.000474303
0.000617813
0.000295241
0.0023857
0.00104323
0.00113464
0.00154439
0.0009885
0.000891438
0.000370652
0.000664517
0.000791507
0.0025889
0.000632289
0.000386784
0.000494597
0.000766137
0.000789667
0.000795452
0.000695424
0.000878514
0.000858093
0.00275154
0.00101064
0.000717299
0.000442985
0.000954746
0.000351995
0.000228001
0.000713215
0.000706659
0.000332005
0.00112536
0.00223711
0.00110943
0.00114356
0.00103441
0.000784457
0.00105309
0.000745497
0.000583331
0.0011388
0.000837021
0.00053822
0.00113644
0.00218816
0.000598397
0.000697451
0.000845567
0.000834848
0.000976138
0.00106721
0.00100915
0.000761485
0.00109253
0.000986281
0.00118615
0.000745075
0.00248636
0.000262994
0.000321666
0.000563091
0.000598775
0.000573794
0.00043116
0.000399266
0.000845591
0.000855406
0.000773488
0.00129971
0.00120916
0.000580976
0.00177628
0.000492685
0.000297043
0.000338093
0.000544028
0.000564968
0.000283565
0.000418372
0.000289353
0.000410883
0.000369441
0.000343153
0.000582253
0.000845022
0.000581648
0.000914035
0.000121981
0.000176356
0.000495381
0.000288998
0.000385583
0.000174612
0.000454539
0.000339365
0.000120671
0.000152692
0.000125787
0.000110116
0.000168007
0.000395355
0.000464142
0.000301848
0.00221384
0.000279191
0.00209804
0.000547679
0.000510249
0.00223597
0.000398092
0.000302317
0.000302302
0.00216626
0.000498938
0.000570696
0.000311367
0.000298651
0.00209674
0.000528089
0.000261457
0.000315966
0.000455595
0.000530472
0.00200833
0.000692385
0.000330148
0.000299567
0.000268141
0.000747969
0.000614086
0.00211972
0.000908769
0.00081905
0.000608743
0.000483804
0.000580515
0.000483981
0.000339014
0.0022671
0.000996914
0.000808868
0.000834851
0.000374442
0.000602792
0.000400138
0.000725306
0.000633774
0.0025202
0.0006898
0.000779722
0.000835082
0.000227363
0.000961711
0.000675748
0.000736253
0.0008365
0.000783753
0.0027325
0.000552091
0.000573793
0.000505034
0.000523673
0.00105381
0.000600002
0.00095342
0.000927561
0.000689239
0.000677403
0.0028391
0.00129342
0.00104636
0.000929837
0.000623515
0.000676577
0.0009622
0.000524759
0.00112763
0.000470416
0.000732185
0.00163357
0.00215701
0.000698871
0.0010319
0.00118905
0.000775931
0.000849289
0.00100009
0.000747234
0.000747988
0.00174262
0.000725156
0.000784564
0.000651208
0.00214055
0.000648095
0.000564649
0.000784819
0.000937693
0.000603342
0.000914957
0.00118916
0.000625692
0.00105288
0.000999378
0.000807984
0.00116543
0.000720366
0.002446
0.000305975
0.000398935
0.000339823
0.000567793
0.000775118
0.000467111
0.000406498
0.000419902
0.00107612
0.00087135
0.00074692
0.000967373
0.000858462
0.000651731
0.00180563
0.000263197
0.000242236
0.000238208
0.000429676
0.000516908
0.000589334
0.000235169
0.000336112
0.00077445
0.000531416
0.000341519
0.000340836
0.000577082
0.000929863
0.000510743
0.000861058
0.000178934
0.000141927
0.000171225
0.000491029
0.000108289
0.000350079
0.000192907
0.0001881
0.000152269
9.16565e-05
0.000191136
0.000123142
0.000128179
0.000182512
0.00044171
0.000537653
0.000293099
0.00213094
0.000497533
0.00230438
0.000175869
0.000332878
0.00222008
0.000676295
0.000461896
0.000558567
0.00223714
0.000478926
0.000421535
0.0004084
0.000288102
0.00217479
0.000315679
0.000393843
0.00012624
0.00025122
0.000495625
0.00212047
0.000299338
0.000406233
0.000298023
0.000212124
0.000595078
0.000470213
0.00210881
0.000613442
0.000663013
0.000432578
0.000459914
0.000634452
0.000588352
0.000574904
0.00210403
0.000697046
0.000531843
0.00050446
0.000402199
0.000505517
0.000319315
0.000591684
0.00125796
0.00202919
0.000633211
0.000705467
0.0006784
0.00131526
0.000833986
0.000544821
0.000499251
0.000540741
0.000673155
0.00238328
0.000647884
0.00130875
0.000647765
0.00120579
0.00122556
0.000910891
0.00065253
0.000469269
0.000611488
0.0011062
0.00246283
0.000879214
0.000494856
0.000295014
0.000774174
0.000954255
0.0008066
0.000595135
0.000833113
0.000810472
0.000628514
0.00142893
0.00280658
0.00105904
0.000741681
0.00087433
0.000743062
0.00032575
0.000928071
0.000417811
0.000484777
0.000324378
0.0006372
0.000830925
0.00124246
0.00310516
0.000767606
0.000830398
0.00100338
0.00113254
0.00114061
0.000872713
0.00106209
0.00107608
0.000562417
0.000531235
0.000544911
0.000576505
0.00117216
0.00222645
0.000622615
0.000595179
0.000614711
0.000980112
0.00152919
0.00120898
0.000878176
0.00099764
0.000586907
0.00117396
0.000841527
0.000763308
0.00115004
0.00103253
0.00197819
0.00152891
0.000323592
0.000334568
0.000364898
0.00084531
0.000588803
0.00054859
0.000460538
0.000462881
0.000662026
0.000708788
0.000809378
0.000948128
0.00108828
0.000625262
0.00193386
0.000331079
0.000153955
0.000474735
0.000254312
0.000410658
0.000497699
0.000513524
0.000356123
0.000335499
0.000146739
0.000482108
0.000314801
0.000335278
0.000554917
0.000836385
0.000592522
0.000917452
9.56616e-05
0.000113172
9.28704e-05
0.000173143
0.000430321
0.000242705
0.00032807
0.000195301
0.000224483
0.000189764
0.000143939
0.000183145
0.000126233
0.000148308
0.000150811
0.000445309
0.000570382
0.000288886
0.00223757
0.000417349
0.00215247
0.000406495
0.000290167
0.0021692
0.000294278
0.000227194
0.000310233
0.00225805
0.000540296
0.00040096
0.000409629
0.000447436
0.00227727
0.000203164
0.000248276
0.000567328
0.000515429
0.000428547
0.00208073
0.000366081
0.000785149
0.000456116
0.000259911
0.000251596
0.000389033
0.00216858
0.000329896
0.000649395
0.000300273
0.000282428
0.000331765
0.00049806
0.000402159
0.00221597
0.000506167
0.000609483
0.00059623
0.000425419
0.000414068
0.000497802
0.000479002
0.00034408
0.00225299
0.000714996
0.000644773
0.000759961
0.000836296
0.000471946
0.000580284
0.000473244
0.000540441
0.000812071
0.00216787
0.000862382
0.000635707
0.000645409
0.000955734
0.000216584
0.000593751
0.000657595
0.000728768
0.000786799
0.000616253
0.00221129
0.000984318
0.000587336
0.000498437
0.0018441
0.000665711
0.000444527
0.000665894
0.000466813
0.000490819
0.000571761
0.00102144
0.00237592
0.000797417
0.000400897
0.000616482
0.000852319
0.000413048
0.00139649
0.000709475
0.000901062
0.000690787
0.000516854
0.000868775
0.00088148
0.00283978
0.000302958
0.000647237
0.000754705
0.000404726
0.000226563
0.00078906
0.000734657
0.000644561
0.00032016
0.000486029
0.000770207
0.00019414
0.000734234
0.00345856
0.000950909
0.00106937
0.00118585
0.00108996
0.00109928
0.00084366
0.000845656
0.000746088
0.000395287
0.00049534
0.000598293
0.000279528
0.00104427
0.000999274
0.00218671
0.00121955
0.000671894
0.000610012
0.000690884
0.000590365
0.00106913
0.000857044
0.000935354
0.000882652
0.000696457
0.000791005
0.000490274
0.00095211
0.000690087
0.00062832
0.00285161
0.000577078
0.000236104
0.000246051
0.000323684
0.000500541
0.00091191
0.000578232
0.000435069
0.000352304
0.000583524
0.000682316
0.000573228
0.000787761
0.00122196
0.000617644
0.00091271
0.00211179
0.000309512
0.000364474
0.00015075
0.000201448
0.000104463
0.000354185
0.000475186
0.000400985
0.000387086
0.000115481
0.000631663
0.000448838
0.000284753
0.000340092
0.000543291
0.00061782
0.000832189
0.00103306
4.61713e-05
0.000126425
6.58056e-05
0.000106194
0.000296359
0.000349181
0.00038037
0.000351324
0.000241191
0.000280797
0.000208176
7.33007e-05
0.0002193
0.000114295
0.000111748
0.000161531
0.000382671
0.000489583
0.000287131
0.00218762
0.000383835
0.00216183
0.000229159
0.000622845
0.00219851
0.000395802
0.000406892
0.00053452
0.00217499
0.000491232
0.000212167
0.000350185
0.000272588
0.00234125
0.000397238
0.000327583
0.000561844
0.000286602
0.000374853
0.00225381
0.000518279
0.000576975
0.000404578
6.0736e-05
0.000241891
0.000401761
0.00222258
0.00035017
0.000230503
0.000242061
0.000383872
0.000285128
0.000464572
0.000345666
0.00234466
0.000399312
0.000600455
0.000441409
0.000463705
0.000318943
0.000518804
0.000433125
0.000329067
0.00226823
0.000702051
0.000646401
0.00040115
0.000478362
0.000457924
0.000613445
0.000784228
0.000684655
0.00105905
0.00224513
0.000604576
0.000625493
0.000540358
0.000471783
0.000498442
0.000476958
0.000501699
0.00040302
0.00038782
0.000496553
0.00214662
0.000670232
0.000612508
0.00114921
0.000582465
0.000352956
0.000621096
0.000626087
0.000528578
0.000794349
0.000617516
0.000796594
0.00214805
0.000821925
0.000889405
0.00114976
0.000652059
0.000661898
0.00109725
0.000734441
0.000884042
0.000628905
0.000990153
0.000780875
0.000811655
0.00251561
0.000739672
0.000593574
0.000584191
0.000433361
0.000951792
0.000857728
0.000375688
0.000800579
0.000810912
0.000782144
0.000822319
0.000767429
0.000532596
0.00288344
0.000466689
0.000455895
0.000580078
0.000714917
0.000500487
0.000392754
0.00053718
0.000779182
0.000533685
0.000774778
0.000134194
0.000575882
0.000707307
0.00131359
0.00274517
0.00236897
0.00123485
0.000896289
0.0013822
0.00183416
0.000769729
0.000799093
0.000839378
0.000415031
0.000329703
0.000490885
0.000545724
0.00119428
0.000786422
0.000137654
0.00244505
0.000856187
0.000607197
0.00064917
0.000586062
0.000714533
0.00119836
0.00121524
0.000775857
0.000994713
0.000727387
0.000769407
0.00053941
0.000620332
0.000721833
0.000608368
0.001736
0.00306099
0.000720776
0.000637143
0.000435031
0.000214014
0.000309832
0.00100255
0.000792306
0.000692941
0.000283531
0.000369454
0.000612315
0.00057709
0.000523701
0.000716961
0.000826838
0.00167409
0.000894756
0.00184594
0.000198264
0.000373299
0.000337184
0.000156526
0.000139101
0.000204763
0.000386541
0.000551144
0.000393631
0.000383352
0.0001806
0.000563673
0.000454785
0.000302936
0.000338257
0.000523694
0.000549578
0.000971233
0.00112138
0.000104856
0.000113159
0.000130453
6.367e-05
0.000156761
0.000405905
0.000199711
0.000260339
0.000308983
0.000188716
0.000188814
0.000240871
7.83458e-05
0.000172013
0.000118352
0.000155939
0.000181864
0.000483139
0.000301616
0.000283473
0.00220487
0.000427361
0.0022649
0.000336953
0.000373751
0.00222792
0.000271216
0.000315945
0.000535743
0.00214436
0.000135982
0.000326094
0.000450181
0.000375585
0.00213652
0.000383261
0.00062187
0.000281274
0.000468295
0.000298309
0.00228565
0.000284911
0.00018083
0.000273573
0.00028037
0.00036
0.000611094
0.00228447
0.000305906
0.000440882
0.000277946
0.000388602
0.000270783
0.000222233
0.000326004
0.00225396
0.000410915
0.000325145
0.000501237
0.000542071
0.000332809
0.000341052
0.000257372
0.00031838
0.00225382
0.000502512
0.000378153
0.000539987
0.00039207
0.000293481
0.000491515
0.000361718
0.00051679
0.000413511
0.00230794
0.0005922
0.000438251
0.000586507
0.000298114
0.000453133
0.000556708
0.000562208
0.00060969
0.000317708
0.000777206
0.00226638
0.000648164
0.000612505
0.00061147
0.000684747
0.0005806
0.000521068
0.00063959
0.00050846
0.000515268
0.000569304
0.000591598
0.00228748
0.000732474
0.000760686
0.000774239
0.000485552
0.0013372
0.000721004
0.000440616
0.000747724
0.000590612
0.000882213
0.000634956
0.000642858
0.00231969
0.000844046
0.000932814
0.000732038
0.00062164
0.0021616
0.000272943
0.000642345
0.00064642
0.000548827
0.000855461
0.000869972
0.000807193
0.000670669
0.0024618
0.000949979
0.000868556
0.000871251
0.000478229
0.000716069
0.000477929
0.000857435
0.000735548
0.000737918
0.00102015
0.000563549
0.000878391
0.000541693
0.00108914
0.00270594
0.000589185
0.000553061
0.000674308
0.000477364
0.000929575
0.000331637
0.000389584
0.000479262
0.000537761
0.000888358
0.000639292
0.000557511
0.000295854
0.000739797
0.00140792
0.00312679
0.00141996
0.00123505
0.00129873
0.000905877
0.00108151
0.000974025
0.000924798
0.00120077
0.000773653
0.000491425
0.000279685
0.000375922
0.000402835
0.000551086
0.000321567
0.0018792
0.00308956
0.000586512
0.00135446
0.000832149
0.000713169
0.000731142
0.00120133
0.000913594
0.00124379
0.00108371
0.00084105
0.000916433
0.000763274
0.00104677
0.000802166
0.00129621
0.00136638
0.00164995
0.00299835
0.000687117
0.000750643
0.000473271
0.000278727
0.00025441
0.000504098
0.000654844
0.000563211
0.000511251
0.000596835
0.000327916
0.000506126
0.000779212
0.000705553
0.000805415
0.0012595
0.000965374
0.00094229
0.00204555
0.00022648
0.000253325
0.000318386
0.000262205
0.000139249
0.000426775
0.000463234
0.000487951
0.000511518
0.000412386
0.000352074
0.000145969
0.000761194
0.000419095
0.000315761
0.000324278
0.000492256
0.000500157
0.00107382
0.00113904
0.000347573
0.000159356
0.000122081
0.000127224
7.61453e-05
0.000191317
0.000447676
0.000107646
0.00021218
0.0002854
0.000211225
0.00023078
0.000369271
0.000114162
0.0001685
0.000118604
0.000122102
0.000153034
0.000735985
0.000280426
0.000347154
0.00204964
0.000490935
0.00217252
0.000516172
0.000711877
0.00213541
0.000351976
0.000245847
0.000435958
0.00217858
0.000442562
0.000306511
0.000430579
0.000583881
0.00211459
0.000340682
0.000389782
0.000199299
0.000476271
0.000487034
0.00212703
0.000292163
0.000368491
0.00029839
0.000305633
0.000372722
0.00022474
0.00235806
0.000177749
0.000383217
0.000549323
0.000383017
0.000275816
0.00031236
0.000396836
0.00234884
0.000344778
0.000338083
0.000473357
0.000111113
0.000264016
0.000290728
0.000419232
0.000334757
0.00225509
0.000306279
0.000351014
0.000530453
0.00027992
0.000299721
0.000412321
0.000299379
0.000243137
0.000272843
0.00223667
0.000358687
0.000490447
0.00052877
0.000310412
0.000462113
0.000420455
0.000240673
0.00025218
0.000368724
0.000268921
0.00234007
0.000441116
0.000453896
0.000515772
0.000481066
0.000376522
0.000521892
0.000378953
0.000408306
0.000578282
0.000568761
0.000733705
0.00230795
0.000670323
0.000707398
0.000540689
0.000615389
0.000741299
0.00058544
0.000344755
0.000737782
0.000544463
0.000547548
0.000414784
0.000519869
0.00229913
0.000789822
0.00065748
0.000898008
0.000795754
0.00078763
0.000361729
0.000825632
0.00062663
0.00056537
0.000744571
0.000428872
0.000596141
0.00056548
0.00256356
0.000958705
0.000956981
0.00078125
0.00103904
0.000736611
0.00021771
0.00130355
0.000436151
0.000703063
0.00071235
0.000823531
0.000734406
0.000583842
0.000833124
0.00255338
0.00112666
0.000694386
0.000921048
0.000811512
0.000506833
0.0004515
0.000900093
0.000729107
0.00111047
0.000517917
0.000904803
0.000700148
0.00090977
0.00124614
0.000945065
0.00259942
0.00080133
0.00232873
0.00259089
0.00145024
0.0012406
0.000385343
0.00025759
0.00126332
0.000382452
0.00043517
0.00089778
0.000490488
0.000798511
0.00090917
0.000388156
0.000912979
0.00278397
0.000949993
0.000707938
0.00200719
0.000713108
0.000701881
0.00213158
0.000959002
0.000738283
0.000660175
0.000629377
0.000664758
0.000452236
0.000452797
0.000430842
0.000858501
0.00200441
0.00207225
0.00430352
0.000485675
0.000837913
0.000651957
0.000511183
0.000819103
0.000753448
0.000692665
0.000939809
0.00127514
0.000858717
0.000905659
0.000785245
0.00103848
0.00108879
0.000619683
0.00120569
0.0018973
0.00168076
0.00332074
0.000569847
0.000694038
0.000654012
0.000498686
0.000293547
0.000430918
0.000559343
0.000565392
0.000498786
0.000289584
0.000455118
0.000414421
0.000648687
0.000436954
0.000664637
0.00074723
0.0014528
0.00100364
0.00107581
0.00201717
0.000170047
0.000228853
0.000235377
0.000257507
0.000182967
0.000123108
0.000936186
0.000357869
0.000545255
0.000487872
0.00036575
0.000238147
0.000156348
0.000742726
0.000283924
0.000313111
0.000301223
0.000470676
0.000536605
0.00100301
0.00116226
0.000314656
0.000375456
0.000167658
0.000136227
0.00011127
7.96376e-05
0.000202528
0.000456173
0.000382299
0.000263301
0.000278663
0.000206044
0.000217313
0.000171431
0.000209217
0.000192789
0.000118843
0.000120355
0.000208699
0.000691232
0.000240805
0.000346529
0.00206367
0.000240934
0.00204562
0.000505343
0.000426182
0.00209935
0.000310426
0.000745942
0.000697415
0.00212902
0.000400458
0.000409151
0.000437686
0.000442468
0.00205662
0.000371035
0.000429792
0.000212814
0.00051651
0.000441699
0.00207943
0.000393074
0.000328471
0.000355487
0.000213618
0.000614929
0.000440398
0.00204923
0.000319204
0.000401333
0.000333217
0.000526311
0.000458101
0.000295159
0.000430961
0.00221957
0.000355248
0.000157546
0.000442269
0.000314426
0.000326646
0.000252236
0.000361935
0.000396875
0.00231124
0.00045026
0.000182274
0.000379522
0.000293608
0.000352327
0.00040189
0.000343996
0.000331383
0.000546233
0.00235744
0.000394937
0.000514397
0.000240786
0.000502387
0.00030472
0.000392408
0.000305071
0.000338641
0.000669992
0.000416159
0.00228975
0.000210664
0.000565877
0.000220455
0.000529825
0.000348686
0.000403397
0.000281703
0.000214352
0.000495524
0.000229097
0.000454279
0.00233235
0.00025174
0.000859085
0.000513689
0.000627292
0.000534483
0.000464086
0.000543066
0.000386474
0.000459817
0.000434947
0.000485501
0.000622639
0.00241652
0.000766845
0.00054686
0.000513758
0.000663087
0.000745092
0.000490143
0.00065086
0.000640583
0.000546525
0.0004682
0.00054889
0.000549486
0.000538036
0.00229594
0.000757957
0.000865284
0.000789219
0.000641685
0.000555455
0.00132933
0.000652045
0.000513073
0.000623838
0.000529455
0.000643382
0.000510398
0.000731115
0.000651727
0.00243098
0.00079751
0.00089887
0.000653168
0.0010037
0.000741946
0.000992116
0.000945856
0.000705747
0.000908429
0.000883047
0.000859058
0.000595562
0.000454235
0.000624451
0.000959738
0.00263808
0.000972161
0.000424618
0.000809849
0.000841903
0.000742587
0.000873907
0.000573705
0.000235696
0.000594045
0.000623307
0.000640111
0.000483385
0.00120097
0.000825074
0.00102337
0.000679282
0.00308308
0.000549207
0.000717934
0.00111735
0.00123511
0.00174418
0.000550623
0.000465335
0.000648811
0.000325539
0.000356967
0.000672574
0.000353857
0.00029614
0.000421232
0.00056025
0.00115276
0.00201299
0.00225582
0.00101069
0.000886541
0.00126889
0.00106589
0.000969767
0.000944076
0.00134542
0.00161871
0.00122105
0.000722505
0.000537839
0.000455028
0.000545472
8.00618e-05
0.000443944
0.00201886
0.00284009
0.00361904
0.00361802
0.00079742
0.000473898
0.000845361
0.000706496
0.0006821
0.000816696
0.000779615
0.00124477
0.000630663
0.000934403
0.000893359
0.000732749
0.0009835
0.00129911
0.000839413
0.000658548
0.00101919
0.000911148
0.00274767
0.00299799
0.00045861
0.000518221
0.000653418
0.000629158
0.000482368
0.000317741
0.000259143
0.00050737
0.000586165
0.000357566
0.000504318
0.000319761
0.00051998
0.000545368
0.000506346
0.000620803
0.000718985
0.00124799
0.00152694
0.00125175
0.0018889
0.00024667
0.000185065
0.000196081
0.000299892
0.000271037
0.000138592
0.000370841
0.000294957
0.000484681
0.000483193
0.000476573
0.000380908
0.000321377
7.60334e-05
0.000829177
0.000334771
0.000308839
0.000315808
0.000418017
0.000887425
0.000730932
0.00104683
0.000461812
0.000144735
0.000387964
0.000377762
0.000172036
0.000141816
9.76551e-05
7.75656e-05
0.000179116
0.000411862
0.000274493
0.000249649
0.000328822
0.000191876
0.000295598
0.000176442
0.000180351
0.000194531
0.000115715
0.000229103
9.67968e-05
0.000434156
0.000222213
0.000167724
0.0019714
0.000379691
0.0020567
0.000375636
0.00029413
0.00202156
0.000691341
0.000691623
0.000378352
0.00211298
0.000448611
0.000391737
0.000318385
0.000451875
0.00214411
0.00028082
0.000521741
0.000360035
0.000354038
0.000397037
0.00207572
0.000225666
0.000391874
0.000322826
0.000277951
0.000562139
0.000332385
0.00205482
0.000327627
0.000340767
0.000471497
0.000369903
0.000353506
0.000529179
0.000444294
0.00214774
0.000372003
0.000149454
0.000449619
0.000257193
0.000277067
0.000393668
0.000311238
0.000469867
0.00226339
0.00050139
0.000387023
0.000284062
0.000489139
0.000329705
0.000414071
0.000456266
0.000418816
0.000483823
0.00226434
0.000506324
0.000207386
0.000164513
0.000294349
0.000388702
0.000321897
0.000354441
0.000217719
0.000375411
0.000544506
0.00236458
0.000318789
0.000294476
0.000277851
0.000294428
0.00069382
0.000263981
0.000387459
0.000147142
0.000353881
0.000357056
0.000376508
0.00232032
0.000390833
0.000606562
0.000315698
0.000413693
0.000536151
0.000283408
0.000421483
0.000283838
0.000404718
0.00057547
0.00048916
0.000546604
0.00233361
0.00060552
0.000546803
0.000379151
0.000467152
0.000585871
0.000465703
0.000525145
0.000322739
0.000614686
0.000358392
0.000341029
0.000746648
0.000609827
0.00246431
0.000367382
0.000794903
0.000492146
0.000641281
0.000617
0.000742343
0.000502489
0.000594264
0.000675415
0.000549063
0.000508144
0.000378406
0.000388372
0.000707469
0.00230432
0.000861752
0.00120678
0.000834036
0.000857444
0.000722056
0.00089303
0.000440208
0.000630614
0.00117205
0.0007435
0.000609528
0.000661222
0.000725269
0.000750383
0.000870576
0.00253638
0.000665003
0.000761837
0.000679475
0.000994878
0.000835569
0.00073458
0.000547784
0.00139257
0.000777158
0.000650557
0.000798845
0.000590227
0.00106498
0.00080424
0.00093952
0.000852971
0.0024498
0.00065335
0.000695128
0.00158846
0.00150185
0.00064559
0.000497596
0.000667205
0.000801422
0.0010451
0.000576586
0.000309526
0.000870209
0.000668112
0.000845658
0.000534381
0.000556009
0.00144151
0.00289339
0.000655111
0.0005176
0.000760669
0.000397627
0.00073721
0.000776841
0.00132968
0.000522296
0.00024456
0.000824061
0.000266901
0.000619092
0.000239433
0.00044255
0.00102841
0.000944287
0.00109709
0.00342922
0.00280243
0.000946694
0.00108244
0.000980757
0.000734976
0.00138527
0.000541099
0.000953881
0.000818497
0.000799936
0.00105748
0.000723336
0.000538346
0.00057629
0.000170957
0.000356488
0.000373326
0.0023927
0.00243196
0.00392809
0.00240622