/*--------------------------------*- C++ -*----------------------------------*\
  =========                 |
  \\      /  F ield         | OpenFOAM: The Open Source CFD Toolbox
   \\    /   O peration     | Website:  https://openfoam.org
    \\  /    A nd           | Version:  7
     \\/     M anipulation  |
\*---------------------------------------------------------------------------*/
FoamFile
{
    version     2.0;
    format      ascii;
    class       volScalarField;
    location    "7";
    object      p;
}
// * * * * * * * * * * * * * * * * * * * * * * * * * * * * * * * * * * * * * //

dimensions      [0 2 -2 0 0 0 0];

internalField   nonuniform List<scalar> 
18750
(
-62.0456
-61.173
-63.2633
-62.1484
-58.7689
-61.8547
-61.0067
-63.3333
-63.3482
-62.2747
-55.835
-58.1833
-58.4428
-60.7892
-62.0191
-60.7999
-63.2915
-63.3144
-63.4749
-62.4242
-53.4547
-56.7215
-56.2094
-60.2409
-58.0993
-58.1778
-62.1831
-60.6965
-62.1475
-60.619
-63.2955
-63.3183
-63.2469
-63.6031
-62.5524
-50.307
-55.7014
-54.0933
-57.753
-57.1352
-56.4378
-59.8515
-59.9502
-58.1171
-58.0591
-62.7526
-62.3358
-60.662
-62.2229
-60.4711
-63.4448
-63.316
-63.3429
-63.2496
-63.6942
-62.639
-48.9095
-52.4836
-51.1308
-55.3488
-55.5444
-54.7082
-59.8084
-57.1607
-57.3881
-56.6291
-61.1391
-59.9773
-59.7139
-58.1838
-58.0809
-62.7484
-62.8439
-62.4634
-60.654
-62.2424
-60.4003
-63.7018
-63.4646
-63.33
-63.3755
-63.3437
-63.7712
-62.7252
-48.0849
-50.4726
-49.2465
-52.2921
-52.6905
-51.6593
-58.1793
-55.1927
-55.6633
-55.0655
-60.9173
-59.242
-56.98
-57.2185
-56.8399
-61.4966
-61.0886
-60.1859
-59.4934
-58.5212
-58.0702
-62.3377
-62.8085
-62.9585
-62.5453
-60.6725
-62.2917
-60.5071
-64.0273
-63.7467
-63.5125
-63.335
-63.3984
-63.5105
-63.8529
-62.8288
-47.0571
-48.8198
-48.0558
-50.3811
-50.7724
-49.3722
-53.722
-52.299
-52.6523
-51.9571
-57.8533
-57.5927
-55.1579
-55.6259
-55.1966
-60.6339
-61.1925
-59.0688
-57.0231
-57.0375
-57.2861
-61.0191
-61.661
-61.1865
-60.3676
-59.3387
-58.9966
-58.1788
-62.5732
-62.3448
-62.8978
-63.0918
-62.5924
-60.7624
-62.3797
-60.9436
-63.8379
-64.0388
-63.7862
-63.555
-63.3434
-63.4448
-63.6968
-63.9416
-62.9439
-46.1247
-47.6353
-47.2008
-49.0474
-48.7571
-48.2531
-51.1591
-50.5045
-50.8061
-49.5385
-54.3966
-53.6765
-52.0703
-52.682
-52.431
-56.6884
-58.2334
-57.0292
-55.1169
-55.6073
-55.2807
-59.372
-60.9078
-61.3889
-59.0216
-57.2987
-57.2492
-57.2197
-60.7724
-61.0598
-61.8535
-61.1307
-60.5887
-59.2751
-59.4596
-58.4822
-62.4859
-62.5654
-62.3631
-62.9775
-63.2216
-62.6125
-60.9358
-62.5669
-61.5478
-64.1963
-63.8334
-64.0396
-63.8282
-63.5724
-63.3412
-63.4986
-63.8002
-64.0313
-63.0744
-45.1658
-46.3104
-46.2482
-47.4202
-47.6817
-47.3861
-49.2963
-49.0372
-48.9424
-48.2983
-52.0775
-51.1891
-50.3969
-50.7576
-49.6856
-54.7219
-54.4428
-53.9519
-52.4544
-52.71
-52.5432
-56.5967
-56.6113
-58.2356
-56.6344
-55.169
-55.5156
-55.4842
-58.6966
-59.3026
-60.882
-61.2647
-59.0681
-57.4907
-57.5804
-56.7843
-61.3074
-60.8135
-61.1421
-62.0603
-61.3168
-60.7627
-59.5967
-59.9941
-59.0856
-62.9938
-62.4614
-62.5641
-62.4121
-63.0741
-63.3812
-62.6445
-61.1681
-62.829
-62.2103
-64.5766
-64.1354
-63.8469
-64.0372
-63.8688
-63.6153
-63.381
-63.5679
-63.8209
-64.1176
-63.2439
-44.5893
-45.2876
-45.2502
-46.2411
-46.3707
-46.3535
-47.7229
-47.4796
-47.8447
-47.6441
-49.4506
-49.4498
-49.0365
-48.9928
-48.3634
-51.9901
-51.9491
-51.1851
-50.5144
-50.5747
-49.9701
-54.6125
-54.6173
-54.4048
-53.8106
-52.7647
-52.8729
-52.5974
-56.6954
-56.5074
-56.6928
-58.2032
-56.5976
-55.5479
-55.3195
-55.432
-59.2154
-58.8921
-59.2852
-60.9855
-61.0484
-59.0083
-57.6866
-57.7165
-56.9013
-61.7922
-61.2227
-60.8621
-61.3152
-62.2009
-61.6358
-60.981
-60.1523
-60.6711
-59.7785
-63.534
-62.9054
-62.4252
-62.5603
-62.4636
-63.1886
-63.539
-62.6803
-61.4222
-63.1604
-62.9735
-65.2462
-64.5128
-64.112
-63.852
-64.0388
-63.9027
-63.6765
-63.4544
-63.6479
-63.8753
-64.2104
-63.4015
-44.6185
-44.8254
-44.7833
-45.3921
-45.4068
-45.3526
-46.3316
-46.349
-46.4177
-46.4474
-47.7109
-47.5825
-47.4645
-47.9029
-47.7221
-49.398
-49.4168
-49.503
-48.7923
-48.9647
-48.5023
-52.5865
-52.061
-51.9671
-51.1685
-50.8947
-50.5309
-50.1321
-54.469
-54.9469
-54.6523
-54.372
-53.8147
-52.7492
-52.8259
-52.6691
-56.8848
-56.5353
-56.6443
-56.8695
-57.8733
-56.3978
-55.9111
-55.3315
-55.3283
-59.9898
-58.9386
-58.6193
-59.4171
-61.1049
-60.8381
-58.9005
-58.2904
-58.1445
-57.1754
-62.495
-61.5897
-61.1416
-60.9358
-61.4634
-62.436
-61.7447
-61.2182
-60.4251
-61.3575
-60.4255
-64.6616
-63.3511
-62.8025
-62.4164
-62.5739
-62.5188
-63.3084
-63.6691
-62.7325
-61.8448
-63.6907
-63.8344
-65.4624
-65.1765
-64.4629
-64.0959
-63.8597
-64.0388
-63.9172
-63.7219
-63.5206
-63.734
-63.9832
-64.32
-63.6203
-44.187
-44.6575
-44.518
-44.9864
-44.8866
-44.893
-45.5574
-45.4514
-45.5586
-45.4793
-46.4136
-46.514
-46.4635
-46.5308
-46.4969
-47.6501
-47.5513
-47.6576
-47.5587
-47.8296
-47.7593
-49.661
-49.2921
-49.45
-49.3392
-48.9219
-48.8263
-48.5334
-52.2815
-52.2068
-51.981
-51.6016
-51.253
-50.8941
-50.523
-50.2283
-54.4006
-54.5539
-55.0065
-54.6967
-54.4563
-53.8223
-53.0267
-52.7829
-52.7079
-57.7483
-56.9997
-56.9122
-56.7109
-56.8076
-57.6763
-56.3363
-56.1042
-55.3727
-55.2866
-60.7203
-59.449
-58.4655
-58.5918
-59.4863
-60.9148
-60.7245
-59.0188
-59.0549
-58.4908
-57.6181
-63.7138
-62.1602
-61.4074
-61.0831
-61.0492
-61.6642
-62.591
-61.9419
-61.4006
-60.5778
-61.7718
-61.1683
-65.4353
-64.4409
-63.1567
-62.695
-62.4191
-62.6027
-62.5912
-63.4433
-63.781
-62.8151
-62.2434
-64.4386
-64.7336
-65.4212
-65.395
-65.1269
-64.4175
-64.0693
-63.8687
-64.0515
-63.9345
-63.7569
-63.5791
-63.8212
-64.1023
-64.4402
-63.8289
-43.7604
-44.0666
-44.1245
-44.5007
-44.6759
-44.5595
-44.9911
-45.0555
-45.048
-45.0156
-45.551
-45.5905
-45.543
-45.6439
-45.6021
-46.3843
-46.4806
-46.6326
-46.5295
-46.5462
-46.4289
-47.372
-47.5856
-47.4976
-47.68
-47.6617
-47.7293
-47.7221
-49.5113
-48.9123
-49.3098
-49.4981
-49.321
-48.9506
-48.7545
-48.5781
-52.6708
-52.241
-51.3394
-51.7348
-51.6545
-51.423
-50.5844
-50.3892
-50.2337
-54.8028
-54.3899
-54.6548
-54.835
-54.8207
-54.5598
-53.8102
-53.632
-52.9399
-52.6886
-58.7658
-57.2243
-56.8506
-56.9071
-56.7016
-56.828
-57.8553
-56.4206
-56.4001
-55.5359
-55.3039
-62.3189
-60.3207
-59.045
-58.288
-58.4729
-59.633
-60.6201
-60.6522
-59.2755
-58.7845
-58.8504
-57.8249
-64.517
-63.322
-61.8705
-61.2585
-61.0703
-61.1274
-61.924
-62.7603
-62.197
-61.6364
-61.2977
-62.2947
-61.6785
-65.8613
-65.1941
-64.2389
-62.9726
-62.6493
-62.4549
-62.6484
-62.6825
-63.5854
-63.8765
-62.9128
-62.6973
-65.0931
-65.6993
-65.7525
-65.3436
-65.3447
-65.0801
-64.3815
-64.0397
-63.8763
-64.0795
-63.963
-63.78
-63.6372
-63.9057
-64.1934
-64.572
-64.0371
-43.4277
-43.7438
-43.7731
-44.1182
-44.1355
-44.1439
-44.6368
-44.4756
-44.6396
-44.6231
-45.0393
-45.0267
-45.0692
-45.1052
-45.0738
-45.6217
-45.6238
-45.6926
-45.5421
-45.6787
-45.5981
-46.2805
-46.5046
-46.5719
-46.567
-46.5705
-46.6075
-46.4124
-47.6403
-47.7813
-47.7482
-47.762
-47.8436
-47.61
-47.5833
-47.7123
-49.6303
-49.1624
-49.2989
-49.5276
-49.5349
-49.2685
-48.945
-48.6577
-48.6054
-52.4486
-52.4969
-51.9111
-52.0419
-51.8039
-51.5798
-51.3664
-50.7953
-50.4169
-50.1278
-55.3517
-54.6585
-54.4128
-54.702
-54.6577
-54.7381
-54.2356
-53.9927
-53.7119
-52.9685
-52.4941
-59.3053
-58.2147
-57.2302
-56.7643
-57.1013
-56.8943
-56.903
-57.4054
-56.5771
-56.739
-55.9294
-55.5216
-63.468
-61.7123
-59.8498
-59.0184
-58.3145
-58.5968
-59.7902
-60.4258
-60.4071
-59.558
-59.4883
-59.3237
-57.6474
-65.1739
-64.1777
-62.9342
-61.6096
-61.165
-61.0868
-61.2655
-62.035
-62.9184
-62.4929
-62.0589
-62.0036
-63.1183
-62.5912
-66.0847
-65.6655
-64.9804
-64.0363
-62.8102
-62.6353
-62.538
-62.7352
-62.7919
-63.7374
-63.9531
-63.0146
-63.2702
-65.7618
-66.7074
-65.829
-65.6946
-65.268
-65.2977
-65.0198
-64.3563
-64.0195
-63.8843
-64.1299
-63.9811
-63.8077
-63.7194
-63.9823
-64.2808
-64.7072
-64.2371
-43.2324
-43.4965
-43.5645
-43.7675
-43.8054
-43.7995
-44.0982
-44.1463
-44.1163
-44.1678
-44.557
-44.5552
-44.5748
-44.6757
-44.6188
-45.0333
-45.0882
-45.1303
-45.0828
-45.0897
-45.08
-45.534
-45.7223
-45.6948
-45.7623
-45.5181
-45.7078
-45.6397
-46.5747
-46.3974
-46.6379
-46.6085
-46.6062
-46.6223
-46.5933
-46.4417
-47.8602
-47.8123
-47.7967
-47.9859
-47.8039
-47.8762
-47.6102
-47.4138
-47.5731
-49.6969
-49.396
-49.7951
-49.6238
-49.4644
-49.3685
-49.1778
-48.8639
-48.5748
-48.6526
-52.9317
-52.6383
-52.196
-51.9734
-51.7621
-51.9014
-51.4398
-51.4154
-51.0936
-50.4785
-50.1176
-55.7789
-54.9935
-54.5598
-54.4273
-54.6458
-54.2447
-54.5794
-54.0675
-54.0816
-53.528
-52.6389
-52.4146
-60.3941
-58.8868
-57.7801
-56.9429
-56.8008
-57.0779
-56.9878
-57.0839
-57.4529
-56.8985
-57.1308
-56.3474
-55.6632
-64.2408
-62.9427
-61.2283
-59.6523
-58.7735
-58.2247
-58.7908
-59.864
-60.4509
-60.5969
-59.823
-60.5682
-59.8137
-58.0071
-65.7764
-64.8951
-63.7658
-62.519
-61.4685
-61.0078
-61.1145
-61.4246
-62.2326
-63.0828
-62.6882
-62.5959
-62.8201
-64.026
-63.7214
-66.1956
-65.9576
-65.4521
-64.7663
-63.8408
-62.6782
-62.6176
-62.6193
-62.8615
-62.9056
-63.8863
-64.024
-63.1643
-63.8893
-66.556
-67.6853
-65.5767
-65.7881
-65.6268
-65.2011
-65.2453
-64.9586
-64.3222
-64.0046
-63.9013
-64.1939
-63.9837
-63.8266
-63.7844
-64.0479
-64.3613
-64.8493
-64.4191
-43.139
-43.2526
-43.2071
-43.5691
-43.5303
-43.5454
-43.703
-43.8367
-43.7686
-43.8188
-44.1105
-44.2012
-44.1665
-44.2234
-44.2268
-44.5663
-44.5962
-44.6766
-44.5985
-44.6169
-44.5844
-45.0993
-45.0415
-45.1399
-45.1989
-45.1038
-45.1664
-45.0741
-45.7727
-45.6492
-45.8009
-45.7339
-45.5669
-45.6256
-45.7655
-45.6658
-46.5686
-46.7013
-46.6701
-46.6833
-46.6353
-46.6122
-46.626
-46.3314
-46.5072
-48.2415
-47.9769
-47.993
-47.6753
-47.8504
-47.8474
-47.8346
-47.5862
-47.7696
-47.5048
-49.9399
-49.8491
-49.416
-49.5591
-49.4205
-49.6481
-49.3431
-49.0139
-48.8805
-48.4148
-48.685
-53.0022
-52.8779
-52.4391
-51.8989
-51.8452
-51.7963
-51.716
-51.6673
-51.5159
-51.2704
-50.3632
-50.0574
-56.2316
-55.4908
-54.8729
-54.4873
-54.4744
-54.6553
-54.3904
-54.5877
-54.5102
-54.2068
-53.8071
-52.7762
-52.6489
-60.9512
-59.7819
-58.4922
-57.4752
-56.6041
-56.9529
-57.1511
-57.1812
-57.2847
-57.7319
-57.4362
-57.2973
-56.9679
-55.8266
-64.954
-63.9207
-62.4597
-60.8401
-59.629
-58.664
-58.1889
-58.8912
-59.9771
-60.5545
-60.821
-60.1473
-61.0838
-60.4631
-57.8136
-65.9858
-65.5773
-64.6293
-63.5042
-62.1465
-61.4122
-60.96
-61.195
-61.5775
-62.4159
-63.3562
-62.9128
-62.7804
-63.8742
-64.9799
-64.4928
-66.1272
-66.0667
-65.8256
-65.2452
-64.558
-63.6668
-62.5972
-62.6159
-62.7109
-62.9208
-63.0519
-64.0293
-64.1006
-63.3451
-64.5318
-67.3046
-68.5938
-65.448
-65.5381
-65.7391
-65.5718
-65.1383
-65.1792
-64.8997
-64.288
-64.0083
-63.9323
-64.2547
-63.9671
-63.8622
-63.8431
-64.1132
-64.4349
-64.9859
-64.5652
-42.9217
-43.0364
-43.0524
-43.2656
-43.3174
-43.281
-43.5881
-43.5114
-43.5185
-43.5183
-43.8056
-43.7529
-43.8455
-43.8195
-43.8726
-44.2547
-44.245
-44.2411
-44.2047
-44.2617
-44.2153
-44.5811
-44.4637
-44.589
-44.6995
-44.6071
-44.5949
-44.5355
-45.1734
-45.0746
-45.1458
-45.2096
-45.1472
-45.1467
-45.1622
-45.1209
-45.8853
-45.7574
-45.7648
-45.7982
-45.7123
-45.7002
-45.6645
-45.7032
-45.5849
-46.8174
-46.6459
-46.4264
-46.4652
-46.6042
-46.6145
-46.509
-46.535
-46.3949
-46.5054
-48.2247
-48.0682
-48.1657
-47.9661
-47.8838
-47.9519
-47.8515
-47.8076
-47.5353
-47.5841
-47.5156
-50.2245
-49.8591
-49.6176
-49.7455
-49.7031
-49.871
-49.5011
-49.3646
-48.8654
-48.9225
-48.5077
-48.526
-53.6446
-53.3671
-52.7493
-51.9854
-52.4666
-51.4271
-51.62
-51.7905
-51.7261
-51.5484
-50.9662
-50.2603
-50.076
-56.9527
-56.1956
-55.3562
-54.8426
-54.4631
-54.3929
-54.4243
-54.3705
-54.6103
-54.6563
-54.4094
-54.5402
-53.2422
-52.6191
-61.4467
-60.7369
-59.3671
-57.9628
-57.2554
-56.8168
-57.1601
-57.3911
-57.413
-57.5473
-58.1678
-57.9247
-57.8089
-57.6777
-56.1357
-64.9099
-64.7952
-63.6145
-62.0542
-60.3313
-59.3375
-58.5713
-58.3203
-59.1084
-60.1628
-60.8662
-61.1297
-60.5995
-61.6085
-61.1704
-57.8486
-66.0754
-65.8501
-65.3462
-64.2664
-63.1116
-61.8638
-61.2541
-60.928
-61.3042
-61.7475
-62.539
-63.5756
-63.1886
-63.0138
-64.8522
-65.9944
-65.3481
-65.6518
-66.0127
-65.952
-65.6785
-65.026
-64.3851
-63.5009
-62.5466
-62.6317
-62.8171
-62.9535
-63.2194
-64.1557
-64.1813
-63.5573
-65.1528
-68.0263
-69.3424
-65.1801
-65.4259
-65.5052
-65.6883
-65.5121
-65.0832
-65.1261
-64.85
-64.2674
-64.0035
-63.972
-64.3243
-63.958
-63.9334
-63.9099
-64.163
-64.5147
-65.0982
-64.6671
-42.725
-42.9074
-42.9431
-43.1037
-43.0676
-43.08
-43.334
-43.284
-43.2802
-43.236
-43.5526
-43.5057
-43.5402
-43.5354
-43.5024
-43.8711
-43.8074
-43.6995
-43.8076
-43.9314
-43.9623
-44.1854
-44.2107
-44.1818
-44.3275
-44.2268
-44.2077
-44.1166
-44.6543
-44.654
-44.8206
-44.6514
-44.6733
-44.575
-44.6116
-44.5161
-45.2876
-45.1585
-45.144
-45.1939
-45.2033
-45.1588
-45.1407
-45.1122
-45.1526
-45.9557
-45.9181
-45.8579
-45.7612
-45.8086
-45.7028
-45.6379
-45.5859
-45.3488
-45.5289
-46.9987
-46.8051
-46.6937
-46.6772
-46.5898
-46.6416
-46.6164
-46.5297
-46.5085
-46.6872
-46.5008
-48.5493
-48.3007
-47.9408
-48.1523
-47.9577
-48.001
-47.8721
-47.9235
-47.7237
-47.5724
-47.3318
-47.2984
-50.5839
-50.223
-50.0125
-49.6201
-49.7683
-49.4664
-49.4663
-49.5533
-49.2814
-49.0013
-48.847
-48.7386
-48.4323
-53.7286
-53.3572
-53.1059
-52.7022
-52.2054
-52.0279
-51.7993
-51.7387
-51.8152
-51.7018
-51.4911
-51.12
-50.4008
-49.9088
-57.195
-56.9141
-56.0912
-55.3028
-54.771
-54.5115
-54.5997
-54.1975
-54.2771
-54.6466
-54.8644
-54.8744
-54.4654
-53.123
-52.3666
-62.3773
-61.0244
-60.4043
-59.9746
-57.7059
-56.7652
-56.4001
-57.1575
-57.5882
-57.7051
-57.9871
-58.6358
-58.2718
-58.6802
-58.1824
-56.1211
-65.3911
-65.4451
-64.4748
-63.1837
-61.8326
-60.0545
-58.9499
-58.5486
-58.5289
-59.3154
-60.1864
-61.093
-61.5471
-61.2716
-62.4631
-61.7269
-58.3698
-65.602
-65.853
-65.6844
-65.0877
-63.9251
-62.6873
-61.6645
-61.2575
-60.8745
-61.4213
-61.961
-62.7009
-63.7771
-63.4793
-63.4372
-65.8712
-67.0812
-66.1633
-65.4321
-65.5462
-65.8944
-65.8306
-65.5193
-64.7826
-64.1978
-63.3369
-62.5134
-62.667
-62.9172
-63.0916
-63.4307
-64.2614
-64.2691
-63.7582
-65.6989
-68.6713
-69.9118
-64.8388
-65.1606
-65.4046
-65.4735
-65.6445
-65.4433
-65.0414
-65.0907
-64.805
-64.2474
-64.0174
-64.0037
-64.3766
-63.9768
-63.9889
-63.9573
-64.2061
-64.5843
-65.1655
-64.7368
-42.544
-42.6997
-42.7304
-42.9751
-43.0111
-42.9695
-43.0834
-43.1329
-43.1157
-43.071
-43.3573
-43.3046
-43.2734
-43.2515
-43.1923
-43.6067
-43.5304
-43.572
-43.5406
-43.5555
-43.5531
-43.9438
-43.9013
-43.8412
-43.8501
-43.8565
-43.9392
-44.0101
-44.2863
-44.2576
-44.247
-44.2472
-44.2882
-44.2331
-44.236
-44.1309
-44.805
-44.738
-44.6655
-44.688
-44.6948
-44.5993
-44.6593
-44.5906
-44.5593
-45.3499
-45.324
-45.2295
-45.1962
-45.2288
-45.1211
-45.2033
-45.1017
-45.0941
-45.1311
-46.1339
-46.076
-45.9696
-45.9358
-45.8184
-45.7955
-45.7405
-45.6007
-45.646
-45.4549
-45.4606
-47.1283
-47.0685
-46.8034
-46.6843
-46.7108
-46.6388
-46.6433
-46.5888
-46.5111
-46.5185
-46.6104
-46.4551
-48.5885
-48.2589
-48.3083
-48.3738
-47.5421
-47.949
-48.0128
-47.8417
-47.8061
-47.6445
-47.4273
-47.3937
-47.1398
-50.6014
-50.37
-50.2756
-50.0913
-50.0005
-49.9088
-49.8061
-49.606
-49.605
-49.3304
-49.0579
-48.9344
-48.6019
-48.4017
-53.612
-53.4573
-53.1968
-53.1927
-52.6507
-52.8588
-52.0996
-51.8211
-51.7416
-51.7362
-51.9815
-51.5713
-51.1046
-50.4657
-50.0566
-57.6467
-57.0384
-56.8019
-55.954
-55.3649
-54.649
-54.4791
-54.6598
-54.3306
-54.3095
-54.8106
-54.7721
-55.1133
-54.9698
-53.2902
-52.3214
-61.2121
-61.9675
-60.6623
-59.8704
-59.1656
-57.6764
-56.7
-56.0681
-57.2752
-57.9548
-58.0747
-58.2163
-59.1912
-59.138
-59.3809
-57.747
-56.672
-65.1637
-64.9494
-64.9807
-63.9814
-62.8063
-61.7274
-59.7488
-58.87
-58.5056
-58.772
-59.5444
-60.2252
-61.3117
-61.942
-61.9064
-63.0769
-62.9812
-58.7764
-65.6947
-65.3712
-65.6954
-65.5704
-64.8022
-63.6059
-62.5405
-61.4924
-61.1604
-60.9401
-61.5658
-62.1471
-62.9071
-63.9986
-63.8018
-63.656
-67.1515
-68.2248
-66.736
-65.1193
-65.3396
-65.4544
-65.798
-65.7106
-65.3484
-64.5742
-63.9915
-63.1965
-62.5166
-62.7505
-63.0232
-63.1621
-63.6735
-64.3873
-64.3641
-63.9564
-66.0159
-69.1458
-70.2772
-64.7407
-64.8359
-65.1381
-65.3837
-65.4316
-65.5981
-65.3747
-65.0066
-65.0548
-64.7631
-64.2366
-64.059
-64.0338
-64.4157
-63.9928
-64.0505
-64.0096
-64.261
-64.6915
-65.2483
-64.7826
-42.4603
-42.5645
-42.559
-42.8081
-42.7294
-42.7631
-42.9458
-43.1165
-43.0487
-42.9458
-43.183
-43.0889
-43.0907
-43.0355
-43.0196
-43.3917
-43.373
-43.3079
-43.3198
-43.2619
-43.1961
-43.6544
-43.6043
-43.5421
-43.5451
-43.5534
-43.5713
-43.539
-43.9896
-43.8894
-43.7676
-43.8535
-43.8972
-43.8735
-44.0074
-43.9664
-44.3965
-44.3538
-44.3212
-44.2987
-44.3075
-44.1919
-44.2341
-44.1796
-44.1088
-44.8831
-44.8438
-44.7373
-44.7398
-44.7013
-44.6462
-44.6604
-44.6124
-44.5114
-44.5723
-45.5732
-45.4251
-45.3736
-45.2493
-45.2007
-45.1987
-45.1862
-45.1104
-45.0475
-45.1177
-45.0643
-46.4033
-46.239
-46.0437
-45.9531
-45.9346
-45.8239
-45.812
-45.7746
-45.5956
-45.6722
-45.5014
-45.4574
-47.3578
-47.2377
-47.0003
-46.9265
-46.7265
-46.7447
-46.7029
-46.5976
-46.6179
-46.4178
-46.5182
-46.5106
-46.3851
-48.6524
-48.5412
-48.3783
-48.2655
-48.0226
-48.1339
-48.0479
-47.8982
-47.8713
-47.7461
-47.7264
-47.4388
-47.3865
-47.0758
-50.9003
-50.6732
-50.3648
-50.2264
-50.01
-50.2323
-49.6238
-49.8697
-49.5641
-49.4416
-49.4035
-49.0378
-48.9288
-48.4244
-48.1928
-53.8076
-53.7811
-53.1845
-53.1522
-53.0392
-52.7965
-52.7034
-52.0279
-51.8615
-51.7919
-51.8858
-51.7633
-51.664
-51.1604
-50.7019
-49.9813
-57.7444
-57.0152
-57.106
-56.4996
-55.5855
-55.0876
-54.5993
-54.4772
-54.5306
-54.4591
-54.7096
-54.9727
-55.3649
-54.9457
-55.5093
-53.5989
-52.4414
-61.1898
-61.0318
-61.5316
-61.3717
-59.4976
-57.9534
-57.1889
-56.5227
-56.694
-57.5537
-58.3043
-58.2938
-58.5585
-59.5617
-60.2426
-59.767
-59.4033
-57.5228
-65.318
-64.8092
-64.7936
-64.7026
-63.7558
-62.3403
-61.2044
-59.4072
-58.6349
-58.5102
-58.9621
-59.8653
-60.414
-61.635
-62.3639
-62.8752
-64.3897
-63.7445
-58.8651
-65.5889
-65.4477
-65.1786
-65.5444
-65.4107
-64.524
-63.2949
-62.2503
-61.4047
-60.9323
-61.0428
-61.7297
-62.3573
-63.1299
-64.2962
-64.1331
-64.0165
-68.1063
-69.2161
-67.187
-64.7523
-65.059
-65.2451
-65.3718
-65.7111
-65.5929
-65.1824
-64.3883
-63.8138
-63.0683
-62.526
-62.8033
-63.1469
-63.1928
-63.9025
-64.5305
-64.4584
-64.168
-66.2686
-69.3759
-70.4385
-64.422
-64.7264
-64.8289
-65.1132
-65.3641
-65.3879
-65.5487
-65.3032
-64.9873
-65.0195
-64.7245
-64.2359
-64.0535
-64.0776
-64.4552
-64.0096
-64.1085
-64.0661
-64.3032
-64.7792
-65.333
-64.8442
-42.3612
-42.4786
-42.4631
-42.5734
-42.5608
-42.574
-42.8558
-42.8497
-42.7369
-42.777
-42.9096
-42.9272
-43.077
-42.9097
-42.8935
-43.1273
-43.1666
-43.0926
-43.0305
-43.0394
-43.0319
-43.4452
-43.4044
-43.3987
-43.3259
-43.2782
-43.2439
-43.1993
-43.7117
-43.6336
-43.5458
-43.5223
-43.5802
-43.5459
-43.5635
-43.5149
-44.0262
-43.9726
-43.943
-43.9052
-43.8706
-43.8785
-43.8873
-43.968
-43.9254
-44.4631
-44.4618
-44.3912
-44.3532
-44.3106
-44.2873
-44.1713
-44.2036
-44.0381
-43.9464
-45.0457
-44.8809
-44.8923
-44.7712
-44.7711
-44.665
-44.6846
-44.6433
-44.4932
-44.5506
-44.5743
-45.6818
-45.5292
-45.4664
-45.3404
-45.2565
-45.239
-45.2105
-45.1437
-45.02
-45.1712
-45.0889
-45.0416
-46.671
-46.2902
-46.2759
-46.0408
-45.9381
-45.8834
-45.8549
-45.7341
-45.7225
-45.7162
-45.6672
-45.5373
-45.4324
-47.4666
-47.3264
-47.2868
-47.0206
-46.8286
-46.8315
-46.7652
-46.7034
-46.6102
-46.514
-46.4104
-46.3687
-46.4481
-46.2316
-48.716
-48.6465
-48.5561
-48.2453
-48.3893
-48.0014
-48.0027
-48.0792
-47.8911
-47.8704
-47.6377
-47.6742
-47.4891
-47.1969
-46.9916
-51.2663
-50.8827
-50.575
-50.3894
-50.2203
-49.6928
-49.6104
-49.4585
-49.668
-49.4751
-49.2884
-49.4344
-48.9739
-48.7702
-48.4726
-48.173
-53.7053
-53.8038
-53.8093
-53.1321
-53.1693
-52.6492
-52.5695
-52.4743
-52.12
-51.9279
-51.8447
-52.0724
-51.551
-51.8325
-51.3736
-50.9783
-49.8993
-57.5475
-57.3782
-57.1549
-57.2464
-56.4628
-55.4283
-55.1916
-54.4915
-54.4193
-54.5573
-54.5383
-54.8976
-55.0857
-56.0208
-55.5718
-55.971
-52.9859
-51.6713
-61.1761
-61.0124
-60.9536
-61.416
-61.0841
-59.7534
-57.7178
-57.0489
-56.3003
-56.6502
-57.6161
-58.4384
-58.6022
-59.0688
-60.2396
-60.9624
-60.3734
-61.6026
-58.5468
-65.4923
-64.9178
-64.4807
-64.6722
-64.3918
-63.9179
-61.9229
-60.5852
-59.5678
-58.5776
-58.7066
-59.2269
-60.2098
-60.7167
-61.9783
-62.7337
-63.3119
-65.4538
-64.7839
-59.0981
-65.5296
-65.4146
-65.1899
-64.9992
-65.4304
-65.242
-64.2776
-62.9963
-62.0295
-61.2967
-60.9216
-61.2126
-61.9588
-62.579
-63.3238
-64.6017
-64.4457
-64.4145
-68.8754
-69.8352
-67.4047
-64.5415
-64.7352
-64.9889
-65.1498
-65.2988
-65.6284
-65.4499
-65.0322
-64.1894
-63.6499
-62.9584
-62.5614
-62.8768
-63.2627
-63.2828
-64.0951
-64.6824
-64.5554
-64.395
-66.4766
-69.4288
-70.3913
-64.9596
-63.6371
-64.4132
-64.7089
-64.8196
-65.0886
-65.3455
-65.3473
-65.4993
-65.232
-64.9687
-64.9918
-64.6866
-64.2242
-64.0438
-64.1238
-64.5001
-64.0307
-64.1663
-64.1072
-64.347
-64.8335
-65.3832
-64.937
-42.3153
-42.3525
-42.3511
-42.4785
-42.4489
-42.473
-42.6094
-42.5348
-42.5699
-42.6215
-42.878
-42.979
-42.9024
-42.7573
-42.7516
-42.9675
-42.8067
-42.9005
-43.0587
-42.9452
-42.9177
-43.2463
-43.137
-43.2246
-43.1002
-43.0128
-43.0523
-43.0303
-43.5084
-43.4443
-43.3465
-43.3173
-43.3007
-43.2751
-43.2275
-43.1805
-43.8011
-43.7109
-43.6259
-43.5852
-43.6553
-43.6272
-43.5468
-43.6203
-43.4837
-44.174
-44.0604
-43.9989
-43.9673
-43.9079
-43.9108
-43.8249
-43.8964
-43.9016
-43.9354
-44.6603
-44.5613
-44.4986
-44.4469
-44.3331
-44.3192
-44.2524
-44.196
-44.1231
-44.0453
-43.9309
-45.3444
-45.1136
-44.9593
-44.8763
-44.7674
-44.7093
-44.6974
-44.6276
-44.5819
-44.5516
-44.5183
-44.4909
-45.8913
-45.6288
-45.6083
-45.4713
-45.3346
-45.2946
-45.2332
-45.158
-45.1476
-45.0707
-45.0568
-45.051
-44.9777
-46.7426
-46.4674
-46.4221
-46.2001
-46.0525
-46.0092
-45.8864
-45.8192
-45.7654
-45.7511
-45.6825
-45.4783
-45.4789
-45.4174
-47.8798
-47.4186
-47.4235
-47.1777
-47.0769
-46.8534
-46.8604
-46.7493
-46.6889
-46.535
-46.4525
-46.4213
-46.3787
-46.2924
-46.1475
-49.1637
-48.4932
-48.7386
-48.4818
-48.5883
-48.344
-48.2768
-48.1735
-48.0298
-47.8374
-47.8684
-47.5821
-47.6517
-47.3934
-47.0772
-46.9108
-51.2023
-51.3025
-50.914
-50.5757
-50.5052
-50.0051
-49.7668
-49.4976
-49.7637
-49.7602
-49.5834
-49.4276
-49.0465
-48.886
-48.897
-48.3678
-48.0299
-53.8963
-53.7745
-53.4167
-52.6152
-53.3158
-53.2315
-52.7707
-52.2672
-51.9402
-52.1344
-52.0065
-52.0385
-51.7823
-51.7977
-51.8977
-51.1503
-51.1182
-50.0273
-57.4046
-57.3207
-56.859
-57.7697
-57.1661
-56.3405
-55.2658
-55.1725
-54.6165
-54.5818
-54.6243
-54.63
-54.8662
-55.3715
-56.2525
-56.2262
-56.2217
-53.1881
-52.0591
-61.3952
-60.9286
-60.8126
-60.9889
-61.1932
-60.9937
-59.2943
-57.9992
-56.9163
-56.4817
-56.8852
-57.7574
-58.2851
-58.8162
-59.5175
-61.3175
-61.6407
-61.6453
-62.7932
-58.1945
-65.6632
-65.1603
-64.5089
-64.1957
-64.4481
-64.2606
-63.4059
-61.4595
-60.4923
-59.4898
-58.5425
-58.9139
-59.6029
-60.4583
-60.9947
-62.3415
-63.0373
-63.3739
-66.0473
-65.5968
-59.899
-64.8268
-65.4018
-65.2355
-64.9465
-64.8684
-65.2715
-65.0866
-64.0046
-62.7389
-61.8979
-61.225
-60.9288
-61.3821
-62.175
-62.7988
-63.563
-64.902
-64.7706
-64.7804
-69.3856
-70.1495
-67.4282
-69.5172
-63.873
-64.5353
-64.7103
-64.9147
-65.0605
-65.2413
-65.5461
-65.2921
-64.8654
-64.037
-63.5078
-62.8699
-62.6416
-62.9735
-63.3625
-63.3945
-64.324
-64.8373
-64.6704
-64.6099
-66.6061
-69.3595
-70.2115
-65.4337
-64.969
-63.1998
-63.6258
-64.3877
-64.6886
-64.8086
-65.0649
-65.3285
-65.3081
-65.4394
-65.1573
-64.946
-64.9629
-64.6511
-64.2167
-64.0908
-64.1618
-64.5382
-64.0542
-64.2151
-64.1485
-64.3964
-64.8763
-65.4108
-42.1896
-42.3263
-42.3067
-42.3662
-42.3436
-42.3602
-42.5748
-42.4948
-42.4681
-42.4946
-42.6395
-42.5772
-42.5535
-42.6172
-42.6162
-42.7784
-42.8656
-42.8918
-42.8434
-42.7628
-42.6943
-43.0084
-43.0223
-42.9328
-43.0528
-43.0324
-42.9365
-42.8886
-43.165
-43.2346
-43.1404
-43.2435
-43.1325
-43.0082
-43.0601
-43.0209
-43.5708
-43.5315
-43.3679
-43.3905
-43.3322
-43.2933
-43.2546
-43.1745
-43.1733
-43.9049
-43.7802
-43.6751
-43.6845
-43.5951
-43.6118
-43.6497
-43.5471
-43.5381
-43.3955
-44.3477
-44.0921
-44.0952
-44.0913
-43.9672
-43.9179
-43.9073
-43.8896
-43.8379
-43.6961
-43.8865
-44.7835
-44.6662
-44.5682
-44.4692
-44.4139
-44.2951
-44.2593
-44.2239
-44.1733
-44.1144
-44.1176
-43.9025
-45.3627
-45.2527
-45.0682
-44.9353
-44.8869
-44.726
-44.7053
-44.7146
-44.5519
-44.4717
-44.5743
-44.4611
-44.4318
-46.0719
-45.8674
-45.709
-45.5707
-45.4296
-45.3732
-45.2988
-45.2444
-45.1296
-45.1406
-45.1511
-44.9891
-45.0155
-44.952
-47.2738
-46.5962
-46.5538
-46.3776
-46.1543
-46.0122
-46.007
-45.8864
-45.8616
-45.7608
-45.6707
-45.5723
-45.529
-45.4778
-45.298
-48.2733
-47.8066
-47.4292
-47.3792
-47.3005
-47.0764
-46.8336
-46.845
-46.6097
-46.5696
-46.6453
-46.4544
-46.385
-46.3144
-46.2063
-46.1251
-49.3117
-49.1582
-49.0329
-48.807
-48.5429
-48.6196
-48.5284
-48.3404
-48.22
-47.9757
-47.9529
-47.7526
-47.5905
-47.5925
-47.2184
-47.0562
-46.936
-51.6054
-51.4959
-51.4596
-50.8209
-50.6013
-50.3848
-50.1496
-50.2087
-50.4287
-50.1251
-49.8551
-49.5016
-49.3974
-49.1392
-48.9146
-48.9531
-48.3767
-48.0415
-54.1769
-53.9142
-53.6518
-53.6793
-53.2129
-52.8496
-53.0767
-53.0007
-52.367
-52.047
-51.9993
-52.0336
-52.15
-51.9765
-51.8198
-51.8971
-51.2467
-51.382
-49.883
-57.7255
-57.4888
-57.208
-56.821
-57.2571
-56.9229
-55.9909
-55.4498
-54.5786
-54.6139
-54.718
-54.6088
-54.7532
-55.2837
-55.8353
-57.0574
-56.3892
-57.2568
-53.9015
-52.8154
-61.4727
-61.1066
-60.6246
-60.6677
-60.8906
-61.1751
-60.7118
-59.0815
-58.2508
-57.259
-56.4149
-57.0749
-58.0175
-58.3288
-59.0382
-60.0027
-61.8273
-62.6764
-62.4247
-63.0494
-57.7316
-64.9415
-65.3184
-64.7759
-64.1029
-63.9312
-64.1716
-64.1543
-62.9243
-61.1029
-60.0425
-59.3038
-58.5809
-59.1829
-59.9278
-60.7526
-61.3265
-62.7122
-63.4395
-64.7435
-66.8517
-65.8162
-60.466
-67.0456
-63.6169
-64.7992
-65.2792
-65.021
-64.7455
-64.7976
-65.0988
-64.9207
-63.8201
-62.4985
-61.7518
-61.1356
-61.0003
-61.612
-62.4449
-62.9677
-63.8202
-65.1985
-65.0987
-65.1213
-69.4259
-70.1407
-67.4623
-68.6153
-69.8918
-63.2686
-63.8978
-64.4995
-64.6733
-64.8494
-64.9783
-65.1995
-65.4622
-65.1535
-64.6497
-63.8705
-63.3852
-62.7974
-62.6873
-63.0511
-63.4797
-63.4966
-64.5398
-65.0003
-64.8013
-64.7836
-66.6632
-69.1788
-64.9834
-65.4282
-62.691
-63.2044
-63.6267
-64.3626
-64.6666
-64.796
-65.0425
-65.3138
-65.2703
-65.3771
-65.0813
-64.9188
-64.935
-64.6195
-64.2273
-64.1601
-64.2001
-64.5606
-64.0914
-64.2556
-64.1571
-64.4304
-64.9127
-42.1847
-42.1973
-42.3061
-42.3014
-42.3128
-42.3065
-42.3766
-42.3756
-42.3888
-42.5429
-42.5435
-42.5254
-42.5172
-42.4735
-42.6571
-42.6903
-42.6246
-42.6015
-42.6772
-42.593
-42.8761
-42.8245
-42.865
-42.8637
-42.7815
-42.6743
-42.7214
-43.0445
-43.0374
-42.9751
-42.9133
-42.9751
-43.0124
-42.899
-42.8361
-43.3092
-43.3037
-43.1853
-43.1256
-43.0756
-43.1073
-43.0372
-43.0341
-43.0058
-43.6442
-43.5929
-43.4087
-43.4475
-43.3735
-43.3783
-43.2611
-43.207
-43.1611
-43.0885
-44.0129
-43.8743
-43.8205
-43.7355
-43.7213
-43.6081
-43.5928
-43.5782
-43.498
-43.3887
-43.4058
-44.2516
-44.226
-44.0886
-44.0969
-44.1019
-43.8957
-43.9005
-43.8147
-43.8579
-43.795
-43.8327
-43.7719
-44.895
-44.7827
-44.6922
-44.5394
-44.491
-44.3184
-44.2805
-44.2554
-44.2003
-44.1101
-44.1381
-44.027
-43.8447
-45.5882
-45.4093
-45.2391
-45.0712
-44.9526
-44.8805
-44.7466
-44.7272
-44.5913
-44.5977
-44.5498
-44.5053
-44.3754
-44.3576
-46.2933
-46.012
-45.8457
-45.7228
-45.5487
-45.4298
-45.3675
-45.2708
-45.2117
-45.1781
-45.1182
-44.9528
-44.9758
-44.9351
-44.9219
-47.2207
-47.1993
-46.5462
-46.5457
-46.3467
-46.2481
-46.0638
-46.0343
-45.8815
-45.8483
-45.7719
-45.6271
-45.649
-45.4376
-45.3388
-45.2814
-48.308
-48.2672
-47.8136
-47.5926
-47.3507
-47.306
-47.0583
-46.9042
-46.7096
-46.8564
-46.6572
-46.6799
-46.4205
-46.2719
-46.3679
-46.2854
-46.1674
-49.5342
-49.3704
-49.2267
-49.0113
-48.6475
-48.6377
-48.555
-48.6606
-48.3853
-48.2796
-47.8978
-47.8933
-47.6957
-47.5486
-47.4238
-47.1854
-46.7763
-47.019
-51.843
-51.6083
-51.9744
-50.7226
-50.7984
-50.5255
-50.254
-50.3083
-50.3259
-50.1379
-49.7549
-49.6211
-49.5172
-49.2618
-49.1756
-48.8687
-48.8548
-48.7251
-48.0103
-54.252
-54.1108
-53.8307
-53.8469
-53.5314
-53.1942
-52.8772
-52.7406
-52.6174
-52.3961
-52.0696
-52.1546
-52.2243
-52.1819
-52.1338
-51.2043
-51.8322
-51.035
-51.763
-49.7746
-58.0364
-57.36
-57.4314
-57.3301
-57.599
-57.1135
-57.0176
-56.0548
-55.2707
-54.8194
-54.6778
-54.8388
-54.7226
-55.0665
-55.6188
-56.0898
-57.6644
-56.2583
-58.1083
-54.4435
-53.567
-61.2641
-61.1969
-60.7527
-60.4542
-60.5121
-60.7597
-61.0898
-60.3756
-59.2139
-58.0273
-57.0903
-56.5262
-57.3038
-58.3182
-58.5139
-59.4052
-60.3916
-62.1782
-63.3026
-62.9167
-62.4388
-57.7079
-61.6243
-63.728
-64.6858
-65.0073
-64.3385
-63.7765
-63.6836
-64.0193
-63.9063
-62.5054
-61.0329
-59.7899
-59.1369
-58.711
-59.4595
-60.2226
-61.2157
-61.7391
-63.0972
-63.5583
-65.1793
-67.1733
-65.5451
-61.098
-69.0276
-67.4909
-63.5076
-63.5163
-64.7476
-65.1095
-64.8378
-64.5578
-64.7117
-64.9563
-64.7351
-63.4159
-62.2549
-61.6095
-61.0933
-61.1233
-61.8536
-62.6765
-63.2081
-64.0786
-65.4751
-65.4007
-65.3555
-69.4026
-69.9068
-66.5914
-68.9368
-62.8988
-63.2742
-63.8919
-64.437
-64.6185
-64.799
-64.9059
-65.1707
-65.3709
-65.028
-64.4372
-63.6811
-63.2758
-62.7481
-62.7329
-63.1752
-63.5983
-63.5925
-64.7291
-65.1672
-64.9454
-64.9323
-66.6829
-64.6041
-64.9456
-62.6937
-62.1488
-63.2044
-63.6319
-64.3374
-64.6443
-64.7825
-65.0186
-65.3003
-65.2343
-65.3289
-65.0184
-64.8834
-64.91
-64.5924
-64.2392
-64.2347
-64.2487
-64.5701
-64.144
-64.2953
-64.1522
-64.4777
-42.1767
-42.1912
-42.1902
-42.3177
-42.3279
-42.3064
-42.3034
-42.4464
-42.4512
-42.3885
-42.3707
-42.3775
-42.5055
-42.5755