/*--------------------------------*- C++ -*----------------------------------*\
  =========                 |
  \\      /  F ield         | OpenFOAM: The Open Source CFD Toolbox
   \\    /   O peration     | Website:  https://openfoam.org
    \\  /    A nd           | Version:  7
     \\/     M anipulation  |
\*---------------------------------------------------------------------------*/
FoamFile
{
    version     2.0;
    format      ascii;
    class       surfaceScalarField;
    location    "7";
    object      phi;
}
// * * * * * * * * * * * * * * * * * * * * * * * * * * * * * * * * * * * * * //

dimensions      [0 3 -1 0 0 0 0];

internalField   nonuniform List<scalar> 
54125
(
-5.18808e-05
-2.02357e-05
-0.00098693
0.000295686
-5.90276e-05
-0.00190798
-3.12347e-05
-2.65552e-05
-0.00153782
-5.26591e-05
-2.04166e-05
-0.000913854
0.000626331
0.000282492
-0.00590599
0.000162782
0.00011312
-0.00430993
0.000284819
-1.5304e-05
-0.00223015
-9.64814e-05
-1.98607e-05
-0.00209569
-3.99053e-05
-2.73199e-05
-0.00149101
-3.96508e-05
-2.04894e-05
-0.000853714
0.00075425
0.000255841
-0.00760898
0.000309372
0.000322356
-0.00671558
0.000532686
0.000322932
-0.00647679
5.19073e-05
8.62663e-05
-0.00145592
0.000110391
0.000113584
-0.00458911
0.000272534
6.97245e-05
-0.00261206
-0.000110825
-3.21107e-05
-0.000361811
-0.000108395
-2.14162e-05
-0.0019932
-4.9239e-05
-2.95754e-05
-0.00143269
-3.80818e-05
-2.06922e-05
-0.00079494
0.000643027
0.00015423
-0.00514572
0.000356066
0.000364459
-0.00794906
0.000594571
7.85891e-05
-0.00774945
0.000592912
-0.000108521
-0.00442618
0.000204918
0.000394678
-0.00688186
0.000359271
0.000361985
-0.00692551
-0.000144053
-4.90366e-06
-0.000512196
7.35802e-05
6.01251e-05
-0.00158444
6.7708e-05
0.000102327
-0.00473866
0.00023556
0.000134678
-0.00302038
-8.66544e-05
-4.5496e-05
-0.000365751
-0.000112672
-3.0768e-05
-0.000239787
-0.000120347
-2.3995e-05
-0.00187843
-5.39633e-05
-3.27093e-05
-0.00136671
-4.48226e-05
-2.0799e-05
-0.000729318
-0.000113994
0.000589566
-0.00381196
0.000346181
0.00015958
-0.00710409
0.000623108
0.000173788
-0.00534804
0.000960327
0.000301893
-0.00563091
-4.99509e-05
0.000355319
-0.00797093
0.000318343
4.30208e-05
-0.00775155
0.000233722
-0.000397618
-0.00348728
0.000546487
1.2167e-05
-0.00451658
9.40561e-05
0.000432485
-0.0069787
0.000177346
0.00035274
-0.00722004
-9.27838e-05
6.40776e-06
-0.00147422
-0.000149879
-2.98421e-05
-0.000385022
6.9837e-05
3.16466e-05
-0.00170394
3.37944e-05
9.78776e-05
-0.00478962
0.000174364
0.000189166
-0.00342873
-4.8896e-05
-5.94676e-05
-0.00109066
-8.29664e-05
-4.24161e-05
-0.000271137
-0.000112855
-2.97915e-05
-0.000121136
-0.000128952
-2.75286e-05
-0.00175466
-6.16734e-05
-3.44522e-05
-0.00129138
-5.9819e-05
-2.08243e-05
-0.000648675
-0.000924784
0.000686249
-0.00439054
-3.67497e-05
0.000596883
-0.0052657
0.0002271
0.000541705
-0.00395766
0.000624064
0.000576868
-0.00673213
-0.00021626
0.000301481
-0.00706547
0.000332576
0.000154922
-0.0055172
0.00077284
4.14316e-05
-0.00377951
0.000542807
0.000534618
-0.00580653
-0.000408602
0.000368637
-0.00779388
6.23065e-05
-7.38501e-06
-0.00762912
-1.56038e-05
-0.000317825
-0.00291943
0.000279802
-0.000364296
-0.00354049
0.000491346
0.000100725
-0.00460633
-3.05482e-05
0.000468742
-0.00703036
2.10904e-05
0.000331478
-0.00739824
-0.000128747
-6.52158e-05
-0.00188867
-9.68944e-05
-2.36178e-05
-0.00146652
-0.000129128
-4.30646e-05
-0.000294037
4.93931e-05
9.15361e-06
-0.00179356
-1.23602e-05
0.00010413
-0.00475389
7.56727e-05
0.000224178
-0.0037884
-2.21427e-05
-6.04408e-05
-0.00177924
-4.85351e-05
-5.83436e-05
-0.00102619
-8.20144e-05
-3.96741e-05
-0.00017924
-0.000112156
-3.03165e-05
-6.19234e-06
-0.000134319
-2.94579e-05
-0.00162534
-6.85284e-05
-3.87127e-05
-0.00120496
-8.57527e-05
-2.02684e-05
-0.000542654
-0.0014181
0.000480999
-0.00398545
-0.000430429
0.000916347
-0.00537795
-0.000604898
0.000573647
-0.00413219
5.21103e-06
0.000825812
-0.00651222
-0.000551558
0.000641537
-0.00503023
2.87175e-05
0.000482767
-0.00413657
0.000593149
0.000791867
-0.00656028
7.18933e-05
0.000715559
-0.00667529
-0.000580806
0.000390989
-0.00712934
0.000145047
0.000115691
-0.00571563
0.000227598
-0.000241489
-0.00399011
0.000778631
0.000217756
-0.00396147
0.000167268
0.000762974
-0.00587678
-0.000573419
0.000260048
-0.00751845
-0.000256798
9.99176e-05
-0.00745115
-0.000140657
-0.000256134
-0.00276181
-3.55309e-05
-0.00033607
-0.00300902
0.000293954
-0.000310742
-0.00355211
0.00047601
0.0001819
-0.0047461
-0.000102735
0.000494301
-0.00710281
-0.000175731
0.000339221
-0.00748606
-7.61857e-06
-7.96861e-05
-0.0025243
-0.000117638
-8.81564e-05
-0.00175503
-0.000127336
-4.17035e-05
-0.00142256
-0.000108275
-5.982e-05
-0.000228945
1.64759e-05
-2.03673e-06
-0.00183819
-7.30973e-05
0.000121216
-0.00464636
-7.92325e-05
0.000238009
-0.00403293
1.33512e-05
-6.325e-05
-0.00205737
-3.42201e-05
-6.03688e-05
-0.001743
-5.35972e-05
-5.68674e-05
-0.000955403
-7.73552e-05
-3.88122e-05
-9.33887e-05
-0.000111426
-3.08677e-05
0.000106643
-0.000136169
-3.34027e-05
-0.00149448
-7.76843e-05
-3.65828e-05
-0.00111096
-0.000108504
-1.95772e-05
-0.000414573
-0.001398
-5.36268e-06
-0.00336845
-0.000611099
0.000509656
-0.00441179
-0.00142149
0.000489202
-0.00365806
-0.000231507
0.000790148
-0.00532066
-0.000822968
0.000641329
-0.00517422
-0.000699978
0.000586024
-0.00398952
0.000240264
0.00111439
-0.00714551
-0.000340386
0.000839073
-0.00629748
-0.000576383
0.000584724
-0.00513661
-1.30522e-05
0.000362916
-0.00434138
0.000498128
0.000800851
-0.00680267
0.000483412
0.00101628
-0.00656578
-0.00042329
0.000936351
-0.0066301
-0.000856159
0.000272825
-0.00700373
-0.000148294
-2.27059e-05
-0.00580143
0.000209049
-0.00033812
-0.00485881
8.39954e-05
-9.80029e-05
-0.00379388
0.000545228
0.000602391
-0.00405216
0.000166659
0.000744463
-0.00605185
-0.000607256
0.000434536
-0.00734854
-0.00052719
9.1101e-05
-0.00719079
2.61173e-05
-0.000164072
-0.00314465
-9.66727e-05
-0.000280664
-0.00283818
1.54548e-05
-0.000320499
-0.00314206
0.000296879
-0.000255884
-0.00351948
0.000369641
0.000252964
-0.00485793
-0.000229093
0.000505631
-0.00711323
-0.000459951
0.000310961
-0.0074163
7.50356e-05
-9.05815e-05
-0.00348737
-2.90075e-05
-7.95629e-05
-0.00253811
-8.26911e-05
-9.57938e-05
-0.00167185
-0.000132764
-6.15394e-05
-0.00136543
-9.40559e-05
-6.5399e-05
-0.000182953
-2.27473e-05
1.61966e-06
-0.00183202
-0.000148081
0.000136886
-0.00447484
-0.000207803
0.000242226
-0.00417586
1.98051e-05
-6.98402e-05
-0.00208562
4.56374e-06
-6.15921e-05
-0.00206071
-4.17254e-05
-6.09197e-05
-0.00169722
-5.70586e-05
-5.62536e-05
-0.000880903
-7.57672e-05
-3.8804e-05
-9.68519e-06
-0.000110656
-3.13513e-05
0.000215247
-0.000141427
-3.12419e-05
-0.00135839
-8.69148e-05
-3.34433e-05
-0.00101018
-0.000120212
-1.89855e-05
-0.000275375
-0.0012632
-6.74645e-05
-0.00361698
-0.0005966
0.000113219
-0.00432895
-0.00135104
2.13119e-06
-0.00344104
-0.000169453
0.00040714
-0.00513473
-0.000570321
0.000462003
-0.00463724
-0.0013954
0.000530293
-0.00349293
-0.000214941
0.000955744
-0.00628583
-0.000218856
0.000701755
-0.00550261
-0.000896242
0.000557083
-0.00482542
-0.000634864
0.000630367
-0.00399807
0.000472269
0.00118873
-0.00695953
1.54132e-06
0.00116971
-0.00699427
-0.000605353
0.000759365
-0.00629006
-0.000727405
0.000431071
-0.00533352
-0.000120625
0.000293212
-0.00466227
0.000777546
0.000540472
-0.00566801
0.000257586
0.00103357
-0.00699356
4.47498e-05
0.00117703
-0.00630598
-0.000483257
0.000758966
-0.00646632
-0.00119228
0.000210889
-0.0066523
-0.000454987
-4.52463e-05
-0.00582838
9.02683e-05
-0.000168663
-0.00435981
0.000238165
-0.000284032
-0.00500761
0.00020063
0.0002657
-0.00364236
0.000383898
0.00086601
-0.00426073
-8.4837e-06
0.000755891
-0.00599508
-0.000762541
0.000465879
-0.00718987
-0.000761695
-7.67922e-05
-0.00681226
0.000214742
-0.000146245
-0.00355683
1.82852e-06
-0.000170035
-0.00328611
-2.94759e-05
-0.000282493
-0.0029294
0.000121442
-0.000312921
-0.00333923
0.000276783
-0.000171629
-0.00346572
0.000232604
0.000299304
-0.00490696
-0.000423407
0.000503806
-0.00703075
-0.000519891
0.000283997
-0.00738821
0.000114437
-0.000144089
-0.00297045
3.42797e-05
-7.82007e-05
-0.00351844
-3.9356e-05
-7.6215e-05
-0.00256006
-6.09911e-05
-0.000100058
-0.0016294
-0.00015152
-7.41483e-05
-0.00128093
-8.84408e-05
-6.29253e-05
-0.000140622
-5.39221e-05
1.49463e-05
-0.00179758
-0.000230998
0.000152071
-0.00424061
-0.000251535
0.000241353
-0.00428589
6.35736e-05
-7.71266e-05
-0.00157264
1.20809e-05
-6.96622e-05
-0.00208964
-5.11771e-06
-6.07221e-05
-0.00205579
-4.69228e-05
-6.12971e-05
-0.00164525
-6.21003e-05
-5.56521e-05
-0.000801954
-7.36495e-05
-3.88042e-05
7.14172e-05
-0.000109899
-3.13301e-05
0.000325234
-0.000147595
-2.79467e-05
-0.00121629
-9.75767e-05
-3.24758e-05
-0.000899116
-0.000129278
-1.86971e-05
-0.0001274
-0.0013486
4.32563e-05
-0.00315477
-0.000573992
-3.06873e-05
-0.00449217
-0.00128671
-0.000124658
-0.00355666
-0.000199971
0.000205316
-0.00505359
-0.000569692
0.000102755
-0.0044302
-0.00135271
2.26957e-05
-0.00350641
-0.000343354
0.000563714
-0.00559371
-6.98702e-05
0.000319901
-0.00514162
-0.000547924
0.000345335
-0.0048006
-0.00132518
0.000570798
-0.00337341
0.000747447
0.00131393
-0.00663937
-0.0001269
0.000691847
-0.00614748
-0.000349398
0.000531524
-0.00573301
-0.000824655
0.000623025
-0.00472083
-0.000660112
0.000417161
-0.00387575
0.000907573
0.00127364
-0.00656682
0.000453646
0.00116328
-0.00714916
-0.000168316
0.00112182
-0.00714367
-0.000554345
0.000637721
-0.00642562
-0.00125694
0.000362635
-0.00533828
-0.000474786
0.000265866
-0.00490833
0.000402177
0.000356115
-0.00470331
0.000752382
0.000751743
-0.0059004
0.000119808
0.00108794
-0.00682365
-0.00012171
0.00115028
-0.00619169
-0.000550031
0.000584134
-0.00629802
-0.00132495
0.000212421
-0.00634756
-0.000658717
1.33657e-05
-0.00594473
0.000172039
-0.000172354
-0.00387739
0.000164401
-0.000198043
-0.00460837
0.000194616
-7.52231e-05
-0.00489078
0.000386611
0.000506776
-0.0035483
0.000480336
0.000879934
-0.00458832
-0.000214754
0.000729381
-0.00581122
-0.000993456
0.000331317
-0.00702793
-0.000766219
5.39372e-05
-0.00661987
0.000317317
-0.000328335
-0.00328999
0.000136765
-0.000126857
-0.0037025
-5.1359e-05
-0.000202202
-0.0033544
2.0177e-05
-0.000288447
-0.00303504
0.000142555
-0.000254797
-0.00355013
0.000272305
-7.87491e-05
-0.00344842
0.000106884
0.000379507
-0.00494346
-0.000539705
0.000511718
-0.00694976
-0.00059811
0.000244935
-0.00728657
0.000138092
-0.000196726
-0.00309511
8.65076e-05
-0.000138886
-0.00298419
-3.85106e-06
-7.39428e-05
-0.00352198
-6.13489e-05
-7.66881e-05
-0.002569
-0.000120644
-0.000106067
-0.00153893
-0.000158982
-7.84676e-05
-0.00118005
-5.57939e-05
-5.30147e-05
-0.000126766
-7.71624e-05
3.31483e-05
-0.00174909
-0.000243046
0.000171211
-0.004025
-0.00033934
0.000229335
-0.00430516
0.000108134
-9.82363e-05
-0.00160787
5.69229e-05
-7.59914e-05
-0.00162324
6.34333e-07
-6.83512e-05
-0.00208264
-1.30582e-05
-6.06632e-05
-0.00204337
-5.4269e-05
-6.14479e-05
-0.00158519
-6.54632e-05
-5.55456e-05
-0.00071975
-7.29852e-05
-3.91885e-05
0.000152261
-0.000108991
-3.07276e-05
0.000437006
-0.000149251
-2.62814e-05
-0.00107324
-0.000109052
-3.17376e-05
-0.000777024
-0.000137295
-1.86735e-05
2.85689e-05
-0.00179359
0.000233658
-0.00258135
-0.000853022
0.000138074
-0.00378073
-0.00142681
1.81552e-05
-0.00303283
-0.000623186
0.00017886
-0.00445107
-0.000621906
-9.32955e-05
-0.00447132
-0.0012342
-0.000148562
-0.0035266
-0.000123606
0.00026663
-0.00527944
-0.00020754
0.000208756
-0.00502192
-0.000551058
0.000171814
-0.00457619
-0.00130746
5.8263e-06
-0.00352996
0.000541932
0.000805042
-0.00589319
8.32625e-05
0.000220186
-0.00570416
-0.000126675
0.000225197
-0.0052442
-0.000631704
0.000228401
-0.00465115
-0.00122162
0.000447928
-0.00325983
0.000782105
0.00158627
-0.00584741
-2.32245e-05
0.00100067
-0.00647132
-0.000174101
0.000603421
-0.00621359
-0.000200668
0.000426894
-0.00589055
-0.0010738
0.000359327
-0.00484613
-0.000876679
0.000332828
-0.00380668
0.00063976
0.001168
-0.00528108
0.000678962
0.00120094
-0.00653106
0.000144979
0.00112547
-0.00717797
-0.000336853
0.000992903
-0.00728371
-0.000698438
0.000524297
-0.00643887
-0.00130034
0.000321183
-0.00541821
-0.000780189
0.000269139
-0.005056
0.000171546
0.00033989
-0.00457891
0.00039045
0.000421057
-0.00459867
0.000645732
0.000964071
-0.00622764
0.00012565
0.00107249
-0.0064849
0.000190995
0.000957067
-0.00627528
-0.000752257
0.000622382
-0.00617048
-0.00147805
0.000285999
-0.0061356
-0.000878449
8.39021e-06
-0.00584089
0.000371153
-0.000222312
-0.0045418
0.000294193
-2.30885e-05
-0.00420977
9.72807e-05
-0.000144045
-0.00468819
0.000217567
5.1144e-05
-0.00463254
0.000470439
0.000759053
-0.0037553
0.000286879
0.000806146
-0.00467966
-0.000285207
0.000721415
-0.00580923
-0.00102578
0.000378205
-0.00686613
-0.000950674
6.54303e-05
-0.00633273
0.00028448
-0.000377511
-0.0035159
0.000294974
-0.00027939
-0.00334592
4.1614e-05
-0.00012091
-0.00382925
-0.000119087
-0.000198182
-0.00338693
4.99159e-05
-0.000270286
-0.00319011
0.000119888
-0.000197431
-0.00371032
0.000274779
6.67794e-05
-0.00346626
-2.85894e-06
0.000433554
-0.0049396
-0.000545538
0.000483352
-0.00688568
-0.000718776
0.000317485
-0.00722462
0.000298482
-0.000300016
-0.00279825
0.00013591
-0.000174724
-0.00313825
7.45503e-05
-0.000116057
-0.00301599
-2.00375e-05
-7.22879e-05
-0.0035194
-8.49026e-05
-7.97974e-05
-0.00256464
-0.000131293
-0.000108592
-0.00144298
-0.000165516
-8.19737e-05
-0.00105856
-4.36241e-05
-4.06071e-05
-0.000118378
-0.000229213
5.83752e-05
-0.00155629
-0.000320084
0.000171021
-0.00375565
-0.000410909
0.00021717
-0.00424872
9.7584e-05
-0.000119843
-0.000973688
0.000100081
-9.64764e-05
-0.00168747
6.20624e-05
-7.50864e-05
-0.00167857
-8.28345e-06
-6.66091e-05
-0.00206841
-2.24221e-05
-6.00761e-05
-0.00202232
-5.88021e-05
-6.1908e-05
-0.00152002
-6.84363e-05
-5.61863e-05
-0.000634316
-7.25605e-05
-3.88374e-05
0.000232931
-0.000107416
-2.97121e-05
0.000547853
-0.000150189
-2.40751e-05
-0.000930711
-0.000115746
-3.43007e-05
-0.00064565
-0.000142427
-1.89591e-05
0.000189955
-0.00175542
0.00014993
-0.00223535
-0.00106568
0.000353882
-0.00317721
-0.00154209
0.000127395
-0.00259347
-0.000865676
0.000279467
-0.00393114
-0.000874859
0.000121072
-0.00363069
-0.00125994
-2.11511e-05
-0.00298594
-0.000365671
0.000359807
-0.00457459
-0.000596953
0.000125962
-0.00428091
-0.000730023
-8.18463e-05
-0.00435907
-0.00117206
-0.000152773
-0.00350923
-0.000141686
0.000495344
-0.00510047
-0.000167024
0.000296876
-0.00511727
-0.000232757
0.000190853
-0.00493488
-0.000695456
0.000166293
-0.0046729
-0.00135062
0.000178927
-0.00357989
0.000297401
0.00109258
-0.00582183
-0.000531897
0.000623242
-0.00578757
-0.000179792
0.000224742
-0.00569801
-0.000194046
0.000145194
-0.00516761
-0.000807314
0.000183746
-0.00465346
-0.00118523
0.000395104
-0.00334639
0.000573532
0.00162586
-0.00568905
0.000439024
0.00148987
-0.00609667
8.28611e-05
0.000934616
-0.0067404
-0.000257645
0.000500898
-0.00636681
-0.000496251
0.000251812
-0.00598523
-0.00111494
0.000283789
-0.0049825
-0.00105104
0.000272058
-0.00380789
0.000596767
0.000989459
-0.00500361
0.000761328
0.00124847
-0.00569948
0.000673963
0.00114731
-0.00658114
0.000156783
0.00105171
-0.00726791
-0.000271729
0.000805474
-0.00710216
-0.000856096
0.000552441
-0.00656629
-0.00145376
0.000300596
-0.00547395
-0.000994879
0.000272121
-0.00521169
0.000335875
0.000346963
-0.00525698
0.000196192
0.000337698
-0.00439755
0.000489094
0.000721971
-0.00474838
0.000532741
0.000990349
-0.00646067
0.000168753
0.00111907
-0.00634522
-0.000137812
0.000978803
-0.00620701
-0.000598983
0.000528863
-0.00609957
-0.00150642
0.000267335
-0.0059139
-0.0010698
-2.28958e-05
-0.00569887
0.000409846
-0.000281384
-0.00510933
0.000401104
-1.43886e-06
-0.00466958
3.13102e-05
-4.79393e-05
-0.00429557
5.84914e-05
-3.4777e-05
-0.00477985
0.000315082
0.000373016
-0.00451167
0.000431568
0.000814934
-0.00407577
0.000322339
0.000801786
-0.00480759
-0.000432174
0.000675273
-0.00567699
-0.00107266
0.000305542
-0.00657911
-0.00105405
5.77154e-05
-0.00605517
0.000446686
-0.000352543
-0.00327074
0.000328899
-0.000354399
-0.00363388
0.000216278
-0.000204049
-0.00340451
-5.18523e-05
-0.000123216
-0.0038724
-7.79308e-05
-0.00017529
-0.00348889
0.00010129
-0.000244398
-0.00337573
9.55931e-05
-0.000131276
-0.00377337
0.000209912
0.000126005
-0.00341225
-0.000396347
0.000508343
-0.00479746
-0.000697578
0.00046374
-0.00665444
-0.000810129
0.000285765
-0.00711116
0.00030583
-0.000351914
-0.00254184
0.000255193
-0.000270074
-0.00285801
0.000147234
-0.000148375
-0.00319111
4.46857e-05
-0.000110576
-0.00303067
-5.16157e-05
-7.22913e-05
-0.00349772
-0.000105146
-8.46423e-05
-0.00254224
-0.000136184
-0.000113917
-0.00134329
-0.000157713
-8.26532e-05
-0.000931366
-5.55927e-05
-2.99693e-05
-8.18568e-05
-0.000158474
6.84923e-05
-0.00144548
-0.00034468
0.000177736
-0.00348728
-0.000471384
0.000217594
-0.00413735
0.000109979
-0.000106381
-0.000609337
9.82742e-05
-0.000121129
-0.00104731
8.67478e-05
-9.52353e-05
-0.00175407
6.00438e-05
-7.27327e-05
-0.00173249
-1.69854e-05
-6.62213e-05
-0.00204528
-2.98728e-05
-6.06824e-05
-0.00199367
-6.53282e-05
-6.22572e-05
-0.00144862
-7.11106e-05
-5.68374e-05
-0.000545205
-6.97447e-05
-3.8548e-05
0.000311512
-0.000104739
-2.77316e-05
0.000656249
-0.000149273
-2.55544e-05
-0.000790184
-0.000117995
-3.56587e-05
-0.000510956
-0.00014427
-1.93773e-05
0.000353602
-0.00162611
-0.000129475
-0.00278954
-0.00116162
0.000150012
-0.00324216
-0.00145095
0.000167868
-0.00249435
-0.000983387
0.00037899
-0.00339544
-0.00122081
0.000316683
-0.00302055
-0.00147169
0.000184036
-0.00256575
-0.000551052
0.000420535
-0.00411266
-0.000836597
0.000361453
-0.00393188
-0.000940334
9.13247e-05
-0.00353286
-0.00129237
-6.55388e-05
-0.00280009
-0.000367759
0.000395126
-0.00463828
-0.000520803
0.000381298
-0.00447614
-0.00047824
0.000134051
-0.00425133
-0.000906771
-4.61901e-05
-0.00425434
-0.00131039
-0.000139884
-0.00340959
-8.84191e-05
0.000743905
-0.00559464
-0.000290272
0.000304568
-0.00534978
-0.000255632
0.00025371
-0.00510429
-0.000248385
0.000116125
-0.00483037
-0.000908866
0.000164871
-0.00455729
-0.00141579
0.000260457
-0.00360979
0.000580571
0.00114961
-0.00623388
0.000108018
0.000958343
-0.00582592
-0.000155559
0.000621798
-0.00594621
-0.000407504
0.000154113
-0.00555707
-0.000394549
0.00018138
-0.00526695
-0.000888968
0.000140793
-0.00462512
-0.00122138
0.000345965
-0.00352202
0.000496773
0.00166703
-0.00599784
0.000666533
0.0016514
-0.00575579
0.000588629
0.00129633
-0.00637305
-6.80046e-05
0.000686864
-0.00670158
-0.000384726
0.000416437
-0.00641843
-0.00080518
0.000255055
-0.00600741
-0.00125528
0.000170078
-0.005079
-0.00117616
0.000272519
-0.00389912
0.000414382
0.00103716
-0.00504477
0.000230368
0.00118808
-0.0049774
0.000500809
0.00134424
-0.00590813
0.000441288
0.00114452
-0.0065825
8.93508e-06
0.00104553
-0.00734814
-0.000463512
0.000801466
-0.00702548
-0.000758714
0.000520316
-0.00662628
-0.00150571
0.000391384
-0.00559393
-0.00117075
0.000280822
-0.00539156
0.000317637
0.000391487
-0.00611918
0.000227994
0.000400782
-0.00514695
2.8236e-05
0.000678294
-0.0043508
0.000415976
0.00085981
-0.00497533
0.000393439
0.00104795
-0.00646791
9.53798e-05
0.00114776
-0.00617799
2.89095e-07
0.000882976
-0.00623908
-0.00079488
0.000529429
-0.00599895
-0.00149452
0.000234061
-0.005749
-0.00121255
-1.4022e-05
-0.00552635
0.000470126
-0.000305091
-0.00494276
0.000419368
-0.000179989
-0.00502125
0.000137188
-1.47934e-05
-0.00462364
-8.67251e-05
-5.792e-06
-0.00428969
0.000206735
0.000114612
-0.00480611
0.00033368
0.000657009
-0.00458613
0.000438993
0.000777864
-0.00439525
8.94344e-05
0.000785182
-0.00479702
-0.000628988
0.000566661
-0.00570546
-0.00115306
0.000231441
-0.00629736
-0.00111526
0.000117261
-0.0058673
0.000482877
-0.000392866
-0.00316996
0.000353911
-0.000364167
-0.00335969
0.000254503
-0.000306428
-0.00363877
0.000169878
-0.000163237
-0.00348968
-7.6112e-05
-0.000118224
-0.00390497
-0.00010331
-0.000124024
-0.0036111
8.26348e-05
-0.000225292
-0.00350053
7.54797e-05
-0.000115864
-0.0037647
0.000128042
0.000143292
-0.00323083
-0.000276378
0.000459638
-0.00467545
-0.000714954
0.00047451
-0.00647291
-0.000893837
0.000310461
-0.00699917
0.00026133
-0.000314781
-0.00240388
0.000303009
-0.000343391
-0.00267326
0.000219395
-0.000244323
-0.00289471
0.00011951
-0.000137978
-0.00322317
2.27103e-06
-0.000108742
-0.00301348
-8.10294e-05
-7.95451e-05
-0.00345166
-0.000125207
-8.66074e-05
-0.00250967
-0.000143635
-0.000112697
-0.00124072
-0.000126823
-8.69618e-05
-0.000817296
-5.68273e-05
-1.98063e-05
-4.14703e-05
-0.000213237
8.50236e-05
-0.0012888
-0.000386465
0.000183509
-0.00318473
-0.000506047
0.000224894
-0.00400047
0.000103718
-9.11308e-05
-0.000823647
0.000104373
-0.000110406
-0.000724433
9.8263e-05
-0.000122307
-0.0011185
7.47732e-05
-9.30108e-05
-0.00180856
4.40989e-05
-7.1107e-05
-0.0017717
-2.40738e-05
-6.45575e-05
-0.00201733
-3.64013e-05
-6.14188e-05
-0.00195811
-6.98016e-05
-6.29932e-05
-0.00137267
-7.28954e-05
-5.70161e-05
-0.000453842
-6.85983e-05
-3.78702e-05
0.000390249
-0.000100223
-2.7519e-05
0.000758436
-0.000151135
-2.56145e-05
-0.000649093
-0.000123298
-4.07205e-05
-0.000366315
-0.000142858
-2.04886e-05
0.000516949
-0.0016615
0.000171596
-0.00207501
-0.00122614
-0.000124256
-0.00312486
-0.00162027
-5.35962e-06
-0.00261486
-0.00120019
0.000229374
-0.00340915
-0.00126435
4.93019e-05
-0.00308006
-0.00148523
1.91175e-05
-0.00249993
-0.000554115
0.000329391
-0.00357695
-0.000925545
0.000391506
-0.00338131
-0.00113094
0.000307975
-0.00295388
-0.00148422
0.000138829
-0.00251272
-0.000360731
0.000414534
-0.00426152
-0.000636931
0.000447537
-0.00408262
-0.000799392
0.000379443
-0.00389884
-0.00106312
2.79697e-05
-0.00347002
-0.00139887
-2.54634e-05
-0.00268615
-0.0003925
0.000549853
-0.00474946
-0.000468001
0.000493141
-0.00457239
-0.000596874
0.000329239
-0.00433009
-0.000489641
0.000165139
-0.0042214
-0.00107126
-7.98095e-05
-0.00415202
-0.00133997
-0.000152717
-0.00333268
0.000149175
0.0009064
-0.0056746
-0.00022117
0.000659939
-0.00562082
-0.000362746
0.000294897
-0.00518378
-0.000661522
0.000252592
-0.00498674
-0.000332857
0.000129344
-0.00485653
-0.00103364
0.000260663
-0.00441283
-0.00147584
0.000293542
-0.00364887
0.000366725
0.0011203
-0.00642732
0.000147267
0.00109001
-0.00584629
0.000214684
0.000958897
-0.00578908
-0.000499251
0.000480921
-0.00584177
-0.000463877
0.000206307
-0.00550285
-0.000743618
0.000222526
-0.00541025
-0.00104379
0.000155747
-0.00464639
-0.00127988
0.000238848
-0.00365715
0.000314209
0.00163964
-0.00625231
0.000297685
0.00165489
-0.00606865
0.00027292
0.00149148
-0.00572305
7.04007e-05
0.00110007
-0.00641536
-0.000196176
0.000654145
-0.00673417
-0.000539106
0.000395624
-0.00648341
-0.000846028
0.000232853
-0.00598287
-0.00134108
0.000160713
-0.00513182
-0.00126884
0.000257431
-0.00405846
0.000175308
0.00106522
-0.00537474
0.000234215
0.0012037
-0.00506661
0.000332084
0.00142201
-0.00535901
0.000512774
0.00131907
-0.00617947
0.00042413
0.00109859
-0.00666625
-0.000192514
0.00101792
-0.0072767
-0.000517906
0.000810971
-0.00679794
-0.00100176
0.000559962
-0.00658798
-0.00143838
0.000439788
-0.00580903
-0.00129672
0.000283765
-0.00559116
0.000463735
0.000459126
-0.00658274
0.000176988
0.000405207
-0.00588123
-4.94623e-05
0.000602419
-0.00488442
6.28014e-05
0.000672917
-0.00431343
0.00050678
0.000983677
-0.0052111
0.000188906
0.00111971
-0.00629509
0.000166292
0.00111387
-0.00613618
-0.000195863
0.000824379
-0.00624873
-0.000823047
0.00053967
-0.0061105
-0.00144384
0.000244923
-0.00571717
-0.00124897
9.97607e-06
-0.00540262
0.000448691
-0.000233777
-0.00483311
0.000520884
-0.000253663
-0.00503606
0.000350875
-0.000137824
-0.00499459
0.000142182
2.3934e-05
-0.00462567
-7.56315e-06
6.09422e-05
-0.00430456
0.000244466
0.000358012
-0.00485489
0.000305473
0.000691505
-0.00472261
0.000530704
0.000757154
-0.00482245
-0.000142842
0.000830191
-0.00478967
-0.000685653
0.000577533
-0.00564228
-0.00116368
0.000367572
-0.00609894
-0.00117569
0.000158869
-0.00574432
0.000415191
-0.000348733
-0.00317285
0.000459848
-0.000405554
-0.00328541
0.000279374
-0.000348571
-0.00337752
0.000197899
-0.000259172
-0.00362123
8.73395e-05
-0.000141012
-0.00355196
-0.000154404
-9.6739e-05
-0.00385888
-0.000106789
-0.000107306
-0.00374751
4.20955e-05
-0.000221581
-0.00358054
7.53897e-05
-0.000115876
-0.00370774
5.51802e-05
0.000150781
-0.00303399
-0.000185705
0.000519269
-0.00474774
-0.000748211
0.000415775
-0.00621648
-0.000963159
0.0003191
-0.00686116
0.000219609
-0.000314675
-0.00209068
0.000267532
-0.000319497
-0.00259093
0.000305743
-0.000321101
-0.00280396
0.000192743
-0.00021985
-0.0029308
7.1603e-05
-0.000135427
-0.00322399
-3.1294e-05
-0.000109434
-0.00297637
-0.000109966
-7.90972e-05
-0.0033856
-0.000145508
-8.57616e-05
-0.0024609
-0.0001493
-0.000109582
-0.0011417
-9.82265e-05
-8.56216e-05
-0.000721852
-4.94083e-05
-1.08004e-05
3.53904e-06
-0.000301139
9.46378e-05
-0.00104993
-0.000424015
0.000195416
-0.00285453
-0.000527655
0.000208378
-0.00382405
4.99478e-05
-9.8865e-05
-0.000611276
0.000100356
-9.22733e-05
-0.000942137
9.88009e-05
-0.000114131
-0.00083141
0.000101247
-0.00012236
-0.0011904
6.12189e-05
-8.90432e-05
-0.00185185
3.26358e-05
-6.87079e-05
-0.00180018
-3.51154e-05
-6.52917e-05
-0.00197834
-4.46126e-05
-6.01892e-05
-0.0019163
-7.70511e-05
-6.30011e-05
-0.00128963
-7.37973e-05
-5.75145e-05
-0.0003604
-6.52875e-05
-3.85891e-05
0.000466606
-9.43905e-05
-2.69082e-05
0.00085412
-0.000147712
-2.93482e-05
-0.000512754
-0.000118906
-4.38031e-05
-0.000224095
-0.00013836
-2.18333e-05
0.000677142
-0.00169132
-8.00871e-06
-0.00235802
-0.00128717
0.000254822
-0.00281009
-0.00168501
0.000171139
-0.00218141
-0.00145578
8.8635e-05
-0.00315777
-0.00118767
-7.47437e-05
-0.00313215
-0.00159207
8.25246e-05
-0.00259055
-0.000627093
0.000300256
-0.00346553
-0.00119214
0.000185193
-0.00327845
-0.00116055
7.61534e-05
-0.00310748
-0.00151118
8.50447e-05
-0.00255802
-0.000466759
0.000432993
-0.00368426
-0.000707436
0.00034667
-0.00346161
-0.00101652
0.000436648
-0.00329285
-0.00113948
0.00023331
-0.002972
-0.00149296
0.00011313
-0.00253176
-0.000493168
0.00047461
-0.00417845
-0.000534592
0.000425865
-0.00417325
-0.000749069
0.00044391
-0.00399489
-0.000848094
0.000341728
-0.00385415
-0.00111345
-2.13539e-06
-0.00345116
-0.00133131
2.44351e-05
-0.00271925
-0.000190305
0.000759125
-0.00488976
-0.000420974
0.000587434
-0.00464395
-0.000623706
0.000476603
-0.0044588
-0.000789746
0.000305926
-0.00434265
-0.000553632
3.79622e-05
-0.0041184
-0.00117731
-8.16004e-05
-0.00407947
-0.00140405
-0.000220561
-0.00318391
0.000100937
0.000978884
-0.00595633
-1.74735e-05
0.00087674
-0.00572666
-0.000263678
0.000464397
-0.00531196
-0.000511008
0.00027956
-0.005199
-0.000547663
0.000211005
-0.00498461
-0.000504262
0.000102586
-0.00493781
-0.00119657
0.000309672
-0.00427617
-0.00154986
0.000241607
-0.0036205
0.000171977
0.000982458
-0.00679505
-4.29205e-05
0.00105651
-0.00605321
-0.000201616
0.00112089
-0.00553374
-0.000463154
0.00102245
-0.00579706
-0.000448771
0.000452478
-0.00583534
-0.000645088
0.000335174
-0.00550952
-0.000811164
0.00024586
-0.00553522
-0.00116793
0.000106401
-0.00468709
-0.00135108
0.000239517
-0.00381443
5.03166e-05
0.00177343
-0.00614455
0.00012375
0.00170698
-0.00619394
0.000271614
0.00158261
-0.00609931
0.000657109
0.00141081
-0.00617812
0.000191387
0.000878448
-0.00640692
-0.000394886
0.0006187
-0.00675488
-0.000681872
0.000310899
-0.00639749
-0.000872989
0.000154232
-0.00610516
-0.00138215
0.000201683
-0.0051323
-0.00136315
0.000231508
-0.00422354
0.000337358
0.00124775
-0.00617181
6.63106e-05
0.00130593
-0.0053663
0.00012304
0.00136697
-0.00518408
0.000376882
0.00130635
-0.00566038
0.000572224
0.00128817
-0.00643449
0.000316853
0.00113255
-0.00690883
-5.58699e-05
0.000950218
-0.00719379
-0.000540047
0.00079728
-0.00669108
-0.00105271
0.000567049
-0.00648558
-0.00144892
0.000485335
-0.00600551
-0.00134883
0.000265979
-0.00575727
0.000414386
0.000506572
-0.00666312
0.000314295
0.000463497
-0.00643444
0.000355751
0.000460672
-0.00574436
5.0645e-05
0.000652834
-0.00477281
-1.16215e-05
0.000882629
-0.00420832
0.000485221
0.00111905
-0.00545119
0.000130573
0.00113831
-0.00614463
0.000422516
0.00105014
-0.00625376
-0.000443058
0.000824578
-0.00623342
-0.000949689
0.000501511
-0.00610306
-0.00135677
0.000261365
-0.00577547
-0.00126261
6.90957e-05
-0.00538479
0.000417414
-0.000133414
-0.00475986
0.000407293
-0.000198223
-0.004836
0.000390915
-0.000218887
-0.00506653
0.000232235
-8.25071e-05
-0.00492248
2.85867e-05
0.00013957
-0.00464554
-0.000127019
0.000167119
-0.00414106
0.00029132
0.000473693
-0.00503519
0.000233569
0.000700575
-0.00485751
9.57125e-06
0.000836699
-0.00476314
-0.00024468
0.000878225
-0.0047905
-0.000427967
0.000653524
-0.00568597
-0.00109562
0.000354756
-0.00594741
-0.00122233
0.000199224
-0.00568437
0.000298343
-0.00031822
-0.00298532
0.000376275
-0.000382258
-0.00330489
0.000422629
-0.000410731
-0.00334014
0.000212803
-0.000326089
-0.00333067
0.000206449
-0.000221792
-0.00367529
4.98694e-08
-0.000120854
-0.00355919
-0.000202747
-9.22617e-05
-0.00378115
-0.000101078
-0.000105998
-0.00390752
-1.02483e-05
-0.000115892
-0.00371958
4.59102e-05
-9.95117e-05
-0.00360159
2.5523e-05
0.000222452
-0.0028121
-0.000618335
0.000472113
-0.00448689
-0.000793981
0.000430818
-0.00595824
-0.000939823
0.000349648
-0.00679864
7.25372e-05
-0.000362861
-0.00183657
0.000222468
-0.00031072
-0.00222157
0.000282769
-0.000325681
-0.00277032
0.000291572
-0.000298721
-0.00291541
0.000138123
-0.000202085
-0.00294105
1.27116e-05
-0.000128836
-0.00318467
-7.12915e-05
-0.000100248
-0.00291904
-0.000134417
-9.15773e-05
-0.00328998
-0.000167752
-7.98519e-05
-0.00239993
-0.000161429
-0.000104313
-0.00103537
-8.23729e-05
-8.23639e-05
-0.000633203
-4.72586e-05
-3.424e-06
5.4469e-05
-0.000298695
0.000102253
-0.000805782
-0.00041611
0.000194825
-0.00254377
-0.000552838
0.000208375
-0.00361795
2.14155e-05
-0.000107321
-0.00051939
7.07669e-05