/*--------------------------------*- C++ -*----------------------------------*\
  =========                 |
  \\      /  F ield         | OpenFOAM: The Open Source CFD Toolbox
   \\    /   O peration     | Website:  https://openfoam.org
    \\  /    A nd           | Version:  7
     \\/     M anipulation  |
\*---------------------------------------------------------------------------*/
FoamFile
{
    version     2.0;
    format      ascii;
    class       surfaceScalarField;
    location    "7";
    object      phi_0;
}
// * * * * * * * * * * * * * * * * * * * * * * * * * * * * * * * * * * * * * //

dimensions      [0 3 -1 0 0 0 0];

internalField   nonuniform List<scalar> 
54125
(
-5.13227e-05
-2.05935e-05
-0.000991673
0.000292837
-6.95098e-05
-0.00187516
-3.27517e-05
-2.68468e-05
-0.0015362
-5.19815e-05
-2.07583e-05
-0.000918933
0.00062792
0.000280288
-0.00586064
0.000162007
0.00010624
-0.00426693
0.000287979
-2.17723e-05
-0.00219335
-9.52082e-05
-2.00602e-05
-0.00209697
-3.93552e-05
-2.76055e-05
-0.00149
-4.06211e-05
-2.07593e-05
-0.000857553
0.000773084
0.000273144
-0.00759955
0.000321179
0.000307439
-0.00670594
0.000542472
0.000314384
-0.00642951
4.5491e-05
8.6441e-05
-0.00141721
0.000113979
0.000111655
-0.00455369
0.000274618
5.68544e-05
-0.00256544
-0.000110201
-3.22348e-05
-0.000370702
-0.000106629
-2.16731e-05
-0.00199628
-4.90932e-05
-2.90225e-05
-0.00143264
-3.77394e-05
-2.09858e-05
-0.000798828
0.00064954
0.000153276
-0.00514742
0.000391841
0.000361344
-0.00795287
0.000611412
9.64079e-05
-0.00776489
0.000590992
-0.000123594
-0.0044134
0.000214336
0.000385541
-0.00687746
0.000381719
0.000357557
-0.00689417
-0.000141353
-3.38333e-06
-0.000514944
7.12621e-05
6.16406e-05
-0.00154509
6.92154e-05
0.000101458
-0.0047166
0.00024058
0.000123221
-0.00296698
-8.68947e-05
-4.56774e-05
-0.000371384
-0.000112169
-3.08309e-05
-0.000249375
-0.000119053
-2.34122e-05
-0.00188283
-5.40995e-05
-3.26674e-05
-0.00136686
-4.30819e-05
-2.11613e-05
-0.000734584
-0.000126674
0.000588013
-0.00383755
0.000385791
0.000170221
-0.00710637
0.000639628
0.000172833
-0.00534847
0.00098531
0.00027971
-0.00560536
-2.03984e-05
0.000358396
-0.00798012
0.000348043
4.99995e-05
-0.00778122
0.000227289
-0.000396401
-0.00348959
0.000555387
-4.09925e-06
-0.00450789
0.000102308
0.000426552
-0.00697954
0.00019668
0.000356663
-0.00720693
-9.43455e-05
9.39355e-06
-0.00146784
-0.000150004
-2.88277e-05
-0.00038664
7.05053e-05
3.36726e-05
-0.00166686
3.53511e-05
9.5006e-05
-0.00477784
0.000184569
0.0001786
-0.00337323
-4.92683e-05
-5.96411e-05
-0.00109083
-8.30684e-05
-4.25318e-05
-0.000276615
-0.000112364
-2.98155e-05
-0.000130608
-0.000127792
-2.74556e-05
-0.00176025
-6.17024e-05
-3.37308e-05
-0.00129259
-5.65976e-05
-2.12836e-05
-0.000656703
-0.000934149
0.000692452
-0.0044159
-1.30526e-05
0.000601478
-0.00530124
0.000229149
0.000544971
-0.00397204
0.000654023
0.000585916
-0.006738
-0.000181871
0.000282531
-0.0070546
0.000354634
0.000155841
-0.0055109
0.000764018
3.2307e-05
-0.00375576
0.000599253
0.000502308
-0.00579314
-0.000386605
0.000379742
-0.00782095
8.79041e-05
-1.96328e-05
-0.00765281
-1.80767e-05
-0.000314173
-0.00290512
0.000275631
-0.000369891
-0.00354944
0.000492698
9.0422e-05
-0.00459395
-2.44754e-05
0.000461904
-0.00702496
4.13373e-05
0.00033418
-0.00739788
-0.000129923
-6.2821e-05
-0.00189797
-9.51362e-05
-2.11266e-05
-0.00146347
-0.000130108
-4.24099e-05
-0.000292814
5.1723e-05
1.00035e-05
-0.00176138
-5.84601e-06
9.92474e-05
-0.00475434
9.15939e-05
0.000218034
-0.00373946
-2.16647e-05
-6.06005e-05
-0.0017821
-4.84293e-05
-5.83715e-05
-0.00102656
-8.2096e-05
-3.97857e-05
-0.000184549
-0.000111648
-3.0363e-05
-1.60527e-05
-0.000134072
-2.86749e-05
-0.00163124
-6.8167e-05
-3.90797e-05
-0.00120663
-8.05808e-05
-2.08309e-05
-0.000555292
-0.00141905
0.000480973
-0.00399388
-0.000408554
0.000931015
-0.00539359
-0.000607529
0.000573229
-0.00415245
3.09965e-05
0.000832026
-0.00655192
-0.000538836
0.000643044
-0.00504235
3.63591e-05
0.000486676
-0.00414044
0.00059098
0.000773899
-0.0065667
0.000129848
0.000694558
-0.00668062
-0.000550186
0.000397658
-0.00713283
0.00016271
0.000123483
-0.00570919
0.00023259
-0.000246541
-0.00401143
0.000786794
0.000197569
-0.00396219
0.000176415
0.000755677
-0.00585279
-0.000571158
0.000242931
-0.00753683
-0.000228288
9.57843e-05
-0.00747897
-0.000141572
-0.000249678
-0.00275934
-3.2858e-05
-0.000337187
-0.0030001
0.000291794
-0.00031672
-0.0035642
0.000486193
0.000170117
-0.00473663
-8.83376e-05
0.000490201
-0.00709849
-0.000155508
0.000340691
-0.00749147
-7.57118e-06
-7.91688e-05
-0.00251991
-0.000118353
-8.63678e-05
-0.00176281
-0.000126164
-3.95169e-05
-0.0014223
-0.000109204
-5.98829e-05
-0.000225372
2.03045e-05
-2.58463e-06
-0.00181392
-6.42477e-05
0.000116511
-0.00465674
-4.7052e-05
0.000233907
-0.00400689
1.38944e-05
-6.36052e-05
-0.0020533
-3.32598e-05
-6.0204e-05
-0.00174701
-5.3446e-05
-5.69106e-05
-0.00095599
-7.73746e-05
-3.87633e-05
-9.87741e-05
-0.000110892
-3.09333e-05
9.70973e-05
-0.000134646
-3.3524e-05
-0.00150215
-7.68782e-05
-3.72692e-05
-0.00111331
-0.000104957
-2.02108e-05
-0.000430124
-0.00140228
-4.44568e-06
-0.00336626
-0.000604743
0.000510937
-0.0044112
-0.00142142
0.000490612
-0.0036706
-0.000225744
0.000803792
-0.00532655
-0.000812828
0.000648917
-0.00519529
-0.000694589
0.000581056
-0.00400256
0.000248177
0.00111491
-0.007161
-0.000318314
0.000842049
-0.00630277
-0.000568385
0.00059234
-0.00512981
-5.18232e-06
0.000370003
-0.00434255
0.000512427
0.000785794
-0.00680021
0.000504286
0.0010013
-0.00659094
-0.000406249
0.00094269
-0.00664299
-0.000836122
0.000282237
-0.00702662
-0.000118669
-1.7278e-05
-0.00580153
0.000208926
-0.000338407
-0.00485271
9.25041e-05
-0.000115266
-0.00382396
0.000566858
0.000562267
-0.00404384
0.000183375
0.000741258
-0.0060483
-0.000599309
0.000427578
-0.00735766
-0.000506937
0.000107905
-0.00723544
2.55421e-05
-0.000161376
-0.00313042
-0.000100805
-0.00027945
-0.00283462
2.06827e-06
-0.00032296
-0.00312209
0.000295991
-0.000262385
-0.00353689
0.000382476
0.000242998
-0.0048516
-0.000203988
0.000504731
-0.00712279
-0.000425549
0.000321502
-0.00743448
7.79634e-05
-9.15173e-05
-0.00348457
-2.81783e-05
-8.00227e-05
-0.00253134
-8.72095e-05
-9.49349e-05
-0.00167362
-0.000131491
-5.98871e-05
-0.00136818
-9.49088e-05
-6.58445e-05
-0.000178095
-1.82473e-05
-5.6978e-07
-0.00181324
-0.00013786
0.000131947
-0.00449379
-0.000194694
0.000240469
-0.00415762
2.08335e-05
-6.99343e-05
-0.00208924
5.14843e-06
-6.17494e-05
-0.0020569
-4.16462e-05
-6.08281e-05
-0.00170145
-5.69644e-05
-5.62489e-05
-0.00088154
-7.57927e-05
-3.87868e-05
-1.5128e-05
-0.000110058
-3.14218e-05
0.000205053
-0.000139837
-3.14989e-05
-0.00136808
-8.56309e-05
-3.38118e-05
-0.00101408
-0.000117667
-1.96446e-05
-0.000292813
-0.00126539
-6.73465e-05
-0.00361611
-0.000596694
0.000115916
-0.00432523
-0.00135249
3.32389e-06
-0.00343852
-0.000171073
0.000411546
-0.00513729
-0.000570951
0.000466116
-0.00462858
-0.00139413
0.000532203
-0.00350326
-0.000197933
0.000971243
-0.0063043
-0.000211281
0.000709931
-0.0054946
-0.000899585
0.000555075
-0.0048381
-0.000629651
0.000629825
-0.00400792
0.000479197
0.00118957
-0.00695137
1.65169e-05
0.00116677
-0.00699796
-0.000590796
0.00077218
-0.00629806
-0.000699398
0.000438543
-0.00533508
-0.000105236
0.000295011
-0.004651
0.000778355
0.00053182
-0.00564318
0.000276749
0.00102104
-0.00700419
7.58301e-05
0.00117073
-0.00632795
-0.000477828
0.00078092
-0.00648047
-0.00117743
0.000212881
-0.00667866
-0.000436512
-4.87629e-05
-0.0058232
8.45938e-05
-0.000164675
-0.00434045
0.000239584
-0.000295334
-0.00501303
0.000177449
0.000227011
-0.00366408
0.000383998
0.000855287
-0.00424588
1.34741e-05
0.000757445
-0.00600917
-0.000735698
0.000480859
-0.0071989
-0.000751422
-7.37815e-05
-0.00683579
0.000220773
-0.000150208
-0.00354332
4.34614e-06
-0.000168061
-0.00327434
-4.04579e-05
-0.000282361
-0.00292197
0.000113504
-0.000315233
-0.00331424
0.00027671
-0.000186696
-0.00347881
0.000251223
0.000290093
-0.00490643
-0.000403566
0.00050585
-0.00704143
-0.000512215
0.000292778
-0.00740973
0.000115303
-0.000144864
-0.0029674
3.80206e-05
-7.94244e-05
-0.00351804
-3.8659e-05
-7.66934e-05
-0.00255257
-6.01205e-05
-9.91266e-05
-0.00163123
-0.000150021
-7.28805e-05
-0.00128691
-8.88685e-05
-6.4201e-05
-0.000135654
-4.99908e-05
1.10902e-05
-0.00178223
-0.000222351
0.000146572
-0.00426318
-0.000244364
0.000241712
-0.00427264
6.37738e-05
-7.73021e-05
-0.00157349
1.29857e-05
-6.9703e-05
-0.00209427
-4.32345e-06
-6.0717e-05
-0.00205269
-4.65231e-05
-6.13334e-05
-0.00164984
-6.17086e-05
-5.56144e-05
-0.000803004
-7.35412e-05
-3.87375e-05
6.57289e-05
-0.000109343
-3.14516e-05
0.000314349
-0.000146557
-2.79457e-05
-0.00122739
-9.58354e-05
-3.28388e-05
-0.00090505
-0.000126858
-1.93377e-05
-0.000146618
-0.00134572
4.2233e-05
-0.00316147
-0.000577031
-2.80475e-05
-0.00449166
-0.00128669
-0.000124308
-0.0035576
-0.000198653
0.000205463
-0.00505481
-0.000570214
0.00010172
-0.00442437
-0.00135396
2.52458e-05
-0.00350393
-0.000348319
0.00057841
-0.00558954
-6.66566e-05
0.000324144
-0.00513995
-0.000547489
0.000350954
-0.00479943
-0.00132672
0.000575289
-0.00338148
0.000776212
0.0013293
-0.00663082
-0.000125441
0.000702334
-0.00615474
-0.000345113
0.000535056
-0.00572026
-0.000817559
0.000628757
-0.00471887
-0.000648881
0.000426679
-0.00389095
0.000909512
0.00127992
-0.00655892
0.000473393
0.00116274
-0.00714398
-0.000151614
0.00113336
-0.00713169
-0.000560111
0.000648166
-0.0064254
-0.00123967
0.00036358
-0.00534141
-0.000451343
0.000264522
-0.00490069
0.000393957
0.000353699
-0.0046957
0.000759584
0.000730761
-0.00587291
0.000127302
0.00108673
-0.00687005
-0.000130618
0.00116438
-0.0061968
-0.000534638
0.000591425
-0.0063109
-0.0013075
0.000211792
-0.00636741
-0.000644606
7.97985e-06
-0.00593799
0.000166802
-0.000172225
-0.00386954
0.000161845
-0.000197218
-0.00459606
0.000192933
-9.28769e-05
-0.00492654
0.000371554
0.000486101
-0.00355294
0.000487464
0.000882043
-0.00458123
-0.000194077
0.000731118
-0.00581412
-0.000979728
0.000335245
-0.00703177
-0.000756141
4.83209e-05
-0.00664018
0.000321728
-0.000332332
-0.00329367
0.000146662
-0.000127331
-0.00369269
-4.58541e-05
-0.000200499
-0.003349
1.68842e-05
-0.000289689
-0.00302452
0.000143477
-0.000263931
-0.0035305
0.000273332
-9.27876e-05
-0.00345813
0.000123431
0.000367157
-0.00494116
-0.000528529
0.000518685
-0.00696116
-0.000594371
0.000243387
-0.00730311
0.000138397
-0.000197598
-0.00309502
8.74906e-05
-0.000141689
-0.00297964
-1.78376e-06
-7.41284e-05
-0.00352315
-5.96236e-05
-7.64939e-05
-0.0025621
-0.000117537
-0.000105294
-0.00154299
-0.000158889
-7.78842e-05
-0.00118788
-5.8433e-05
-5.46127e-05
-0.000120861
-7.27198e-05
2.88671e-05
-0.00173836
-0.000235701
0.000167901
-0.0040495
-0.00032565
0.000231051
-0.0043049
0.000109203
-9.83717e-05
-0.00160431
5.51712e-05
-7.60265e-05
-0.00162234
1.38805e-06
-6.84721e-05
-0.00208791
-1.3253e-05
-6.0579e-05
-0.00204019
-5.41446e-05
-6.13975e-05
-0.00158991
-6.53363e-05
-5.5454e-05
-0.000720951
-7.27901e-05
-3.9118e-05
0.000146185
-0.000108422
-3.08561e-05
0.000425682
-0.000148313
-2.63664e-05
-0.00108555
-0.000107134
-3.15793e-05
-0.000785674
-0.000135087
-1.92604e-05
7.7303e-06
-0.00179492
0.000233992
-0.00258929
-0.000854216
0.000137898
-0.00378957
-0.00142571
1.69637e-05
-0.00303942
-0.000621963
0.00018094
-0.00446091
-0.000617553
-9.33056e-05
-0.00447533
-0.00123528
-0.000148461
-0.00352782
-0.000123735
0.000265388
-0.00528025
-0.000203738
0.000209491
-0.0050255
-0.000546547
0.000170812
-0.00457088
-0.00130803
4.98092e-06
-0.0035276
0.000575527
0.00081182
-0.00589703
8.72002e-05
0.000225602
-0.00570364
-0.000123101
0.000228891
-0.00523989
-0.00062357
0.000232169
-0.00465029
-0.00121903
0.000451924
-0.00326326
0.0007805
0.00159217
-0.00583276
-1.12622e-05
0.0010176
-0.00646143
-0.000171395
0.000609198
-0.0062091
-0.00020661
0.000438988
-0.00588399
-0.00106762
0.000370275
-0.00483452
-0.000860562
0.000336809
-0.00381854
0.000632786
0.00116869
-0.00526384
0.000681624
0.00120946
-0.00652768
0.0001564
0.00112893
-0.00716865
-0.000330627
0.00100793
-0.00729145
-0.000690275
0.0005288
-0.00643498
-0.00129629
0.000320959
-0.00540906
-0.000760816
0.000267091
-0.00505157
0.000160792
0.000340721
-0.00458759
0.000385989
0.000405126
-0.00459421
0.000659179
0.00095233
-0.00620475
0.000120041
0.0010708
-0.00652496
0.000194138
0.000966346
-0.00627839
-0.000740062
0.000630392
-0.00618352
-0.00146986
0.000281947
-0.00615125
-0.000863421
9.28762e-06
-0.00584
0.000376489
-0.000224352
-0.00454216
0.000303582
-3.49043e-05
-0.00418877
0.000100649
-0.000150644
-0.0046848
0.000215947
3.7567e-05
-0.00467706
0.000468533
0.00073933
-0.00373529
0.000290629
0.000810816
-0.00467822
-0.000270774
0.000723365
-0.00580804
-0.00102193
0.000391622
-0.00688166
-0.000940077
6.47024e-05
-0.00635918
0.000285479
-0.000380035
-0.0035072
0.000296834
-0.000285236
-0.00334511
5.03772e-05
-0.000120388
-0.00382496
-0.00011389
-0.000199984
-0.00338444
3.93907e-05
-0.000269937
-0.00317544
0.00012102
-0.000203748
-0.00369945
0.000277462
5.38165e-05
-0.00348069
2.53619e-05
0.000425415
-0.00494597
-0.000535544
0.000488985
-0.00690691
-0.000705539
0.000318575
-0.0072418
0.000300446
-0.000300422
-0.00279395
0.000131648
-0.000178708
-0.00313448
7.67959e-05
-0.000117283
-0.00301189
-1.85122e-05
-7.21448e-05
-0.00352224
-8.35776e-05
-7.91507e-05
-0.00255881
-0.000130529
-0.000108207
-0.00144747
-0.000165662
-8.15665e-05
-0.00106806
-4.2467e-05
-4.21708e-05
-0.000115778
-0.000214962
5.53073e-05
-0.00155912
-0.000312934
0.000169182
-0.00378183
-0.000398655
0.000217821
-0.00425915
9.81435e-05
-0.000119773
-0.000975942
0.00010138
-9.6409e-05
-0.0016853
6.16361e-05
-7.51452e-05
-0.0016773
-8.2789e-06
-6.70005e-05
-0.00207321
-2.18926e-05
-5.99835e-05
-0.00201971
-5.8408e-05
-6.1804e-05
-0.00152515
-6.83353e-05
-5.60132e-05
-0.00063572
-7.24385e-05
-3.87691e-05
0.000226537
-0.00010686
-2.98364e-05
0.000536012
-0.000149775
-2.36008e-05
-0.000943753
-0.000114734
-3.4115e-05
-0.000656085
-0.000140721
-1.95554e-05
0.000168007
-0.00175862
0.000150435
-0.00222654
-0.00106641
0.000354758
-0.00318065
-0.00154492
0.000126182
-0.00259626
-0.000863491
0.000276882
-0.0039349
-0.000870967
0.000120255
-0.00363944
-0.00125982
-2.22008e-05
-0.00299267
-0.000359286
0.000359179
-0.00458199
-0.000597601
0.00012615
-0.00428651
-0.000722158
-8.1734e-05
-0.00436644
-0.00117034
-0.000153487
-0.00351203
-0.000139136
0.000503212
-0.00509859
-0.000161028
0.000297741
-0.00512028
-0.000229007
0.000193498
-0.00494228
-0.000686593
0.000167356
-0.00467023
-0.00134694
0.000176828
-0.00357651
0.000299016
0.00109061
-0.00583245
-0.000528439
0.000630554
-0.0057848
-0.000168425
0.000225965
-0.00570368
-0.000188659
0.000143149
-0.00516883
-0.000802564
0.000185456
-0.00464888
-0.00118072
0.000397634
-0.00334074
0.000554745
0.001629
-0.00569586
0.000438727
0.0015023
-0.00607457
8.47219e-05
0.000948333
-0.00672888
-0.000248628
0.000508497
-0.00636061
-0.000478525
0.000256829
-0.0059823
-0.00111373
0.000290695
-0.00497096
-0.00103996
0.000272602
-0.00381199
0.000596406
0.00098711
-0.00500443
0.000758322
0.001244
-0.00567072
0.000687919
0.0011504
-0.00657789
0.000163459
0.0010561
-0.00726024
-0.00026775
0.00081434
-0.0071151
-0.000849184
0.000551793
-0.00655669
-0.00145234
0.00029954
-0.00545902
-0.000979808
0.000268399
-0.00520358
0.000342785
0.000343341
-0.00526775
0.000206428
0.000333669
-0.00441898
0.000484717
0.000701897
-0.00472785
0.000547514
0.000985027
-0.00645054
0.000170277
0.00111544
-0.00637579
-0.000134988
0.000987371
-0.00620975
-0.000600805
0.000534099
-0.00610564
-0.0015067
0.000268832
-0.00592603
-0.00105818
-2.21041e-05
-0.00569979
0.000414491
-0.000283301
-0.00511139
0.000402686
-1.91876e-05
-0.00466373
4.9092e-05
-4.8109e-05
-0.00429002
5.75087e-05
-4.11028e-05
-0.00477753
0.000304058
0.00033144
-0.00453384
0.000427194
0.000816831
-0.00404748
0.000342683
0.000800328
-0.00482041
-0.000399653
0.000692437
-0.00568384
-0.00106484
0.000312657
-0.00660032
-0.0010496
5.263e-05
-0.00606775
0.000450761
-0.000353064
-0.00325982
0.000326677
-0.000358616
-0.00362885
0.000222062
-0.000209883
-0.00340088
-4.85911e-05
-0.00012312
-0.00387175
-8.55865e-05
-0.000177048
-0.00347532
9.91729e-05
-0.00024889
-0.00336
9.7609e-05
-0.000133601
-0.0037753
0.000220457
0.000120009
-0.0034382
-0.000368254
0.000503971
-0.00480767
-0.000689076
0.000464476
-0.00667667
-0.00079906
0.000288517
-0.00712991
0.00030717
-0.000350961
-0.00253108
0.000257574
-0.000272927
-0.00285592
0.000147577
-0.000150347
-0.00318736
4.80664e-05
-0.000110905
-0.00302948
-4.93427e-05
-7.15314e-05
-0.00350241
-0.000104197
-8.38515e-05
-0.00253738
-0.000135539
-0.000113738
-0.0013481
-0.000161196
-8.21059e-05
-0.000939363
-5.35226e-05
-3.13611e-05
-8.24471e-05
-0.000154908
6.53922e-05
-0.00145019
-0.000337626
0.000174635
-0.00351576
-0.000462956
0.000217037
-0.00415395
0.00011028
-0.00010609
-0.00060505
9.82214e-05
-0.000120973
-0.0010496
8.81872e-05
-9.52265e-05
-0.00175341
5.95588e-05
-7.31402e-05
-0.00173072
-1.6605e-05
-6.65141e-05
-0.00205007
-3.02968e-05
-6.03636e-05
-0.00199086
-6.49041e-05
-6.22646e-05
-0.001454
-7.10575e-05
-5.65076e-05
-0.000546924
-6.97101e-05
-3.85157e-05
0.000304926
-0.000104188
-2.7869e-05
0.000644468
-0.00014857
-2.50554e-05
-0.000804243
-0.000117301
-3.53545e-05
-0.000522985
-0.00014324
-1.99307e-05
0.000331177
-0.00162615
-0.0001316
-0.0027917
-0.00116162
0.000150856
-0.00324319
-0.00145107
0.000170295
-0.00249068
-0.000980694
0.000379102
-0.0033971
-0.00121903
0.000317658
-0.00302406
-0.00147163
0.00018344
-0.00256789
-0.000547018
0.000419522
-0.00411599
-0.000836358
0.000359232
-0.00393512
-0.00093599
9.12292e-05
-0.00353904
-0.00128814
-6.73922e-05
-0.00280748
-0.000365833
0.000395081
-0.00464471
-0.00051577
0.000381876
-0.00448297
-0.000476669
0.000133321
-0.0042539
-0.000899604
-4.68161e-05
-0.0042601
-0.00130694
-0.000139293
-0.00341274
-8.52972e-05
0.000748419
-0.00559937
-0.000286467
0.000309242
-0.00535207
-0.000240139
0.000254347
-0.00510941
-0.000246916
0.000117291
-0.00483396
-0.000901023
0.000163166
-0.00455811
-0.0014118
0.000259377
-0.00360481
0.000559705
0.00114245
-0.00624442
0.000105757
0.000960759
-0.00582969
-0.000154185
0.0006258
-0.00594573
-0.000403891
0.000154623
-0.0055599
-0.000379522
0.000177968
-0.00526034
-0.000884761
0.000140761
-0.00462098
-0.00121643
0.000349837
-0.00351411
0.000491005
0.00166483
-0.00600703
0.000661188
0.00165777
-0.00575419
0.000608543
0.00131099
-0.00635786
-5.22467e-05
0.000696271
-0.00670095
-0.000375864
0.000420526
-0.0064162
-0.00079767
0.000257519
-0.00600064
-0.00125384
0.000172352
-0.00506921
-0.0011679
0.0002731
-0.003897
0.000419277
0.00102986
-0.00504711
0.000240882
0.00117299
-0.00496788
0.000499144
0.00134422
-0.00587896
0.000451291
0.00114941
-0.00657498
2.53093e-05
0.00104407
-0.007345
-0.000454372
0.000802695
-0.00704662
-0.000762672
0.000521611
-0.0066169
-0.00151231
0.000382774
-0.00556779
-0.00115982
0.000276317
-0.00537826
0.000336801
0.000396814
-0.00613705
0.00023782
0.000399508
-0.00516872
3.03485e-05
0.000656427
-0.00435476
0.000408373
0.000849037
-0.00494272
0.000413011
0.00103979
-0.00648384
8.95011e-05
0.00115348
-0.00620421
1.25407e-05
0.000892972
-0.00623849
-0.000784651
0.000529659
-0.00598147
-0.00150043
0.000235668
-0.00574821
-0.00120932
-1.68267e-05
-0.00552325
0.000466405
-0.000307177
-0.00494363
0.000414301
-0.000189042
-0.00502916
0.000151246
-1.69112e-05
-0.00462411
-8.71991e-05
-1.06032e-05
-0.00428191
0.000188016
8.65506e-05
-0.00480624
0.000333174
0.000640427
-0.00459144
0.000434315
0.000780346
-0.0043642
0.000118742
0.000780779
-0.00480703
-0.000619246
0.000571086
-0.00569128
-0.00114931
0.00023079
-0.00631825
-0.00111076
0.000112342
-0.00586839
0.000483226
-0.000392023
-0.00315824
0.000360542
-0.000364938
-0.00335646
0.000260668
-0.000311797
-0.00364003
0.000176749
-0.000166074
-0.00348661
-6.97484e-05
-0.000120008
-0.00390838
-0.000105652
-0.000129888
-0.00359287
8.23727e-05
-0.000226392
-0.00348512
7.52104e-05
-0.000117448
-0.00377425
0.000138029
0.000137262
-0.00326305
-0.00027528
0.000455943
-0.00467876
-0.000706678
0.00047592
-0.00649502
-0.000886235
0.000311307
-0.00701794
0.000260829
-0.000314274
-0.00238659
0.00030205
-0.000344938
-0.0026629
0.000221053
-0.00024704
-0.00289209
0.000123319
-0.000138617
-0.0032234
7.06878e-06
-0.000108336
-0.00301635
-7.84879e-05
-7.85621e-05
-0.00345951
-0.000123946
-8.61028e-05
-0.00250597
-0.000143521
-0.000112961
-0.00124478
-0.000130066
-8.66409e-05
-0.000823727
-5.54385e-05
-2.1033e-05
-4.47712e-05
-0.00020628
8.15292e-05
-0.00129938
-0.000379717
0.00018096
-0.00321726
-0.000499354
0.000223825
-0.00402166
0.000103461
-9.1006e-05
-0.000809184
0.0001045
-0.00011009
-0.000720434
9.82401e-05
-0.000122066
-0.001121
7.60504e-05
-9.32826e-05
-0.00180932
4.55977e-05
-7.14779e-05
-0.00177136
-2.51097e-05
-6.46169e-05
-0.00202071
-3.62278e-05
-6.13578e-05
-0.00195554
-7.01639e-05
-6.28509e-05
-0.00137749
-7.28348e-05
-5.68078e-05
-0.000455797
-6.85047e-05
-3.78531e-05
0.000383415
-9.96921e-05
-2.76493e-05
0.000746754
-0.000150308
-2.49836e-05
-0.000664306
-0.000122599
-4.02354e-05
-0.000380081
-0.000142686
-2.09873e-05
0.000494851
-0.00166116
0.000171384
-0.00207475
-0.00122602
-0.000126542
-0.00312645
-0.00161892
-7.36783e-06
-0.00261649
-0.00119689
0.000229789
-0.00341092
-0.0012636
5.03094e-05
-0.00307863
-0.00148354
1.92997e-05
-0.00249807
-0.000549826
0.000329725
-0.00358064
-0.000924565
0.000391742
-0.00338298
-0.00113109
0.000309539
-0.00295506
-0.00148309
0.000139158
-0.0025121
-0.000357758
0.000413803
-0.00426456
-0.00063253
0.000446757
-0.00408676
-0.000798397
0.000378762
-0.00390092
-0.00105918
2.81604e-05
-0.00347502
-0.00139745
-2.77298e-05
-0.00268924
-0.000388963
0.000550804
-0.00475669
-0.000462789
0.000491687
-0.0045782
-0.000590374
0.000331146
-0.00433056
-0.000488151
0.000164773
-0.00422425
-0.00106488
-7.85447e-05
-0.00415699
-0.00133688
-0.000150306
-0.00333736
0.000147392
0.000904236
-0.00568562
-0.00021677
0.000665358
-0.00563296
-0.000356218
0.000294215
-0.0051899
-0.000656543
0.000253133
-0.0049926
-0.000326503
0.00013007
-0.00485388
-0.00102652
0.00025726
-0.00441423
-0.00147179
0.000297188
-0.00364663
0.000363111
0.00110996
-0.00644936
0.000155104
0.0010869
-0.00586448
0.00023475
0.000960933
-0.00579103
-0.000489397
0.000489992
-0.00584395
-0.000455891
0.000199576
-0.00550148
-0.000736245
0.000219767
-0.00540077
-0.00103887
0.000155239
-0.00464135
-0.00127493
0.000242044
-0.00364912
0.000307481
0.0016384
-0.00626028
0.00030037
0.00165526
-0.006064
0.000270701
0.00149998
-0.00571473
8.46745e-05
0.00111996
-0.00641492
-0.00018233
0.000657752
-0.00673054
-0.000530365
0.000403138
-0.00648582
-0.000847255
0.000234617
-0.00597832
-0.00134372
0.000159829
-0.00512453
-0.00126258
0.000257485
-0.00405173
0.000194384
0.00105596
-0.00538282
0.000242739
0.00119318
-0.00507221
0.000318712
0.00141751
-0.00532954
0.00051142
0.00132357
-0.00615617
0.000429043
0.00109629
-0.00664323
-0.000193577
0.00102428
-0.00728351
-0.000511111
0.000811931
-0.00681329
-0.000993401
0.000559674
-0.00658505
-0.0014467
0.000433135
-0.00577833
-0.00129281
0.000280127
-0.00557489
0.000463846
0.000463795
-0.00659532
0.000171762
0.000404918
-0.00589992
-3.28269e-05
0.000590191
-0.00491841
6.39752e-05
0.000662239
-0.00431914
0.00050025
0.00097132
-0.00518649
0.000199218
0.00111811
-0.00631452
0.000143259
0.00112056
-0.00614074
-0.000169731
0.000828103
-0.00624846
-0.000814832
0.000545998
-0.00609621
-0.00145391
0.000243017
-0.00570345
-0.00124767
4.04849e-06
-0.00539039
0.000455559
-0.000235865
-0.00482887
0.000519102
-0.000258321
-0.00503291
0.000359964
-0.000144073
-0.00500129
0.000149691
2.08557e-05
-0.00462851
-5.78328e-06
5.15711e-05
-0.0043109
0.000235675
0.000342561
-0.0048497
0.000305223
0.000689632
-0.00472358
0.000552939
0.000752199
-0.00481335
-0.000126908
0.000826882
-0.00479789
-0.000687711
0.000577921
-0.00562598
-0.00116702
0.000363324
-0.00610889
-0.00117177
0.000152898
-0.00573575
0.000415111
-0.000346689
-0.00316002
0.0004601
-0.000404537
-0.00327669
0.000284928
-0.000350269
-0.00338187
0.000202522
-0.000263424
-0.00362188
9.61552e-05
-0.000142869
-0.00355284
-0.000149494
-9.74744e-05
-0.00386979
-0.00011047
-0.000108177
-0.00372456
4.4583e-05
-0.000228856
-0.00356182
7.84744e-05
-0.000116365
-0.00372917
6.1338e-05
0.000143951
-0.00306783
-0.000164904
0.000515276
-0.0047595
-0.000742055
0.000423773
-0.00624515
-0.000959721
0.000317606
-0.00687518
0.000217413
-0.000314661
-0.00207494
0.000265343
-0.00031897
-0.0025734
0.000304902
-0.000323982
-0.00279262
0.000195944
-0.000222232
-0.00292837
7.90461e-05
-0.00013588
-0.00322931
-2.79171e-05
-0.000109683
-0.00298242
-0.000107705
-7.78084e-05
-0.00339632
-0.000144027
-8.60638e-05
-0.002459
-0.000148452
-0.000110287
-0.00114552
-0.000100688
-8.5596e-05
-0.000726981
-4.76199e-05
-1.18324e-05
-3.48174e-06
-0.000290647
9.194e-05
-0.00107002
-0.000420309
0.000192711
-0.00288844
-0.000526402
0.000209169
-0.00384712
4.96335e-05
-9.88726e-05
-0.000600384
0.000101153
-9.21673e-05
-0.000928259
9.90371e-05
-0.00011377
-0.000827768
0.000100021
-0.000122369
-0.00119193
6.22988e-05
-8.93033e-05
-0.00185379
3.35657e-05
-6.89429e-05
-0.0018006
-3.34957e-05
-6.52086e-05
-0.00198336
-4.42963e-05
-6.03759e-05
-0.00191371
-7.68769e-05
-6.29343e-05
-0.00129449
-7.37495e-05
-5.7349e-05
-0.000362552
-6.5242e-05
-3.85669e-05
0.000459575
-9.38763e-05
-2.70252e-05
0.000842671
-0.000147173
-2.85971e-05
-0.000528772
-0.00011901
-4.36134e-05
-0.000238445
-0.000138267
-2.22482e-05
0.000655366
-0.00168999
-8.02059e-06
-0.00235789
-0.00128622
0.000254074
-0.00281027
-0.00168401
0.000171959
-0.00218162
-0.00145494
8.93719e-05
-0.00316053
-0.00118773
-7.67272e-05
-0.00313296
-0.00159022
8.09289e-05
-0.00259074
-0.000617949
0.000299923
-0.00346971
-0.00119088
0.000184695
-0.00327899
-0.00116114
7.63961e-05
-0.00310568
-0.00151079
8.47223e-05
-0.00255509
-0.000463915
0.000433936
-0.00368661
-0.000702722
0.000346444
-0.00346515
-0.00101297
0.000436101
-0.00329496
-0.00113876
0.000234252
-0.00297058
-0.00149352
0.000113817
-0.00252984
-0.00048946
0.000474647
-0.00417966
-0.000528169
0.000425331
-0.00417776
-0.000743626
0.000443558
-0.0039983
-0.000844672
0.000341104
-0.00385734
-0.00111157
-3.4811e-06
-0.00345258
-0.0013287
2.26129e-05
-0.00272003
-0.000191805
0.000759225
-0.00489565
-0.00041879
0.000587122
-0.0046501
-0.000618896
0.000477768
-0.00446215
-0.000785676
0.000306713
-0.00434337
-0.000547974
3.95895e-05
-0.00412092
-0.00117196
-7.97366e-05
-0.00408212
-0.00140175
-0.000217738
-0.00318966
0.000101054
0.000979027
-0.00596554
-1.03253e-05
0.000878881
-0.00573371
-0.000255487
0.000473625
-0.00532213
-0.000506101
0.000281511
-0.00520158
-0.000545124
0.000213266
-0.00498656
-0.000499523
0.000103954
-0.0049373
-0.00119021
0.000310423
-0.00427612
-0.00154545
0.000245099
-0.00362122
0.000159244
0.000978145
-0.00681487
-3.68513e-05
0.00105134
-0.00607657
-0.000199508
0.00111456
-0.00554789
-0.00044578
0.0010273
-0.00579788
-0.000447616
0.000452733
-0.00583182
-0.000636621
0.000331315
-0.00550677
-0.000814031
0.000249693
-0.00552845
-0.00116466
0.000105681
-0.00468405
-0.00134456
0.000241204
-0.00380834
5.32306e-05
0.00177362
-0.00614351
0.00012967
0.00170493
-0.00619688
0.000267777
0.00158591
-0.006099
0.000658137
0.00142529
-0.00616679
0.000188395
0.000887185
-0.00640371
-0.000398827
0.000625939
-0.00674809
-0.000673316
0.000311353
-0.00640035
-0.000870932
0.000157698
-0.00609866
-0.00138457
0.000197213
-0.00512639
-0.00135774
0.000233624
-0.00422042
0.000346654
0.00124378
-0.00618853
6.04983e-05
0.00129651
-0.00537489
0.00012875
0.00136117
-0.00517745
0.000387382
0.00130083
-0.0056302
0.000581116
0.00129634
-0.00643708
0.000338932
0.00113486
-0.00689352
-6.65897e-05
0.000955246
-0.00721697
-0.000539801
0.000801712
-0.00668525
-0.00105048
0.000571258
-0.00648753
-0.00145896
0.000484203
-0.00597736
-0.00134549
0.000261072
-0.00573814
0.000417675
0.000509207
-0.00667558
0.000311005
0.000467903
-0.00645021
0.000357836
0.000455392
-0.00576299
5.05912e-05
0.00063857
-0.00479564
-3.00433e-05
0.000868933
-0.00419249
0.000484354
0.00110795
-0.00542501
0.000136791
0.00113623
-0.00616175
0.00044728
0.00105547
-0.00626245
-0.000431807
0.000831699
-0.00622926
-0.000934356
0.000504488
-0.00611104
-0.00136452
0.000256533
-0.00575843
-0.00126975
6.43717e-05
-0.00535678
0.000410554
-0.000134073
-0.00474951
0.00040551
-0.000200732
-0.00483187
0.000401797
-0.000224542
-0.0050693
0.000239504
-8.71021e-05
-0.00493032
3.89017e-05
0.0001322
-0.00465189
-0.000129493
0.000161564
-0.0041499
0.000292072
0.000459184
-0.00502179
0.000242359
0.000695009
-0.00486416
4.08962e-05
0.00082769
-0.00477658
-0.000233832
0.000875976
-0.00480078
-0.000412617
0.000655105
-0.00567005
-0.00109518
0.000350891
-0.00595375
-0.00122248
0.000194447
-0.00566744
0.00029789
-0.000315712
-0.00298236
0.00037462
-0.00037935
-0.00329449
0.000423889
-0.000409205
-0.00333674
0.000214525
-0.000328046
-0.00333583
0.000210174
-0.000224916
-0.00367096
7.7067e-06
-0.000121738
-0.0035642
-0.000199665
-9.25083e-05
-0.0037935
-0.000102092
-0.000109848
-0.00388551
-2.90737e-06
-0.000123112
-0.00370062
4.79725e-05
-0.00010689
-0.00362699
3.01213e-05
0.000213433
-0.00284373
-0.000598977
0.000476003
-0.0045034
-0.000792913
0.000432334
-0.00598727
-0.000942433
0.000343419
-0.00680257
7.25904e-05
-0.00036301
-0.00183
0.000221824
-0.000310029
-0.00220456
0.000281004
-0.000325916
-0.00275344
0.000292526
-0.000301285
-0.00290607
0.000142646
-0.000204583
-0.00294002
1.49407e-05
-0.000130551
-0.00318981
-6.65087e-05
-0.000100609
-0.0029266
-0.000132945
-9.09986e-05
-0.00330274
-0.000167403
-8.05254e-05
-0.00239824
-0.000161339
-0.000105267
-0.00103826
-8.24981e-05
-8.25246e-05
-0.000639032
-4.48578e-05
-4.22029e-06
4.366e-05
-0.000291603
9.96993e-05
-0.000832576
-0.00041574
0.000192727
-0.00257527
-0.000548865
0.000208908
-0.00364543
2.12366e-05
-0.000107283
-0.00051425
7.04755e-05
-9.76049e-05
-0.000665422
8.75413e-05
-9.35558e-05