/*--------------------------------*- C++ -*----------------------------------*\
  =========                 |
  \\      /  F ield         | OpenFOAM: The Open Source CFD Toolbox
   \\    /   O peration     | Website:  https://openfoam.org
    \\  /    A nd           | Version:  7
     \\/     M anipulation  |
\*---------------------------------------------------------------------------*/
FoamFile
{
    version     2.0;
    format      ascii;
    class       volVectorField;
    location    "7";
    object      U;
}
// * * * * * * * * * * * * * * * * * * * * * * * * * * * * * * * * * * * * * //

dimensions      [0 1 -1 0 0 0 0];

internalField   nonuniform List<vector> 
18750
(
(0.780066 1.13994 -0.156622)
(1.16685 -0.682628 -1.31097)
(1.09775 0.635322 -0.751667)
(0.818341 1.17914 -0.177083)
(3.53531 -3.07767 1.00177)
(2.7978 -0.657926 0.45491)
(1.248 -0.893964 -1.03061)
(1.55902 0.929701 -0.33259)
(1.12033 0.613903 -0.737246)
(0.864513 1.20703 -0.191352)
(4.84648 -2.1865 0.780124)
(4.31095 -1.9677 1.46536)
(3.73726 -3.16435 1.18885)
(0.998272 0.65298 1.20754)
(2.97828 -0.673348 0.76811)
(1.36262 -1.52678 -0.0348372)
(0.396598 1.14614 -0.500108)
(1.56211 0.914081 -0.387915)
(1.13352 0.601526 -0.727783)
(0.930717 1.20962 -0.205998)
(3.32763 -2.54238 0.38524)
(5.24519 -0.979755 0.685761)
(5.02756 -2.0423 0.377726)
(2.84785 -1.72628 1.05913)
(4.39865 -1.92405 1.60082)
(4.0449 -2.82166 1.5485)
(0.492005 1.01191 -0.0856768)
(1.18433 0.775907 0.945809)
(3.12193 -0.715542 0.95737)
(1.44489 -1.82698 0.632124)
(0.367984 0.90333 -0.83228)
(0.378821 1.14485 -0.514503)
(1.54468 0.89722 -0.493781)
(1.13979 0.585094 -0.724684)
(0.977304 1.19436 -0.214521)
(2.53913 -0.796081 0.617909)
(4.50023 -1.7922 0.228516)
(3.1983 -2.43813 0.348387)
(3.42742 -3.08539 1.44256)
(5.34896 -0.984637 0.0464066)
(5.02623 -1.81282 0.314151)
(2.33231 0.03736 -1.85554)
(2.64891 -2.37984 1.5572)
(4.40039 -1.95146 1.5545)
(4.26023 -2.58444 1.53799)
(1.07514 0.725761 0.0201406)
(0.478349 1.04152 -0.202975)
(1.36341 0.891307 0.611928)
(3.1337 -0.867202 1.15898)
(1.63841 -1.90995 1.15688)
(0.759733 0.368468 -1.09738)
(0.362599 0.904853 -0.767493)
(0.378051 1.13269 -0.520756)
(1.53118 0.872511 -0.62931)
(1.14332 0.566501 -0.727258)
(1.002 1.14781 -0.214596)
(3.09618 0.729881 0.366086)
(3.68274 -0.552492 1.42913)
(2.45288 -1.21232 0.424002)
(4.32584 -2.73653 0.613403)
(4.67815 -0.376792 0.374332)
(3.35518 -1.8317 0.258448)
(2.27868 -2.13507 0.286649)
(3.5111 -2.52008 2.09538)
(5.40015 -0.862471 -0.0998616)
(4.97279 -1.41265 0.263826)
(1.91736 -0.209914 -1.5517)
(2.40718 -0.112871 -1.45438)
(2.53107 -2.79086 1.95546)
(4.3519 -1.91776 1.49627)
(4.47531 -2.38378 1.31401)
(1.3636 0.467569 0.0647311)
(1.09976 0.547695 -0.197848)
(0.48114 1.05089 -0.245393)
(1.53306 0.93212 0.350943)
(3.13414 -0.928168 1.38993)
(1.91724 -1.73909 1.44615)
(1.20885 0.26982 -1.37802)
(0.768165 0.330786 -1.02912)
(0.358469 0.909164 -0.72234)
(0.377608 1.12141 -0.543246)
(1.53193 0.835917 -0.704928)
(1.13697 0.550617 -0.73829)
(1.00978 1.09185 -0.206867)
(2.87931 1.50879 0.54291)
(3.66508 -0.0308158 1.64745)
(2.88014 -0.425409 0.713968)
(4.43913 -0.783325 0.8698)
(3.41021 -0.0780841 1.49112)
(2.53834 -1.04237 0.300492)
(4.16968 -2.43178 1.82391)
(4.19333 -1.62847 1.1004)
(5.12622 0.669871 0.397982)
(3.51012 -1.4845 0.0905414)
(2.69593 -0.0917503 -0.0467819)
(2.19984 -2.66921 0.99354)
(3.45288 -2.15184 2.39216)
(5.15257 -0.608005 -0.326803)
(5.05012 -1.23288 0.152683)
(1.90114 0.49818 -1.06577)
(1.97837 -0.16688 -1.67339)
(2.35305 -0.515887 -1.0786)
(2.42534 -2.95111 2.33442)
(4.44374 -1.83698 1.52601)
(4.63701 -2.07682 1.29623)
(1.68994 -0.261814 -0.926857)
(1.29071 0.363959 -0.131097)
(1.09509 0.450274 -0.3313)
(0.492261 1.05044 -0.264365)
(1.66592 0.913728 0.210518)
(3.07287 -0.997417 1.59786)
(2.34449 -1.27722 1.52405)
(1.36223 -0.144416 -1.19593)
(1.20227 0.299355 -1.41192)
(0.761448 0.386225 -0.963275)
(0.358432 0.902874 -0.724553)
(0.379005 1.11469 -0.554217)
(1.49319 0.787858 -0.877786)
(1.13793 0.537339 -0.72807)
(0.994095 1.04802 -0.186232)
(2.45525 1.60184 -0.188511)
(2.9646 0.617246 0.719634)
(2.81523 1.40584 0.650278)
(3.59939 0.00732139 1.34951)
(3.79999 0.906283 0.963156)
(2.66566 -0.262078 0.638085)
(4.76909 -1.00451 2.10692)
(4.22972 -0.0789434 1.00795)
(3.35915 -0.28149 1.40659)
(2.66234 -1.0899 0.240594)
(4.25949 -1.92458 1.91081)
(4.13302 -2.32514 2.02767)
(4.50061 -0.500826 1.51191)
(5.27529 0.669424 0.398023)
(3.92054 -0.672375 -0.16406)
(3.20617 0.0229765 -1.34373)
(2.61671 -0.296447 0.241791)
(2.10825 -2.67762 2.04748)
(3.54741 -2.3534 1.95031)
(4.99405 -0.803382 0.453816)
(5.19247 -0.84162 -0.0171531)
(2.04159 0.00702841 -1.01426)
(1.93994 0.289473 -1.12349)
(2.12116 0.0504154 -1.58188)
(2.2369 -0.893535 -0.77945)
(2.37588 -2.91271 2.57151)
(4.60912 -1.68018 1.5733)
(4.93263 -1.53978 1.05511)
(2.2649 -0.610518 -0.230477)
(1.67152 -0.230706 -1.0538)
(1.24114 0.273007 -0.255352)
(1.08119 0.282614 -0.542114)
(0.532838 1.03859 -0.260593)
(1.75009 0.84094 0.2527)
(2.98591 -0.98134 1.71954)
(2.74524 -0.900094 1.49348)
(1.40787 -0.410512 -1.37596)
(1.36976 -0.155488 -1.1814)
(1.22733 0.308866 -1.43851)
(0.75182 0.405644 -0.933788)
(0.370154 0.876918 -0.742037)
(0.369 1.11809 -0.555613)
(1.50483 0.834967 -0.799956)
(1.13253 0.520731 -0.723918)
(0.964853 1.00964 -0.160711)
(2.50965 1.15267 -0.0971713)
(2.89318 0.440916 0.170357)
(2.50297 1.46148 -0.231729)
(3.41855 0.0194551 0.620627)
(3.12387 0.357335 0.596317)
(2.76916 1.25178 0.784973)
(4.16874 -0.628219 1.0238)
(3.66414 0.00234002 1.14984)
(3.56763 0.820315 1.09519)
(2.67249 -0.462086 0.428412)
(4.56095 -1.08276 2.10927)
(4.44723 -1.21373 2.01233)
(4.34424 0.207272 0.911762)
(3.81979 0.190246 1.03327)
(2.8006 -1.22167 0.324135)
(3.48926 -1.95264 1.72044)
(4.49981 -1.41225 2.70652)
(3.97866 -1.48162 2.62642)
(4.32847 -0.851512 0.954611)
(5.11353 0.563984 0.0520061)
(4.18153 -0.266062 -0.184136)
(2.7791 -0.681785 -0.605991)
(3.30855 -0.431465 -0.779144)
(2.30355 -1.25508 1.41371)
(2.10634 -2.6233 2.43017)
(3.63729 -2.07396 2.18382)
(5.11206 -0.802744 0.576245)
(5.20385 0.0317079 -0.433848)
(2.23089 -0.617602 -0.307515)
(2.17012 -0.0637323 -1.14509)
(1.95743 -0.204577 -1.13097)
(2.27383 0.0514752 -1.3972)
(2.0752 -1.17093 -0.438415)
(2.3473 -2.71288 2.69254)
(4.71587 -1.36923 1.57019)
(5.14056 -1.25169 0.843468)
(1.95575 -0.344787 -0.990484)
(2.26365 -0.643553 -0.0974598)
(1.67525 -0.280241 -1.03054)
(1.2159 0.202734 -0.329626)
(1.02988 0.254306 -0.626287)
(0.572067 1.01973 -0.241917)
(1.78582 0.709394 0.362949)
(2.92126 -0.926513 1.8042)
(2.99697 -0.778723 1.43464)
(0.969019 -0.865961 -1.60276)
(1.35561 -0.382353 -1.36542)
(1.36633 -0.166643 -1.17467)
(1.23603 0.271268 -1.45408)
(0.736271 0.45353 -0.925521)
(0.350303 0.857446 -0.765287)
(0.369311 1.12472 -0.549045)
(1.54758 0.887657 -0.676553)
(1.11606 0.512085 -0.728465)
(0.933472 0.983512 -0.1327)
(2.30787 0.957729 -0.115981)
(3.0427 0.298336 -0.0556592)
(2.58676 0.840853 -0.19462)
(3.3159 -0.280468 0.121149)
(2.94828 0.170365 0.233141)
(2.68821 1.22999 -0.364704)
(3.65073 0.516236 0.500735)
(3.36991 -0.532243 0.690582)
(3.32034 0.237789 0.586189)
(2.66647 0.939751 1.04943)
(4.11154 -1.29532 1.93868)
(4.10391 -0.1649 0.986782)
(3.82418 0.102873 0.760438)
(3.40806 0.33358 1.44854)
(2.69785 -0.400472 0.446239)
(4.11004 -1.86797 2.22182)
(4.5601 -1.22563 2.38602)
(4.68402 -0.747236 1.79857)
(4.52586 0.24915 0.696276)
(4.18 1.18695 0.733182)
(3.0994 -1.0021 0.417287)
(3.08231 -0.38887 0.761592)
(3.47862 -2.13657 2.09077)
(4.48722 -1.44915 2.80781)
(3.93785 -1.17129 2.40538)
(4.26272 -0.782355 0.995318)
(5.1137 0.750854 -0.0380561)
(4.31367 -0.409248 -0.225002)
(2.43122 -1.33338 -0.361271)
(2.89702 -0.818563 -0.823025)
(3.24252 -0.762851 0.208701)
(1.83257 -2.22743 2.58986)
(2.25389 -2.53874 2.31053)
(3.53981 -1.65948 2.25422)
(5.26918 -0.32501 -0.0469302)
(5.06943 -0.615195 -0.162965)
(2.05931 -1.24687 -0.963412)
(2.38256 -0.481345 -0.232483)
(2.23906 -0.167227 -1.13919)
(1.88625 -0.554118 -1.30154)
(2.47002 0.0407696 -0.989994)
(1.94543 -1.34022 -0.208621)
(2.46961 -2.54829 2.7237)
(4.82302 -0.972273 1.57984)
(5.05976 -1.58036 0.799547)
(1.98635 -0.704345 -1.04595)
(1.92858 -0.43157 -0.966183)
(2.2556 -0.660569 -0.0792042)
(1.69717 -0.308648 -1.02269)
(1.19408 0.1523 -0.422413)
(1.00702 0.2125 -0.617819)
(0.622439 0.988885 -0.184657)
(1.77505 0.603187 0.51828)
(2.8681 -0.799345 1.86325)
(3.2061 -0.711479 1.37953)
(0.962572 -1.11819 -1.62592)
(0.949932 -0.868472 -1.59772)
(1.3707 -0.33439 -1.34534)
(1.35778 -0.213305 -1.17714)
(1.23961 0.27036 -1.44748)
(0.755603 0.445342 -0.910945)
(0.343276 0.80629 -0.775689)
(0.370541 1.13356 -0.535332)
(1.55508 0.885958 -0.635385)
(1.08804 0.497543 -0.746307)
(0.913133 0.957033 -0.108444)
(1.92375 1.10737 0.191725)
(2.61673 0.308303 0.199724)
(2.16083 1.0144 -0.0700485)
(3.02429 0.113359 -0.00217024)
(3.02644 0.132195 -0.0805687)
(2.55883 0.760588 -0.219469)
(3.40425 -0.329116 0.332154)
(3.31163 -0.403642 0.0353963)
(3.04358 -0.222419 0.40505)
(2.79328 1.08805 -0.443454)
(3.49584 -1.77033 0.969532)
(3.74642 -0.774663 0.153437)
(3.37532 -0.75079 0.396422)
(3.35129 0.124156 0.439699)
(2.58226 0.631347 0.844678)
(3.46468 -2.06253 2.31245)
(4.05801 -1.73067 1.18149)
(4.07157 -0.711427 0.850577)
(3.83326 -0.732848 0.629653)
(3.61223 0.64953 0.78893)
(2.87277 0.120022 0.435876)
(3.21558 -1.85777 2.564)
(4.05997 -2.09219 1.93471)
(4.56541 -1.21904 2.44992)
(4.73326 -0.946062 1.58071)
(4.61023 -0.0990401 0.705478)
(4.44997 0.956702 0.548032)
(3.44152 -0.65966 0.431435)
(3.10293 -0.028344 0.832564)
(2.93837 -1.0787 1.30625)
(3.68781 -2.04356 2.35462)
(4.10653 -1.70846 2.84274)
(3.68922 -2.33736 1.61316)
(4.38251 -0.597294 1.07288)
(5.18014 0.849574 0.291557)
(4.49046 -0.340837 -0.166205)
(2.90553 -1.46514 -0.697185)
(2.52914 -1.28729 -0.357162)
(2.99319 -0.70474 -0.601631)
(3.03302 -1.06332 0.494101)
(1.55672 -2.68583 2.8134)
(2.23345 -2.65816 2.09971)
(3.60658 -1.44591 2.10415)
(5.18717 -0.458638 0.469168)
(5.17526 -0.311868 -0.250854)
(2.1957 -1.09581 -1.74098)
(2.01959 -1.13818 -0.87561)
(2.48499 -0.372285 -0.525357)
(2.31533 -0.180982 -1.02772)
(2.18992 -0.0571132 -1.25093)
(2.63961 -0.0936537 -0.416471)
(1.71078 -1.79217 0.438384)
(2.55647 -2.47689 2.74828)
(4.86458 -1.5002 1.20794)
(5.21745 -1.33892 1.00647)
(1.69976 -1.44172 -1.69003)
(1.96706 -0.768311 -1.00925)
(1.93548 -0.460706 -0.935226)
(2.24897 -0.678598 -0.0965161)
(1.71456 -0.336362 -1.02592)
(1.15637 0.149413 -0.491036)
(0.98695 0.262551 -0.548207)
(0.677275 0.946341 -0.0935838)
(1.7459 0.502288 0.755876)
(2.86866 -0.607122 1.80466)
(3.37475 -0.633919 1.29729)
(0.569108 -0.942423 -2.53566)
(0.963184 -1.05896 -1.59239)
(0.969777 -0.903755 -1.58587)
(1.3438 -0.355809 -1.34932)
(1.3653 -0.224416 -1.18713)
(1.22482 0.222006 -1.46702)
(0.737865 0.472526 -0.926849)
(0.3048 0.782645 -0.770046)
(0.368794 1.14404 -0.508886)
(1.52429 0.881708 -0.582283)
(1.04927 0.477754 -0.768311)
(0.87158 0.953534 -0.0920921)
(1.40426 1.73232 0.086176)
(2.22531 0.808891 0.192551)
(1.86686 1.05689 0.13961)
(2.66712 0.595601 0.0536446)
(2.49921 0.229512 0.100486)
(2.24586 0.683505 -0.0581452)
(3.07037 -0.0437485 0.376317)
(2.87137 -0.12566 -0.103531)
(3.02762 0.0700078 -0.103729)
(2.617 0.417943 -0.197292)
(3.41634 -0.310084 0.33948)
(3.3786 -0.63437 0.448518)
(3.26279 -0.48119 0.0436718)
(3.14823 -0.320075 0.454669)
(2.84665 0.848987 -0.0493457)
(3.77652 -0.961698 1.26636)
(4.00802 0.513594 0.46292)
(3.77752 -0.559981 0.175422)
(3.34376 -0.845502 0.222904)
(3.32551 0.113832 0.317359)
(2.5814 0.387583 0.753812)
(3.8703 -1.00421 2.49538)
(3.80568 -1.59314 1.99699)
(4.21798 -1.30606 1.00806)
(4.15898 -0.539092 0.659979)
(4.10375 -0.524155 0.403504)
(3.8041 0.376137 0.565338)
(3.04274 0.311879 0.52748)
(3.15283 -1.35414 1.82542)
(3.50804 -1.51268 2.46126)
(3.901 -2.33595 1.7638)
(4.56339 -1.49971 2.2012)
(4.5767 -1.61377 1.1724)
(4.64541 -0.0708908 0.746511)
(4.63487 0.920865 0.562296)
(3.77057 -0.478538 0.332509)
(3.3928 -1.03874 0.739692)
(2.76514 -1.14618 0.63082)
(2.85789 -1.25215 1.99987)
(3.72634 -2.32712 2.29812)
(3.73415 -1.97017 2.74943)
(3.78237 -1.67081 1.75034)
(4.17498 -0.908893 1.06684)
(5.18668 0.613055 0.211195)
(4.60859 -0.251322 -0.176266)
(3.28126 -1.40286 -0.628592)
(2.79332 -1.79699 0.210778)
(2.56847 -1.14962 -0.262804)
(3.12667 -0.615796 -0.162934)
(2.43296 -2.13842 1.79396)
(1.56055 -2.82898 2.625)
(2.25995 -2.50246 2.21029)
(3.81387 -1.33423 1.86852)
(5.16118 -0.676414 0.623157)
(5.12696 -0.315321 -0.148002)
(1.88632 -1.89524 -1.37245)
(2.18819 -1.30619 -1.43843)
(2.00034 -1.27379 -0.524672)
(2.52099 -0.519059 -0.619764)
(2.34897 -0.158565 -0.931902)
(2.34765 -0.169769 -1.33923)
(2.72052 -0.325832 0.135279)
(1.52612 -1.99068 0.887056)
(3.12425 -0.878141 3.04127)
(4.88227 -1.15787 1.60812)
(5.42816 -1.34732 0.685242)
(1.5092 -1.32396 -2.5318)
(1.65821 -1.58553 -1.41082)
(1.91614 -1.15189 -0.727837)
(1.96492 -0.47678 -0.893416)
(2.23812 -0.698701 -0.145377)
(1.71359 -0.352997 -0.995039)
(1.11354 0.117282 -0.606832)
(0.969185 0.314212 -0.478366)
(0.71766 0.894317 0.0174655)
(1.67145 0.463066 0.796412)
(2.87904 -0.498648 1.75578)
(3.49689 -0.606013 1.25641)
(0.267488 -1.09886 -2.47795)
(0.531132 -1.00322 -2.52255)
(0.971337 -1.01268 -1.56474)
(0.911096 -1.03867 -1.52541)
(1.33308 -0.394652 -1.34059)
(1.34553 -0.263341 -1.19879)
(1.19618 0.193162 -1.48655)
(0.746242 0.469257 -0.924416)
(0.288583 0.748436 -0.759474)
(0.367581 1.15291 -0.474318)
(1.53295 0.828249 -0.684501)
(0.997967 0.454151 -0.796639)
(0.807814 0.97492 -0.0799814)
(1.93823 0.731896 -0.0575093)
(2.27078 0.630012 0.13337)
(1.89147 1.0107 0.235991)
(2.30102 0.568487 0.3957)
(2.15532 0.676083 0.0854033)
(1.95039 0.824107 0.203842)
(2.75299 0.244427 0.460831)
(2.67542 0.431598 0.136071)
(2.47381 0.190914 0.0111739)
(2.20218 0.617606 -0.0986595)
(3.1104 0.0190624 0.369829)
(3.01068 -0.0095864 0.35419)
(2.79151 -0.356497 -0.0598843)
(2.98976 0.0853379 -0.13835)
(2.59799 0.413136 -0.178907)
(3.67651 -0.495654 0.770497)
(3.42951 -0.348291 0.231572)
(3.2973 -0.645602 0.37811)
(3.20592 -0.610883 -0.0215267)
(3.18324 -0.256296 0.457354)
(2.92099 0.661076 -0.0238523)
(3.87267 -1.52311 1.58335)
(3.74978 -0.979711 1.17563)
(3.81866 -0.830418 0.461273)
(3.53706 -0.979618 0.140109)
(3.39063 -0.764606 0.219623)
(3.38475 -0.0127195 0.285546)
(2.74323 0.269337 0.609104)
(3.76301 -1.27813 2.58779)
(3.07281 -2.31808 2.64663)
(3.74256 -1.85102 1.9448)
(4.13965 -1.68362 0.892049)
(4.29611 -0.704975 0.385125)
(4.13081 -0.536584 0.374202)
(4.0371 0.322037 0.295442)
(3.21188 0.286588 0.440549)
(3.17113 -1.0207 1.89667)
(3.19112 -0.591128 2.30869)
(3.33009 -2.1618 2.46664)
(3.90179 -2.15857 1.7656)
(4.5022 -1.8865 1.89211)
(4.54392 -1.41818 1.22877)
(4.59045 -0.961559 0.637848)
(4.68591 0.68632 0.732501)
(4.09268 -0.416721 0.281411)
(3.92533 -1.38616 0.816084)
(3.35086 -1.23469 0.881219)
(2.90848 -0.246091 1.30938)
(2.85833 -1.60212 2.19188)
(3.8402 -2.07295 2.57802)
(3.6562 -2.01961 2.72214)
(3.40737 -2.44873 1.38043)
(4.12983 -0.842783 1.06555)
(5.1493 0.540439 0.0808992)
(4.70193 -0.19419 -0.127078)
(3.11488 -1.53828 -1.00747)
(3.01627 -1.87136 -0.237069)
(2.79609 -1.43465 -0.0257442)
(2.77325 -0.752583 -0.0502515)
(2.93475 -1.32056 0.52622)
(2.08311 -2.70194 2.32196)
(1.64259 -2.87116 2.50073)
(2.4481 -2.18411 2.24133)
(4.2212 -0.769793 1.19026)
(5.23917 -0.472487 0.468999)
(5.13047 -0.397425 -0.0782442)
(1.84442 -2.13373 -1.62638)
(1.97196 -1.56036 -1.46993)
(2.16835 -1.29612 -1.17321)
(2.00288 -1.23251 -0.445325)
(2.59414 -0.48731 -0.539263)
(2.4758 -0.222232 -0.632203)
(2.44665 -0.301543 -1.32082)
(2.58265 -0.638403 0.203158)
(1.39532 -1.87697 1.21771)
(2.68874 -1.87548 2.49177)
(4.78307 -1.41163 1.68656)
(5.56794 -1.33915 0.852596)
(1.40732 -1.24709 -2.38698)
(1.51423 -1.45163 -2.42948)
(1.59 -1.56016 -1.30897)
(1.88134 -1.11377 -0.703729)
(1.97523 -0.464507 -0.848746)
(2.21839 -0.711262 -0.254344)
(1.71756 -0.34467 -0.947087)
(1.08246 0.118864 -0.684409)
(0.923057 0.308606 -0.453751)
(0.724987 0.831801 0.125286)
(1.6416 0.431292 0.934344)
(2.87037 -0.466222 1.79931)
(3.54964 -0.627896 1.23473)
(0.424695 -0.991354 -1.96917)
(0.299468 -1.00472 -2.56166)
(0.546995 -0.993315 -2.52136)
(0.961197 -1.00237 -1.53062)
(0.883601 -0.990384 -1.51624)
(1.28294 -0.477779 -1.35755)
(1.31514 -0.315341 -1.21277)
(1.1581 0.113577 -1.52617)
(0.721195 0.482851 -0.926015)
(0.271831 0.763626 -0.71144)
(0.363416 1.15442 -0.440202)
(1.51559 0.818169 -0.724096)
(0.941171 0.443558 -0.826509)
(0.751913 0.987781 -0.072317)
(1.42987 1.28502 0.0147081)
(2.11596 0.712509 -0.115921)
(1.87668 0.722189 -0.00282929)
(2.31025 0.637561 0.119815)
(2.15904 0.781926 0.00694389)
(1.86809 0.914609 0.0484952)
(2.40693 0.257866 0.271484)
(2.31728 0.368624 0.438311)
(2.15284 0.563958 0.101373)
(1.96619 0.723619 0.135645)
(2.80643 0.128805 0.347331)
(2.71586 0.138932 0.529314)
(2.68269 0.0635451 0.175645)
(2.47254 0.231139 -0.0382183)
(2.15421 0.691468 0.0190052)
(3.15067 0.0338283 0.46338)
(3.04022 -0.0694191 0.46513)
(2.90291 -0.170563 0.329143)
(2.75359 -0.58001 0.0475036)
(3.0114 0.142892 -0.12747)
(2.62358 0.39818 -0.196544)
(3.71962 -0.682391 1.02954)
(3.64469 -0.501152 0.520048)
(3.4555 -0.448977 0.238103)
(3.44917 -0.0491036 0.279356)
(3.17906 -0.586554 -0.0384153)
(3.13539 -0.312815 0.638505)
(2.99229 0.453607 -0.0628814)
(4.08925 -1.00427 1.58219)
(3.81457 -0.844506 1.4681)
(3.49194 -1.65812 1.1954)
(3.86978 -0.499478 0.300267)
(3.52186 -0.997303 0.252709)
(3.71628 -0.397885 0.119819)
(3.44037 -0.0845167 0.310319)
(2.92604 0.168816 0.442088)
(4.00605 -0.998626 2.58636)
(3.73959 -1.32876 2.51807)
(3.66029 -1.30272 2.22901)
(3.88608 -1.83537 1.31875)
(4.22581 -1.41083 0.902438)
(4.34992 -0.836111 0.410879)
(4.11869 -0.598349 0.286476)
(4.09974 0.230125 0.409117)
(3.39858 0.178448 0.395306)
(3.49065 -0.65838 1.89028)
(3.29231 -0.851878 2.11994)
(3.02756 -1.28952 2.66324)
(3.51706 -2.04352 2.49203)
(3.7185 -2.4106 2.0866)
(4.46289 -2.04978 1.82526)
(4.31584 -1.59598 1.25312)
(4.7947 -0.644495 0.748652)
(4.81706 0.0683325 0.824923)
(4.33468 -0.517647 0.267192)
(4.22066 -1.55225 0.965536)
(3.66638 -1.37974 0.98928)
(3.12924 -0.565872 1.79421)
(2.86889 -0.444616 1.71249)
(2.83261 -2.07818 2.21323)
(3.79877 -1.92869 2.74325)
(3.50262 -2.47989 2.60108)
(3.62504 -2.10205 1.40029)
(4.23088 -1.18345 1.00375)
(5.06453 0.151527 0.0716854)
(4.7279 -0.301246 -0.0753385)
(3.02497 -1.45878 -0.843748)
(3.05181 -1.62851 -0.819484)
(2.92331 -1.72925 -0.0734695)
(2.7036 -1.48956 0.0193813)
(2.66773 -1.00017 0.155979)
(2.79631 -1.46586 1.73149)
(1.97168 -2.81874 2.25391)
(1.97014 -2.88919 2.38721)
(2.55742 -1.98983 2.3295)
(3.94707 -0.757012 0.991421)
(5.11967 -0.569607 0.761204)
(5.17529 -0.540064 0.0192205)
(1.84065 -1.8022 -1.62277)
(1.75928 -2.22084 -1.63219)
(1.9538 -1.47891 -1.3475)
(2.07947 -1.34373 -0.917362)
(2.07205 -1.11859 -0.47831)
(2.6156 -0.469955 -0.418697)
(2.64033 -0.355091 -0.510073)
(2.48909 -0.434793 -1.25432)
(2.332 -1.07859 0.0154994)
(1.23942 -1.83226 1.37851)
(2.97301 -1.51325 2.52544)
(4.77311 -1.3863 1.7339)
(5.55681 -1.47061 0.875299)
(1.22814 -1.22619 -1.95729)
(1.43489 -1.43777 -2.38586)
(1.47826 -1.69116 -2.19849)
(1.56563 -1.50957 -1.19193)
(1.90944 -0.982822 -0.720883)
(1.98541 -0.405332 -0.84357)
(2.19317 -0.716664 -0.334086)
(1.76233 -0.292613 -0.853937)
(1.0441 0.112283 -0.771031)
(0.891941 0.291243 -0.431932)
(0.700473 0.743909 0.230114)
(1.63069 0.471403 1)
(2.78194 -0.174578 1.93709)
(3.53164 -0.675538 1.18144)
(0.347735 -0.626217 -1.88165)
(0.449692 -0.960003 -2.07556)
(0.330886 -0.912621 -2.63084)
(0.503319 -1.09094 -2.48218)
(0.945964 -1.02553 -1.4915)
(0.862276 -1.05859 -1.44938)
(1.22524 -0.51083 -1.37653)
(1.30399 -0.325507 -1.21509)
(1.13485 0.102102 -1.54292)
(0.710448 0.466128 -0.943521)
(0.242733 0.727605 -0.744236)
(0.355706 1.14748 -0.407776)
(1.45424 0.757857 -0.92585)
(0.86423 0.425601 -0.883245)
(0.689476 0.997968 -0.0740674)
(1.65557 0.681694 -0.0521162)
(1.9094 0.687297 0.220591)
(1.57807 1.0824 0.0468837)
(2.14649 0.834041 -0.0746794)
(2.14863 0.470742 -0.00537516)
(1.89341 0.636641 0.0285529)
(2.33008 0.23848 0.218227)
(2.26732 0.433717 0.082242)
(2.22374 0.447049 -0.0228692)
(1.98808 0.785537 0.011444)
(2.42369 0.0364811 0.280161)
(2.33221 0.235332 0.256486)
(2.3231 0.346862 0.430904)
(2.15964 0.479148 0.0932818)
(1.99364 0.631858 0.120668)
(2.73416 0.203805 0.42384)
(2.81234 0.0710327 0.336546)
(2.75631 0.108638 0.521142)
(2.64466 -0.0230622 0.100554)
(2.46725 0.178378 -0.0749805)
(2.1831 0.494744 0.0389287)
(3.15458 -0.306346 0.715692)
(3.08216 -0.088611 0.563162)
(2.98095 -0.176263 0.367896)
(2.89357 -0.26198 0.293808)
(2.65898 -0.771828 -0.0371352)
(3.07423 0.133536 -0.144559)
(2.66298 0.388136 -0.251235)
(3.86396 -0.670869 1.10453)
(3.6908 -0.726333 1.00411)
(3.53484 -0.526468 0.473932)
(3.41894 -0.354217 0.333362)
(3.39119 -0.309574 0.328341)
(3.24976 -0.611452 0.0100993)
(3.10532 -0.22922 0.781483)
(3.01948 0.261097 -0.032736)
(4.42913 -0.812169 1.38006)
(3.9418 -0.8721 1.47976)
(3.72409 -1.19641 1.45022)
(3.7898 -0.697303 0.986083)
(3.78287 -0.95179 0.307383)
(3.57187 -0.984629 0.476242)
(3.76842 -0.695949 0.127752)
(3.52908 -0.23517 0.202968)
(3.08398 0.0156721 0.387295)
(3.87889 -0.623568 2.61958)
(3.9428 -1.08111 2.62363)
(3.7591 -1.48601 2.37941)
(3.48785 -1.98087 2.1125)
(3.75942 -2.00154 1.19205)
(4.3127 -1.19331 0.854145)
(4.33158 -0.936074 0.410757)
(4.2455 -0.839268 0.125903)
(4.18152 -0.121507 0.428048)
(3.5778 0.0165956 0.221196)
(3.94495 -1.20824 2.07135)
(3.46032 -0.523369 2.30248)
(3.10715 -0.697851 2.62535)
(3.37462 -1.77391 2.53157)
(3.6256 -2.50346 2.03109)
(3.91693 -2.34866 2.0461)
(4.18746 -2.39986 1.81601)
(4.20134 -1.70802 1.3505)
(4.7945 -0.865709 0.817184)
(4.81892 -0.301213 0.852317)
(4.36276 -0.904588 0.415515)
(4.18693 -1.55965 1.12941)
(3.8607 -2.2157 0.829691)
(3.61075 -1.5899 0.997972)
(3.08105 -0.93503 1.42974)
(2.6102 -0.922663 2.26353)
(2.74498 -2.51463 2.4033)
(3.5778 -1.98931 2.77662)
(2.63119 -3.34565 2.32751)
(3.92565 -1.62534 1.5608)
(4.33542 -1.22865 1.02722)
(5.0171 -0.210826 0.11974)
(4.7826 -0.404535 0.0275644)
(2.9197 -1.27631 -0.523568)
(2.90478 -1.55351 -0.727311)
(2.95822 -1.58312 -0.734797)
(2.9953 -1.65568 0.108383)
(2.79045 -1.41285 0.208673)
(2.68518 -0.830406 0.431104)
(2.7684 -1.803 2.02259)
(2.02596 -2.83536 2.3018)
(1.98409 -2.69364 2.62099)
(2.68809 -1.77149 2.55192)
(3.27265 -2.42676 1.543)
(4.97356 -0.884804 0.917961)
(5.12415 -0.484777 0.0228637)
(1.78216 -1.32955 -1.23993)
(1.84421 -1.91477 -1.74025)
(1.72966 -2.24108 -1.64192)
(1.81493 -1.50529 -1.21762)
(2.0954 -1.29255 -0.70835)
(2.09263 -1.1147 -0.41592)
(2.62194 -0.455605 -0.391095)
(2.64726 -0.491695 -0.541613)
(2.5761 -0.622381 -1.06285)
(2.02773 -1.43709 -0.0864257)
(1.02615 -1.76679 1.86979)
(3.49588 -0.942832 2.02082)
(4.68549 -1.44866 1.77691)
(5.48839 -1.68673 0.954947)
(1.2391 -0.401057 -2.44059)
(1.20947 -1.36709 -2.0476)
(1.43792 -1.63962 -2.31644)
(1.43626 -1.81462 -1.98331)
(1.57528 -1.36487 -1.13999)
(1.97575 -0.8268 -0.744256)
(2.07114 -0.315139 -0.759919)
(2.16808 -0.727655 -0.421726)
(1.80472 -0.252919 -0.736069)
(1.03644 0.1339 -0.775743)
(0.865572 0.279922 -0.411653)
(0.64669 0.646165 0.317897)
(1.57953 0.520489 1.06141)
(2.73763 -0.292958 1.77554)
(3.45812 -0.750753 1.11661)
(0.332973 -0.220308 -2.29072)
(0.335906 -0.660929 -1.83471)
(0.47995 -0.908302 -2.17983)
(0.366431 -0.858901 -2.69478)
(0.428828 -1.28213 -2.37206)
(0.938361 -1.04384 -1.45887)
(0.903505 -0.91457 -1.48366)
(1.28355 -0.367502 -1.34403)
(1.29807 -0.323772 -1.21703)
(1.10576 0.0834904 -1.55857)
(0.701639 0.4691 -0.949146)
(0.240813 0.724051 -0.756342)
(0.343317 1.13844 -0.375639)
(1.4501 0.720129 -1.02189)
(0.780398 0.409389 -0.940835)
(0.615581 1.00741 -0.0864977)
(1.27903 1.20678 0.0877283)
(1.82524 0.711402 0.041029)
(1.66018 0.748352 -0.0342869)
(1.93455 0.851609 0.106561)
(1.95986 0.61567 0.17824)
(1.71253 0.90827 0.0286866)
(2.15557 0.281149 0.206812)
(2.15573 0.768383 -0.104833)
(2.14541 0.376342 0.0963744)
(1.93772 0.531031 0.0551263)
(2.29411 0.291176 0.270211)
(2.18991 0.239104 0.197012)
(2.27997 0.347071 0.153511)
(2.1707 0.284399 0.116333)
(2.03978 0.637555 0.0245097)
(2.42709 0.204152 0.478601)
(2.41143 0.0885264 0.319156)
(2.34351 0.148291 0.325316)
(2.29059 0.231369 0.327549)
(2.19626 0.346259 0.0710768)
(2.04281 0.423628 0.133084)
(2.78717 0.122136 0.498729)
(2.80435 0.00430573 0.448932)
(2.78563 0.121083 0.34454)
(2.79802 0.254789 0.525232)
(2.64433 -0.0156119 0.073912)
(2.54278 0.00389823 0.00239942)
(2.22761 0.364834 0.0281653)
(3.31621 -0.250843 0.836075)
(3.11266 -0.360896 0.709563)
(3.00566 -0.361969 0.652054)
(2.93833 -0.329057 0.359517)
(2.82659 -0.662239 0.114817)
(2.62705 -0.733063 -0.023295)
(3.10145 0.122316 -0.240063)
(2.70982 0.436724 -0.265262)
(3.8387 -0.410109 1.19579)
(3.85515 -0.277761 1.07522)
(3.7737 -0.00573932 0.603428)
(3.55237 -0.273548 0.307175)
(3.46601 -0.529806 0.189449)
(3.44924 -0.306692 0.217107)
(3.34742 -0.693535 -0.0235597)
(3.12982 -0.184437 0.646628)
(3.02243 0.169379 -0.0896917)
(4.50076 -0.368305 1.29267)
(4.22464 -0.678908 1.34331)
(3.88505 -1.11238 1.55239)
(3.09063 -2.05378 1.77448)
(3.53506 -1.33796 0.938908)
(3.71635 -1.11088 0.435406)
(3.55557 -0.983605 0.540436)
(3.69629 -0.978482 0.0952624)
(3.59376 -0.321555 0.283422)
(3.24751 -0.0916767 0.0926897)
(4.10664 -0.624584 2.82717)
(4.02067 -0.929522 2.77624)
(3.77727 -1.31375 2.63562)
(3.69099 -1.71795 2.36056)
(3.39579 -2.31867 1.61479)
(3.61291 -2.31794 1.11062)
(4.14795 -1.80492 0.604933)
(4.25202 -1.23597 0.334746)
(4.33291 -1.05042 0.209001)
(4.18884 -0.274837 0.524441)
(3.80998 -0.0971981 -0.0218403)
(4.21139 -0.982804 2.57834)
(3.87917 -0.353067 2.58991)
(3.14642 -1.5417 2.45199)
(3.33097 -1.25483 2.36614)
(3.50864 -1.34799 2.87122)
(3.42178 -2.40539 2.26169)
(3.80857 -2.50079 1.84663)
(3.70941 -2.69289 1.7337)
(4.21735 -1.81705 1.33202)
(4.65248 -0.901148 0.969434)
(4.67321 -0.964691 0.650699)
(4.21161 -1.3608 1.02992)
(4.34715 -1.60007 1.11827)
(4.04597 -1.71517 1.30271)
(3.79779 -2.02706 1.11328)
(3.42688 -1.47001 1.57506)
(2.93557 -0.829897 1.86869)
(2.7289 -0.825241 2.71845)
(2.64575 -2.87352 2.44479)
(3.51896 -2.03185 2.74077)
(3.9847 -1.50848 2.22972)
(3.88581 -1.8438 1.40357)
(4.26147 -1.23235 1.07508)
(4.96415 -0.819048 0.291474)
(4.90344 -0.699808 -0.0423533)
(3.03702 -1.0155 -0.23874)
(2.95794 -1.2681 -0.459684)
(2.85082 -1.63528 -0.602703)
(3.05905 -1.45751 -0.574785)
(2.61402 -2.07575 0.616506)
(2.8064 -1.09508 0.569527)
(2.62894 -0.82742 0.850797)
(2.72477 -2.12901 2.03329)
(2.07155 -2.7314 2.54121)
(2.17317 -2.39352 2.71301)
(2.66803 -1.81454 2.48058)
(4.45588 -0.800498 1.28967)
(4.91421 -1.00519 1.1277)
(5.07579 -1.31508 0.28001)
(1.67675 -0.641357 -1.4498)
(1.76958 -1.43584 -1.41091)
(1.73824 -2.10727 -1.78712)
(1.67799 -2.20707 -1.60397)
(1.82687 -1.36254 -1.13035)
(2.1216 -1.17153 -0.598056)
(2.07504 -1.07433 -0.409332)
(2.64505 -0.476817 -0.35096)
(2.746 -0.656337 0.146571)
(2.60784 -0.746561 -0.814086)
(1.74284 -1.6102 0.0342673)
(1.03141 -1.77241 1.94508)
(3.28838 -1.08923 2.09812)
(4.4261 -1.6073 1.97322)
(5.5641 -1.90112 1.08429)
(1.05646 -0.320314 -2.61435)
(1.02108 -1.0094 -2.32566)
(1.24685 -1.28332 -2.22884)
(1.42173 -1.76726 -2.22791)
(1.38572 -1.86983 -1.79558)
(1.574 -1.22913 -1.0233)
(1.88174 -0.920511 -0.706663)
(2.08758 -0.211059 -0.861292)
(2.1414 -0.754956 -0.472414)
(1.82085 -0.241421 -0.664259)
(1.03571 0.153834 -0.75664)
(0.838178 0.270093 -0.385606)
(0.599217 0.583515 0.381798)
(1.54534 0.607583 1.21071)
(2.55701 -0.233153 1.83114)
(3.2961 -0.842232 1.07883)
(-0.00526285 -0.011041 -2.17567)
(0.321356 -0.279662 -2.30017)
(0.328375 -0.716207 -1.80755)
(0.520157 -0.843229 -2.28438)
(0.376666 -0.870418 -2.73594)
(0.417751 -1.24092 -2.31801)
(0.879486 -1.07358 -1.43282)
(0.91823 -0.819971 -1.48299)
(1.26322 -0.360095 -1.33421)
(1.30827 -0.308878 -1.21148)
(1.09226 0.0626827 -1.56714)
(0.674238 0.475856 -0.965337)
(0.222521 0.765318 -0.731067)
(0.337334 1.12666 -0.347158)
(1.38626 0.677232 -1.11749)
(0.694108 0.389032 -1.01518)
(0.531021 1.0099 -0.108728)
(1.44723 0.749871 -0.10433)
(1.76646 0.653251 0.0868657)
(1.52989 0.832295 0.0684633)
(1.97438 0.472366 0.0554026)
(1.9176 0.573695 0.0109225)
(1.71583 0.674002 -0.0450343)
(1.95358 0.734035 0.0313705)
(2.01899 0.545096 0.297298)
(1.99768 0.445895 0.118079)
(1.74357 0.889606 0.0088036)
(2.18901 0.484479 0.301809)
(2.12602 0.804272 0.113853)
(2.18663 0.603753 -0.114323)
(2.1459 0.336106 0.159324)
(1.97843 0.391923 0.0542379)
(2.26757 0.67798 0.508864)
(2.22649 0.231462 0.333646)
(2.20327 0.075603 0.258096)
(2.30533 0.31844 0.0477361)
(2.18693 0.101098 0.0692916)
(2.07726 0.364355 0.0416599)
(2.46652 0.216749 0.636862)
(2.41873 -0.0502219 0.412375)
(2.41741 0.0553274 0.328552)
(2.38599 0.166496 0.383549)
(2.2691 0.125736 0.235588)
(2.32635 0.160288 0.0228447)
(2.09409 0.328778 0.154558)
(2.85172 0.0246806 0.729657)
(2.75425 -0.0769391 0.543286)
(2.78101 0.0342158 0.487821)
(2.75868 0.0914243 0.533286)
(2.79452 0.235736 0.545289)
(2.71626 -0.113247 0.0934563)
(2.6656 -0.0245951 -0.0567309)
(2.32926 0.215466 0.0199008)
(3.30157 -0.169256 1.01348)
(3.30416 -0.438409 0.78155)
(3.1662 -0.551218 0.651102)
(3.00733 -0.325814 0.554048)
(2.90639 -0.391085 0.364683)
(2.79565 -0.594412 0.241533)
(2.64887 -0.813994 0.107412)
(3.06639 -0.0362855 -0.185881)
(2.71489 0.533114 -0.153785)
(3.93395 -0.332886 1.18688)
(3.71782 -0.572569 1.10484)
(3.64073 -1.24812 0.902503)
(3.31748 -1.4296 0.735242)
(3.44329 -0.612159 0.536641)
(3.43759 -0.539891 0.174502)
(3.47326 -0.351275 0.168513)
(3.3337 -0.721494 -0.0872428)
(3.22316 -0.372809 0.600794)
(3.04986 0.0375472 -0.192995)
(4.43733 -0.727175 1.28382)
(4.49227 -0.600331 1.17672)
(4.11302 -0.555987 1.4524)
(3.37881 -1.53088 1.8604)
(3.53835 -1.03434 1.29743)
(3.53029 -1.16174 0.94983)
(3.53483 -1.39081 0.500278)
(3.56851 -1.35746 0.262147)
(3.72049 -1.26207 0.033321)
(3.56793 -0.603278 0.387571)
(3.37237 -0.268314 -0.101668)
(4.35455 -0.617158 2.92374)
(4.07769 -0.710504 2.90621)
(3.90117 -1.14915 2.79035)