/*--------------------------------*- C++ -*----------------------------------*\
  =========                 |
  \\      /  F ield         | OpenFOAM: The Open Source CFD Toolbox
   \\    /   O peration     | Website:  https://openfoam.org
    \\  /    A nd           | Version:  7
     \\/     M anipulation  |
\*---------------------------------------------------------------------------*/
FoamFile
{
    version     2.0;
    format      ascii;
    class       volVectorField;
    location    "7";
    object      U_0;
}
// * * * * * * * * * * * * * * * * * * * * * * * * * * * * * * * * * * * * * //

dimensions      [0 1 -1 0 0 0 0];

internalField   nonuniform List<vector> 
18750
(
(0.781728 1.12513 -0.161899)
(1.14796 -0.673372 -1.34455)
(1.09795 0.63613 -0.761462)
(0.820282 1.16353 -0.182099)
(3.51063 -3.04458 1.00533)
(2.7728 -0.618969 0.347478)
(1.2298 -0.884198 -1.07013)
(1.5538 0.91755 -0.336494)
(1.11997 0.615131 -0.746781)
(0.864662 1.19388 -0.194051)
(4.81639 -2.23801 0.828243)
(4.30015 -2.0015 1.44708)
(3.69771 -3.19674 1.13696)
(0.973539 0.646121 1.21206)
(2.94708 -0.689053 0.712587)
(1.34275 -1.46978 -0.158798)
(0.402601 1.14173 -0.504084)
(1.56574 0.906415 -0.393542)
(1.13118 0.600046 -0.737214)
(0.926451 1.19962 -0.208904)
(3.32196 -2.58714 0.372409)
(5.24027 -1.02387 0.738414)
(5.02665 -2.07664 0.386884)
(2.84888 -1.64863 0.951019)
(4.38863 -1.94303 1.58594)
(3.99734 -2.89422 1.51408)
(0.491603 0.999767 -0.0816136)
(1.15378 0.758148 0.969771)
(3.10179 -0.712619 0.9116)
(1.41781 -1.80651 0.535733)
(0.37182 0.900564 -0.833414)
(0.386078 1.14094 -0.518911)
(1.54858 0.894525 -0.464212)
(1.14027 0.583097 -0.734351)
(0.98066 1.18451 -0.218752)
(2.56482 -0.780355 0.621885)
(4.49458 -1.93893 0.233878)
(3.19336 -2.49307 0.351066)
(3.40101 -3.14822 1.36747)
(5.33918 -1.02549 0.143528)
(5.02824 -1.89503 0.321644)
(2.33095 0.0229131 -1.86281)
(2.65096 -2.32827 1.49195)
(4.40027 -1.97086 1.55749)
(4.22503 -2.64862 1.5694)
(1.07139 0.734894 0.0363064)
(0.477879 1.03041 -0.204673)
(1.33114 0.874364 0.643723)
(3.12488 -0.858006 1.09957)
(1.58996 -1.92551 1.07844)
(0.757576 0.37281 -1.10468)
(0.366212 0.902308 -0.766004)
(0.382483 1.12795 -0.524127)
(1.531 0.861632 -0.620443)
(1.14428 0.564607 -0.736979)
(1.00652 1.14446 -0.220352)
(3.11203 0.759413 0.351063)
(3.71355 -0.579826 1.42224)
(2.46194 -1.23053 0.432135)
(4.33059 -2.80502 0.666853)
(4.64419 -0.486799 0.366591)
(3.33256 -1.90668 0.27468)
(2.26726 -2.07093 0.237708)
(3.48242 -2.63008 2.00653)
(5.41364 -0.900082 -0.0677638)
(4.96988 -1.48248 0.279315)
(1.9124 -0.202332 -1.53359)
(2.41225 -0.0971415 -1.49253)
(2.52926 -2.76734 1.89638)
(4.34314 -1.94656 1.4981)
(4.44146 -2.45663 1.34259)
(1.37045 0.47149 0.0890308)
(1.09745 0.551756 -0.182958)
(0.479823 1.04064 -0.251171)
(1.50613 0.92318 0.368485)
(3.13283 -0.923002 1.32122)
(1.853 -1.80331 1.40844)
(1.21358 0.261389 -1.37802)
(0.769199 0.32663 -1.03583)
(0.361547 0.906549 -0.720353)
(0.381717 1.11622 -0.547304)
(1.53977 0.8318 -0.665996)
(1.13611 0.548229 -0.750891)
(1.01448 1.08723 -0.215831)
(2.8826 1.50525 0.544159)
(3.66502 -0.0877297 1.68012)
(2.90171 -0.417894 0.703322)
(4.46822 -0.8472 0.883065)
(3.4249 -0.10031 1.49532)
(2.5424 -1.05983 0.302078)
(4.17694 -2.45213 1.80694)
(4.15636 -1.81865 1.02085)
(5.10296 0.588198 0.385306)
(3.48939 -1.54415 0.100684)
(2.71103 -0.0797434 -0.0503205)
(2.19638 -2.65657 0.897233)
(3.43021 -2.17788 2.42426)
(5.17096 -0.62814 -0.415787)
(5.04007 -1.29469 0.171631)
(1.89906 0.506159 -1.05316)
(1.96862 -0.187802 -1.68212)
(2.36602 -0.493028 -1.10776)
(2.41823 -2.95395 2.27371)
(4.4105 -1.90153 1.52136)
(4.61197 -2.15327 1.30976)
(1.68818 -0.256736 -0.917323)
(1.29702 0.367168 -0.111518)
(1.09355 0.452848 -0.316696)
(0.487692 1.04149 -0.272157)
(1.6447 0.910598 0.209435)
(3.07424 -1.00352 1.55343)
(2.25251 -1.38959 1.50876)
(1.35913 -0.148161 -1.20138)
(1.20233 0.28775 -1.40507)
(0.758758 0.382023 -0.969861)
(0.360915 0.900793 -0.723117)
(0.383371 1.10872 -0.558649)
(1.48188 0.755003 -0.878845)
(1.1367 0.534315 -0.744065)
(1.00226 1.04108 -0.198305)
(2.4545 1.60676 -0.185406)
(2.96842 0.60781 0.720877)
(2.82166 1.40242 0.649966)
(3.60805 -0.0156468 1.36712)
(3.81065 0.880765 0.970494)
(2.67263 -0.273561 0.642556)
(4.78723 -0.976018 2.12268)
(4.2345 -0.131758 1.00642)
(3.34885 -0.317862 1.41758)
(2.65968 -1.10355 0.239961)
(4.24734 -1.96704 1.85007)
(4.13368 -2.37996 2.00714)
(4.49735 -0.524729 1.55753)
(5.28823 0.665792 0.421515)
(3.88518 -0.759826 -0.151403)
(3.20011 0.0193726 -1.36907)
(2.62715 -0.295197 0.222922)
(2.10533 -2.69129 1.97414)
(3.51288 -2.41681 1.93686)
(4.98416 -0.829302 0.411017)
(5.18829 -0.919316 0.0121933)
(2.0326 0.0014053 -0.975036)
(1.94059 0.293599 -1.12138)
(2.10671 0.0385326 -1.60373)
(2.25375 -0.873597 -0.816267)
(2.36085 -2.93771 2.5382)
(4.57132 -1.76739 1.57875)
(4.8413 -1.72447 1.13531)
(2.26196 -0.619748 -0.233985)
(1.6678 -0.237477 -1.04954)
(1.24558 0.275903 -0.239597)
(1.08188 0.279919 -0.535364)
(0.526607 1.03071 -0.26964)
(1.73627 0.845035 0.226076)
(2.98893 -1.002 1.68204)
(2.68077 -0.976957 1.49458)
(1.41307 -0.433718 -1.38098)
(1.36475 -0.159575 -1.18432)
(1.22673 0.307264 -1.43282)
(0.753704 0.402122 -0.932407)
(0.37246 0.875335 -0.740911)
(0.374169 1.11102 -0.559799)
(1.48688 0.799804 -0.809326)
(1.13272 0.516762 -0.740115)
(0.972778 1.0003 -0.176047)
(2.50837 1.15813 -0.0964986)
(2.89342 0.434599 0.170375)
(2.50203 1.46266 -0.226603)
(3.42233 0.0254835 0.620102)
(3.11692 0.353343 0.59928)
(2.77606 1.24442 0.78201)
(4.17256 -0.684946 1.0439)
(3.65754 -0.020589 1.16832)
(3.58224 0.829137 1.07546)
(2.67551 -0.477862 0.427379)
(4.55631 -1.09771 2.09387)
(4.45091 -1.25074 2.02746)
(4.33743 0.16579 0.927959)
(3.79064 0.110128 1.0576)
(2.78786 -1.24283 0.318546)
(3.47364 -1.94271 1.70498)
(4.49032 -1.46453 2.66813)
(3.97956 -1.57985 2.6048)
(4.33674 -0.872873 0.979057)
(5.12389 0.542502 0.0666478)
(4.16805 -0.295376 -0.183457)
(2.76495 -0.668642 -0.586285)
(3.30474 -0.407095 -0.861602)
(2.35462 -1.13454 1.25385)
(2.08845 -2.6418 2.42651)
(3.62528 -2.13784 2.18271)
(5.08507 -0.881101 0.647996)
(5.21552 -0.0160915 -0.405643)
(2.21874 -0.638186 -0.325602)
(2.16054 -0.0636334 -1.14026)
(1.96181 -0.15739 -1.12536)
(2.26217 0.0471112 -1.41691)
(2.09498 -1.15565 -0.485126)
(2.32486 -2.76257 2.67061)
(4.68267 -1.46294 1.5893)
(5.13622 -1.28632 0.866455)
(1.95414 -0.340754 -0.999854)
(2.26116 -0.651981 -0.107898)
(1.66997 -0.279842 -1.03547)
(1.21716 0.205661 -0.314104)
(1.03306 0.250239 -0.623136)
(0.565476 1.01198 -0.252724)
(1.77802 0.719233 0.32552)
(2.91654 -0.959503 1.77727)
(2.94624 -0.829543 1.44349)
(0.97039 -0.873265 -1.60352)
(1.35496 -0.397936 -1.36796)
(1.36517 -0.170437 -1.17623)
(1.23797 0.265352 -1.45473)
(0.736512 0.447417 -0.925298)
(0.354764 0.855732 -0.764501)
(0.373815 1.11746 -0.552406)
(1.54614 0.861526 -0.675007)
(1.1173 0.507887 -0.74274)
(0.940867 0.971912 -0.148667)
(2.3115 0.957725 -0.119366)
(3.04299 0.304897 -0.0557447)
(2.5878 0.843226 -0.194276)
(3.3159 -0.282879 0.126733)
(2.94469 0.17661 0.229655)
(2.68607 1.23227 -0.355429)
(3.64868 0.522686 0.515691)
(3.36958 -0.531139 0.698191)
(3.31494 0.236966 0.593903)
(2.67237 0.937831 1.05616)
(4.09653 -1.29858 1.97232)
(4.11115 -0.173245 0.992081)
(3.81915 0.0939929 0.771379)
(3.40944 0.321158 1.44922)
(2.69542 -0.428923 0.444643)
(4.09974 -1.8806 2.23801)
(4.55187 -1.25159 2.36178)
(4.66295 -0.785064 1.83455)
(4.52429 0.245146 0.7037)
(4.17041 1.14381 0.743864)
(3.075 -1.04027 0.411671)
(3.07605 -0.369654 0.741198)
(3.45531 -2.16394 2.06082)
(4.50522 -1.46614 2.80946)
(3.94665 -1.14383 2.47441)
(4.24996 -0.83572 0.989484)
(5.10576 0.687603 -0.0546374)
(4.29975 -0.418373 -0.231753)
(2.42848 -1.35067 -0.357692)
(2.88776 -0.831767 -0.812033)
(3.27052 -0.736256 0.134548)
(1.86401 -2.1729 2.53023)
(2.23745 -2.55754 2.32335)
(3.51442 -1.73447 2.26928)
(5.25585 -0.360771 -0.0558472)
(5.06145 -0.639627 -0.158974)
(2.06074 -1.26065 -0.977773)
(2.36798 -0.512727 -0.219815)
(2.23225 -0.173959 -1.14636)
(1.8799 -0.567659 -1.29664)
(2.44316 0.038672 -1.07185)
(1.95691 -1.3274 -0.260936)
(2.44032 -2.59319 2.71302)
(4.79022 -1.03156 1.64242)
(5.0703 -1.58304 0.782422)
(1.98763 -0.702224 -1.04791)
(1.92677 -0.431507 -0.971657)
(2.25333 -0.671537 -0.0786405)
(1.69122 -0.309794 -1.02351)
(1.19492 0.150047 -0.408916)
(1.00747 0.205311 -0.623129)
(0.61502 0.984116 -0.195678)
(1.77018 0.614363 0.469638)
(2.8575 -0.847369 1.85524)
(3.16104 -0.762581 1.38858)
(0.958632 -1.13575 -1.63274)
(0.952143 -0.870435 -1.59771)
(1.37132 -0.345322 -1.34755)
(1.35926 -0.20209 -1.1769)
(1.24268 0.271382 -1.44538)
(0.753572 0.44446 -0.908389)
(0.346762 0.806812 -0.777327)
(0.375328 1.1257 -0.538626)
(1.55824 0.868531 -0.637074)
(1.09083 0.492615 -0.75979)
(0.918619 0.945492 -0.123711)
(1.93237 1.09951 0.191612)
(2.62225 0.307993 0.20184)
(2.16567 1.01112 -0.0733637)
(3.03179 0.112071 0.00280392)
(3.02712 0.12794 -0.0803014)
(2.55997 0.762204 -0.221663)
(3.40303 -0.320571 0.326418)
(3.31146 -0.413264 0.0366293)
(3.03951 -0.22097 0.400588)
(2.79275 1.09121 -0.449917)
(3.48117 -1.85549 0.990636)
(3.74388 -0.773928 0.157962)
(3.37255 -0.754367 0.405136)
(3.35017 0.114076 0.445755)
(2.58427 0.623796 0.853545)
(3.46042 -2.05582 2.32929)
(4.04383 -1.76716 1.21071)
(4.06978 -0.723471 0.853027)
(3.82764 -0.703037 0.646178)
(3.60231 0.637465 0.819637)
(2.86741 0.0818254 0.429089)
(3.21322 -1.84268 2.57124)
(4.05851 -2.09012 1.95406)
(4.55539 -1.23973 2.45521)
(4.73575 -0.941653 1.60849)
(4.60492 -0.105726 0.700689)
(4.44051 0.95097 0.548658)
(3.41708 -0.699518 0.431693)
(3.11959 0.0160392 0.841157)
(2.94323 -1.04826 1.24457)
(3.66338 -2.06492 2.34378)
(4.14628 -1.70394 2.84819)
(3.68827 -2.34824 1.65008)
(4.37862 -0.629118 1.08669)
(5.17392 0.813925 0.271805)
(4.47568 -0.363604 -0.17168)
(2.90076 -1.48069 -0.699468)
(2.51473 -1.31669 -0.360717)
(2.97916 -0.733758 -0.629414)
(3.06851 -1.03105 0.430458)
(1.55349 -2.67858 2.81284)
(2.22097 -2.68164 2.09801)
(3.57713 -1.50177 2.1354)
(5.18646 -0.465693 0.432339)
(5.17516 -0.350992 -0.250424)
(2.18791 -1.09796 -1.76076)
(2.01862 -1.14758 -0.893916)
(2.47889 -0.382353 -0.503057)
(2.30736 -0.195618 -1.04222)
(2.16965 -0.0846808 -1.24592)
(2.63187 -0.0859435 -0.479249)
(1.73593 -1.7614 0.345864)
(2.52501 -2.52843 2.73749)
(4.85148 -1.53679 1.22007)
(5.17821 -1.41104 1.02769)
(1.69554 -1.44085 -1.70183)
(1.97286 -0.724771 -1.04515)
(1.93051 -0.467732 -0.938842)
(2.24838 -0.685685 -0.0905384)
(1.70932 -0.339957 -1.02818)
(1.15842 0.145939 -0.479078)
(0.9881 0.249682 -0.557094)
(0.670856 0.941836 -0.104934)
(1.74023 0.500933 0.722488)
(2.84804 -0.659695 1.81507)
(3.33471 -0.683927 1.30944)
(0.573448 -0.941596 -2.53509)
(0.957787 -1.08006 -1.59339)
(0.967717 -0.902305 -1.58715)
(1.35147 -0.350839 -1.34904)
(1.3637 -0.22471 -1.18677)
(1.22833 0.220664 -1.46494)
(0.738395 0.470241 -0.921639)
(0.310428 0.780505 -0.771986)
(0.373491 1.13568 -0.512209)
(1.52251 0.870635 -0.559762)
(1.05416 0.473521 -0.780745)
(0.87861 0.939287 -0.106967)
(1.39715 1.74193 0.0849248)
(2.22758 0.809629 0.193561)
(1.86882 1.05622 0.137263)
(2.66932 0.593371 0.0505956)
(2.5045 0.223104 0.101857)
(2.24889 0.68272 -0.0609988)
(3.07302 -0.0531653 0.376291)
(2.87639 -0.1259 -0.103768)
(3.02935 0.0590436 -0.101531)
(2.61785 0.418124 -0.200341)
(3.42279 -0.311708 0.345341)
(3.37941 -0.644197 0.449672)
(3.2656 -0.486743 0.0462018)
(3.14301 -0.329149 0.455104)
(2.84534 0.848461 -0.0513917)
(3.78457 -0.96323 1.26639)
(4.00803 0.511941 0.474156)
(3.78294 -0.55806 0.175574)
(3.34129 -0.854553 0.22562)
(3.32161 0.110259 0.318702)
(2.57641 0.378844 0.762036)
(3.87717 -0.998906 2.49886)
(3.78969 -1.60351 2.02266)
(4.208 -1.31915 1.02443)
(4.14661 -0.561787 0.683623)
(4.09803 -0.543025 0.409544)
(3.79244 0.379106 0.582391)
(3.03733 0.290592 0.524776)
(3.15061 -1.35768 1.81983)
(3.47981 -1.52359 2.47614)
(3.8921 -2.36337 1.77045)
(4.5586 -1.49073 2.23059)
(4.58088 -1.61784 1.19127)
(4.64231 -0.0884944 0.745715)
(4.63202 0.923255 0.553805)
(3.74741 -0.508822 0.336242)
(3.39789 -1.05017 0.734429)
(2.77135 -1.16368 0.618776)
(2.85332 -1.23455 1.95884)
(3.70001 -2.36177 2.28523)
(3.75624 -1.97314 2.76087)
(3.79179 -1.66326 1.76981)
(4.17614 -0.926239 1.07213)
(5.18534 0.595379 0.217357)
(4.59511 -0.272415 -0.183831)
(3.27798 -1.40562 -0.637096)
(2.79378 -1.79835 0.143061)
(2.54439 -1.19196 -0.272851)
(3.11861 -0.634051 -0.184311)
(2.497 -2.04947 1.67697)
(1.53802 -2.83012 2.6549)
(2.23579 -2.56137 2.19159)
(3.73395 -1.45939 1.98674)
(5.15519 -0.709318 0.62011)
(5.13134 -0.330371 -0.161757)
(1.87588 -1.91277 -1.37472)
(2.18271 -1.30668 -1.4694)
(1.99531 -1.28799 -0.543803)
(2.51567 -0.52871 -0.619872)
(2.34748 -0.169205 -0.93509)
(2.3335 -0.169794 -1.33456)
(2.72769 -0.312592 0.115953)
(1.53307 -2.00218 0.831146)
(3.04549 -1.02149 3.06988)
(4.87615 -1.18842 1.59356)
(5.38909 -1.4047 0.703074)
(1.49928 -1.34004 -2.52427)
(1.65809 -1.58398 -1.4316)
(1.91745 -1.14371 -0.743758)
(1.95991 -0.486555 -0.898863)
(2.23759 -0.706473 -0.131995)
(1.7084 -0.356891 -1.00279)
(1.11591 0.114614 -0.594193)
(0.970377 0.305265 -0.486142)
(0.713174 0.889706 0.00613613)
(1.67399 0.45869 0.761701)
(2.86737 -0.534859 1.75121)
(3.46625 -0.647194 1.25951)
(0.264049 -1.10402 -2.47458)
(0.533598 -1.00785 -2.5193)
(0.966435 -1.02865 -1.5664)
(0.913676 -1.01373 -1.54076)
(1.33728 -0.387758 -1.34028)
(1.35078 -0.248686 -1.19575)
(1.20782 0.195015 -1.48413)
(0.746276 0.468017 -0.918895)
(0.292844 0.746671 -0.761524)
(0.37172 1.14425 -0.477684)
(1.52972 0.813549 -0.660908)
(1.00368 0.449422 -0.809974)
(0.816759 0.958185 -0.0944364)
(1.9389 0.73044 -0.057185)
(2.27121 0.630545 0.134672)
(1.88873 1.01533 0.237764)
(2.30183 0.565899 0.395795)
(2.15773 0.67361 0.0862183)
(1.95151 0.823656 0.203064)
(2.75518 0.240429 0.459308)
(2.67766 0.432205 0.132659)
(2.47708 0.183129 0.0118725)
(2.20629 0.61094 -0.102237)
(3.11476 0.0164051 0.368578)
(3.01552 -0.0150774 0.354927)
(2.79269 -0.361022 -0.0616605)
(2.99109 0.073892 -0.136776)
(2.5987 0.406797 -0.179772)
(3.67899 -0.499352 0.780876)
(3.42829 -0.353216 0.231979)
(3.29259 -0.677356 0.381962)
(3.20891 -0.617705 -0.0180191)
(3.18022 -0.263461 0.454222)
(2.91677 0.660603 -0.0189696)
(3.88955 -1.47268 1.57785)
(3.76068 -0.966162 1.18179)
(3.81925 -0.820207 0.464652)
(3.53902 -0.981138 0.13199)
(3.37752 -0.7936 0.222433)
(3.38077 -0.0143049 0.283242)
(2.73337 0.262281 0.621252)
(3.77321 -1.27294 2.58822)
(3.08421 -2.29235 2.65924)
(3.72546 -1.86669 1.97255)
(4.12786 -1.71101 0.891226)
(4.28849 -0.713596 0.3945)
(4.12501 -0.542131 0.3813)
(4.03224 0.32087 0.298483)
(3.20418 0.27389 0.44287)
(3.16941 -1.03908 1.89347)
(3.19041 -0.617794 2.27575)
(3.31743 -2.15824 2.47259)
(3.89469 -2.1759 1.75291)
(4.49505 -1.89459 1.90605)
(4.54751 -1.44517 1.22526)
(4.58664 -0.931766 0.643951)
(4.68266 0.710462 0.713058)
(4.07154 -0.43396 0.280925)
(3.93331 -1.40872 0.804722)
(3.35388 -1.24645 0.876686)
(2.90603 -0.29503 1.2606)
(2.84783 -1.5708 2.18017)
(3.82713 -2.12729 2.55075)
(3.68249 -1.99459 2.74682)
(3.38444 -2.48695 1.39268)
(4.11391 -0.856835 1.0722)
(5.15025 0.529264 0.0905707)
(4.69286 -0.204119 -0.135189)
(3.11564 -1.54336 -1.01282)
(3.033 -1.85426 -0.277953)
(2.79077 -1.45833 -0.0178234)
(2.7679 -0.761356 -0.065694)
(2.95776 -1.25612 0.389716)
(2.0982 -2.68603 2.30335)
(1.60729 -2.88808 2.5095)
(2.41765 -2.24894 2.22586)
(4.2119 -0.802131 1.23353)
(5.23748 -0.505972 0.452483)
(5.12178 -0.40364 -0.0881283)
(1.83832 -2.12734 -1.62834)
(1.96022 -1.58601 -1.47397)
(2.16617 -1.308 -1.2036)
(1.99414 -1.25537 -0.444575)
(2.58825 -0.505833 -0.550982)
(2.45446 -0.220869 -0.675608)
(2.43739 -0.304766 -1.32297)
(2.61088 -0.597132 0.207038)
(1.40481 -1.90605 1.1524)
(2.66017 -1.90565 2.51285)
(4.76433 -1.45726 1.6853)
(5.54743 -1.37308 0.840762)
(1.39634 -1.24358 -2.38129)
(1.50747 -1.44159 -2.44561)
(1.58708 -1.57043 -1.32048)
(1.87483 -1.13609 -0.704875)
(1.97048 -0.484468 -0.851708)
(2.2191 -0.720593 -0.233799)
(1.70982 -0.352988 -0.957671)
(1.08483 0.115669 -0.670793)
(0.924742 0.302485 -0.4588)
(0.722547 0.826204 0.115273)
(1.64216 0.423563 0.893192)
(2.85893 -0.499625 1.79003)
(3.53279 -0.665795 1.23669)
(0.414902 -0.995384 -1.96054)
(0.295393 -1.01391 -2.55721)
(0.544405 -0.997981 -2.51763)
(0.9597 -1.01016 -1.53428)
(0.884472 -0.98783 -1.5275)
(1.29764 -0.45084 -1.35244)
(1.31772 -0.311217 -1.21284)
(1.17256 0.127331 -1.51733)
(0.722176 0.481937 -0.921276)
(0.2754 0.76038 -0.714251)
(0.366847 1.14572 -0.443681)
(1.51679 0.804971 -0.694792)
(0.948317 0.438048 -0.83848)
(0.759462 0.973626 -0.0860478)
(1.42943 1.28534 0.0145544)
(2.11695 0.711952 -0.118957)
(1.87787 0.719714 -0.00302038)
(2.31151 0.635898 0.120187)
(2.15932 0.780797 0.00843865)
(1.86724 0.914493 0.0501619)
(2.40921 0.25372 0.271704)
(2.31794 0.367134 0.438674)
(2.15349 0.562132 0.101584)
(1.96668 0.720722 0.136545)
(2.80742 0.12642 0.346726)
(2.71745 0.133719 0.528465)
(2.68432 0.0642296 0.174848)
(2.47465 0.225613 -0.0384163)
(2.15626 0.68801 0.0157863)
(3.1546 0.0301641 0.46463)
(3.0437 -0.0744434 0.465279)
(2.90412 -0.174776 0.329801)
(2.75548 -0.577569 0.0446927)
(3.01154 0.132246 -0.125426)
(2.6235 0.392548 -0.197172)
(3.72386 -0.681244 1.02774)
(3.64888 -0.512378 0.530773)
(3.45562 -0.462491 0.234218)
(3.45025 -0.0595498 0.278149)
(3.17621 -0.594735 -0.0391497)
(3.13308 -0.320729 0.630808)
(2.98892 0.452465 -0.0577768)
(4.10775 -0.996375 1.56779)
(3.82316 -0.856074 1.46845)
(3.48162 -1.69644 1.20168)
(3.86712 -0.51696 0.310574)
(3.51599 -1.01084 0.241116)
(3.70422 -0.408358 0.122264)
(3.43641 -0.0852162 0.307872)
(2.91638 0.163866 0.45293)
(4.01305 -0.99656 2.5839)
(3.73625 -1.33584 2.52434)
(3.65733 -1.29568 2.24794)
(3.87659 -1.84682 1.3505)
(4.20973 -1.45486 0.904795)
(4.34655 -0.844985 0.411094)
(4.10983 -0.604771 0.292043)
(4.09772 0.240395 0.407001)
(3.38963 0.17101 0.399888)
(3.48652 -0.716099 1.86525)
(3.29366 -0.88192 2.09592)
(3.01805 -1.24239 2.65769)
(3.49397 -2.03285 2.52214)
(3.69916 -2.42813 2.06843)
(4.45321 -2.05577 1.83365)
(4.32546 -1.60634 1.24967)
(4.78138 -0.662414 0.739828)
(4.81453 0.106151 0.80931)
(4.32422 -0.510498 0.257705)
(4.23033 -1.53208 1.00233)
(3.68005 -1.37852 0.985956)
(3.14719 -0.620912 1.73974)
(2.87495 -0.433135 1.67584)
(2.82379 -2.04327 2.20073)
(3.80283 -1.95053 2.74677)
(3.5523 -2.4428 2.62962)
(3.58221 -2.17742 1.38892)
(4.20456 -1.18968 1.00812)
(5.06635 0.162834 0.0658711)
(4.72059 -0.306848 -0.0870775)
(3.0193 -1.46528 -0.850989)
(3.05207 -1.64189 -0.832751)
(2.91667 -1.75757 -0.0946454)
(2.69499 -1.50993 0.00453024)
(2.66063 -1.02135 0.124034)
(2.80798 -1.44228 1.64815)
(1.98047 -2.81154 2.25828)
(1.93293 -2.93097 2.37085)
(2.52942 -2.03669 2.31591)
(3.95496 -0.710939 1.00202)
(5.12388 -0.580136 0.741803)
(5.16679 -0.555731 0.0142493)
(1.83031 -1.79809 -1.61461)
(1.75091 -2.22068 -1.63284)
(1.95493 -1.48489 -1.36167)
(2.07576 -1.35821 -0.942353)
(2.06038 -1.14178 -0.481881)
(2.61251 -0.490786 -0.425699)
(2.631 -0.352815 -0.516827)
(2.47595 -0.426923 -1.27153)
(2.36493 -1.04971 0.0292649)
(1.24818 -1.85399 1.32506)
(2.92425 -1.57627 2.54276)
(4.75603 -1.42576 1.74901)
(5.55666 -1.50913 0.884619)
(1.22049 -1.20869 -1.95572)
(1.42685 -1.42194 -2.39135)
(1.47381 -1.67868 -2.22543)
(1.55701 -1.52908 -1.19977)
(1.8932 -1.02672 -0.71495)
(1.97923 -0.421596 -0.849851)
(2.19544 -0.727532 -0.316611)
(1.75262 -0.304858 -0.870775)
(1.04399 0.108202 -0.762863)
(0.892979 0.286503 -0.436364)
(0.699228 0.73829 0.220595)
(1.62813 0.45383 0.967919)
(2.77899 -0.225644 1.92668)
(3.52645 -0.698901 1.19562)
(0.340834 -0.625043 -1.88474)
(0.438919 -0.967272 -2.06714)
(0.326464 -0.92199 -2.62425)
(0.509596 -1.07172 -2.48855)
(0.945167 -1.02699 -1.49652)
(0.855118 -1.07565 -1.45416)
(1.22531 -0.521024 -1.37746)
(1.30441 -0.325882 -1.21638)
(1.13839 0.102974 -1.53855)
(0.71174 0.465696 -0.938456)
(0.247023 0.724622 -0.74648)
(0.358506 1.13885 -0.411142)
(1.45892 0.74916 -0.890424)
(0.872659 0.420806 -0.893497)
(0.698462 0.98471 -0.086486)
(1.65514 0.681243 -0.052208)
(1.90948 0.686897 0.220515)
(1.57794 1.08209 0.0472026)
(2.14777 0.830548 -0.0752021)
(2.14897 0.470886 -0.0080727)
(1.89339 0.634935 0.028372)
(2.33215 0.234819 0.218493)
(2.26768 0.433228 0.0825295)
(2.22296 0.449868 -0.0243896)
(1.98635 0.786912 0.0110366)
(2.4246 0.0329959 0.280414)
(2.33414 0.23085 0.256672)
(2.32389 0.343842 0.432726)
(2.15955 0.475881 0.0929182)
(1.99179 0.632881 0.121184)
(2.73404 0.199443 0.423747)
(2.81415 0.0642836 0.336134)
(2.75673 0.0999003 0.520559)
(2.64504 -0.0293689 0.101149)
(2.46826 0.173947 -0.0764452)
(2.18393 0.491824 0.0368345)
(3.15986 -0.305841 0.715616)
(3.08677 -0.0892761 0.560402)
(2.98309 -0.179842 0.370013)
(2.89346 -0.263224 0.295794)
(2.65999 -0.778177 -0.036428)
(3.07295 0.125085 -0.138505)
(2.66339 0.381324 -0.251915)
(3.86915 -0.670751 1.10345)
(3.69327 -0.736939 1.00705)
(3.53912 -0.541149 0.478146)
(3.41917 -0.361296 0.33587)
(3.39073 -0.317053 0.330726)
(3.24475 -0.615123 0.00923408)
(3.10096 -0.238865 0.784229)
(3.0162 0.25852 -0.0273076)
(4.44671 -0.795528 1.3665)
(3.95434 -0.874688 1.47333)
(3.73211 -1.19935 1.44909)
(3.7815 -0.727929 0.9995)
(3.78351 -0.944582 0.301082)
(3.56631 -0.998143 0.466831)
(3.76865 -0.681652 0.129196)
(3.52526 -0.23543 0.200042)
(3.07552 0.0117535 0.396682)
(3.87651 -0.627383 2.6166)
(3.94722 -1.07977 2.61948)
(3.76084 -1.48348 2.38645)
(3.48248 -1.97918 2.14326)
(3.76548 -1.99338 1.20257)
(4.31189 -1.17739 0.875931)
(4.32728 -0.955539 0.411003)
(4.23883 -0.839536 0.126973)
(4.18088 -0.114879 0.422257)
(3.56741 0.0101393 0.233884)
(3.94895 -1.23083 2.0623)
(3.47013 -0.50623 2.28763)
(3.10417 -0.711566 2.61298)
(3.35202 -1.78817 2.52069)
(3.62025 -2.5063 2.03709)
(3.89502 -2.36297 2.06115)
(4.22234 -2.36793 1.82273)
(4.1924 -1.7288 1.35489)
(4.78797 -0.877081 0.807776)
(4.82191 -0.268131 0.850093)
(4.3621 -0.895981 0.396878)
(4.18834 -1.59031 1.11122)
(3.8782 -2.19782 0.832918)
(3.60819 -1.61095 0.99759)
(3.08927 -0.953533 1.41617)
(2.61277 -0.911096 2.22156)
(2.73878 -2.48993 2.39243)
(3.58475 -2.00345 2.78667)
(2.59775 -3.39963 2.35072)
(3.9057 -1.64561 1.58152)
(4.31441 -1.26023 1.02576)
(5.01819 -0.183004 0.103776)
(4.76919 -0.391627 0.0132956)
(2.91284 -1.27705 -0.528332)
(2.90413 -1.55426 -0.74212)
(2.94855 -1.61209 -0.751324)
(2.99006 -1.67083 0.106719)
(2.78048 -1.44825 0.185271)
(2.68266 -0.842505 0.420328)
(2.77367 -1.77336 2.00664)
(2.01746 -2.84805 2.28908)
(1.94436 -2.75105 2.61007)
(2.6726 -1.80171 2.54459)
(3.22059 -2.47234 1.53768)
(4.97484 -0.884185 0.885544)
(5.1235 -0.470632 0.0111888)
(1.77887 -1.32494 -1.23077)
(1.83797 -1.907 -1.7318)
(1.72433 -2.24422 -1.63906)
(1.8166 -1.51658 -1.22762)
(2.0847 -1.31668 -0.720785)
(2.08787 -1.13389 -0.414914)
(2.62024 -0.472753 -0.392644)
(2.63469 -0.482713 -0.585691)
(2.56507 -0.622605 -1.08026)
(2.06127 -1.42154 -0.0916082)
(1.03082 -1.7942 1.81858)
(3.42631 -1.02879 2.0794)
(4.69995 -1.45968 1.76445)
(5.49765 -1.66325 0.929517)
(1.23687 -0.392341 -2.44235)
(1.19866 -1.37059 -2.03421)
(1.42902 -1.62453 -2.33082)
(1.43046 -1.81185 -2.00932)
(1.56615 -1.38946 -1.15027)
(1.98131 -0.827753 -0.743989)
(2.06279 -0.344319 -0.758159)
(2.17074 -0.736788 -0.410144)
(1.79702 -0.26158 -0.753651)
(1.03529 0.128625 -0.771685)
(0.866397 0.275468 -0.416307)
(0.646781 0.6389 0.309604)
(1.57852 0.498527 1.02858)
(2.73775 -0.312102 1.77738)
(3.45987 -0.772189 1.12213)
(0.329806 -0.217471 -2.28846)
(0.330722 -0.655503 -1.83882)
(0.468829 -0.917201 -2.17163)
(0.362373 -0.863165 -2.68862)
(0.432805 -1.27894 -2.37852)
(0.940319 -1.04206 -1.46382)
(0.887358 -0.951616 -1.47937)
(1.27156 -0.39582 -1.35187)
(1.28752 -0.332846 -1.22088)
(1.10952 0.0819399 -1.55654)
(0.702704 0.46843 -0.944637)
(0.244984 0.721889 -0.757947)
(0.345493 1.13004 -0.379499)
(1.45515 0.708627 -1.00225)
(0.790752 0.405002 -0.948559)
(0.625708 0.995849 -0.0983659)
(1.27989 1.2054 0.0877263)
(1.82491 0.710549 0.0410866)
(1.6601 0.747404 -0.0342755)
(1.93424 0.853653 0.105525)
(1.95976 0.615093 0.179018)
(1.71249 0.90687 0.0294141)
(2.15756 0.270452 0.208342)
(2.15667 0.76675 -0.105207)
(2.14617 0.37408 0.0941644)
(1.93759 0.530089 0.0548247)
(2.29603 0.289666 0.26948)
(2.19115 0.235092 0.196341)
(2.27953 0.343767 0.15558)
(2.16961 0.286867 0.116306)
(2.03864 0.638991 0.0241792)
(2.42897 0.201559 0.48013)
(2.41263 0.0825627 0.3186)
(2.34429 0.145652 0.322935)
(2.29161 0.230263 0.329545)
(2.19419 0.347154 0.0716274)
(2.04146 0.421221 0.133254)
(2.78989 0.124458 0.498257)
(2.80526 -0.000141663 0.448154)
(2.78705 0.114234 0.344227)
(2.79772 0.247126 0.523501)
(2.64394 -0.0220672 0.073371)
(2.54138 0.00142204 0.00117875)
(2.22632 0.365364 0.0260613)
(3.31819 -0.253734 0.837753)
(3.1138 -0.364828 0.711566)
(3.00762 -0.366812 0.653176)
(2.93913 -0.333568 0.359157)
(2.82701 -0.659846 0.11745)
(2.625 -0.738518 -0.02554)
(3.10012 0.118383 -0.233133)
(2.71075 0.429726 -0.2669)
(3.84588 -0.398815 1.19626)
(3.85792 -0.294132 1.07613)
(3.77892 -0.0119509 0.619376)
(3.55277 -0.287996 0.31006)
(3.46464 -0.539483 0.191958)
(3.44611 -0.315345 0.221259)
(3.34656 -0.699662 -0.0243217)
(3.12709 -0.190078 0.649028)
(3.01971 0.159594 -0.0826392)
(4.50486 -0.37409 1.2945)
(4.23523 -0.70238 1.33388)
(3.90194 -1.10992 1.54102)
(3.09866 -2.05927 1.77512)
(3.53746 -1.34101 0.944795)
(3.71749 -1.11226 0.432533)
(3.54845 -0.985592 0.549472)
(3.69234 -0.98042 0.0971728)
(3.59284 -0.319759 0.277346)
(3.24046 -0.0943441 0.107941)
(4.10711 -0.633015 2.8326)
(4.01773 -0.930616 2.77304)
(3.77761 -1.3164 2.64042)
(3.68401 -1.72862 2.3748)
(3.37845 -2.34163 1.63136)
(3.5838 -2.36759 1.11398)
(4.14375 -1.81678 0.604141)
(4.26125 -1.21289 0.34391)
(4.33408 -1.04333 0.202718)
(4.19399 -0.263454 0.518048)
(3.79629 -0.109633 -0.00610939)
(4.21937 -0.967685 2.57354)
(3.89319 -0.363697 2.56953)
(3.15311 -1.52764 2.44368)
(3.32593 -1.23742 2.35444)
(3.5119 -1.28215 2.89925)
(3.42701 -2.42409 2.25045)
(3.79538 -2.5105 1.86065)
(3.69988 -2.73907 1.74716)
(4.19903 -1.82869 1.35488)
(4.64474 -0.923906 0.96594)
(4.67458 -0.947405 0.648088)
(4.2226 -1.32584 0.963754)
(4.35705 -1.56298 1.14805)
(4.04623 -1.70689 1.31881)
(3.79796 -2.05463 1.08865)
(3.44511 -1.49808 1.52233)
(2.9473 -0.849136 1.84455)
(2.72731 -0.79458 2.67696)
(2.61753 -2.89613 2.42414)
(3.50908 -2.06627 2.74746)
(3.92948 -1.59545 2.24173)
(3.86966 -1.86068 1.41768)
(4.25238 -1.24001 1.06816)
(4.95903 -0.822366 0.286771)
(4.88995 -0.687768 -0.0543157)
(3.03731 -1.01573 -0.237048)
(2.9538 -1.26068 -0.460124)
(2.84263 -1.63897 -0.620456)
(3.0617 -1.45771 -0.60048)
(2.63036 -2.07744 0.596309)
(2.79642 -1.14027 0.546335)
(2.6322 -0.833253 0.777042)
(2.72372 -2.12119 2.01555)
(2.05085 -2.77552 2.50025)
(2.14945 -2.44144 2.70828)
(2.66292 -1.83199 2.49164)
(4.42079 -0.804749 1.30664)
(4.91419 -1.01643 1.10681)
(5.06236 -1.28713 0.26158)
(1.66832 -0.651428 -1.43754)
(1.7718 -1.42287 -1.39457)
(1.73759 -2.10352 -1.77853)
(1.67518 -2.21588 -1.6122)
(1.82142 -1.38085 -1.14326)
(2.11143 -1.19323 -0.607827)
(2.06895 -1.0946 -0.409917)
(2.64864 -0.490066 -0.340005)
(2.73769 -0.637365 0.104818)
(2.59914 -0.734724 -0.871893)
(1.76336 -1.61941 0.00650784)
(1.03124 -1.80677 1.91638)
(3.24358 -1.13911 2.12468)
(4.4487 -1.6177 1.95089)
(5.53624 -1.92865 1.07989)
(1.05365 -0.319145 -2.61458)
(1.01759 -1.00639 -2.33039)
(1.23476 -1.28672 -2.21661)
(1.41408 -1.76535 -2.23844)
(1.38045 -1.86917 -1.82074)
(1.56346 -1.25174 -1.04477)
(1.88347 -0.925294 -0.714722)
(2.07936 -0.232593 -0.863597)
(2.14343 -0.763792 -0.465058)
(1.81182 -0.25239 -0.682024)
(1.03452 0.149598 -0.754579)
(0.839547 0.265587 -0.389927)
(0.601117 0.572901 0.375303)
(1.54499 0.58244 1.1783)
(2.57102 -0.25349 1.83225)
(3.3238 -0.848085 1.07445)
(-0.00816609 -0.00675593 -2.17588)
(0.318235 -0.275876 -2.29797)
(0.319732 -0.715897 -1.80668)
(0.508662 -0.852182 -2.27634)
(0.374992 -0.871316 -2.73212)
(0.410983 -1.26469 -2.31711)
(0.885513 -1.06882 -1.43839)
(0.917236 -0.824423 -1.49297)
(1.26313 -0.370459 -1.33754)
(1.30004 -0.316299 -1.21529)
(1.10044 0.0636639 -1.56403)
(0.676861 0.474773 -0.960111)
(0.227222 0.7624 -0.732774)
(0.339574 1.11837 -0.352102)
(1.40016 0.671238 -1.09336)
(0.707994 0.383883 -1.01893)
(0.542191 1.00077 -0.119647)
(1.44734 0.749477 -0.104148)
(1.76592 0.653592 0.0864803)
(1.52927 0.833493 0.0683417)
(1.97465 0.469882 0.0550418)
(1.9169 0.573719 0.0121163)
(1.71539 0.674087 -0.044944)
(1.95394 0.735368 0.0307363)
(2.01799 0.548959 0.296261)
(1.99726 0.445747 0.118851)
(1.74369 0.887581 0.00974479)
(2.18981 0.481638 0.303237)
(2.12496 0.807655 0.112692)
(2.18682 0.604987 -0.117894)
(2.14571 0.338 0.159766)
(1.97909 0.389271 0.0539882)
(2.26938 0.676483 0.50844)
(2.22712 0.227397 0.334608)
(2.2015 0.0704697 0.258656)
(2.30435 0.315528 0.0509208)
(2.18532 0.101009 0.0700197)
(2.07646 0.363511 0.0412425)
(2.46763 0.215187 0.637911)
(2.4203 -0.0559198 0.41389)
(2.41784 0.0523513 0.328223)
(2.38578 0.163109 0.38304)
(2.26835 0.125812 0.237034)
(2.32327 0.158082 0.0240698)
(2.09157 0.326411 0.153748)
(2.85382 0.0263021 0.730838)
(2.75604 -0.0767476 0.542101)
(2.78181 0.0286543 0.486741)
(2.75965 0.0871299 0.527977)
(2.79439 0.228721 0.544522)
(2.71484 -0.115496 0.092102)
(2.66327 -0.0274309 -0.0575809)
(2.32776 0.213437 0.0181681)
(3.30437 -0.168694 1.01348)
(3.30441 -0.438012 0.784487)
(3.16686 -0.555053 0.653471)
(3.00629 -0.33286 0.556967)
(2.90556 -0.395688 0.365289)
(2.79341 -0.600293 0.24108)
(2.6457 -0.815233 0.105605)
(3.06577 -0.0367324 -0.181934)
(2.71528 0.528632 -0.159089)
(3.93529 -0.334818 1.17965)
(3.7218 -0.57348 1.1078)
(3.64933 -1.22569 0.910324)
(3.3246 -1.42369 0.73291)
(3.44583 -0.607066 0.532513)
(3.44021 -0.543058 0.174994)
(3.47427 -0.353716 0.166553)
(3.33562 -0.724208 -0.0860927)
(3.22024 -0.365318 0.606268)
(3.04659 0.0279047 -0.191559)
(4.43952 -0.740859 1.28169)
(4.4988 -0.586742 1.17558)
(4.12556 -0.55681 1.43848)
(3.38198 -1.55252 1.86869)
(3.53702 -1.04804 1.30457)
(3.52404 -1.17666 0.953258)
(3.52876 -1.40449 0.502295)
(3.55278 -1.37489 0.271494)
(3.71524 -1.26819 0.0296849)
(3.57187 -0.586323 0.378651)
(3.36624 -0.273497 -0.0948438)
(4.36036 -0.612574 2.9268)