/*--------------------------------*- C++ -*----------------------------------*\
  =========                 |
  \\      /  F ield         | OpenFOAM: The Open Source CFD Toolbox
   \\    /   O peration     | Website:  https://openfoam.org
    \\  /    A nd           | Version:  7
     \\/     M anipulation  |
\*---------------------------------------------------------------------------*/
FoamFile
{
    version     2.0;
    format      ascii;
    class       surfaceScalarField;
    location    "8";
    object      phi;
}
// * * * * * * * * * * * * * * * * * * * * * * * * * * * * * * * * * * * * * //

dimensions      [0 3 -1 0 0 0 0];

internalField   nonuniform List<scalar> 
54095
(
0.000233897
-0.000127258
-4.48163e-05
9.25669e-05
0.00163807
4.92852e-05
0.000229161
-0.000302789
-5.36305e-05
0.000139556
0.000718477
-2.793e-05
-0.000105051
0.00503876
0.000161326
0.00016392
0.00168457
1.87374e-05
0.000116823
0.00179107
5.80835e-05
0.000219822
-0.000460041
-6.257e-05
0.000180987
0.000519945
-3.60847e-05
2.17082e-05
0.00124145
-3.24386e-05
-0.000479088
0.00738845
0.00036659
1.99187e-06
0.00500173
0.000198955
0.000171493
0.00330172
0.000353917
0.000237142
0.00168855
-2.12985e-05
0.000221089
0.00172566
4.40443e-05
0.000106855
0.002303
-2.12018e-05
0.00020977
-0.000599044
-7.07678e-05
0.000216421
0.000287788
-4.68337e-05
3.16423e-05
0.00120613
-3.24073e-05
-8.69603e-07
0.00180706
-4.20359e-05
-0.00102413
0.00556632
0.000465532
-0.000411116
0.00741379
0.000387761
1.63533e-05
0.00556508
0.000556482
0.000140333
0.00485036
0.000248183
0.00016728
0.00322887
0.000325616
0.000257831
0.00405316
0.000145248
0.000320844
0.00164802
-7.05364e-05
0.000347597
0.00154557
2.76227e-05
0.000135623
0.00226372
-2.0654e-05
2.76952e-05
0.00145142
3.1495e-06
0.000205594
-0.000727039
-7.7599e-05
0.000239602
3.35998e-05
-5.61816e-05
4.43348e-05
0.00114984
-3.48766e-05
1.27115e-05
0.00180585
-4.39064e-05
-4.03799e-05
0.000904645
-4.21126e-05
-0.00105567
0.00475385
0.000224791
-0.000984911
0.0056017
0.000538421
-0.000403495
0.00576659
0.00105027
-0.000329284
0.00749627
0.000387135
0.000148512
0.00538508
0.000586532
9.96683e-05
0.00607457
0.00064604
0.000287593
0.0046309
0.000252713
0.00021035
0.00340881
0.000205493
0.000376297
0.00404168
9.64169e-05
0.000204221
0.00356045
-2.89588e-05
0.000389461
0.00161743
-0.000153284
0.000464801
0.00124438
5.44673e-06
0.000149496
0.00219451
-8.32768e-06
3.44171e-05
0.00142684
-1.77764e-05
-0.000110622
0.00136536
1.17212e-05
0.000196611
-0.000840896
-8.27539e-05
0.00024638
-0.000225861
-6.45178e-05
5.37236e-05
0.00107559
-3.56569e-05
1.18735e-05
0.0018027
-4.36038e-05
-3.10087e-05
0.000937048
-4.53013e-05
-4.16763e-05
0.000527975
-4.79895e-05
-0.000997972
0.00526118
0.000195857
-0.00106462
0.00471391
0.000119649
-0.000599618
0.00683517
0.000432911
-0.00103707
0.00572886
0.000580619
-0.000408605
0.00582961
0.00103252
-0.000261128
0.00672
0.00111854
-0.00015572
0.00755718
0.000382408
0.000121978
0.00523727
0.000623315
0.000242812
0.00616664
0.000627947
0.000285804
0.00574612
0.000630383
0.000334374
0.0045339
0.000152088
0.000342817
0.00366389
0.000119615
0.000286292
0.00415911
-4.87335e-05
0.000178002
0.00355113
-3.7844e-05
-6.90978e-05
0.00229712
9.06416e-05
0.000429019
0.00155807
-0.000173048
0.000542431
0.000830312
-3.52639e-05
0.000173289
0.00207204
8.35142e-06
2.74322e-05
0.00141752
-1.45723e-05
-0.000118404
0.00141757
1.74022e-05
-9.67405e-05
0.00194128
-4.34943e-05
0.00019374
-0.000949403
-8.52325e-05
0.000232118
-0.000467886
-7.28476e-05
6.24951e-05
0.000984596
-3.60187e-05
1.91478e-05
0.00179325
-4.53543e-05
-4.74463e-05
0.000984925
-4.40338e-05
-2.90674e-05
0.000561865
-5.01235e-05
-7.32238e-05
0.000643691
-5.64196e-05
-0.00110099
0.00397698
8.83741e-05
-0.00123929
0.0052131
0.000222751
-0.000922561
0.0058609
0.00043382
-0.00110296
0.00460817
0.000171629
-0.000842034
0.00702461
0.000363639
-0.000403585
0.00681694
0.000541085
-0.000979153
0.005932
0.000620298
-0.000433497
0.00594822
0.00101748
-0.000221512
0.00717298
0.00104386
4.11859e-05
0.00759343
0.00127791
8.15223e-05
0.00738737
0.000422658
0.00029984
0.00506595
0.000596701
0.000175131
0.00624009
0.000661029
7.91013e-05
0.00586218
0.000610785
0.000221355
0.00509182
0.000378343
0.000340573
0.00456462
5.77234e-05
0.000564753
0.00379712
-3.46565e-06
0.000299053
0.00426268
-0.000109718
0.000153708
0.00341574
-3.96259e-05
-7.26132e-05
0.00210605
0.000107438
-8.67991e-05
0.00196802
0.00015299
0.000454787
0.00146706
-0.00017003
0.00054778
0.000406249
-6.46459e-05
0.000202439
0.00187255
2.42792e-05
3.85649e-07
0.00147455
-2.99085e-05
-0.000142397
0.00148603
1.19234e-05
-5.77371e-05
0.00201329
-2.59439e-05
-0.000118434
0.0014658
-4.56095e-05
0.00018291
-0.00104839
-8.39241e-05
0.00020138
-0.00067354
-8.09579e-05
7.36418e-05
0.000877296
-3.91896e-05
2.25689e-05
0.00178138
-4.67157e-05
-3.84637e-05
0.00102224
-4.4202e-05
-3.73989e-05
0.000605939
-5.07088e-05
-7.10212e-05
0.000722962
-5.83729e-05
-0.000115991
0.0010665
-5.79986e-05
-0.00117672
0.0040171
-0.000101365
-0.00157375
0.00407728
0.000234159
-0.00114791
0.00498449
0.000497406
-0.00114674
0.00505375
0.000203137
-0.00104994
0.0058762
0.000415351
-0.000464495
0.00622768
0.000642655
-0.00117188
0.00454467
0.000256222
-0.000726391
0.00703129
0.000457841
-0.000531018
0.00687525
0.000614837
-0.000354769
0.00722276
0.000635838
-0.000734671
0.00614921
0.000598981
-0.000293053
0.00620778
0.000953633
-4.30635e-05
0.00741128
0.000997379
-0.000220775
0.00784401
0.00109316
0.00012879
0.00731495
0.00115942
0.00018755
0.0070682
0.000472192
0.000524295
0.0049556
0.000573468
0.000268652
0.00622181
0.000645381
2.88904e-05
0.00600979
0.000638244
0.000113304
0.00518134
0.000335341
8.66944e-05
0.00488401
0.000183504
0.000374208
0.00463557
9.63254e-06
0.000670998
0.00387374
-0.000142117
0.000322594
0.00424871
-0.000109648
0.000102267
0.00320967
-5.52638e-06
-8.5491e-05
0.00190103
0.000108488
-5.84541e-05
0.00195021
0.000125971
3.33876e-05
0.00263015
0.00017174
0.000421651
0.00136181
-0.0001335
0.000505652
1.91967e-05
-8.72499e-05
0.000225983
0.00161997
3.55972e-05
-5.03507e-05
0.00161181
-4.00635e-05
-0.000114914
0.00153337
-8.00012e-07
-8.28524e-05
0.00210951
-3.88378e-05
-0.000115613
0.00153129
-4.68371e-05
-0.000195329
0.00126265
-1.96477e-05
0.000164588
-0.00113162
-8.13584e-05
0.000176186
-0.000846468
-8.7182e-05
8.3325e-05
0.000754897
-4.1883e-05
3.8113e-05
0.0017538
-4.97229e-05
-3.63622e-05
0.00105691
-4.50236e-05
-2.85858e-05
0.000640295
-4.99724e-05
-7.07134e-05
0.000804218
-6.12514e-05
-0.000108806
0.00117655
-5.96223e-05
-9.95972e-05
0.0014751
-4.73488e-05
-0.00121704
0.00357221
1.70474e-06
-0.00155675
0.0038074
0.000192708
-0.00107687
0.00451241
0.000228172
-0.00145496
0.00414818
0.000237314
-0.00139235
0.00503901
0.000522054
-0.000566835
0.00579505
0.000557265
-0.00108896
0.00480169
0.00016914
-0.000835195
0.00584228
0.000345867
-0.000562185
0.00605938
0.000614821
-0.000323432
0.00624688
0.000672291
-0.00134014
0.00481247
0.000337675
-0.000687687
0.00709677
0.000585378
-0.000275923
0.00683938
0.000726577
-0.00036053
0.00727788
0.000699471
-7.72018e-05
0.00717812
0.000728633
-0.000508496
0.00623239
0.000612865
-9.63182e-05
0.0065031
0.000924273
-4.07855e-06
0.00771715
0.000920499
-0.000204016
0.00801867
0.00105562
-8.71923e-05
0.00754876
0.00105984
1.67645e-05
0.00684569
0.000925084
0.000348087
0.00665726
0.000437068
0.000330855
0.00528189
0.000486045
0.00035549
0.0061728
0.000589586
7.05572e-05
0.0060797
0.000607173
4.80768e-05
0.00534278
0.000343235
0.000124336
0.00484715
0.000189402
9.07144e-05
0.00581473
0.000152335
0.000441032
0.00467217
-5.59831e-05
0.000733386
0.00390971
-0.000254072
0.000355327
0.00411112
-0.00013387
7.49501e-05
0.00292061
5.41154e-05
-4.04601e-05
0.00170662
0.000114426
1.97166e-05
0.00187754
7.85855e-05
-8.48866e-05
0.00255846
0.000166944
-0.000129723
0.00348078
0.000215616
0.000367018
0.00124575
-8.63632e-05
0.000476583
-0.000305991
-0.000108709
0.000242936
0.0013628
1.03075e-05
-2.87937e-06
0.00172413
-3.57289e-05
-0.000100746
0.00157379
-1.60968e-05
-4.72049e-05
0.00216511
-3.77896e-05
-0.000111215
0.00158404
-5.10887e-05
-0.000215939
0.00135462
-3.1671e-05
-0.000217631
0.0012093
-3.00524e-05
0.000143068
-0.00119671
-7.79771e-05
0.000154228
-0.000988946
-9.31089e-05
9.34869e-05
0.000622802
-4.85745e-05
2.83533e-05
0.00173398
-5.04211e-05
-4.04621e-05
0.0010938
-4.61514e-05
-2.88648e-05
0.00067467
-5.05344e-05
-7.22084e-05
0.000889729
-6.32756e-05
-9.69189e-05
0.00127452
-6.23068e-05
-9.9509e-05
0.00156112
-4.61367e-05
-0.000132452
0.00168478
-3.35376e-05
-0.00113454
0.00361822
-0.000105302
-0.00161754
0.00350035
0.00013265
-0.00105746
0.00470272
-2.45625e-05
-0.001552
0.00376175
0.000142692
-0.00123481
0.00433419
0.00021338
-0.000658191
0.00539302
0.000285552
-0.00139413
0.00429174
0.00016162
-0.00115753
0.00503958
0.000559076
-0.000474383
0.00565703
0.000572275
-0.000300002
0.00561541
0.000654988
-0.00125901
0.00457019
0.000150368
-0.000926129
0.00586857
0.000381293
-0.00051605
0.00604859
0.000596781
-0.000301977
0.00614218
0.00066096
-3.56943e-05
0.00610004
0.000753047
-0.00121781
0.0051107
0.000411082
-0.00044841
0.00708071
0.00070582
-0.000250342
0.00691726
0.000753755
-0.000158
0.00720576
0.000752688
-7.90946e-05
0.00710689
0.000762606
0.000118909
0.00684573
0.000725697
-0.000339931
0.00639419
0.000526217
-0.000813962
0.00723222
0.00102856
-8.90858e-05
0.0081173
0.000968697
-0.000173011
0.00809888
0.00108386
-5.1443e-05
0.00762349
0.00108041
8.22545e-06
0.00702891
0.000992735
-0.000220451
0.00732589
0.000835366
0.000419528
0.00635653
0.000322232
0.000725696
0.00533379
0.000392856
0.000518629
0.00603804
0.000457499
0.000237807
0.00598751
0.000518924
0.000193835
0.00541116
0.000304501
0.000226554
0.00485915
0.0001244
-0.000114729
0.00583062
0.00020335
-0.000116311
0.00589193
0.000342413
0.000510612
0.00462971
-0.000101137
0.000760833
0.00382553
-0.000256044
0.000399171
0.00387419
-0.000173382
0.000102394
0.00256992
0.000111545
3.20464e-05
0.0015144
0.000113551
0.000126936
0.00178342
3.44027e-05
-6.66752e-05
0.00244383
0.000148673
-0.000206173
0.00345519
0.000182766
-0.000248547
0.00346902
0.000268131
0.000302091
0.00113256
-4.58384e-05
0.000462967
-0.000585681
-0.000115412
0.000268999
0.00110891
-3.03304e-05
-3.92282e-05
0.00184662
-4.46018e-05
-9.57234e-05
0.0016154
-2.20817e-05
-3.42985e-05
0.00219951
-4.5056e-05
-0.000129906
0.00166161
-5.76667e-05
-0.000205145
0.00144808
-3.63308e-05
-0.000274585
0.00139856
-4.5855e-05
-0.000271625
0.00156828
-4.38595e-05
0.000120657
-0.00124288
-7.44874e-05
0.000138511
-0.00110641
-9.90207e-05
0.000104297
0.00048035
-5.49536e-05
2.95177e-05
0.00170866
-5.27683e-05
-4.36354e-05
0.00113392
-4.69094e-05
-2.94087e-05
0.000710431
-5.25037e-05
-7.27965e-05
0.000976915
-6.49237e-05
-8.58691e-05
0.00136191
-6.47877e-05
-9.25942e-05
0.00163517
-4.37596e-05
-0.000130822
0.00180208
-3.26099e-05
-0.000129054
0.00167212
-2.95834e-05
-0.0014143
0.00335391
5.31214e-05
-0.00312726
-0.00144697
0.00349771
-5.00606e-05
-0.00131742
0.00395819
0.000120988
-0.00160296
0.00340811
0.000143193
-0.00107533
0.00461937
5.65177e-05
-0.000851414
0.00491632
0.000136185
-0.0015514
0.00375708
0.000161938
-0.00120985
0.00441252
0.00011668
-0.000511576
0.00536562
0.00027797
-0.000367898
0.00539027
0.000404987
-0.001457
0.00428292
0.000206807
-0.00119063
0.00499139
0.000474312
-0.000479182
0.00557592
0.000603317
-0.000281859
0.00547731
0.000690257
-5.18306e-05
0.00533837
0.000724897
-0.00118322
0.00440883
0.000126764
-0.000892201
0.00604759
0.00041514
-0.000458581
0.00605934
0.000578778
-0.00026581
0.00610481
0.000741969
-6.59233e-05
0.00595451
0.000793322
6.04607e-05
0.00613928
0.000879439
-0.00118331
0.00554735
0.000406727
-0.000798848
0.0067535
0.00072318
-0.000399637
0.00710899
0.000824647
-0.000240253
0.00716326
0.000863491
3.29531e-05
0.00699142
0.000783763
1.38957e-05
0.00682832
0.000774346
-2.22057e-05
0.00677526
0.000725084
-0.000405625
0.00671062
0.000508725
-0.000345345
0.00792083
0.000908655
0.000237288
0.00841939
0.00100781
3.48668e-05
0.00814821
0.00112231
2.48593e-05
0.00775467
0.00112166
-0.000142139
0.00744498
0.00103304
-0.000216107
0.00748976
0.00093024
1.90826e-06
0.00689645
0.000837491
0.000486044
0.00608741
0.000293692
0.0007409
0.00533175
0.000344208
0.000479597
0.00594811
0.000402356
0.000365179
0.00569455
0.000487677
0.000377217
0.00533533
0.000249585
0.000429532
0.00474871
0.000112346
-7.65103e-06
0.00565031
0.000245692
-4.72052e-05
0.00557831
0.000358003
-0.000102113
0.00520466
0.00048019
0.000564717
0.00449945
-0.000132362
0.000720777
0.00362335
-0.000156771
0.000425659
0.0035754
-0.000113912
0.000137535
0.00209009
0.000129682
0.000121415
0.00130966
9.91467e-05
0.000190149
0.00167
2.5233e-06
-0.000193921
0.00243078
0.000111464
-0.000277351
0.00347279
0.000203283
-0.000357435
0.00352374
0.000210902
-0.000260663
0.00295854
0.00026873
0.00027565
0.000991331
-1.37605e-05
0.000440755
-0.000811781
-0.000121982
0.000258692
0.000902765
-6.36661e-05
-2.28307e-05
0.00190737
-3.87376e-05
-8.93297e-05
0.00164632
-2.98209e-05
-2.22607e-05
0.00222636
-5.60825e-05
-0.000131837
0.00173256
-5.69586e-05
-0.000210176
0.0015668
-5.20715e-05
-0.000262823
0.00157781
-4.53528e-05
-0.000297226
0.00174675
-5.79236e-05
-0.000315389
0.00188
-5.30276e-05
0.000101879
-0.00127384
-7.09191e-05
0.000123161
-0.0011991
-0.000104967
0.000108903
0.000336682
-6.42559e-05
3.82963e-05
0.00166928
-5.38703e-05
-3.67911e-05
0.0011658
-4.78611e-05
-2.88771e-05
0.000746355
-5.39564e-05
-6.98693e-05
0.00106152
-6.72409e-05
-8.08777e-05
0.00144337
-6.55106e-05
-9.04617e-05
0.00170761
-4.6769e-05
-0.000131731
0.00192011
-3.00572e-05
-0.000129193
0.00179787
-2.91698e-05
-8.46816e-05
0.00183286
-2.84552e-05
-0.00148249
0.00288666
6.99504e-05
-0.00288842
-0.00150018
0.00335683
5.02836e-05
-0.0013207
0.00371903
1.90311e-05
-0.00368165
-0.00158022
7.71879e-05
-0.00140371
0.00339388
-9.54197e-05
-0.0012759
0.00401678
9.19172e-05
-0.000963385
0.00435194
0.000197894
-0.00166305
0.00340262
0.000117136
-0.000953985
0.00446119
4.55188e-05
-0.000293843
0.00465274
0.000102363
-0.000445807
0.00520915
0.000256418
-0.00157543
0.00370555
0.000169954
-0.00121444
0.00447993
0.000118337
-0.000573634
0.00531649
0.00026026
-0.000359119
0.00538296
0.000362541
-0.000222051
0.00534942
0.000473008
-0.00138921
0.00427281
0.000216105
-0.00110412
0.00494601
0.000464108
-0.000551239
0.00554655
0.00059634
-0.000309875
0.00543396
0.000690725
-0.000141347
0.00532238
0.000781664
-9.54784e-05
0.0053601
0.000801131
-0.0012708
0.00435895
0.000137381
-0.000868136
0.00586391
0.000379725
-0.000399111
0.00588021
0.00059374
-0.000348427
0.00604293
0.000748826
-8.85738e-05
0.00589203
0.000925979
-4.39824e-05
0.00609714
0.000893343
0.00012078
0.00599693
0.000887495
-0.00118091
0.00588894
0.00043369
-0.000829816
0.00692483
0.000719867
-9.18296e-05
0.0072829
0.000878388
-8.17286e-05
0.00723523
0.000869276
-4.09343e-07
0.00705375
0.000826429
-7.47493e-05
0.00671958
0.000825118
-3.60353e-05
0.00656606
0.000803471
-4.51009e-05
0.00672512
0.000834284
-0.000480226
0.00715269
0.000524202
-0.000302779
0.00858301
0.000890214
0.000123577
0.00860786
0.0010762
0.000177657
0.0082749
0.00106864
0.000203733
0.00794886
0.0011016
0.000329458
0.00768838
0.000978333
-0.000103717
0.00760675
0.00101211
0.000188674
0.006721
0.000869812
0.000109925
0.0065654
0.000753334
0.000684353
0.00568657
0.000281198
0.000631448
0.00540082
0.000313946
0.000491481
0.00584673
0.000379771
0.000515536
0.00523936
0.000479542
0.000529581
0.00508985
0.000324988
0.00048849
0.0045907
0.000109256
-0.000125504
0.00542312
0.000271114
-0.000203815
0.0053411
0.000409362
-0.00011098
0.00486481
0.0004514
-2.33967e-07
0.00483672
0.000405811
0.000504574
0.0044373
-0.000166775
0.000615395
0.00352179
-0.000205439
0.000357873
0.00328077
3.86755e-05
0.000166939
0.00164774
0.000138673
0.000201845
0.00106434
8.38291e-05
4.75732e-06
0.00176266
-2.05232e-05
-0.000212655
0.00242165
9.24747e-05
-0.000281071
0.00348472
0.000170422
-0.000353227
0.00359779
0.000219635
-0.000314997
0.00292618
0.000261033
-0.000349864
0.00249747
0.000208431
0.000256135
0.00081806
1.90163e-05
0.000397606
-0.000971927
-0.00012806
0.000224827
0.000757717
-9.28569e-05
-5.69736e-06
0.00193316
-4.54617e-05
-5.43229e-05
0.00165089
-2.578e-05
-1.79942e-05
0.0022467
-6.10443e-05
-0.000139862
0.00180172
-5.52542e-05
-0.000221063
0.00170867
-5.86431e-05
-0.000267357
0.00175323
-5.05956e-05
-0.000303102
0.00192061
-4.78394e-05
-0.00031603
0.00207107
-6.21599e-05
-0.000225461
0.00226009
-3.90307e-05
9.44417e-05
-0.00130115
-6.71322e-05
0.000106516
-0.0012662
-0.000110328
0.000108943
0.000195932
-7.31595e-05
3.68699e-05
0.00162378
-5.56199e-05
-4.09771e-05
0.001202
-4.90851e-05
-3.38093e-05
0.000787324
-5.50203e-05
-6.74253e-05
0.00114429
-6.92969e-05
-7.78774e-05
0.00152069
-6.66817e-05
-8.91258e-05
0.00177805
-4.68247e-05
-0.000123458
0.00202928
-3.2488e-05
-0.00012469
0.00192117
-2.86703e-05
-9.06937e-05
0.00192194
-2.75579e-05
-5.78765e-06
0.00236115
-2.33237e-05
-0.00142453
0.00273843
-1.47955e-05
-0.00278159
-0.00161706
0.00285893
0.000144612
-0.00119019
0.00349038
6.75483e-05
-0.00361849
-0.00162428
-6.9994e-06
-0.00152091
0.00350198
-2.79424e-05
-0.00128953
0.00377023
1.2719e-05
-0.000847937
0.00377611
0.000100068
-0.00397259
-0.00115676
5.90191e-06
-0.00142175
0.00327844
-0.000125855
-0.00116104
0.00411676
1.16489e-05
-0.000520652
0.00445317
0.000217495
-0.000515979
0.00454061
0.000308254
-0.00172273
0.00342284
0.000127083
-0.000999974
0.00430699
5.68646e-05
-0.000668192
0.00467272
0.000120096
-0.000358596
0.00509693
0.000214068
-0.000348013
0.00517086
0.000354991
-0.00158739
0.0037718
0.000131942
-0.00114227
0.00452163
0.000166412
-0.000641076
0.00522417
0.000300498
-0.000299804
0.00533079
0.000302365
-0.000264671
0.00536352
0.000471768
-0.000253373
0.00524997
0.000595265
-0.00139034
0.00424594
0.000146402
-0.00109089
0.00492841
0.000456461
-0.000505952
0.00552807
0.000589423
-0.000313703
0.00532483
0.000670748
-0.000168402
0.00527652
0.000816414
-1.09595e-05
0.00534141
0.000767324
-8.15176e-05
0.00547993
0.000874755
-0.00130507
0.00430172
0.000181385
-0.000998558
0.00580913
0.000360904
-0.000278602
0.00582436
0.000622355
-0.000165866
0.00595871
0.000762098
-0.000101335
0.00582088
0.0009209
0.000296593
0.00568795
0.000963825
-5.03002e-05
0.00603436
0.00087018
-1.09935e-05
0.00604151
0.0008879
-0.00120519
0.00613007
0.000483835
-0.000821135
0.00709304
0.000783839
-0.000167187
0.00744714
0.000846389
5.25991e-05
0.00734038
0.000898298
0.000107466
0.00713708
0.000882204
0.000361713
0.00672455
0.000789203
-5.18841e-05
0.00649492
0.000844423
-7.12103e-06
0.00678715
0.000937232
-0.000108944
0.00700669
0.00102655
-0.000458341
0.00775023
0.000545154
-0.000122952
0.00898802
0.000873593
0.000235738
0.008723
0.00103082
0.000446527
0.00830282
0.0011173
0.000430483
0.00798952
0.00112708
5.91406e-05
0.00822865
0.000990673
-2.23441e-05
0.00752811
0.000953815
2.29809e-05
0.00658545
0.000920856
0.000273706
0.00625638
0.000794139
0.000197176
0.00633274
0.0007089
0.000466894
0.00543877
0.000285479
0.00044694
0.00548549
0.000364986
0.000491215
0.00580182
0.00022551
0.0004927
0.0050394
0.000253966
0.000643395
0.00482868
0.000299166
0.000186151
0.00455388
0.00018041
-7.76739e-05
0.00504329
0.00035411
-0.000157493
0.0050674
0.000421238
-0.000120814
0.00463477
0.000406983
-0.000106055
0.00469519
0.000383992
-7.0452e-05
0.00418394
0.0003765
0.000342888
0.00451843
-0.000167881
0.00054853
0.00344736
-0.000243269
0.000276005
0.00301802
6.14135e-06
0.000188605
0.00136112
0.000130991
0.000209776
0.000888586
5.03238e-05
-7.02647e-05
0.00193332
-3.45604e-05
-0.000258558
0.00245058
6.92391e-05
-0.000325287
0.00354754
0.000133885
-0.000352247
0.00365176
0.000201341
-0.000381626
0.00299952
0.00022482
-0.000353905
0.00258643
0.000209947
-0.00027607
0.00288778
6.32654e-05
0.000205725
0.000666676
4.01003e-05
0.000341635
-0.00106549
-0.000122535
0.000231225
0.000624447
-0.000117072
1.74032e-07
0.00193011
-5.31113e-05
-6.48607e-05
0.00166296
-3.3647e-05
-1.41112e-05
0.00226576
-6.45353e-05
-0.000153139
0.00188723
-6.08423e-05
-0.000221115
0.00185645
-5.97957e-05
-0.000277504
0.00194537
-6.24049e-05
-0.000301386
0.00208294
-3.4994e-05
-0.000306688
0.00225839
-5.31578e-05
-0.000204501
0.0023591
-4.73595e-05
-7.91177e-05
0.00282274
-5.93839e-05
8.36908e-05
-0.00132156
-6.32767e-05
8.92834e-05
-0.001308
-0.000114614
0.000102588
6.39735e-05
-8.09577e-05
4.00566e-05
0.00156771
-5.7154e-05
-4.35695e-05
0.00124017
-5.02204e-05
-3.65294e-05
0.000831415
-5.66467e-05
-6.83964e-05
0.00122789
-7.02242e-05
-6.85842e-05
0.00158781
-6.78378e-05
-8.09111e-05
0.00183992
-4.76389e-05
-0.000119736
0.00213415
-3.19592e-05
-0.000111786
0.00203012
-2.965e-05
-7.42176e-05
0.00199554
-2.80551e-05
2.79379e-06
0.00235347
-2.26747e-05
4.16363e-05
0.00233835
-1.23771e-05
-0.00137453
0.00267191
-0.000133799
-0.00258812
-0.00152868
0.00272266
-7.2616e-05
-0.00108709
0.00342057
-0.000134852
-0.00340362
-0.00153662
-9.52736e-05
-0.00171757
0.00289066
0.000164932
-0.00130411
0.00355114
9.84287e-05
-0.000847144
0.0038309
8.63319e-05
-0.00385048
-0.00116641
1.04502e-05
-0.00137701
0.00349928
-4.20441e-05
-0.00120311
0.0037652
1.91614e-05
-0.000920235
0.00404597
0.000142445
-0.000712168
0.00409861
0.000258699
-0.00406105
-0.000853825
0.000121161
-0.00157291
0.0032611
-0.000132479
-0.00118168
0.0041664
6.20956e-06
-0.000809168
0.00443827
0.000167526
-0.000523571
0.00459478
0.000328296
-0.000422419
0.00467845
0.000409475
-0.00166789
0.00337242
0.000130917
-0.00107692
0.00429446
7.42602e-05
-0.00076944
0.00468635
0.0001716
-0.00044885
0.00512518
0.000240885
-0.000348403
0.00512682
0.000341837
-0.000380012
0.00516215
0.000478339
-0.00155457
0.00382243
0.000113603
-0.00119132
0.00457844
0.000175557
-0.000511024
0.00508878
0.000306868
-0.000265778
0.00519135
0.000392008
-0.000228504
0.00532216
0.000403832
-0.000181955
0.00528425
0.000608478
-0.000227177
0.00544397
0.000701119
-0.00144368
0.00424922
0.00013533
-0.00114762
0.00482178
0.000402093
-0.000407166
0.00555185
0.000561252
-0.000282912
0.00531476
0.000716539
-0.000144718
0.00519351
0.000797142
0.000243884
0.00538659
0.00082395
-0.000195399
0.00549743
0.000894925
-0.000129732
0.0055237
0.000915279
-0.00134533
0.00422591
0.000215952
-0.000976285
0.00577636
0.00036931
-0.000438299
0.00585145
0.000604926
-3.31336e-05
0.00586491
0.000801892
2.14749e-05
0.00574244
0.00092653
-4.57477e-05
0.00596773
0.00104859
1.78882e-06
0.00602375
0.000920763
-5.8651e-05
0.00612185
0.000841367
-3.00594e-05
0.00608124
0.000921621
-0.0013454
0.00662948
0.000387651
-0.000656718
0.00730152
0.000809117
-7.18278e-05
0.00767847
0.000860071
0.000113856
0.00766708
0.000852356
0.000335842
0.00728942
0.000840598
1.43026e-05
0.00673759
0.000914003
-3.59314e-05
0.00642576
0.000871948
-9.99482e-05
0.00681123
0.000943278
-0.000155805
0.00723288
0.00114056
8.02222e-06
0.00712434
0.00121355
-0.000464053
0.0081355
0.000545672
-0.00010045
0.00918937
0.000891199
0.00029038
0.00881279
0.000984633
0.00038785
0.00842225
0.00101624
0.000534064
0.00805763
0.00115852
-5.97963e-06
0.00846464
0.00108322
0.000117084
0.0073201
0.00100393
2.6433e-05
0.00647756
0.000877781
0.000156017
0.00616082
0.000739586
9.38448e-05
0.00619343
0.000733544
0.000159847
0.00599247
0.000691911
-1.33005e-05
0.00545394
0.000341018
0.00020526
0.00573224
0.000382003
0.000473733
0.00575782
0.000211257
0.000530237
0.00493033
-7.05265e-06
0.000592802
0.0046394
6.02183e-05
5.66291e-05
0.00452101
0.000205146
-2.97246e-05
0.00465517
0.000339699
-0.000120834
0.0047226
0.000494459
-0.000341084
0.00465349
0.000391356
-0.000215177
0.00458311
0.000352607
-0.000342928
0.00420595
0.000351004
-0.000332101
0.00395931
0.000286815
0.000147146
0.00469342
-0.000116418
0.000551841
0.00333785
-0.000268584
0.000283627
0.0027575
-3.51533e-05
0.000235741
0.00103228
9.94116e-05
0.000158362
0.000808666
-1.23114e-05
-8.37382e-05
0.00210876
-5.54914e-05
-0.000293119
0.00251741
3.85964e-05
-0.000388672
0.00365873
0.000125608
-0.000368327
0.00370418
0.000172288
-0.000346815
0.0030792
0.000167091
-0.000351228
0.00269992
0.000155862
-0.000229211
0.00308416
3.82732e-05
-9.9005e-05
0.00293777
-1.29115e-06
0.00031131
0.000383177
5.58799e-05
0.000298358
-0.00112637
-0.000108099
0.000235719
0.000488944
-0.000120163
2.99326e-05
0.00187977
-5.66094e-05
-6.7006e-05
0.00167963
-4.63482e-05
-1.77534e-05
0.00228154
-6.82084e-05
-0.000157868
0.00198479
-7.26193e-05
-0.000228687
0.00202025
-6.45422e-05
-0.000266149
0.00216016
-8.93496e-05
-0.00029347
0.00223954
-4.52687e-05
-0.00027126
0.00242256
-3.9691e-05
-0.000170181
0.00245399
-5.2088e-05
-5.14272e-05
0.0029078
-7.82039e-05
1.99614e-05
0.00321138
-4.41877e-05
7.19592e-05
-0.00133364
-5.98807e-05
7.19456e-05
-0.00132636
-0.000116869
8.92812e-05
-5.17531e-05
-8.81687e-05
4.07158e-05
0.00150441
-5.83677e-05
-4.44258e-05
0.00127891
-5.14708e-05
-4.15521e-05
0.000881689
-5.89419e-05
-6.21449e-05
0.00130597
-7.25819e-05
-7.64678e-05
0.00166228
-6.82255e-05
-7.99529e-05
0.00190026
-4.82235e-05
-0.000114886
0.00223425
-3.28476e-05
-9.96138e-05
0.00212757
-2.97924e-05
-6.29324e-05
0.00205794
-2.91197e-05
1.31238e-05
0.00233494
-2.26462e-05
4.9365e-05
0.00227787
-1.15601e-05
8.7993e-05
0.00223208
-2.21055e-05
-0.00151614
0.00212516
0.000113647
-0.0020972
-0.0014727
0.00270104
-8.51132e-05
-0.00123884
0.00307163
-1.37378e-05
-0.00303993
-0.00152239
-7.48639e-05
-0.00252748
-0.00157612
0.00272423
-0.000143017
-0.00128998
0.0034749
-0.000141076
-0.00111297
0.00357927
8.69109e-05
-0.00353521
-0.00126143
-0.000152435
-0.00159386
0.00294558
0.000161925
-0.00121867
0.00360082
0.000130807
-0.000870666
0.00382718
5.25835e-05
-0.000838165
0.00387275
0.000181497
-0.00384192
-0.000997822
0.000114994
-0.00150967
0.00347197
-3.59381e-05
-0.0012388
0.0037551
2.51782e-05
-0.00088096
0.00403595
0.000100966
-0.000724951
0.00416506
0.000277375
-0.000597643
0.0041766
0.000436173
-0.00417885
-0.00072043
0.000288987
-0.00160655
0.00334045
-0.000140682
-0.00120757
0.00417979
-1.52212e-05
-0.000841965
0.00437444
0.000142569
-0.000616838
0.0046065
0.000323799
-0.000438179
0.00465356
0.000442956
-0.00039029
0.00475973
0.000488303
-0.00167646
0.00335563
0.000138676
-0.00106169
0.00426377
3.19799e-05
-0.000644918
0.00468899
0.000205512
-0.000381372
0.00511639
0.000295987
-0.000293646
0.00508286
0.000349993
-0.000345257
0.00517061
0.000496687
-0.000340903
0.00520451
0.000599575
-0.00154287
0.003856
6.5616e-05
-0.00109114
0.0044593
0.00017626
-0.000705257
0.00523242
0.000330015
-0.000263596
0.00508253
0.000396373
-0.000134638
0.00519207
0.00051201
-0.000111598
0.00543751
0.000606055
-0.000212642
0.00544489
0.000624806
-0.000245232
0.00556592
0.000758763
-0.00144341
0.00418455
0.000162755
-0.00137005
0.00499134
0.000359526
-0.000467255
0.00540712
0.000575772
-0.00016595
0.00532546
0.000683366
-0.00015233
0.00527246
0.000811397
-0.000139109
0.0054379
0.000839185
-0.000148129
0.00556594
0.000905359
-0.000201437
0.00556815
0.000993261
-0.0001027
0.00556762
0.000971315
-0.00142523
0.0041318
0.000173936
-0.000811298
0.00573534
0.000411549
-0.000496474
0.0059696
0.000675802
-0.000116551
0.00589328
0.000806963
0.000143619
0.00568971
0.00104685
-1.10904e-05
0.0058702
0.00104945
6.6726e-05
0.00596488
0.00100479
2.16296e-05
0.00601051
0.000910526
-0.00027222
0.00618869
0.000850337
-5.78123e-05
0.00618279
0.000954578
-0.00124566
0.00710077
0.000310314
-0.000609832
0.00747729
0.000721263
5.51672e-05
0.00786088
0.000861929
0.000448542
0.00761512
0.000851343
0.000429273
0.00741985
0.000826722
-9.92485e-05
0.00682577
0.000845682
3.34728e-05
0.00648374
0.000939634
-7.93452e-05
0.00681307
0.000975882
-8.4931e-05
0.00733209
0.00108501
-3.89043e-05
0.00714563
0.00125202
-8.3828e-05
0.00715184
0.00126537
-0.000679951
0.00830639
0.000495765
-0.000441423
0.00942109
0.000960638
0.000311667
0.00894287
0.000923188
0.000576214
0.00838925
0.000971652
0.000489157
0.00813007
0.00104744
0.000197879
0.00842024
0.00106167
6.81769e-05
0.00723431
0.00107111
0.000199697
0.00634755
0.000813407
-0.000147337
0.0061043
0.000740561
1.8867e-05
0.00604692
0.000652059
-0.000162223
0.00587192
0.000673385
-0.00011446
0.00544496
0.000668113
-0.000353446
0.00567801
0.000276523
0.000274126
0.00605697
0.000293998
0.00043043
0.00585699
0.00013603
0.000573788
0.00480867
-5.12399e-06
0.000513486
0.00425766
1.95667e-05
0.000110018
0.00414868
0.000238786
-0.000155362
0.00432969
0.000392868
-0.000248557
0.00448877
0.000433414
-0.000256674
0.00463621
0.000400084
-0.000301381
0.00460016
0.000328873
-0.00036052
0.00423462
0.000333227
-0.000343712
0.00394986
0.000474955
-0.000208547
0.00369019
0.00022824
0.000173736
0.00500378
-0.00017278
0.000648142
0.00310858
-0.000236931
0.000318512
0.00246635
-6.02295e-05
0.000275332
0.000676543
7.51876e-05
9.78305e-05
0.000715174
2.80669e-05
-0.000116236
0.00228949
-9.45651e-05
-0.000279745
0.00257071
1.30857e-05
-0.000336905
0.0036889
0.000116643
-0.000356353
0.0037601
0.000159888
-0.000364927
0.00321878
0.000104165
-0.000299975
0.0028145
8.12347e-05
-0.000163835
0.00322838
5.29581e-06
-6.97848e-05
0.00304683
-5.24279e-05
0.000119402
0.00348734
-4.8201e-05
0.000189826
0.000205111
6.0199e-05
0.000243203
-0.00115669
-8.50556e-05
0.00021906
0.000358601
-0.000107535
6.49768e-05
0.00178723
-5.18771e-05
-6.48647e-05
0.00170104
-5.75775e-05
3.79814e-05
0.00223093
-7.52719e-05
-0.000161588
0.00209556
-7.95341e-05
-0.000231215
0.00218703
-8.46581e-05
-0.000255363
0.00237046
-9.94355e-05
-0.000269638
0.00238007
-7.51306e-05
-0.000217151
0.00253505
-4.0217e-05
-0.000143733
0.00254981
-5.47095e-05
-1.60176e-05
0.00296375
-7.8897e-05
3.98276e-05
0.00319396
-5.12525e-05
0.000152006
0.0030353
-2.43697e-05
5.52139e-05
-0.00133252
-5.63333e-05
5.41334e-05
-0.00132429
-0.000116086
7.32114e-05
-0.000147982
-9.38513e-05
4.00501e-05
0.00143603
-5.98441e-05
-4.59258e-05
0.00131893
-5.24608e-05
-4.74188e-05
0.000937305
-5.96683e-05
-5.9679e-05
0.00138065
-7.3943e-05
-4.56129e-05
0.00170605
-7.07377e-05
-7.2972e-05
0.00195281
-4.78105e-05
-0.000110646
0.00232969
-3.30205e-05
-8.58552e-05
0.00221031