/*--------------------------------*- C++ -*----------------------------------*\
  =========                 |
  \\      /  F ield         | OpenFOAM: The Open Source CFD Toolbox
   \\    /   O peration     | Website:  https://openfoam.org
    \\  /    A nd           | Version:  7
     \\/     M anipulation  |
\*---------------------------------------------------------------------------*/
FoamFile
{
    version     2.0;
    format      ascii;
    class       volVectorField;
    location    "8";
    object      U;
}
// * * * * * * * * * * * * * * * * * * * * * * * * * * * * * * * * * * * * * //

dimensions      [0 1 -1 0 0 0 0];

internalField   nonuniform List<vector> 
18750
(
(3.4409 0.100347 -1.35907)
(1.3948 1.13838 -0.259363)
(3.12586 0.163388 -1.40928)
(1.68463 0.617598 -0.703225)
(-0.54335 3.41892 0.755969)
(1.67226 1.31255 -0.40528)
(1.37058 1.25881 1.04171)
(2.7396 0.186205 -1.3978)
(1.84786 0.621939 -1.04926)
(0.176855 0.840996 -0.599346)
(-0.554583 5.01835 0.45171)
(-0.267508 3.40075 0.926906)
(-0.129256 2.14716 0.845553)
(1.93119 1.48994 -0.562028)
(2.24607 1.41997 0.704509)
(0.319902 1.58403 -0.223912)
(2.33861 0.173173 -1.34825)
(1.89404 0.59751 -1.46012)
(0.195433 0.846149 -0.615468)
(-0.000972091 1.24291 -0.89968)
(-2.43531 3.64324 -0.763448)
(-0.519535 4.98782 0.606343)
(1.16073 3.84141 1.85488)
(0.0227635 3.41682 1.11453)
(-0.165778 1.86666 0.889062)
(0.769014 2.73072 2.11476)
(2.19433 1.68645 -0.740097)
(3.11483 1.60535 0.244209)
(0.412426 1.60668 -0.0910976)
(-0.110474 0.996928 -0.0719702)
(1.97193 0.129422 -1.2919)
(1.83108 0.527165 -1.87279)
(0.251608 0.829815 -0.679484)
(0.137747 1.27008 -0.893579)
(-0.643065 0.55802 -0.967834)
(-2.63143 3.08774 0.119545)
(-2.60254 3.58897 -0.666299)
(-1.37099 3.89685 2.93328)
(-0.319856 5.02762 0.698129)
(0.956372 3.79185 1.86581)
(1.02498 4.10762 1.70931)
(0.429398 3.36615 1.3213)
(-0.0808939 2.42337 1.01673)
(0.720765 2.79044 1.92395)
(0.366038 2.43401 -0.693649)
(2.60355 1.77311 -1.13044)
(3.79156 1.8072 -0.344502)
(0.52602 1.61894 0.136681)
(-0.0760566 0.968147 -0.20386)
(-0.139352 0.89339 0.124595)
(1.71125 0.0756761 -1.19491)
(1.7235 0.423696 -2.22629)
(0.252247 0.844318 -0.672734)
(0.00102568 1.26912 -0.950976)
(-0.525434 0.57633 -1.0425)
(-0.767492 0.316529 -0.992537)
(-1.46719 3.6576 0.394595)
(-2.65916 3.04957 0.0938087)
(-0.657045 4.5987 0.74735)
(-2.87582 3.43878 -0.460933)
(-0.887917 3.75777 3.16119)
(-0.756206 4.78133 2.4849)
(-0.169966 5.2167 0.818399)
(0.950611 3.73909 1.78842)
(1.49252 4.19236 1.78331)
(0.915424 4.01038 2.33821)
(0.519656 3.45359 1.14187)
(0.226039 2.69306 0.859929)
(0.456006 2.88173 0.793675)
(0.172436 2.42848 -1.02053)
(-1.31979 1.56589 0.450038)
(2.57103 2.20615 -0.909979)
(4.10063 1.90087 -1.2133)
(0.630843 1.63969 0.414421)
(-0.0667304 0.965196 -0.256603)
(-0.165614 0.934828 -0.0429633)
(0.00881547 1.29536 0.0455605)
(1.58562 0.0512852 -1.06245)
(1.60494 0.334218 -2.54399)
(0.208581 0.790616 -0.679645)
(0.00371183 1.26686 -0.997165)
(-0.697005 0.534536 -0.967018)
(-0.820719 0.276267 -1.06163)
(-0.802646 0.355963 -1.22968)
(-1.93605 2.91176 -0.433865)
(-1.88152 3.35589 0.447304)
(-1.80622 3.8289 0.310012)
(-2.9832 2.68233 0.0827549)
(-1.69978 4.42041 0.370979)
(-0.742875 4.53912 1.00258)
(-2.64215 3.4398 -0.00564954)
(-1.56285 3.73029 3.14875)
(-0.881287 4.65574 2.20312)
(0.550731 4.99775 3.11774)
(-0.460256 5.21768 1.2261)
(1.2131 3.92892 1.63395)
(0.600453 4.40268 2.05569)
(0.560923 4.00589 2.24576)
(0.708083 3.5437 1.88002)
(0.575802 3.42709 0.78041)
(0.553529 2.74251 0.150325)
(0.296133 2.94726 0.156074)
(-0.134159 2.3862 -1.20328)
(-1.52047 1.34647 0.70393)
(-1.30141 1.2975 0.43207)
(2.65483 2.15072 -0.83983)
(3.88155 1.78844 -1.72716)
(0.818815 1.64053 0.684331)
(-0.0320949 0.990874 -0.278663)
(-0.48678 0.916325 0.0544633)
(0.360563 1.30671 0.294162)
(-0.808683 0.925179 -0.700582)
(1.56215 0.0521405 -0.921066)
(1.5464 0.240694 -2.77404)
(0.223475 0.764484 -0.720406)
(0.0673967 1.30512 -1.00282)
(-0.711335 0.538219 -1.00504)
(-0.815031 0.267862 -1.0711)
(-0.79032 0.358258 -1.24257)
(-0.855421 0.635126 -1.34345)
(-1.28756 2.86352 -0.601622)
(-2.60135 2.30002 -0.0441986)
(-1.47131 3.31679 0.680853)
(-1.98309 3.18367 0.48329)
(-2.13068 3.72539 0.316887)
(-0.955302 4.23792 1.13128)
(-3.32253 2.42801 -0.021002)
(-1.64318 4.66457 0.562861)
(-1.05875 4.50093 1.11764)
(-0.697566 4.67378 1.24217)
(-1.54346 3.79257 0.385624)
(-1.35072 3.99054 2.88458)
(-0.910677 4.66739 2.09993)
(-0.972969 5.25432 2.79395)
(0.406383 4.73097 3.27074)
(-0.867655 4.95564 1.53558)
(2.23595 3.9401 1.42523)
(0.455329 4.40402 2.03782)
(0.315813 4.00002 2.21761)
(0.627664 3.518 1.75064)
(0.591098 3.28033 0.614707)
(0.450792 3.55497 0.688185)
(0.600969 2.87563 -0.325427)
(0.0719635 3.0752 -0.22136)
(-0.689677 2.17866 -1.08092)
(-1.53829 1.14557 0.872152)
(-1.38458 1.19728 0.320226)
(-0.694712 1.78198 0.866084)
(2.24272 2.19329 -0.541337)
(3.15308 1.49848 -1.73784)
(0.994794 1.60402 0.790794)
(-0.25683 1.0191 -0.320602)
(-0.342128 0.961936 -0.143604)
(-0.0303397 1.43451 0.110461)
(-0.863352 0.92515 -0.674257)
(-2.10594 0.75177 -0.0280922)
(1.54575 0.0650694 -0.78913)
(1.5313 0.200757 -2.83788)
(0.303833 0.753324 -0.837444)
(-0.0701306 1.27065 -1.09852)
(-0.72666 0.527345 -1.04319)
(-0.787628 0.252187 -1.03511)
(-0.790431 0.36698 -1.24456)
(-0.801322 0.671814 -1.41439)
(-0.549603 0.946168 -1.33665)
(-1.90901 2.26072 0.163686)
(-2.28618 2.12209 0.276035)
(-1.93712 3.15696 0.323577)
(-2.65918 2.37309 -0.056429)
(-1.96593 3.11274 0.696285)
(-0.845307 3.79857 0.757782)
(-2.20729 2.96285 0.345176)
(-2.3123 3.66819 0.195653)
(-1.59585 3.92431 1.06207)
(-0.865885 4.19164 1.06549)
(-3.71374 2.16866 -0.0955669)
(-1.78017 4.41712 0.994023)
(-0.702481 4.58532 1.33542)
(-0.952274 4.75998 1.3518)
(-0.138426 4.73612 1.3018)
(-1.11468 4.06519 0.349535)
(-1.53499 4.02271 2.42007)
(-0.851165 5.03586 1.98722)
(-1.5747 5.11678 2.69002)
(-0.752919 5.03451 2.77489)
(-0.321611 4.50831 2.47254)
(-0.860344 4.67557 1.25611)
(2.48073 4.49379 1.35733)
(0.417409 4.42025 2.08529)
(0.109987 4.23449 2.12601)
(0.259498 3.54461 1.94762)
(0.645407 3.30911 0.404324)
(0.871092 3.95839 0.471746)
(0.127984 3.66332 0.13941)
(0.661967 3.16013 -0.625019)
(-0.0997764 2.99005 -0.937496)
(-1.19955 1.85389 -0.668514)
(-1.46985 0.906004 1.03901)
(-1.38391 1.07134 0.140012)
(-0.753504 1.6633 0.735053)
(-0.141705 2.36626 0.752795)
(1.67052 2.04344 -0.235625)
(2.56601 1.12133 -1.47448)
(1.04917 1.53651 0.483428)
(0.231681 1.22131 -0.277201)
(-0.374884 0.987541 -0.251305)
(0.0661646 1.47392 0.121446)
(-0.951392 0.894367 -0.674472)
(-2.0845 0.667808 -0.0704455)
(-2.13243 0.659204 -0.257555)
(1.51384 0.0773748 -0.66792)
(1.48237 0.157789 -2.82757)
(0.399844 0.741082 -1.03863)
(-0.0437298 1.30885 -1.09461)
(-0.755061 0.50235 -1.07101)
(-0.74862 0.23274 -1.02639)
(-0.828055 0.380277 -1.23302)
(-0.692762 0.710172 -1.53485)
(-0.619216 0.947483 -1.3298)
(-1.22786 1.02449 -0.835818)
(-0.995991 2.58273 -0.288363)
(-2.06053 2.18661 0.19327)
(-0.976164 3.08399 -0.162674)
(-2.17108 2.32147 0.32916)
(-2.44806 2.66118 0.209921)
(-0.955563 3.53102 0.250284)
(-2.60077 2.41675 -0.0475131)
(-1.50061 3.27796 0.770791)
(-0.971097 3.77723 0.810755)
(-0.458724 3.76664 0.886927)
(-2.73254 2.43409 0.223901)
(-2.48691 3.46521 0.233193)
(-1.56791 3.81294 0.948265)
(-1.15208 4.01712 1.04308)
(-0.394249 4.08774 1.21627)
(-3.5869 2.4064 -0.150242)
(-1.28487 4.65119 1.38343)
(-1.21906 4.39656 1.40912)
(-0.878078 4.80163 1.53819)
(-0.531575 4.71789 1.47509)
(0.153377 4.52366 1.6458)
(-0.80921 4.28025 0.424315)
(-3.48992 3.42612 2.51604)
(-0.952711 5.31213 2.20603)
(-1.71229 5.15248 2.482)
(-1.28151 4.98111 2.64341)
(-0.645893 4.54506 2.42992)
(-0.671266 4.77734 2.05978)
(-0.478669 4.63718 0.578522)
(2.24994 4.87558 1.33779)
(0.398426 4.51195 1.6679)
(0.116509 4.29438 1.75732)
(0.274527 3.78573 1.82273)
(0.974655 3.38609 0.203554)
(-0.313292 3.82304 0.733308)
(-0.916812 3.96167 0.610742)
(-0.137241 3.58867 -0.180972)
(0.807636 3.43512 -0.749707)
(-0.153269 2.86107 -1.55872)
(-1.34289 1.49984 -0.148938)
(-1.35701 0.733508 1.1303)
(-1.23179 0.984802 0.000405934)
(-0.749197 1.57727 0.501216)
(-0.571644 2.23309 0.829999)
(-0.339669 2.3026 1.29043)
(1.1344 1.74319 0.0300546)
(2.1021 0.848492 -1.08043)
(1.11989 1.47389 -0.087642)
(-0.384608 1.24376 -0.333368)
(-0.569447 0.958304 -0.22199)
(-0.142533 1.4909 -0.0154635)
(-1.05563 0.868682 -0.666024)
(-2.03133 0.618837 -0.134413)
(-2.14132 0.662976 -0.392344)
(-1.93623 0.897374 -0.1816)
(1.47015 0.0907105 -0.554838)
(1.48627 0.12742 -2.77435)
(0.474888 0.72955 -1.30548)
(-0.0957477 1.25398 -1.17424)
(-0.797773 0.483758 -1.09596)
(-0.733412 0.227031 -1.03606)
(-0.845975 0.388092 -1.25688)
(-0.64742 0.760244 -1.63295)
(-0.597458 1.00445 -1.32322)
(-1.26912 1.03071 -0.774648)
(-1.13608 1.02141 -0.686251)
(-1.43615 2.04375 0.0601408)
(-1.91506 2.00801 -0.0896496)
(-1.52572 2.5269 0.0752859)
(-2.3713 1.9494 0.179791)
(-1.20309 2.95716 0.085423)
(-0.899209 3.18347 0.0995658)
(-2.33624 2.05364 0.423302)
(-2.67107 2.47218 0.0530229)
(-0.99121 3.503 0.313838)
(-0.566723 3.54505 0.510468)
(-2.80182 2.11642 0.03024)
(-1.96589 2.90873 0.530239)
(-1.28732 3.56871 0.809499)
(-0.55104 3.63833 0.899775)
(0.0435327 3.52847 1.03404)
(-2.89096 2.23739 0.196867)
(-2.66999 3.36562 0.302797)
(-1.46322 3.8271 1.01217)
(-0.992234 3.93991 1.09042)
(-0.524733 3.9899 1.21526)
(0.0632659 4.08954 1.38218)
(-3.62181 2.37534 -0.121341)
(-2.77134 3.92604 1.67927)
(-2.20079 4.20543 1.49536)
(-1.18728 4.60966 1.54987)
(-0.397037 4.69671 1.5262)
(-0.120634 4.6003 1.61143)
(-0.523565 4.52088 1.34555)
(-1.3853 4.21624 0.393007)
(-2.12464 4.95976 1.98016)
(-0.682321 5.60072 2.62562)
(-1.31521 5.2545 2.56589)
(-0.958008 4.8895 2.95654)
(-0.903343 4.62768 2.58856)
(-1.0886 4.8134 2.45371)
(0.00768493 4.59769 2.19089)
(-0.14639 4.73275 0.367655)
(1.70898 4.85318 1.27359)
(0.383998 4.5562 1.18774)
(0.230746 4.21189 1.35834)
(0.430171 3.87572 1.56647)
(1.319 3.54391 0.0434633)
(-0.52139 3.90051 0.535218)
(-1.38522 3.7385 0.691281)
(-1.56526 3.39712 1.55476)
(-0.4628 3.44379 -0.394518)
(1.08425 3.54918 -0.869231)
(-0.0925221 2.76363 -1.41147)
(-1.17392 1.23459 0.124551)
(-1.15712 0.608495 1.08989)
(-0.983231 0.909873 -0.107233)
(-0.995676 1.42997 0.267087)
(-0.668988 2.22278 0.891449)
(-1.1614 2.21653 0.89695)
(-1.17746 1.94177 1.10816)
(0.620199 1.42796 0.248126)
(1.79388 0.624413 -0.744123)
(1.23823 1.48414 -0.556083)
(-0.427083 1.19471 -0.380747)
(-0.696186 0.881798 -0.297814)
(-0.32039 1.45791 -0.138759)
(-1.16326 0.851757 -0.628595)
(-1.91172 0.60547 -0.237285)
(-2.12248 0.686086 -0.39327)
(-1.9675 0.908745 -0.285734)
(-2.00449 1.10299 -0.477865)
(1.41964 0.105347 -0.451887)
(1.44519 0.111061 -2.71342)
(0.52364 0.695429 -1.61646)
(-0.0357866 1.31481 -1.1777)
(-0.838287 0.458111 -1.12117)
(-0.738772 0.207442 -1.04011)
(-0.822075 0.409246 -1.32578)
(-0.652075 0.789352 -1.67903)
(-0.669112 0.987929 -1.33167)
(-1.36592 1.0152 -0.659652)
(-1.1653 1.00494 -0.685941)
(-0.634507 1.17613 -0.67968)
(-1.35011 1.86539 0.0448892)
(-1.4774 2.09748 0.100241)
(-1.33431 2.34569 0.0283317)
(-1.26195 2.17387 0.113844)
(-1.90291 2.09655 -0.117779)
(-1.65557 2.48199 -0.0201577)
(-1.16972 2.72382 0.164042)
(-2.42179 1.81308 0.130089)
(-1.22039 2.91315 0.11874)
(-0.899558 3.14027 0.0547448)
(-0.580884 3.41844 0.231898)
(-2.49541 1.88937 0.4414)
(-2.60369 2.46098 -0.01685)
(-1.12822 3.41605 0.231143)
(-0.858369 3.49171 0.423505)
(-0.392813 3.4464 0.540716)
(-2.69015 2.21386 0.0723534)
(-2.09529 2.85353 0.554679)
(-1.63797 3.39385 0.811208)
(-1.05392 3.4503 0.965978)
(-0.386813 3.48867 1.12642)
(-0.132527 3.48028 1.12557)
(-3.04812 1.9048 0.204841)
(-2.89934 3.26484 0.205497)
(-1.52501 3.69782 1.02667)
(-1.47581 3.80234 0.981185)
(-0.749609 3.80414 1.43838)
(-0.601459 3.95212 1.49056)
(0.209153 3.97563 1.59479)
(-3.81048 2.36056 -0.0181511)
(-3.09014 3.67096 1.63777)
(-1.72992 4.64148 1.31338)
(-1.29514 4.57093 1.71508)
(-0.945147 4.46403 1.95652)
(-1.06019 4.3288 1.63541)
(-0.616306 4.3194 1.54488)
(-0.250704 4.41435 1.58705)
(-2.02364 4.20347 0.336369)
(-2.12568 5.11541 1.94832)
(-1.63556 5.57918 2.60919)
(-1.30339 5.44032 2.37736)
(-0.71812 5.233 2.95599)
(-0.717728 5.02165 2.41409)
(-0.85141 4.9339 2.57009)
(0.411068 4.56902 2.30804)
(0.798965 4.43107 1.96567)
(0.159881 4.87257 0.0182616)
(0.645243 4.57424 1.2907)
(0.11615 4.49109 0.989578)
(0.12362 4.02397 1.44911)
(0.637708 3.89853 1.69672)
(1.2547 3.63161 -0.0598375)
(-1.48181 3.36178 0.665687)
(-2.14836 3.22469 1.15851)
(-1.86579 3.23324 1.53056)
(-0.761531 3.248 1.51518)
(-0.39086 3.44507 -0.708695)
(1.10704 3.55963 -0.941168)
(-0.515465 2.53105 -0.391298)
(-0.947602 0.932843 0.466043)
(-0.954254 0.434131 0.954056)
(-0.79417 0.921505 -0.189523)
(-1.03134 1.39234 0.124627)
(-1.04856 2.14851 0.776353)
(-1.20131 2.17797 1.00115)
(-1.58386 1.77305 0.982321)
(-1.45642 1.56233 1.39825)
(0.282142 1.09063 0.496379)
(1.59058 0.436358 -0.476254)
(1.24439 1.49887 -0.96453)
(-0.497705 1.19771 -0.419702)
(-0.590554 0.987175 -0.170532)
(-0.432344 1.44753 -0.18337)
(-1.23959 0.803037 -0.667191)
(-1.88936 0.592214 -0.256372)
(-2.07114 0.682209 -0.521288)
(-1.99335 0.918933 -0.277861)
(-2.1109 1.11096 -0.588947)
(-1.50182 1.38055 -0.336239)
(1.37276 0.119418 -0.352597)
(1.38659 0.086959 -2.64293)
(0.534114 0.646331 -1.9328)
(-0.140832 1.27929 -1.25516)
(-0.870034 0.422452 -1.14985)
(-0.75087 0.18618 -1.04884)
(-0.827257 0.43894 -1.37722)
(-0.64633 0.817914 -1.70963)
(-0.755355 0.997919 -1.31642)
(-1.30206 1.04247 -0.773479)
(-1.19657 1.02086 -0.665514)
(-0.826646 1.09081 -0.661655)
(0.241767 1.55765 -0.657787)
(-1.35488 1.76339 0.171816)
(-1.62117 1.72091 0.108404)
(-1.29114 2.19984 0.0674715)
(-1.29252 1.95551 -0.00516164)
(-1.58665 2.04694 -0.0672427)
(-1.41229 2.32623 -0.00968218)
(-0.93283 2.50349 0.0122334)
(-1.07378 2.56176 0.00973257)
(-2.16945 1.77906 -0.206057)
(-1.69295 2.45734 -0.0633935)
(-0.292853 2.94193 0.205955)
(-0.585266 2.95028 0.254304)
(-2.51829 1.61741 0.139442)
(-1.55945 2.61366 0.119385)
(-1.22417 2.89561 0.00163864)
(-0.670369 3.36303 0.179125)
(-0.386214 3.36569 0.352591)
(-2.71678 1.65699 0.375266)
(-2.51111 2.48083 0.00716435)
(-1.3507 3.25058 0.306142)
(-0.842523 3.4522 0.438052)
(-0.624771 3.47586 0.493233)
(-0.317597 3.41816 0.690821)
(-2.9109 1.82608 0.118953)
(-2.15373 2.8023 0.545065)
(-1.78329 3.33772 0.77006)
(-1.25925 3.3872 0.926203)
(-0.669862 3.46386 1.0638)
(-0.225937 3.46464 1.13978)
(-0.0931161 3.54067 1.22815)
(-3.18664 1.65688 0.226213)
(-3.07905 2.92734 0.22679)
(-1.50514 3.61666 1.03002)
(-1.32903 3.77677 1.03162)
(-0.816495 3.78981 1.50483)
(-0.422779 3.9175 1.69745)
(-0.2545 3.90813 1.53666)
(-0.168174 3.97972 1.46282)
(-4.11191 2.43995 0.0625389)
(-3.55312 3.46525 1.6286)
(-1.90842 4.47569 1.3019)
(-1.38843 4.69034 2.04667)
(-1.05554 4.63084 1.80613)
(0.29208 4.60344 1.40702)
(-0.955785 4.17836 1.69197)
(-0.33327 4.39516 1.71815)
(-0.558748 4.57986 1.80753)
(-2.06805 4.63899 0.224464)
(-2.41241 5.38111 2.05122)
(-1.93753 5.54069 2.48055)
(-0.832014 5.50303 2.65205)
(-0.713546 5.47754 2.81927)
(-0.942358 5.24681 2.32078)
(-0.960448 4.95061 2.50919)
(-0.135383 4.36995 2.56281)
(0.620718 4.32241 1.99935)
(0.589962 4.26455 1.81127)
(-0.616561 4.27335 0.0485551)
(-0.549833 4.10323 1.56708)
(-0.336021 4.3297 0.807972)
(0.00140487 3.81652 1.46842)
(0.842661 3.8741 1.53329)
(-0.51798 3.03891 0.29665)
(-1.89695 3.14085 0.774166)
(-2.1207 3.17958 1.14883)
(-2.09578 2.83438 1.38589)
(-1.01134 3.06241 1.37748)
(-1.15118 2.7433 1.14774)
(-0.523666 3.61892 -0.670756)
(0.704446 3.50884 -0.948591)
(-0.855923 1.91912 -0.704925)
(-0.704354 0.718799 0.790435)
(-0.76361 0.347517 0.667846)
(-0.812699 0.97446 -0.185082)
(-1.17249 1.30289 -0.0248591)
(-1.37321 2.00595 0.730647)
(-1.52595 2.12517 0.808418)
(-1.77485 1.69695 0.963925)
(-1.50478 1.53299 1.43702)
(-0.97655 1.7637 0.492769)
(0.222408 0.964387 0.600156)
(1.38595 0.279119 -0.259459)
(1.21377 1.50246 -1.30275)
(-0.586718 1.19581 -0.448369)
(-0.730983 0.849112 -0.222948)
(-0.669606 1.35661 -0.246419)
(-1.31078 0.779919 -0.689115)
(-1.95546 0.567395 -0.184818)
(-2.04768 0.683441 -0.597709)
(-2.03624 0.91103 -0.233827)
(-2.09748 1.12275 -0.438889)
(-1.50013 1.3765 -0.359713)
(-0.682556 1.79322 -0.239572)
(1.33066 0.138101 -0.259673)
(1.32556 0.0616532 -2.56257)
(0.529215 0.575046 -2.22861)
(-0.16436 1.21607 -1.30985)
(-0.923991 0.374755 -1.16087)
(-0.771236 0.169462 -1.06516)
(-0.880629 0.423367 -1.41108)
(-0.570584 0.894749 -1.74476)
(-0.741614 1.02845 -1.32523)
(-1.32398 1.04838 -0.773363)
(-1.16854 1.067 -0.664513)
(-0.700259 1.21483 -0.661602)
(0.193698 1.59569 -0.633335)
(0.706322 1.57596 -0.415799)
(-0.983099 1.70086 -0.161035)
(-1.52673 1.65652 0.0898507)
(-0.892467 2.24092 -0.19328)
(-1.15714 1.87879 0.0341166)
(-1.80981 1.61959 0.120972)
(-1.4088 2.19574 0.126413)
(-0.820548 2.47475 0.0534639)
(-0.674528 2.48834 -0.00468499)
(-1.58791 2.07309 -0.112925)
(-1.44007 2.32467 0.0160909)
(-1.23879 2.39061 0.0368603)
(-0.651023 2.62451 0.16675)
(-0.634864 2.70912 0.00285715)
(-2.37325 1.57007 -0.271828)
(-1.7601 2.41226 -0.0387054)
(-1.1809 2.74673 0.0834196)
(-0.675515 2.93519 0.247081)
(-0.553588 3.0169 0.394632)
(-2.51254 1.58278 0.143424)
(-1.82988 2.42135 0.130569)
(-1.51488 2.76085 0.0221671)
(-0.908305 3.22062 0.24937)
(-0.656246 3.30753 0.315451)
(-0.549632 3.35536 0.459445)
(-2.66619 1.69352 0.318916)
(-2.71782 2.18568 -0.0213492)
(-1.48596 3.12608 0.384992)
(-1.03409 3.32415 0.46278)
(-0.831698 3.45555 0.336406)
(-0.425893 3.40732 0.745706)
(-0.327336 3.53475 0.841872)
(-3.07093 1.64441 0.109881)
(-2.59506 2.40935 0.303515)
(-1.81693 3.27434 0.744639)
(-1.22172 3.29674 0.94453)
(-1.06641 3.29293 1.06029)
(0.169279 3.61894 1.29009)
(-0.614187 3.57132 1.14088)
(-0.100437 3.60312 1.31908)
(-3.40563 1.39532 0.298299)
(-3.04311 2.82572 0.342305)
(-2.06481 3.31461 0.94235)
(-1.27688 3.71942 1.11074)
(-0.868606 3.70802 1.50282)
(-0.76064 3.68635 1.68692)
(-0.472083 3.95131 1.54791)
(-0.450523 3.92617 1.44995)
(-0.110483 4.03067 1.5608)
(-4.60501 2.03465 -0.15819)
(-3.35604 3.71868 1.74602)
(-1.8175 4.64701 1.53173)
(-1.29753 4.88701 1.9466)
(-0.737673 4.84863 1.63356)
(-1.40703 4.26267 1.79385)
(-1.08985 4.15807 1.72322)
(-1.10837 4.37935 1.74308)
(-0.136298 4.61031 2.06858)
(0.0836386 4.63413 2.36976)
(-2.95939 4.59965 0.0325987)
(-2.92972 5.52599 2.2286)
(-2.09632 5.58609 2.30908)
(-1.47261 5.57291 2.49669)
(-0.785249 5.37875 2.76366)
(-1.29052 5.37999 2.56615)
(-0.697159 4.88605 2.66019)
(-0.339636 4.31896 2.27983)
(0.394133 4.18853 1.99187)
(-0.26563 4.04287 1.98971)
(0.561679 4.04277 1.74854)
(-1.93976 3.19561 0.722293)
(-1.06368 3.94186 1.56887)
(-0.70228 4.20261 0.829114)
(-0.232709 3.72048 0.635905)
(0.483182 3.81594 0.0884963)
(-1.35423 2.73972 0.325469)
(-2.26479 2.66138 0.893031)
(-2.28981 2.66899 1.57751)
(-2.01675 2.62241 1.50832)
(-1.58676 2.77028 1.20686)
(-1.40272 2.62166 1.12428)
(-1.13696 2.37513 1.27864)
(-1.25958 3.33231 -0.182467)
(0.256307 3.25988 -1.00282)
(-0.851133 1.77286 -0.991915)
(-0.608881 0.569857 0.777455)
(-0.718604 0.249958 0.276695)
(-0.720743 1.16108 -0.197692)
(-1.38967 1.20417 -0.157999)
(-1.52101 2.02545 0.663542)
(-1.86774 2.00595 0.515679)
(-1.87681 1.64682 1.00021)
(-1.5887 1.50411 1.11182)
(-0.940988 1.87536 0.445381)
(-0.273927 1.86638 0.083415)
(0.186519 0.709553 0.659969)
(1.19944 0.107798 -0.073329)
(1.09092 1.42146 -1.42955)
(-0.594034 1.17131 -0.462028)
(-0.816908 0.793481 -0.308481)
(-0.830191 1.28407 -0.315201)
(-1.39282 0.750791 -0.671305)
(-2.00635 0.555311 -0.234424)
(-2.03523 0.729847 -0.678264)
(-2.08414 0.897949 -0.335242)
(-1.98243 1.13447 -0.282105)
(-1.45934 1.37165 -0.37185)
(-0.62487 1.82311 -0.337938)
(-0.0618711 2.09725 -0.661379)
(1.29351 0.154922 -0.174508)
(1.26046 0.0347427 -2.47622)
(0.506023 0.490612 -2.48155)
(-0.218589 1.17821 -1.34052)
(-0.949644 0.348775 -1.18272)
(-0.791888 0.13938 -1.09359)
(-0.84607 0.505423 -1.46355)
(-0.818123 0.823767 -1.74174)
(-0.82479 0.992194 -1.33447)
(-1.35966 1.03314 -0.790095)
(-1.18918 1.07417 -0.646457)
(-0.667675 1.23574 -0.692114)
(0.166078 1.58072 -0.63191)
(0.695948 1.58493 -0.406303)
(0.839242 1.50563 -0.131415)
(-1.15378 1.33431 0.108441)
(-1.16904 1.64772 -0.171747)
(-0.946363 1.94707 -0.0298069)
(-0.93381 1.68177 -0.085735)
(-1.67305 1.53353 0.0226299)
(-1.22203 2.11435 -0.207515)
(-0.780014 2.2738 -0.0241679)
(-1.03034 2.14955 -0.172684)
(-1.78583 1.61886 0.134536)
(-1.48262 2.15105 0.149786)
(-0.946478 2.41277 0.0510496)
(-0.833809 2.45255 0.0936389)
(-0.650007 2.5379 0.0187634)
(-1.85476 1.85511 -0.0890903)
(-1.6456 2.1377 0.0344241)
(-1.26719 2.52775 0.0190773)
(-0.909118 2.61623 0.214457)
(-0.496574 2.69544 0.329686)
(-0.437448 2.69172 0.192756)
(-2.47337 1.44409 -0.311014)
(-1.95464 2.30976 -0.00877388)
(-1.42539 2.66701 0.0471901)
(-1.0258 2.88189 0.257178)
(-0.672335 2.99545 0.426873)
(-0.456279 3.10047 0.439566)
(-2.6647 1.26897 0.150129)
(-1.98789 2.30862 0.128866)
(-1.45484 2.90744 0.0519491)
(-1.04284 3.21597 0.344582)
(-0.752618 3.2735 0.317567)
(-0.65902 3.31057 0.468237)
(-0.469407 3.37923 0.638525)
(-2.78623 1.45652 0.289632)
(-2.70006 2.23984 -0.0128424)
(-1.58494 3.03197 0.43406)
(-1.37112 3.12478 0.414787)
(-0.755718 3.38342 0.565867)
(-0.534426 3.43292 0.718625)
(-0.539654 3.52458 0.800568)
(-0.459442 3.56206 0.953378)
(-3.18572 1.47954 0.063185)
(-2.87085 2.156 0.284329)
(-2.07744 3.0843 0.810204)
(-1.26824 3.27497 0.8838)
(-1.01961 3.24115 1.14286)
(-0.970192 3.50358 1.23437)
(-0.664266 3.52658 1.15969)
(-0.440075 3.59332 1.45424)
(-0.228411 3.59179 1.40539)
(-3.56712 0.995835 0.287392)
(-3.21715 2.62573 0.371877)
(-2.39427 3.22603 0.842367)
(-1.74853 3.48767 1.12822)
(-0.97824 3.68082 1.56463)
(-0.781412 3.81719 1.59021)
(-0.774178 3.88836 1.74484)
(-0.527699 3.94532 1.60091)
(-1.24426 3.87128 1.41094)
(-0.330852 3.97444 1.60191)
(-4.58045 2.36531 -0.238458)
(-3.50429 3.64718 1.60292)
(-2.25865 4.79925 1.43104)
(-1.66959 4.91278 1.81729)
(-0.808325 4.93094 1.53796)
(-2.01258 4.05179 1.73652)
(-1.20044 4.04764 1.81662)
(-1.38044 4.29067 1.8165)
(-1.05258 4.68118 2.02988)
(-0.0509637 4.62204 2.53383)
(-0.101124 4.56865 2.57241)
(-4.21621 3.7694 -0.0644195)
(-4.1613 4.75213 2.44167)
(-2.45261 5.51344 2.23732)
(-1.62597 5.57964 2.40813)
(-1.3167 5.36221 2.38934)
(-1.69517 5.45728 2.75857)
(-0.420449 4.91976 2.86823)
(-0.306572 4.29721 2.32711)
(-1.34728 3.73873 1.98744)
(-0.699876 4.04389 1.68468)
(-1.13855 3.75409 1.69252)
(-0.928804 3.55646 1.74645)
(-2.89224 2.45875 0.866678)
(-1.03989 4.2669 1.21272)
(-0.957401 4.15434 0.897064)
(-0.165472 3.76358 0.486737)
(-0.0489984 3.47932 -0.711989)
(-1.82996 2.44742 0.290587)
(-2.41008 2.20044 1.01333)
(-2.86126 2.18515 1.31583)
(-2.09148 2.5936 1.51085)
(-1.52142 2.84133 0.983921)
(-1.5444 2.55259 1.08554)
(-1.10379 2.52233 1.12448)
(-0.562201 2.614 0.629273)
(-0.236084 3.91244 -0.825284)
(0.0296257 3.05352 -1.00809)
(-0.73552 1.7134 -1.10255)
(-0.296198 0.506875 0.685579)
(-0.670794 0.155914 0.0432051)
(-0.810005 1.26724 -0.370481)
(-1.49176 1.18018 -0.338334)
(-1.76306 1.92443 0.51155)
(-1.97951 1.92908 0.504083)
(-1.91342 1.60747 1.0383)
(-1.49439 1.52806 0.538133)
(-0.832675 1.99003 0.275875)
(-0.251019 1.92293 -0.093766)
(0.141319 2.30253 -0.106442)
(0.117804 0.454053 0.583084)
(1.01153 -0.0533187 0.0894279)
(0.868938 1.234 -1.40194)
(-0.614477 1.12458 -0.372763)
(-0.926762 0.755678 -0.350181)
(-1.01566 1.15919 -0.419804)
(-1.47883 0.714515 -0.652132)
(-1.98668 0.578426 -0.412748)
(-2.06598 0.767866 -0.69649)
(-2.07824 0.88006 -0.656492)
(-1.82502 1.19627 -0.326194)
(-1.43933 1.36962 -0.324671)
(-0.540705 1.86786 -0.391756)
(-0.103709 2.10735 -0.847325)
(1.05478 2.03519 -0.0260774)
(1.25596 0.177136 -0.0980366)
(1.16754 0.01655 -2.4027)
(0.449677 0.414948 -2.64841)
(-0.278842 1.12112 -1.38857)
(-0.983889 0.30287 -1.19648)
(-0.821311 0.123688 -1.11361)
(-0.844128 0.472492 -1.5375)
(-0.460817 1.03643 -1.79062)
(-0.863042 1.01556 -1.35057)
(-1.37063 1.0558 -0.79173)
(-1.1397 1.11303 -0.661906)
(-0.648419 1.2456 -0.707966)
(0.0884992 1.57295 -0.644521)
(0.687492 1.59073 -0.403325)
(0.806548 1.55792 -0.103105)
(1.11892 1.18975 -0.914373)
(-1.06463 1.25743 -0.047887)
(-1.30212 1.25842 0.0731004)
(-0.998838 1.62898 0.0502074)
(-1.02036 1.40009 0.0811848)
(-1.29406 1.57711 -0.17264)
(-1.1868 1.89068 0.0430027)
(-1.09956 1.94457 0.00740141)
(-0.668244 2.02421 -0.0166263)
(-0.821964 1.74045 -0.030819)
(-1.69738 1.48259 0.0337578)
(-1.28225 2.1148 -0.255197)
(-0.9691 2.27726 -0.0160166)
(-0.735789 2.26908 0.164714)
(-0.737809 2.27832 -0.0443469)
(-1.92763 1.43337 0.197976)
(-1.60144 2.05852 0.128155)
(-1.08782 2.34279 0.0813467)
(-0.912346 2.44396 0.0333531)
(-0.762695 2.4491 0.224169)
(-0.608085 2.54142 0.158999)
(-2.02381 1.69172 -0.0698716)
(-1.75858 2.10807 0.0182078)
(-1.37258 2.41812 0.0102741)
(-1.06294 2.58694 0.172558)
(-0.735929 2.63901 0.3207)
(-0.520208 2.69872 0.478657)
(-0.352226 2.74816 0.308042)
(-2.48211 1.38397 -0.237535)
(-2.02947 2.23353 0.0171249)
(-1.58533 2.56599 -0.0167612)
(-1.11019 2.86018 0.251474)
(-0.846971 2.93522 0.413008)
(-0.645478 3.01543 0.486099)
(-0.453253 3.12081 0.564925)
(-2.70351 1.15518 0.17575)
(-2.09409 2.20324 0.138715)
(-2.10152 2.50248 -0.0446692)
(-1.0651 3.19585 0.385018)
(-0.991282 3.18713 0.351585)
(-0.783819 3.29722 0.484256)
(-0.625559 3.33728 0.66971)
(-0.368068 3.37446 0.739829)
(-2.87117 1.31208 0.213191)
(-3.10315 1.64084 -0.111631)
(-1.8788 2.99453 0.41877)
(-1.40343 3.05294 0.426076)
(-1.20459 3.14439 0.607928)
(-0.906813 3.47967 0.703354)
(-0.79829 3.44013 0.826602)
(-0.73984 3.61064 0.793432)
(-0.256491 3.56941 1.02218)
(-3.25745 1.16044 0.0161622)
(-2.63897 2.47101 0.413709)
(-2.28503 2.82109 0.700112)
(-1.46084 3.22674 0.866318)
(-0.988919 3.34756 1.1057)
(-1.26574 3.34682 1.23087)
(-0.618521 3.61082 1.22099)
(-0.560615 3.57833 1.45039)
(-0.303097 3.5977 1.47722)
(-0.0958572 3.65323 1.42704)
(-3.67098 0.72946 0.370148)
(-3.3373 2.44577 0.266599)
(-2.22354 3.37648 0.949823)
(-0.861279 3.83381 1.47125)
(-1.1542 3.61402 1.5734)
(-1.10171 3.7388 1.89377)
(-0.87243 3.80152 1.96662)
(-0.655203 3.85444 1.71069)
(-0.560331 3.95065 1.47473)
(-0.889131 3.97579 1.48845)
(-0.473343 4.00064 1.64357)
(-4.67311 2.49187 -0.275883)
(-4.01903 3.23927 1.37001)
(-2.51638 4.73434 1.23551)
(-1.33829 5.0505 1.98035)
(-1.15156 4.90147 1.59072)
(-1.2707 4.30902 1.75277)
(-2.28274 3.78507 1.58887)
(-1.10823 4.28138 1.95329)
(-1.01212 4.69386 2.07666)
(-0.517301 4.69228 2.35266)
(-0.219956 4.6706 2.53874)
(0.281056 4.45397 2.56104)
(-5.24123 2.9138 -0.129481)
(-4.57216 4.55738 2.3316)
(-3.0704 5.27555 2.33541)
(-2.00983 5.40144 2.14608)
(-1.70828 5.34209 2.23725)
(-1.36699 5.51689 2.62315)
(-1.33029 4.69599 2.56091)
(-0.748298 4.16306 2.36239)
(-1.23156 3.94336 1.68223)
(-1.65117 3.60149 1.72699)
(-1.4537 3.63515 1.58855)
(-1.37142 3.42838 1.69353)
(-0.812555 3.16406 1.63305)
(-4.04614 1.5784 0.852367)
(-0.722976 4.9021 0.608949)
(-1.23623 4.17436 0.706108)
(-0.419393 3.7385 -0.0695014)
(-0.477241 2.93568 -0.527604)
(-2.04736 1.78995 0.860976)
(-2.34009 1.82907 1.23222)
(-2.49256 2.21073 1.52045)
(-2.19013 2.52746 1.435)
(-1.86961 2.53722 1.06218)
(-1.52851 2.49864 1.133)
(-1.01555 2.50686 1.0783)
(-0.607991 1.96317 1.97537)
(0.659762 2.37683 0.802385)
(-2.02163 3.60075 0.126087)
(-0.224139 2.72114 -0.887885)
(-0.596433 1.57562 -0.813678)
(0.140074 0.479348 0.558041)
(-0.595229 0.155121 -0.0422473)
(-0.195872 1.67642 0.220873)
(-1.56677 1.0863 -0.510639)
(-2.00348 1.76048 0.459593)
(-2.05895 1.87177 0.569316)
(-1.85183 1.63874 0.936823)
(-1.28265 1.61177 -0.0810907)
(-0.796573 2.00955 0.189438)
(-0.186849 2.01343 -0.228215)
(0.139887 2.25734 -0.408839)
(0.443466 2.78176 -0.306821)
(-0.0687479 0.0969803 0.518216)
(0.822475 -0.217887 0.232224)
(0.639197 1.0064 -1.23713)
(-0.621432 1.04472 -0.200755)
(-0.998806 0.672491 -0.377803)
(-1.1914 0.977327 -0.543986)
(-1.54602 0.702261 -0.645272)
(-1.97063 0.616157 -0.522221)
(-2.04513 0.817725 -0.8225)
(-2.15525 0.852758 -0.784386)
(-1.74557 1.18734 -0.448248)
(-1.41863 1.36381 -0.287274)
(-0.412819 1.90484 -0.477131)
(0.260927 2.13646 -0.799184)
(1.16703 2.06188 0.0521319)
(1.54641 2.18342 -0.337928)
(1.21277 0.204334 -0.0293423)
(1.11292 -0.00488338 -2.31298)
(0.429478 0.309728 -2.66964)
(-0.315445 1.04758 -1.45546)
(-1.01664 0.261408 -1.20496)
(-0.865078 0.0776529 -1.12843)
(-0.817784 0.609158 -1.54701)
(-0.70265 0.977527 -1.7551)
(-0.772924 1.07432 -1.41627)
(-1.47187 0.981305 -0.739364)
(-1.14355 1.11694 -0.656663)
(-0.665259 1.26189 -0.687973)
(-0.00408869 1.57865 -0.667791)
(0.679924 1.58886 -0.416962)
(0.85638 1.54915 -0.101672)
(1.1234 1.19636 -0.925206)
(1.12295 0.656325 -1.6897)
(-1.05974 1.15277 0.0242222)
(-1.15705 1.20709 -0.0248317)
(-0.936294 1.47873 0.0978753)
(-0.972866 1.31417 -0.0484156)
(-1.35212 1.19682 0.0463371)
(-1.19269 1.55146 0.0867375)
(-0.930838 1.79223 0.122078)
(-1.01525 1.60333 0.0445532)
(-0.942981 1.46167 0.0726394)
(-1.3395 1.50258 -0.177183)
(-1.2907 1.81356 0.0521776)
(-1.16723 1.94148 -0.0316517)
(-0.899965 2.0593 0.133575)
(-0.984774 2.00908 -0.0460316)
(-0.875467 1.93083 0.0164054)
(-1.7863 1.37401 0.0359549)
(-1.33415 2.11421 -0.252064)
(-0.985539 2.32059 -0.0510782)
(-0.81225 2.23288 0.0275708)
(-0.674502 2.30055 0.231716)
(-0.533407 2.36106 0.148322)
(-2.05945 1.24895 0.200015)
(-1.82497 1.9023 0.130935)
(-1.27946 2.26629 0.0992035)
(-1.00619 2.37758 0.00120628)
(-0.791058 2.447 0.182143)
(-0.715014 2.42105 0.397318)
(-0.375286 2.58324 0.289928)
(-2.04456 1.65074 -0.118478)
(-2.03152 1.9121 0.0685098)
(-1.44516 2.34098 0.00271033)
(-1.16809 2.47287 0.0936773)
(-0.884664 2.59807 0.26606)
(-0.600604 2.69237 0.477964)
(-0.537499 2.74009 0.574942)
(-0.322737 2.72446 0.478476)
(-2.62267 1.03459 -0.155821)
(-2.02321 2.21308 0.0762008)
(-1.90082 2.33282 -0.0141804)
(-1.2078 2.79269 0.263789)
(-0.905412 2.91828 0.381795)
(-0.865376 2.94271 0.504085)
(-0.702474 3.04915 0.571245)
(-0.49673 3.1132 0.698152)
(-2.67925 1.08129 0.213617)
(-2.25854 1.97847 0.18094)
(-2.27425 2.48498 -0.0597402)
(-1.26308 3.01516 0.483717)
(-1.10179 3.154 0.324699)