/*--------------------------------*- C++ -*----------------------------------*\
  =========                 |
  \\      /  F ield         | OpenFOAM: The Open Source CFD Toolbox
   \\    /   O peration     | Website:  https://openfoam.org
    \\  /    A nd           | Version:  7
     \\/     M anipulation  |
\*---------------------------------------------------------------------------*/
FoamFile
{
    version     2.0;
    format      ascii;
    class       volVectorField;
    location    "8";
    object      U_0;
}
// * * * * * * * * * * * * * * * * * * * * * * * * * * * * * * * * * * * * * //

dimensions      [0 1 -1 0 0 0 0];

internalField   nonuniform List<vector> 
18750
(
(3.45527 0.099085 -1.3643)
(1.4236 1.1553 -0.262882)
(3.13705 0.161908 -1.41329)
(1.69351 0.621748 -0.708237)
(-0.450802 3.41062 0.784916)
(1.70236 1.32773 -0.412791)
(1.40512 1.26816 1.02507)
(2.7485 0.184048 -1.40157)
(1.85754 0.625611 -1.05507)
(0.188419 0.843938 -0.605732)
(-0.512814 5.02437 0.452179)
(-0.218039 3.39872 0.933646)
(-0.108826 2.15959 0.835547)
(1.95955 1.50431 -0.570284)
(2.29021 1.42832 0.683268)
(0.330791 1.58517 -0.207793)
(2.34594 0.170222 -1.35182)
(1.90432 0.600377 -1.46635)
(0.210335 0.847336 -0.624684)
(0.00940332 1.24365 -0.912095)
(-2.40358 3.64902 -0.741468)
(-0.453712 4.99313 0.624815)
(1.16993 3.84933 1.8675)
(0.115919 3.41131 1.13225)
(-0.141118 1.87925 0.875315)
(0.78968 2.74876 2.09431)
(2.22581 1.69608 -0.7458)
(3.16473 1.6121 0.218482)
(0.426236 1.60683 -0.0645382)
(-0.0935817 0.987663 -0.0958881)
(1.9793 0.125979 -1.29414)
(1.84212 0.528408 -1.87885)
(0.263766 0.83112 -0.683999)
(0.153736 1.27516 -0.90086)
(-0.637851 0.562509 -0.977398)
(-2.61634 3.09264 0.112784)
(-2.59715 3.5847 -0.618986)
(-1.30243 3.87584 2.96135)
(-0.227444 5.04966 0.712373)
(0.99212 3.78883 1.86012)
(1.07025 4.11909 1.69467)
(0.48742 3.35526 1.31919)
(-0.0593825 2.44778 0.998406)
(0.739899 2.80946 1.87361)
(0.364402 2.43267 -0.734287)
(2.63146 1.78525 -1.11485)
(3.84117 1.81139 -0.373472)
(0.538434 1.61876 0.172791)
(-0.0645303 0.964103 -0.208406)
(-0.137596 0.897525 0.1162)
(1.71944 0.0720694 -1.19558)
(1.73486 0.424191 -2.23283)
(0.254309 0.843973 -0.666671)
(-0.00823455 1.26812 -0.967256)
(-0.53057 0.579411 -1.04719)
(-0.765727 0.318519 -0.994221)
(-1.47503 3.64718 0.403726)
(-2.66173 3.04105 0.084578)
(-0.642957 4.59622 0.758575)
(-2.84149 3.4514 -0.412045)
(-0.876784 3.76228 3.15701)
(-0.726105 4.8108 2.46655)
(-0.15248 5.22228 0.879968)
(1.0135 3.7484 1.77514)
(1.48723 4.21732 1.80597)
(0.880198 4.02907 2.34941)
(0.552544 3.45251 1.09458)
(0.246191 2.7245 0.793238)
(0.441519 2.89959 0.634607)
(0.146718 2.42575 -1.06667)
(-1.33478 1.55174 0.475008)
(2.57455 2.20899 -0.858747)
(4.13218 1.90039 -1.2467)
(0.645962 1.64159 0.453478)
(-0.0559921 0.963373 -0.25758)
(-0.165397 0.938127 -0.0506528)
(0.0142538 1.29904 0.0508957)
(1.59293 0.0473088 -1.06214)
(1.61627 0.335357 -2.55138)
(0.207294 0.789547 -0.673827)
(0.0266155 1.27368 -1.00411)
(-0.697805 0.537913 -0.974481)
(-0.817277 0.2755 -1.06365)
(-0.798479 0.360262 -1.23313)
(-1.93044 2.91165 -0.422113)
(-1.88877 3.34461 0.453401)
(-1.81337 3.82666 0.314802)
(-2.99981 2.67118 0.0703947)
(-1.74511 4.41947 0.360384)
(-0.77878 4.53381 1.00532)
(-2.5203 3.47618 0.0702184)
(-1.57576 3.74316 3.124)
(-0.861822 4.6946 2.17717)
(0.46609 5.03585 3.11527)
(-0.466065 5.20159 1.2639)
(1.34262 3.95987 1.61029)
(0.602596 4.41646 2.0656)
(0.515464 4.01386 2.23352)
(0.724052 3.54547 1.8603)
(0.601307 3.42764 0.724554)
(0.564731 2.75576 0.0923177)
(0.302439 2.9549 0.112492)
(-0.154095 2.37931 -1.19802)
(-1.51382 1.33777 0.71085)
(-1.2976 1.29454 0.421412)
(2.65167 2.14466 -0.788465)
(3.88675 1.77762 -1.75094)
(0.845486 1.63866 0.710783)
(-0.0263715 0.992486 -0.278348)
(-0.499125 0.917281 0.0640186)
(0.366159 1.31469 0.293945)
(-0.8068 0.930839 -0.700421)
(1.56706 0.0476083 -0.919361)
(1.55711 0.241519 -2.78162)
(0.230646 0.766175 -0.720339)
(0.069457 1.30597 -1.01821)
(-0.7082 0.542667 -1.01624)
(-0.808297 0.270316 -1.06798)
(-0.785851 0.362571 -1.2469)
(-0.837128 0.644976 -1.36103)
(-1.28814 2.86298 -0.595906)
(-2.59001 2.30857 -0.0441035)
(-1.48061 3.31365 0.676518)
(-1.98239 3.17663 0.479227)
(-2.14065 3.72489 0.306393)
(-0.951659 4.22769 1.13063)
(-3.33805 2.42527 -0.0312611)
(-1.605 4.6779 0.598339)
(-1.02421 4.50632 1.13292)
(-0.712361 4.6812 1.2435)
(-1.40674 3.84016 0.424143)
(-1.31224 4.04246 2.81934)
(-0.879072 4.70017 2.08241)
(-0.962062 5.26446 2.78595)
(0.355296 4.75135 3.25382)
(-0.848176 4.91682 1.54933)
(2.37088 3.96308 1.41725)
(0.484448 4.41634 2.04487)
(0.324401 4.01237 2.21382)
(0.634339 3.53015 1.74137)
(0.616667 3.28159 0.586861)
(0.458598 3.55808 0.629484)
(0.621739 2.89402 -0.364552)
(0.0605746 3.08079 -0.297627)
(-0.74424 2.15408 -1.03858)
(-1.52214 1.13174 0.878249)
(-1.37413 1.19346 0.300841)
(-0.693549 1.76617 0.840264)
(2.21851 2.18542 -0.496376)
(3.15023 1.49104 -1.73624)
(1.00543 1.60254 0.790856)
(-0.248126 1.02692 -0.319158)
(-0.318082 0.969311 -0.165132)
(-0.0358129 1.43881 0.095973)
(-0.865453 0.930382 -0.67373)
(-2.0986 0.755237 -0.038074)
(1.54783 0.0596307 -0.786484)
(1.54008 0.201219 -2.84431)
(0.318128 0.757966 -0.841329)
(-0.0727593 1.27091 -1.11334)
(-0.724611 0.530021 -1.05338)
(-0.782352 0.252856 -1.03291)
(-0.789831 0.37289 -1.24613)
(-0.780407 0.679282 -1.43567)
(-0.540829 0.948345 -1.34164)
(-1.91174 2.25691 0.166386)
(-2.29502 2.11195 0.286333)
(-1.94987 3.14513 0.325894)
(-2.64738 2.38041 -0.055683)
(-1.96491 3.11365 0.693556)
(-0.848954 3.79658 0.762049)
(-2.22502 2.94198 0.334582)
(-2.30417 3.67118 0.189942)
(-1.61026 3.90426 1.05053)
(-0.866916 4.18572 1.06325)
(-3.71053 2.18782 -0.100019)
(-1.74302 4.41907 1.05487)
(-0.653824 4.59811 1.35527)
(-0.931694 4.76684 1.37721)
(-0.155486 4.73323 1.32201)
(-1.01743 4.10707 0.354996)
(-1.60337 4.02597 2.38178)
(-0.818452 5.0765 1.98795)
(-1.63998 5.12087 2.65412)
(-0.77583 5.04056 2.75142)
(-0.316845 4.51502 2.45694)
(-0.758681 4.65908 1.14421)
(2.48994 4.5441 1.36262)
(0.43767 4.43221 2.07097)
(0.12268 4.26052 2.11092)
(0.253403 3.56658 1.95225)
(0.69141 3.31269 0.365196)
(0.826814 3.95586 0.476388)
(0.113319 3.65625 0.041771)
(0.710914 3.1899 -0.6327)
(-0.0936394 2.98028 -1.01936)
(-1.22345 1.82821 -0.608986)
(-1.44867 0.896568 1.04046)
(-1.36277 1.06691 0.119675)
(-0.743353 1.65429 0.707531)
(-0.187015 2.35257 0.756132)
(1.64567 2.02224 -0.208493)
(2.57287 1.114 -1.46478)
(1.05739 1.52764 0.431038)
(0.236845 1.23181 -0.277173)
(-0.376619 0.989958 -0.257394)
(0.0666892 1.47768 0.108947)
(-0.955874 0.898893 -0.674288)
(-2.07527 0.673699 -0.0776647)
(-2.12793 0.670071 -0.254416)
(1.51322 0.0709596 -0.665428)
(1.49492 0.160578 -2.82798)
(0.416419 0.747686 -1.04594)
(-0.0359557 1.31162 -1.10628)
(-0.754982 0.504646 -1.07986)
(-0.743687 0.234373 -1.0301)
(-0.829539 0.386598 -1.23392)
(-0.663768 0.719587 -1.56723)
(-0.612207 0.949801 -1.33464)
(-1.23383 1.02974 -0.815299)
(-1.004 2.57977 -0.286943)
(-2.06563 2.18139 0.19482)
(-0.979718 3.08015 -0.160979)
(-2.16231 2.32409 0.330338)
(-2.45609 2.64962 0.209674)
(-0.948664 3.53045 0.251518)
(-2.59097 2.42237 -0.0464816)
(-1.48233 3.2802 0.762062)
(-0.965835 3.77353 0.810569)
(-0.452105 3.76032 0.888427)
(-2.74517 2.4177 0.218634)
(-2.48259 3.46846 0.235613)
(-1.53455 3.81818 0.950164)
(-1.13997 4.00705 1.04278)
(-0.388158 4.08459 1.21892)
(-3.58247 2.43429 -0.148541)
(-1.3306 4.62774 1.43713)
(-1.28591 4.38233 1.42317)
(-0.861673 4.79994 1.54207)
(-0.512332 4.71526 1.48512)
(0.150508 4.52067 1.65756)
(-0.800072 4.29304 0.419974)
(-3.46973 3.53468 2.47037)
(-0.907224 5.35843 2.25346)
(-1.67686 5.16626 2.47058)
(-1.25941 4.99054 2.65056)
(-0.656739 4.55416 2.43202)
(-0.706065 4.80539 2.04903)
(-0.396271 4.64369 0.526386)
(2.21965 4.8689 1.34768)
(0.422113 4.52318 1.59516)
(0.153726 4.30683 1.68841)
(0.31195 3.80498 1.80856)
(1.04787 3.3939 0.17178)
(-0.405432 3.80543 0.764997)
(-0.925845 3.94409 0.623349)
(-0.15325 3.56844 -0.243119)
(0.868147 3.46753 -0.750035)
(-0.13518 2.85779 -1.58828)
(-1.32851 1.47624 -0.0958398)
(-1.33293 0.728205 1.1264)
(-1.20091 0.980306 -0.0173315)
(-0.755184 1.56761 0.464783)
(-0.583446 2.22821 0.833564)
(-0.433258 2.29332 1.2679)
(1.10826 1.72491 0.0505509)
(2.11248 0.844776 -1.06708)
(1.12666 1.46771 -0.107539)
(-0.392567 1.24734 -0.329977)
(-0.57926 0.955785 -0.226093)
(-0.145246 1.49208 -0.0241686)
(-1.06132 0.874034 -0.66349)
(-2.01677 0.628422 -0.145026)
(-2.13335 0.680621 -0.394351)
(-1.93331 0.909842 -0.194925)
(1.46747 0.0834003 -0.552637)
(1.49403 0.127748 -2.77563)
(0.491681 0.736283 -1.31597)
(-0.0846318 1.25858 -1.18492)
(-0.798832 0.485836 -1.10386)
(-0.732813 0.228921 -1.03882)
(-0.842225 0.393007 -1.26474)
(-0.646497 0.767337 -1.64551)
(-0.585422 1.00821 -1.33005)
(-1.28016 1.03489 -0.748497)
(-1.12566 1.02995 -0.682406)
(-1.4344 2.04523 0.0571537)
(-1.91773 2.0054 -0.0894975)
(-1.52085 2.52943 0.0721826)
(-2.3705 1.94603 0.181365)
(-1.20464 2.95201 0.0899281)
(-0.895888 3.18174 0.096407)
(-2.33554 2.052 0.424992)
(-2.66827 2.46853 0.0521738)
(-0.985434 3.50326 0.314199)
(-0.570571 3.54206 0.505583)
(-2.79629 2.11703 0.0308714)
(-1.96276 2.907 0.527036)
(-1.31059 3.55248 0.809743)
(-0.559914 3.62801 0.903495)
(0.0529462 3.52318 1.0455)
(-2.89298 2.22935 0.193219)
(-2.67572 3.3657 0.299871)
(-1.43851 3.83052 1.01596)
(-1.00262 3.93074 1.08366)
(-0.519306 3.97699 1.22804)
(0.068977 4.08492 1.38673)
(-3.60932 2.41963 -0.115653)
(-2.78925 3.91996 1.69379)
(-2.22056 4.22581 1.485)
(-1.1827 4.60087 1.55549)
(-0.370881 4.68786 1.54852)
(-0.135461 4.59303 1.61049)
(-0.529947 4.50758 1.35512)
(-1.40586 4.22964 0.38956)
(-2.0423 5.03925 1.95629)
(-0.7212 5.63224 2.65091)
(-1.2195 5.28637 2.56769)
(-0.86054 4.90561 2.9868)
(-0.875685 4.65203 2.58975)
(-1.05241 4.82664 2.49237)
(0.0783798 4.58875 2.19689)
(-0.0267752 4.75189 0.292513)
(1.63377 4.82877 1.2757)
(0.382492 4.55694 1.15482)
(0.260765 4.20156 1.34424)
(0.496311 3.89286 1.53547)
(1.35926 3.55291 0.0238541)
(-0.577043 3.88509 0.521369)
(-1.49409 3.66024 0.760698)
(-1.58591 3.3634 1.56779)
(-0.449334 3.43773 -0.439831)
(1.13048 3.56569 -0.872781)
(-0.0892516 2.75686 -1.31964)
(-1.13914 1.21528 0.156618)
(-1.12963 0.603677 1.07984)
(-0.951176 0.909391 -0.12425)
(-0.991649 1.42786 0.244242)
(-0.688545 2.22062 0.889238)
(-1.15753 2.21751 0.889668)
(-1.21293 1.93718 1.09927)
(0.599657 1.40974 0.261906)
(1.80476 0.619644 -0.734537)
(1.24574 1.48434 -0.57453)
(-0.425736 1.1968 -0.379001)
(-0.693954 0.881403 -0.300855)
(-0.338993 1.4532 -0.155163)
(-1.1678 0.857434 -0.627926)
(-1.89286 0.618181 -0.252578)
(-2.11369 0.702865 -0.398002)
(-1.96304 0.924522 -0.289052)
(-2.0058 1.11735 -0.483814)
(1.41555 0.0970975 -0.450142)
(1.45261 0.111682 -2.71322)
(0.539015 0.702766 -1.62891)
(-0.0301342 1.32256 -1.18997)
(-0.838943 0.45956 -1.12872)
(-0.74024 0.206998 -1.04115)
(-0.818689 0.418087 -1.33115)
(-0.65377 0.792319 -1.68195)
(-0.677788 0.98203 -1.33679)
(-1.36414 1.02192 -0.659755)
(-1.16524 1.00919 -0.678837)
(-0.63008 1.17746 -0.684905)
(-1.35027 1.86542 0.0454743)
(-1.47815 2.09724 0.0957467)
(-1.33634 2.34381 0.027057)
(-1.26009 2.17544 0.111762)
(-1.90295 2.09473 -0.116115)
(-1.65103 2.48374 -0.0227516)
(-1.15166 2.72595 0.163)
(-2.41896 1.811 0.133791)
(-1.22333 2.90757 0.119584)
(-0.898148 3.13681 0.0518165)
(-0.574872 3.41754 0.230972)
(-2.4987 1.8884 0.439855)
(-2.59941 2.46071 -0.0206971)
(-1.12479 3.41382 0.230935)
(-0.851702 3.48996 0.42254)
(-0.394672 3.44517 0.538223)
(-2.68241 2.21648 0.0733206)
(-2.09399 2.85331 0.552251)
(-1.63039 3.39596 0.809193)
(-1.05757 3.44308 0.965733)
(-0.383226 3.48773 1.12861)
(-0.141844 3.47983 1.12456)
(-3.05052 1.90047 0.201719)
(-2.89795 3.25978 0.203961)
(-1.50286 3.69002 1.02703)
(-1.45041 3.80406 0.982148)
(-0.734354 3.79933 1.44918)
(-0.600566 3.94574 1.50739)
(0.219494 3.96777 1.59947)
(-3.82543 2.38988 -0.0100002)
(-3.11395 3.6679 1.63679)
(-1.68591 4.67531 1.29864)
(-1.2662 4.57804 1.74534)
(-0.954309 4.45718 1.98115)
(-1.07549 4.31792 1.63592)
(-0.625202 4.29637 1.57117)
(-0.227879 4.41012 1.59995)
(-2.02515 4.24393 0.328114)
(-2.12704 5.17418 1.95633)
(-1.63613 5.59062 2.61305)
(-1.24885 5.47337 2.3757)
(-0.663376 5.27836 2.93956)
(-0.693464 5.06332 2.38941)
(-0.792737 4.94226 2.57459)
(0.478387 4.55469 2.32517)
(0.813326 4.4156 1.96387)
(0.181219 4.84651 -0.0217108)
(0.508997 4.50942 1.3243)
(0.0880212 4.48464 0.982525)
(0.144178 4.0066 1.46635)
(0.685435 3.90019 1.70595)
(1.1939 3.6108 -0.0463451)
(-1.54639 3.30976 0.684789)
(-2.13062 3.20454 1.16811)
(-1.87476 3.19298 1.5288)
(-0.761153 3.22907 1.51142)
(-0.354864 3.46231 -0.770716)
(1.11188 3.55979 -0.923705)
(-0.561794 2.48759 -0.312718)
(-0.912588 0.912774 0.498702)
(-0.929037 0.429679 0.940853)
(-0.784424 0.924888 -0.198701)
(-1.02625 1.39698 0.111884)
(-1.07764 2.14004 0.765427)
(-1.20881 2.18032 0.995501)
(-1.60485 1.77006 0.974353)
(-1.45358 1.57317 1.40195)
(0.278285 1.07805 0.505668)
(1.59674 0.431156 -0.466356)
(1.25359 1.50062 -0.972267)
(-0.495165 1.19945 -0.420612)
(-0.578472 0.9966 -0.161886)
(-0.450307 1.44242 -0.192767)
(-1.24093 0.808434 -0.671892)
(-1.88265 0.605555 -0.262251)
(-2.0636 0.697952 -0.530059)
(-1.98888 0.934073 -0.27603)
(-2.10686 1.12497 -0.586078)
(-1.49488 1.38924 -0.334245)
(1.36781 0.110077 -0.351435)
(1.39294 0.0862951 -2.64271)
(0.549318 0.652961 -1.94707)
(-0.144948 1.2722 -1.27781)
(-0.871663 0.422809 -1.1562)
(-0.752964 0.185829 -1.05137)
(-0.831691 0.442244 -1.3801)
(-0.638581 0.824865 -1.7114)
(-0.751357 1.00223 -1.32118)
(-1.28866 1.05253 -0.788309)
(-1.18279 1.03992 -0.660308)
(-0.827763 1.10298 -0.657428)
(0.262029 1.56252 -0.65537)
(-1.35706 1.76256 0.173556)
(-1.6233 1.72009 0.109068)
(-1.29957 2.19572 0.0695421)
(-1.29031 1.95617 -0.00452662)
(-1.58234 2.05101 -0.0694657)
(-1.41181 2.32711 -0.0101154)
(-0.935264 2.50083 0.012815)
(-1.07498 2.56 0.00959899)
(-2.17807 1.76871 -0.206216)
(-1.68833 2.45902 -0.0636396)
(-0.284934 2.94415 0.204583)
(-0.578454 2.95071 0.254143)
(-2.51388 1.619 0.143904)
(-1.5741 2.60176 0.11928)
(-1.22386 2.89417 0.000910585)
(-0.669623 3.35906 0.179497)
(-0.388515 3.36376 0.351434)
(-2.71391 1.66078 0.37354)
(-2.5062 2.4829 0.00967864)
(-1.34779 3.2455 0.312336)
(-0.835539 3.44824 0.43869)
(-0.619457 3.47639 0.492657)
(-0.319519 3.42006 0.691927)
(-2.91269 1.82196 0.119113)
(-2.15979 2.79666 0.535328)
(-1.7764 3.34031 0.767767)
(-1.2476 3.38363 0.925857)
(-0.679181 3.46042 1.05962)
(-0.209754 3.46682 1.14408)
(-0.112435 3.54583 1.22356)
(-3.19756 1.64835 0.226219)
(-3.07495 2.91782 0.236081)
(-1.51473 3.60227 1.02439)
(-1.29729 3.77611 1.03643)
(-0.796757 3.78619 1.51253)
(-0.402774 3.91364 1.70043)
(-0.25599 3.90517 1.53305)
(-0.161386 3.97738 1.46803)
(-4.13736 2.46233 0.0575637)
(-3.52647 3.50848 1.63683)
(-1.8843 4.49852 1.30218)
(-1.35513 4.71669 2.05858)
(-1.015 4.65391 1.7812)
(0.279977 4.6019 1.41637)
(-0.929932 4.17992 1.69479)
(-0.341254 4.4001 1.73252)
(-0.532108 4.5886 1.83936)
(-2.09524 4.67519 0.204654)
(-2.44834 5.42278 2.07919)
(-1.94273 5.55682 2.458)
(-0.795953 5.52015 2.66613)
(-0.67705 5.48824 2.81234)
(-0.956623 5.28021 2.33239)
(-0.913669 4.94744 2.51266)
(-0.156729 4.34547 2.56569)
(0.610416 4.30192 1.99932)
(0.567671 4.25076 1.82166)
(-0.756378 4.13513 0.100697)
(-0.637821 4.06308 1.58909)
(-0.387824 4.3126 0.806685)
(0.00432731 3.80955 1.42577)
(0.867514 3.87183 1.45597)
(-0.701587 2.97072 0.316968)
(-1.94427 3.09153 0.806894)
(-2.10453 3.14525 1.18351)
(-2.0826 2.80045 1.3863)
(-1.05174 3.03084 1.35376)
(-1.16599 2.72644 1.15751)
(-0.530826 3.63603 -0.672222)
(0.676979 3.49754 -0.937221)
(-0.872692 1.90302 -0.687912)
(-0.683065 0.706961 0.80237)
(-0.746408 0.34571 0.654311)
(-0.806749 0.98892 -0.188963)
(-1.18243 1.30537 -0.0468055)
(-1.38942 2.00676 0.720658)
(-1.55652 2.12163 0.772186)
(-1.78241 1.70085 0.964485)
(-1.49954 1.54509 1.41658)
(-0.960734 1.77947 0.48998)
(0.228232 0.959112 0.600389)
(1.38725 0.27039 -0.249777)
(1.2176 1.50347 -1.29951)
(-0.579807 1.19923 -0.445206)
(-0.73786 0.841754 -0.231638)
(-0.683228 1.35228 -0.254189)
(-1.31294 0.787283 -0.690258)
(-1.95573 0.579186 -0.190023)
(-2.03887 0.70109 -0.610955)
(-2.03367 0.925219 -0.239733)
(-2.07906 1.13966 -0.405049)
(-1.48747 1.38355 -0.355241)
(-0.664444 1.80231 -0.249189)
(1.32512 0.127554 -0.25922)
(1.33007 0.0589907 -2.56188)
(0.543095 0.581281 -2.24383)
(-0.169699 1.21311 -1.32516)
(-0.92606 0.375157 -1.16652)
(-0.774371 0.168744 -1.06848)
(-0.880046 0.429827 -1.41403)
(-0.576386 0.895038 -1.7451)
(-0.734252 1.02868 -1.33322)
(-1.32608 1.05133 -0.772005)
(-1.16165 1.07993 -0.661094)
(-0.674987 1.22602 -0.667523)
(0.190403 1.59836 -0.627724)
(0.710414 1.58526 -0.406124)
(-0.982974 1.70296 -0.162094)
(-1.52992 1.65456 0.09009)
(-0.892718 2.2419 -0.193047)
(-1.15837 1.87902 0.0377294)
(-1.80754 1.62194 0.120557)
(-1.40942 2.19534 0.128171)
(-0.82095 2.47389 0.0539349)
(-0.674743 2.48825 -0.00353423)
(-1.58914 2.07353 -0.115608)
(-1.43862 2.32448 0.0155749)
(-1.24213 2.39193 0.037417)
(-0.651453 2.62495 0.167782)
(-0.636082 2.70654 0.00236899)
(-2.37887 1.5639 -0.272519)
(-1.75656 2.4135 -0.0368587)
(-1.19889 2.74232 0.0795982)
(-0.67713 2.93539 0.247688)
(-0.553111 3.01644 0.397047)
(-2.50981 1.58153 0.146251)
(-1.82852 2.42065 0.12958)
(-1.5175 2.76082 0.0242706)
(-0.90554 3.21992 0.251763)
(-0.653988 3.30692 0.314583)
(-0.546509 3.35487 0.459904)
(-2.66187 1.69794 0.316714)
(-2.71369 2.18984 -0.0189034)
(-1.48075 3.12463 0.388723)
(-1.03586 3.31645 0.462779)
(-0.828641 3.45455 0.33407)
(-0.418386 3.40787 0.746711)
(-0.33695 3.5376 0.837354)
(-3.07513 1.6376 0.10663)
(-2.6033 2.40252 0.294156)
(-1.81761 3.2702 0.746718)
(-1.20642 3.29682 0.944107)
(-1.06573 3.28898 1.06386)
(0.200417 3.62638 1.29593)
(-0.619092 3.57489 1.13966)
(-0.103613 3.60608 1.32694)
(-3.41826 1.37632 0.297523)
(-3.04159 2.82055 0.350008)
(-2.06198 3.31605 0.938969)
(-1.27248 3.71491 1.11439)
(-0.846426 3.70484 1.50602)
(-0.759146 3.67724 1.68496)
(-0.477148 3.94907 1.55671)
(-0.452992 3.9284 1.45211)
(-0.129802 4.02492 1.55705)
(-4.60395 2.09417 -0.174245)
(-3.33919 3.75246 1.73069)
(-1.80374 4.67345 1.53379)
(-1.28922 4.90971 1.92712)
(-0.699956 4.87256 1.61031)
(-1.43784 4.25212 1.79267)
(-1.07936 4.15977 1.73157)
(-1.14759 4.38182 1.75248)
(-0.127669 4.62264 2.09017)
(0.120944 4.63427 2.3962)
(-3.10368 4.5266 0.0197556)
(-3.06593 5.45864 2.2647)
(-2.09398 5.60118 2.28682)
(-1.47226 5.58858 2.48146)
(-0.817308 5.37624 2.71737)
(-1.31305 5.39038 2.60177)
(-0.616296 4.8793 2.68579)
(-0.322874 4.30894 2.26009)
(0.301172 4.16025 1.98211)
(-0.351398 4.02127 1.97833)
(0.459274 4.02161 1.7475)
(-1.97592 3.16212 0.751115)
(-1.05564 3.97357 1.55427)
(-0.682006 4.21789 0.844944)
(-0.225258 3.73026 0.589769)
(0.448556 3.79793 -0.0651135)
(-1.41162 2.70919 0.316634)
(-2.28975 2.60794 0.919131)
(-2.34139 2.58597 1.58927)
(-1.98845 2.61584 1.51576)
(-1.58901 2.76528 1.18597)
(-1.39002 2.62168 1.12916)
(-1.12077 2.38268 1.27965)
(-1.27766 3.3188 -0.169598)
(0.24488 3.23777 -0.996682)
(-0.842169 1.76727 -0.989266)
(-0.588582 0.559045 0.784002)
(-0.710333 0.248249 0.264227)
(-0.713099 1.17914 -0.204599)
(-1.39678 1.21174 -0.180055)
(-1.53438 2.03054 0.646005)
(-1.88488 1.99986 0.49281)
(-1.87615 1.65324 1.00608)
(-1.57909 1.51607 1.06244)
(-0.917493 1.89386 0.42625)
(-0.250779 1.87924 0.0682147)
(0.18832 0.704076 0.65462)
(1.19725 0.0965318 -0.0640332)
(1.08551 1.41537 -1.42031)
(-0.586841 1.17419 -0.454036)
(-0.821791 0.790857 -0.318237)
(-0.846363 1.27685 -0.326723)
(-1.39583 0.75835 -0.669694)
(-2.00021 0.571188 -0.258567)
(-2.02871 0.750703 -0.686376)
(-2.07967 0.91241 -0.362963)
(-1.95868 1.1494 -0.279789)
(-1.44455 1.38013 -0.362341)
(-0.602332 1.83273 -0.344883)
(-0.0669354 2.09702 -0.683825)
(1.28759 0.143278 -0.1745)
(1.26181 0.0336245 -2.47483)
(0.517159 0.496378 -2.49645)
(-0.219189 1.17863 -1.34877)
(-0.949815 0.350119 -1.18916)
(-0.795856 0.138555 -1.09698)
(-0.841596 0.513497 -1.46848)
(-0.803993 0.834 -1.74468)
(-0.825442 0.988584 -1.3439)
(-1.35897 1.03902 -0.787509)
(-1.17968 1.08339 -0.64332)
(-0.655689 1.24025 -0.695802)
(0.139005 1.57899 -0.633989)
(0.701879 1.58923 -0.398333)
(0.850378 1.50684 -0.125248)
(-1.15402 1.33529 0.108498)
(-1.17069 1.64852 -0.172378)
(-0.948261 1.94833 -0.0303501)
(-0.932953 1.68367 -0.0870602)
(-1.67404 1.53271 0.0237987)
(-1.22387 2.11374 -0.207944)
(-0.778572 2.27538 -0.0238063)
(-1.02876 2.15079 -0.171832)
(-1.78438 1.62008 0.135095)
(-1.48015 2.15154 0.150549)
(-0.948374 2.41115 0.0516087)
(-0.832708 2.45274 0.0928282)
(-0.64757 2.53786 0.0200086)
(-1.85799 1.85309 -0.0920072)
(-1.64726 2.13637 0.0335317)
(-1.26353 2.53059 0.018828)
(-0.913345 2.61681 0.213978)
(-0.501431 2.69429 0.330963)
(-0.438316 2.68991 0.192279)
(-2.47271 1.44312 -0.309183)
(-1.95197 2.30983 -0.00728436)
(-1.4238 2.66848 0.0459425)
(-1.02923 2.88149 0.257375)
(-0.670429 2.99509 0.428134)
(-0.455103 3.09831 0.440978)
(-2.66242 1.26839 0.153077)
(-1.98797 2.30751 0.128044)
(-1.4634 2.9033 0.0495032)
(-1.03786 3.2179 0.347902)
(-0.751122 3.27309 0.318185)
(-0.65482 3.31078 0.469325)
(-0.468158 3.38001 0.639764)
(-2.78388 1.45918 0.287794)
(-2.71075 2.22431 -0.0151851)
(-1.57826 3.03693 0.435156)
(-1.36948 3.11987 0.414874)
(-0.751839 3.37915 0.576009)
(-0.535477 3.43719 0.717896)
(-0.537659 3.52407 0.800475)
(-0.460028 3.56407 0.947789)
(-3.18213 1.47923 0.0630253)
(-2.85979 2.1662 0.285604)
(-2.07201 3.08128 0.807787)
(-1.25731 3.2782 0.882391)
(-1.00469 3.24763 1.14425)
(-1.03122 3.50051 1.23295)
(-0.657619 3.52917 1.1631)
(-0.441989 3.59435 1.45905)
(-0.225252 3.59239 1.41125)
(-3.57088 0.997549 0.287007)
(-3.21139 2.63218 0.368698)
(-2.37813 3.23912 0.844203)
(-1.71206 3.49898 1.14)
(-0.965175 3.68402 1.56871)
(-0.773392 3.81555 1.59967)
(-0.768375 3.88544 1.75955)
(-0.512745 3.94536 1.61083)
(-1.25869 3.87191 1.40615)
(-0.330949 3.97505 1.59932)
(-4.55767 2.43709 -0.250313)
(-3.50579 3.65535 1.58203)
(-2.27223 4.8101 1.39251)
(-1.63651 4.93362 1.81204)
(-0.809194 4.94126 1.52648)
(-1.9966 4.05581 1.73583)
(-1.21459 4.04497 1.81497)
(-1.3528 4.2996 1.82499)
(-1.07049 4.68884 2.03362)
(-0.0325951 4.62396 2.54417)
(-0.0868906 4.58371 2.56707)
(-4.31529 3.68607 -0.0601222)
(-4.23558 4.71329 2.44417)
(-2.47806 5.51046 2.24344)
(-1.62758 5.58651 2.38065)
(-1.30755 5.36951 2.36926)
(-1.67118 5.4588 2.76339)
(-0.385617 4.90867 2.87563)
(-0.301766 4.28401 2.32194)
(-1.42883 3.72036 1.94713)
(-0.756704 4.02306 1.67341)
(-1.24577 3.72652 1.67977)
(-0.980307 3.53628 1.74978)
(-3.03116 2.35987 0.866397)
(-0.971118 4.34922 1.14761)
(-0.970008 4.17814 0.904901)
(-0.138991 3.78313 0.455818)
(-0.0788339 3.44871 -0.730933)
(-1.84053 2.42029 0.316068)
(-2.40029 2.15801 1.03654)
(-2.83021 2.18275 1.32612)
(-2.08379 2.58482 1.50808)
(-1.52845 2.83002 0.98143)
(-1.54281 2.55156 1.08756)
(-1.07546 2.53258 1.12476)
(-0.543504 2.61375 0.659612)
(-0.31982 3.91231 -0.783324)
(0.0323133 3.04089 -0.997098)
(-0.718333 1.71307 -1.06739)
(-0.270879 0.497675 0.690063)
(-0.666321 0.157019 0.040659)
(-0.791087 1.29233 -0.359879)
(-1.49264 1.18902 -0.360351)
(-1.77851 1.92165 0.49928)
(-1.97536 1.93272 0.505028)
(-1.8994 1.62017 1.03696)
(-1.45865 1.55047 0.470428)
(-0.812496 2.00188 0.266288)
(-0.228121 1.93682 -0.110885)
(0.150477 2.3073 -0.132181)
(0.110037 0.442656 0.581842)
(1.00625 -0.0665339 0.0980815)
(0.861049 1.22484 -1.38538)
(-0.610544 1.12526 -0.354973)
(-0.934286 0.751282 -0.357658)
(-1.03195 1.14905 -0.433506)
(-1.48112 0.72364 -0.651307)
(-1.97793 0.596137 -0.432014)
(-2.05975 0.789128 -0.707035)
(-2.07277 0.893785 -0.68641)
(-1.80285 1.20876 -0.338875)
(-1.42622 1.37936 -0.313162)
(-0.512039 1.87707 -0.396923)
(-0.0527388 2.10946 -0.859176)
(1.07723 2.03102 -0.02036)
(1.2492 0.164493 -0.0985674)
(1.17197 0.0146565 -2.39955)
(0.461193 0.421232 -2.65752)
(-0.283966 1.11391 -1.40295)
(-0.98556 0.303198 -1.20155)
(-0.827201 0.121674 -1.11609)
(-0.838451 0.482614 -1.54232)
(-0.45755 1.04217 -1.79052)
(-0.836446 1.02868 -1.36889)
(-1.38454 1.05432 -0.773772)
(-1.11909 1.12601 -0.662118)
(-0.641862 1.25432 -0.705347)
(0.0769908 1.57253 -0.647222)
(0.694573 1.59439 -0.400597)
(0.819292 1.56081 -0.0944697)
(1.13039 1.18866 -0.911031)
(-1.0649 1.25763 -0.0476178)
(-1.3021 1.25957 0.0724958)
(-0.998425 1.63064 0.0498153)
(-1.01948 1.40122 0.0813519)
(-1.29364 1.57849 -0.173324)
(-1.18685 1.89243 0.0423351)
(-1.09772 1.94647 0.00639629)
(-0.664444 2.02733 -0.0181426)
(-0.821475 1.74135 -0.0320404)
(-1.69765 1.48249 0.0355687)
(-1.28171 2.11567 -0.255392)
(-0.967925 2.27919 -0.0161161)
(-0.736128 2.26856 0.162902)
(-0.735214 2.27884 -0.0443728)
(-1.92692 1.43423 0.197405)
(-1.6032 2.05652 0.127898)
(-1.0878 2.34231 0.0815874)
(-0.911028 2.44407 0.0324043)
(-0.764784 2.44795 0.222212)
(-0.610193 2.53976 0.157582)
(-2.02333 1.69234 -0.0730136)
(-1.76065 2.10795 0.0178424)
(-1.37292 2.41534 0.00954627)
(-1.05959 2.58722 0.172207)
(-0.730842 2.64013 0.321176)
(-0.520286 2.69974 0.478779)
(-0.352857 2.74796 0.308928)
(-2.48376 1.37681 -0.233072)
(-2.02477 2.23506 0.0190085)
(-1.5872 2.56366 -0.0186872)
(-1.10381 2.86247 0.252352)
(-0.846147 2.93438 0.41195)
(-0.651369 3.01275 0.487413)
(-0.456007 3.11939 0.565376)
(-2.69923 1.15818 0.178332)
(-2.09683 2.19854 0.138845)
(-2.10266 2.50357 -0.0440522)
(-1.06034 3.19433 0.388698)
(-0.987848 3.1877 0.352705)
(-0.782587 3.29931 0.486189)
(-0.627055 3.33607 0.671253)
(-0.36822 3.37427 0.739947)
(-2.86887 1.31706 0.211114)
(-3.10324 1.64132 -0.11472)
(-1.88538 2.99345 0.423459)
(-1.39454 3.05575 0.426819)
(-1.20589 3.14116 0.609781)
(-0.909013 3.48185 0.704933)
(-0.800472 3.43989 0.828404)
(-0.749802 3.60823 0.795956)
(-0.267596 3.56998 1.02146)
(-3.26019 1.13947 0.0116841)
(-2.63153 2.47871 0.413942)
(-2.28022 2.81348 0.695092)
(-1.45538 3.2289 0.866668)
(-0.983066 3.35654 1.10556)
(-1.26608 3.34941 1.23181)
(-0.623295 3.61439 1.2256)
(-0.552862 3.58188 1.4497)
(-0.290722 3.59845 1.48012)
(-0.0934819 3.65543 1.42953)
(-3.68355 0.73197 0.370391)
(-3.34752 2.43507 0.251049)
(-2.19476 3.39367 0.955543)
(-0.829524 3.84865 1.48706)
(-1.14081 3.6194 1.57532)
(-1.09829 3.73075 1.9066)
(-0.868727 3.79937 1.97054)
(-0.63985 3.84974 1.72481)
(-0.497125 3.956 1.48344)
(-0.90066 3.98262 1.48309)
(-0.472 4.00561 1.64159)
(-4.66829 2.52521 -0.298977)
(-3.98786 3.26044 1.35561)
(-2.48162 4.75426 1.22241)
(-1.35116 5.05293 1.96316)
(-1.13057 4.9098 1.58562)
(-1.20332 4.32339 1.74992)
(-2.29279 3.79661 1.58877)
(-1.08532 4.29171 1.97019)
(-0.988133 4.68697 2.08319)
(-0.552108 4.69193 2.31736)
(-0.21176 4.67157 2.51816)
(0.257649 4.45215 2.533)
(-5.36205 2.79983 -0.130052)
(-4.55992 4.58354 2.32367)
(-3.12114 5.26389 2.35213)
(-2.00381 5.40919 2.12378)
(-1.73623 5.34609 2.22121)
(-1.26976 5.53117 2.57077)
(-1.35594 4.66467 2.51428)
(-0.801094 4.12881 2.34581)
(-1.2517 3.92634 1.67811)
(-1.68569 3.5819 1.72962)
(-1.4509 3.62256 1.58527)
(-1.384 3.41705 1.68601)
(-0.80767 3.15838 1.6376)
(-4.14083 1.54043 0.856574)
(-0.861265 4.88937 0.597629)
(-1.23628 4.19674 0.680351)
(-0.417562 3.73866 -0.0722372)
(-0.514973 2.88736 -0.460801)
(-2.05196 1.73077 0.91096)
(-2.31652 1.80196 1.24943)
(-2.47892 2.17302 1.53818)
(-2.17716 2.52542 1.42765)
(-1.86619 2.53346 1.06923)
(-1.50339 2.50164 1.15225)
(-0.978625 2.5177 1.07613)
(-0.578962 1.96621 2.01599)
(0.695333 2.38322 0.793773)
(-2.04656 3.58677 0.146057)
(-0.255923 2.68371 -0.867974)
(-0.586867 1.56456 -0.750349)
(0.158093 0.472687 0.568062)
(-0.594183 0.15914 -0.0403923)
(-0.224906 1.68146 0.232959)
(-1.56654 1.09566 -0.525369)
(-2.01652 1.76031 0.452995)
(-2.06078 1.87467 0.57116)
(-1.82752 1.65525 0.909176)
(-1.25847 1.63054 -0.103982)
(-0.766838 2.01858 0.163322)
(-0.162155 2.0272 -0.238772)
(0.15491 2.25632 -0.436495)
(0.408388 2.78152 -0.30338)
(-0.0772031 0.0842031 0.520189)
(0.81087 -0.233775 0.241638)
(0.628867 0.995776 -1.2145)
(-0.62197 1.04116 -0.175742)
(-0.999947 0.67315 -0.383623)
(-1.20853 0.967358 -0.555971)
(-1.5452 0.713821 -0.646796)
(-1.9622 0.636986 -0.54094)
(-2.03696 0.839906 -0.834905)
(-2.13671 0.870177 -0.825314)
(-1.73725 1.1954 -0.451807)
(-1.39863 1.37376 -0.281626)
(-0.38157 1.91202 -0.483518)
(0.305102 2.13893 -0.785814)
(1.19262 2.06039 0.0395871)
(1.53468 2.18973 -0.331884)
(1.20523 0.190988 -0.0298308)
(1.11492 -0.00601603 -2.31049)
(0.432401 0.310229 -2.67666)
(-0.312211 1.04769 -1.46436)
(-1.01764 0.26214 -1.20978)
(-0.871736 0.075579 -1.13085)
(-0.821328 0.613703 -1.54984)
(-0.718927 0.965498 -1.7566)
(-0.758062 1.07491 -1.43973)
(-1.48936 0.971937 -0.715663)
(-1.1426 1.1217 -0.649213)
(-0.657948 1.26758 -0.684823)
(-0.00964986 1.57939 -0.675472)
(0.687956 1.59211 -0.40703)
(0.89085 1.5536 -0.0988949)
(1.13212 1.19558 -0.92211)
(1.13349 0.653332 -1.69518)
(-1.06018 1.15255 0.0240241)
(-1.15692 1.20769 -0.0245538)
(-0.935601 1.47951 0.0976963)
(-0.972743 1.31428 -0.0484245)
(-1.35215 1.19716 0.0457238)
(-1.193 1.55249 0.0869143)
(-0.931816 1.79265 0.122422)
(-1.01377 1.60489 0.0436745)
(-0.942621 1.46167 0.0731171)
(-1.33864 1.50432 -0.177743)
(-1.28935 1.81498 0.0511502)
(-1.16625 1.94346 -0.0325477)
(-0.899482 2.06038 0.133578)
(-0.984851 2.00946 -0.0464069)
(-0.873597 1.93221 0.0153642)
(-1.7899 1.37044 0.0375154)
(-1.33435 2.11455 -0.251032)
(-0.984709 2.32167 -0.0514099)
(-0.809936 2.23377 0.0255074)
(-0.677369 2.29932 0.231063)
(-0.532151 2.36112 0.148612)
(-2.05761 1.25156 0.200017)
(-1.82781 1.9005 0.13223)
(-1.28144 2.26532 0.0995483)
(-1.00542 2.37635 0.00134052)
(-0.787337 2.44799 0.182184)
(-0.711796 2.42178 0.396204)
(-0.372777 2.58268 0.289628)
(-2.043 1.65187 -0.12286)
(-2.03041 1.91383 0.0687283)
(-1.44408 2.34188 0.00224257)
(-1.16775 2.4716 0.0932291)
(-0.885399 2.59765 0.26421)
(-0.600842 2.69105 0.478165)
(-0.537405 2.74172 0.573805)
(-0.322758 2.72404 0.478296)
(-2.62414 1.02912 -0.152174)
(-2.02017 2.21292 0.077465)
(-1.90477 2.32808 -0.0139941)
(-1.20528 2.79421 0.264034)
(-0.90145 2.91936 0.381273)
(-0.859884 2.94415 0.503884)
(-0.702349 3.04864 0.571357)
(-0.494073 3.11324 0.698567)
(-2.67431 1.08719 0.214791)
(-2.26218 1.97001 0.178364)
(-2.27071 2.49032 -0.0587635)
(-1.27145 3.00744 0.483036)
(-1.10094 3.15392 0.324995)