/*--------------------------------*- C++ -*----------------------------------*\
  =========                 |
  \\      /  F ield         | OpenFOAM: The Open Source CFD Toolbox
   \\    /   O peration     | Website:  https://openfoam.org
    \\  /    A nd           | Version:  7
     \\/     M anipulation  |
\*---------------------------------------------------------------------------*/
FoamFile
{
    version     2.0;
    format      ascii;
    class       surfaceScalarField;
    location    "0.5";
    object      phi;
}
// * * * * * * * * * * * * * * * * * * * * * * * * * * * * * * * * * * * * * //

dimensions      [0 3 -1 0 0 0 0];

internalField   nonuniform List<scalar> 
54095
(
0.000285882
-0.00115741
-1.75747e-05
0.000577168
-0.000661133
-0.000118742
0.000239432
-0.00138079
-1.60499e-05
0.000332811
-0.000952189
-5.40951e-05
0.000909182
0.00021005
-0.000365364
0.000465603
-0.000763556
-0.000123748
0.000482117
-5.61258e-05
-0.000227897
0.000193467
-0.00155968
-1.45845e-05
0.000291044
-0.00120701
-5.22705e-05
0.000262219
-0.000717802
-6.54546e-05
0.00117514
-0.000443745
-0.000231002
0.000779973
0.000189517
-0.000293837
0.000892961
0.00320127
8.8328e-05
0.000351656
-0.000806092
-0.000115654
0.000468299
-0.000156469
-0.000200659
0.000330762
-0.000257506
-0.000156765
0.000152342
-0.00169812
-1.38977e-05
0.000241927
-0.00141496
-4.85585e-05
0.000233344
-0.000939228
-6.4188e-05
0.000109658
-0.00035796
-5.03683e-05
0.00140639
-1.92766e-07
-0.000292759
0.00100957
-0.000428514
-0.000244827
0.000939514
-0.000753394
-0.000177478
0.000639219
0.000155325
-0.00025337
0.000846706
0.00253252
-3.49494e-06
0.000218111
-0.000207816
0.000119065
0.000253857
-0.000806694
-0.000100913
0.000436351
-0.00028625
-0.000180297
0.00027128
-0.000362267
-0.000133835
0.000141561
-0.00015346
-9.01785e-05
0.000118798
-0.00180385
-1.3068e-05
0.000191123
-0.00157592
-4.40641e-05
0.000196485
-0.00112346
-6.08072e-05
0.000104236
-0.000477985
-4.8399e-05
0.000100585
-0.000166124
-3.28827e-05
0.00158527
0.000149968
-0.000283153
0.00121374
5.96415e-05
-0.000264007
0.000817366
-0.00125904
-2.56159e-05
0.000842109
-0.000349592
-0.000281812
0.000794928
-0.000741034
-0.000205409
-8.23488e-05
4.20551e-05
-7.19208e-05
0.000518051
0.000130018
-0.000238887
0.000820606
0.00192969
-3.47884e-05
3.39112e-05
-2.49478e-05
5.10064e-05
0.000288736
0.000264961
-7.26831e-05
0.00017536
-0.000778337
-8.49198e-05
0.000362711
-0.000398072
-0.00016068
0.000198099
-0.000425632
-0.000118547
0.000130596
-0.000235554
-7.81003e-05
0.000181713
-0.000259647
-7.65524e-05
9.3138e-05
-0.00188493
-1.20553e-05
0.000145075
-0.00169501
-3.90582e-05
0.000160278
-0.00127209
-5.57152e-05
9.77762e-05
-0.000591391
-4.51775e-05
9.55208e-05
-0.000279271
-3.07725e-05
4.80282e-05
-0.000185392
-9.33117e-06
0.00177818
0.000183867
-0.000322556
0.0013866
0.000208443
-0.000231332
0.000658886
-0.000229642
-0.000155242
0.00105421
4.62258e-05
-0.000198682
0.000596497
-0.00122473
-9.98858e-05
-0.000181247
-0.000159654
0.000100686
0.000655619
-0.000218216
-0.000268944
0.000675068
-0.000681324
-0.000195983
-0.000197847
0.000125021
-5.66164e-05
0.000319042
-0.000120148
-7.71055e-05
0.000409853
0.000120212
-0.000224687
0.000721208
0.00136848
-3.61776e-05
-6.85077e-05
0.00019038
1.6491e-05
0.000268385
0.000268111
-8.99318e-05
0.000190292
5.93771e-05
-5.53101e-05
0.000114313
-0.000735874
-6.36384e-05
0.000277718
-0.000476099
-0.000139535
0.000140566
-0.000454876
-0.000111723
0.000119636
-0.000307239
-6.87224e-05
0.000162457
-0.000334752
-6.99322e-05
2.03509e-05
-0.000161624
-3.79447e-06
7.4387e-05
-0.00194847
-1.08497e-05
0.000107537
-0.00178049
-3.41109e-05
0.000128613
-0.00138972
-5.0044e-05
8.83676e-05
-0.000694149
-4.13251e-05
8.80417e-05
-0.000384183
-2.83067e-05
4.65325e-05
-0.000254135
-8.56137e-06
1.78375e-05
-6.80207e-05
4.43423e-07
0.00198564
0.000307244
-0.000200995
0.00150486
0.000288926
-0.000223317
0.000492888
-4.8622e-06
-9.01778e-05
0.0012075
0.000179618
-0.000124472
0.000333823
-7.33933e-05
-0.000124907
-0.000191578
-0.000233896
5.39835e-05
0.000815882
4.86876e-06
-0.000118906
0.000418449
-0.00105683
-0.000109965
-0.000169026
-0.000330316
4.19543e-05
0.000295504
0.000199059
7.50125e-05
0.000503639
-7.98667e-05
-0.000232135
0.0005182
-0.000581035
-0.000166226
-0.000206933
0.000104936
-3.74726e-05
0.000297109
-0.000186154
-1.93347e-05
0.000168983
-0.000195753
3.48274e-06
0.000309311
0.000126481
-0.000201267
0.000587513
0.000865707
-3.17097e-05
-9.14981e-05
0.000370668
1.55987e-05
0.000197984
0.000304833
-9.85792e-05
0.000148447
3.79267e-05
-5.44713e-05
-3.42067e-05
-0.000135976
6.8046e-05
6.74818e-05
-0.000684508
-4.44613e-05
0.000183136
-0.000502671
-0.000112666
0.00010131
-0.000468469
-9.864e-05
0.000105054
-0.000369169
-6.64792e-05
0.000139263
-0.000392964
-6.17309e-05
2.36736e-05
-0.000206514
-2.18309e-06
6.9265e-06
-6.14038e-05
2.43715e-05
6.22159e-05
-0.00200069
-9.9916e-06
7.8932e-05
-0.0018406
-2.96645e-05
9.86232e-05
-0.00147804
-4.44121e-05
7.86642e-05
-0.00078555
-3.73075e-05
7.91666e-05
-0.00047921
-2.54643e-05
4.45324e-05
-0.000319535
-7.43987e-06
1.8033e-05
-9.56988e-05
1.08369e-06
2.95982e-05
-8.11102e-05
5.20023e-06
0.00207229
0.000183902
-4.78115e-05
0.00164976
0.000194292
-3.19512e-05
0.000332202
5.53848e-05
1.42856e-05
0.0013243
0.000264164
-9.20378e-05
0.000123484
-2.10471e-05
3.20683e-06
-0.000113944
-0.000389847
-3.41423e-06
0.00096305
9.01966e-05
-5.77461e-05
0.000224034
2.72296e-05
-3.0679e-05
-0.000220191
-0.000313527
5.88836e-06
0.000253568
2.13464e-05
0.000197472
0.00059903
-2.09884e-05
-6.95342e-05
0.000184583
-0.000785237
-5.68851e-05
-0.000124349
-0.000520619
-2.24684e-06
0.000210992
0.00023034
9.67905e-05
0.000184864
-0.000155819
0.0001093
0.000374695
2.42738e-05
-0.000169524
0.000338245
-0.000436001
-0.000127902
-0.000175093
2.85583e-05
-6.25364e-06
0.000178517
-0.000210523
6.36374e-06
8.21481e-05
-0.000193422
4.46327e-05
-1.78968e-05
-0.000366342
8.86914e-05
0.00020781
0.000151617
-0.000165464
0.000407804
0.000459364
-1.95919e-05
-5.96679e-05
0.000473335
2.66008e-05
0.000158454
0.000357137
-9.01048e-05
0.000111988
9.75939e-06
-4.31371e-05
-3.96756e-05
-0.000192668
6.55695e-05
-2.87983e-06
-5.18017e-05
8.42157e-05
3.0853e-05
-0.000622862
-3.02825e-05
9.7362e-05
-0.000480379
-8.51827e-05
6.65887e-05
-0.000463693
-8.54074e-05
9.12035e-05
-0.000420369
-5.99796e-05
0.000112596
-0.000437007
-5.58662e-05
2.63463e-05
-0.00025063
5.70595e-07
-2.56056e-07
-7.31625e-05
2.78646e-05
2.1999e-05
-4.83629e-05
4.56624e-05
4.973e-05
-0.00204105
-9.37314e-06
5.78613e-05
-0.00188225
-2.6209e-05
7.40699e-05
-0.00154238
-3.93914e-05
6.82224e-05
-0.00086482
-3.33645e-05
6.97057e-05
-0.00056366
-2.25638e-05
4.14459e-05
-0.000380311
-6.13386e-06
1.7631e-05
-0.000123164
2.3945e-06
2.72096e-05
-0.000113369
6.13327e-06
2.04779e-05
-6.76038e-05
1.56923e-05
0.00220952
8.492e-05
-0.000155682
0.00166467
0.000210082
-4.10936e-05
0.000226187
-0.000258021
0.000145436
0.00139305
0.000160276
-3.47349e-05
0.000111914
-3.1511e-05
6.65142e-05
-9.67841e-06
-0.000403528
7.75561e-06
0.00109984
0.000171608
-4.4237e-05
2.18418e-05
3.42451e-06
8.56824e-05
-0.000207199
-0.000408292
8.66027e-06
0.000194976
-0.000168224
0.000120236
0.000683818
4.65222e-05
-4.11131e-05
3.59124e-05
5.82275e-05
5.99268e-05
-0.000202451
-0.000268065
1.9626e-06
0.00010584
1.32138e-05
0.000119173
0.000194726
-4.79977e-05
0.000210212
0.000431797
-4.65425e-05
-3.15477e-05
2.34162e-05
-0.000550408
1.04661e-05
-0.000121656
-0.000585608
-4.53323e-05
7.92694e-05
0.000234861
9.24793e-05
2.14881e-05
-0.000128465
0.000130096
-1.06522e-06
-0.000323622
0.00010422
0.000241755
8.06639e-05
-9.03343e-05
0.00018077
-0.000297353
-8.11372e-05
-0.000124251
-4.90823e-05
1.43222e-05
7.71557e-05
-0.000183419
4.794e-05
-1.14224e-07
-0.0001532
7.82443e-05
-6.31592e-05
-0.000391106
9.28796e-05
-3.94603e-06
-0.000124448
0.00011586
0.000128448
0.000167849
-0.000113827
0.000227984
0.000172048
-8.76963e-06
-1.2483e-05
0.000469425
6.33897e-05
0.000121013
0.000424841
-7.09122e-05
6.74088e-05
-9.29623e-06
-2.58615e-05
-4.29636e-05
-0.000229743
6.3248e-05
-3.05138e-05
-4.77042e-05
9.17297e-05
1.94003e-06
-8.09562e-05
0.000114605
7.90317e-07
-0.000551987
-2.19358e-05
2.97548e-05
-0.00042159
-6.0965e-05
3.37453e-05
-0.000437416
-7.11353e-05
7.37993e-05
-0.000458768
-5.25854e-05
8.89883e-05
-0.000467397
-4.88728e-05
2.34666e-05
-0.000289275
7.57718e-07
-5.36073e-06
-8.12292e-05
3.1629e-05
1.28058e-05
-5.49189e-05
4.88244e-05
1.43162e-05
-5.57723e-05
7.01251e-05
3.34209e-05
-0.00206474
-9.72818e-06
4.29166e-05
-0.00191062
-2.39182e-05
5.5352e-05
-0.00158854
-3.54079e-05
5.84069e-05
-0.00093286
-2.97581e-05
6.04238e-05
-0.000637586
-1.98625e-05
3.80624e-05
-0.00043616
-4.77749e-06
1.66974e-05
-0.000150069
4.07345e-06
2.44869e-05
-0.000142921
7.4594e-06
1.83035e-05
-9.62394e-05
1.64653e-05
1.60488e-05
-4.98355e-05
2.24034e-05
0.00236782
-0.000209359
-8.7355e-05
0.00175893
0.000127502
-0.000136834
0.000218346
-0.000813899
5.99855e-05
0.0014483
0.000200296
-4.54561e-05
6.60117e-05
-0.00040586
0.000152648
0.000203573
-0.000632536
-9.88067e-06
0.00113711
0.000153522
-3.05148e-05
3.3789e-05
-0.000139098
6.09048e-05
-0.000202372
-0.000368359
2.65191e-05
0.000186864
-0.000215621
9.52429e-05
0.000787595
0.000116424
-4.85935e-05
-6.52761e-06
-8.87544e-05
9.03819e-05
-0.000223117
-0.000359102
5.71579e-05
3.95243e-06
-0.000146452
8.87746e-05
0.00016014
4.06426e-05
0.000210526
0.0004794
2.81761e-05
-2.92574e-05
-5.86157e-05
2.14666e-05
7.76797e-05
-0.000201227
-0.000176619
4.80507e-05
-6.00568e-05
6.74782e-05
8.70243e-05
-5.37038e-05
-3.80946e-05
0.000184462
1.38366e-05
-1.36997e-05
0.000189813
0.000268349
-6.9607e-05
-3.52929e-06
-5.33631e-05
-0.000393703
4.58799e-05
-0.000153265
-0.000517406
-2.87216e-05
-4.52938e-05
0.000247672
6.43061e-05
-0.000128105
-6.07639e-05
0.000152769
-9.60745e-05
-0.000295238
0.000134627
-3.21621e-05
-6.95453e-05
0.000156779
0.000132838
9.62984e-05
-2.00244e-05
5.07462e-05
-0.000181001
-2.94494e-05
-6.97643e-05
-0.000101665
2.87269e-05
1.10047e-05
-0.000123892
6.48035e-05
-4.99543e-05
-0.000101847
0.000113949
-0.000103815
-0.000364172
0.000112162
-5.62016e-05
-0.000133368
0.000127487
-2.10084e-05
-8.00174e-05
0.000161063
6.31063e-05
0.000160524
-5.49916e-05
0.000100241
-1.9439e-05
7.17368e-06
4.48841e-06
0.000406202
8.37101e-05
9.75331e-05
0.000485444
-2.09468e-05
3.98959e-05
-2.52313e-05
-5.88483e-06
-4.83564e-05
-0.000247511
6.37295e-05
-4.39028e-05
-4.04247e-05
9.45106e-05
-2.72016e-05
-7.17885e-05
0.000122569
-5.49737e-06
-8.35572e-05
0.000146559
-2.76881e-05
-0.000474386
-1.64919e-05
-1.27219e-05
-0.000344926
-4.29615e-05
5.32189e-06
-0.000391519
-5.68317e-05
5.87458e-05
-0.000484308
-4.59342e-05
6.50242e-05
-0.000483874
-4.07085e-05
1.87245e-05
-0.000321035
2.22542e-06
-7.1069e-06
-9.15532e-05
3.4886e-05
7.27141e-06
-5.87445e-05
5.26701e-05
4.82527e-06
-6.64869e-05
7.30172e-05
1.08981e-05
-4.6865e-05
9.12104e-05
2.55654e-05
-0.00208065
-9.6544e-06
3.67847e-05
-0.00193368
-2.34504e-05
4.18641e-05
-0.00162162
-3.26958e-05
4.74363e-05
-0.000988991
-2.67127e-05
5.17275e-05
-0.000701535
-1.75366e-05
3.45553e-05
-0.000487062
-3.51568e-06
1.52055e-05
-0.000176022
5.96994e-06
2.1929e-05
-0.0001699
9.12318e-06
1.6363e-05
-0.000122481
1.73378e-05
1.40538e-05
-7.04407e-05
2.30167e-05
1.19174e-05
-4.12431e-05
2.9501e-05
0.00260422
-0.000213514
-0.000108411
8.5527e-05
0.00190946
-0.000311164
-4.8728e-05
0.000586201
-0.000841893
-0.000139046
0.00145815
0.000100452
1.71952e-05
7.60991e-05
-0.000908597
-5.22234e-05
0.000407845
-0.000350711
-0.00012766
0.00112024
0.000207674
9.49097e-06
-2.92705e-05
-0.000491979
0.000103723
-8.78195e-05
-0.000554467
-3.99734e-05
0.000261682
-0.000226081
4.92306e-05
0.000825863
0.000149088
-3.38342e-05
-2.45283e-06
-0.000278044
0.000104357
-0.000256619
-0.000305025
3.10727e-05
-4.91091e-05
-0.000239009
0.000102969
9.24813e-05
8.80965e-05
0.000206332
0.00054042
0.000108626
-5.32217e-05
-3.68122e-05
-0.000245728
8.65762e-05
-0.000232298
-0.000299982
6.23322e-05
-0.0001753
-9.49457e-05
0.000120895
-0.000101862
6.23023e-06
0.000171345
-5.95052e-06
0.000148107
0.000258198
0.000310212
1.99209e-05
-3.3608e-05
-9.90616e-05
-3.99196e-05
7.78272e-05
-0.000212872
-0.000115732
7.63998e-05
-0.000126347
6.96627e-05
0.00012692
-0.000215647
-4.74812e-05
0.000183953
-0.000122613
-6.93184e-06
0.000204233
-6.71536e-05
2.59904e-05
0.00024769
0.000138355
-9.4934e-05
1.981e-05
-8.88061e-05
-0.000303936
4.6256e-05
-0.000143937
-0.000398104
7.50753e-07
-0.000103135
0.000261966
7.11244e-05
-0.000173385
-3.83238e-05
0.000165297
-0.000160882
-0.000248587
0.000163186
-9.89476e-05
-7.78145e-05
0.000185642
-7.40413e-05
5.67653e-06
0.000226214
4.34185e-05
8.49225e-05
3.10637e-05
-3.83101e-06
-0.000111492
1.45395e-05
-4.96605e-05
-0.000118036
4.10704e-05
-2.57292e-05
-5.48261e-05
8.29234e-05
-6.03484e-05
-6.38325e-05
0.000127034
-0.000115583
-0.000310719
0.000127723
-8.55012e-05
-0.000122969
0.000143361
-6.65642e-05
-8.18977e-05
0.00016873
-4.38591e-05
-5.75521e-06
0.000206928
6.18309e-06
0.000135415
-8.76222e-06
3.51019e-05
-0.000150566
2.83117e-05
-2.3405e-07
0.000346533
7.23989e-05
7.32511e-05
0.000530221
2.44273e-05
1.3628e-05
-1.04417e-05
1.56598e-05
-4.71082e-05
-0.000256084
6.85209e-05
-4.9841e-05
-3.24716e-05
9.85105e-05
-4.12137e-05
-5.94265e-05
0.000130634
-3.14436e-05
-7.78483e-05
0.000153129
-1.11639e-05
-5.4891e-05
0.000177107
-5.2809e-05
-0.000386094
-9.91772e-06
-3.0178e-05
-0.000264432
-3.0024e-05
-1.67354e-05
-0.000332046
-4.38346e-05
3.85243e-05
-0.000492893
-3.93347e-05
4.37157e-05
-0.000489795
-3.20009e-05
1.39577e-05
-0.000346096
4.95067e-06
-9.2743e-06
-0.000102929
3.80807e-05
2.83234e-06
-6.09306e-05
5.61687e-05
-2.81401e-08
-7.33723e-05
7.59467e-05
1.38446e-06
-5.50505e-05
9.38721e-05
6.24497e-06
-3.76346e-05
0.000110715
1.41835e-05
-0.00208606
-8.77823e-06
2.86274e-05
-0.0019485
-2.34619e-05
3.21259e-05
-0.00164636
-3.08416e-05
3.90269e-05
-0.00103639
-2.43234e-05
4.37912e-05
-0.000756309
-1.57293e-05
3.07445e-05
-0.000532965
-2.37821e-06
1.33862e-05
-0.000201276
8.35222e-06
1.93165e-05
-0.000194251
1.10051e-05
1.45364e-05
-0.000146368
1.8474e-05
1.22477e-05
-8.91677e-05
2.38171e-05
1.02197e-05
-5.84603e-05
3.00141e-05
8.5996e-06
-3.18502e-05
3.62115e-05
0.00293976
-0.00035757
-0.000159575
0.000181603
0.00219459
-0.00048454
-1.41012e-05
0.00109707
-0.000821754
-0.000322916
0.000525386
0.00336262
-0.000219347
0.00134206
-0.000322208
0.000127133
0.000336694
-0.000951912
-0.000199304
0.000596734
-6.55201e-06
-0.000170383
0.000884302
8.88545e-05
0.000247539
-6.75627e-05
-0.000873774
2.06645e-05
8.07483e-05
-0.000415109
-0.000156393
0.000218853
4.411e-05
2.02396e-05
0.000656416
0.000252919
0.000124202
-7.6712e-05
-0.000568783
0.000160555
-0.000268576
-0.000436347
-2.44049e-06
-9.60497e-05
-0.000278815
5.97019e-05
-3.81556e-05
0.00018274
0.000190244
0.00050559
0.000170626
1.32924e-05
-5.06042e-05
-0.000409355
0.000111269
-0.000309314
-0.000200954
7.7302e-05
-0.000273997
-0.000231625
0.000122386
-0.000125993
2.25822e-05
0.000192614
-8.55714e-05
0.000140282
0.000307954
0.000256972
0.000170013
-8.14772e-06
-0.000142597
-0.000349273
9.38596e-05
-0.0002462
-0.000260792
8.07147e-05
-0.000203644
-0.00010092
0.000145603
-0.000269323
6.23963e-06
0.000174561
-0.000144629
8.343e-05
0.000258038
-0.000124597
7.17576e-05
0.000329162
9.90998e-05
6.93981e-05
-1.02218e-05
-0.000118449
-0.000105002
6.11168e-05
-0.000209951
-6.79102e-05
9.60195e-05
-0.000162167
4.06889e-05
0.000164406
-0.000226118
-4.70372e-05
0.000179209
-0.000206819
-2.382e-05
0.000246778
-0.000155688
1.12788e-05
0.000275685
-0.000121666
2.28873e-05
0.000327124
3.3034e-06
-9.44589e-05
3.96398e-05
-9.19786e-05
-0.000242122
4.61433e-05
-0.000129553
-0.000277206
5.25043e-06
-0.000129945
0.000298435
6.84978e-05
-0.000168713
-3.92614e-05
0.000180427
-0.000193017
-0.00018695
0.000181094
-0.000134726
-7.95253e-05
0.000214121
-0.000116369
-6.42089e-06
0.000247544
-0.000102555
2.80946e-05
0.000294572
-4.38458e-05
8.9007e-05
4.59443e-05
-3.88388e-06
-7.66828e-05
3.52402e-05
-5.10473e-05
-9.91405e-05
4.64573e-05
-4.18347e-05
-1.30542e-06
0.000102635
-7.99656e-05
-2.5046e-05
0.000137731
-0.000112004
-0.000264138
0.000145348
-0.000100948
-9.96375e-05
0.000155499
-8.8901e-05
-7.06498e-05
0.0001798
-7.57393e-05
-5.78403e-06
0.000213055
-6.002e-05
3.8619e-05
0.000250932
-1.8852e-05
7.13585e-05
3.00997e-05
1.12033e-05
-0.00023647
3.57605e-05
-5.93602e-06
0.000305733
5.83127e-05
4.91292e-05
0.00055568
3.63354e-05
-8.91425e-06
3.21225e-05
3.4493e-05
-4.48734e-05
-0.000255403
7.38096e-05
-5.16072e-05
-2.62018e-05
0.000104584
-4.84022e-05
-4.53688e-05
0.000135687
-4.47229e-05
-6.28737e-05
0.000160354
-3.44576e-05
-4.74893e-05
0.00018157
-2.03238e-05
-2.2938e-05
0.000206662
-7.45081e-05
-0.000296567
-8.35047e-07
-4.10694e-05
-0.000186241
-1.84116e-05
-2.89401e-05
-0.000267462
-3.35423e-05
2.46503e-05
-0.000489743
-3.26073e-05
2.68253e-05
-0.000488558
-2.3606e-05
4.66731e-06
-0.000360234
8.21332e-06
-1.2021e-05
-0.000113734
4.1163e-05
-1.49382e-06
-6.16847e-05
5.96452e-05
-4.15758e-06
-7.72612e-05
7.87515e-05
-5.25478e-06
-5.80587e-05
9.64574e-05
-2.95837e-06
-4.34322e-05
0.000112848
4.59181e-07
-2.64819e-05
0.000128831
3.24745e-06
-0.00208202
-7.28435e-06
1.5309e-05
-0.00195019
-2.2395e-05
2.49514e-05
-0.00166508
-2.96907e-05
3.07693e-05
-0.00107552
-2.24832e-05
3.66986e-05
-0.000802893
-1.44381e-05
2.69254e-05
-0.000574185
-1.43482e-06
1.14813e-05
-0.000225347
1.02117e-05
1.62579e-05
-0.000215598
1.34407e-05
1.27182e-05
-0.000167844
1.9763e-05
1.06745e-05
-0.000106189
2.48207e-05
8.63681e-06
-7.39581e-05
3.06782e-05
7.26736e-06
-4.57302e-05
3.66267e-05
5.62566e-06
-2.35229e-05
4.24022e-05
0.00346511
-0.000533397
-0.000320614
0.000328669
0.00256227
-0.000697303
-2.79508e-05
0.00163468
-0.000897197
-0.000476888
0.000676898
0.00371775
-0.000111483
0.00138029
-0.000695945
0.000173176
0.000722759
-0.000969387
-0.000252532
0.000820523
-0.000114746
-0.000301114
-0.000130845
0.00158562
-0.000338759
0.000551927
-0.000279973
0.00029014
5.66656e-05
-0.000897967
-5.10401e-05
0.000201323
-0.000178815
-0.000147616
0.000108329
3.75562e-05
7.00801e-05
0.000263837
0.000154579
0.000326854
-0.000269979
-0.000614934
0.000181966
-0.000218823
-0.000394143
-5.00538e-05
-0.000133244
-0.000125061
4.99725e-05
-0.000196551
0.000164071
0.000223767
0.00018108
0.000301159
0.00027627
-0.000240606
-0.000422866
0.000168287
-0.000394597
-0.000278021
8.75105e-05
-0.000349387
-0.000298855
9.29902e-05
-0.000202327
0.000130134
0.000188642
-0.00023915
0.000193367
0.000338724
-5.16666e-06
0.000280839
0.000151925
-0.000268694
-0.000388733
0.000118767
-0.000324646
-0.000124134
0.000112894
-0.000308342
-0.000225454
0.000175829
-0.000318922
-1.05538e-05
0.000205121
-0.000208615
7.6084e-05
0.000320799
-0.000223226
9.74773e-05
0.000403354
-4.45918e-05
0.000222671
9.10333e-05
-0.000220182
-0.000360522
0.000104834
-0.000260998
-0.000221346
0.00010546
-0.000219954
-0.000132214
0.000169796
-0.000269497
-8.08659e-06
0.000203308
-0.000253527
3.11008e-05
0.000273598
-0.000210991
4.70882e-05
0.00033801
-0.00019156
4.73558e-05
0.000411532
-5.41461e-05
8.64902e-05
4.03573e-05
-0.000135666
-0.000144023
7.24869e-05
-0.000206786
-5.11373e-05
0.000121577
-0.000165394
-1.20939e-05
0.000184252
-0.000205278
-4.44406e-05
0.000198374
-0.000232038
-4.22244e-05
0.000236634
-0.000189411
9.13872e-06
0.000303603
-0.000176348
1.36046e-05
0.000344946
-0.000153874
1.28359e-05
0.000396014
-0.000103604
-8.00875e-05
4.53868e-05
-7.90864e-05
-0.000183037
5.57579e-05
-0.000117732
-0.00020748
4.31026e-05
-9.2311e-05
0.000280509
7.36522e-05
-0.000175842
-3.49096e-05
0.000160022
-0.000186343
-0.000127214
0.00019503
-0.000154107
-7.18131e-05
0.000226541
-0.000129417
-1.75284e-05
0.000265745
-0.000128575
2.05019e-05
0.000307972
-0.000113703
3.21962e-05
0.000353067
-6.5513e-05
8.92684e-05
4.63995e-05
-2.149e-05
-3.44377e-05
3.63923e-05
-5.58514e-05
-6.71259e-05
5.31411e-05
-5.64926e-05
4.2226e-05
0.000108548
-7.74495e-05
2.07544e-07
0.000145917
-0.000107671
-0.000215982
0.000152372
-9.89666e-05
-7.90776e-05
0.000172148
-9.73284e-05
-5.5699e-05
0.000189474
-9.10659e-05
-1.27717e-06
0.000221636
-8.12051e-05
4.18566e-05
0.000256565
-7.28433e-05
5.10615e-05
0.000293811
-2.0446e-05
-2.78524e-05
4.51488e-05
-2.21329e-06
-0.00029762
5.23937e-05
-6.04693e-06
0.000272647
4.59531e-05
3.46776e-05
0.000555871
4.80938e-05
-2.62584e-05
7.08809e-05
5.06607e-05
-5.30719e-05
-0.000240453
7.72821e-05
-5.43002e-05
-2.23122e-05
0.000112199
-5.26496e-05
-2.99239e-05
0.000140295
-5.04944e-05
-4.56828e-05
0.000164833
-4.65747e-05
-3.20949e-05
0.000186279
-3.83397e-05
-1.48245e-05
0.000208838
-2.84304e-05
1.94825e-06
0.000233936
-8.38018e-05
-0.000206439
-3.07907e-06
-5.25892e-05
-0.000111914
-7.26346e-06
-4.30809e-05
-0.000192313
-2.55284e-05
1.01436e-05
-0.000475136
-2.7524e-05
1.33746e-05
-0.000482237
-1.56041e-05
-3.60028e-06
-0.000364665
1.13511e-05
-1.49212e-05
-0.000122842
4.37236e-05
-5.20148e-06
-6.21185e-05
6.30562e-05
-7.99923e-06
-7.82531e-05
8.13545e-05
-9.31537e-06
-5.81455e-05
9.88281e-05
-9.30242e-06
-4.393e-05
0.000114894
-6.79583e-06
-2.99391e-05
0.000130368
-5.46362e-06
-1.37523e-05
0.000145586
-4.06752e-06
-0.00207056
-7.39496e-06
6.24402e-06
-0.00194369
-2.00326e-05
1.85318e-05
-0.00167763
-2.83794e-05
2.32115e-05
-0.00110758
-2.08441e-05
2.96742e-05
-0.000841719
-1.33316e-05
2.30746e-05
-0.000610979
-7.18225e-07
9.59075e-06
-0.000248284
1.19111e-05
1.3685e-05
-0.000234448
1.53773e-05
1.09091e-05
-0.000186442
2.11299e-05
9.25801e-06
-0.00012162
2.59357e-05
7.29244e-06
-8.79163e-05
3.14865e-05
5.99823e-06
-5.82005e-05
3.71502e-05
4.67906e-06
-3.43246e-05
4.27494e-05
3.14745e-06
-1.62719e-05
4.8137e-05
0.00375667
0.000156227
-0.00025433
-0.000193458
0.00304901
-0.000865054
-0.000155078
0.00231195
-0.000626351
-0.0006425
0.000270975
0.00420488
-0.000172938
0.00158033
-0.000953659
5.63155e-05
0.00118462
-0.00102759
-0.000359424
0.000940657
-0.000192912
-0.000372603
-3.15061e-05
0.00238487
-0.00034266
0.000328427
-0.000546539
7.40947e-05
0.000253365
-0.000884624
-0.000108287
0.000361552
-0.000358816
-0.000168692
2.37376e-06
-0.000154098
1.98748e-05
-6.09355e-05
0.000918208
-0.000353847
-7.9197e-05
-0.000142229
0.00020529
-0.000458863
-0.000502077
8.31339e-05
-0.000123395
-0.000276196
-4.90869e-05
-0.000201533
-0.000141915
0.000100144
-0.000325016
0.000158889
0.000238928
-0.000172762
0.00021795
0.000290471
-0.000410411
-0.000302983
0.000184709
-0.000473991
-0.000258695
0.000125911
-0.0004104
-0.000227329
0.000113226
-0.000319139
9.57926e-05
0.000235064
-0.000404722
0.00018962
0.00041565
-0.000203767
0.000282736
0.000217023
-0.000361805
-0.000245848
0.000192363
-0.000402476
-0.00019142
0.000159516
-0.000408231
-0.000272517
0.000161061
-0.000381396
7.62229e-05
0.000209376
-0.000321094
0.0001442
0.000350287
-0.000351591
0.000132291
0.000474117
-0.000190256
0.000255941
0.000170562
-0.000334105
-0.000274038
0.000151153
-0.000335057
-8.54256e-05
0.000154117
-0.000326734
-0.00021219
0.000206411
-0.000330448
-2.55737e-05
0.000251801
-0.000306047
-7.54852e-06
0.000341273
-0.000281748
6.94506e-05
0.000419582
-0.000290928
7.70016e-05
0.000498282
-0.000179527
0.000220929
0.000127124
-0.000244644
-0.000273007
0.000112496
-0.000256756
-0.000185988
0.000119448
-0.00022928
-0.000149315
0.000186446
-0.000243185
-2.87605e-05
0.000228376
-0.00027326
-1.26756e-06
0.000276897
-0.000252759
3.44363e-05
0.000349598
-0.000244236
3.96618e-05
0.000413593
-0.000226738
4.86618e-05
0.000484818
-0.000157362
7.83993e-05
6.1849e-05
-0.000131603
-0.000132876
8.1727e-05
-0.000189174
-3.7961e-05
0.000130752
-0.000139853
-6.72699e-05
0.000224294
-0.000194964
-5.44356e-05
0.000213369
-0.00021426
-5.85624e-05
0.000242628
-0.000203878
-7.09648e-06
0.000302641
-0.000186035
1.69162e-05
0.000356909
-0.000189285
1.52938e-05
0.000403199
-0.000164591
1.38822e-05
0.000453376
-0.000144096
-4.14088e-05
3.99038e-05
-8.83515e-05
-0.000130587
5.9798e-05
-0.000118324
-0.000153524
6.42737e-05
-0.000104014
0.000262888
0.000108245
-0.000149198
-5.15415e-05
0.000162033
-0.000179045
-8.41072e-05
0.000188289
-0.0001529
-5.92114e-05
0.000236361
-0.000136539
-2.55562e-05
0.000273779
-0.000131392
1.03013e-05
0.000316271
-0.000129547
2.86034e-05
0.000359907
-0.000121467
3.00468e-05
0.000404211
-3.73531e-05
6.5803e-05
4.03724e-05
-4.36698e-05
2.49816e-05
2.84366e-05
-6.4744e-05
-3.03557e-05
5.83191e-05
-6.21153e-05
7.45526e-05
0.000117607
-8.29625e-05
1.4906e-05
0.000150553
-0.000103836
-0.000174826
0.000155525
-9.78978e-05
-5.86637e-05
0.000175556
-0.000100693
-3.40802e-05
0.000198572
-9.52252e-05
4.18277e-06
0.000228745
-8.83701e-05
4.23145e-05
0.000262974
-8.42617e-05
5.5099e-05
0.000298449
-7.65293e-05
5.03752e-05
0.00033261
-2.49674e-05
-0.00013755
5.08628e-05
3.68932e-06
-0.000358566
4.98162e-05
-1.53748e-05
0.000262131
3.52029e-05
2.27973e-05
0.000528028
6.1143e-05
-3.55296e-05
0.000100528
6.73504e-05
-6.08947e-05
-0.000218091
8.55937e-05
-5.33884e-05
-2.38703e-05
0.000117307
-5.34954e-05
-1.40279e-05
0.000144597
-5.40746e-05
-2.6965e-05
0.000167652
-5.08295e-05
-1.57188e-05
0.000189971
-4.69681e-05
-2.63259e-06
0.000211753
-3.97631e-05
8.89336e-06
0.00023486
-3.44772e-05
1.67077e-05
0.000258934
-8.59541e-05
-0.000125307
7.54956e-07
-5.49615e-05
-5.06152e-05
-3.1725e-06
-5.07793e-05
-0.000112347
-1.7918e-05
1.4831e-06
-0.000456435
-2.2501e-05
-1.21416e-06
-0.000469456
-9.41672e-06
-1.19008e-05
-0.00035995
1.46565e-05
-1.76105e-05
-0.00012996
4.56711e-05
-8.6702e-06
-6.20563e-05
6.60165e-05
-1.10271e-05
-7.69976e-05
8.37369e-05
-1.20771e-05
-5.63729e-05
0.000100917
-1.28999e-05
-4.16654e-05
0.000116756
-1.18913e-05
-2.90486e-05
0.000131893
-1.034e-05
-1.50146e-05
0.00014665
-1.00553e-05
-2.60076e-06
0.000161056
-1.06722e-05
-0.00205233
-7.55555e-06
-3.13331e-07
-0.00193117
-1.96e-05
1.0078e-05
-0.00168099
-2.67454e-05
1.57012e-05
-0.00113224
-1.94209e-05
2.39465e-05
-0.000874151
-1.23584e-05
1.92806e-05
-0.000643578
-1.35905e-08
7.76685e-06
-0.000270069
1.33006e-05
1.12683e-05
-0.000250987
1.71814e-05
9.14619e-06
-0.0002027
2.2489e-05
7.92759e-06
-0.00013552
2.7103e-05
6.13942e-06
-0.000100497
3.23768e-05
4.91295e-06
-6.94043e-05
3.77774e-05
3.75986e-06
-4.41027e-05
4.31685e-05
2.54047e-06
-2.45017e-05
4.84387e-05
1.27281e-06
-1.04134e-05
5.33523e-05
0.00326885
0.000508823
0.000572884
-0.000593895
0.00329581
-0.000377388
0.000286811
0.00270197
-0.000304165
-0.00039722
5.70342e-05
0.00431231
-0.000124996
-0.0001759
0.00192187
-0.00101464
-0.000191948
0.00184377
-0.000991705
-0.000448871
0.000822138
-0.000172372
-0.000276899
-7.47104e-05
0.00296024
-0.000458617
0.000169576
-0.000747235
-4.75728e-05
0.000374778
-0.000857137
-0.000235547
0.000425448
-0.00040272
-0.000213511
-0.000176895
-8.33524e-05
-2.17006e-05
-8.82813e-05
0.00109839
-0.00043311
-0.000332683
-0.000348313
5.52597e-05
-0.000674288
-0.00059596
8.56084e-07
-0.000172074
-0.000367334
-5.10908e-05
-0.000328723
-0.000231084
3.54843e-05
-0.000493873
0.000126982
0.000218779
-0.00015703
0.000110177
4.31386e-05
-0.000353627
-0.000106414
0.000145051
-0.000487708
-0.000336765
0.000117275
-0.000556993
-0.000205516
9.54565e-05
-0.000520123
-0.000213877
0.000132599
-0.000433698
0.000111696
0.000261895
-0.000592573
0.000128662
0.000454451
-0.00029726
0.000134917
0.000176526
-0.000416862
-0.000175408
0.000217953
-0.000504106
-0.000165604
0.000193249
-0.000494436
-0.000219429
0.000204217
-0.000475813
4.08734e-05
0.000262562
-0.000432221
0.000109416
0.000426395
-0.000482219
0.000119933
0.000558093
-0.000290185
0.000203156
0.000179509
-0.000385089
-0.000162239
0.000184398
-0.000395169
-0.000131609
0.000192664
-0.000423697
-0.000233211
0.000217172
-0.000393868
3.76956e-05
0.000263009
-0.000392895
7.82537e-05
0.00036217
-0.000385003
0.000110298
0.000475536
-0.00040344
0.000110292
0.000582841
-0.000262413
0.000210517
0.00012831
-0.000315535
-0.000190984
0.000158399
-0.000324734
-5.68384e-05
0.000190544
-0.000332541
-0.000179672
0.000224861
-0.000317767
-2.65457e-05
0.000281965
-0.000339769
-2.87296e-05
0.000339491
-0.000312132
3.96909e-05
0.000430406
-0.000316816
6.62884e-05
0.000502875
-0.000318604
7.60912e-05
0.000583159
-0.000222293
0.00018086
0.000105001
-0.00023159
-0.000186187
0.000140292
-0.000251308
-0.000144028
0.000132669
-0.000250567
-0.000106438
0.000187285
-0.000245064
-3.62765e-05
0.000244063
-0.000255018
-1.59207e-05
0.000283787
-0.000269722
3.05204e-05
0.000346657
-0.000256317
4.36488e-05
0.000415893
-0.000259611
4.91611e-05
0.000483419
-0.000232946
4.93102e-05
0.000548699
-0.000202612
7.21862e-05
6.473e-05
-0.000144085
-9.39726e-05
7.86793e-05
-0.000179027
-2.96136e-05
0.000134083
-0.000162329
-9.298e-05
0.000214778
-0.00017982
-4.27764e-05
0.000243257
-0.00020587
-7.33162e-05
0.000254947
-0.000200892
-2.00179e-05
0.000303543
-0.000190357
1.51662e-05
0.000358208
-0.000189562
2.26807e-05
0.000407692
-0.000188001
2.08807e-05
0.000454654
-0.000176441
2.18519e-05
0.000508421
-0.000118173
-2.03725e-06
4.14488e-05
-9.11488e-05
-0.000107479
6.42747e-05
-0.000136381
-0.000104177
8.20886e-05
-0.000106681
0.000250269
0.000121458
-0.000141183
-5.27125e-05
0.000167637
-0.000159043
-6.22277e-05
0.000195361
-0.000150729
-5.43518e-05
0.000236261
-0.000142588
-2.37234e-05
0.000276424
-0.000131309
9.38775e-07
0.000319226
-0.000129137
2.32939e-05
0.000362348
-0.000131275
3.04275e-05
0.00040654
-0.000118347
2.53724e-05
0.000446046
-5.22849e-05
5.72758e-05
3.58448e-05
-3.82018e-05
7.39405e-05
3.33047e-05
-6.18405e-05
-1.77172e-05
6.22638e-05
-6.27663e-05
9.28037e-05
0.000125632
-8.70725e-05
3.43976e-05
0.000149659
-0.000106197
-0.000140487
0.000161517
-9.35632e-05
-3.96132e-05
0.000176649
-9.81381e-05
-1.68002e-05
0.000202918
-9.80656e-05
1.27256e-05
0.00023402
-8.91052e-05
4.09206e-05
0.000268415
-8.62252e-05
5.44217e-05
0.000302908
-8.14918e-05
5.44984e-05
0.000336055
-7.81465e-05
4.27886e-05
0.000368284
-1.86623e-05
-0.000223436
1.85945e-05
3.21644e-06
-0.000421544
5.56626e-05
-2.13173e-05
0.000243292
3.9194e-05
1.4481e-05
0.000482789
6.74442e-05
-4.23665e-05
0.000116756
8.60677e-05
-6.70941e-05
-0.000188805
9.32573e-05