/*--------------------------------*- C++ -*----------------------------------*\
  =========                 |
  \\      /  F ield         | OpenFOAM: The Open Source CFD Toolbox
   \\    /   O peration     | Website:  https://openfoam.org
    \\  /    A nd           | Version:  7
     \\/     M anipulation  |
\*---------------------------------------------------------------------------*/
FoamFile
{
    version     2.0;
    format      ascii;
    class       surfaceScalarField;
    location    "0.5";
    object      phi_0;
}
// * * * * * * * * * * * * * * * * * * * * * * * * * * * * * * * * * * * * * //

dimensions      [0 3 -1 0 0 0 0];

internalField   nonuniform List<scalar> 
54095
(
0.00028611
-0.00116407
-1.76057e-05
0.000578115
-0.000657519
-0.000119123
0.000239658
-0.00138777
-1.59593e-05
0.000333567
-0.000947035
-5.4279e-05
0.000907737
0.000201486
-0.000366076
0.000466346
-0.000760289
-0.000123918
0.000481617
-6.15518e-05
-0.0002281
0.000193702
-0.00156709
-1.43843e-05
0.000291466
-0.001202
-5.24626e-05
0.000262734
-0.000714168
-6.54231e-05
0.00117352
-0.000446311
-0.000231083
0.000779231
0.000183284
-0.000294682
0.000893478
0.00320564
8.92796e-05
0.000352355
-0.000803098
-0.000115844
0.000467796
-0.00016095
-0.00020085
0.000329951
-0.000255176
-0.000156763
0.000152501
-0.00170595
-1.36443e-05
0.000242106
-0.00140972
-4.87627e-05
0.000233971
-0.000936382
-6.42201e-05
0.00010951
-0.0003568
-5.0369e-05
0.00140694
-8.54132e-07
-0.000293245
0.00100917
-0.000431189
-0.000245057
0.000940463
-0.000755999
-0.000177623
0.000639248
0.000150594
-0.000254203
0.000847064
0.00253464
-2.95222e-06
0.000216475
-0.00020877
0.000119551
0.000254403
-0.000803799
-0.000101201
0.000436237
-0.000290456
-0.00018047
0.000270855
-0.000359166
-0.000133744
0.000141251
-0.000152734
-9.02543e-05
0.000118737
-0.00181185
-1.28319e-05
0.00019121
-0.00157028
-4.42994e-05
0.000197128
-0.00112138
-6.0888e-05
0.000104133
-0.000476747
-4.84057e-05
0.000100681
-0.000167767
-3.29151e-05
0.00158594
0.000153339
-0.000283701
0.00121327
5.97693e-05
-0.000264725
0.000817628
-0.00125914
-2.62309e-05
0.000842637
-0.000352309
-0.000282268
0.000795921
-0.000744229
-0.000205683
-8.27494e-05
4.31142e-05
-7.23633e-05
0.000518018
0.000126415
-0.000239436
0.000821044
0.00193011
-3.44805e-05
3.28355e-05
-2.50575e-05
5.13547e-05
0.000288146
0.000264802
-7.26374e-05
0.000175769
-0.000775585
-8.52459e-05
0.000362838
-0.000402367
-0.000160918
0.000197998
-0.000422167
-0.000118338
0.000130457
-0.00023466
-7.81424e-05
0.000181631
-0.000260388
-7.65598e-05
9.3487e-05
-0.00189343
-1.19081e-05
0.000145315
-0.00168908
-3.93505e-05
0.000160834
-0.00127069
-5.58273e-05
9.77531e-05
-0.000590223
-4.51645e-05
9.5617e-05
-0.000281
-3.07892e-05
4.79372e-05
-0.000185337
-9.3497e-06
0.00177923
0.000186256
-0.000323499
0.00138737
0.000211114
-0.000231881
0.000660215
-0.000223309
-0.000153927
0.00105413
4.72266e-05
-0.000198949
0.000596996
-0.00122509
-9.98575e-05
-0.000181798
-0.000160444
0.00010119
0.00065617
-0.00022114
-0.000269321
0.000675444
-0.000684592
-0.000196305
-0.000197651
0.000125096
-5.7178e-05
0.000318291
-0.000121839
-7.67351e-05
0.000409805
0.000117485
-0.000225106
0.0007216
0.00136781
-3.58941e-05
-6.92887e-05
0.000191045
1.6704e-05
0.000267571
0.000268831
-8.97873e-05
0.000190096
6.01392e-05
-5.52836e-05
0.000114609
-0.000732696
-6.40118e-05
0.000277976
-0.000480454
-0.00013982
0.00014064
-0.000451247
-0.000111644
0.000119575
-0.000306178
-6.86416e-05
0.000162377
-0.0003353
-6.99909e-05
2.02338e-05
-0.000162077
-3.75909e-06
7.42961e-05
-0.00195695
-1.07784e-05
0.000107908
-0.00177443
-3.44577e-05
0.000129037
-0.00138891
-5.01726e-05
8.84031e-05
-0.00069317
-4.12834e-05
8.81211e-05
-0.000385966
-2.83199e-05
4.64655e-05
-0.00025401
-8.58147e-06
1.77534e-05
-6.79284e-05
4.3916e-07
0.00198589
0.000304985
-0.00019863
0.00150477
0.000289309
-0.000220445
0.000491754
-4.25944e-06
-8.93819e-05
0.00120731
0.000182364
-0.00012443
0.000334576
-6.85879e-05
-0.000124183
-0.000191016
-0.000235049
5.46736e-05
0.000817179
4.98227e-06
-0.000118765
0.000418412
-0.00105665
-0.000110355
-0.000169213
-0.000331374
4.26344e-05
0.000294892
0.000199014
7.51944e-05
0.000502946
-8.21566e-05
-0.000232126
0.000518323
-0.000584101
-0.000166536
-0.000207193
0.000104113
-3.74168e-05
0.000295309
-0.000187269
-1.94858e-05
0.000168772
-0.000196426
4.35057e-06
0.000309206
0.000124461
-0.000201573
0.000587804
0.000864578
-3.17068e-05
-9.18749e-05
0.000371667
1.59986e-05
0.0001976
0.000306145
-9.86359e-05
0.000148209
3.88543e-05
-5.4334e-05
-3.41993e-05
-0.000136482
6.80276e-05
6.77038e-05
-0.000681216
-4.48873e-05
0.000183398
-0.000507004
-0.000112952
0.000101507
-0.000464838
-9.86988e-05
0.00010509
-0.000368074
-6.64356e-05
0.000139198
-0.000393254
-6.17644e-05
2.35467e-05
-0.000206931
-2.21789e-06
6.8908e-06
-6.14822e-05
2.43839e-05
6.12799e-05
-0.00200832
-9.91033e-06
7.94902e-05
-0.00183468
-3.00221e-05
9.89223e-05
-0.00147777
-4.45197e-05
7.87263e-05
-0.000784828
-3.72414e-05
7.92291e-05
-0.000480999
-2.54791e-05
4.44644e-05
-0.000319324
-7.47041e-06
1.79511e-05
-9.55389e-05
1.078e-06
2.95339e-05
-8.09758e-05
5.20611e-06
0.00207057
0.000182966
-4.75905e-05
0.00164653
0.000195199
-3.19824e-05
0.00032943
5.14329e-05
1.54544e-05
0.00132319
0.000265214
-9.17822e-05
0.000124514
-1.90071e-05
4.36522e-06
-0.000112952
-0.000391089
-3.34991e-06
0.000964278
9.27345e-05
-5.74692e-05
0.00022462
3.06862e-05
-2.99128e-05
-0.000220007
-0.000314535
6.09742e-06
0.000253326
2.06259e-05
0.000197129
0.000597397
-2.00208e-05
-6.94477e-05
0.00018431
-0.000784142
-5.72584e-05
-0.000124757
-0.000521918
-2.24927e-06
0.000209764
0.000229887
9.73061e-05
0.00018501
-0.000155636
0.000108725
0.00037415
2.23408e-05
-0.000169441
0.000338156
-0.000438461
-0.000128117
-0.000174679
2.65784e-05
-6.19816e-06
0.00017732
-0.000211121
6.71535e-06
8.18192e-05
-0.000194527
4.50047e-05
-1.75678e-05
-0.000365839
8.8724e-05
0.000207634
0.000150197
-0.000165667
0.000407818
0.000458308
-1.97239e-05
-5.97351e-05
0.000473976
2.72268e-05
0.000158202
0.000359021
-8.99881e-05
0.000111831
1.05151e-05
-4.29293e-05
-3.97629e-05
-0.000193107
6.56004e-05
-2.89166e-06
-5.20461e-05
8.41884e-05
3.09422e-05
-0.000620198
-3.06804e-05
9.7624e-05
-0.000484574
-8.54505e-05
6.69548e-05
-0.000460366
-8.5456e-05
9.1236e-05
-0.000419311
-5.99716e-05
0.000112565
-0.000437232
-5.57937e-05
2.62072e-05
-0.000250978
5.39324e-07
-3.25413e-07
-7.33083e-05
2.78846e-05
2.19033e-05
-4.85383e-05
4.57179e-05
4.98587e-05
-0.00204915
-9.02646e-06
5.87612e-05
-0.00187695
-2.64013e-05
7.42683e-05
-0.00154264
-3.94152e-05
6.82824e-05
-0.000864343
-3.3287e-05
6.97531e-05
-0.000565417
-2.25765e-05
4.13818e-05
-0.000380006
-6.17945e-06
1.75591e-05
-0.000122954
2.38519e-06
2.71429e-05
-0.000113168
6.12698e-06
2.04066e-05
-6.74321e-05
1.57027e-05
0.00221063
8.19725e-05
-0.000157353
0.00166276
0.000211392
-4.46503e-05
0.000225796
-0.000263827
0.000145098
0.00139185
0.000161111
-3.45779e-05
0.000111738
-3.51584e-05
6.73855e-05
-7.69908e-06
-0.000404356
7.56366e-06
0.00109969
0.000173995
-4.41907e-05
2.21209e-05
5.37326e-06
8.63367e-05
-0.000206964
-0.000408745
8.97821e-06
0.000195223
-0.000168469
0.000119504
0.000682939
4.81714e-05
-4.09788e-05
3.58719e-05
6.08878e-05
6.07671e-05
-0.000202843
-0.000268399
2.03701e-06
0.000105572
1.23234e-05
0.000118592
0.00019481
-4.70588e-05
0.000209815
0.000431038
-4.53956e-05
-3.15134e-05
2.33002e-05
-0.000549397
1.06635e-05
-0.00012157
-0.000586555
-4.57297e-05
7.79967e-05
0.000234742
9.22189e-05
2.12714e-05
-0.000127915
0.000130133
-8.81248e-07
-0.000323193
0.000103902
0.000241466
7.87159e-05
-9.02069e-05
0.00018068
-0.000299496
-8.12678e-05
-0.000123926
-5.17302e-05
1.43832e-05
7.66607e-05
-0.000184023
4.82446e-05
-2.51837e-07
-0.000154181
7.84522e-05
-6.30543e-05
-0.000390431
9.28882e-05
-4.10437e-06
-0.000124185
0.000115857
0.000128287
0.000166864
-0.000114011
0.000227821
0.000171571
-9.1275e-06
-1.23825e-05
0.000468936
6.4653e-05
0.000120923
0.00042693
-7.03694e-05
6.7355e-05
-8.60057e-06
-2.56627e-05
-4.30755e-05
-0.000230127
6.33733e-05
-3.05429e-05
-4.79381e-05
9.17099e-05
1.84294e-06
-8.13474e-05
0.000114602
6.99218e-07
-0.000548779
-2.22589e-05
2.99575e-05
-0.000425263
-6.11879e-05
3.41149e-05
-0.000434615
-7.10479e-05
7.37414e-05
-0.000457695
-5.25305e-05
8.89777e-05
-0.000467618
-4.88103e-05
2.33616e-05
-0.000289556
8.04424e-07
-5.42115e-06
-8.14301e-05
3.16414e-05
1.26857e-05
-5.50767e-05
4.88803e-05
1.42572e-05
-5.5889e-05
7.01651e-05
3.39745e-05
-0.00207377
-9.35008e-06
4.23977e-05
-0.00190481
-2.35665e-05
5.52573e-05
-0.00158906
-3.52382e-05
5.85705e-05
-0.000932644
-2.96851e-05
6.04666e-05
-0.000639302
-1.98686e-05
3.79922e-05
-0.000435741
-4.83364e-06
1.66385e-05
-0.000149828
4.0563e-06
2.44245e-05
-0.00014266
7.45272e-06
1.82474e-05
-9.60147e-05
1.64623e-05
1.59931e-05
-4.9748e-05
2.24189e-05
0.00237011
-0.000212113
-8.65153e-05
0.00175903
0.000122494
-0.000136791
0.000220717
-0.000817268
5.88551e-05
0.00144768
0.000201026
-4.54624e-05
6.48785e-05
-0.000413186
0.000151567
0.000205947
-0.000632871
-1.07439e-05
0.0011361
0.000155148
-3.04504e-05
3.35207e-05
-0.000142341
6.1205e-05
-0.000201538
-0.000368829
2.64325e-05
0.000187601
-0.000215716
9.46974e-05
0.000787223
0.000118299
-4.85885e-05
-6.55619e-06
-8.72782e-05
9.08889e-05
-0.000223196
-0.000359319
5.72638e-05
4.11049e-06
-0.000146414
8.83849e-05
0.00015942
4.1801e-05
0.000210031
0.000479044
2.95495e-05
-2.93838e-05
-5.85845e-05
2.35268e-05
7.8267e-05
-0.000201611
-0.000176082
4.84912e-05
-6.03052e-05
6.59532e-05
8.6709e-05
-5.39584e-05
-3.73688e-05
0.000184132
1.3277e-05
-1.14994e-05
0.000189959
0.000268496
-6.87826e-05
-3.64203e-06
-5.30788e-05
-0.000393097
4.59444e-05
-0.00015337
-0.000517714
-2.87334e-05
-4.56434e-05
0.000247275
6.40416e-05
-0.000128013
-6.05381e-05
0.000152603
-9.60418e-05
-0.000294659
0.000134587
-3.26549e-05
-6.86685e-05
0.000156823
0.000132608
9.44224e-05
-2.00272e-05
4.99422e-05
-0.000182367
-2.94563e-05
-6.99129e-05
-0.000104114
2.86465e-05
1.0612e-05
-0.000124404
6.50753e-05
-5.00341e-05
-0.000102551
0.000114003
-0.00010371
-0.000363511
0.000112166
-5.62375e-05
-0.000133035
0.000127433
-2.12493e-05
-7.93912e-05
0.000161041
6.29327e-05
0.000159814
-5.51833e-05
0.000100162
-1.9097e-05
6.45304e-06
4.49382e-06
0.000405846
8.35837e-05
9.74819e-05
0.000487472
-1.96296e-05
3.99248e-05
-2.4195e-05
-5.72208e-06
-4.85318e-05
-0.000247735
6.38386e-05
-4.39289e-05
-4.06305e-05
9.45733e-05
-2.72747e-05
-7.22321e-05
0.000122555
-5.57208e-06
-8.36536e-05
0.000146565
-2.75355e-05
-0.000470622
-1.66474e-05
-1.24416e-05
-0.00034953
-4.31531e-05
5.60144e-06
-0.000389359
-5.67887e-05
5.89943e-05
-0.000483484
-4.56829e-05
6.49891e-05
-0.000484019
-4.06516e-05
1.86006e-05
-0.000321231
2.25637e-06
-7.17364e-06
-9.17011e-05
3.48876e-05
7.18131e-06
-5.89059e-05
5.27137e-05
4.76275e-06
-6.65781e-05
7.3054e-05
1.08517e-05
-4.69205e-05
9.1248e-05
2.49704e-05
-0.00208928
-9.46206e-06
3.47533e-05
-0.00192564
-2.32692e-05
4.16012e-05
-0.00162191
-3.23149e-05
4.76025e-05
-0.000988827
-2.66572e-05
5.17843e-05
-0.000703238
-1.75339e-05
3.44903e-05
-0.000486527
-3.57298e-06
1.51598e-05
-0.000175769
5.94774e-06
2.18806e-05
-0.000169595
9.11126e-06
1.63064e-05
-0.000122203
1.73343e-05
1.40018e-05
-7.03163e-05
2.30288e-05
1.18643e-05
-4.11375e-05
2.95163e-05
0.00260653
-0.000212254
-0.000108521
8.43566e-05
0.00191305
-0.000317455
-4.86771e-05
0.000590961
-0.000843084
-0.000140262
0.00145594
9.70202e-05
1.72187e-05
7.71669e-05
-0.000912018
-5.43297e-05
0.000409874
-0.000348674
-0.000127261
0.00111809
0.000208089
1.09487e-05
-3.06927e-05
-0.000497373
0.000102939
-8.67966e-05
-0.000555519
-4.05256e-05
0.000261462
-0.000225125
4.90628e-05
0.000824805
0.000150715
-3.31484e-05
-3.25048e-06
-0.000280574
0.000104477
-0.000255929
-0.000305906
3.10152e-05
-4.88476e-05
-0.000239027
0.000102701
9.15211e-05
8.81574e-05
0.000206146
0.000540308
0.000110182
-5.31475e-05
-3.64549e-05
-0.000244799
8.68026e-05
-0.000232492
-0.000299848
6.22997e-05
-0.000175202
-9.49564e-05
0.000120703
-0.000101989
6.98756e-06
0.000171229
-6.90361e-06
0.000148027
0.000258271
0.000310275
2.13853e-05
-3.3615e-05
-9.90788e-05
-3.79566e-05
7.80996e-05
-0.000213128
-0.000114918
7.68601e-05
-0.000126673
6.87001e-05
0.000126774
-0.000215429
-4.68935e-05
0.000183649
-0.000122798
-4.99813e-06
0.000204387
-6.77392e-05
2.63794e-05
0.00024799
0.000138346
-9.42584e-05
1.97378e-05
-8.93249e-05
-0.000303664
4.61928e-05
-0.000144337
-0.00039793
5.83852e-07
-0.000103448
0.000261523
7.10783e-05
-0.000173414
-3.84063e-05
0.000165289
-0.000160911
-0.000248038
0.000163184
-9.90796e-05
-7.69526e-05
0.000185713
-7.44395e-05
6.09073e-06
0.000226371
4.30333e-05
8.32694e-05
3.10524e-05
-4.92846e-06
-0.000111796
1.44911e-05
-5.0047e-05
-0.000119999
4.09696e-05
-2.58748e-05
-5.54516e-05
8.30505e-05
-6.02941e-05
-6.43146e-05
0.000127058
-0.000115576
-0.000310098
0.000127634
-8.54421e-05
-0.000122658
0.000143303
-6.66485e-05
-8.12558e-05
0.000168671
-4.41187e-05
-5.14726e-06
0.000206932
6.15085e-06
0.000135099
-8.97106e-06
3.50414e-05
-0.000149315
2.75521e-05
-3.10543e-07
0.000346421
7.17903e-05
7.32384e-05
0.00053217
2.46416e-05
1.37247e-05
-8.41526e-06
1.58551e-05
-4.72921e-05
-0.000256182
6.86186e-05
-4.98861e-05
-3.26673e-05
9.85878e-05
-4.12717e-05
-5.98428e-05
0.000130637
-3.1497e-05
-7.79564e-05
0.000153118
-1.12588e-05
-5.4718e-05
0.000177121
-5.26189e-05
-0.000382691
-1.03413e-05
-3.00141e-05
-0.000271095
-3.03147e-05
-1.64171e-05
-0.000330523
-4.39702e-05
3.86934e-05
-0.000492283
-3.90802e-05
4.36489e-05
-0.000489632
-3.19347e-05
1.38501e-05
-0.000346216
4.97419e-06
-9.33993e-06
-0.000103033
3.80881e-05
2.76619e-06
-6.10999e-05
5.6196e-05
-1.33878e-07
-7.34021e-05
7.5978e-05
1.31978e-06
-5.50865e-05
9.3902e-05
6.16121e-06
-3.75922e-05
0.000110747
1.50177e-05
-0.00209488
-9.41552e-06
2.7729e-05
-0.00193944
-2.33905e-05
3.32436e-05
-0.00164748
-3.09521e-05
3.92309e-05
-0.00103607
-2.43066e-05
4.38716e-05
-0.000758024
-1.57423e-05
3.06764e-05
-0.000532309
-2.42809e-06
1.33513e-05
-0.000201019
8.32599e-06
1.92726e-05
-0.00019391
1.09902e-05
1.4483e-05
-0.000146043
1.84685e-05
1.21984e-05
-8.90059e-05
2.38254e-05
1.0172e-05
-5.83077e-05
3.00269e-05
8.54403e-06
-3.17315e-05
3.62251e-05
0.00294439
-0.000362809
-0.000161411
0.000186366
0.00219813
-0.000483958
-1.33758e-05
0.0011022
-0.000823119
-0.000324394
0.000527752
0.00336366
-0.000220144
0.00134089
-0.000329974
0.000127561
0.000339665
-0.000953503
-0.000200756
0.000598666
-4.35536e-06
-0.000171744
0.000880373
8.50641e-05
0.000249672
-6.80727e-05
-0.00087666
1.92407e-05
8.16516e-05
-0.000414623
-0.000156829
0.000218006
4.49616e-05
2.07222e-05
0.00065323
0.000252981
0.000126683
-7.80489e-05
-0.000572209
0.000160583
-0.000267887
-0.000437716
-2.90561e-06
-9.57954e-05
-0.000278364
5.96606e-05
-3.91174e-05
0.000182133
0.000190379
0.000504078
0.000172018
1.4927e-05
-5.03908e-05
-0.000411311
0.000111524
-0.000309114
-0.000201915
7.7107e-05
-0.000273852
-0.00023161
0.000122249
-0.000126245
2.22835e-05
0.000192831
-8.66852e-05
0.00013911
0.000307852
0.000256166
0.000171854
-7.56235e-06
-0.000142302
-0.000348803
9.40798e-05
-0.000246441
-0.000260492
8.07593e-05
-0.000203816
-0.000100856
0.000145343
-0.0002692
6.8258e-06
0.000174636
-0.000145041
8.33034e-05
0.000258196
-0.000125205
7.12855e-05
0.000329283
9.85714e-05
7.11526e-05
-9.99329e-06
-0.000118378
-0.000103874
6.13553e-05
-0.000209856
-6.75705e-05
9.62717e-05
-0.000162243
4.0042e-05
0.000164314
-0.000225979
-4.66001e-05
0.000179046
-0.000206489
-2.25384e-05
0.000246767
-0.000155881
1.1612e-05
0.000275955
-0.000122056
2.28066e-05
0.000327334
2.93178e-06
-9.38142e-05
3.96572e-05
-9.28014e-05
-0.000242146
4.60926e-05
-0.000129994
-0.000276955
5.16498e-06
-0.000130051
0.000298057
6.82263e-05
-0.000168665
-3.95639e-05
0.000180607
-0.00019292
-0.000186551
0.000181146
-0.000134514
-7.89165e-05
0.00021422
-0.000116484
-6.00556e-06
0.000247645
-0.000102811
2.81396e-05
0.000294691
-4.41426e-05
8.7654e-05
4.59087e-05
-4.3974e-06
-7.65653e-05
3.52608e-05
-5.13956e-05
-0.000100847
4.64236e-05
-4.18617e-05
-2.01884e-06
0.000102637
-7.98632e-05
-2.53972e-05
0.000137721
-0.000111908
-0.000263642
0.000145219
-0.000100891
-9.9423e-05
0.000155403
-8.89355e-05
-7.00161e-05
0.000179727
-7.58538e-05
-5.1636e-06
0.000213044
-6.02545e-05
3.88942e-05
0.00025096
-1.88047e-05
7.13953e-05
2.98892e-05
1.11524e-05
-0.000234675
3.52221e-05
-5.88217e-06
0.000305669
5.77696e-05
4.91082e-05
0.000557417
3.61286e-05
-8.88257e-06
3.40211e-05
3.47367e-05
-4.50146e-05
-0.000255372
7.39092e-05
-5.16892e-05
-2.63726e-05
0.000104673
-4.84431e-05
-4.57446e-05
0.000135699
-4.477e-05
-6.29955e-05
0.000160312
-3.45311e-05
-4.73032e-05
0.000181554
-2.04666e-05
-2.27032e-05
0.000206677
-7.38598e-05
-0.000293113
-7.01207e-07
-4.05207e-05
-0.000193823
-1.93641e-05
-2.86297e-05
-0.000265108
-3.38563e-05
2.4589e-05
-0.000489097
-3.25151e-05
2.67774e-05
-0.000488084
-2.35343e-05
4.60804e-06
-0.000360316
8.23288e-06
-1.20731e-05
-0.0001138
4.11651e-05
-1.55999e-06
-6.18489e-05
5.96697e-05
-4.23929e-06
-7.72575e-05
7.87737e-05
-5.33021e-06
-5.80576e-05
9.64776e-05
-3.02581e-06
-4.33603e-05
0.000112868
3.54918e-07
-2.63605e-05
0.000128852
6.21618e-06
-0.00209253
-8.57378e-06
1.73443e-05
-0.00194358
-2.26243e-05
2.64695e-05
-0.00166719
-3.01476e-05
3.11259e-05
-0.00107561
-2.25315e-05
3.67966e-05
-0.000804664
-1.44634e-05
2.68639e-05
-0.000573423
-1.49234e-06
1.14548e-05
-0.000225086
1.01837e-05
1.62257e-05
-0.000215231
1.34208e-05
1.26711e-05
-0.000167478
1.97545e-05
1.06289e-05
-0.000105991
2.48245e-05
8.59391e-06
-7.37636e-05
3.06874e-05
7.21923e-06
-4.55624e-05
3.66385e-05
5.57255e-06
-2.34097e-05
4.24133e-05
0.0034727
-0.000530681
-0.000324242
0.000326603
0.0025681
-0.000702125
-3.06565e-05
0.00164112
-0.000897341
-0.000479725
0.000676737
0.00372174
-0.000109827
0.00138391
-0.000697985
0.000171016
0.000726743
-0.000969415
-0.000254159
0.000820646
-0.000116126
-0.000301688
-0.000128561
0.00159493
-0.000341999
0.000549524
-0.000286126
0.000287002
5.81057e-05
-0.000899199
-5.29212e-05
0.000202319
-0.000177802
-0.000147977
0.000106375
3.67903e-05
7.03063e-05
0.000260772
0.000151597
0.000325924
-0.000270961
-0.000616065
0.00018199
-0.000218217
-0.000394353
-5.06999e-05
-0.000133608
-0.000124141
5.00863e-05
-0.000198108
0.000163412
0.000224172
0.000178825
0.000301123
0.000277111
-0.000242044
-0.000422782
0.000168909
-0.000394575
-0.00027916
8.74888e-05
-0.000349326
-0.00029863
9.28349e-05
-0.000203166
0.000129893
0.000188822
-0.000240127
0.000192248
0.000338744
-6.66775e-06
0.000281827
0.000153025
-0.000269665
-0.000388179
0.000119158
-0.000324734
-0.000124857
0.00011276
-0.000308467
-0.000225625
0.000175773
-0.000318906
-1.10156e-05
0.000205254
-0.000209203
7.51874e-05
0.000320915
-0.000223865
9.65526e-05
0.000403334
-4.5645e-05
0.000224286
9.17841e-05
-0.000219929
-0.000359893
0.000105077
-0.000260784
-0.00022105
0.000105565
-0.000219947
-0.000132087
0.000169693
-0.000269247
-7.8124e-06
0.000203249
-0.000253352
3.10838e-05
0.00027372
-0.000211231
4.67823e-05
0.00033805
-0.000191911
4.68912e-05
0.00041154
-5.46113e-05
8.8069e-05
4.06265e-05
-0.000135873
-0.000143471
7.26755e-05
-0.000206744
-5.12053e-05
0.00012174
-0.000165378
-1.2548e-05
0.000184189
-0.000205159
-4.40046e-05
0.000198212
-0.000231658
-4.15002e-05
0.000236745
-0.000189225
9.41039e-06
0.000303681
-0.000176414
1.36443e-05
0.000345047
-0.000154061
1.26995e-05
0.000396031
-0.000103822
-7.95668e-05
4.54314e-05
-7.9583e-05
-0.000183015
5.57115e-05
-0.000118023
-0.000207284
4.30489e-05
-9.22978e-05
0.000280198
7.34595e-05
-0.000175856
-3.52749e-05
0.00015993
-0.00018617
-0.000126704
0.000195021
-0.000153823
-7.14696e-05
0.000226632
-0.000129351
-1.71347e-05
0.000265765
-0.000128622
2.05454e-05
0.000308008
-0.000113866
3.207e-05
0.000353106
-6.57836e-05
8.83513e-05
4.62815e-05
-2.16726e-05
-3.42795e-05
3.64478e-05
-5.60559e-05
-6.85548e-05
5.31428e-05
-5.65252e-05
4.14842e-05
0.000108554
-7.73681e-05
-2.28587e-07
0.000145954
-0.000107614
-0.0002156
0.000152278
-9.90692e-05
-7.88308e-05
0.000172007
-9.73157e-05
-5.51457e-05
0.000189405
-9.10648e-05
-7.4598e-07
0.000221605
-8.12825e-05
4.21108e-05
0.000256579
-7.2982e-05
5.10857e-05
0.000293821
-2.04719e-05
-2.70265e-05
4.50338e-05
-2.43036e-06
-0.000294844
5.1968e-05
-5.96883e-06
0.000272751
4.54788e-05
3.45201e-05
0.000557215
4.80402e-05
-2.62152e-05
7.23132e-05
5.0829e-05
-5.30692e-05
-0.00024036
7.74025e-05
-5.4361e-05
-2.2454e-05
0.000112278
-5.2695e-05
-3.02415e-05
0.000140305
-5.05179e-05
-4.58058e-05
0.000164788
-4.66023e-05
-3.19505e-05
0.000186232
-3.83875e-05
-1.46073e-05
0.000208819
-2.85536e-05
2.15153e-06
0.000233932
-8.34901e-05
-0.000200404
-3.00278e-06
-5.28391e-05
-0.000116781
-7.55937e-06
-4.28425e-05
-0.000189539
-2.56218e-05
1.01846e-05
-0.00047432
-2.7692e-05
1.33401e-05
-0.000481623
-1.55187e-05
-3.65413e-06
-0.000364696
1.13645e-05
-1.49712e-05
-0.000122861
4.372e-05
-5.25949e-06
-6.22652e-05
6.30665e-05
-8.06018e-06
-7.82235e-05
8.13669e-05
-9.38163e-06
-5.81115e-05
9.88382e-05
-9.35323e-06
-4.38388e-05
0.000114903
-6.86585e-06
-2.97857e-05
0.000130378
-5.56446e-06
-1.35908e-05
0.000145597
-1.97621e-06
-0.00208238
-8.17369e-06
8.12e-06
-0.00193983
-2.04419e-05
1.92085e-05
-0.00168038
-2.86431e-05
2.36079e-05
-0.00110835
-2.10149e-05
2.9753e-05
-0.000843458
-1.34904e-05
2.30341e-05
-0.000610158
-7.62617e-07
9.57166e-06
-0.000248032
1.18823e-05
1.36607e-05
-0.000234061
1.53536e-05
1.08697e-05
-0.000186044
2.11172e-05
9.21698e-06
-0.000121388
2.59347e-05
7.25386e-06
-8.76844e-05
3.14914e-05
5.95679e-06
-5.7991e-05
3.71592e-05
4.63378e-06
-3.41641e-05
4.27592e-05
3.10086e-06
-1.61618e-05
4.81439e-05
0.00375394
0.00015954
-0.000239838
-0.000200936
0.00305348
-0.000862323
-0.000153736
0.00232089
-0.000622461
-0.000644432
0.000262878
0.00420997
-0.000176747
0.00158606
-0.000957406
5.31244e-05
0.00118939
-0.00102881
-0.000361838
0.000937139
-0.000194102
-0.00037222
-2.98965e-05
0.00239324
-0.000341196
0.000328973
-0.000550104
7.26704e-05
0.000255756
-0.000885488
-0.000110561
0.000361159
-0.000359856
-0.000169268
-1.17594e-06
-0.000155427
1.96984e-05
-5.84083e-05
0.000916682
-0.000356523
-8.1518e-05
-0.000146588
0.000202752
-0.000460612
-0.000503099
8.05524e-05
-0.000123743
-0.000275518
-4.9679e-05
-0.000203036
-0.000141899
0.00010014
-0.000326846
0.00015858
0.000239361
-0.000174257
0.000214771
0.000289909
-0.00041248
-0.000303075
0.00018337
-0.00047377
-0.000258797
0.000125629
-0.000410516
-0.000226903
0.000113251
-0.000320399
9.53784e-05
0.000235352
-0.000405389
0.000188551
0.000415868
-0.000204532
0.000282142
0.000216845
-0.000362705
-0.000244909
0.000192278
-0.000402535
-0.000192071
0.000159622
-0.000408187
-0.000272322
0.000160901
-0.000381782
7.60683e-05
0.000209536
-0.000321701
0.000143206
0.000350362
-0.000352084
0.000131147
0.00047404
-0.000190796
0.000256291
0.000170687
-0.000333609
-0.000273011
0.000151537
-0.000335026
-8.58888e-05
0.000154431
-0.00032676
-0.000212338
0.000206286
-0.000330172
-2.61859e-05
0.000251869
-0.000306102
-8.15896e-06
0.00034135
-0.00028199
6.86866e-05
0.000419539
-0.00029113
7.63459e-05
0.000498214
-0.00017964
0.000221808
0.000127506
-0.000244634
-0.000272109
0.000112762
-0.000256597
-0.000185637
0.000119517
-0.000229163
-0.000149151
0.000186415
-0.000242989
-2.85797e-05
0.000228291
-0.000273027
-1.16997e-06
0.000276873
-0.000252586
3.42916e-05
0.00034957
-0.000244352
3.93538e-05
0.000413525
-0.000226812
4.83365e-05
0.000484709
-0.000157545
7.98275e-05
6.19654e-05
-0.000131769
-0.000132507
8.18485e-05
-0.000189222
-3.81485e-05
0.000130817
-0.000139812
-6.75123e-05
0.000224219
-0.000194866
-5.40926e-05
0.000213286
-0.000214087
-5.80417e-05
0.00024267
-0.000203588
-6.8054e-06
0.000302725
-0.000185879
1.6947e-05
0.000356905
-0.000189243
1.52449e-05
0.000403122
-0.000164743
1.3803e-05
0.000453288
-0.000144196
-4.10449e-05
3.98902e-05
-8.87642e-05
-0.00013031
5.98182e-05
-0.000118477
-0.000153369
6.42179e-05
-0.000104032
0.000262549
0.000108205
-0.000149208
-5.18845e-05
0.000161909
-0.000178914
-8.37856e-05
0.000188312
-0.000152815
-5.892e-05
0.000236218
-0.000136377
-2.51944e-05
0.000273753
-0.000131365
1.03918e-05
0.000316219
-0.000129571
2.8498e-05
0.000359868
-0.000121501
2.98866e-05
0.000404131
-3.76527e-05
6.52825e-05
4.02495e-05
-4.37777e-05
2.49956e-05
2.83538e-05
-6.4898e-05
-3.1524e-05
5.83461e-05
-6.2148e-05
7.37001e-05
0.000117595
-8.28829e-05
1.44296e-05
0.000150563
-0.000103744
-0.000174522
0.000155551
-9.79399e-05
-5.84189e-05
0.000175445
-0.000100708
-3.36042e-05
0.000198478
-9.5175e-05
4.61205e-06
0.000228704
-8.83464e-05
4.24963e-05
0.000262963
-8.42628e-05
5.50977e-05
0.000298442
-7.65961e-05
5.02281e-05
0.000332592
-2.50301e-05
-0.00013647
5.09838e-05
3.40131e-06
-0.000355647
4.95961e-05
-1.53505e-05
0.000262226
3.50008e-05
2.2764e-05
0.000528976
6.11386e-05
-3.55029e-05
0.000101665
6.7531e-05
-6.09144e-05
-0.000217972
8.57014e-05
-5.34486e-05
-2.39469e-05
0.000117373
-5.35413e-05
-1.42723e-05
0.000144591
-5.4078e-05
-2.7085e-05
0.000167602
-5.08297e-05
-1.56261e-05
0.000189911
-4.69601e-05
-2.4789e-06
0.00021171
-3.97918e-05
9.05902e-06
0.000234838
-3.45583e-05
1.67891e-05
0.000258903
-8.57841e-05
-0.000117411
8.15254e-07
-5.49529e-05
-5.32376e-05
-3.47318e-06
-5.05724e-05
-0.000109443
-1.7874e-05
1.48038e-06
-0.0004552
-2.26143e-05
-1.30108e-06
-0.000468915
-9.34602e-06
-1.19468e-05
-0.00035988
1.46453e-05
-1.76514e-05
-0.000129935
4.56613e-05
-8.72733e-06
-6.21725e-05
6.60153e-05
-1.1077e-05
-7.695e-05
8.37397e-05
-1.21278e-05
-5.63177e-05
0.000100918
-1.29384e-05
-4.1563e-05
0.000116755
-1.19338e-05
-2.88849e-05
0.000131893
-1.04046e-05
-1.48251e-05
0.000146651
-1.01336e-05
-2.46441e-06
0.00016105
-1.183e-05
-0.00206272
-7.82708e-06
-1.0433e-06
-0.00192724
-1.97264e-05
1.08155e-05
-0.00168465
-2.69886e-05
1.60692e-05
-0.00113337
-1.96981e-05
2.39936e-05
-0.000875803
-1.26634e-05
1.92078e-05
-0.000642712
-1.43992e-07
7.75168e-06
-0.000269819
1.32722e-05
1.12515e-05
-0.000250585
1.71549e-05
9.1141e-06
-0.000202277
2.24721e-05
7.89136e-06
-0.000135259
2.70972e-05
6.10476e-06
-0.000100232
3.23771e-05
4.87699e-06
-6.91593e-05
3.77827e-05
3.72175e-06
-4.39029e-05
4.31762e-05
2.5005e-06
-2.43476e-05
4.84446e-05
1.23273e-06
-1.03298e-05
5.3355e-05
0.00325823
0.000513533
0.000578582
-0.000596411
0.00329313
-0.000369861
0.000289752
0.0027044
-0.000304456
-0.000375162
5.62737e-05
0.00431145
-0.000124389
-0.000178031
0.00192912
-0.00101343
-0.000191949
0.00184785
-0.000989738
-0.000444915
0.000811731
-0.000174945
-0.000273008
-7.1071e-05
0.00296233
-0.000461912
0.000169046
-0.000749306
-4.81728e-05
0.000374719
-0.000857614
-0.000237034
0.00042016
-0.000402111
-0.000212831
-0.000183249
-8.40983e-05
-2.02649e-05
-8.57831e-05
0.00109697
-0.000432227
-0.000335444
-0.00035018
5.40024e-05
-0.000676293
-0.000596512
-6.2448e-07
-0.000174685
-0.000367727
-5.17497e-05
-0.000332424
-0.000231074
3.57673e-05
-0.000496776
0.000125932
0.000219538
-0.000155841
0.00010391
4.30037e-05
-0.000355511
-0.000109153
0.000143819
-0.000489834
-0.000338508
0.000115514
-0.000557693
-0.000205334
9.42916e-05
-0.000521108
-0.000213609
0.000132623
-0.000435172
0.000111195
0.000262299
-0.000593252
0.000127602
0.000454735
-0.000297696
0.000132423
0.000175512
-0.000417144
-0.000175948
0.000217221
-0.000504574
-0.00016608
0.000192692
-0.000494374
-0.000219288
0.000204201
-0.000476491
4.06253e-05
0.000262713
-0.000432789
0.000108492
0.000426499
-0.000482434
0.000119016
0.000557962
-0.000289984
0.000202192
0.000179139
-0.000384689
-0.000161338
0.000184354
-0.00039542
-0.000132002
0.000192604
-0.00042353
-0.000233039
0.00021711
-0.000393856
3.76158e-05
0.000263037
-0.000393024
7.7403e-05
0.000362261
-0.000385286
0.000109349
0.000475456
-0.000403572
0.000109567
0.000582665
-0.00026219
0.000210512
0.00012833
-0.000315239
-0.000190196
0.000158477
-0.00032466
-5.69753e-05
0.000190686
-0.000332351
-0.000179601
0.000224882
-0.00031759
-2.71294e-05
0.00028183
-0.000339704
-2.90581e-05
0.000339445
-0.000312068
3.9228e-05
0.000430291
-0.000316873
6.57045e-05
0.000502702
-0.000318483
7.5608e-05
0.000582958
-0.00022228
0.00018146
0.000105083
-0.000231438
-0.000185405
0.00014047
-0.00025117
-0.000143679
0.000132753
-0.000250467
-0.000106261
0.000187282
-0.000244931
-3.60806e-05
0.000243981
-0.000254842
-1.5832e-05
0.000283709
-0.000269486
3.04632e-05
0.000346599
-0.000256205
4.34475e-05
0.000415803
-0.000259542
4.88855e-05
0.000483276
-0.000233026
4.90521e-05
0.000548544
-0.000202537
7.32904e-05
6.48781e-05
-0.000144276
-9.37474e-05
7.87182e-05
-0.000179083
-2.98705e-05
0.000134176
-0.000162363
-9.30366e-05
0.000214673
-0.000179702
-4.24867e-05
0.000243107
-0.000205749
-7.28459e-05
0.000254925
-0.000200747
-1.97919e-05
0.000303588
-0.000190122
1.52045e-05
0.000358212
-0.000189427
2.26387e-05
0.000407573
-0.000187989
2.08167e-05
0.000454526
-0.00017643
2.17976e-05
0.000508236
-0.000118299
-1.81712e-06
4.14184e-05
-9.12633e-05
-0.000107159
6.42249e-05
-0.000136514
-0.000103951
8.2016e-05
-0.000106769
0.000250007
0.00012138
-0.000141272
-5.28176e-05
0.000167527
-0.00015901
-6.19701e-05
0.00019536
-0.000150624
-5.41377e-05
0.000236214
-0.000142498
-2.35198e-05
0.000276332
-0.000131238
1.07201e-06
0.000319136
-0.000129134
2.32473e-05
0.000362257
-0.000131217
3.02936e-05
0.000406415
-0.000118375
2.52446e-05
0.000445904
-5.24963e-05
5.70221e-05
3.57267e-05
-3.83337e-05
7.37396e-05
3.32404e-05
-6.20722e-05
-1.86785e-05
6.22299e-05
-6.27687e-05
9.19458e-05
0.000125633
-8.6995e-05
3.39723e-05
0.000149544
-0.000106116
-0.000140184
0.000161426
-9.3562e-05
-3.93772e-05
0.000176623
-9.81536e-05
-1.6388e-05
0.000202841
-9.80098e-05
1.30533e-05
0.000233969
-8.90557e-05
4.10362e-05
0.000268391
-8.6168e-05
5.43859e-05
0.000302883
-8.14717e-05
5.43295e-05
0.000336021
-7.8158e-05
4.25634e-05
0.00036823
-1.88575e-05
-0.000222522
1.91253e-05
3.05663e-06
-0.000418372
5.56991e-05
-2.12529e-05
0.000243295
3.9208e-05
1.43696e-05
0.000483681
6.74066e-05
-4.24545e-05
0.000117622
8.63353e-05
-6.71146e-05
-0.000188619