/*--------------------------------*- C++ -*----------------------------------*\
  =========                 |
  \\      /  F ield         | OpenFOAM: The Open Source CFD Toolbox
   \\    /   O peration     | Website:  https://openfoam.org
    \\  /    A nd           | Version:  7
     \\/     M anipulation  |
\*---------------------------------------------------------------------------*/
FoamFile
{
    version     2.0;
    format      ascii;
    class       volVectorField;
    location    "0.5";
    object      U;
}
// * * * * * * * * * * * * * * * * * * * * * * * * * * * * * * * * * * * * * //

dimensions      [0 1 -1 0 0 0 0];

internalField   nonuniform List<vector> 
18750
(
(3.17204 -0.544714 -0.149098)
(3.43407 -0.292099 0.0570014)
(2.8469 -0.54486 -0.0886848)
(3.65694 -0.37643 -0.639859)
(3.38437 0.183739 -1.97089)
(2.63581 -0.259915 -0.216205)
(3.8086 0.162983 -1.7017)
(2.51987 -0.558831 -0.0679349)
(3.32987 -0.365366 -0.630674)
(3.36443 -0.257117 -1.84834)
(3.3527 -0.234428 -0.881904)
(2.87874 0.432441 -1.43737)
(2.21713 2.23088 -0.711667)
(1.87641 -0.258501 -0.308373)
(3.25698 0.225561 -1.50525)
(2.28407 -0.0650378 -2.01531)
(2.21867 -0.584691 -0.0629624)
(2.96066 -0.370452 -0.586093)
(2.95388 -0.246218 -1.76727)
(1.53667 -0.145413 -1.22823)
(3.29672 0.0874889 -0.83332)
(2.86318 -0.017223 -0.846322)
(3.73196 -0.524528 -0.735122)
(2.32867 0.475215 -1.06223)
(2.35357 1.922 -0.777168)
(1.60214 -0.153388 1.155)
(1.2445 -0.2921 -0.293536)
(2.49623 0.215219 -1.30777)
(2.14804 -0.0293898 -1.74862)
(0.686225 -0.0524629 -0.334371)
(1.96374 -0.618084 -0.060379)
(2.58049 -0.401375 -0.56371)
(2.53682 -0.257704 -1.63432)
(1.44899 -0.140919 -1.22136)
(1.1393 -0.0361325 -1.00206)
(3.18061 0.169894 -0.67227)
(2.80678 0.279755 -0.768685)
(2.14671 -0.793467 -0.655911)
(2.34032 0.0527012 -0.961225)
(3.29088 -0.178422 -0.871217)
(-0.153206 -0.0314428 -0.334992)
(1.85171 0.48916 -0.935297)
(2.49895 2.31599 -0.915484)
(0.953903 0.00915873 0.639384)
(1.03381 0.239955 0.171541)
(0.78374 -0.332742 -0.242138)
(1.6909 0.143201 -1.11841)
(1.79555 -0.00172828 -1.57712)
(0.688056 -0.0719901 -0.260767)
(1.09168 -0.111346 -0.962704)
(1.76361 -0.663935 -0.057631)
(2.22564 -0.450152 -0.534044)
(2.16979 -0.301387 -1.44318)
(1.36665 -0.143824 -1.17199)
(1.10998 -0.0456673 -0.930318)
(0.615508 -0.078726 -0.512967)
(2.87729 0.0920278 -0.866756)
(2.75243 0.370576 -0.556508)
(1.46527 -0.208529 -0.52841)
(2.37859 0.430452 -0.580809)
(1.65019 -0.691212 -0.609115)
(-0.288871 -0.0717893 0.512016)
(1.86711 0.212317 -0.860118)
(2.90136 0.0224017 -0.958993)
(-0.84463 0.0216718 -0.341257)
(1.05636 -0.0714017 -0.157414)
(1.41203 0.503419 -0.844828)
(2.46564 1.57694 -0.976849)
(0.392398 0.119119 0.469639)
(0.883242 0.255497 -0.0562293)
(0.976325 0.0764002 -0.801538)
(0.488457 -0.358208 -0.183004)
(1.03253 -0.0224397 -0.952172)
(1.39855 0.0220593 -1.41868)
(0.666409 -0.0812416 -0.232573)
(1.00606 -0.111801 -0.853375)
(0.392752 -0.0835495 -0.197249)
(1.60129 -0.6434 -0.0551364)
(1.91979 -0.508808 -0.497249)
(1.86321 -0.355156 -1.23682)
(1.2829 -0.152985 -1.10626)
(1.05521 -0.0602713 -0.846802)
(0.584302 -0.0918075 -0.482007)
(0.249218 -0.028536 0.0862593)
(2.83881 0.373205 -0.647021)
(2.39287 0.447995 -0.795521)
(1.06796 0.0538449 -0.257767)
(2.34165 0.527645 -0.429422)
(1.02273 0.0157744 -0.428047)
(-0.500766 -0.105963 -0.0763365)
(1.79599 0.398019 -0.455322)
(1.23107 -0.621828 -0.471559)
(-0.207866 -0.19242 0.121787)
(0.782842 0.165124 0.0351667)
(1.45336 0.288863 -0.736862)
(2.34517 0.0124682 -0.925206)
(-1.04433 -0.0651567 -0.213257)
(1.04297 0.0185585 -0.059905)
(0.464918 -0.100061 -0.319871)
(1.00493 0.436154 -0.752023)
(2.11945 1.4245 -0.990255)
(0.071495 0.232756 0.543361)
(0.756919 0.303508 -0.268724)
(0.835503 0.110762 -0.748745)
(-0.198587 -0.0753685 0.33429)
(0.30364 -0.376971 -0.129879)
(0.559893 -0.140073 -0.712659)
(1.07271 -0.0456416 -1.21318)
(0.577208 -0.108629 -0.3072)
(0.902244 -0.111834 -0.742282)
(0.414855 -0.0843 -0.199117)
(0.107194 -0.0323702 0.143852)
(1.54542 -0.66034 -0.0589159)
(1.6782 -0.564834 -0.45351)
(1.62326 -0.411482 -1.04129)
(1.19467 -0.167921 -1.03428)
(0.98706 -0.0792237 -0.747507)
(0.559095 -0.105983 -0.447141)
(0.266565 -0.0303877 0.0927668)
(0.389861 -0.0300583 -0.0635342)
(2.82576 0.258821 -0.527669)
(2.49337 0.380949 -0.335927)
(0.54718 0.120448 0.0921226)
(2.13259 0.526298 -0.562176)
(0.23344 0.0131412 0.0398425)
(-0.222247 -0.252968 -0.0500955)
(1.77831 0.471019 -0.419412)
(0.782846 0.117395 -0.0949546)
(-0.495481 -0.271996 -0.0498825)
(0.517062 0.0729959 0.315919)
(1.31742 0.370419 -0.409495)
(0.812213 -0.427692 -0.177815)
(-0.0576512 -0.29992 -0.0401673)
(0.640894 0.194183 0.110166)
(0.449902 -0.0802464 0.304815)
(1.06601 0.390926 -0.580794)
(1.70137 0.146144 -0.77417)
(-0.874375 -0.14349 -0.0854372)
(0.627604 -0.0558029 -0.0527486)
(0.283679 -0.111997 -0.0507479)
(-0.0529544 -0.227223 0.338186)
(0.634061 0.378323 -0.652548)
(1.54218 1.03745 -0.916631)
(-0.0712872 0.302832 0.62756)
(0.658975 0.378866 -0.361082)
(0.672678 0.12377 -0.638543)
(-0.167633 -0.13611 0.28927)
(-0.0352024 -0.0369741 0.298059)
(0.171192 -0.372089 -0.0965125)
(0.264524 -0.235365 -0.498233)
(0.688088 -0.0918807 -1.01686)
(0.498572 -0.13252 -0.315244)
(0.78883 -0.11676 -0.635496)
(0.420394 -0.0920078 -0.179486)
(0.0892405 -0.0372137 0.169656)
(0.227112 -0.0214768 0.222395)
(1.53551 -0.740228 -0.0521172)
(1.5176 -0.618529 -0.414015)
(1.44696 -0.460425 -0.876962)
(1.10869 -0.187462 -0.957959)
(0.915583 -0.101642 -0.643423)
(0.54039 -0.120214 -0.411886)
(0.271776 -0.0318437 0.110821)
(0.369547 -0.030506 -0.0401461)
(0.268249 -0.025971 0.298171)
(2.47265 0.141933 -0.803655)
(2.16093 0.315582 -0.707824)
(0.415876 -0.0400228 0.422787)
(2.06079 0.427132 -0.418402)
(0.193785 0.0101719 0.256955)
(-0.106172 -0.28288 -0.0584005)
(1.74621 0.535632 -0.440113)
(0.0332281 0.000953751 0.255506)
(-0.295719 -0.297309 -0.0250203)
(0.415409 -0.103144 0.0420663)
(1.25551 0.396325 -0.403327)
(0.134539 0.0845198 0.182033)
(-0.40337 -0.267626 -0.0267268)
(0.301242 0.0107547 0.0811931)
(0.404621 -0.0123282 0.445557)
(0.931938 0.306857 -0.32716)
(0.343441 -0.342999 0.0401893)
(-0.00967272 -0.430772 -0.0791729)
(0.373614 0.229949 0.0336169)
(0.163103 -0.0912588 0.33534)
(-0.0298555 -0.223011 0.262842)
(0.686391 0.317185 -0.390988)
(1.05302 0.0909721 -0.512482)
(-0.477907 -0.153168 -0.0146333)
(0.403072 -0.0506989 0.036606)
(0.170058 -0.0957808 0.101928)
(-0.101912 -0.278726 0.319758)
(0.0209876 -0.070318 0.267712)
(0.331455 0.284528 -0.513959)
(0.924749 0.605674 -0.731416)
(-0.055481 0.346271 0.695014)
(0.562498 0.411434 -0.34749)
(0.486866 0.102479 -0.475408)
(-0.121913 -0.157108 0.278504)
(-0.101929 -0.0370656 0.32207)
(0.00383974 -0.0532716 0.447985)
(0.0686132 -0.429477 -0.0738476)
(0.0669937 -0.28876 -0.335278)
(0.377712 -0.164875 -0.798215)
(0.41284 -0.183208 -0.305457)
(0.674948 -0.128732 -0.53443)
(0.391867 -0.101399 -0.193796)
(0.0768783 -0.0402552 0.190104)
(0.194894 -0.0173011 0.24763)
(0.156585 -0.0277833 0.463193)
(1.34208 -0.693076 -0.0348397)
(1.39414 -0.631394 -0.385309)
(1.33258 -0.496893 -0.756134)
(1.03034 -0.210335 -0.881731)
(0.847154 -0.126549 -0.544237)
(0.526135 -0.133252 -0.379791)
(0.266714 -0.0348421 0.136017)
(0.347063 -0.0320128 0.00165528)
(0.251198 -0.0310866 0.317097)
(0.218123 -0.0183934 0.429663)
(2.42603 -0.0184823 -0.360892)
(1.9806 0.23337 -0.665554)
(0.124071 -0.51928 0.414382)
(1.80845 0.419755 -0.576327)
(0.156027 -0.24422 0.601806)
(0.108326 -0.450287 -0.068979)
(1.62402 0.460749 -0.45134)
(0.0502694 -0.0316194 0.316741)
(-0.291562 -0.273771 -0.0766605)
(0.232534 -0.136782 0.080786)
(1.20794 0.424716 -0.413858)
(-0.0264542 0.00119376 0.287957)
(-0.276043 -0.304107 0.0269559)
(0.0766859 -0.0860979 0.0603207)
(0.323989 0.061615 0.347155)
(0.88014 0.347614 -0.329666)
(-0.134884 -0.00935198 0.24117)
(-0.383767 -0.228471 0.0527872)
(-0.0547386 0.034593 0.0393083)
(-0.0551072 -0.0265661 0.36541)
(0.0323006 0.00139478 0.397776)
(0.573535 0.202594 -0.184577)
(0.0857931 -0.28849 0.157659)
(-0.102715 -0.416874 0.0185707)
(0.0128715 0.173237 -0.124421)
(-0.161694 -0.0725253 0.39258)
(-0.207905 -0.214178 0.33103)
(-0.0455755 -0.0402377 0.283083)
(0.406307 0.288533 -0.179053)
(0.482975 0.0308174 -0.203062)
(-0.146355 -0.114226 0.00918717)
(0.199987 -0.0494859 0.0956032)
(0.0191956 -0.0761606 0.288346)
(-0.148951 -0.279194 0.376914)
(-0.118437 -0.098547 0.312316)
(0.0128992 -0.0439975 0.452844)
(0.0996092 0.219464 -0.347862)
(0.404738 0.269493 -0.441728)
(-0.0536759 0.296228 0.630413)
(0.422745 0.490106 -0.0833642)
(0.340174 0.0851305 -0.313808)
(-0.0984361 -0.19221 0.265999)
(-0.137765 -0.0536525 0.310353)
(-0.0671676 -0.055878 0.485795)
(-0.00540643 -0.0534432 0.602011)
(-0.00344221 -0.468155 -0.0584182)
(-0.047818 -0.305709 -0.239612)
(0.144933 -0.235571 -0.587647)
(0.32996 -0.199906 -0.301053)
(0.56953 -0.140699 -0.43952)
(0.35391 -0.113926 -0.18642)
(0.0692072 -0.0435187 0.207533)
(0.158521 -0.0136626 0.281641)
(0.125511 -0.0296247 0.483186)
(0.107921 -0.0236813 0.617167)
(1.36143 -0.702453 -0.0269628)
(1.40777 -0.614371 -0.409366)
(1.26629 -0.509698 -0.682754)
(0.962361 -0.232484 -0.810945)
(0.786533 -0.151847 -0.458401)
(0.513962 -0.145511 -0.352766)
(0.255852 -0.0397467 0.165667)
(0.324755 -0.0358745 0.0518574)
(0.238718 -0.0361639 0.335306)
(0.201735 -0.0211402 0.443114)
(0.170607 -0.0154051 0.598493)
(2.45596 -0.0308926 -0.248511)
(1.95404 -0.0151746 -0.183683)
(0.428571 -0.514851 0.157138)
(1.77008 0.374352 -0.310325)
(0.0563426 -0.574596 0.311036)
(0.390948 -0.162818 -0.264669)
(1.46697 0.466249 -0.447373)
(0.0969607 -0.299849 0.445145)
(-0.220971 -0.386411 -0.201635)
(0.281387 -0.116437 0.0370409)
(1.15762 0.442644 -0.432501)
(0.037994 -0.124631 0.356723)
(-0.332161 -0.289715 -0.128994)
(-0.0436455 -0.145072 0.153052)
(0.19269 0.0959497 0.209077)
(0.789418 0.355134 -0.428946)
(-0.0407119 -0.128553 0.251192)
(-0.278047 -0.274855 0.0264923)
(-0.177756 -0.113508 0.183024)
(-0.144362 0.00347696 0.221021)
(0.022815 0.118964 0.385584)
(0.518396 0.216014 -0.284815)
(-0.201849 -0.0612605 0.219272)
(-0.407744 -0.20029 0.0668282)
(-0.254609 -0.00387065 0.159734)
(-0.384266 -0.0805741 0.280154)
(-0.214376 -0.0307041 0.387742)
(-0.100762 0.0242426 0.406847)
(0.253941 0.0645174 -0.0402858)
(-0.0810022 -0.26997 0.16333)
(-0.119113 -0.356421 0.0827544)
(-0.169133 0.134303 -0.144616)
(-0.301889 -0.0980803 0.415418)
(-0.36131 -0.240832 0.383316)
(-0.1918 -0.0662252 0.36482)
(-0.136704 0.00576973 0.476566)
(0.180295 0.179207 0.0096357)
(0.194913 0.00154626 0.0400948)
(-0.00752619 -0.0948085 0.0310942)
(0.123059 -0.019156 0.165365)
(-0.0372153 -0.0712615 0.33166)
(-0.179257 -0.256111 0.417108)
(-0.174644 -0.11362 0.376465)
(-0.131739 -0.0675571 0.47911)
(-0.0377351 -0.000801704 0.601216)
(-0.053747 0.0834127 -0.163349)
(0.116544 -0.0152066 -0.114083)
(-0.0814421 0.252316 0.492247)
(0.320499 0.501033 0.145579)
(0.193863 0.0469251 -0.115762)
(-0.0867741 -0.19479 0.272868)
(-0.142586 -0.0548635 0.324395)
(-0.0876616 -0.0590046 0.518419)
(-0.0803914 -0.0601471 0.632871)
(0.00809712 -0.0347352 0.73614)
(-0.148239 -0.453856 -0.0360066)
(-0.132961 -0.334529 -0.17188)
(-0.0230434 -0.28896 -0.412485)
(0.218162 -0.267475 -0.288434)
(0.476766 -0.157099 -0.34874)
(0.316305 -0.128361 -0.15764)
(0.0588061 -0.0504413 0.222963)
(0.130249 -0.0123664 0.310731)
(0.0973349 -0.0321105 0.504063)
(0.0803239 -0.0270355 0.636697)
(0.0653096 -0.0192569 0.769971)
(1.3448 -0.728287 -0.0248258)
(1.41398 -0.631278 -0.413147)
(1.223 -0.503573 -0.640286)
(0.903625 -0.254942 -0.750333)
(0.736457 -0.175735 -0.39131)
(0.502889 -0.156366 -0.330352)
(0.243242 -0.0468061 0.194961)
(0.302311 -0.0398095 0.106913)
(0.227116 -0.0413346 0.360108)
(0.188944 -0.0239968 0.461198)
(0.157193 -0.0183756 0.609187)
(0.132803 -0.0116468 0.758807)
(2.4401 -0.114664 -0.113997)
(2.0112 0.00650758 0.0266226)
(0.846281 -0.507558 0.0232963)
(2.84308 -0.0736594 -0.413815)
(1.49037 0.0450106 0.0508275)
(0.24266 -0.573898 0.0631605)
(0.567424 0.0741539 -0.421926)
(1.25126 0.326509 0.0966153)
(-0.04166 -0.672684 0.333579)
(0.050346 -0.246134 -0.407971)
(0.362985 0.139686 -0.0444548)
(1.00486 0.415597 -0.0930711)
(0.0549746 -0.367215 0.461272)
(-0.291005 -0.399999 -0.153347)
(-0.0768636 -0.16571 0.0871525)
(0.0536353 0.138877 0.107809)
(0.771771 0.355867 -0.235432)
(0.0210247 -0.263585 0.321695)
(-0.348644 -0.248901 -0.0333354)
(-0.328014 -0.208257 0.21404)
(-0.174887 0.0160801 0.156677)
(-0.0486655 0.109428 0.38817)
(0.537108 0.312592 -0.260432)
(-0.0757938 -0.267041 0.24304)
(-0.286549 -0.27315 0.0502947)
(-0.222337 -0.0966254 0.19513)
(-0.391798 -0.0582998 0.20319)
(-0.223722 0.0670412 0.374717)
(-0.145087 0.0533565 0.498437)
(0.288736 0.180382 -0.16626)
(-0.155977 -0.131216 0.161825)
(-0.349815 -0.200989 0.0856186)
(-0.325306 -0.0404528 0.258905)
(-0.420808 -0.127613 0.314925)
(-0.325137 -0.0427718 0.479048)
(-0.245736 -0.0137425 0.471122)
(-0.191586 0.0194086 0.5795)
(0.028787 -0.0576601 0.0430963)
(-0.098278 -0.266576 0.128683)
(-0.12916 -0.291463 0.079648)
(-0.313431 0.080588 -0.0777777)
(-0.297153 -0.102114 0.467856)
(-0.385058 -0.228559 0.422711)
(-0.286926 -0.0966496 0.449835)
(-0.236134 -0.0202081 0.534748)
(-0.21109 0.0158458 0.657562)
(-0.000717986 0.0676036 0.103527)
(0.144867 0.016155 0.168837)
(-0.0117852 -0.0812917 0.0627771)
(0.0137574 -0.00482824 0.224974)
(-0.086793 -0.0582873 0.357728)
(-0.147691 -0.262153 0.455026)
(-0.206363 -0.12912 0.427914)
(-0.209326 -0.0813069 0.515023)
(-0.153888 -0.0181515 0.619191)
(-0.0986366 0.0224465 0.73846)
(-0.153728 -0.00190467 -0.0431835)
(0.0673298 -0.111643 0.0834755)
(-0.101881 0.194352 0.351932)
(0.206898 0.513208 0.145686)
(0.0615513 0.0370537 0.0572931)
(-0.0679427 -0.208778 0.273293)
(-0.14691 -0.0626046 0.356245)
(-0.105245 -0.057368 0.537464)
(-0.101493 -0.0644367 0.669697)
(-0.0722047 -0.0412722 0.759607)
(-2.55635e-05 -0.0155942 0.872035)
(-0.27138 -0.505242 -0.00763319)
(-0.223396 -0.367884 -0.0940445)
(-0.139784 -0.318515 -0.286944)
(0.154846 -0.285192 -0.262373)
(0.395135 -0.175439 -0.265679)
(0.273303 -0.143118 -0.118171)
(0.046339 -0.0601451 0.235675)
(0.102452 -0.0133072 0.340367)
(0.0741669 -0.0351575 0.524519)
(0.054737 -0.0295264 0.655727)
(0.0411835 -0.0237076 0.785534)
(0.0294566 -0.0141021 0.915989)
(1.25451 -0.708678 -0.0139189)
(1.3067 -0.606078 -0.381047)
(1.21537 -0.507296 -0.632122)
(0.853888 -0.277969 -0.699675)
(0.697689 -0.197418 -0.343087)
(0.493556 -0.168073 -0.313377)
(0.23099 -0.0554369 0.222541)
(0.273743 -0.047159 0.183798)
(0.215972 -0.0467975 0.388864)
(0.177746 -0.0271033 0.484463)
(0.14575 -0.0214714 0.623704)
(0.122734 -0.0142166 0.766248)
(0.0986823 -0.00836413 0.906576)
(2.5583 -0.164822 -0.0828555)
(2.09287 -0.119651 0.17076)
(1.21353 -0.516759 -0.194347)
(2.85368 -0.0938551 -0.400142)
(1.33285 -0.225742 0.251476)
(0.569687 -0.527716 -0.0642897)
(0.682095 0.0743555 -0.590968)
(1.06628 -0.145366 0.0263264)
(0.721969 -0.0663458 0.358938)
(0.114711 -0.666404 0.170127)
(0.171954 -0.0365836 -0.435483)
(0.145572 0.0977036 0.0628615)
(0.534686 0.230497 0.382669)
(-0.0605354 -0.476485 0.405937)
(-0.291551 -0.332549 -0.271075)
(-0.131285 -0.0547957 0.0275505)
(-0.166762 0.131564 0.101881)
(0.468867 0.391319 0.312424)
(-0.00600991 -0.371633 0.368142)
(-0.415115 -0.320227 -0.00541138)
(-0.392 -0.252629 0.14357)
(-0.190093 0.0948407 0.0839509)
(-0.210745 0.132985 0.358488)
(0.101513 0.229121 0.15173)
(-0.209045 -0.372648 0.263507)
(-0.381346 -0.206435 0.030715)
(-0.35537 -0.236376 0.244544)
(-0.447342 -0.0589501 0.151182)
(-0.252019 0.061981 0.398932)
(-0.247908 0.0634692 0.523849)
(-0.0387968 0.148157 0.0723155)
(-0.14453 -0.336566 0.229267)
(-0.299301 -0.275288 0.0895815)
(-0.258314 -0.153835 0.225335)
(-0.389061 -0.0769843 0.276507)
(-0.414563 -0.0272273 0.400557)
(-0.321445 0.0126832 0.512447)
(-0.254911 0.0294249 0.633141)
(-0.017969 0.0618382 0.0160402)
(-0.13253 -0.161242 0.1312)
(-0.322996 -0.15893 0.0708075)
(-0.278968 -0.0959407 0.314664)
(-0.392631 -0.133984 0.365054)
(-0.40857 -0.120796 0.423983)
(-0.28982 -0.033255 0.545571)
(-0.273947 -0.0173346 0.626689)
(-0.243777 0.00374437 0.740955)
(-0.202581 -0.198628 0.0757902)
(-0.0707335 -0.202279 0.139353)
(-0.136362 -0.252025 0.110397)
(-0.32455 0.092808 -0.0530577)
(-0.34799 -0.150236 0.390877)
(-0.375261 -0.211799 0.445208)
(-0.321743 -0.126062 0.48938)
(-0.274153 -0.049934 0.590024)
(-0.267225 -0.00770278 0.697359)
(-0.238641 0.0157832 0.812587)
(-0.0622183 0.0368328 0.166723)
(0.0828718 0.0137684 0.167776)
(-0.0260647 -0.0836005 0.0690015)
(-0.0754048 -0.0242938 0.227386)
(-0.125226 -0.0554778 0.406874)
(-0.135567 -0.203887 0.494892)
(-0.209354 -0.110866 0.500092)
(-0.233948 -0.0955336 0.542975)
(-0.226986 -0.0353611 0.648148)
(-0.187492 0.0121231 0.754853)
(-0.158568 0.0274637 0.878818)
(-0.162645 -0.118085 0.0776957)
(0.101928 -0.128668 0.295125)
(-0.0936441 0.191193 0.245378)
(0.102974 0.503368 0.142527)
(-0.02337 0.0255053 0.160236)
(-0.0999524 -0.222098 0.27258)
(-0.155742 -0.0678192 0.400484)
(-0.121009 -0.0594911 0.557609)
(-0.115862 -0.0612704 0.689352)
(-0.11613 -0.0441586 0.782966)
(-0.0800228 -0.0195887 0.882718)
(-0.0293867 -0.0003225 1.00439)
(-0.321703 -0.558539 0.00884623)
(-0.366312 -0.390321 0.00170601)
(-0.216401 -0.35013 -0.189434)
(0.103404 -0.327976 -0.232242)
(0.321768 -0.189588 -0.192367)
(0.234196 -0.156727 -0.076821)
(0.0353278 -0.0709672 0.245111)
(0.0749589 -0.0169528 0.370523)
(0.0531133 -0.038612 0.543845)
(0.0351336 -0.0316088 0.673027)
(0.0191542 -0.0262746 0.799994)
(0.00992722 -0.0182076 0.926174)
(-0.00118884 -0.00777168 1.04873)
(1.32573 -0.784634 -0.0226989)
(1.27854 -0.667887 -0.329488)
(1.19886 -0.508509 -0.611407)
(0.812119 -0.302695 -0.65337)
(0.669711 -0.214654 -0.308957)
(0.485675 -0.177374 -0.301625)
(0.219999 -0.0649874 0.247321)
(0.253896 -0.0544845 0.237953)
(0.205025 -0.0521251 0.419688)
(0.167914 -0.0303884 0.510438)
(0.135778 -0.0248049 0.641862)
(0.113453 -0.0168978 0.776552)
(0.0918415 -0.010492 0.911563)
(0.0696737 -0.00548085 1.04376)
(2.87161 0.216448 0.0957278)
(2.27367 -0.279817 0.0691776)
(1.55923 -0.178715 -0.482986)
(2.92878 -0.242194 -0.295493)
(1.37002 -0.382943 0.245006)
(0.918199 -0.568813 -0.233832)
(0.817328 0.00914305 -0.57014)
(1.56991 -0.331242 0.208129)
(0.500454 -0.3665 0.0902717)
(0.210739 -0.628694 0.0356615)
(0.279536 -0.1661 -0.36022)
(0.0698363 -0.0514923 -0.00462947)
(0.72897 0.111131 -0.608662)
(0.0482688 -0.108789 0.201996)
(-0.308599 -0.507404 0.189475)
(-0.0966593 -0.202469 -0.252595)
(-0.143478 -0.0481028 0.109794)
(-0.266742 0.124695 0.0921134)
(-0.154464 0.0995805 0.292379)
(-0.35561 -0.441801 0.302118)
(-0.449414 -0.322535 0.051398)
(-0.394454 -0.187206 0.140426)
(-0.334697 0.0622796 0.0994581)
(-0.379015 0.13443 0.388522)
(-0.268257 0.119113 0.25622)
(-0.328069 -0.302448 0.339205)
(-0.413142 -0.265294 0.106857)
(-0.419522 -0.299921 0.203138)
(-0.442791 0.002877 0.114492)
(-0.35693 0.0885895 0.378804)
(-0.384625 0.0824777 0.5334)
(-0.243553 0.110919 0.226809)
(-0.318812 -0.356592 0.256948)
(-0.402862 -0.206129 0.114032)
(-0.354236 -0.250437 0.274253)
(-0.430226 -0.114898 0.281581)
(-0.393828 -0.0404416 0.436563)
(-0.345848 0.0277963 0.550455)
(-0.352331 0.0445008 0.662954)
(-0.264722 0.0446007 0.148993)
(-0.204004 -0.330325 0.218649)
(-0.29977 -0.270543 0.144145)
(-0.272528 -0.20165 0.25287)
(-0.32858 -0.109518 0.330215)
(-0.404943 -0.0834418 0.41701)
(-0.399478 -0.0362769 0.536025)
(-0.371852 -0.00442317 0.640684)
(-0.320603 0.0246673 0.768115)
(-0.201672 -0.0473269 0.0581199)
(-0.111482 -0.180386 0.152794)
(-0.251604 -0.167051 0.153984)
(-0.11112 -0.0684745 0.430231)
(-0.341195 -0.159397 0.391748)
(-0.374655 -0.133104 0.443192)
(-0.321381 -0.0681837 0.545331)
(-0.283609 -0.0310735 0.660733)
(-0.297905 -0.0200592 0.761115)
(-0.264357 0.000559712 0.867031)
(-0.23336 -0.233261 0.0550304)
(-0.110717 -0.187331 0.135402)
(-0.149332 -0.220948 0.144705)
(-0.305143 0.0466887 0.102962)
(-0.289085 -0.146299 0.391834)
(-0.362762 -0.198882 0.415407)
(-0.304282 -0.122188 0.530136)
(-0.285117 -0.076698 0.613402)
(-0.274963 -0.0311513 0.725692)
(-0.265512 -0.00410343 0.834367)
(-0.248488 0.0132594 0.946758)
(-0.00303427 0.073591 0.112402)
(-0.0151263 -0.0283279 0.108211)
(-0.05537 -0.0740319 0.073021)
(-0.1135 -0.014835 0.261254)
(-0.156801 -0.0719052 0.434029)
(-0.137788 -0.197044 0.50226)
(-0.199802 -0.116391 0.502868)
(-0.239838 -0.095724 0.573426)
(-0.245995 -0.0524939 0.670611)
(-0.225977 -0.00549588 0.776121)
(-0.20713 0.0179842 0.891987)
(-0.186283 0.0252991 1.01343)
(-0.113292 -0.1778 0.114819)
(0.190692 -0.185538 0.297457)
(-0.122858 0.123682 0.185631)
(0.00658593 0.457855 0.134853)
(-0.0839316 0.0267835 0.26531)
(-0.120547 -0.231637 0.31456)
(-0.161192 -0.0832022 0.428559)
(-0.129762 -0.0596747 0.577846)
(-0.130825 -0.0610709 0.701006)
(-0.13708 -0.0448863 0.798398)
(-0.126466 -0.0246495 0.895324)
(-0.0906694 -0.0041593 1.0059)
(-0.0636237 0.00783987 1.12294)
(-0.372381 -0.561952 0.0232368)
(-0.341441 -0.447535 -0.0439461)
(-0.258361 -0.363092 -0.119155)
(0.0613942 -0.351047 -0.209081)
(0.244369 -0.220058 -0.147496)
(0.193731 -0.169551 -0.0329524)
(0.0268206 -0.0816615 0.250175)
(0.0510433 -0.0228348 0.395817)
(0.0341117 -0.0424649 0.561387)
(0.0194752 -0.033621 0.687963)
(0.00317414 -0.0280438 0.812638)
(-0.00745417 -0.0208076 0.935823)
(-0.0155036 -0.0111734 1.05407)
(-0.0251598 -0.00201775 1.17074)
(1.22725 -0.68624 -0.0188612)
(1.24359 -0.620067 -0.310967)
(1.15116 -0.511132 -0.565186)
(0.781044 -0.32243 -0.610512)
(0.649186 -0.225307 -0.27912)
(0.474691 -0.185245 -0.284848)
(0.211057 -0.0751634 0.267755)
(0.236015 -0.0617058 0.287334)
(0.194732 -0.0572819 0.450226)
(0.159163 -0.033795 0.537558)
(0.127306 -0.028212 0.661922)
(0.105055 -0.0198472 0.78958)
(0.0850912 -0.0127098 0.91847)
(0.0654261 -0.00727755 1.04695)
(0.0461762 -0.00317606 1.16917)
(2.71009 0.454424 0.289201)
(2.48911 0.292084 0.328908)
(1.97218 -0.00904577 -0.525601)
(3.05594 0.0270893 -0.0525987)
(1.41283 -0.472521 -0.0339584)
(1.16236 -0.533659 -0.354233)
(0.771158 -0.0143281 -0.457053)
(2.05512 -0.145853 4.83519e-05)
(0.312688 -0.551055 -0.0405563)
(0.452935 -0.603653 -0.165845)
(0.409296 -0.201547 -0.332502)
(-0.0660978 -0.020167 -0.106833)
(0.803347 0.0397389 -0.713326)
(-0.12232 -0.296961 0.0135842)
(-0.435766 -0.559829 0.02922)
(-0.0668014 -0.28519 -0.210522)
(-0.239162 -0.161571 0.0135203)
(-0.381943 0.0764115 0.0504742)
(0.155892 0.135279 0.0200974)
(-0.245758 -0.172576 0.102042)
(-0.357054 -0.370685 0.179239)
(-0.476539 -0.257017 -0.00276302)
(-0.444804 -0.21705 0.137652)
(-0.370197 0.0472004 0.113036)
(-0.51495 0.0744137 0.383958)
(-0.311624 0.0186945 0.146995)
(-0.395425 -0.223117 0.321221)
(-0.472492 -0.264603 0.149054)
(-0.4647 -0.265092 0.210557)
(-0.498189 -0.0362788 0.137329)
(-0.43798 0.0686573 0.417615)
(-0.481026 0.0690276 0.574572)
(-0.384358 0.000564296 0.152432)
(-0.383625 -0.301943 0.261972)
(-0.408732 -0.257536 0.188177)
(-0.428731 -0.280142 0.266352)
(-0.46774 -0.0636592 0.232776)
(-0.463865 0.00203639 0.400446)
(-0.449525 0.0420129 0.53923)
(-0.459408 0.0578402 0.684147)
(-0.381368 -0.0415656 0.136412)
(-0.318992 -0.324292 0.241324)
(-0.383441 -0.211115 0.209883)
(-0.339898 -0.264139 0.301714)
(-0.392665 -0.123638 0.342832)
(-0.43593 -0.120364 0.435015)
(-0.389219 -0.0235299 0.573146)
(-0.397741 0.0105741 0.675689)
(-0.395254 0.0398837 0.799077)
(-0.384543 -0.0806177 0.0827698)
(-0.194735 -0.284569 0.259945)
(-0.290427 -0.272477 0.1753)
(-0.325782 -0.230435 0.239243)
(-0.32206 -0.134942 0.361829)
(-0.361264 -0.106718 0.435585)
(-0.409102 -0.0663879 0.526462)
(-0.395094 -0.0352869 0.646859)
(-0.393862 -0.00447466 0.763967)
(-0.339363 0.0224403 0.887671)
(-0.283053 -0.170323 0.0586085)
(-0.127491 -0.181155 0.188739)
(-0.248776 -0.160962 0.168445)
(-0.148229 -0.142455 0.372206)
(-0.271229 -0.147087 0.435824)
(-0.335701 -0.169295 0.465639)
(-0.31889 -0.0973034 0.546141)
(-0.291628 -0.051813 0.658862)
(-0.295055 -0.030928 0.772139)
(-0.304296 -0.0169921 0.86945)
(-0.285638 0.00426371 0.974801)
(-0.18247 -0.169449 0.042495)
(-0.111788 -0.189211 0.129607)
(-0.172219 -0.213909 0.165074)
(-0.306439 0.0231937 0.170076)
(-0.26353 -0.175041 0.39839)
(-0.33174 -0.185418 0.423336)
(-0.295407 -0.144054 0.517856)
(-0.288039 -0.0969402 0.619707)
(-0.271061 -0.0552114 0.734825)
(-0.263711 -0.0224562 0.842027)
(-0.261665 -0.00481542 0.952565)
(-0.239028 0.00916595 1.0643)
(-0.0136153 0.0348632 0.084844)
(-0.0348959 0.0319385 0.125873)
(-0.0821152 -0.0712072 0.0791011)
(-0.126009 -0.013829 0.295178)
(-0.169252 -0.0762692 0.45294)
(-0.15316 -0.196488 0.505002)
(-0.175157 -0.117201 0.503441)
(-0.230386 -0.0970079 0.585076)
(-0.248345 -0.06357 0.687512)
(-0.229863 -0.0212219 0.793494)
(-0.219158 0.00344638 0.905306)
(-0.205195 0.0169332 1.02234)
(-0.193643 0.0198769 1.13332)
(-0.0172796 -0.219226 0.136675)
(0.164866 -0.118838 0.311247)
(-0.149354 0.0946492 0.159412)
(-0.0304031 0.40791 0.101421)
(-0.134203 -0.0035415 0.385495)
(-0.140667 -0.233764 0.357235)
(-0.165444 -0.0986756 0.456621)
(-0.138317 -0.0621829 0.591446)
(-0.139492 -0.0599357 0.710319)
(-0.147535 -0.0460426 0.806458)
(-0.147415 -0.0287662 0.906165)
(-0.128742 -0.0104309 1.01178)
(-0.10434 0.00392307 1.12134)
(-0.0902763 0.00978566 1.23072)
(-0.392715 -0.582263 0.0322641)
(-0.44206 -0.464101 -0.00757702)
(-0.332366 -0.367711 -0.0109716)
(0.00406257 -0.372512 -0.162247)
(0.192423 -0.242278 -0.0976207)
(0.158998 -0.180959 0.0113032)
(0.0186312 -0.0878942 0.255099)
(0.0309585 -0.0300872 0.416209)
(0.0172882 -0.0467608 0.576812)
(0.00604701 -0.0359845 0.700932)
(-0.00843606 -0.0293848 0.823178)
(-0.0197355 -0.0226009 0.944241)
(-0.027936 -0.0136797 1.05961)
(-0.0345553 -0.00492186 1.17273)
(-0.0404869 0.00194798 1.28264)
(1.22957 -0.68426 -0.0149309)
(1.26079 -0.559965 -0.30831)
(1.12497 -0.509112 -0.57169)
(0.757049 -0.334313 -0.566663)
(0.63692 -0.242284 -0.254092)
(0.470218 -0.19623 -0.270969)
(0.204368 -0.0853991 0.283052)
(0.221583 -0.0690269 0.326893)
(0.18557 -0.0624362 0.478717)
(0.151385 -0.0372717 0.564354)
(0.120143 -0.0316351 0.682703)
(0.0977642 -0.0229179 0.804149)
(0.0787831 -0.0151855 0.927228)
(0.0609454 -0.00914402 1.0514)
(0.0437153 -0.00470784 1.17102)
(0.0265353 -0.00200623 1.28501)
(1.9877 0.703366 0.632272)
(2.38443 0.488311 0.589795)
(2.10058 0.214085 0.407931)
(2.85844 0.273725 0.240854)
(1.66858 -0.332349 0.00224648)
(1.71272 -0.21536 0.0133936)
(0.438641 0.062067 -0.0100987)
(2.10969 -0.0606145 -0.156293)
(3.22714 -0.217658 -0.150194)
(0.190526 -0.505737 -0.137429)
(0.343267 -0.533328 -0.290562)
(0.325489 -0.142788 -0.282323)
(-0.261828 0.0813237 -0.0171919)
(0.912057 0.109549 -0.58457)
(-0.302091 -0.464411 -0.0662473)
(-0.615492 -0.539088 -0.0530228)
(-0.16866 -0.278826 -0.198254)
(-0.357521 -0.120318 -0.0641667)
(-0.553232 0.178365 0.0800618)
(0.0280634 0.144632 0.00935113)
(-0.335525 -0.338821 0.0473225)
(-0.445067 -0.488623 0.0750887)
(-0.542106 -0.318758 -0.026111)
(-0.542756 -0.233499 0.100022)
(-0.506963 0.0315653 0.0658895)
(-0.693576 0.0787102 0.336588)
(-0.352091 0.133045 0.0596185)
(-0.343829 -0.188484 0.05482)
(-0.393776 -0.340599 0.168589)
(-0.510792 -0.273777 0.0789305)
(-0.540085 -0.237076 0.183082)
(-0.539826 -0.0124311 0.155679)
(-0.528673 0.0276654 0.403838)
(-0.580459 0.0550577 0.57034)
(-0.34309 -0.110394 0.091418)
(-0.359297 -0.308971 0.224757)
(-0.434821 -0.244503 0.197257)
(-0.478619 -0.264465 0.266716)
(-0.494578 -0.0902085 0.276729)
(-0.494389 -0.0400504 0.438191)
(-0.497727 0.0295083 0.571651)
(-0.530492 0.0523364 0.702196)
(-0.359967 -0.0883656 0.0878662)
(-0.341059 -0.275047 0.274804)
(-0.389852 -0.235391 0.230535)
(-0.417744 -0.30277 0.271585)
(-0.454198 -0.114107 0.309512)
(-0.483329 -0.0691789 0.415334)
(-0.480693 -0.00832206 0.543787)
(-0.485125 0.0270109 0.675383)
(-0.487969 0.0475416 0.812766)
(-0.348258 -0.0797823 0.114541)
(-0.297706 -0.292279 0.214666)
(-0.36046 -0.213025 0.23517)
(-0.339336 -0.242217 0.310568)
(-0.379284 -0.154119 0.368062)
(-0.408235 -0.127466 0.456424)
(-0.423569 -0.0733999 0.564859)
(-0.406263 -0.0205836 0.677472)
(-0.423256 0.00902628 0.794519)
(-0.393022 0.0313491 0.916038)
(-0.36837 -0.158275 0.0634444)
(-0.208722 -0.25967 0.250615)
(-0.260335 -0.234891 0.223477)
(-0.333264 -0.227956 0.250653)
(-0.326724 -0.163548 0.375685)
(-0.348084 -0.136749 0.451975)
(-0.390169 -0.0893799 0.528934)
(-0.398821 -0.0517362 0.640349)
(-0.394852 -0.0260849 0.76117)
(-0.382293 -0.00220467 0.879519)
(-0.361031 0.0202407 0.991368)
(-0.264096 -0.135641 0.0354606)
(-0.14343 -0.156106 0.196737)
(-0.285482 -0.207799 0.128564)
(-0.154197 -0.160263 0.364576)
(-0.237975 -0.148188 0.457935)
(-0.267351 -0.165672 0.524071)
(-0.296261 -0.123853 0.565549)
(-0.303187 -0.0734598 0.656822)
(-0.288999 -0.0457333 0.772975)
(-0.299105 -0.0282765 0.870721)
(-0.31381 -0.0119289 0.970583)
(-0.2787 0.00795271 1.08142)
(-0.221019 -0.199218 0.0394577)
(-0.109715 -0.178043 0.147817)
(-0.139677 -0.17897 0.190403)
(-0.295663 -0.00272251 0.235038)
(-0.264622 -0.184428 0.393104)
(-0.30862 -0.19389 0.441705)
(-0.27944 -0.153575 0.529675)
(-0.27358 -0.112125 0.629107)
(-0.275313 -0.0775971 0.735321)
(-0.258972 -0.0423026 0.841478)
(-0.258572 -0.0184637 0.950449)
(-0.246644 -0.00558879 1.06228)
(-0.237769 0.00648336 1.16386)
(-0.00789034 0.0507415 0.0801406)
(-0.0572234 0.0265465 0.126177)
(-0.0855649 -0.0906583 0.0902795)
(-0.155151 -0.0290649 0.314396)
(-0.161193 -0.0721497 0.465339)
(-0.16913 -0.187444 0.478187)
(-0.173863 -0.0976654 0.53491)
(-0.206569 -0.0942605 0.592819)
(-0.238034 -0.0709265 0.70032)
(-0.22914 -0.0364861 0.804846)
(-0.214661 -0.0101769 0.916359)
(-0.204065 0.00504851 1.03001)
(-0.19773 0.0122956 1.13825)
(-0.18788 0.0141954 1.24226)
(0.0574245 -0.220682 0.15305)
(0.151043 -0.309323 0.0299514)
(-0.155811 0.0765371 0.190755)
(-0.137726 0.308112 0.162654)
(-0.145352 0.000859246 0.47096)
(-0.159346 -0.24133 0.401478)
(-0.171958 -0.114029 0.477575)
(-0.146582 -0.0675358 0.602402)
(-0.146031 -0.0606219 0.716374)
(-0.152188 -0.0465586 0.81201)
(-0.15542 -0.0323687 0.912131)