/*--------------------------------*- C++ -*----------------------------------*\
  =========                 |
  \\      /  F ield         | OpenFOAM: The Open Source CFD Toolbox
   \\    /   O peration     | Website:  https://openfoam.org
    \\  /    A nd           | Version:  7
     \\/     M anipulation  |
\*---------------------------------------------------------------------------*/
FoamFile
{
    version     2.0;
    format      ascii;
    class       volVectorField;
    location    "0.5";
    object      U_0;
}
// * * * * * * * * * * * * * * * * * * * * * * * * * * * * * * * * * * * * * //

dimensions      [0 1 -1 0 0 0 0];

internalField   nonuniform List<vector> 
18750
(
(3.17952 -0.551486 -0.146055)
(3.43579 -0.289552 0.0497113)
(2.85408 -0.55121 -0.0846245)
(3.66732 -0.368234 -0.641149)
(3.38717 0.178494 -1.97099)
(2.63698 -0.257272 -0.218135)
(3.81035 0.159322 -1.70163)
(2.52679 -0.565035 -0.0634862)
(3.33451 -0.35781 -0.628921)
(3.37045 -0.254398 -1.8546)
(3.34495 -0.235032 -0.882486)
(2.88155 0.42759 -1.44025)
(2.21457 2.23409 -0.712114)
(1.87781 -0.256165 -0.309806)
(3.2584 0.222448 -1.50682)
(2.28541 -0.0637413 -2.01642)
(2.22432 -0.591673 -0.0589675)
(2.96167 -0.363371 -0.581011)
(2.9603 -0.243993 -1.77559)
(1.53503 -0.144929 -1.22471)
(3.29589 0.0877451 -0.833208)
(2.85976 -0.0190324 -0.848002)
(3.73609 -0.526288 -0.734868)
(2.33197 0.472113 -1.06434)
(2.35014 1.92542 -0.776935)
(1.59183 -0.154898 1.16006)
(1.24575 -0.289788 -0.295494)
(2.49731 0.212406 -1.3098)
(2.15197 -0.0271846 -1.74835)
(0.68461 -0.0521626 -0.334471)
(1.96587 -0.626304 -0.0577427)
(2.58063 -0.394413 -0.556762)
(2.54267 -0.255544 -1.6453)
(1.44763 -0.140372 -1.21886)
(1.14117 -0.0371788 -1.00378)
(3.18343 0.172093 -0.67303)
(2.80626 0.28049 -0.769023)
(2.14589 -0.795269 -0.658324)
(2.34053 0.0503371 -0.963985)
(3.29461 -0.179849 -0.871514)
(-0.154619 -0.030231 -0.335481)
(1.85429 0.486549 -0.936096)
(2.49943 2.31416 -0.917466)
(0.94529 0.0081251 0.643278)
(1.03191 0.239609 0.171937)
(0.784711 -0.330527 -0.244555)
(1.69168 0.140302 -1.12096)
(1.8005 0.00126436 -1.57644)
(0.687161 -0.071518 -0.260641)
(1.09175 -0.111952 -0.963604)
(1.7749 -0.676434 -0.0573274)
(2.22924 -0.44384 -0.527315)
(2.17406 -0.299711 -1.4564)
(1.36597 -0.143202 -1.16932)
(1.11201 -0.0466744 -0.931252)
(0.614961 -0.0787891 -0.512914)
(2.8773 0.0950309 -0.869484)
(2.75264 0.373295 -0.557544)
(1.4695 -0.202671 -0.528046)
(2.38008 0.432482 -0.579296)
(1.6515 -0.690977 -0.611304)
(-0.290645 -0.0718533 0.512402)
(1.86647 0.210183 -0.862006)
(2.90352 0.0204963 -0.959699)
(-0.842935 0.0220189 -0.342093)
(1.05348 -0.0721497 -0.160119)
(1.41389 0.50159 -0.845058)
(2.46764 1.57793 -0.979111)
(0.386395 0.118475 0.473846)
(0.882733 0.255456 -0.0561867)
(0.975523 0.0768842 -0.801569)
(0.48908 -0.355741 -0.185833)
(1.03327 -0.0252341 -0.954447)
(1.40327 0.0257344 -1.41891)
(0.666658 -0.0804889 -0.231024)
(1.00602 -0.112255 -0.854)
(0.391245 -0.083903 -0.196301)
(1.61022 -0.670172 -0.0549806)
(1.92636 -0.50309 -0.492937)
(1.86551 -0.354257 -1.25148)
(1.28318 -0.152284 -1.10297)
(1.05702 -0.061226 -0.847102)
(0.583913 -0.0918311 -0.48198)
(0.247934 -0.0285492 0.0857776)
(2.84193 0.372177 -0.643091)
(2.3951 0.447968 -0.785763)
(1.06779 0.0541705 -0.257055)
(2.34111 0.528382 -0.429748)
(1.02441 0.0193049 -0.428191)
(-0.500123 -0.107014 -0.0730035)
(1.79996 0.398768 -0.45386)
(1.23096 -0.622095 -0.47401)
(-0.208649 -0.193438 0.123482)
(0.781426 0.165238 0.0374491)
(1.45283 0.287145 -0.736464)
(2.34591 0.010338 -0.926105)
(-1.0444 -0.0652901 -0.214106)
(1.03679 0.0164166 -0.0630092)
(0.464066 -0.100332 -0.314917)
(1.00622 0.434951 -0.7521)
(2.12221 1.42529 -0.992735)
(0.0673718 0.232814 0.547682)
(0.755758 0.304542 -0.270561)
(0.834847 0.111306 -0.748082)
(-0.1983 -0.0757282 0.334587)
(0.30419 -0.374291 -0.133087)
(0.560873 -0.142956 -0.714866)
(1.07683 -0.0419645 -1.21474)
(0.577631 -0.107785 -0.306596)
(0.902195 -0.112095 -0.742511)
(0.413798 -0.0847636 -0.199281)
(0.106828 -0.0324163 0.143476)
(1.51796 -0.653501 -0.0605432)
(1.68888 -0.560766 -0.453642)
(1.62355 -0.411167 -1.05525)
(1.19561 -0.167154 -1.03049)
(0.988607 -0.080149 -0.747256)
(0.558604 -0.105975 -0.447553)
(0.265376 -0.0304257 0.0922342)
(0.389166 -0.0300092 -0.063419)
(2.82423 0.25656 -0.528333)
(2.49067 0.380015 -0.338422)
(0.542869 0.117489 0.095129)
(2.13145 0.527044 -0.562217)
(0.234651 0.0137694 0.0415489)
(-0.221217 -0.254168 -0.0491431)
(1.78094 0.474869 -0.419451)
(0.783575 0.120538 -0.0937778)
(-0.494618 -0.272975 -0.0477692)
(0.515999 0.072174 0.315674)
(1.31441 0.369665 -0.409406)
(0.812151 -0.427009 -0.178702)
(-0.0585309 -0.300646 -0.0395987)
(0.637084 0.193462 0.112143)
(0.449666 -0.0804474 0.303257)
(1.06529 0.389124 -0.580224)
(1.70093 0.144075 -0.774743)
(-0.873621 -0.14425 -0.0861846)
(0.625308 -0.0564614 -0.0515208)
(0.282368 -0.112767 -0.0485248)
(-0.0532002 -0.226925 0.33832)
(0.63495 0.377356 -0.652473)
(1.54451 1.03727 -0.918786)
(-0.0735306 0.302524 0.629444)
(0.658657 0.379652 -0.361317)
(0.672123 0.124241 -0.6376)
(-0.167956 -0.136493 0.289857)
(-0.0351672 -0.0371178 0.297757)
(0.171816 -0.369896 -0.0993203)
(0.265931 -0.237979 -0.500489)
(0.691777 -0.0881066 -1.01889)
(0.498607 -0.131365 -0.3153)
(0.788836 -0.116915 -0.635383)
(0.419441 -0.0924009 -0.179698)
(0.0887952 -0.0373265 0.169375)
(0.226391 -0.021619 0.222966)
(1.53222 -0.747616 -0.0550885)
(1.53163 -0.607618 -0.416631)
(1.44577 -0.460714 -0.886886)
(1.10989 -0.186658 -0.954044)
(0.916989 -0.10252 -0.642684)
(0.539671 -0.120205 -0.412899)
(0.270789 -0.0318819 0.110248)
(0.368853 -0.0304603 -0.0400497)
(0.267436 -0.0259015 0.298306)
(2.47022 0.140921 -0.804891)
(2.15359 0.315895 -0.717127)
(0.412958 -0.0438019 0.423983)
(2.05859 0.427393 -0.419189)
(0.196018 0.0073321 0.259459)
(-0.103956 -0.283474 -0.0583916)
(1.74667 0.537429 -0.440479)
(0.0336065 0.00269252 0.256786)
(-0.295792 -0.29771 -0.0232485)
(0.415577 -0.103699 0.0412944)
(1.2519 0.396456 -0.40414)
(0.133637 0.0861825 0.183441)
(-0.403702 -0.268021 -0.0256998)
(0.299964 0.0102882 0.0799942)
(0.405447 -0.0116309 0.444483)
(0.929931 0.307215 -0.327744)
(0.343527 -0.342236 0.0404178)
(-0.00771759 -0.431379 -0.079642)
(0.369245 0.229109 0.0330534)
(0.162674 -0.0908427 0.335737)
(-0.0280102 -0.222145 0.261245)
(0.685407 0.315267 -0.390548)
(1.05146 0.0887525 -0.512666)
(-0.476483 -0.154332 -0.0152979)
(0.400986 -0.0515329 0.0379015)
(0.169366 -0.0966014 0.10315)
(-0.102204 -0.278239 0.319846)
(0.0208009 -0.0702468 0.267806)
(0.332075 0.283808 -0.514023)
(0.926514 0.605717 -0.733242)
(-0.0555057 0.346155 0.695544)
(0.562356 0.41222 -0.343546)
(0.486574 0.102955 -0.474352)
(-0.122481 -0.157414 0.279462)
(-0.102056 -0.0372618 0.321916)
(0.00351624 -0.0535353 0.447992)
(0.0697706 -0.426677 -0.0755002)
(0.0689901 -0.291693 -0.337214)
(0.38087 -0.161193 -0.800355)
(0.413007 -0.184128 -0.304812)
(0.674881 -0.128926 -0.534164)
(0.391373 -0.101746 -0.192739)
(0.0764044 -0.0404519 0.189862)
(0.194099 -0.0174771 0.248217)
(0.155886 -0.0278864 0.463461)
(1.36177 -0.717843 -0.04172)
(1.39318 -0.64799 -0.374675)
(1.32542 -0.495931 -0.756465)
(1.03174 -0.209637 -0.878056)
(0.848603 -0.127338 -0.543164)
(0.525332 -0.133223 -0.38118)
(0.265949 -0.0348716 0.135356)
(0.346378 -0.0319588 0.00164627)
(0.250634 -0.0310102 0.316704)
(0.21753 -0.0183662 0.430004)
(2.42913 -0.0199345 -0.358798)
(1.98146 0.230067 -0.66174)
(0.125847 -0.521378 0.411191)
(1.80724 0.420139 -0.575414)
(0.153359 -0.249033 0.601061)
(0.111192 -0.449955 -0.070776)
(1.6225 0.461261 -0.45225)
(0.0509225 -0.033894 0.317809)
(-0.290511 -0.274033 -0.0766557)
(0.233305 -0.136899 0.0801225)
(1.20662 0.425401 -0.414586)
(-0.0260481 0.00183307 0.288834)
(-0.276593 -0.304343 0.0275273)
(0.0769896 -0.0859697 0.0597331)
(0.323531 0.0623612 0.345654)
(0.87843 0.348133 -0.330606)
(-0.13544 -0.00780067 0.242311)
(-0.384352 -0.228352 0.0544291)
(-0.0556459 0.0337344 0.0386198)
(-0.0557651 -0.0260159 0.364362)
(0.0313231 0.00244703 0.397519)
(0.573522 0.203105 -0.18508)
(0.0872737 -0.287178 0.158347)
(-0.101796 -0.417136 0.0195634)
(0.0124597 0.172976 -0.125576)
(-0.161729 -0.0722125 0.391839)
(-0.207508 -0.214239 0.33065)
(-0.0463592 -0.0397488 0.28307)
(0.405519 0.28682 -0.178812)
(0.480858 0.0283581 -0.202836)
(-0.145366 -0.115792 0.00858612)
(0.198987 -0.0501548 0.0967641)
(0.0190573 -0.0767725 0.288954)
(-0.149141 -0.278764 0.376971)
(-0.118583 -0.0983064 0.312275)
(0.0125264 -0.0436269 0.452742)
(0.100127 0.219234 -0.348161)
(0.40615 0.270058 -0.443523)
(-0.0532788 0.296184 0.628585)
(0.42122 0.493285 -0.0725656)
(0.340238 0.085638 -0.312956)
(-0.0990657 -0.19258 0.26673)
(-0.137826 -0.0537694 0.310686)
(-0.0676741 -0.0561829 0.485726)
(-0.00530983 -0.0534838 0.602017)
(-0.00210728 -0.464808 -0.0591221)
(-0.0477042 -0.303987 -0.241528)
(0.147613 -0.232435 -0.589778)
(0.331745 -0.196785 -0.29795)
(0.569341 -0.140928 -0.439221)
(0.353349 -0.114232 -0.185661)
(0.0687558 -0.0437434 0.207294)
(0.157829 -0.0138721 0.282062)
(0.124864 -0.0297568 0.483442)
(0.107273 -0.0237326 0.617475)
(1.33822 -0.697859 -0.032966)
(1.37269 -0.626359 -0.388075)
(1.25458 -0.507064 -0.67269)
(0.964499 -0.231511 -0.807634)
(0.788223 -0.152487 -0.45728)
(0.513159 -0.1454 -0.354188)
(0.255299 -0.0397547 0.164899)
(0.324225 -0.0358004 0.0515904)
(0.238113 -0.0360896 0.334997)
(0.201176 -0.0211181 0.443356)
(0.170049 -0.0153695 0.598851)
(2.45884 -0.0311855 -0.246302)
(1.95632 -0.0168509 -0.181241)
(0.43308 -0.516289 0.157004)
(1.76956 0.371642 -0.307695)
(0.057111 -0.576672 0.307252)
(0.393682 -0.161573 -0.264017)
(1.4658 0.466398 -0.444206)
(0.0959622 -0.305225 0.444071)
(-0.219779 -0.386894 -0.202904)
(0.282448 -0.115515 0.036304)
(1.15765 0.443839 -0.43153)
(0.037612 -0.126646 0.357711)
(-0.331649 -0.290111 -0.129108)
(-0.0433934 -0.145073 0.152608)
(0.190888 0.0961401 0.208406)
(0.789277 0.356423 -0.429248)
(-0.0407736 -0.127538 0.252006)
(-0.278582 -0.275026 0.0269179)
(-0.17772 -0.113569 0.182809)
(-0.144718 0.00408144 0.220403)
(0.0215171 0.119107 0.385319)
(0.518497 0.216948 -0.285486)
(-0.202605 -0.0600827 0.21986)
(-0.408435 -0.199656 0.0681677)
(-0.255217 -0.00514685 0.159787)
(-0.383918 -0.080117 0.279562)
(-0.214548 -0.0290674 0.387587)
(-0.102019 0.0244634 0.407614)
(0.253952 0.0651109 -0.040838)
(-0.0827738 -0.270329 0.163165)
(-0.120113 -0.356571 0.082638)
(-0.170032 0.13381 -0.14533)
(-0.302087 -0.0981254 0.415216)
(-0.361233 -0.240135 0.382997)
(-0.191951 -0.0655068 0.365047)
(-0.137668 0.00600771 0.476823)
(0.179544 0.177142 0.00966504)
(0.193163 0.000277171 0.0398911)
(-0.00738851 -0.0963008 0.030959)
(0.122729 -0.0196533 0.165758)
(-0.0370972 -0.0716435 0.332025)
(-0.179677 -0.255806 0.416796)
(-0.174847 -0.113441 0.376426)
(-0.13176 -0.0671336 0.47883)
(-0.0384548 -0.00049078 0.601177)
(-0.0527701 0.083553 -0.163962)
(0.117174 -0.0140416 -0.115826)
(-0.0811985 0.252091 0.488581)
(0.320153 0.500762 0.145817)
(0.193723 0.0479596 -0.11444)
(-0.0875305 -0.195191 0.273362)
(-0.142713 -0.0550665 0.324797)
(-0.0878801 -0.059349 0.518593)
(-0.0803881 -0.0602389 0.632831)
(0.0082957 -0.034635 0.736144)
(-0.148879 -0.448921 -0.0351957)
(-0.128873 -0.339319 -0.173659)
(-0.0209172 -0.286607 -0.414247)
(0.219387 -0.26607 -0.28574)
(0.476551 -0.157155 -0.348198)
(0.315826 -0.128632 -0.15704)
(0.0583878 -0.0506454 0.222769)
(0.129705 -0.0126097 0.310973)
(0.0967198 -0.0322433 0.504296)
(0.0797329 -0.0271248 0.636967)
(0.0646929 -0.0192587 0.77025)
(1.33706 -0.703866 -0.029534)
(1.38462 -0.634816 -0.3967)
(1.23911 -0.498789 -0.651022)
(0.907001 -0.253053 -0.747786)
(0.738453 -0.176081 -0.390613)
(0.501982 -0.156197 -0.331449)
(0.242843 -0.0467909 0.194174)
(0.301868 -0.0397095 0.106534)
(0.226513 -0.0412564 0.359817)
(0.188398 -0.023984 0.461353)
(0.15668 -0.0183362 0.609481)
(0.132207 -0.0116081 0.75915)
(2.44064 -0.117357 -0.113518)
(2.01537 0.00834501 0.030704)
(0.851403 -0.508422 0.0208575)
(2.8438 -0.0713788 -0.414019)
(1.48686 0.0382503 0.054295)
(0.244738 -0.573931 0.0608148)
(0.569339 0.0759902 -0.424568)
(1.24715 0.323113 0.101794)
(-0.0432234 -0.675352 0.330976)
(0.0514746 -0.244784 -0.408535)
(0.362256 0.139908 -0.0439726)
(1.00162 0.414528 -0.0873105)
(0.0535163 -0.370244 0.460943)
(-0.289833 -0.400934 -0.154219)
(-0.0763799 -0.165344 0.0867855)
(0.0525754 0.13836 0.108147)
(0.770816 0.356746 -0.231767)
(0.0220687 -0.264933 0.322831)
(-0.348575 -0.24959 -0.0337804)
(-0.327748 -0.208151 0.21389)
(-0.174815 0.0158857 0.156693)
(-0.0502966 0.1084 0.388038)
(0.536569 0.313696 -0.259175)
(-0.0758919 -0.26672 0.243706)
(-0.287117 -0.273097 0.0501847)
(-0.222824 -0.0966529 0.194648)
(-0.39152 -0.0578111 0.202849)
(-0.224345 0.0667688 0.37488)
(-0.145962 0.0529801 0.498714)
(0.287977 0.181268 -0.166053)
(-0.156736 -0.130394 0.162465)
(-0.350192 -0.20084 0.0861753)
(-0.325387 -0.04095 0.259177)
(-0.420749 -0.127288 0.314241)
(-0.324843 -0.0419897 0.478494)
(-0.245994 -0.0135221 0.471895)
(-0.192316 0.0192555 0.580089)
(0.0281611 -0.0574913 0.0430424)
(-0.100672 -0.268101 0.128902)
(-0.130517 -0.291881 0.079671)
(-0.313545 0.0801612 -0.0786503)
(-0.296846 -0.102161 0.468204)
(-0.384914 -0.228476 0.422708)
(-0.286446 -0.0961097 0.450238)
(-0.236576 -0.0199628 0.534901)
(-0.211791 0.015838 0.657924)
(-0.000983773 0.0662981 0.10323)
(0.143511 0.0155619 0.168889)
(-0.011936 -0.082699 0.0627654)
(0.0137637 -0.00534179 0.224922)
(-0.086203 -0.0582986 0.357856)
(-0.148148 -0.261852 0.454733)
(-0.206613 -0.128959 0.427658)
(-0.209541 -0.0809025 0.514723)
(-0.154339 -0.0177484 0.619078)
(-0.0996056 0.0225736 0.738525)
(-0.152608 -0.00116204 -0.0438532)
(0.0668646 -0.110796 0.0819566)
(-0.100956 0.194685 0.348)
(0.20606 0.514326 0.143098)
(0.0607223 0.038262 0.0588439)
(-0.0686745 -0.208923 0.273845)
(-0.147077 -0.0627568 0.35677)
(-0.105314 -0.0576536 0.537696)
(-0.101789 -0.0645411 0.669557)
(-0.0723135 -0.0411598 0.759516)
(-0.000333512 -0.0154609 0.872151)
(-0.267366 -0.501033 -0.00777036)
(-0.209464 -0.37066 -0.103178)
(-0.139038 -0.315981 -0.288734)
(0.154913 -0.284938 -0.262369)
(0.394876 -0.175337 -0.264875)
(0.272891 -0.143344 -0.117646)
(0.0459743 -0.0603332 0.235528)
(0.101881 -0.013572 0.340643)
(0.07362 -0.0352825 0.52469)
(0.0542045 -0.0296183 0.655934)
(0.0406473 -0.0237188 0.785731)
(0.0288355 -0.0140555 0.9162)
(1.32837 -0.698387 -0.0281125)
(1.34042 -0.603354 -0.396576)
(1.23422 -0.488423 -0.649998)
(0.858226 -0.274736 -0.698991)
(0.699793 -0.197613 -0.343583)
(0.492857 -0.167974 -0.3148)
(0.230702 -0.0554009 0.221765)
(0.273438 -0.0470177 0.183266)
(0.215414 -0.0467156 0.388551)
(0.177218 -0.0270929 0.484516)
(0.145264 -0.0214288 0.623907)
(0.1222 -0.0141726 0.76654)
(0.0980992 -0.0083252 0.906869)
(2.5641 -0.163078 -0.0828046)
(2.0953 -0.124224 0.16875)
(1.21767 -0.515338 -0.198454)
(2.85459 -0.0969692 -0.401058)
(1.33551 -0.225558 0.250468)
(0.573978 -0.527787 -0.0666944)
(0.683933 0.0727642 -0.591264)
(1.07199 -0.147641 0.0252234)
(0.718623 -0.0712749 0.356645)
(0.115706 -0.666656 0.167505)
(0.173051 -0.0358535 -0.435969)
(0.144339 0.0969311 0.0630113)
(0.531015 0.227597 0.383251)
(-0.0608508 -0.477138 0.405792)
(-0.290809 -0.332118 -0.272313)
(-0.131244 -0.0538467 0.0272415)
(-0.168215 0.130824 0.102566)
(0.465292 0.390834 0.315474)
(-0.00552375 -0.372074 0.368642)
(-0.414696 -0.32074 -0.00496949)
(-0.391907 -0.252353 0.142882)
(-0.191087 0.0944992 0.0842459)
(-0.212273 0.132171 0.358436)
(0.0988579 0.228969 0.154022)
(-0.208242 -0.372241 0.263934)
(-0.381616 -0.207 0.0304265)
(-0.355459 -0.236489 0.244304)
(-0.447175 -0.0591563 0.151183)
(-0.252718 0.0612199 0.399288)
(-0.248984 0.0628368 0.523794)
(-0.0407641 0.148449 0.0739977)
(-0.144031 -0.33601 0.230159)
(-0.299038 -0.275154 0.0896988)
(-0.258423 -0.153859 0.225349)
(-0.388837 -0.0766693 0.276177)
(-0.413983 -0.0272123 0.400946)
(-0.321916 0.0123438 0.512655)
(-0.255641 0.0290436 0.633314)
(-0.0193897 0.0624115 0.0168071)
(-0.133315 -0.161035 0.131848)
(-0.32315 -0.158944 0.0712886)
(-0.278933 -0.0963244 0.314882)
(-0.392679 -0.133661 0.364469)
(-0.408079 -0.119974 0.424076)
(-0.289438 -0.0329983 0.545892)
(-0.273988 -0.0173409 0.62713)
(-0.244143 0.00358968 0.741157)
(-0.203264 -0.198596 0.0759338)
(-0.0716533 -0.202545 0.139421)
(-0.137236 -0.252276 0.110048)
(-0.324324 0.0926846 -0.0535064)
(-0.347928 -0.150462 0.390374)
(-0.374679 -0.211097 0.445731)
(-0.32123 -0.125573 0.48976)
(-0.274167 -0.0496913 0.590099)
(-0.267416 -0.00770153 0.697531)
(-0.238992 0.0156875 0.812809)
(-0.0624148 0.0356874 0.166406)
(0.0825313 0.0136149 0.168055)
(-0.0260565 -0.0848059 0.0690472)
(-0.0752998 -0.0246974 0.227583)
(-0.124623 -0.0556008 0.406735)
(-0.13586 -0.203592 0.494641)
(-0.209835 -0.110727 0.499624)
(-0.234179 -0.0951636 0.542653)
(-0.227035 -0.0350093 0.647965)
(-0.187919 0.0122755 0.754887)
(-0.159288 0.0274509 0.878899)
(-0.161951 -0.117426 0.0768781)
(0.100037 -0.128222 0.29362)
(-0.0927139 0.192061 0.242782)
(0.101429 0.503753 0.14115)
(-0.0240302 0.0263285 0.161043)
(-0.100166 -0.222199 0.273306)
(-0.155809 -0.0679682 0.400996)
(-0.121033 -0.0597304 0.557828)
(-0.116145 -0.0614194 0.689216)
(-0.116403 -0.0440739 0.782716)
(-0.0802119 -0.0194479 0.882654)
(-0.0299435 -0.000214773 1.00443)
(-0.323579 -0.555925 0.00895606)
(-0.365541 -0.387314 0.00251546)
(-0.216498 -0.348467 -0.191312)
(0.104792 -0.327689 -0.235564)
(0.321533 -0.189286 -0.191412)
(0.233994 -0.156881 -0.0763718)
(0.0350095 -0.0711319 0.244979)
(0.0744838 -0.0172297 0.37067)
(0.0526494 -0.0387285 0.543942)
(0.0346735 -0.0316951 0.673157)
(0.0187038 -0.0262881 0.800105)
(0.00941369 -0.018161 0.926287)
(-0.00175265 -0.00769624 1.04885)
(1.31861 -0.7146 -0.0318731)
(1.29156 -0.642376 -0.355652)
(1.20082 -0.49109 -0.61286)
(0.817054 -0.30014 -0.656009)
(0.671321 -0.214992 -0.311141)
(0.484675 -0.176405 -0.302478)
(0.219797 -0.0649313 0.246565)
(0.253667 -0.0543132 0.237335)
(0.204537 -0.0520268 0.419299)
(0.167414 -0.0303792 0.510383)
(0.135313 -0.0247598 0.641961)
(0.112965 -0.0168485 0.776768)
(0.0913201 -0.010449 0.911822)
(0.0691378 -0.00544052 1.04396)
(2.87704 0.219355 0.0955697)
(2.27914 -0.276532 0.0695194)
(1.56425 -0.17404 -0.489232)
(2.9329 -0.242782 -0.293622)
(1.37361 -0.384761 0.242647)
(0.920692 -0.570225 -0.237111)
(0.816286 0.00778539 -0.5703)
(1.57878 -0.332271 0.211285)
(0.501194 -0.368992 0.0889329)
(0.212849 -0.628832 0.0329291)
(0.280114 -0.166422 -0.360919)
(0.0671619 -0.0530801 -0.00539796)
(0.726534 0.109714 -0.612975)
(0.0465169 -0.112886 0.1993)
(-0.310415 -0.508801 0.185703)
(-0.0962408 -0.201944 -0.253481)
(-0.144342 -0.04845 0.109453)
(-0.268441 0.124405 0.0923315)
(-0.155607 0.0969923 0.291131)
(-0.359221 -0.443984 0.299458)
(-0.448883 -0.32312 0.0512034)
(-0.394377 -0.186814 0.140103)
(-0.335759 0.0619562 0.0999564)
(-0.379787 0.13367 0.388938)
(-0.269241 0.117942 0.255571)
(-0.331091 -0.303777 0.338464)
(-0.412776 -0.265842 0.107627)
(-0.419627 -0.299683 0.202633)
(-0.44308 0.00265933 0.114731)
(-0.357746 0.0877628 0.378926)
(-0.385347 0.0816381 0.533461)
(-0.24518 0.11052 0.227031)
(-0.318642 -0.355884 0.257706)
(-0.402361 -0.206524 0.114785)
(-0.354209 -0.250535 0.274095)
(-0.429549 -0.115232 0.281812)
(-0.393712 -0.0409459 0.436814)
(-0.346163 0.0271407 0.550525)
(-0.352705 0.0440744 0.662922)
(-0.26584 0.0452295 0.1496)
(-0.204391 -0.329794 0.219366)
(-0.299722 -0.270109 0.144168)
(-0.272462 -0.201494 0.253014)
(-0.328306 -0.109324 0.329956)
(-0.404398 -0.0832464 0.417008)
(-0.399171 -0.0363872 0.536039)
(-0.372053 -0.00473336 0.640666)
(-0.320927 0.024423 0.768052)
(-0.202543 -0.0466847 0.058577)
(-0.112381 -0.180423 0.153148)
(-0.251817 -0.167181 0.154154)
(-0.111046 -0.0687199 0.430267)
(-0.34125 -0.159174 0.391364)
(-0.374534 -0.132769 0.443063)
(-0.320777 -0.067908 0.545584)
(-0.283332 -0.0309952 0.660883)
(-0.297881 -0.0201007 0.761079)
(-0.264676 0.000473297 0.866912)
(-0.233885 -0.233272 0.0550617)
(-0.111407 -0.1877 0.135466)
(-0.149656 -0.221013 0.144559)
(-0.30513 0.0464732 0.103102)
(-0.28905 -0.146609 0.391288)
(-0.362435 -0.198546 0.415425)
(-0.304419 -0.122135 0.529629)
(-0.284934 -0.0763604 0.613445)
(-0.274957 -0.0311169 0.725613)
(-0.265529 -0.00419891 0.83436)
(-0.248531 0.0131414 0.946716)
(-0.00345993 0.0726102 0.112064)
(-0.0153944 -0.0286209 0.107966)
(-0.0554505 -0.0750029 0.0730087)
(-0.113101 -0.0152687 0.261559)
(-0.156147 -0.0720255 0.433746)
(-0.13751 -0.196927 0.502501)
(-0.200179 -0.116486 0.502555)
(-0.240128 -0.0954611 0.573004)
(-0.245863 -0.0521177 0.670428)
(-0.225894 -0.00535605 0.776078)
(-0.207266 0.0179724 0.892022)
(-0.186602 0.0251927 1.01342)
(-0.113663 -0.176908 0.11419)
(0.188471 -0.184906 0.296899)
(-0.122083 0.124266 0.184028)
(0.0055363 0.458427 0.132919)
(-0.0846521 0.0275147 0.266303)
(-0.120949 -0.231731 0.315304)
(-0.161312 -0.0833306 0.429045)
(-0.129768 -0.0598808 0.577992)
(-0.130971 -0.0611983 0.700851)
(-0.137328 -0.0448631 0.798111)
(-0.126576 -0.0245434 0.895133)
(-0.0909234 -0.00405509 1.00582)
(-0.0641745 0.00787629 1.12286)
(-0.376496 -0.559884 0.0230491)
(-0.336006 -0.448344 -0.0445762)
(-0.259366 -0.361086 -0.121031)
(0.0620179 -0.349782 -0.21067)
(0.244164 -0.219735 -0.146674)
(0.193527 -0.169656 -0.0324435)
(0.0265278 -0.0817463 0.250023)
(0.0506467 -0.0230953 0.395864)
(0.0337267 -0.0425704 0.561404)
(0.0190937 -0.0336961 0.688018)
(0.0028027 -0.0280581 0.812671)
(-0.00786136 -0.0207638 0.935849)
(-0.0159512 -0.011096 1.05412)
(-0.0256097 -0.00195417 1.17075)
(1.22873 -0.705325 -0.0252809)
(1.23948 -0.640147 -0.321653)
(1.15685 -0.498549 -0.565176)
(0.785919 -0.320837 -0.617302)
(0.650676 -0.225866 -0.283883)
(0.474537 -0.18552 -0.289985)
(0.210925 -0.0750845 0.267032)
(0.235845 -0.0615027 0.286661)
(0.194313 -0.0571619 0.449757)
(0.158697 -0.0337828 0.537392)
(0.126859 -0.0281652 0.661913)
(0.104603 -0.0197932 0.789702)
(0.0846223 -0.0126613 0.918673)
(0.0649385 -0.00723421 1.04713)
(0.0456945 -0.00314969 1.16929)
(2.70587 0.456308 0.295237)
(2.49147 0.296393 0.328831)
(1.9806 -0.0069817 -0.502572)
(3.05903 0.0321597 -0.0493792)
(1.41746 -0.472026 -0.0349804)
(1.16631 -0.532599 -0.352448)
(0.763662 -0.0167945 -0.45359)
(2.06015 -0.140938 -0.00802477)
(0.313527 -0.553007 -0.0411706)
(0.45496 -0.604184 -0.168422)
(0.408306 -0.201698 -0.332954)
(-0.0711365 -0.0212568 -0.106184)
(0.804026 0.0387301 -0.713361)
(-0.12428 -0.299188 0.0124552)
(-0.436958 -0.560477 0.0281287)
(-0.0678898 -0.285867 -0.21182)
(-0.241337 -0.162005 0.0131645)
(-0.384046 0.0755957 0.0509684)
(0.151641 0.133535 0.0196315)
(-0.246353 -0.17591 0.100795)
(-0.358279 -0.372036 0.176578)
(-0.476848 -0.256544 -0.00463921)
(-0.445373 -0.216807 0.137275)
(-0.371634 0.0468654 0.113377)
(-0.515645 0.07366 0.384593)
(-0.31118 0.0163885 0.145343)
(-0.394812 -0.222532 0.320922)
(-0.472858 -0.264461 0.148404)
(-0.464529 -0.264933 0.210242)
(-0.498691 -0.0366701 0.137642)
(-0.438554 0.0679215 0.417886)
(-0.481375 0.0683215 0.57459)
(-0.38384 0.000168239 0.151572)
(-0.383199 -0.300621 0.262183)
(-0.408834 -0.257943 0.18843)
(-0.428565 -0.280025 0.265985)
(-0.467688 -0.0636158 0.232878)
(-0.463949 0.00141345 0.400647)
(-0.449792 0.0412731 0.539256)
(-0.459595 0.0573106 0.683981)
(-0.381161 -0.0413432 0.136187)
(-0.319052 -0.323786 0.241413)
(-0.3832 -0.211099 0.210251)
(-0.33958 -0.264063 0.301839)
(-0.392316 -0.123907 0.342633)
(-0.435689 -0.120557 0.434929)
(-0.389037 -0.0239212 0.573132)
(-0.397883 0.0101065 0.675492)
(-0.39517 0.0395653 0.798909)
(-0.384789 -0.0806854 0.0825)
(-0.194844 -0.284109 0.260492)
(-0.290396 -0.272301 0.175558)
(-0.325645 -0.230268 0.239375)
(-0.32184 -0.134751 0.361677)
(-0.360958 -0.106571 0.435468)
(-0.408715 -0.0663399 0.526353)
(-0.394794 -0.0353733 0.646749)
(-0.393725 -0.00466425 0.76381)
(-0.339593 0.0222573 0.887402)
(-0.283547 -0.169634 0.0587982)
(-0.12829 -0.181652 0.188604)
(-0.24889 -0.161316 0.168675)
(-0.14821 -0.14251 0.372237)
(-0.271222 -0.146832 0.435567)
(-0.33565 -0.168915 0.4655)
(-0.318486 -0.0969816 0.546376)
(-0.291177 -0.0517056 0.659009)
(-0.294929 -0.030932 0.77197)
(-0.30434 -0.0170272 0.86919)
(-0.285717 0.00422305 0.974528)
(-0.182929 -0.169614 0.0423625)
(-0.112118 -0.189216 0.129518)
(-0.17233 -0.213772 0.165195)
(-0.306636 0.0228237 0.169951)
(-0.263615 -0.175221 0.397991)
(-0.33158 -0.185143 0.423281)
(-0.295301 -0.143791 0.51783)
(-0.287968 -0.0967454 0.619524)
(-0.271001 -0.0551079 0.734627)
(-0.263681 -0.0224918 0.84183)
(-0.261536 -0.00489825 0.952362)
(-0.239061 0.00907808 1.06399)
(-0.0138658 0.0342847 0.0845847)
(-0.035297 0.0315827 0.125575)
(-0.0822309 -0.0723971 0.078775)
(-0.125398 -0.0140879 0.295524)
(-0.168709 -0.0763156 0.452461)
(-0.15307 -0.195935 0.505141)
(-0.17547 -0.116996 0.503445)
(-0.230692 -0.0968261 0.584708)
(-0.248218 -0.0632842 0.687299)
(-0.229623 -0.0210646 0.793407)
(-0.21897 0.00345458 0.905274)
(-0.205126 0.0168294 1.02227)
(-0.193651 0.0197331 1.13321)
(-0.0188443 -0.218818 0.136007)
(0.163036 -0.117569 0.312608)
(-0.148661 0.0951772 0.15866)
(-0.0315567 0.407632 0.100901)
(-0.135353 -0.00364761 0.387461)
(-0.141024 -0.233846 0.357874)
(-0.165552 -0.0987521 0.456965)
(-0.138403 -0.0623602 0.591499)
(-0.139608 -0.0600566 0.710104)
(-0.147688 -0.0460392 0.806149)
(-0.14747 -0.028699 0.905908)
(-0.128801 -0.0103529 1.0116)
(-0.104604 0.00394147 1.12122)
(-0.0906829 0.00975678 1.23051)
(-0.39719 -0.579581 0.0317392)
(-0.438829 -0.462915 -0.00776887)
(-0.333486 -0.366008 -0.0126675)
(0.00340994 -0.370823 -0.162368)
(0.19223 -0.241967 -0.0969947)
(0.158806 -0.181038 0.0116135)
(0.0183813 -0.0881066 0.254485)
(0.0306421 -0.0303158 0.416182)
(0.0169695 -0.0468531 0.576761)
(0.00573532 -0.0360492 0.700921)
(-0.00873895 -0.0293978 0.823146)
(-0.02006 -0.0225612 0.944195)
(-0.0282778 -0.0136046 1.05957)
(-0.0349015 -0.00485599 1.17269)
(-0.0408372 0.00198485 1.28255)
(1.21377 -0.694261 -0.015294)
(1.25326 -0.58221 -0.298897)
(1.1368 -0.49755 -0.575726)
(0.759395 -0.33313 -0.574826)
(0.639073 -0.241344 -0.259604)
(0.471095 -0.19536 -0.279987)
(0.204308 -0.0853363 0.282359)
(0.221452 -0.0687961 0.326207)
(0.18521 -0.0622943 0.47818)
(0.150957 -0.0372532 0.564083)
(0.119714 -0.0315867 0.682589)
(0.0973411 -0.0228601 0.804171)
(0.0783593 -0.0151314 0.927357)
(0.0605034 -0.00909638 1.05154)
(0.0432666 -0.00467943 1.17111)
(0.0261531 -0.00199425 1.285)
(1.97677 0.701701 0.63127)
(2.37922 0.491429 0.59466)
(2.10045 0.20681 0.40922)
(2.85527 0.275835 0.246144)
(1.67428 -0.326292 0.00491254)
(1.71541 -0.217143 0.0173624)
(0.431323 0.0608683 -0.0020199)
(2.10861 -0.0618721 -0.158525)
(3.22779 -0.219799 -0.14704)
(0.188598 -0.503247 -0.138305)
(0.339943 -0.531431 -0.289183)
(0.317073 -0.143365 -0.277944)
(-0.26866 0.0799536 -0.0141951)
(0.907761 0.107047 -0.580918)
(-0.30519 -0.465765 -0.0673864)
(-0.618438 -0.538958 -0.0534894)
(-0.172722 -0.278781 -0.198031)
(-0.36271 -0.12097 -0.0626287)
(-0.556567 0.176785 0.0814911)
(0.0219916 0.142508 0.010186)
(-0.337045 -0.340315 0.046836)
(-0.447261 -0.48953 0.0740706)
(-0.543387 -0.319094 -0.0270752)
(-0.54452 -0.233578 0.100024)
(-0.508633 0.0307699 0.0668449)
(-0.694254 0.0775676 0.337383)
(-0.354428 0.132195 0.059822)
(-0.344399 -0.189449 0.0542971)
(-0.39451 -0.341883 0.167249)
(-0.511517 -0.274247 0.0781449)
(-0.54054 -0.237155 0.182814)
(-0.54056 -0.0129742 0.15607)
(-0.529275 0.0269556 0.404288)
(-0.580641 0.0543448 0.570363)
(-0.342823 -0.111592 0.0906256)
(-0.359064 -0.309369 0.224132)
(-0.434947 -0.245151 0.196054)
(-0.478477 -0.264471 0.266315)
(-0.494584 -0.0902711 0.277002)
(-0.494555 -0.0405889 0.438333)
(-0.498035 0.0289519 0.571571)
(-0.530588 0.0519173 0.701887)
(-0.359378 -0.0887557 0.0873465)
(-0.340552 -0.274519 0.274754)
(-0.389702 -0.235564 0.230147)
(-0.417495 -0.302798 0.271266)
(-0.453995 -0.114238 0.309658)
(-0.483265 -0.0697038 0.41528)
(-0.480567 -0.00884744 0.54377)
(-0.485074 0.0265972 0.67521)
(-0.487699 0.0472058 0.812477)
(-0.347936 -0.0797858 0.114137)
(-0.297644 -0.291634 0.214874)
(-0.360189 -0.21303 0.235313)
(-0.339199 -0.242061 0.310628)
(-0.37906 -0.154439 0.367964)
(-0.407962 -0.127628 0.456288)
(-0.423277 -0.0735222 0.564763)
(-0.406214 -0.0209055 0.677168)
(-0.423163 0.00873175 0.794218)
(-0.393039 0.0311281 0.915663)
(-0.368548 -0.157654 0.0632074)
(-0.208829 -0.259056 0.251091)
(-0.260412 -0.234624 0.223608)
(-0.333372 -0.22787 0.250614)
(-0.326545 -0.16328 0.375597)
(-0.347879 -0.136582 0.45183)
(-0.390046 -0.0893731 0.528775)
(-0.398401 -0.0517914 0.640262)
(-0.394469 -0.0261943 0.761008)
(-0.382187 -0.00235832 0.879232)
(-0.360901 0.0200657 0.991019)
(-0.264568 -0.135291 0.0354375)
(-0.143723 -0.15603 0.196947)
(-0.285916 -0.208209 0.128899)
(-0.154223 -0.160278 0.364624)
(-0.238199 -0.14814 0.457528)
(-0.267634 -0.165429 0.523625)
(-0.296062 -0.123651 0.565581)
(-0.30292 -0.0733442 0.65687)
(-0.288768 -0.0457219 0.772868)
(-0.299102 -0.0283345 0.870419)
(-0.313656 -0.0119534 0.970281)
(-0.27879 0.00790609 1.08102)
(-0.221382 -0.199318 0.0393296)
(-0.109976 -0.178012 0.147798)
(-0.13991 -0.179036 0.190308)
(-0.295944 -0.00309518 0.23453)
(-0.264675 -0.184468 0.392817)
(-0.308503 -0.193677 0.441568)
(-0.279293 -0.153387 0.529593)
(-0.273477 -0.111973 0.628993)
(-0.275229 -0.077476 0.735084)
(-0.258963 -0.0423139 0.841221)
(-0.258446 -0.0185203 0.950181)
(-0.246584 -0.00566148 1.06191)
(-0.237798 0.00644014 1.16344)
(-0.00813944 0.0503102 0.0798163)
(-0.0573494 0.0260953 0.125805)
(-0.0855173 -0.0913725 0.0901464)
(-0.154672 -0.0294109 0.314638)
(-0.160663 -0.0721463 0.46491)
(-0.168961 -0.187254 0.477825)
(-0.174128 -0.0977648 0.534291)
(-0.206819 -0.0940507 0.592611)
(-0.23793 -0.0706946 0.700106)
(-0.228877 -0.0363553 0.80473)
(-0.214395 -0.0101518 0.916287)
(-0.203847 0.00496344 1.0299)
(-0.197559 0.0121533 1.13809)
(-0.187711 0.0140767 1.24203)
(0.0566316 -0.223208 0.151955)
(0.150297 -0.30626 0.0350081)
(-0.155247 0.0773495 0.19024)
(-0.14007 0.307021 0.163158)
(-0.146282 0.000864995 0.471184)
(-0.159772 -0.24138 0.401927)
(-0.172031 -0.114013 0.477836)
(-0.146656 -0.0676623 0.602359)
(-0.146153 -0.0607493 0.71609)
(-0.152272 -0.046576 0.811676)
(-0.155426 -0.0323333 0.911835)