/*--------------------------------*- C++ -*----------------------------------*\
  =========                 |
  \\      /  F ield         | OpenFOAM: The Open Source CFD Toolbox
   \\    /   O peration     | Website:  https://openfoam.org
    \\  /    A nd           | Version:  7
     \\/     M anipulation  |
\*---------------------------------------------------------------------------*/
FoamFile
{
    version     2.0;
    format      ascii;
    class       volScalarField;
    location    "1";
    object      nut;
}
// * * * * * * * * * * * * * * * * * * * * * * * * * * * * * * * * * * * * * //

dimensions      [0 2 -1 0 0 0 0];

internalField   nonuniform List<scalar> 
18750
(
0.000289948
0.000262066
0.00023474
0.00032116
0.000306406
9.66375e-05
0.000405352
0.000291305
0.000253452
0.000265518
0.000371826
0.000219671
0.000303366
0.000233046
0.000212989
0.000162571
0.000113575
0.000246258
0.00017023
0.000242338
0.000513761
0.000236331
0.000327668
0.000248037
0.000174129
0.000316226
0.000111887
0.000163058
0.000291993
0.000210583
0.000223485
0.000268769
0.000206666
0.000192114
0.000255625
0.000923095
0.000395153
0.000524608
9.86977e-05
0.000231058
0.000211308
0.000179607
0.00026736
0.000137619
0.00028183
0.000103355
0.000102928
0.000123208
0.000228394
0.000451877
8.02363e-05
0.000212223
0.000124884
0.000216088
0.000148592
0.000245989
0.00180072
0.000889563
0.000929205
0.00024528
0.000438027
0.000544694
0.000130285
0.000179543
0.000191476
0.000224161
0.000266843
0.000168654
0.000225825
0.000145318
0.000270814
6.51421e-05
0.000131482
0.000116332
0.00034548
0.000347211
0.000150776
5.03395e-05
9.30158e-05
0.000245308
0.000121367
0.000166477
0.000121449
0.000248657
0.00250425
0.000567318
0.00194355
0.000740623
0.000894458
0.00105545
0.000135082
0.000206236
0.000367127
0.000539265
0.000183051
0.000117449
0.000134503
0.000199747
0.000225203
0.000186078
0.000248167
0.000157316
0.000215091
0.000154545
0.00026068
0.00010434
0.00011401
0.000161253
0.000148527
8.73179e-05
0.000315321
0.0001548
5.94099e-05
5.80144e-05
7.64134e-05
0.000282129
0.000215993
0.000167999
0.000172002
0.000241769
0.00229096
0.00105956
0.00236315
0.000976895
0.000465819
0.0020259
0.000289413
0.0007465
0.000864618
0.00117477
0.000187318
0.000134047
0.000226479
0.000351141
0.000484194
0.000185451
0.000247393
0.000138622
0.000172604
0.000237279
0.00022624
0.000283771
0.00021254
0.000254033
0.000157616
0.000195235
0.000143287
0.000244863
8.78781e-05
0.000132082
0.000113001
0.000193233
0.000159144
0.000287633
0.000293059
0.000382023
5.13366e-05
5.63321e-05
5.17642e-05
8.72128e-05
0.000214288
0.000220297
0.000232466
0.000179858
0.000255077
0.00233168
0.0015377
0.00221952
0.000402206
0.000614556
0.00252234
0.000851394
0.000918088
0.000664878
0.00191661
0.000203154
0.000317494
0.000727155
0.000906481
0.00103023
0.000114009
0.000207794
0.000159562
0.000227699
0.000324083
0.000481621
0.000183044
0.000125909
0.00016095
0.000163876
0.000118153
0.000206548
0.000245554
0.000109391
0.000223982
0.000197024
0.000226835
0.000143799
0.0001867
0.000154432
0.000250772
0.000104388
7.95651e-05
0.000111648
7.94745e-05
0.000153723
0.000149144
0.000292272
0.00032441
0.000178079
6.61346e-05
5.00307e-05
5.4729e-05
4.09405e-05
8.76004e-05
0.000271491
0.000280962
0.000155897
0.000188151
0.000270501
0.00235418
0.000553366
0.00223966
0.000641528
0.0011941
0.0022345
0.000618373
0.000397272
0.000957298
0.00239121
0.000786388
0.000949998
0.000948389
0.00091168
0.00195525
0.000321393
0.000223886
0.000352427
0.000713191
0.000921204
0.00100457
0.000206844
7.52448e-05
0.00026982
0.000123396
0.00018591
0.00034178
0.000463507
0.000182483
0.000211548
0.000206433
9.50055e-05
0.000117516
8.81765e-05
0.000183744
0.000218129
0.000135724
0.000168643
0.000200179
0.000172117
0.000174468
0.00014717
0.000176279
0.000112209
0.000218676
7.18289e-05
0.000104387
6.54962e-05
6.38588e-05
8.22413e-05
0.000134565
0.000186567
0.000181783
0.000327494
0.000125166
4.42829e-05
5.16238e-05
5.00795e-05
5.09199e-05
5.21409e-05
8.16044e-05
0.000265653
0.000280941
0.000188028
0.000143927
0.00024846
0.00228398
0.000631134
0.002359
0.000847051
0.000921833
0.0022036
0.000221191
0.000663191
0.00101561
0.00226009
0.000829331
0.00066764
0.000426192
0.00080495
0.00238638
0.000614564
0.000836157
0.00108339
0.00104275
0.000715634
0.00195147
0.000137302
0.000318427
0.000295053
0.000365623
0.000682523
0.000845279
0.000989212
0.000284996
0.000234805
0.00028469
0.000245725
0.000172543
0.000128491
0.000296727
0.000459946
0.000316305
0.000215867
0.000112477
0.000230897
8.79803e-05
9.06831e-05
0.000140129
0.000192247
0.000198375
0.000114823
0.000149184
0.00016455
0.000196434
0.000220198
0.000199188
0.000167169
0.000152344
0.000111345
0.000219768
0.000184716
8.39204e-05
8.65482e-05
6.06739e-05
6.80418e-05
7.05639e-05
0.000155485
0.00018131
0.000268521
0.00030773
0.000282002
6.91309e-05
5.08313e-05
3.85674e-05
4.67422e-05
4.74958e-05
4.10935e-05
8.48455e-05
0.000144722
0.000156378
0.000199868
9.37309e-05
0.000375661
0.00218044
0.000491145
0.00219968
0.000753952
0.000535325
0.00238459
0.000559493
0.000868168
0.000553556
0.00220687
0.000289932
0.000258222
0.000677734
0.00119618
0.00227786
0.000645005
0.000860517
0.000743268
0.000380985
0.000958277
0.00245871
0.000687458
0.000500453
0.000954446
0.00120527
0.000971363
0.000392747
0.00197189
0.000191713
0.000149066
0.000374937
0.000305212
0.000414183
0.000676167
0.000793145
0.00102479
0.000354475
0.000273613
0.000257369
0.000245652
0.000208662
0.000143135
0.000152827
0.000315876
0.000453441
0.000293607
0.000159811
0.000159954
0.000224927
0.000207035
0.000180879
8.76721e-05
0.000205799
0.00015536
0.000190099
0.000194901
8.80891e-05
0.000167397
0.000368373
0.000188745
0.000229255
0.000166951
0.000193627
0.0001538
0.000115511
0.00024573
0.000101153
0.000153254
9.27506e-05
7.54009e-05
0.000129711
6.42744e-05
0.000110085
0.000183376
0.000240068
0.000288404
0.000303948
0.000202355
3.52843e-05
7.29707e-05
4.62868e-05
3.42038e-05
4.87838e-05
5.05713e-05
4.58537e-05
5.25193e-05
0.000245427
0.00015794
0.000168437
8.56926e-05
0.00040443
0.00222795
0.000501921
0.00221534
0.000444031
0.00047314
0.0022604
0.000348505
0.000525585
0.000489992
0.00233029
0.000530381
0.000810356
0.000933585
0.000780143
0.00225089
0.000360013
0.000331426
0.000186548
0.000695872
0.00107399
0.00219659
0.00100474
0.000706824
0.000821666
0.00068167
0.000401097
0.000813754
0.00244873
0.000219404
0.000876562
0.000500968
0.000683437
0.00115616
0.000847655
0.000603793
0.00189991
0.000318753
0.000185165
0.000246593
0.000567474
0.000175336
0.000417222
0.000684908
0.000886854
0.00101854
0.000183778
0.000213877
0.000265359
0.000439497
0.000260865
0.000201056
0.00010877
0.000188177
0.000295263
0.000437941
0.000227291
0.000441062
0.000116831
0.000422452
0.000291991
0.000215438
0.000192
8.78852e-05
0.000189762
0.0001519
0.000182277
0.000186877
0.000165397
0.000175255
0.000122122
0.000204566
0.000141055
0.000296993
0.000121926
0.000219426
0.000148548
8.68447e-05
0.000244921
1.97202e-05
0.000109989
0.000197613
0.000205953
8.74844e-05
9.33236e-05
6.0483e-05
9.24611e-05
0.000167271
0.000314483
0.000315711
0.00032302
0.000162004
1.92098e-05
4.21154e-05
7.61986e-05
5.53493e-05
6.09734e-05
4.26728e-05
5.61596e-05
4.78586e-05
6.86465e-05
0.000251664
0.000216389
0.000191445
0.000115019
0.000338476
0.00223154
0.000471683
0.00226425
0.000524981
0.000402315
0.00220627
0.000489026
0.000451971
0.000555769
0.00223791
0.000448665
0.000633645
0.000620128
0.000503707
0.00237961
0.000417831
0.000388568
0.000539754
0.00107057
0.000671062
0.00222415
0.000404712
0.000290376
0.000276497
0.000233437
0.000722807
0.00130123
0.0022385
0.00086816
0.00107603
0.000774782
0.00083773
0.000747183
0.000312458
0.000942192
0.00236781
0.000351194
0.000248141
0.000867059
0.000498046
0.000594754
0.00108279
0.000914403
0.000823081
0.00197064
0.000243381
9.61037e-05
7.8561e-05
0.000366029
0.000303486
5.77038e-05
0.000375625
0.000730455
0.000808044
0.000911373
0.000258513
0.000222198
0.000275372
0.000214301
0.000368268
0.00035652
0.000193591
8.83989e-05
0.000160869
0.000298972
0.000429546
0.000143486
0.000518715
0.000406372
0.000294139
0.000163009
0.000281807
0.000252226
0.000171965
0.000101441
0.000189445
0.000171657
0.000176784
0.000144137
5.68922e-05
0.000264019
0.000330586
9.79422e-05
0.000203584
1.7436e-05
0.000256993
0.000286194
0.000180797
0.000142281
8.10144e-05
0.000260845
0.000115229
7.5082e-05
9.00766e-05
0.000219695
0.000187828
6.9253e-05
0.000108323
5.80471e-05
9.77222e-05
0.000138658
0.000278769
0.00037946
0.000376378
0.000273312
2.76694e-05
2.17522e-05
4.35262e-05
6.91324e-05
6.56348e-05
3.70282e-05
4.66927e-05
5.62344e-05
5.04124e-05
6.79999e-05
0.000317812
0.000268931
0.000182303
8.07549e-05
0.000360592
0.00226786
0.000360841
0.00222584
0.000392901
0.000400273
0.00226566
0.000515858
0.000406397
0.000481325
0.002234
0.000541107
0.000339661
0.000619795
0.000475863
0.00221331
0.000719109
0.000617229
0.000696231
0.000568936
0.000611858
0.00234499
0.000215065
0.000500984
0.00045575
0.000632619
0.00104256
0.000592733
0.0022106
0.000408919
0.000528642
0.00029957
0.00025853
0.000375002
0.000712482
0.00107818
0.00225955
0.00066412
0.00079578
0.00112242
0.000783067
0.00101495
0.00061042
0.000417296
0.000889326
0.0023698
0.000430813
0.00028682
0.000568307
0.000750106
0.000361594
0.000767034
0.000934762
0.00100641
0.000727047
0.00186309
0.000126781
0.000166669
6.70115e-05
0.000204626
0.000360303
0.000336848
0.000248676
0.000282927
0.000696206
0.000852626
0.00100472
0.000427583
0.000351572
0.000316444
0.000289115
0.000223691
0.000542916
0.000319761
0.0002362
8.91964e-05
0.000147636
0.000312573
0.000430468
0.000322975
0.000169248
0.000265167
0.000198202
0.000160633
9.34811e-05
0.000333419
0.000288598
0.000145986
9.38088e-05
0.000220546
0.000123525
0.000163209
0.000190899
0.000213839
0.000205627
0.000328818
0.000260307
8.98254e-05
0.000270054
8.40838e-05
0.000182365
0.000175517
0.000179255
0.000129897
8.26589e-05
0.000197139
0.00013086
8.66262e-05
0.000130019
9.57273e-05
0.000192612
0.000201514
6.66507e-05
0.000108284
4.88837e-05
0.000102944
0.00012963
0.000281909
0.000411041
0.000427486
0.000306106
4.10648e-05
2.46144e-05
1.31325e-05
4.91033e-05
6.10985e-05
6.85269e-05
2.44233e-05
5.77713e-05
5.90261e-05
5.41018e-05
6.90237e-05
0.000310176
0.000321774
0.000218687
6.76606e-05
0.000305728
0.00218685
0.00034545
0.00218106
0.000401951
0.000360651
0.00219299
0.000471317
0.000395148
0.000429462
0.00226953
0.000506589
0.000323324
0.000449598
0.000498195
0.00222683
0.000549746
0.000678745
0.000551181
0.000528599
0.000523981
0.00221547
0.000387754
0.000814429
0.00053087
0.000538868
0.00067667
0.000620498
0.00233161
0.000206884
0.000216964
0.000443696
0.000397354
0.000619761
0.00101759
0.000641686
0.00224736
0.000459277
0.000474548
0.000444855
0.000198103
0.000287236
0.00021132
0.000603196
0.00111175
0.00220126
0.000835918
0.000758936
0.000909827
0.000794753
0.000688475
0.000918762
0.000650523
0.000450813
0.000928576
0.00247352
0.000300066
0.00068764
0.000366083
0.000644723
0.000767421
0.000430929
0.000687859
0.00103156
0.00103508
0.000513932
0.00191234
0.000282474
0.000292937
0.000173814
9.99534e-05
0.000113242
0.000410588
0.000134516
0.000451106
0.000223644
0.000680461
0.000826845
0.000955444
0.000242795
0.000181882
0.000396829
0.00015817
0.000178615
0.000224277
0.000307615
0.000148453
0.000198705
7.48103e-05
0.00016692
0.000298263
0.000410839
0.000458854
0.000288481
0.000275781
0.000483463
0.000203217
0.000123535
8.13459e-05
0.00031497
0.000218119
0.000152316
9.91103e-05
0.00019978
0.000147927
0.000158434
0.000200039
0.000312034
0.00013492
0.000106886
0.000242483
0.000506383
8.89036e-05
0.000210117
0.000103145
0.000157645
0.000166124
0.000181891
0.000126208
0.000119825
0.000228729
0.000126934
0.000104487
8.65531e-05
3.44728e-05
0.000100844
0.000227894
8.34796e-05
7.52036e-05
9.31372e-05
5.94994e-05
9.79901e-05
0.000125585
0.000314024
0.000418984
0.000439901
0.000260985
3.79435e-05
3.85262e-05
2.1301e-05
3.99181e-05
6.06831e-05
5.37006e-05
4.946e-05
5.41176e-05
5.09805e-05
5.4979e-05
5.92101e-05
7.86422e-05
0.000247015
0.000309899
0.000162933
0.000193805
0.000278277
0.00216392
0.000399089
0.00218355
0.00042646
0.000443069
0.0021924
0.000163085
0.000295564
0.000352639
0.002276
0.000443939
0.000459792
0.000439021
0.000490407
0.00221041
0.000487525
0.000629109
0.000434741
0.00043542
0.000446825
0.00216885
0.000595592
0.000825484
0.000539274
0.000649414
0.000560817
0.000544248
0.00221982
0.00050109
0.000450508
0.000595291
0.000581799
0.000591835
0.000540865
0.000492583
0.00244183
0.000224049
0.00040934
0.000209082
0.000391912
0.000357492
0.000582594
0.00103979
0.000590836
0.00217226
0.000589715
0.000628682
0.000516545
0.000541421
0.000130886
0.00020724
0.000329072
0.000700655
0.00112847
0.00228046
0.00066399
0.00110807
0.000771441
0.000714158
0.000715319
0.000554787
0.000826655
0.000712656
0.000419317
0.000879033
0.00228721
0.000169656
0.000391877
0.000386884
0.000279626
0.000509834
0.000558411
0.000408538
0.000719089
0.000912969
0.000923894
0.000553579
0.0019504
0.000285895
0.000454909
0.000318996
9.78352e-05
0.000154762
0.000247894
0.000144384
0.000174711
0.000462119
0.000219534
0.000712822
0.000795993
0.000967815
0.000119121
0.000226254
0.00018392
0.000511189
0.000190229
0.000183726
0.000247973
0.000240804
0.000133989
0.000125295
6.65895e-05
0.000138803
0.00028851
0.000404566
0.000319885
8.81799e-05
0.0002165
0.000172947
0.000633801
0.000155018
0.000102303
0.000281451
0.00020168
0.000108785
0.000168524
8.7939e-05
0.000205608
0.000158587
0.000162897
8.0266e-05
0.000113689
0.000207168
0.000168699
0.000208119
0.000263994
0.000328451
0.000111285
0.000146084
5.61976e-05
0.00012456
0.000108906
0.000175312
0.00014567
0.000122005
0.000310668
7.62459e-05
0.000103652
0.000113505
8.08573e-05
0.00012468
0.000155066
0.000172405
0.000121997
8.8408e-05
8.49233e-05
9.62047e-05
0.000116037
0.000132063
0.000405818
0.000520007
0.000383214
0.000190746
3.07307e-05
3.03868e-05
3.96692e-05
3.1207e-05
4.0889e-05
6.43931e-05
4.82815e-05
4.65863e-05
4.24417e-05
5.59095e-05
5.39821e-05
6.60403e-05
0.000105676
0.000260473
0.000263184
0.000159926
0.00016342
0.000249024
0.00216885
0.000368986
0.00218418
0.000384335
0.000482369
0.00216283
0.000484343
0.000421566
0.000400856
0.00222467
0.000314522
0.000358045
0.000312011
0.000410791
0.00218446
0.00044563
0.000356051
0.000341755
0.00037004
0.000501938
0.0022712
0.000604606
0.000321082
0.000622391
0.000674338
0.000621405
0.000527457
0.00215862
0.000685095
0.000272507
0.00071245
0.000652435
0.00044632
0.000592526
0.000518894
0.0022114
0.000610814
0.000732422
0.000491232
0.000700631
0.000458467
0.000707481
0.000629038
0.000532484
0.00241982
9.50597e-05
0.000280381
0.000191605
0.000416103
0.000524481
0.000582734
0.000387924
0.000937358
0.00057449
0.00225634
0.000764915
0.000676394
0.000551938
0.000416181
0.000446141
0.000210852
0.000237224
0.000207232
0.000560539
0.00128707
0.00211127
0.000677439
0.000951348
0.00103793
0.000793642
0.000869604
0.000748959
0.000723059
0.000847049
0.000573776
0.000349403
0.000828161
0.00247253
0.000274327
0.000364869
0.000659472
0.000129921
0.000354752
0.00056799
0.000640751
0.000586336
0.000877131
0.0008783
0.000968257
0.000637052
0.00190451
0.000209818
0.000165932
0.00028894
0.000290804
5.70088e-05
0.00018959
0.000423488
0.000239215
0.00015682
0.000295562
0.000250583
0.000698025
0.0008483
0.000968865
0.000223899
0.000271638
0.000173784
0.000100242
0.000595216
0.000139745
0.000205663
0.000296546
0.000223659
0.00016634
0.000123546
7.76697e-05
0.000134151
0.00028505
0.000411546
0.000141374
0.000132711
0.000115705
7.13334e-05
0.000110807
0.000240701
0.00016783
0.000135839
0.00041821
0.000211993
0.000196424
0.000161665
8.44064e-05
0.000221476
0.000135601
0.00015997
0.000110226
7.20212e-05
8.81942e-05
0.000180297
0.000244109
0.000289241
0.000211542
0.000197777
0.000222151
0.000226395
0.000122068
0.000122443
9.47388e-05
0.000134506
0.000127274
0.000134916
0.000319194
6.19143e-05
7.89572e-05
4.54168e-05
0.000110901
0.000145248
0.000130239
0.000205714
0.00020156
9.54665e-05
0.000108512
7.54415e-05
0.00010894
0.000113448
0.000264139
0.000638051
0.000617658
0.00027641
0.00019617
2.29445e-05
3.15378e-05
3.35832e-05
5.08417e-05
3.85215e-05
5.82826e-05
3.23054e-05
5.03061e-05
4.1534e-05
3.15511e-05
5.40218e-05
5.82612e-05
6.92957e-05
0.000109229
0.00034425
0.000477656
0.000297057
0.00019231
0.000217209
0.00214615
0.00032003
0.0021413
0.000328895
0.000367113
0.00215551
0.000238735
0.000322947
0.000407322
0.00216629
0.000424259
0.000416007
0.000345722
0.00041205
0.00222699
0.000270995
0.0003719
0.000364719
0.000369553
0.000461872
0.00221727
0.000659492
0.000374107
0.000428972
0.000222874
0.000420786
0.000492129
0.00223754
0.00107947
0.000512464
0.000505211
0.000553048
0.000547274
0.000437392
0.000463961
0.00217846
0.000680051
0.000541731
0.000459964
0.000425547
0.000533383
0.000585023
0.000523863
0.000502708
0.0022668
0.000435523
0.000580882
0.000641485
0.000314671
0.000852954
0.000525699
0.000539569
0.000742788
0.000679403
0.00235084
0.000215877
0.000229285
0.000165092
0.000172972
0.000259005
0.000528198
0.000511868
0.00060994
0.000957627
0.000615553
0.00224867
0.000667349
0.000812979
0.000548949
0.000540989
0.000615368
0.000263652
0.000482498
0.000296426
0.000206771
0.000783896
0.00116217
0.00228976
0.000498792
0.000558494
0.0012025
0.000847803
0.000630578
0.00114676
0.000804033
0.000852294
0.00079208
0.000602049
0.000464069
0.000905046
0.00231873
0.000242596
0.000335452
0.000276846
0.000851389
0.00031724
0.000237252
0.000599548
0.000415779
0.000566418
0.000876091
0.000874432
0.000966808
0.00074411
0.00186977
0.000228688
0.000184217
0.000298847
0.000398033
0.000427269
0.000296519
0.000152646
0.000321845
0.000342807
0.000154057
0.000249462
0.000246796
0.000695839
0.000819459
0.000894391
0.000119503
0.000295951
0.000139179
0.000146673
0.000170936
0.000351496
0.000129389
0.000192745
0.000296023
0.000267808
0.000150763
0.000131855
7.44519e-05
0.000141941
0.000271174
0.000413538
0.000151071
0.000144928
0.00011881
0.000168405
0.000138865
0.00025383
0.000523764
0.00032574
0.000131312
0.000175487
0.000171725
0.000244403
0.000162607
9.47724e-05
0.000199822
0.000135705
0.00015594
0.000152707
0.000114212
6.03421e-05
0.000116986
0.000170746
0.000270307
0.000283422
0.000338207
0.000201885
0.000242775
0.00017913
0.00011472
0.000159259
0.000223626
0.000141665
0.00012635
0.000153696
0.000320484
5.63598e-05
7.02735e-05
7.00305e-05
9.90879e-05
0.000121461
9.23236e-05
0.000112807
0.000196981
0.000155856
2.23786e-05
0.000120688
7.49107e-05
9.18197e-05
0.000120173
0.000479275
0.000873579
0.000806284
0.000312709
0.000356694
2.73259e-05
2.53176e-05
3.83159e-05
3.10088e-05
4.42063e-05
2.3404e-05
7.41273e-05
4.63141e-05
5.0588e-05
3.43283e-05
5.78897e-05
4.91497e-05
5.97377e-05
7.22902e-05
0.000127209
0.000456961
0.000510744
0.000379894
0.000313148
0.000221062
0.00211294
0.000441371
0.00214261
0.000327839
0.000416802
0.00214786
0.000251079
0.00038979
0.000279934
0.00213003
0.000341098
0.000424211
0.000339165
0.0002953
0.0022041
0.000269417
0.00033169
0.000380221
0.000298464
0.000483252
0.00216582
0.000545019
0.00031066
0.000436565
0.000314114
0.000358473
0.000427452
0.00222861
0.000411297
0.000494586
0.000327288
0.000405576
0.00058644
0.000491892
0.000430379
0.00218518
0.000468273
0.000750551
0.000524456
0.000463468
0.000591246
0.000306778
0.000413963
0.000452745
0.002248
0.000596133
0.000385081
0.000795009
0.000540686
0.000636099
0.000539282
0.000675218
0.000470983
0.000441218
0.00224809
0.000511883
0.000274416
0.000887348
0.000528576
0.000386788
0.000561043
0.000729683
0.000448268
0.000803486
0.000623292
0.00237771
0.000100187
0.000160173
0.000147599
0.000326026
0.000289092
0.000137074
0.000636856
0.000440756
0.00058091
0.000871863
0.000634797
0.0020872
0.000739703
0.000660064
0.000627173
0.000933437
0.000588759
0.000581945
0.000285432
0.000301531
0.000303535
0.000259816
0.000626155
0.00120014
0.00228237
0.000872491
0.000765325
0.000894955
0.000959261
0.000744572
0.000553697
0.00107227
0.000731705
0.000709528
0.000914008
0.000634723
0.000418793
0.000895647
0.00232233
0.000341038
0.000182459
0.000711257
0.000396739
0.000559719
0.000426742
0.000329338
0.000731165
0.000440445
0.000691526
0.000863583
0.000839665
0.00100792
0.000658282
0.00184917
0.000221415
0.000248245
0.000365133
0.000352152
0.000158873
0.000337326
0.000324913
0.000123056
0.000320497
0.00027058
0.000130083
0.000181578
0.000243726
0.000661059
0.000779643
0.000947911
0.000152663
9.20448e-05
0.000140756
0.000189328
0.000456478
0.000149401
0.000387242
0.000222021
0.00018632
0.000385311
0.00013394
0.000146803
0.00012914
6.65023e-05
0.000148045
0.000265207
0.000400726
0.000177513
0.000187929
0.000145629
0.000116744
0.000218925
0.00024396
0.000168991
0.000320493
0.000624216
0.000175887
0.000160554
0.000145737
0.000201978
0.000161746
0.000115937
0.000196147
0.000139889
0.0001571
9.72485e-05
0.000139071
9.35182e-05
0.000189399
8.66539e-05
0.000321309
0.000294906
0.000177747
0.000202244
0.000350917
0.000155245
0.000164357
7.18214e-05
0.000204622
0.000179616
0.000216576
0.000142235
0.00016065
0.000287373
6.68564e-05
4.61361e-05
5.86085e-05
8.20974e-05
0.000146848
0.000104603
7.71793e-05
8.6331e-05
0.000170124
0.000160607
0.000174519
0.000121529
7.92722e-05
7.35394e-05
0.000134968
0.000641823
0.000866352
0.00104285
0.000525736
0.000309539
2.03154e-05
2.89433e-05
1.91728e-05
6.14227e-05
3.49496e-05
3.57511e-05
2.72358e-05
6.73309e-05
7.35439e-05
6.32086e-05
4.45341e-05
4.86003e-05
5.04159e-05
4.93577e-05
6.49e-05
0.000135185
0.00037418
0.000404296
0.000445611
0.000421525
0.000237926
0.0020886
0.000307969
0.00213126
0.000210839
0.000277604
0.00212498
0.000399319
0.000244284
0.000325845
0.00211648
0.00053519
0.000301907
0.000332029
0.000390788
0.00214684
0.000412938
0.000178053
0.00036555
0.000266257
0.000522916
0.00215151
0.000486691
0.000304364
0.000598204
0.000354307
0.000377787
0.000362755
0.00222261
0.000341231
0.00037162
0.000417354
0.000408959
0.000269811
0.000411029
0.000383055
0.00214618
0.000263626
0.000449402
0.00060237
0.000376697
0.000244875
0.000428442
0.000373492
0.000433631
0.00223337
0.000690908
0.000460248
0.000587243
0.000568833
0.000438199
0.000459134
0.000504957
0.000446807
0.00035851
0.00220848
0.000613144
0.000552
0.000859661
0.000621444
0.000446179
0.000694603
0.000645188
0.000499009
0.000477521
0.000658533
0.00219986
0.000563982
0.000585633
0.000393105
0.000509592
0.000508103
0.000496686
0.000642081
0.000534706
0.000620339
0.000677497
0.000601422
0.00239691
0.000212769
0.000236983
0.000159841
0.000285844
0.000256559
0.000260211
8.68872e-05
0.000423116
0.000391847
0.00057645
0.00101385
0.000641842
0.00229424
0.000923814
0.000860936
0.000697602
0.000992762
0.000611819
0.000605604
0.000300199
0.000365676
0.000280074
0.000459976
0.000167035
0.000617254
0.00103325
0.00218758
0.000594223
0.000790034
0.000976309
0.000970839
0.00099425
0.000638237
0.000847784
0.000979964
0.000801039
0.00080086
0.00116576
0.000707936
0.0004439
0.000932049
0.00240284
0.000196699
0.000245106
0.000392389
0.000272142
0.000230393
0.000267192
0.000555414
0.000455281
0.000650061
0.000598109
0.000546188
0.000749706
0.000882871
0.000968441
0.00051084
0.00176252
0.000228909
0.000194794
0.000198537
0.000326384
0.00020262
0.000257858
0.000287367
0.000464188
0.000198746
0.000236875
0.000151934
0.000136928
0.000190449
0.000207605
0.000632039
0.000764903
0.000911734
0.000181761
0.000293146
0.00021404
0.000170255
0.000180432
0.000388796
0.000284918
0.000356847
0.000225682
0.000134169
0.000217555
0.000161221
0.000118944
0.00016405
9.68866e-05
0.000154993
0.000260678
0.000417726
0.000121673
0.000190128
0.00024013
6.87268e-05
0.000131133
0.000305223
0.000304967
0.000186751
0.000450491
0.00032678
0.000146754
0.000223968
8.13499e-05
0.000185137
7.28184e-05
0.000124256
0.000193808
0.000142067
0.000165019
3.12463e-05
8.29354e-05
0.000104086
0.000133996
5.94192e-05
7.32867e-05
0.000221322
0.000210144
0.000276626
0.000126187
0.000187741
0.000159238
0.000141376
4.5506e-05
0.000177194
0.000169332
0.000299629
0.000191525
0.000136178
0.000281283
4.56964e-05
3.83336e-05
4.73295e-05
6.02431e-05
8.29605e-05
0.000138368
8.0644e-05
3.78594e-05
0.000144173
0.000138782
9.80313e-05
0.000105164
0.00011562
8.61519e-05
6.54772e-05
0.000217256
0.00071777
0.000639424
0.00109147
0.000814092
0.000191714
2.53462e-05
2.19497e-05
2.87238e-05
1.41427e-05
5.66745e-05
3.51862e-05
3.33698e-05
2.88778e-05
6.48686e-05
6.03053e-05
6.01078e-05
3.51472e-05
6.56418e-05
5.23829e-05
5.73412e-05
6.08865e-05
0.000131485
0.000387951
0.000568473
0.00055757
0.000553545
0.000143565
0.00207319
0.000299011
0.00210194
0.000259383
0.000286266
0.00210361
0.0002841
0.00033543
0.000368679
0.00210847
0.000344945
0.000228452
0.000302098
0.000343363
0.00215253
0.000359266
0.000142079
0.000438283
0.00034271
0.000273096
0.00216262
0.000584792
0.000316794
0.000496748
0.00028168
0.000284154
0.000471677
0.00213741
0.000328052
0.000231964
0.000278995
0.000237038
0.000278908
0.000328993
0.000356298
0.00218799
0.000480535
0.000493096
0.000381284
0.000493663
0.000300431
0.000242386
0.000348772
0.000467301
0.0022491
0.00048039
0.000199151
0.000371768
0.000643418
0.00045965
0.00040871
0.000514709
0.00037325
0.000454593
0.00222137
0.000546464
0.000537233
0.00062356
0.0006813
0.000649585
0.000368885
0.000555541
0.000454947
0.000438047
0.000448101
0.00215998
0.000805703
0.000576593
0.000599834
0.000891715
0.000577441
0.000426782
0.000709321
0.000622175
0.000579719
0.000617681
0.000488106
0.00219858
0.000699438
0.000432142
0.000494928
0.000343793
0.000615081
0.000528768
0.000442453
0.000658668
0.000562298
0.000472684
0.000573007
0.000628888
0.00230837
0.000143636
0.000299632
0.000232987
0.000421683
0.000124411
0.00023036
0.00028266
0.000184288
0.000541844
0.000484017
0.000669953
0.000911642
0.000755131
0.00236812
0.00101922
0.000943466
0.000928402
0.000802895
0.00103319
0.000574401
0.000781144
0.000579193
0.000555581
0.000250868
0.000221148
0.000204848
0.000825476
0.00132101
0.00225982
0.000427172
0.000776134
0.000701405
0.000751651
0.00072863
0.000740142
0.000951564
0.000891908
0.00104522
0.000812282
0.000652779
0.00114175
0.000707757
0.000507719
0.000728895
0.00235977
0.000191027
0.000390111
0.000344092
0.00025894
0.000187298
0.000324094
0.000307053
0.000307326
0.000370776
0.000451597
0.000583548
0.000551545
0.000815845
0.000843102
0.000954303
0.000546451
0.00186614
0.000184793
0.000225922
0.000486796
0.000245664
0.000405332
0.000269429
0.000172946
0.00040909
0.000236713
0.000263078
0.000310035
0.000181258
0.000135447
0.000169199
0.000121645
0.000623743
0.000744634
0.000886884
0.000168154
0.000188046
0.000194421
0.000325278
0.000355853
0.000392397
0.000394628
9.52215e-05
0.00047316
0.000234645
0.000110989
0.000190659
0.000115789
6.73141e-05
0.000419742
0.00011006
0.000141606
0.000259232
0.000432254
2.77664e-05
0.000129825
0.00022788
7.40727e-05
0.000146314
0.000245177
0.000280044
0.000601115
0.000104884
0.000486001
0.00016913
0.000266613
0.000180517
9.26064e-05
0.000222294
0.000184684
9.52559e-05
0.000185529
0.000141653
0.000165848
4.83714e-05
2.81516e-05
7.61338e-05
9.55316e-05
0.000120914
0.000145781
0.000198487
0.000163555
5.49451e-05
0.000126126
0.000179368
0.000108803
0.000171837
0.000161809
3.59483e-05
0.000119764
0.000214675
0.000356089
0.0002446
0.000120402
0.000248469
4.23675e-05
3.42929e-05
4.63306e-05
3.79663e-05
6.73412e-05
0.000120918
0.000110908
7.57909e-05
0.00017015
0.000159241
0.000143891
0.000108512
4.32059e-05
9.47382e-05
8.57977e-05
7.69488e-05
0.000374326
0.000668963
0.000718613
0.00101653
0.000998556
0.000280902
0.000281824
3.63962e-05
2.68813e-05
2.71767e-05
2.60543e-05
1.7253e-05
5.73379e-05
3.72382e-05
3.51829e-05
2.24179e-05
5.61511e-05
5.12271e-05
5.52585e-05
2.82148e-05
4.47276e-05
5.05125e-05
5.86616e-05
7.3347e-05
0.000173387
0.000425678
0.000456344
0.000496233
0.000710475
0.000226491
0.00204421
0.000325555
0.00206537
0.000248033
0.000345547
0.00210593
0.000283574
0.00025996
0.000325917
0.00214249
0.000261045
0.000232096
0.000278097
0.000353585
0.0020836
0.000276138
0.000540238
0.000432677
0.000394773
0.000394301
0.00213186
0.000344882
0.000312099
0.00011904
0.000246852
0.000217567
0.000400488
0.00217723
0.000304704
0.000365883
0.000406953
0.000503731
0.000372935
0.000321686
0.000289603
0.00215561
0.000514508
0.000571166
0.000230182
0.000298286
0.000512145
0.000410288
0.000426485
0.000383753
0.00214892
0.000488774
0.00022951
0.000384512
0.000416575
0.000467954
0.000103795
0.000233503
0.000318042
0.000430409
0.00222955
0.000542852
0.000631515
0.000834422
0.00029756
0.000688468
0.000330579
0.000418916
0.000398823
0.000396286
0.00044328
0.00223395
0.000751658
0.000690317
0.000481185
0.000403656
0.000717362
0.00036487
0.000745841
0.000750585
0.000556493
0.000517522
0.000604375
0.00215319
0.000719859
0.000692689
0.000554297
0.000483238
0.000545141
0.000568787
0.000512603
0.000488701
0.000380477
0.000559075
0.000544449
0.000443132
0.00223064
0.000547724
0.000654397
0.000500905
0.000378698
0.000551523
0.000698198
0.000621271
0.000384939
0.000671585
0.000504078
0.000650945
0.000641838
0.000619908
0.00233985
0.000488425
0.000220434
0.000337045
0.000293396
0.000209757
0.00020897
0.000101479
0.000338932
0.000196396
0.000423999
0.000502874
0.000547942
0.00112777
0.000584996
0.00230884
0.00109144
0.00116694
0.000924636
0.000892378
0.000929343
0.000561775
0.000712979
0.000661786
0.000432648
0.000543787
0.000177222
0.000265776
0.000183761
0.000593096
0.00133543
0.00210649
0.000452855
0.000594809
0.000781005
0.000766594
0.000736606
0.000656423
0.000879693
0.000888573
0.000769191
0.000706614
0.000824283
0.000581958
0.000947659
0.00066825
0.00048025
0.000603791
0.00233924
8.90381e-05
0.000408807
0.00042726
0.000188136
0.000533307
0.000221192
0.000263698
0.000598533
0.000228205
0.000444823
0.000386845
0.000457785
0.000647795
0.000723028
0.000801143
0.00095881
0.000678332
0.00190788
0.000140959
0.000131424
0.000207972
0.000418992
0.000154453
0.000456427
0.000410942
0.000191549
0.000435805
0.000202233
0.000428395