/*--------------------------------*- C++ -*----------------------------------*\
  =========                 |
  \\      /  F ield         | OpenFOAM: The Open Source CFD Toolbox
   \\    /   O peration     | Website:  https://openfoam.org
    \\  /    A nd           | Version:  7
     \\/     M anipulation  |
\*---------------------------------------------------------------------------*/
FoamFile
{
    version     2.0;
    format      ascii;
    class       volScalarField;
    location    "1";
    object      p;
}
// * * * * * * * * * * * * * * * * * * * * * * * * * * * * * * * * * * * * * //

dimensions      [0 2 -2 0 0 0 0];

internalField   nonuniform List<scalar> 
18750
(
-74.9061
-75.4773
-74.8999
-75.0105
-74.9713
-75.2764
-75.4636
-75.0804
-74.8649
-75.0223
-75.2751
-75.297
-74.9682
-75.3507
-75.2451
-75.5126
-75.5007
-75.0092
-74.7965
-74.9701
-75.2403
-75.4951
-75.2944
-75.1746
-75.2928
-74.9674
-75.7037
-75.3445
-75.2182
-75.5467
-75.4379
-75.5037
-75.0102
-74.7639
-75.0222
-75.5047
-75.506
-75.2387
-75.5434
-75.488
-75.3239
-75.4689
-75.1895
-75.2928
-74.9732
-75.5766
-75.678
-75.3776
-75.2121
-75.5316
-75.6568
-75.4417
-75.4751
-75.0773
-74.7928
-75.1291
-75.1777
-75.7432
-75.4227
-75.5279
-75.515
-75.2333
-75.6657
-75.5284
-75.4831
-75.3554
-75.6125
-75.4695
-75.2115
-75.2943
-74.9693
-75.7025
-75.5554
-75.6512
-75.3935
-75.2111
-75.5721
-75.7277
-75.659
-75.4506
-75.4134
-75.1663
-74.8703
-75.1169
-74.2587
-75.9232
-75.1162
-75.7492
-75.7093
-75.3499
-75.6801
-75.5466
-75.5256
-75.2563
-75.7576
-75.6715
-75.5264
-75.4892
-75.3857
-75.7602
-75.6033
-75.4702
-75.2307
-75.3002
-74.971
-75.8251
-75.6918
-75.538
-75.6201
-75.3823
-75.2236
-75.6137
-75.8403
-75.7245
-75.6615
-75.4644
-75.3693
-75.2024
-74.9581
-75.1942
-73.6775
-74.9119
-74.4027
-75.9275
-75.9833
-75.0423
-75.8759
-75.8414
-75.6476
-75.3923
-75.7738
-75.6894
-75.5643
-75.5447
-75.2924
-75.8789
-75.7378
-75.6714
-75.5217
-75.4983
-75.4172
-75.8447
-75.7527
-75.604
-75.4711
-75.2427
-75.3085
-74.9745
-75.9306
-75.8221
-75.6814
-75.5177
-75.5792
-75.3522
-75.2346
-75.6068
-76.0411
-75.8416
-75.723
-75.6676
-75.4794
-75.3387
-75.2302
-74.9888
-75.3325
-73.1765
-73.8635
-73.7097
-75.3101
-75.0808
-74.4027
-76.0085
-75.9348
-75.9858
-75.1008
-75.9281
-75.8795
-75.8701
-75.6422
-75.4386
-75.9113
-75.7853
-75.6973
-75.582
-75.5728
-75.331
-75.8979
-75.8836
-75.72
-75.6704
-75.5105
-75.5043
-75.4432
-76.0087
-75.8397
-75.7387
-75.6021
-75.4723
-75.2534
-75.3123
-74.9721
-76.111
-75.9259
-75.8181
-75.6705
-75.4922
-75.5396
-75.3289
-75.2325
-75.5916
-76.0866
-76.0394
-75.8427
-75.7229
-75.6737
-75.4858
-75.306
-75.2709
-74.9846
-75.3414
-72.5733
-73.3757
-73.2164
-74.5015
-73.9441
-73.7816
-75.8483
-75.319
-75.0184
-74.3988
-75.9701
-75.9586
-75.9975
-76.0479
-75.1277
-75.9628
-75.9335
-75.8756
-75.815
-75.7269
-75.4892
-75.9612
-75.909
-75.7964
-75.7082
-75.6045
-75.6018
-75.3617
-76.0962
-75.8849
-75.8924
-75.7035
-75.6754
-75.5163
-75.5118
-75.4667
-76.0996
-76.012
-75.8403
-75.7207
-75.5906
-75.4703
-75.2659
-75.3141
-74.9864
-76.2122
-76.1033
-75.9195
-75.8144
-75.6602
-75.4635
-75.5001
-75.3202
-75.2342
-75.5685
-76.3602
-76.0878
-76.0375
-75.8435
-75.723
-75.6758
-75.5029
-75.2901
-75.2949
-74.9878
-75.3548
-72.1597
-72.7811
-72.5929
-73.5554
-73.2881
-73.2468
-74.6478
-74.433
-74.0035
-73.7487
-75.9182
-75.7927
-75.267
-74.9696
-74.4314
-76.08
-75.9568
-75.9252
-76.0681
-76.1394
-75.1306
-76.1116
-75.988
-75.9378
-75.8735
-75.8339
-75.819
-75.5104
-76.1045
-75.9714
-75.9117
-75.8051
-75.7234
-75.6237
-75.6211
-75.3963
-76.1492
-76.0875
-75.8649
-75.9102
-75.6862
-75.6675
-75.5179
-75.5171
-75.4761
-76.2518
-76.0942
-75.9993
-75.8465
-75.7016
-75.5798
-75.458
-75.2718
-75.3096
-75.0056
-76.2604
-76.1817
-76.0957
-75.9121
-75.811
-75.6497
-75.4321
-75.4617
-75.2954
-75.2416
-75.521
-76.3699
-76.3522
-76.0918
-76.0354
-75.844
-75.7234
-75.6767
-75.5263
-75.2853
-75.2745
-74.9893
-75.4182
-71.7523
-72.1992
-72.2099
-72.7963
-72.7182
-72.6001
-73.6868
-73.5275
-73.4248
-73.2341
-74.9593
-74.7065
-74.4707
-74.0614
-73.817
-76.0147
-75.908
-75.6787
-75.2817
-74.9412
-74.3939
-75.8923
-76.1327
-75.9744
-75.8962
-76.1499
-76.2781
-75.1637
-76.1447
-76.0997
-76.008
-75.9253
-75.8729
-75.85
-75.8251
-75.5322
-76.1271
-76.0857
-75.9798
-75.9225
-75.8129
-75.7408
-75.638
-75.6338
-75.4267
-76.2495
-76.1454
-76.0858
-75.8239
-75.915
-75.6648
-75.6571
-75.4933
-75.5222
-75.4785
-76.3487
-76.2196
-76.0836
-75.9827
-75.8558
-75.6847
-75.58
-75.4408
-75.2695
-75.3045
-75.0172
-76.4098
-76.2687
-76.1444
-76.0886
-75.9041
-75.8064
-75.6375
-75.4035
-75.4161
-75.2622
-75.254
-75.4603
-76.4256
-76.3681
-76.3437
-76.0966
-76.0331
-75.8444
-75.7237
-75.6776
-75.5447
-75.2911
-75.201
-74.983
-75.4345
-71.4473
-71.7908
-71.7732
-72.2786
-72.2084
-72.1634
-72.979
-72.828
-72.7407
-72.662
-73.858
-73.6691
-73.4986
-73.5222
-73.2309
-75.2521
-74.9482
-74.7055
-74.5886
-74.0869
-73.8118
-75.9089
-75.9684
-75.9179
-75.6611
-75.3055
-75.0271
-74.436
-76.1604
-75.8474
-76.1288
-76.1218
-75.9717
-76.1484
-76.252
-75.2108
-76.2528
-76.1762
-76.0985
-75.9506
-75.9862
-75.8932
-75.8485
-75.794
-75.5844
-76.3476
-76.1625
-76.0818
-75.9688
-75.9429
-75.821
-75.7544
-75.652
-75.6507
-75.4541
-76.4921
-76.2614
-76.1461
-76.0633
-75.8363
-75.8828
-75.6436
-75.6612
-75.4738
-75.5279
-75.4854
-76.4396
-76.3798
-76.1646
-76.0792
-75.9755
-75.8713
-75.6711
-75.5857
-75.4289
-75.267
-75.299
-75.0262
-76.5438
-76.4003
-76.2765
-76.0992
-76.0799
-75.8985
-75.8007
-75.6269
-75.3787
-75.3623
-75.2301
-75.2725
-75.3702
-76.6232
-76.4262
-76.3658
-76.3345
-76.1006
-76.031
-75.8467
-75.7241
-75.6783
-75.5695
-75.3083
-75.1596
-74.9721
-75.3769
-71.1396
-71.4522
-71.4499
-71.7918
-71.8227
-71.7563
-72.3535
-72.3021
-72.1911
-72.2338
-73.012
-72.9726
-72.8099
-72.7479
-72.6637
-74.0736
-73.8746
-73.7905
-73.4489
-73.6166
-73.2568
-75.5051
-75.2306
-75.0065
-74.6917
-74.6138
-74.0001
-73.7493
-76.2685
-75.7923
-75.9652
-76.0322
-75.6895
-75.3603
-74.9816
-74.4776
-76.1895
-76.201
-75.8926
-76.184
-76.1452
-76.0864
-76.1267
-76.2614
-75.141
-76.4167
-76.2994
-76.1698
-76.1118
-76.1088
-76.0111
-75.8979
-75.81
-75.8294
-75.7085
-76.4277
-76.3685
-76.1747
-76.1081
-76.0207
-76.0296
-75.8266
-75.767
-75.6708
-75.6678
-75.4764
-76.5046
-76.4409
-76.2855
-76.1566
-76.0497
-75.8671
-75.8438
-75.6229
-75.6617
-75.4573
-75.5297
-75.4881
-76.6199
-76.4239
-76.39
-76.1195
-76.0779
-75.952
-75.872
-75.6674
-75.5764
-75.42
-75.2634
-75.2888
-75.0365
-76.655
-76.5383
-76.3889
-76.3161
-76.0875
-76.0732
-75.8928
-75.7967
-75.6158
-75.3558
-75.3151
-75.1983
-75.2982
-75.3528
-76.7224
-76.6247
-76.427
-76.3626
-76.3257
-76.1053
-76.0289
-75.8469
-75.7244
-75.6793
-75.5944
-75.3258
-75.16
-74.9563
-75.2807
-70.8473
-71.1469
-71.2085
-71.4462
-71.496
-71.4306
-71.8085
-71.8172
-71.7955
-71.7729
-72.3495
-72.3667
-72.3004
-72.2064
-72.2566
-73.0776
-73.0689
-72.9921
-72.8046
-72.7973
-72.6132
-74.2996
-74.1158
-74.0097
-73.742
-73.4943
-73.5716
-73.2604
-75.6628
-75.4313
-75.295
-75.0902
-74.7137
-74.5813
-74.1136
-73.7569
-76.3188
-76.2957
-75.8853
-76.093
-76.0354
-75.7518
-75.3121
-74.9771
-74.4875
-76.3369
-76.1406
-76.1469
-75.9838
-76.2548
-76.1654
-76.2009
-76.1473
-76.2883
-75.1982
-76.4688
-76.4167
-76.3171
-76.1357
-76.1251
-76.1368
-75.9161
-75.9171
-75.8345
-75.8835
-75.6588
-76.5745
-76.4296
-76.37
-76.1914
-76.0935
-76.0112
-76.0407
-75.8214
-75.7762
-75.6858
-75.6818
-75.4969
-76.6567
-76.508
-76.4238
-76.2928
-76.1631
-76.0412
-75.8775
-75.8175
-75.6077
-75.6599
-75.4433
-75.533
-75.4905
-76.6849
-76.6202
-76.3975
-76.4052
-76.1563
-76.076
-75.9304
-75.8425
-75.6787
-75.5624
-75.4045
-75.2531
-75.2737
-75.0545
-76.7526
-76.645
-76.5353
-76.3798
-76.3129
-76.1034
-76.0651
-75.8869
-75.7927
-75.6045
-75.3234
-75.2687
-75.1651
-75.3315
-75.4299
-76.8207
-76.7182
-76.6262
-76.4272
-76.3591
-76.3164
-76.1119
-76.0268
-75.8469
-75.7248
-75.6806
-75.6161
-75.3531
-75.1586
-74.951
-75.1969
-70.6731
-70.8781
-70.9267
-71.1766
-71.1762
-71.1734
-71.4908
-71.4449
-71.4948
-71.434
-71.8544
-71.8873
-71.8102
-71.7866
-71.8151
-72.5011
-72.4146
-72.2579
-72.3338
-72.2326
-72.2658
-73.4357
-73.1682
-73.0044
-73.058
-72.7584
-72.8462
-72.6133
-74.5755
-74.3793
-74.1565
-73.9906
-73.7249
-73.5058
-73.6486
-73.276
-75.8912
-75.7012
-75.4437
-75.3389
-75.1128
-74.7523
-74.6537
-74.118
-73.7742
-76.3497
-76.289
-76.1654
-76.0811
-76.211
-76.0948
-75.8163
-75.3303
-74.99
-74.3432
-76.4032
-76.294
-76.1557
-76.0963
-76.0279
-76.2502
-76.2442
-76.2809
-76.1796
-76.3474
-75.2424
-76.603
-76.4388
-76.4099
-76.3147
-76.1423
-76.1485
-76.1612
-75.8378
-75.9124
-75.8428
-75.9829
-75.7193
-76.6421
-76.6159
-76.4376
-76.4211
-76.2451
-76.1227
-75.9935
-75.994
-75.8108
-75.7838
-75.6956
-75.6874
-75.5108
-76.7127
-76.6545
-76.4844
-76.4187
-76.285
-76.1666
-76.056
-75.872
-75.7985
-75.5964
-75.6422
-75.4354
-75.5368
-75.4924
-76.7767
-76.669
-76.6156
-76.3891
-76.3468
-76.1636
-76.0708
-75.9326
-75.8298
-75.6887
-75.5511
-75.3878
-75.2371
-75.2543
-75.0567
-76.8526
-76.7442
-76.6361
-76.5319
-76.3721
-76.278
-76.1116
-76.0578
-75.8808
-75.7874
-75.5953
-75.2898
-75.2191
-75.1393
-75.3737
-75.525
-76.9335
-76.821
-76.7133
-76.6278
-76.4273
-76.3558
-76.3085
-76.1186
-76.025
-75.8467
-75.7257
-75.6815
-75.6398
-75.4021
-75.1506
-74.9541
-75.124
-70.529
-70.6775
-70.6931
-70.907
-70.8853
-70.9454
-71.2149
-71.1863
-71.214
-71.1405
-71.4713
-71.4805
-71.4613
-71.4737
-71.4705
-71.996
-71.8895
-71.8441
-71.8337
-71.7781
-71.8361
-72.7506
-72.4171
-72.3206
-72.3322
-72.32
-72.2408
-72.2222
-73.4584
-73.4826
-73.186
-73.0422
-73.0372
-72.8291
-72.879
-72.643
-74.8164
-74.5164
-74.425
-74.094
-74.0647
-73.7845
-73.4778
-73.6719
-73.3621
-76.2361
-75.8795
-75.7807
-75.5655
-75.4814
-75.2077
-74.7091
-74.6967
-74.1229
-73.8032
-76.5516
-76.2231
-76.2324
-76.2141
-76.1709
-76.2172
-76.1888
-75.8242
-75.3182
-75.026
-74.4394
-76.6094
-76.3164
-76.3985
-76.2223
-76.0671
-76.1716
-76.181
-76.2574
-76.424
-76.2718
-76.3775
-75.2332
-76.6262
-76.551
-76.3511
-76.4225
-76.317
-76.1414
-76.1006
-76.1378
-75.8178
-75.8985
-75.8419
-75.9392
-75.7099
-76.7424
-76.6464
-76.5944
-76.3532
-76.3344
-76.2537
-76.1136
-75.9941
-75.9622
-75.798
-75.7883
-75.7013
-75.6947
-75.5188
-76.8132
-76.7204
-76.6593
-76.4811
-76.3567
-76.2465
-76.1659
-76.0339
-75.869
-75.7813
-75.5964
-75.6202
-75.4286
-75.5388
-75.492
-76.8943
-76.7814
-76.6642
-76.5957
-76.4024
-76.3101
-76.1653
-76.0651
-75.9202
-75.8247
-75.6934
-75.5385
-75.3676
-75.2157
-75.2324
-75.0549
-76.9746
-76.85
-76.7374
-76.6263
-76.5236
-76.3638
-76.2735
-76.1209
-76.052
-75.8747
-75.7833
-75.5875
-75.2622
-75.1729
-75.1234
-75.4219
-75.6251
-77.0196
-76.9331
-76.8212
-76.708
-76.6299
-76.4285
-76.3532
-76.3006
-76.1253
-76.0229
-75.8464
-75.7257
-75.6821
-75.6511
-75.4493
-75.1403
-74.9702
-75.0613
-70.3796
-70.4995
-70.5122
-70.6983
-70.7003
-70.7234
-70.9114
-70.9397
-70.9318
-70.9089
-71.2327
-71.1776
-71.207
-71.2017
-71.1782
-71.5992
-71.4777
-71.5308
-71.4737
-71.4124
-71.4603
-72.1136
-71.9351
-71.8845
-71.8452
-71.8516
-71.8191
-71.8296
-72.6885
-72.7407
-72.4877
-72.3633
-72.3596
-72.3174
-72.3022
-72.2505
-73.7303
-73.5169
-73.5369
-73.1833
-73.0649
-73.0962
-72.7826
-72.9082
-72.6522
-75.0952
-74.8141
-74.5759
-74.4137
-74.0003
-74.0689
-73.8483
-73.5066
-73.6959
-73.3501
-76.3266
-76.1663
-75.9353
-75.7906
-75.7186
-75.4831
-75.1972
-74.7631
-74.6957
-74.0517
-73.861
-76.6597
-76.4504
-76.2427
-76.2961
-76.1476
-76.2585
-76.1443
-76.0858
-75.8977
-75.4191
-74.9695
-74.3493
-76.6535
-76.5841
-76.3169
-76.437
-76.2227
-76.0557
-76.0962
-76.1178
-76.2532
-76.4906
-76.2633
-76.3476
-75.313
-76.7612
-76.6329
-76.531
-76.3442
-76.3728
-76.3239
-76.1353
-76.0775
-76.0488
-75.81
-75.8867
-75.8344
-75.8945
-75.7142
-76.8445
-76.7155
-76.6566
-76.5798
-76.3557
-76.276
-76.2727
-76.1106
-75.9965
-75.9351
-75.782
-75.788
-75.7036
-75.6956
-75.5222
-76.9526
-76.8092
-76.7075
-76.6407
-76.4871
-76.3643
-76.2307
-76.1676
-76.0047
-75.8758
-75.7525
-75.5898
-75.599
-75.4197
-75.5403
-75.489
-76.9932
-76.8941
-76.7741
-76.656
-76.5583
-76.4174
-76.298
-76.1622
-76.0581
-75.9046
-75.8159
-75.6898
-75.5226
-75.3468
-75.189
-75.2062
-75.0597
-77.0532
-76.9706
-76.8491
-76.7321
-76.6173
-76.514
-76.3556
-76.2626
-76.1334
-76.0469
-75.8673
-75.779
-75.5808
-75.2521
-75.1324
-75.1318
-75.4781
-75.7184
-77.1791
-77.0184
-76.9325
-76.8213
-76.703
-76.6279
-76.4302
-76.3514
-76.2937
-76.1313
-76.0212
-75.8458
-75.7256
-75.6819
-75.6389
-75.4681
-75.1476
-74.9944
-74.9972
-70.2512
-70.3746
-70.3701
-70.5185
-70.524
-70.5376
-70.7148
-70.727
-70.7168
-70.7297
-70.9971
-70.9165
-70.9515
-70.9224
-70.9062
-71.3051
-71.1926
-71.2166
-71.2158
-71.1584
-71.1864
-71.6515
-71.5924
-71.5165
-71.4745
-71.4587
-71.4681
-71.4879
-72.1237
-72.1418
-71.9692
-71.841
-71.8588
-71.8559
-71.8164
-71.8179
-72.9242
-72.6031
-72.666
-72.5199
-72.4268
-72.3626
-72.3778
-72.3337
-72.2286
-74.0343
-73.6747
-73.5
-73.5967
-73.1362
-72.9637
-73.1684
-72.753
-72.8928
-72.7168
-75.2583
-75.1175
-74.8535
-74.5638
-74.4808
-74.0534
-74.0032
-73.8648
-73.6048
-73.6526
-73.3454
-76.5694
-76.245
-76.1008
-76.0224
-75.7561
-75.6918
-75.4577
-75.2882
-74.7906
-74.6683
-74.1013
-73.7593
-76.8153
-76.583
-76.3063
-76.3974
-76.3737
-76.1034
-76.269
-76.1117
-75.9511
-75.9758
-75.3753
-74.9236
-74.4114
-76.7454
-76.6001
-76.5501
-76.3104
-76.4413
-76.2118
-76.0559
-76.0976
-76.0568
-76.1658
-76.5138
-76.2037
-76.2701
-75.2636
-76.8111
-76.7169
-76.659
-76.5415
-76.3997
-76.3155
-76.3144
-76.1257
-76.0399
-76.0313
-75.806
-75.8686
-75.8532
-75.9175
-75.7865
-76.9769
-76.8098
-76.6908
-76.6653
-76.5842
-76.3665
-76.2713
-76.3008
-76.081
-75.99
-75.9117
-75.7702
-75.7829
-75.7014
-75.6939
-75.5142
-77.0407
-76.9537
-76.8015
-76.7071
-76.6318
-76.4841
-76.3669
-76.2397
-76.165
-75.9858
-75.8815
-75.7258
-75.5782
-75.5785
-75.414
-75.5414
-75.483
-77.0749
-76.9915
-76.8899
-76.7699
-76.6378
-76.5185
-76.3916
-76.286
-76.1616
-76.0531
-75.9045
-75.8115
-75.6782
-75.5062
-75.3262
-75.1574
-75.1721
-75.0658
-77.1622
-77.0491
-76.9664
-76.8459
-76.7261
-76.6084
-76.5051
-76.3459
-76.2499
-76.1444
-76.0432
-75.8597
-75.7727
-75.5746
-75.2527
-75.099
-75.1341
-75.5408
-75.798
-77.2766
-77.178
-77.0173
-76.9321
-76.8214
-76.7011
-76.6227
-76.4315
-76.3502
-76.2878
-76.1352
-76.0196
-75.8455
-75.7252
-75.6802
-75.6384
-75.5087
-75.1824
-75.0109
-74.9137
-70.131
-70.2473
-70.2506
-70.4022
-70.3681
-70.37
-70.566
-70.5456
-70.5436
-70.5463
-70.7382
-70.7118
-70.718
-70.7429
-70.7099
-71.0224
-70.9432
-70.9405
-70.951
-70.9048
-70.9333
-71.2715
-71.3075
-71.2318
-71.2284
-71.2027
-71.1841
-71.2091
-71.753
-71.6546
-71.515
-71.5218
-71.5507
-71.4851
-71.4866
-71.4949
-72.3668
-72.0674
-72.1233
-71.9802
-71.8923
-71.8415
-71.8418
-71.8759
-71.8111
-73.0844
-72.9542
-72.6725
-72.7485
-72.5285
-72.4575
-72.3812
-72.3341
-72.3093
-72.257
-74.1668
-74.1332
-73.6542
-73.4987
-73.5431
-73.205
-73.0584
-73.1606
-72.8028
-72.908
-72.7034
-75.5057
-75.2926
-75.0587
-74.784
-74.5018
-74.5574
-74.0616
-73.9785
-73.8225
-73.5213
-73.6539
-73.3824
-76.6467
-76.4473
-76.076
-76.0852
-76.1271
-75.805
-75.661
-75.4689
-75.158
-74.904
-74.7195
-74.1889
-73.734
-76.9779
-76.7589
-76.4603
-76.4378
-76.4996
-76.3939
-76.1855
-76.2631
-76.1093
-75.8368
-75.9331
-75.3618
-74.8364
-74.3869
-76.8743
-76.7573
-76.6053
-76.5171
-76.3445
-76.3844
-76.1908
-76.0659
-76.0565
-76.0087
-75.9303
-76.48
-76.2314
-76.2285
-75.2946
-76.9876
-76.8491
-76.6887
-76.7434
-76.5916
-76.3642
-76.2937
-76.2965
-76.1019
-75.9916
-76.0207
-75.8174
-75.8609
-75.874
-75.9381
-75.7443
-77.1041
-76.9771
-76.811
-76.6566
-76.6948
-76.5697
-76.3589
-76.2823
-76.1995
-76.0381
-75.9783
-75.8975
-75.7627
-75.7746
-75.6985
-75.6948
-75.5022
-77.1263
-77.0357
-76.9582
-76.7885
-76.7116
-76.6075
-76.4629
-76.3475
-76.2496
-76.1316
-75.9581
-75.8762
-75.7033
-75.5611
-75.5556
-75.4096
-75.542
-75.472
-77.1689
-77.0718
-76.989
-76.8813
-76.7713
-76.6247
-76.5128
-76.3532
-76.2691
-76.1708
-76.0441
-75.8999
-75.8074
-75.6603
-75.489
-75.3052
-75.1218
-75.1367
-75.0778
-77.3122
-77.1589
-77.046
-76.9624
-76.8448
-76.7215
-76.5979
-76.5022
-76.3328
-76.2331
-76.1507
-76.039
-75.8541
-75.7656
-75.5676
-75.2551
-75.0614
-75.1447
-75.6079
-75.8925
-77.3292
-77.2754
-77.1768
-77.0161
-76.9316
-76.8217
-76.701
-76.6189
-76.4318
-76.3492
-76.2817
-76.1402
-76.0187
-75.8453
-75.7246
-75.6782
-75.6541
-75.5519
-75.238
-75.0355
-74.8316
-70.0238
-70.1268
-70.1274
-70.3277
-70.2663
-70.2403
-70.4224
-70.3614
-70.3788
-70.3908
-70.5266
-70.5437
-70.5447
-70.5667
-70.5575
-70.8005
-70.7926
-70.7086
-70.7627
-70.6861
-70.7081
-71.0345
-71.0076
-70.9401
-70.9473
-70.9254
-70.9746
-70.9477
-71.4467
-71.3609
-71.2751
-71.1815
-71.2418
-71.1924
-71.2057
-71.2332
-71.9437
-71.7855
-71.6927
-71.5541
-71.632
-71.5199
-71.5097
-71.4968
-71.4472
-72.4683
-72.3237
-72.1496
-72.1419
-72.0067
-71.9484
-71.897
-71.8862
-71.8883
-71.8459
-73.2715
-73.2183
-72.9141
-72.6936
-72.7933
-72.4316
-72.36
-72.4108
-72.2841
-72.2709
-72.2976
-74.2949
-74.056
-74.0453
-73.8166
-73.5186
-73.4932
-73.2525
-73.0661
-73.1198
-72.8228
-72.8864
-72.6701
-75.6916
-75.5071
-75.3615
-74.998
-74.8268
-74.6332
-74.5428
-74.1036
-74.033
-73.8014
-73.5863
-73.7764
-73.263
-76.84
-76.5371
-76.316
-76.1864
-76.2435
-76.122
-75.8179
-75.6172
-75.56
-75.0318
-74.9126
-74.8602
-74.1173
-73.8038
-76.9481
-76.9044
-76.6937
-76.5174
-76.31
-76.5615
-76.3135
-76.2203
-76.1499
-76.1185
-75.7481
-75.8512
-75.3625
-74.9129
-74.2754
-77.0214
-76.8712
-76.7806
-76.6747
-76.5309
-76.4297
-76.2833
-76.1732
-76.1156
-76.0608
-76.0337
-75.8583
-76.4153
-76.235
-76.2388
-75.4317
-77.1262
-76.966
-76.8497
-76.6753
-76.8271
-76.6311
-76.3956
-76.2257
-76.2865
-76.122
-75.9677
-76.0012
-75.8032
-75.8485
-75.8779
-75.9431
-75.6885
-77.1894
-77.0905
-76.974
-76.8071
-76.6444
-76.7337
-76.5464
-76.3136
-76.3171
-76.1578
-76.0372
-75.9653
-75.8891
-75.7594
-75.7611
-75.6919
-75.6867
-75.4849
-77.2385
-77.1175
-77.0288
-76.9496
-76.7877
-76.7136
-76.5658
-76.4655
-76.3142
-76.2705
-76.1153
-75.9469
-75.8678
-75.6856
-75.5587
-75.5331
-75.4053
-75.5382
-75.4564
-77.345
-77.1642
-77.067
-76.9841
-76.8788
-76.7702
-76.5997
-76.5295
-76.3323
-76.2502
-76.2045
-76.0389
-75.893
-75.801
-75.6433
-75.4708
-75.2873
-75.0829
-75.102
-75.1049
-77.3528
-77.3084
-77.1557
-77.0426
-76.9587
-76.8438
-76.7172
-76.5884
-76.5073
-76.3211
-76.2168
-76.1656
-76.0341
-75.8491
-75.7587
-75.5604
-75.2622
-75.041
-75.167
-75.6598
-75.9589
-77.417
-77.3278
-77.2739
-77.1754
-77.015
-76.9311
-76.8219
-76.6994
-76.6162
-76.4335
-76.3486
-76.2765
-76.1449
-76.017
-75.8444
-75.724
-75.6752
-75.6687
-75.5925
-75.3147
-75.0861
-74.7534
-69.9154
-70.0158
-70.0221
-70.1355
-70.1526
-70.1199
-70.295
-70.2302
-70.2129
-70.2523
-70.4242
-70.3741
-70.3871
-70.3884
-70.3907
-70.5895
-70.6057
-70.5196
-70.5542
-70.5394
-70.5249
-70.8322
-70.8194
-70.7778
-70.7409
-70.7261
-70.7114
-70.7405
-71.1759
-71.0801
-71.0404
-71.0158
-70.9974
-70.9744
-70.9619
-70.9834
-71.5532
-71.4272
-71.3542
-71.2795
-71.2433
-71.2024
-71.2298
-71.1995
-71.1713
-71.9956
-71.9794
-71.8487
-71.729
-71.5495
-71.5668
-71.5242
-71.4917
-71.5333
-71.5077
-72.5595
-72.4789
-72.2456
-72.227
-72.1387
-71.9886
-71.912
-71.9327
-71.8535
-71.87
-71.8401
-73.4471
-73.2551
-73.159
-72.8695
-72.7615
-72.7567
-72.5625
-72.3701
-72.3738
-72.3452
-72.3094
-72.2709
-74.4055
-74.3675
-74.0974
-74.1571
-73.8249
-73.4838
-73.5569
-73.2095
-73.0715
-73.0171
-72.8866
-72.8712
-72.6992
-76.0674
-75.6752
-75.5775
-75.011
-75.0488
-74.8945
-74.5231
-74.4627
-74.1092
-74.0192
-73.8307
-73.6116
-73.86
-73.2204
-76.9908
-76.7659
-76.4724
-76.3651
-76.3262
-76.2291
-76.0171
-75.8653
-75.5058
-75.5652
-75.0059
-74.905
-74.8554
-74.0149
-73.8789
-77.0767
-76.8537
-76.8631
-76.6882
-76.5118
-76.5286
-76.4995
-76.3168
-76.2079
-76.059
-76.1709
-75.8057
-75.8563
-75.4077
-75.0397
-74.3857
-77.1904
-77.0009
-76.8791
-76.7872
-76.8192
-76.5094
-76.3845
-76.2522
-76.1927
-76.1995
-76.0395
-76.0968
-75.8359
-76.3987
-76.2424
-76.2128
-75.3361
-77.2274
-77.086
-76.9553
-76.8617
-76.6472
-76.7082
-76.5794
-76.364
-76.3341
-76.3053
-76.136
-75.9576
-75.9784
-75.8608
-75.8341
-75.8635
-75.9278
-75.6535
-77.2752
-77.1639
-77.0774
-76.9762
-76.8073
-76.6316
-76.6973
-76.5647
-76.3178
-76.3134
-76.1947
-76.0428
-75.9499
-75.8929
-75.7564
-75.745
-75.6812
-75.6771
-75.4846
-77.3465
-77.2297
-77.1116
-77.0218
-76.9483
-76.7788
-76.7277
-76.5138
-76.4671
-76.3017
-76.2462
-76.1078
-75.9357
-75.8573
-75.6684
-75.5447
-75.5143
-75.4005
-75.5315
-75.4389
-77.3941
-77.3439
-77.159
-77.0604
-76.9793
-76.8723
-76.763
-76.5775
-76.5321
-76.3193
-76.2207
-76.2059
-76.0394
-75.8827
-75.7921
-75.6307
-75.4524
-75.2712
-75.0484
-75.0646
-75.1317
-77.451
-77.3486
-77.3042
-77.153
-77.0391
-76.9549
-76.8425
-76.7123
-76.5743
-76.51
-76.3115
-76.1973
-76.1854
-76.0315
-75.8441
-75.7524
-75.5528
-75.2824
-75.0604
-75.1808
-75.681
-75.9775
-74.7243
-77.4754
-77.4161
-77.3266
-77.2723
-77.1738
-77.0136
-76.9307
-76.8215
-76.6975
-76.6128
-76.4374
-76.3481
-76.2714
-76.149
-76.0154
-75.8431
-75.7229
-75.6709
-75.6914
-75.6586
-75.4104
-75.1554
-74.68
-69.8183
-69.9225
-69.933
-70.0212
-70.0281
-70.0168
-70.1495
-70.1345
-70.124
-70.1124
-70.3257
-70.2575
-70.2475
-70.2585
-70.2719
-70.4909
-70.3732
-70.3896
-70.3875
-70.3943
-70.3863
-70.6738
-70.6288
-70.6134
-70.5699
-70.575
-70.5425
-70.546
-70.8914
-70.8821
-70.8002
-70.7775
-70.767
-70.731
-70.756
-70.7529
-71.2377
-71.1478
-71.0862
-71.0035
-70.9453
-70.9726
-70.9712
-70.9625
-70.967
-71.6456
-71.6756
-71.4316
-71.3997
-71.3307
-71.2737
-71.2853
-71.2401
-71.2061
-71.1759
-72.124
-71.9754
-71.7558
-71.8148
-71.7577
-71.5847
-71.5958
-71.5167
-71.5221
-71.5334
-71.509
-72.7571
-72.6238
-72.44
-72.4461
-72.2718
-72.198
-72.0665
-71.9146
-71.9356
-71.8766
-71.8275
-71.8665
-73.6271
-73.4374
-73.2594
-73.2072
-73.1092
-72.6935
-72.7839
-72.466
-72.4612
-72.3911
-72.3576
-72.2865
-72.2419
-74.6718
-74.5008
-74.3553
-74.1137
-74.0698
-73.7814
-73.4925
-73.5373
-73.2049
-73.0582
-73.005
-72.8659
-72.8958
-72.6781
-76.3688
-76.0165
-75.7904
-75.4
-75.166
-74.9868
-74.887
-74.4857
-74.4577
-74.2203
-73.9994
-73.8839
-73.5517
-73.6961
-73.2833
-77.138
-76.8814
-76.8513
-76.5211
-76.4931
-76.3022
-76.1348
-76.033
-75.8811
-75.4869
-75.5813
-75.0329
-74.9423
-74.8457
-74.0549
-73.8544
-77.1338
-77.0082
-76.9083
-76.8185
-76.7427
-76.6051
-76.5282
-76.5637
-76.3937
-76.3496
-76.0497
-76.1305
-75.8499
-75.8127
-75.4152
-75.051
-74.4893
-77.307
-77.138
-76.9919
-76.9057
-76.7928
-76.6835
-76.5287
-76.3953
-76.2503
-76.2253
-76.2493
-76.0024
-76.0882
-75.899
-76.3469
-76.2465
-76.1911
-75.2557
-77.3292
-77.2476
-77.061
-76.9923
-76.8652
-76.7125
-76.641
-76.5631
-76.3576
-76.3335
-76.2508
-76.1417
-75.9598
-75.9601
-75.818
-75.7966
-75.8421
-75.9361
-75.6367
-77.3944
-77.2663
-77.164
-77.062
-76.9573
-76.8124
-76.6431
-76.6543
-76.555
-76.2795
-76.2351
-76.1486
-76.0402
-75.9383
-75.8718
-75.7644
-75.7369
-75.6677
-75.6699
-75.4832
-77.4283
-77.348
-77.2214
-77.1079
-77.0129
-76.9446
-76.8136
-76.7239
-76.5137
-76.47
-76.2893
-76.2284
-76.0947
-75.9254
-75.8462
-75.6525
-75.5344
-75.4996
-75.3935
-75.5226
-75.4194
-77.4558
-77.3874
-77.3427
-77.1539
-77.0532
-76.9743
-76.865
-76.7614
-76.5707
-76.5219
-76.309
-76.1979
-76.1872
-76.0398
-75.8719
-75.7823
-75.6221
-75.4322
-75.2541
-75.0209
-75.0269
-75.1485
-75.6648
-77.5028
-77.448
-77.3441
-77.2999
-77.1505
-77.0358
-76.9509
-76.8403
-76.7078
-76.5577
-76.504
-76.302
-76.1735
-76.186
-76.0287
-75.8385
-75.7465
-75.546
-75.2848
-75.1093
-75.1904
-75.6577
-75.9465
-75.2369
-74.6754
-77.5742
-77.4744
-77.4153
-77.3255
-77.271
-77.1723
-77.0124
-76.9297
-76.8202
-76.6957
-76.6093
-76.4411
-76.3473
-76.2649
-76.1525
-76.0138
-75.8424
-75.7215
-75.6655
-75.7155
-75.71
-75.49
-75.2132
-69.717
-69.831
-69.8522
-69.9621
-69.9292
-69.929
-70.0404
-70.0223
-70.0321
-70.0024
-70.1721
-70.152
-70.1259
-70.1126
-70.1483
-70.3399
-70.2806
-70.2396
-70.2639
-70.2648
-70.2605
-70.5118
-70.4416
-70.4009
-70.4119
-70.4174
-70.3989
-70.3941
-70.7274
-70.6734
-70.634
-70.5644
-70.5826
-70.5328
-70.5636
-70.5646
-70.9896
-70.9093
-70.8655
-70.7857
-70.8171
-70.7878
-70.765
-70.7473
-70.7526
-71.3662
-71.272
-71.2044
-71.0813
-71.0268
-70.9981
-70.9667
-70.9828
-70.9522
-70.9051
-71.7825
-71.7078
-71.6847
-71.46
-71.407
-71.2896
-71.2732
-71.2557
-71.2058
-71.2191
-71.2545
-72.2741
-72.141
-71.9392
-71.8185
-71.861
-71.7651
-71.554
-71.5939
-71.5392
-71.5182
-71.504
-71.5084
-73.0267
-72.717
-72.6264
-72.5468
-72.4238
-72.201
-72.1625
-72.0568
-71.9237
-71.8516
-71.8601
-71.8872
-71.833
-73.8216
-73.65
-73.4098
-73.3338
-73.2226
-72.9958
-72.7445
-72.7809
-72.4735
-72.4274
-72.3842
-72.4078
-72.2519
-72.2363
-74.9764
-74.8217
-74.5679
-74.3499
-74.1079
-74.0015
-73.738
-73.6189
-73.5528
-73.2567
-73.0755
-73.0166
-72.866
-72.9105
-72.7208
-76.6109
-76.3332
-76.0355
-75.7193
-75.4733
-75.1751
-75.053
-74.8481
-74.6378
-74.4395
-74.2274
-73.9343
-73.8687
-73.6739
-73.5096
-73.324
-77.2427
-76.97
-76.8832
-76.8005
-76.8196
-76.5358
-76.2875
-76.1421
-76.0839
-75.9534
-75.5574
-75.5573
-75.118
-74.9233
-74.7531
-74.0915
-73.8362
-77.3862
-77.1424
-77.0297
-76.8804
-76.7243
-76.9165
-76.6473
-76.4837
-76.5449
-76.3259
-76.3548
-76.0191
-76.0855
-75.8524
-75.779
-75.3944
-75.0443
-74.4422
-77.4653
-77.2722
-77.0974
-77.0207
-76.8007
-76.8011
-76.7077
-76.5243
-76.4258
-76.2585
-76.1948
-76.2581
-75.9927
-76.0364
-75.912
-76.2382
-76.2859
-76.2525
-75.2543
-77.4096
-77.3254
-77.2036
-77.0579
-77.0012
-76.8691
-76.7728
-76.6662
-76.5726
-76.3587
-76.3833
-76.2169
-76.1424
-75.9493
-75.952
-75.9222
-75.8101
-75.8111
-75.902
-75.6022
-77.4896
-77.392
-77.2506
-77.139
-77.05
-76.9507
-76.8098
-76.6641
-76.6472
-76.5228
-76.2908
-76.2928
-76.1367
-76.0326
-75.9345
-75.9023
-75.779
-75.7241
-75.6525
-75.6501
-75.4636
-77.4798
-77.4253
-77.3436
-77.2161
-77.096
-77.0116
-76.9343
-76.8332
-76.7108
-76.5003
-76.4124
-76.2756
-76.2327
-76.0804
-75.9141
-75.8358
-75.631
-75.5254
-75.4884
-75.3832
-75.5098
-75.3989
-75.0312
-77.5185
-77.4565
-77.3809
-77.3408
-77.1488
-77.0491
-76.9716
-76.8591
-76.7546
-76.5576
-76.5243
-76.2987
-76.2003
-76.173
-76.0405
-75.8663
-75.7669
-75.6146
-75.4177
-75.2475
-75.0022
-74.989
-75.1323
-75.6749
-75.8288
-77.5523
-77.5002
-77.4447
-77.3399
-77.2947
-77.1485
-77.0323
-76.9468
-76.836
-76.7009
-76.5578
-76.4994
-76.2937
-76.1605
-76.1742
-76.0247
-75.8328
-75.7413
-75.5404
-75.2734
-75.1535
-75.202
-75.6123
-75.5967
-75.2397
-77.5981
-77.5735
-77.4731
-77.4146
-77.3245
-77.2698
-77.1707
-77.0109
-76.9287
-76.8197
-76.6944
-76.6063
-76.4443
-76.3463
-76.2583
-76.1552
-76.0121
-75.8415
-75.7196
-75.6582
-75.7394
-75.7424
-75.5366
-69.7034
-69.743
-69.849
-69.8364
-69.848
-69.9465
-69.9122
-69.9413
-69.9108
-70.0503
-70.0327
-70.0501
-69.9798
-70.0318
-70.2314
-70.1855
-70.1353
-70.1157
-70.1407
-70.157
-70.4101
-70.3109
-70.2706
-70.274
-70.2683
-70.2733
-70.2458
-70.5787
-70.4379
-70.4589
-70.442
-70.4243
-70.3953
-70.3828
-70.408
-70.865
-70.7262
-70.6982
-70.6126
-70.5987
-70.5747
-70.5653
-70.5729
-70.5791
-71.1068
-71.002
-70.9592
-70.8479
-70.8215
-70.7767
-70.7092
-70.7612
-70.7585
-70.732
-71.4633
-71.4041
-71.303
-71.1648
-71.1312
-71.039
-71.002
-71.0262
-70.9803
-70.9615
-70.962
-71.9168
-71.8025
-71.7497
-71.413
-71.4966
-71.3835
-71.2707
-71.2899
-71.2009
-71.2213
-71.2037
-71.2203
-72.5321
-72.2646
-72.0988
-72.0277
-71.9322
-71.7921
-71.7603
-71.6687
-71.5343
-71.5412
-71.5136
-71.5235
-71.5067
-73.2347
-72.9987
-72.7804
-72.6155
-72.5564
-72.3649
-72.1507
-72.107
-71.9238
-71.937
-71.9211
-71.9188
-71.8313
-71.82
-74.0027
-73.8192
-73.5576
-73.4685
-73.1868
-73.144
-72.9214
-72.7079
-72.7289
-72.4888
-72.4832
-72.2981
-72.3731
-72.24
-72.2727
-75.3062
-74.9825
-74.7412
-74.6463
-74.3034
-74.1514
-73.9855
-73.7615
-73.6671
-73.5581
-73.2415
-73.0493
-73.0497
-72.8429
-72.8449
-72.698
-76.7707
-76.6174
-76.3749
-76.0307
-75.779
-75.4732
-75.2794
-75.1185
-74.8487
-74.6256
-74.4128
-74.2375
-73.94
-73.8691
-73.7242
-73.5361
-73.3472
-77.5557
-77.0727
-76.9051
-77.0204
-76.8152
-76.8036
-76.5626
-76.3355
-76.1228
-76.0295
-76.0735
-75.5639
-75.4524
-75.1804
-74.9148
-74.6958
-74.0606
-73.8809
-77.4382
-77.3171
-77.0884
-76.9124
-76.8555
-76.775
-76.895
-76.6416
-76.5183
-76.4699
-76.2564
-76.3746
-76.0198
-76.0207
-75.8836
-75.7576
-75.4506
-75.072
-74.4054
-77.4659
-77.4605
-77.3218
-77.1008
-77.0275
-76.8514
-76.7846
-76.6411
-76.4681
-76.4334
-76.3176
-76.1703
-76.2015
-75.982
-76.0236
-75.9725
-76.1852
-76.2726
-76.2102
-75.2159
-77.5047
-77.4067
-77.3125
-77.2291
-77.0744
-76.9705
-76.878
-76.6745
-76.691
-76.5423
-76.4495
-76.3811
-76.2036
-76.1391
-75.9755
-75.9346
-75.9606
-75.7996
-75.7928
-75.8398
-75.5779
-77.5254
-77.4688
-77.3993
-77.261
-77.1326
-77.0463
-76.9366
-76.8179
-76.6809
-76.6292
-76.4756
-76.2748
-76.2894
-76.109
-76.0324
-75.9353
-75.8803
-75.7712
-75.7123
-75.6352
-75.6396
-75.4549
-75.3317
-77.5532
-77.4772
-77.4137
-77.3441
-77.2068
-77.0863
-77.0025
-76.9293
-76.7974
-76.7031
-76.5098
-76.399
-76.2502
-76.2108
-76.0684
-75.8949
-75.8118
-75.6152
-75.52
-75.4801
-75.3708
-75.4955
-75.3778
-74.9245
-75.0872
-77.562
-77.5148
-77.4562
-77.3746
-77.3365
-77.1445
-77.0445
-76.9716
-76.8516
-76.7468
-76.5521
-76.5348
-76.2933
-76.2018
-76.1556
-76.038
-75.8621
-75.7496
-75.6066
-75.4076
-75.2476
-74.9966
-74.955
-75.2787
-75.6123
-77.6329
-77.5491
-77.4974
-77.4412
-77.3356
-77.2894
-77.1473
-77.028
-76.9426
-76.8315
-76.6938
-76.554
-76.5007
-76.2856
-76.1657
-76.1624
-76.02
-75.8275
-75.7362
-75.5386
-75.2888
-75.1847
-75.2378
-75.8168
-75.5718
-77.5969
-77.6129
-77.5729
-77.4717
-77.4134
-77.3234
-77.2681
-77.1689
-77.0097
-76.9276
-76.819
-76.6937
-76.6019
-76.4468
-76.345
-76.2521
-76.1567
-76.01
-75.8395
-75.7166
-75.6482
-75.767
-75.7616
-69.6908
-69.7236
-69.7339
-69.8748
-69.8584
-69.861
-69.8716
-69.9609
-69.932
-69.9347
-69.9126
-69.9357
-70.0823
-70.0305
-70.0332
-69.9984
-70.0384
-70.041
-70.2824
-70.2469