/*--------------------------------*- C++ -*----------------------------------*\
  =========                 |
  \\      /  F ield         | OpenFOAM: The Open Source CFD Toolbox
   \\    /   O peration     | Website:  https://openfoam.org
    \\  /    A nd           | Version:  7
     \\/     M anipulation  |
\*---------------------------------------------------------------------------*/
FoamFile
{
    version     2.0;
    format      ascii;
    class       surfaceScalarField;
    location    "1";
    object      phi;
}
// * * * * * * * * * * * * * * * * * * * * * * * * * * * * * * * * * * * * * //

dimensions      [0 3 -1 0 0 0 0];

internalField   nonuniform List<scalar> 
54125
(
-1.55721e-05
-5.61901e-06
-0.00209426
-0.000139395
1.62079e-05
0.000970779
-4.96754e-05
-1.82886e-05
-0.00164441
-1.97351e-05
-5.55112e-06
-0.00206898
-0.000141757
4.54578e-05
0.000185853
-9.8265e-05
4.10971e-05
0.000510664
-0.000126655
1.56346e-05
0.00106206
-2.74711e-05
-2.08481e-05
-0.00205121
-5.25067e-05
-1.65516e-05
-0.0015809
-2.69715e-05
-6.52723e-06
-0.00203548
-0.000166484
8.77023e-05
0.000347348
-6.97453e-05
5.7012e-05
7.24563e-05
-0.00011368
4.79205e-05
0.000124958
-9.42879e-05
6.81999e-05
0.00063922
-8.94244e-05
5.24066e-05
0.000510809
-0.00013261
1.11742e-05
0.00115653
-3.48585e-05
-9.13779e-06
-0.00172102
-3.11041e-05
-1.94036e-05
-0.00201725
-5.65142e-05
-1.64466e-05
-0.00151447
-2.82141e-05
-7.47652e-06
-0.00199979
-0.000215628
0.000107208
0.000360464
-8.14063e-05
0.00017582
0.000564154
-0.000141463
8.54689e-05
0.000289662
-8.57726e-05
0.000104263
0.000231272
-5.95211e-05
5.56959e-05
3.47777e-05
-0.000107603
4.57545e-05
5.41967e-05
-9.29682e-05
8.34168e-05
0.000142101
-8.71444e-05
7.92983e-05
0.000668369
-8.87954e-05
4.04592e-05
0.000513806
-0.000120355
1.11503e-05
0.00123752
-4.28392e-05
1.44768e-05
-0.00117913
-4.12045e-05
-9.00462e-06
-0.00169021
-3.64779e-05
-1.92971e-05
-0.00197792
-6.08483e-05
-1.69623e-05
-0.00144414
-3.5146e-05
-8.66266e-06
-0.00195598
-0.000383284
0.000221059
-0.00196589
-0.000120766
0.000204211
0.000469939
-0.000169298
0.000108571
0.000279728
-9.20891e-05
0.000210598
0.000705073
-9.20093e-05
0.00016465
0.000517461
-0.000144652
7.35408e-05
0.000253171
-8.3562e-05
0.000115758
-7.37357e-06
-7.2513e-05
0.000100953
0.000171383
-5.96207e-05
5.55597e-05
-4.20215e-06
-0.000115613
4.36556e-05
5.799e-06
-9.43095e-05
9.74968e-05
-0.000156103
-9.34156e-05
8.22341e-05
0.000191377
-8.69889e-05
6.92792e-05
0.00069006
-8.7704e-05
5.03617e-05
0.00050145
-0.000119188
8.11606e-06
0.00131345
-5.06175e-05
2.37222e-05
-0.000410049
-4.46377e-05
1.4921e-05
-0.00115842
-4.67886e-05
-8.40357e-06
-0.00165432
-3.79512e-05
-1.93746e-05
-0.00193756
-6.22185e-05
-1.70864e-05
-0.00137349
-4.28513e-05
-9.98559e-06
-0.00190314
-0.000697679
0.000402821
-0.00439244
-0.000219332
0.000318581
-0.00103632
-0.000367902
0.000237339
-0.00200463
-9.52866e-05
0.000243699
0.000409794
-0.000135223
0.000185989
0.000435735
-0.000178859
0.000101942
0.000211993
-7.32108e-05
0.000234425
0.000273094
-8.18414e-05
0.000207771
0.00067128
-0.00010452
0.000155617
0.000480283
-0.00015785
6.43583e-05
0.000231049
-8.28523e-05
0.000134784
-0.000316725
-8.32172e-05
0.000111577
-2.8196e-05
-6.1419e-05
9.93475e-05
0.000102025
-5.83556e-05
5.52948e-05
-4.51897e-05
-0.000117402
4.30214e-05
-3.9008e-05
-8.93027e-05
0.000104578
-0.00031817
-9.16684e-05
9.75071e-05
-0.000124346
-9.21666e-05
8.39299e-05
0.000222104
-7.49411e-05
8.28638e-05
0.000694547
-8.85104e-05
4.80595e-05
0.000487798
-0.000124143
3.04216e-06
0.00139169
-3.31859e-05
2.44817e-05
-0.000289293
-5.10962e-05
2.40263e-05
-0.000368058
-4.56784e-05
1.55698e-05
-0.00113671
-5.11914e-05
-7.71789e-06
-0.00161478
-4.28988e-05
-2.06407e-05
-0.00189111
-6.83861e-05
-1.76015e-05
-0.00129749
-4.26749e-05
-1.0617e-05
-0.00184985
-0.00114521
0.000425128
-0.00409694
-0.000303036
0.000430823
-0.00394425
-0.000813002
0.000409176
-0.00435651
-0.000194578
0.000366331
-8.14594e-06
-0.000200461
0.0003182
-0.00105194
-0.000363448
0.000264788
-0.00208483
-9.02408e-05
0.000293722
0.000329421
-0.000103473
0.000238607
0.000378808
-0.000149278
0.000172848
0.000409587
-0.000227216
9.57343e-05
0.000185625
-4.03231e-05
0.00024316
0.00056948
-7.44192e-05
0.000230656
0.000241411
-7.24467e-05
0.000205599
0.000632327
-0.000106693
0.000152251
0.000440728
-0.000161686
6.26996e-05
0.000212633
-0.000123423
0.000184575
-0.000213589
-7.14993e-05
0.000131105
-0.000356422
-8.17815e-05
0.000109179
-4.8413e-05
-6.59477e-05
9.76649e-05
5.0662e-05
-5.77421e-05
5.50892e-05
-8.80259e-05
-0.000115267
4.34049e-05
-9.12881e-05
-4.3762e-05
0.000110829
-0.000330861
-8.7186e-05
0.000106167
-0.00029074
-8.82885e-05
0.000101513
-9.93187e-05
-8.73023e-05
9.19805e-05
0.000249098
-7.11588e-05
8.32023e-05
0.000687664
-9.05103e-05
4.69137e-05
0.000466051
-0.000107961
1.65088e-06
0.00145533
-3.68617e-05
3.31736e-05
-0.0001475
-3.27535e-05
2.46215e-05
-0.000257134
-5.03954e-05
2.42673e-05
-0.000326361
-4.54428e-05
1.64966e-05
-0.00111548
-5.56832e-05
-7.80657e-06
-0.00157193
-4.49154e-05
-2.02465e-05
-0.00184355
-7.07566e-05
-1.88895e-05
-0.00121846
-4.63345e-05
-1.11633e-05
-0.00179235
-0.00136608
0.000102303
-0.00321194
-0.000729455
0.000805673
-0.00483387
-0.0012914
0.000444579
-0.00406312
-0.000183663
0.000431848
-0.00293311
-0.000143332
0.000434416
-0.00402662
-0.000827259
0.000414997
-0.0043077
-0.000101803
0.000409446
4.0596e-05
-0.000169672
0.000356667
1.95867e-05
-0.000126209
0.000303273
-0.0011135
-0.000483809
0.000248579
-0.00207681
-2.35463e-05
0.000325604
0.000370151
-8.71635e-05
0.000288795
0.000291978
-0.000117272
0.000235887
0.000360594
-0.000163937
0.000178383
0.000384182
-0.000230313
9.60439e-05
0.000158207
-0.000233994
0.000287477
0.000375107
-1.88101e-05
0.000245777
0.000501671
-5.72712e-05
0.0002291
0.000193399
-8.51994e-05
0.000198765
0.000605065
-0.00010271
0.000155527
0.000392869
-0.000160727
6.55552e-05
0.000192538
1.17339e-05
0.000205843
-0.000278324
-0.000118633
0.000176262
-0.000227299
-5.90312e-05
0.000129629
-0.000406129
-7.75167e-05
0.000107804
-6.83381e-05
-6.57689e-05
9.84034e-05
1.95793e-06
-5.77906e-05
5.30732e-05
-0.000130414
-0.000108461
4.35092e-05
-0.000134297
-7.78089e-05
0.000132409
-0.000302948
-4.13183e-05
0.000111783
-0.000327913
-7.8908e-05
0.000109833
-0.000270548
-8.1649e-05
0.000110185
-8.13166e-05
-8.26105e-05
9.48369e-05
0.000264391
-6.20321e-05
8.69482e-05
0.000664747
-8.93842e-05
4.61469e-05
0.000440183
-0.000103906
1.07372e-06
0.00151183
-1.93377e-05
3.80378e-05
-0.000192967
-3.7611e-05
3.31096e-05
-0.000118377
-3.15621e-05
2.47567e-05
-0.000226061
-5.15225e-05
2.44789e-05
-0.00028282
-4.55058e-05
1.73634e-05
-0.00109515
-5.87909e-05
-7.02254e-06
-0.00152637
-5.0876e-05
-2.12606e-05
-0.0017903
-7.04626e-05
-1.88904e-05
-0.00114027
-5.23434e-05
-1.17072e-05
-0.0017283
-0.00143212
3.47528e-05
-0.00334734
-0.00127671
0.000644717
-0.00469675
-0.00139555
0.000178202
-0.003286
-5.68889e-05
0.000784008
-0.00485293
-0.000304002
0.000830128
-0.00505875
-0.00129309
0.000417007
-0.00401429
-8.23687e-05
0.000471697
-0.00116255
-0.00014921
0.000445406
-0.00296457
-0.0001424
0.000459062
-0.00405449
-0.000868054
0.000396185
-0.00431964
-0.000111099
0.00041764
0.000320261
-5.20529e-05
0.000416208
-5.40562e-05
-0.0001286
0.000353716
-1.95277e-05
-0.000211697
0.000298507
-0.00111566
-0.000465447
0.000239428
-0.00208111
-0.000308417
0.000365683
9.77085e-06
-1.02165e-05
0.000325213
0.000325139
-4.06015e-05
0.000282687
0.000228509
-0.000124024
0.000233592
0.000344209
-0.000168421
0.000180404
0.000365532
-0.000227604
0.000100414
0.00012467
7.24586e-05
0.00031904
0.000132571
-0.000201704
0.000286073
0.000417882
-2.07831e-05
0.000246521
0.000446002
-5.11804e-05
0.000224078
0.000141749
-9.14426e-05
0.000195739
0.000590526
-0.000104822
0.000154035
0.000351421
-0.000152291
6.19681e-05
0.0001744
-0.000126594
0.000227758
-0.000207669
1.02758e-05
0.000191807
-0.000345463
-0.000115795
0.000171248
-0.000232031
-6.53874e-05
0.00012667
-0.000441256
-7.30253e-05
0.000109009
-8.85288e-05
-6.29827e-05
9.72019e-05
-4.12202e-05
-5.95951e-05
5.13221e-05
-0.000168016
-0.000100055
4.09694e-05
-0.000179118
-9.58019e-06
0.000142761
0.000104884
-8.65426e-05
0.000132141
-0.000274375
-4.07967e-05
0.000112794
-0.000321639
-7.95548e-05
0.000112116
-0.000244447
-7.71436e-05
0.000115115
-6.99568e-05
-7.58049e-05
9.66001e-05
0.000271753
-6.01917e-05
9.06114e-05
0.000629598
-8.35299e-05
4.63777e-05
0.000407946
-0.0001043
8.46252e-07
0.00156294
-1.88555e-05
4.63036e-05
-0.000777356
-2.03002e-05
3.80035e-05
-0.000177561
-3.78493e-05
3.30298e-05
-8.88009e-05
-3.22066e-05
2.48655e-05
-0.000194241
-5.07823e-05
2.44904e-05
-0.000239165
-4.66345e-05
1.78776e-05
-0.00107341
-6.16402e-05
-5.90495e-06
-0.00148008
-5.5743e-05
-2.28596e-05
-0.00173059
-6.95172e-05
-1.89162e-05
-0.00106355
-5.48573e-05
-1.24026e-05
-0.00166104
-0.00153917
0.0001516
-0.00301226
-0.00129223
0.000130784
-0.00404609
-0.00145707
0.000108764
-0.00339458
-0.000416301
0.000961777
-0.00502436
-0.000876583
0.000723906
-0.00466988
-0.00134212
0.000103605
-0.00334058
-0.000109213
0.000794082
-0.00427925
-9.92108e-05
0.000775932
-0.00484873
-0.000660108
0.000817259
-0.00494129
-0.00125268
0.000434583
-0.00406425
-0.000166478
0.000451616
-0.000251024
-3.10146e-05
0.000489755
-0.00122794
-0.00013459
0.000481999
-0.00298151
-0.000268987
0.000464576
-0.0040656
-0.000847905
0.000406708
-0.00434389
-0.000310331
0.000462398
0.000138114
-9.74356e-05
0.000404516
0.000419172
-2.09404e-05
0.000417309
-0.000137311
-0.000148493
0.000347412
-4.39628e-05
-0.00026907
0.000293122
-0.00106871
-0.000433339
0.000240169
-0.00211554
8.11143e-05
0.000432952
0.000136789
-0.000289702
0.000352942
7.00405e-05
-5.27789e-05
0.000302608
0.000337214
-4.77458e-05
0.00027119
0.000187476
-0.00013066
0.000227562
0.000336268
-0.00016879
0.000176449
0.000353466
-0.000227105
9.16124e-05
0.000107871
-0.000158959
0.000306441
0.000250771
3.85555e-05
0.000321093
6.92719e-05
-0.00022535
0.000290273
0.000483685
-4.82631e-05
0.000239781
0.000413174
-6.14859e-05
0.000216428
0.000109521
-9.32107e-05
0.000188417
0.000586372
-0.000115537
0.000145068
0.000324262
-0.000144988
5.68068e-05
0.000162527
-1.89561e-06
0.00025481
0.000345146
-0.0001332
0.000216324
-0.000185529
2.32763e-05
0.000174148
-0.000412436
-0.00012526
0.000170215
-0.000229871
-7.35345e-05
0.000124384
-0.000460241
-6.48039e-05
0.000112274
-0.000114602
-5.56119e-05
9.45576e-05
-8.90355e-05
-6.15584e-05
4.81175e-05
-0.000197135
-9.08452e-05
3.84374e-05
-0.00023101
-6.49915e-05
0.000149408
-0.000945346
-1.36417e-05
0.000142135
8.82312e-05
-9.89212e-05
0.000132234
-0.000232742
-3.92173e-05
0.00011085
-0.000313362
-7.62302e-05
0.000114225
-0.000218109
-7.2679e-05
0.000116611
-6.39236e-05
-7.10916e-05
9.91817e-05
0.000272634
-5.90553e-05
9.10559e-05
0.000588232
-7.75319e-05
4.67453e-05
0.000370062
-9.76102e-05
1.35904e-06
0.00160433
-1.82332e-05
4.93028e-05
0.000117378
-2.18245e-05
4.64639e-05
-0.000763992
-2.15294e-05
3.79204e-05
-0.000160922
-3.90724e-05
3.28858e-05
-5.77487e-05
-3.26209e-05
2.47464e-05
-0.000161877
-5.1049e-05
2.43683e-05
-0.000194607
-4.52984e-05
1.89007e-05
-0.00105292
-6.57024e-05
-7.46053e-06
-0.00142978
-6.03149e-05
-2.49252e-05
-0.00166426
-6.91873e-05
-1.97714e-05
-0.000986991
-5.74942e-05
-1.3004e-05
-0.00159054
-0.00158934
5.48108e-05
-0.00275045
-0.001184
0.000170364
-0.00369072
-0.00155869
0.00012303
-0.00303367
-0.000860692
0.000648934
-0.00472672
-0.00117614
0.000178247
-0.00381601
-0.00138356
9.94123e-05
-0.00345255
-0.000167337
0.00104131
-0.00502857
-0.000489782
0.000963145
-0.00487303
-0.00119186
0.000649351
-0.00468387
-0.00137943
8.81092e-05
-0.00330193
-0.000132779
0.000752684
-0.00316085
-7.85727e-05
0.000792628
-0.00424838
-0.000166817
0.000792475
-0.00479172
-0.000702156
0.000850268
-0.00492381
-0.00124914
0.000430772
-0.00409378
-0.000311613
0.000505907
-0.0008592
-0.000178151
0.000460933
-0.000141486
-1.94052e-05
0.000529615
-0.00127709
-0.000192879
0.000481941
-0.00295449
-0.000352939
0.000458933
-0.00403395
-0.000814335
0.000404238
-0.00436713
4.13432e-05
0.000510245
0.000148581
-0.00032745
0.000445414
0.000134964
-0.000147854
0.000378917
0.000552639
-6.16707e-05
0.000366287
-0.000142261
-0.000166222
0.000332116
-4.73956e-05
-0.000240883
0.000295872
-0.00105232
-0.000456585
0.000240802
-0.00212687
-0.000135594
0.000406524
0.000232957
5.95848e-05
0.000421456
4.72461e-05
-0.000307916
0.00034797
0.000107244
-8.79203e-05
0.000275576
0.000372485
-7.40224e-05
0.000264279
0.000163296
-0.000127006
0.000218722
0.000327791
-0.000165421
0.000169638
0.000325325
-0.00021816
8.96805e-05
9.13624e-05
-9.46722e-05
0.000354799
0.000430633
-0.000126286
0.000300305
0.000264645
7.49122e-05
0.000305368
2.54132e-06
-0.000264558
0.000270773
0.000591992
-5.97261e-05
0.000232766
0.000383027
-6.98385e-05
0.000210685
9.22876e-05
-7.42665e-05
0.000188771
0.000561324
-0.000112564
0.000133844
0.000298231
-0.000135293
5.21255e-05
0.00015485
-9.55874e-05
0.000271037
-0.000731159
-1.30006e-05
0.000247042
0.000313788
-0.000192709
0.000205149
-0.000122742
6.75835e-06
0.000178046
-0.000466242
-0.000125444
0.000169286
-0.000225559
-7.33028e-05
0.000124691
-0.000472034
-5.91411e-05
0.000116153
-0.000148148
-5.77461e-05
9.11356e-05
-0.000133363
-6.44999e-05
4.6299e-05
-0.000218029
-8.72389e-05
3.36173e-05
-0.000274999
-5.99385e-06
0.000169699
8.44294e-05
-7.23639e-05
0.000151671
-0.000904342
-2.19159e-05
0.000141082
7.97702e-05
-8.62363e-05
0.00012923
-0.000203959
-3.87441e-05
0.000110962
-0.000303975
-7.25604e-05
0.000114321
-0.000194307
-6.70099e-05
0.000118958
-6.19883e-05
-6.68281e-05
0.000102151
0.000262664
-5.95975e-05
9.29616e-05
0.000541298
-7.19508e-05
4.6025e-05
0.000328159
-9.02823e-05
1.97521e-06
0.00163514
-3.61406e-06
5.56547e-05
-0.000398271
-1.66332e-05
4.92081e-05
0.000131267
-2.43423e-05
4.63362e-05
-0.000748065
-2.25576e-05
3.79477e-05
-0.000143427
-3.76069e-05
3.28198e-05
-2.82153e-05
-3.31377e-05
2.44867e-05
-0.000128857
-4.9168e-05
2.47074e-05
-0.000151245
-4.64059e-05
1.81136e-05
-0.00103209
-6.99074e-05
-8.9166e-06
-0.00137588
-6.56415e-05
-2.56623e-05
-0.00159273
-6.91618e-05
-2.04298e-05
-0.000910404
-6.1791e-05
-1.35142e-05
-0.00151524
-0.00164395
3.21322e-05
-0.00260555
-0.00134683
0.000169195
-0.00335615
-0.00158814
4.30186e-05
-0.00276402
-0.000971442
0.000317326
-0.00414352
-0.00129031
0.00016901
-0.00362253
-0.0015452
0.000142215
-0.00301425
-0.000441589
0.000874092
-0.0048559
-0.000947951
0.000599736
-0.00469004
-0.00122911
0.000138329
-0.00381767
-0.00142135
3.90375e-05
-0.00344968
-0.000156907
0.00104444
-0.00467823
-0.000164486
0.00105181
-0.00503132
-0.000454896
0.000974307
-0.00490991
-0.00121826
0.000631865
-0.00471153
-0.00135785
9.29905e-05
-0.00328622
-0.000252994
0.000646463
-0.0030124
-0.000174107
0.000751856
-0.00312412
-0.000106845
0.000830238
-0.00419871
-0.00013494
0.000779657
-0.00477905
-0.000749901
0.000854092
-0.00495017
-0.00125286
0.000416341
-0.0040716
-8.7789e-05
0.000665451
7.77144e-05
-0.000305396
0.00046267
-0.000882992
-0.000188671
0.000461946
-3.30007e-05
-7.87134e-05
0.000520265
-0.00129837
-0.000110765
0.000428022
-0.00297904
-0.000208014
0.000438513
-0.0041011
-0.00088136
0.000377241
-0.0043196
-0.000176339
0.000544473
0.000388978
3.03164e-05
0.000519305
0.000103958
-0.000311775
0.00042767
9.00706e-05
-0.000180754
0.000344338
0.000667423
-0.000158435
0.000364717
-9.04491e-05
-0.000173254
0.000334352
-3.96277e-05
-0.000129549
0.000289781
-0.00113717
-0.000451906
0.000224065
-0.00211718
-0.000203931
0.000458431
0.000176811
-9.45631e-05
0.000419279
0.000203411
4.46751e-05
0.000439255
-1.38016e-05
-0.00037346
0.00033713
0.000154592
-7.80197e-05
0.000279152
0.000375905
-0.000103006
0.000261006
0.000154179
-0.000109053
0.000221065
0.000311151
-0.0001589
0.000166952
0.00029439
-0.00021707
8.75962e-05
8.55432e-05
-0.00011487
0.000413368
-0.000422839
-9.5076e-05
0.000340299
0.000472715
-0.000154062
0.000291352
0.000240014
6.5178e-05
0.000306273
-9.13788e-05
-0.000277741
0.000268478
0.000708578
-4.68788e-05
0.000230437
0.000336852
-7.10447e-05
0.000210375
8.25878e-05
-7.79129e-05
0.000188665
0.000526669
-0.000116999
0.000119111
0.000283745
-0.00013412
5.40325e-05
0.000147698
-2.25997e-05
0.000285487
7.62017e-05
-0.000125845
0.000273678
-0.000704314
6.70525e-08
0.000239335
0.000257619
-0.000135185
0.000208394
-0.000104142
8.58613e-06
0.000178798
-0.000523084
-0.000109409
0.00016806
-0.000232079
-7.14668e-05
0.000127115
-0.000478539
-5.27479e-05
0.000117711
-0.000188804
-6.71407e-05
8.6676e-05
-0.000166197
-5.53753e-05
4.3849e-05
-0.000244836
-8.25551e-05
3.10547e-05
-0.00031378
1.21744e-06
0.000186053
0.000276288
-3.23843e-06
0.000168872
5.38335e-05
-8.27979e-05
0.000154822
-0.000859626
-2.57539e-05
0.00013839
7.38066e-05
-7.44451e-05
0.000128772
-0.000184932
-4.07583e-05
0.000110361
-0.000292394
-6.49003e-05
0.000115621
-0.000175238
-6.29892e-05
0.000119845
-6.30981e-05
-6.07947e-05
0.000106345
0.000240168
-6.03573e-05
9.51941e-05
0.000486845
-7.20692e-05
4.5606e-05
0.000287436
-9.24537e-05
7.74977e-07
0.00166503
-4.58008e-06
6.19945e-05
-0.000473651
-4.67655e-06
5.5543e-05
-0.00039993
-1.5741e-05
4.90756e-05
0.000144269
-2.70765e-05
4.61628e-05
-0.000729204
-2.34131e-05
3.77942e-05
-0.000124988
-3.6576e-05
3.26853e-05
1.62032e-07
-3.33319e-05
2.45526e-05
-9.53706e-05
-4.87264e-05
2.42415e-05
-0.000108647
-4.57361e-05
1.85379e-05
-0.00101381
-7.22483e-05
-9.37905e-06
-0.00131992
-6.98293e-05
-2.73738e-05
-0.00151596
-6.99865e-05
-2.21673e-05
-0.000831764
-6.35431e-05
-1.31836e-05
-0.00143851
-0.00165488
3.36184e-05
-0.0024247
-0.00140364
0.000113168
-0.00312377
-0.00160664
4.8691e-05
-0.00263574
-0.00102772
0.000139682
-0.00373543
-0.00139772
0.000179426
-0.00338514
-0.00162511
3.73215e-05
-0.00272143
-0.000655868
0.000537244
-0.00450809
-0.00110175
0.000297713
-0.00411842
-0.00124056
0.000130532
-0.0035994
-0.00156673
0.000148994
-0.00301786
-0.000352661
0.000996741
-0.00482116
-0.000543413
0.000922497
-0.00479973
-0.00095767
0.000610706
-0.00465965
-0.00122248
0.000128919
-0.00390333
-0.00139816
2.02156e-05
-0.00342958
-0.000319591
0.00105514
-0.00444142
-0.00022748
0.00105669
-0.00462974
-0.000202645
0.00104984
-0.00501105
-0.000385515
0.000987893
-0.00501536
-0.00125364
0.000625048
-0.00473985
-0.00135542
0.000107003
-0.00329065
-0.000173908
0.000833771
-0.00208107
-0.000241992
0.000591363
-0.00291531
-0.000158022
0.000770134
-0.00309466
-0.000129211
0.00079823
-0.00416678
-2.3973e-05
0.000813048
-0.0048248
-0.000529467
0.000821272
-0.00503364
-0.00130613
0.000406028
-0.00405286
-0.000277786
0.000615359
-3.16751e-05
-0.000145489
0.000671836
4.43542e-05
-0.000308462
0.00045018
-0.000874539
-0.000227411
0.000412831
0.00012109
-0.000132191
0.000486108
-0.0013827
-0.000129652
0.000420398
-0.00300453
-0.000122079
0.000402965
-0.00413429
-0.000836407
0.00037901
-0.0043141
-0.000304486
0.000597066
-0.000321647
-8.2077e-05
0.00052841
0.000367387
-4.80914e-05
0.000522791
0.000101602
-0.000341484
0.00040819
-5.75738e-06
-0.00010223
0.000356165
0.000700185
-0.000185889
0.00036287
-3.60841e-05
-0.000118854
0.000318552
-5.85986e-05
-0.000204189
0.000280531
-0.00114835
-0.000475451
0.000214486
-0.00207329
-0.000150277
0.000508278
-0.000547611
-0.000206432
0.00045618
0.000251267
-5.79437e-05
0.000436262
0.000110285
5.33229e-05
0.00044674
-0.000111556
-0.000406269
0.000343182
0.000219091
-6.81374e-05
0.000302725
0.000355446
-0.000126495
0.000259959
0.000170734
-0.000116509
0.000217498
0.0002992
-0.000157441
0.000158891
0.000263537
-0.00021217
8.5166e-05
7.84277e-05
-6.10344e-05
0.000411285
4.35876e-05
-0.000159322
0.000410339
-0.000459403
-2.56491e-05
0.000341492
0.000448291
-0.00010367
0.000301947
0.000212825
0.000107537
0.000317338
-0.000239189
-0.000200518
0.000268424
0.000761699
-3.99707e-05
0.000234958
0.000280773
-6.53212e-05
0.000207299
7.65274e-05
-9.27528e-05
0.000184258
0.000487134
-0.000103088
0.000119908
0.000265582
-0.000126326
4.66997e-05
0.00014477
6.28647e-06
0.000311266
0.000376653
4.58427e-06
0.000288617
5.34398e-05
-0.000181118
0.000271362
-0.00063802
-1.32211e-05
0.000230501
0.000222979
-0.000107476
0.000209175
-0.000101489
-1.26443e-05
0.000174375
-0.000557513
-8.43401e-05
0.000168442
-0.000253966
-7.92558e-05
0.000131152
-0.000475713
-4.38869e-05
0.00012011
-0.000239146
-6.64692e-05
7.91447e-05
-0.00019538
-6.75962e-05
4.18051e-05
-0.000260059
-8.27838e-05
2.80339e-05
-0.000351484
-1.38794e-05
0.000197118
-0.000418757
7.61867e-06
0.000186805
0.00024606
-3.32159e-06
0.000168147
2.80889e-05
-9.3961e-05
0.000156705
-0.000811056
-2.58645e-05
0.000133071
7.19589e-05
-6.92467e-05
0.000127521
-0.000169421
-4.63505e-05
0.000110847
-0.000274602
-5.63947e-05
0.000116296
-0.000164021
-5.51707e-05
0.000121204
-6.85231e-05
-5.71465e-05
0.000111445
0.000208815
-5.74062e-05
9.82996e-05
0.000421728
-6.96836e-05
4.51408e-05
0.000242767
-9.11752e-05
-2.02165e-06
0.00169469
-8.29416e-06
6.41984e-05
-0.000128473
-3.65096e-06
6.18204e-05
-0.000476278
-5.74219e-06
5.552e-05
-0.000400632
-1.28876e-05
4.9005e-05
0.000154314
-3.32718e-05
4.60912e-05
-0.000704229
-2.44281e-05
3.76958e-05
-0.00010557
-3.55675e-05
3.25983e-05
2.76838e-05
-3.31729e-05
2.45138e-05
-6.24699e-05
-4.78541e-05
2.42759e-05
-6.65309e-05
-4.54021e-05
1.80213e-05
-0.000995804
-7.58946e-05
-1.02913e-05
-0.0012611
-7.35137e-05
-3.00874e-05
-0.00143453
-7.10869e-05
-2.21373e-05
-0.000751723
-6.54432e-05
-1.25262e-05
-0.00136054
-0.00162063
1.25248e-05
-0.00236878
-0.00144911
8.8415e-05
-0.00295188
-0.00163862
5.37442e-05
-0.00244646
-0.00108214
0.000148705
-0.00342837
-0.00144387
0.000133948
-0.00316289
-0.00165887
3.80833e-05
-0.00264007
-0.000685344
0.00025505
-0.0041065
-0.00113562
0.000156392
-0.00367853
-0.00136594
0.000172224
-0.00339467
-0.00158055
2.79271e-05
-0.00273553
-0.000452055
0.000682118
-0.00458575
-0.000828204
0.000538166
-0.00446375
-0.00113339
0.000292519
-0.00410468
-0.00122196
0.000136895
-0.00358782
-0.0015556
0.000148581
-0.003009
-0.000454575
0.00115792
-0.00490393
-0.000299024
0.000999256
-0.00482637
-0.000410362
0.000922105
-0.00490342
-0.000938389
0.00065542
-0.00463327
-0.00127444
9.58049e-05
-0.00395811
-0.00140578
4.2601e-05
-0.00342183
-0.00010059
0.00103843
-0.00411958
-0.000286732
0.00102969
-0.00436967
-0.000193952
0.00108247
-0.00462644
-0.0002231
0.00106395
-0.00499322
-0.000392817
0.000987198
-0.00500866
-0.00114962
0.000658269
-0.00467097
-0.00137749
0.000120479
-0.00333978
-0.000409956
0.000820863
-0.0016666
-0.000210183
0.000829417
-0.00225443
-0.000278048
0.00059236
-0.00276795
-0.000135733
0.000754346
-0.00314246
-8.40666e-05
0.000787749
-0.00418961
-4.89652e-05
0.000787014
-0.00487123
-0.000612565
0.000829962
-0.00496709
-0.00118751
0.000406387
-0.00410814
-0.00028252
0.000687644
-0.000540004
-0.000195525
0.00064363
0.000109979
-0.000276401
0.000663717
5.91266e-05
-0.000312815
0.000450745
-0.000941123
-0.000177487
0.000475441
0.000207013
-0.000214686
0.000476992
-0.0014105
-0.000106004
0.000414788
-0.0030292
-0.000296627
0.000419443
-0.00408229
-0.00085832
0.000382135
-0.00431337
-0.000162102
0.000645383
-0.000208636
-0.000284128
0.000579032
-0.000294574
-7.84811e-05
0.000546472
0.000364244
-8.61374e-05
0.000529127
0.000120125
-0.000352148
0.000411716
-0.00011543
-9.91472e-05
0.000398698
0.000695367
-0.000196475
0.000349088
3.36028e-06
-0.000156017
0.000317313
-5.58721e-05
-0.000225246
0.000275301
-0.00114136
-0.000367223
0.000207789
-0.00212603
-3.83288e-05
0.000562272
9.94048e-05
-0.000173835
0.000485855
-0.000562774
-0.000116386
0.000440353
0.000337913
-6.29399e-05
0.000436673
7.9622e-05
0.000174803
0.000432439
-0.000268079
-0.000241796
0.000337207
0.000225886
-1.51084e-05
0.000324214
0.000266329
-0.000117378
0.000254151
0.000186138
-0.000124739
0.000211538
0.000278539
-0.000152928
0.000155585
0.000242958
-0.000201305
8.02267e-05
7.31801e-05
-4.20838e-05
0.000446965
0.000205427
-2.86447e-05
0.000420054
6.71012e-05
-0.000274353
0.000391082
-0.000415758
-3.14035e-05
0.000330375
0.000438045
-0.000133622
0.000306544
0.000249764
-1.81954e-05
0.000312025
-0.000277239
-0.000102319
0.000265403
0.000749232
-6.07701e-05
0.000236266
0.00023332
-5.34879e-05
0.000203628
6.6758e-05
-9.31807e-05
0.00017822
0.000455534
-0.000114841
0.000110312
0.000249215
-0.000119067
4.27947e-05
0.000138258
-2.4419e-07
0.000330063
-0.000622522
2.1627e-05
0.000316573
0.000334688
5.29933e-05
0.000287811
-1.93238e-05
-0.000204562
0.000266962
-0.000563881
-3.41503e-05
0.000223803
0.000216638
-0.000102031
0.000206928
-0.000101258
-4.73216e-05
0.000172459
-0.000560558
-6.09558e-05
0.00017028
-0.000288533
-8.48427e-05
0.000138258
-0.00046419
-4.75627e-05
0.000120584
-0.000290168
-5.72939e-05
7.77996e-05
-0.000231487
-7.23076e-05
4.04228e-05
-0.000269824
-8.53341e-05
2.5362e-05
-0.000382687
-4.76998e-05
0.00020701
-0.000162294
-5.89435e-06
0.00019654
-0.000426248
4.20115e-06
0.000184767
0.000219496
-3.55903e-07
0.000167539
4.7231e-06
-0.000116556
0.000155792
-0.000750492
-2.97916e-05
0.000135794
6.90493e-05
-6.18853e-05
0.00012763
-0.000159886
-4.70987e-05
0.000112397
-0.000256777
-5.35784e-05
0.000117305
-0.000154398
-3.8708e-05
0.000122878
-8.66504e-05
-4.89715e-05
0.000116141
0.000164051
-5.01183e-05
0.000102752
0.000340722
-6.78353e-05
4.24994e-05
0.000194994
-8.971e-05
-7.83042e-06
0.00172678
-5.57354e-06
6.66866e-05
-0.000273758
-9.45317e-06
6.39936e-05
-0.000121193
-6.25957e-06
6.15914e-05
-0.00047609
-7.25473e-06
5.55023e-05
-0.000399875
-8.2995e-06
4.89083e-05
0.000159796
-2.96214e-05
4.59721e-05
-0.000682884
-2.48078e-05
3.76588e-05
-8.5823e-05
-3.43877e-05
3.24918e-05
5.40934e-05
-3.28724e-05
2.44906e-05
-2.98122e-05
-4.65795e-05
2.42371e-05
-2.61672e-05
-4.59128e-05
1.81329e-05
-0.000978315
-7.86812e-05
-1.0769e-05
-0.00120174
-7.50562e-05
-3.03066e-05
-0.0013513
-7.09305e-05
-2.18971e-05
-0.000671422
-6.49516e-05
-1.18562e-05
-0.00128374
-0.00164144
5.55388e-06
-0.00224301
-0.00146807
2.5194e-05
-0.00285351
-0.00167581
4.48551e-06
-0.00233608
-0.00124347
0.000248351
-0.00325135
-0.00149935
0.000112743
-0.0029554
-0.00171027
6.75863e-05
-0.00246264
-0.00084614
0.000300805
-0.00367962
-0.00109067
0.00012906
-0.00346844
-0.0014588
0.000128801
-0.00316075
-0.00157757
2.39116e-05
-0.00266697
-0.000575823
0.000455685
-0.00426255
-0.000904637
0.000239669
-0.00411335
-0.00108224
0.000147497
-0.00370496
-0.00137602
0.000164521
-0.0033772
-0.00159834
3.90034e-05
-0.00273179
-0.000762739
0.0010189
-0.00471841
-0.000407111
0.000708233
-0.00464773
-0.000680479
0.000561366
-0.00446248
-0.00110212
0.000299228
-0.00410329
-0.00127368
0.000147254
-0.00358725
-0.00157577
0.000161769
-0.00300078
-0.000209466
0.00122933
-0.00478997
-0.000428367
0.00116094
-0.00492398
-0.000252299
0.00102501
-0.00487093
-0.000495281
0.000892898
-0.00486871
-0.000929856
0.000641966
-0.00464239
-0.00123452
0.000115125
-0.00394574
-0.00141202
7.60519e-05
-0.00346335
-0.000388594
0.00106276
-0.00409371
-0.000202058
0.00104826
-0.00414628
-0.000222691
0.00103067
-0.00437323
-0.000147965
0.00109769
-0.00464795
-0.000203044
0.00107062
-0.00495766
-0.00043464
0.000985389
-0.00495011
-0.00115848
0.000641257
-0.00464584
-0.00123711
7.93866e-05
-0.00336956
-0.000302821
0.000859438
-0.00178256
-0.00031434
0.00085201
-0.00157037
-0.000375307
0.000765759
-0.00232892
-0.000315624
0.000617067
-0.00262787
-0.000197272
0.000733705
-0.00306863
-0.000119167
0.000736885
-0.004235
-0.000106658
0.000783646
-0.00482426
-0.000766057
0.000835828
-0.0049271
-0.00121231
0.000410799
-0.00416495
-0.000193467
0.000784722
0.000255998
-0.000260022
0.000683498
-0.000603977
-0.000198067
0.000685359
0.000207923
-0.00029443
0.000639327
7.88364e-05
-0.000294859
0.000478473
-0.00100144
-0.00017748
0.00050883
0.000253509
-0.000141281
0.000476581
-0.00152748
-0.000126241
0.000418118
-0.00305765
-0.000325423
0.000438788
-0.00403876
-0.00069331
0.000386469
-0.00437375
-6.44365e-05
0.000676695
0.000297236
-0.000219607
0.000644557
-0.000228389
-0.000184025
0.000571561
-0.000252024
-0.000137708
0.000554286
0.000413854
2.01488e-05
0.000535003
0.000151493
-0.000219342
0.000417978
-0.000157164
-5.07538e-06
0.00042999
0.000604431
-0.000170182
0.000338698
3.47798e-05
-0.000157303
0.00031021
-5.82178e-05
-0.000239221
0.000270243
-0.00111752
-0.000445124
0.000211952
-0.00209416
-0.000201734
0.000602298
0.000414891
-6.94421e-05
0.000565388
6.06694e-05
-0.000301373
0.000466573
-0.000561973
-9.61777e-05
0.000438959
0.000400401
-0.000162424
0.000437856
0.000103007
-6.67741e-05
0.000406432
-0.000288725
-0.000114644
0.000334534
0.000227891
-4.31931e-05
0.000327036
0.000175867
-9.55691e-05
0.000246167
0.00019359
-0.000117633
0.00020908
0.000249497
-0.000154469
0.00014726
0.000215552
-0.00019578
7.87606e-05
7.11333e-05
1.45556e-05
0.000468822
1.78753e-05
-4.10327e-05
0.000444297
0.000243844
0.000106823
0.000420836
-1.64819e-05
-0.000286041
0.000366164
-0.000370068
-7.20081e-05
0.000330161
0.000452285
-0.000125027
0.000303346
0.000281439
-8.95687e-05
0.000298047
-0.000267636
-3.87579e-05
0.000256073
0.000707228
-8.92596e-05
0.00024102
0.000200344
-4.40417e-05
0.000196767
4.46899e-05
-8.01766e-05
0.00017873
0.000409998
-0.000121341
0.000102305
0.000238738
-0.000117003
3.71375e-05
0.000132789
-0.000106687
0.000355893
-7.60472e-05
-2.33918e-05
0.000328583
-0.000617034
-1.18636e-06
0.000317737
0.000310149
3.46015e-05
0.000282889
-7.02084e-05
-0.000191079
0.00027168
-0.000537234
-2.61553e-05
0.000230972
0.000188957
-0.00010122
0.000207339
-9.68034e-05
-7.64081e-05
0.0001749
-0.000535869
-3.59777e-05
0.000167965
-0.000335841
-6.57839e-05
0.000147342
-0.000463871
-4.41879e-05
0.000107979
-0.000325132
-5.43467e-05
7.92378e-05
-0.000266074
-7.16293e-05
3.88523e-05
-0.000279521
-8.75577e-05
2.37558e-05
-0.000408595
2.40966e-05
0.000214367
-9.36168e-05
-2.56631e-05
0.000203781
-0.000153325
-4.04672e-06
0.000195538
-0.000439232
-5.56965e-06
0.000184576
0.000200774
3.81454e-05
0.000170913
-5.68434e-05
-7.61958e-05
0.000156085
-0.000724209
-3.21381e-05
0.000134901
6.91082e-05
-5.27948e-05
0.000128589
-0.000157671
-4.34087e-05
0.000113201
-0.000242136
-4.97561e-05