/*--------------------------------*- C++ -*----------------------------------*\
  =========                 |
  \\      /  F ield         | OpenFOAM: The Open Source CFD Toolbox
   \\    /   O peration     | Website:  https://openfoam.org
    \\  /    A nd           | Version:  7
     \\/     M anipulation  |
\*---------------------------------------------------------------------------*/
FoamFile
{
    version     2.0;
    format      ascii;
    class       surfaceScalarField;
    location    "1";
    object      phi_0;
}
// * * * * * * * * * * * * * * * * * * * * * * * * * * * * * * * * * * * * * //

dimensions      [0 3 -1 0 0 0 0];

internalField   nonuniform List<scalar> 
54125
(
-1.5092e-05
-5.3313e-06
-0.00210838
-0.000139546
1.6158e-05
0.000973632
-5.02421e-05
-1.86633e-05
-0.00164764
-1.99291e-05
-5.25323e-06
-0.00208319
-0.000141432
4.51158e-05
0.000189214
-9.82964e-05
4.13448e-05
0.000512254
-0.000126912
1.55414e-05
0.00106507
-2.8237e-05
-2.13213e-05
-0.00204914
-5.31895e-05
-1.73809e-05
-0.00158232
-2.73504e-05
-6.23814e-06
-0.00204961
-0.000166385
8.76166e-05
0.000345435
-6.97442e-05
5.68843e-05
7.41911e-05
-0.000113341
4.76436e-05
0.000128
-9.44455e-05
6.83351e-05
0.000640952
-8.9644e-05
5.24228e-05
0.000511827
-0.000132756
1.11532e-05
0.00115933
-3.46867e-05
-9.00915e-06
-0.00171673
-3.2233e-05
-2.01845e-05
-0.0020141
-5.73329e-05
-1.65532e-05
-0.00151467
-2.82985e-05
-7.22613e-06
-0.00201408
-0.000215066
0.000106868
0.000362009
-8.14488e-05
0.000175692
0.000564494
-0.000141423
8.51539e-05
0.000288362
-8.59776e-05
0.000104109
0.00022983
-5.95944e-05
5.5583e-05
3.62021e-05
-0.000107391
4.5434e-05
5.72012e-05
-9.29256e-05
8.36241e-05
0.000143311
-8.73979e-05
7.91378e-05
0.000669402
-8.89377e-05
4.02057e-05
0.000514379
-0.000120246
1.11366e-05
0.00124014
-4.30177e-05
1.44819e-05
-0.00117136
-4.10223e-05
-8.9927e-06
-0.0016869
-3.70292e-05
-1.95252e-05
-0.0019741
-6.17192e-05
-1.66652e-05
-0.00144352
-3.45172e-05
-8.14899e-06
-0.00197141
-0.000383776
0.000219915
-0.00193961
-0.000120601
0.000203909
0.000469422
-0.000169632
0.000108095
0.000282123
-9.24685e-05
0.0002106
0.000703154
-9.23372e-05
0.000164512
0.000517878
-0.000144527
7.33294e-05
0.000252169
-8.35765e-05
0.000115524
-7.40665e-06
-7.26496e-05
0.000100833
0.000169833
-5.97724e-05
5.54251e-05
-2.95433e-06
-0.000115381
4.337e-05
8.96665e-06
-9.45102e-05
9.7668e-05
-0.0001535
-9.3415e-05
8.23007e-05
0.00019254
-8.71842e-05
6.89775e-05
0.000690785
-8.7833e-05
5.11623e-05
0.000500467
-0.000119396
8.0624e-06
0.00131695
-5.07178e-05
2.36074e-05
-0.00040906
-4.51603e-05
1.47451e-05
-0.00114994
-4.67407e-05
-8.47958e-06
-0.0016512
-3.7607e-05
-1.90262e-05
-0.00193414
-6.2536e-05
-1.67675e-05
-0.00137236
-4.27778e-05
-9.54432e-06
-0.00191909
-0.000696817
0.000400465
-0.00438239
-0.000222192
0.00031851
-0.00101444
-0.000367316
0.000235794
-0.00197772
-9.55749e-05
0.000243635
0.000408893
-0.000135752
0.000185604
0.000435328
-0.00017791
0.00010143
0.000214075
-7.32684e-05
0.000234212
0.000273067
-8.20943e-05
0.000207784
0.000669327
-0.000104695
0.000155541
0.00048059
-0.000157645
6.41851e-05
0.000230248
-8.32273e-05
0.000134881
-0.000316702
-8.32972e-05
0.000111345
-2.80365e-05
-6.1765e-05
9.92338e-05
0.000100605
-5.84045e-05
5.51481e-05
-4.41609e-05
-0.000117167
4.27371e-05
-3.5999e-05
-8.92834e-05
0.000104536
-0.000315857
-9.18678e-05
9.76189e-05
-0.00012211
-9.21564e-05
8.39619e-05
0.000222972
-7.44534e-05
8.36282e-05
0.000695165
-8.86167e-05
4.81757e-05
0.000486435
-0.000124297
3.08465e-06
0.00139539
-3.32505e-05
2.44135e-05
-0.000287589
-5.11831e-05
2.391e-05
-0.000367042
-4.60563e-05
1.54913e-05
-0.00112786
-5.09552e-05
-7.63549e-06
-0.00161164
-4.28739e-05
-2.03563e-05
-0.00188767
-6.8359e-05
-1.71e-05
-0.00129645
-4.30703e-05
-1.03857e-05
-0.00186564
-0.00114027
0.000424288
-0.00410489
-0.000311353
0.00042947
-0.00392899
-0.000807193
0.000407922
-0.00435043
-0.000194243
0.000366182
-1.95948e-07
-0.000203589
0.00031735
-0.00102816
-0.00035512
0.000262753
-0.00206326
-9.04019e-05
0.000293564
0.000328705
-0.000104031
0.000238546
0.000377887
-0.000149442
0.000172574
0.000408931
-0.000226271
9.51942e-05
0.000187507
-4.10042e-05
0.000243114
0.000570522
-7.44165e-05
0.000230553
0.000241417
-7.30267e-05
0.000205569
0.000630561
-0.000106679
0.000152217
0.000440832
-0.000161472
6.27189e-05
0.000211834
-0.000122893
0.000184772
-0.000212946
-7.17647e-05
0.00013116
-0.000356621
-8.18963e-05
0.000108962
-4.80246e-05
-6.63826e-05
9.75889e-05
5.0093e-05
-5.78376e-05
5.49334e-05
-8.71362e-05
-0.000115055
4.30954e-05
-8.83368e-05
-4.39597e-05
0.0001108
-0.000329154
-8.71444e-05
0.000106119
-0.000288396
-8.85357e-05
0.000101519
-9.71876e-05
-8.73111e-05
9.20344e-05
0.000250921
-7.11442e-05
8.32185e-05
0.000688393
-9.04924e-05
4.70434e-05
0.000464609
-0.000107599
1.84538e-06
0.00145807
-3.68787e-05
3.31627e-05
-0.00014601
-3.28489e-05
2.45466e-05
-0.000255377
-5.04862e-05
2.41533e-05
-0.000325218
-4.57925e-05
1.64698e-05
-0.00110617
-5.57014e-05
-7.64297e-06
-0.00156865
-4.4897e-05
-2.01975e-05
-0.00183968
-7.07515e-05
-1.86009e-05
-0.00121748
-4.64299e-05
-1.10196e-05
-0.00180819
-0.00136561
0.000103942
-0.00321268
-0.000741066
0.000800305
-0.00482574
-0.0012858
0.000446329
-0.00407261
-0.000185739
0.000430888
-0.00291152
-0.000145301
0.000432234
-0.0040116
-0.000818319
0.000415178
-0.00430241
-0.000102549
0.000409639
4.26328e-05
-0.000172588
0.000356831
2.88796e-05
-0.000125145
0.000301891
-0.0010916
-0.00048329
0.000247791
-0.00205404
-2.43691e-05
0.000325405
0.000368585
-8.71462e-05
0.000288627
0.000291354
-0.000117942
0.000235858
0.000359518
-0.000163836
0.000178207
0.000383077
-0.000229518
9.55674e-05
0.000159986
-0.000234136
0.000287897
0.00037399
-1.93192e-05
0.000245707
0.000502923
-5.72807e-05
0.000229015
0.000193355
-8.5852e-05
0.000198703
0.000603544
-0.000102664
0.000155647
0.000392731
-0.000160592
6.55578e-05
0.000191814
1.12307e-05
0.00020578
-0.000276214
-0.000118324
0.000176452
-0.000227059
-5.94031e-05
0.000129682
-0.000406473
-7.76726e-05
0.000107586
-6.76605e-05
-6.60405e-05
9.83581e-05
1.56462e-06
-5.79686e-05
5.29034e-05
-0.000129468
-0.000108245
4.3194e-05
-0.000130886
-7.77368e-05
0.00013242
-0.00029945
-4.15413e-05
0.000111732
-0.000326075
-7.88428e-05
0.000109757
-0.000268277
-8.18219e-05
0.000110253
-7.93771e-05
-8.26899e-05
9.48245e-05
0.000266304
-6.21173e-05
8.6971e-05
0.000665685
-8.93213e-05
4.63465e-05
0.000438678
-0.000104701
1.0366e-06
0.00151531
-1.93191e-05
3.80157e-05
-0.000194244
-3.76348e-05
3.30983e-05
-0.000116927
-3.16365e-05
2.46893e-05
-0.000224276
-5.16335e-05
2.44134e-05
-0.000281528
-4.56404e-05
1.74617e-05
-0.00108563
-5.89503e-05
-7.14974e-06
-0.00152275
-5.07259e-05
-2.09973e-05
-0.00178656
-7.11514e-05
-1.8711e-05
-0.00113864
-5.25319e-05
-1.15429e-05
-0.00174411
-0.00143278
3.20711e-05
-0.00334456
-0.00128655
0.000646922
-0.00470226
-0.00139772
0.000182043
-0.0032828
-5.709e-05
0.000780784
-0.00484409
-0.000294359
0.000826149
-0.00505651
-0.00129224
0.000417749
-0.00401643
-8.58875e-05
0.000471426
-0.00114147
-0.000151223
0.000443931
-0.00294458
-0.000136653
0.000456837
-0.00404175
-0.000869212
0.000394474
-0.00431096
-0.000111482
0.000417613
0.000321523
-5.30387e-05
0.000416448
-5.10908e-05
-0.000130982
0.000354116
-1.03057e-05
-0.000208641
0.000297552
-0.00109655
-0.000463804
0.000237928
-0.00205768
-0.000309519
0.000365745
8.39419e-06
-1.119e-05
0.000325106
0.000323977
-4.03305e-05
0.000282345
0.000227916
-0.000124599
0.000233545
0.000342926
-0.000168613
0.000180181
0.000364412
-0.000227442
9.99409e-05
0.000126894
7.32757e-05
0.000318828
0.000132801
-0.000201781
0.000286548
0.000416606
-2.17788e-05
0.000246439
0.000447874
-5.13263e-05
0.000223968
0.000141744
-9.18838e-05
0.000195613
0.000589421
-0.00010495
0.000153931
0.000351339
-0.000152205
6.19583e-05
0.000173816
-0.00012663
0.000227943
-0.000205966
1.04752e-05
0.0001918
-0.000343578
-0.000115587
0.000171321
-0.000231953
-6.58798e-05
0.000126731
-0.00044156
-7.32365e-05
0.000108794
-8.75499e-05
-6.3227e-05
9.71864e-05
-4.16085e-05
-5.98311e-05
5.11629e-05
-0.000166927
-9.9936e-05
4.06399e-05
-0.000176291
-9.52621e-06
0.000142605
0.000103317
-8.64969e-05
0.000132142
-0.000270999
-4.09962e-05
0.000112763
-0.000319722
-7.94839e-05
0.000112024
-0.000242197
-7.73108e-05
0.000115202
-6.80838e-05
-7.59517e-05
9.65249e-05
0.000273751
-6.00887e-05
9.07577e-05
0.000630637
-8.34617e-05
4.65842e-05
0.000405441
-0.000104892
8.49649e-07
0.00156682
-1.89419e-05
4.62695e-05
-0.000772394
-2.02899e-05
3.79808e-05
-0.000178836
-3.78777e-05
3.30175e-05
-8.73774e-05
-3.22442e-05
2.48266e-05
-0.000192445
-5.0818e-05
2.44515e-05
-0.0002377
-4.68111e-05
1.7894e-05
-0.00106387
-6.14425e-05
-5.84162e-06
-0.00147646
-5.56009e-05
-2.22834e-05
-0.00172738
-6.9988e-05
-1.86084e-05
-0.00106158
-5.53513e-05
-1.21437e-05
-0.00167662
-0.00153881
0.000151345
-0.00301406
-0.00129593
0.000131665
-0.00405338
-0.00145663
0.00010556
-0.00339121
-0.000408107
0.000962428
-0.00503085
-0.000868453
0.000728046
-0.00467417
-0.00134441
0.00010697
-0.0033376
-0.000113816
0.000791216
-0.00426529
-9.85494e-05
0.0007721
-0.00484272
-0.000649368
0.000813186
-0.00493923
-0.00125172
0.000434503
-0.00406842
-0.000166942
0.000451803
-0.0002462
-3.24185e-05
0.000488972
-0.00120713
-0.000136224
0.000480801
-0.0029633
-0.000264968
0.000462718
-0.00405366
-0.000844437
0.000405294
-0.00433562
-0.000309738
0.000462035
0.000136049
-9.79529e-05
0.000404251
0.000420483
-2.10867e-05
0.000417367
-0.000133585
-0.000148436
0.000347357
-3.62734e-05
-0.000271287
0.000292374
-0.00104833
-0.000431859
0.000238741
-0.002092
8.29996e-05
0.000433289
0.000137814
-0.000290411
0.000352997
6.91333e-05
-5.43731e-05
0.000302312
0.000336605
-4.75883e-05
0.000270869
0.000186855
-0.000131412
0.000227493
0.000335143
-0.000169578
0.000176217
0.000352765
-0.000226364
9.11311e-05
0.000109922
-0.000159849
0.000306277
0.00025192
3.96409e-05
0.000320838
6.93453e-05
-0.000225567
0.000290895
0.00048213
-4.93422e-05
0.000239732
0.000415573
-6.16847e-05
0.000216276
0.000109529
-9.3574e-05
0.000188443
0.000585257
-0.000115754
0.000145044
0.000324176
-0.000144931
5.6826e-05
0.000161984
-1.84248e-06
0.000254721
0.000343104
-0.000133819
0.000216581
-0.000183425
2.3649e-05
0.000174037
-0.00041094
-0.000124969
0.000170251
-0.000229988
-7.40427e-05
0.000124377
-0.000460411
-6.49243e-05
0.000112089
-0.00011348
-5.59265e-05
9.44529e-05
-8.90607e-05
-6.18328e-05
4.79666e-05
-0.000195883
-9.0864e-05
3.8061e-05
-0.00022838
-6.53064e-05
0.000149339
-0.00094605
-1.36405e-05
0.000142062
8.6747e-05
-9.89695e-05
0.000132253
-0.000229397
-3.93691e-05
0.00011083
-0.000311403
-7.61734e-05
0.000114177
-0.000215817
-7.29181e-05
0.00011663
-6.2082e-05
-7.13113e-05
9.91123e-05
0.000275266
-5.88707e-05
9.11902e-05
0.000589301
-7.74644e-05
4.69403e-05
0.000366827
-9.73001e-05
1.47482e-06
0.00160729
-1.80487e-05
4.93105e-05
0.000119888
-2.18894e-05
4.64604e-05
-0.000758985
-2.15198e-05
3.79092e-05
-0.000162208
-3.90994e-05
3.28725e-05
-5.63238e-05
-3.26563e-05
2.47139e-05
-0.000160052
-5.11029e-05
2.42926e-05
-0.000192995
-4.5583e-05
1.88723e-05
-0.001043
-6.52262e-05
-6.91554e-06
-0.0014266
-6.00228e-05
-2.46263e-05
-0.00166134
-6.95036e-05
-1.96886e-05
-0.000984535
-5.79141e-05
-1.29246e-05
-0.00160578
-0.00158896
5.54377e-05
-0.00275024
-0.00118239
0.000167876
-0.00369001
-0.00155799
0.000122669
-0.00303537
-0.000859362
0.000652785
-0.00472671
-0.00117553
0.000181049
-0.00382179
-0.00138443
9.89711e-05
-0.00345016
-0.000167879
0.00103895
-0.00502655
-0.000487026
0.000962264
-0.00487659
-0.00118473
0.00065326
-0.00468509
-0.00138009
9.35802e-05
-0.00330282
-0.000132808
0.000750543
-0.00314739
-8.01256e-05
0.000790053
-0.00423553
-0.000167366
0.000787989
-0.00478638
-0.000696693
0.000845395
-0.00491839
-0.00124577
0.000431607
-0.00409869
-0.000310759
0.000507538
-0.000849778
-0.000177755
0.000460072
-0.000137498
-2.15371e-05
0.000529043
-0.00125493
-0.000194646
0.000482065
-0.00293644
-0.000358214
0.000458636
-0.00402008
-0.000809297
0.000404065
-0.00436225
4.16358e-05
0.0005105
0.000150605
-0.000328669
0.000445459
0.000133099
-0.000148869
0.000378355
0.00055399
-6.03855e-05
0.000365952
-0.000139383
-0.000167392
0.000332076
-3.99951e-05
-0.000245282
0.000295444
-0.00102933
-0.000453409
0.00024006
-0.00210502
-0.000137033
0.000406178
0.000233928
6.12395e-05
0.000421856
4.73571e-05
-0.000308965
0.00034816
0.000106684
-8.93138e-05
0.000275366
0.000372079
-7.40002e-05
0.000264002
0.000162662
-0.000127684
0.000218685
0.000326784
-0.000165879
0.000169392
0.000324628
-0.000217795
8.92929e-05
9.34934e-05
-9.46154e-05
0.000355062
0.000430045
-0.00012793
0.000300026
0.000266842
7.65543e-05
0.000304615
2.72009e-06
-0.000264432
0.000271353
0.000589972
-6.08103e-05
0.000232833
0.000385783
-6.99901e-05
0.000210711
9.23262e-05
-7.46931e-05
0.000188873
0.000560195
-0.000112797
0.000133806
0.00029816
-0.000135322
5.2229e-05
0.000154213
-9.56954e-05
0.000271167
-0.000732711
-1.28618e-05
0.000246985
0.000311921
-0.000194416
0.000205391
-0.000119332
6.71829e-06
0.000177902
-0.000464678
-0.00012488
0.000169309
-0.000226213
-7.38967e-05
0.000124596
-0.000471939
-5.94327e-05
0.000116001
-0.000146907
-5.82394e-05
9.10779e-05
-0.000132803
-6.48033e-05
4.61516e-05
-0.000216634
-8.72202e-05
3.33362e-05
-0.000271796
-5.50398e-06
0.000169842
9.28226e-05
-7.26151e-05
0.00015166
-0.000904921
-2.19236e-05
0.000141006
7.83973e-05
-8.64099e-05
0.000129322
-0.000200578
-3.88524e-05
0.000110939
-0.000301969
-7.2535e-05
0.000114243
-0.000191997
-6.71603e-05
0.000118926
-6.03181e-05
-6.70714e-05
0.000102072
0.000266229
-5.95426e-05
9.30968e-05
0.000542664
-7.18804e-05
4.62342e-05
0.000324444
-9.02362e-05
2.05888e-06
0.00163755
-3.57981e-06
5.5707e-05
-0.00039994
-1.64512e-05
4.92079e-05
0.000133592
-2.44363e-05
4.63166e-05
-0.000742956
-2.25547e-05
3.79381e-05
-0.000144719
-3.76573e-05
3.28023e-05
-2.67549e-05
-3.31674e-05
2.44495e-05
-0.000127041
-4.92634e-05
2.46242e-05
-0.000149484
-4.65713e-05
1.81421e-05
-0.00102148
-6.98565e-05
-8.63778e-06
-0.00137274
-6.56199e-05
-2.57417e-05
-0.00158967
-6.94068e-05
-2.02476e-05
-0.000907805
-6.24424e-05
-1.33728e-05
-0.00152996
-0.00164364
3.20416e-05
-0.00260523
-0.00134505
0.000169094
-0.0033573
-0.00158798
4.34039e-05
-0.00276365
-0.000971571
0.000318217
-0.00414507
-0.00128801
0.00016892
-0.00362378
-0.00154466
0.000141631
-0.00301676
-0.000438182
0.000873394
-0.00485742
-0.000942518
0.00060267
-0.00469284
-0.0012289
0.000140976
-0.00381962
-0.00142028
3.93007e-05
-0.00344927
-0.000155787
0.00104166
-0.00467375
-0.000164495
0.00104966
-0.00502958
-0.000455026
0.000973112
-0.00490878
-0.00121236
0.000637844
-0.00471369
-0.00135947
9.74265e-05
-0.00328655
-0.000251795
0.000646396
-0.00299969
-0.000175206
0.000749491
-0.00310938
-0.000108466
0.000827805
-0.00418842
-0.000140834
0.000775001
-0.0047698
-0.000749956
0.000850595
-0.00494564
-0.00124691
0.000418122
-0.0040792
-8.68052e-05
0.000664667
8.4169e-05
-0.000305887
0.000463832
-0.00087632
-0.000189715
0.000460932
-2.85401e-05
-7.73274e-05
0.000520459
-0.00127638
-0.000116135
0.000428483
-0.00295754
-0.000214694
0.000438295
-0.0040849
-0.00087755
0.000377046
-0.00431515
-0.000177982
0.000544838
0.000385778
3.25827e-05
0.000519519
0.000105202
-0.000312883
0.000427915
8.74577e-05
-0.000181819
0.000344726
0.000667721
-0.000157878
0.000364366
-8.77958e-05
-0.000174377
0.000334291
-3.21491e-05
-0.000129415
0.000289323
-0.00111505
-0.000449844
0.000223541
-0.00209651
-0.000203656
0.00045872
0.000174244
-9.62626e-05
0.000418902
0.000205214
4.66605e-05
0.000439926
-1.45151e-05
-0.000373807
0.000337464
0.000153961
-7.94719e-05
0.000279062
0.000375681
-0.000103164
0.000260843
0.000153678
-0.000109797
0.000221035
0.000310245
-0.000159276
0.000166751
0.000293649
-0.000216645
8.72093e-05
8.76077e-05
-0.000114514
0.000413319
-0.000423075
-9.48774e-05
0.000340908
0.000471179
-0.000156966
0.000290831
0.000243176
6.61885e-05
0.00030577
-9.11676e-05
-0.000277094
0.000269113
0.000705906
-4.76915e-05
0.000230605
0.000339684
-7.13414e-05
0.00021029
8.28171e-05
-7.84857e-05
0.000188706
0.000525541
-0.000117285
0.000119208
0.000283663
-0.000134284
5.41405e-05
0.000147137
-2.21073e-05
0.000285602
8.35628e-05
-0.000125153
0.000273863
-0.00070705
6.00237e-07
0.000239438
0.000255351
-0.000135787
0.000208566
-0.000100619
8.42852e-06
0.000178729
-0.000521379
-0.000108981
0.000168002
-0.000233172
-7.19172e-05
0.000127068
-0.000478249
-5.31025e-05
0.000117548
-0.000187346
-6.75269e-05
8.66937e-05
-0.000165361
-5.56777e-05
4.37337e-05
-0.000243235
-8.25714e-05
3.07911e-05
-0.000310252
1.31193e-06
0.000186145
0.0002746
-2.67314e-06
0.000168996
6.17089e-05
-8.29212e-05
0.000154779
-0.000860209
-2.57784e-05
0.000138377
7.25653e-05
-7.4618e-05
0.000128832
-0.000181511
-4.08442e-05
0.00011031
-0.000290359
-6.50526e-05
0.000115464
-0.000172746
-6.31576e-05
0.000119797
-6.14562e-05
-6.09629e-05
0.000106205
0.000244227
-6.03131e-05
9.53387e-05
0.000488253
-7.19543e-05
4.58462e-05
0.000283204
-9.30084e-05
7.38654e-07
0.00166738
-4.76076e-06
6.19623e-05
-0.000471098
-4.6806e-06
5.55959e-05
-0.000401648
-1.55715e-05
4.90696e-05
0.000146411
-2.70602e-05
4.61336e-05
-0.000724091
-2.34431e-05
3.77792e-05
-0.000126253
-3.66198e-05
3.26694e-05
1.64506e-06
-3.3377e-05
2.45107e-05
-9.35505e-05
-4.87946e-05
2.41628e-05
-0.00010671
-4.58301e-05
1.86939e-05
-0.00100298
-7.21237e-05
-9.31938e-06
-0.00131704
-6.97581e-05
-2.71248e-05
-0.00151303
-7.02322e-05
-2.20384e-05
-0.000828907
-6.48098e-05
-1.32275e-05
-0.00145193
-0.00165564
3.39178e-05
-0.00242457
-0.00140387
0.000113486
-0.00312268
-0.00160582
4.86935e-05
-0.00263609
-0.00102444
0.000139355
-0.00373951
-0.00139676
0.000179204
-0.00338436
-0.00162345
3.75616e-05
-0.00272243
-0.000650758
0.000538533
-0.00450998
-0.0010986
0.000300055
-0.00412013
-0.00124235
0.000130174
-0.00359887
-0.00156576
0.000148916
-0.0030202
-0.000352249
0.000995554
-0.00482211
-0.000542987
0.000922102
-0.00479836
-0.000957463
0.000611548
-0.00466097
-0.00122153
0.000132312
-0.00390346
-0.00139801
1.71247e-05
-0.00342786
-0.000320957
0.00105418
-0.00443639
-0.000228384
0.0010531
-0.00462402
-0.000202021
0.00104785
-0.00501077
-0.000385601
0.000987468
-0.00501364
-0.00125126
0.000629381
-0.00474435
-0.0013555
0.000109043
-0.003287
-0.000175829
0.000832831
-0.00205914
-0.000242095
0.000592731
-0.00290672
-0.000158527
0.000767597
-0.00308036
-0.000132384
0.000796051
-0.00415441
-2.80515e-05
0.000808952
-0.00481624
-0.000529591
0.000817768
-0.00503039
-0.00130689
0.000407283
-0.00405715
-0.000277859
0.000614918
-3.44346e-05
-0.000143416
0.000672236
5.17643e-05
-0.000308623
0.000451206
-0.000870855
-0.000227145
0.000411329
0.000125916
-0.000132952
0.000485906
-0.00135873
-0.000130798
0.000420658
-0.00298348
-0.000115519
0.000401511
-0.00412326
-0.00083545
0.000377538
-0.00430709
-0.000304168
0.000597099
-0.000323287
-8.38885e-05
0.000528212
0.000364711
-4.58097e-05
0.000523212
0.000102374
-0.000343049
0.000408053
-6.62788e-06
-0.000103022
0.00035678
0.000698857
-0.000186091
0.000362701
-3.32794e-05
-0.000120919
0.000318597
-5.03005e-05
-0.000202899
0.000280054
-0.00112794
-0.000471543
0.00021373
-0.00205534
-0.000149412
0.000508847
-0.000549199
-0.000206992
0.000456433
0.000248827
-5.92294e-05
0.000435734
0.00011167
5.51507e-05
0.000447399
-0.000113413
-0.000406577
0.000343746
0.000218761
-6.88808e-05
0.000302543
0.00035517
-0.000126683
0.000259879
0.000170176
-0.000117113
0.000217445
0.000298179
-0.000157978
0.00015871
0.000262842
-0.000212128
8.47869e-05
8.06644e-05
-6.07471e-05
0.000411129
4.61041e-05
-0.000157444
0.000411007
-0.000460884
-2.51387e-05
0.000342302
0.000445447
-0.000104842
0.000301613
0.000216388
0.000109331
0.000316786
-0.000239743
-0.000199877
0.000268925
0.000758481
-4.05703e-05
0.000235049
0.000283579
-6.57048e-05
0.000207206
7.69192e-05
-9.31618e-05
0.000184325
0.000486059
-0.000103377
0.000120056
0.000265446
-0.000126493
4.66993e-05
0.000144359
6.56132e-06
0.000311358
0.000373184
5.40665e-06
0.000288787
6.05585e-05
-0.000179959
0.000271738
-0.000642312
-1.37571e-05
0.000230597
0.000221299
-0.00010795
0.000209291
-9.78492e-05
-1.26597e-05
0.000174334
-0.000555896
-8.44275e-05
0.000168376
-0.000255106
-7.97459e-05
0.000131064
-0.000475176
-4.42154e-05
0.000120077
-0.000237476
-6.67534e-05
7.91627e-05
-0.00019435
-6.79587e-05
4.17019e-05
-0.000258141
-8.28096e-05
2.77983e-05
-0.000348249
-1.4571e-05
0.00019708
-0.000420198
7.48439e-06
0.000186936
0.000244495
-2.59322e-06
0.000168248
3.52612e-05
-9.39547e-05
0.000156721
-0.000811658
-2.60295e-05
0.000133305
7.06785e-05
-6.93383e-05
0.000127574
-0.000166057
-4.63682e-05
0.000110754
-0.000272658
-5.643e-05
0.00011616
-0.000161474
-5.53643e-05
0.000121042
-6.67586e-05
-5.72353e-05
0.000111268
0.00021341
-5.72479e-05
9.84863e-05
0.000423102
-6.95516e-05
4.54063e-05
0.000237856
-9.19778e-05
-2.06688e-06
0.00169662
-8.26958e-06
6.41824e-05
-0.000127086
-3.79471e-06
6.17906e-05
-0.000473498
-5.75491e-06
5.55733e-05
-0.000402396
-1.27411e-05
4.89946e-05
0.000156291
-3.30564e-05
4.6083e-05
-0.000699338
-2.44497e-05
3.76854e-05
-0.000106819
-3.56006e-05
3.25896e-05
2.91668e-05
-3.32052e-05
2.44769e-05
-6.06593e-05
-4.79289e-05
2.41942e-05
-6.42815e-05
-4.55606e-05
1.8124e-05
-0.000984867
-7.57718e-05
-1.00929e-05
-0.0012583
-7.30389e-05
-3.01438e-05
-0.00143189
-7.14347e-05
-2.21625e-05
-0.000748537
-6.59183e-05
-1.26004e-05
-0.00137341
-0.0016222
1.31129e-05
-0.00236834
-0.00144947
8.89023e-05
-0.00295126
-0.0016375
5.36743e-05
-0.00244657
-0.00108078
0.000149528
-0.00342831
-0.00144298
0.000134046
-0.0031618
-0.00165721
3.76465e-05
-0.00263996
-0.000681617
0.000256576
-0.00410644
-0.00113605
0.000156626
-0.00367948
-0.00136679
0.000172604
-0.00339496
-0.00158146
2.83945e-05
-0.00273512
-0.000451106
0.000683705
-0.00458541
-0.000827221
0.000539605
-0.00446529
-0.00113454
0.000293585
-0.00410646
-0.00121922
0.000135722
-0.00358799
-0.00155474
0.000148052
-0.00301152
-0.000456485
0.00115846
-0.00490238
-0.00029919
0.000997933
-0.00482714
-0.000410475
0.000923639
-0.00490199
-0.000936413
0.000656703
-0.00463455
-0.00127556
9.71349e-05
-0.00395917
-0.00140392
3.97599e-05
-0.0034192
-0.000104017
0.00103771
-0.00410899
-0.000287088
0.00102668
-0.00436497
-0.000194819
0.00108034
-0.00462021
-0.000224722
0.00106096
-0.00499192
-0.000388779
0.000987166
-0.0050107
-0.00114837
0.00066181
-0.00467834
-0.00138326
0.000123152
-0.00333378
-0.000407425
0.000819097
-0.00165722
-0.000206777
0.000830636
-0.00223368
-0.000274715
0.000590446
-0.00276348
-0.000137959
0.000752462
-0.00312596
-8.89777e-05
0.000785322
-0.00417476
-5.00566e-05
0.000783962
-0.00486318
-0.000597596
0.000826191
-0.00496722
-0.00118892
0.000406506
-0.00411019
-0.000282868
0.000687814
-0.000534917
-0.000195157
0.0006432
0.000105869
-0.00027479
0.000664571
6.73796e-05
-0.000313055
0.0004518
-0.00094132
-0.000176928
0.000474355
0.000211374
-0.000216775
0.00047676
-0.00138415
-0.000107927
0.000414851
-0.00300981
-0.000294156
0.000416754
-0.00407122
-0.000855066
0.000380806
-0.00430437
-0.000161041
0.000645437
-0.000206469
-0.000285015
0.000579336
-0.000296387
-7.93792e-05
0.000545999
0.000362074
-8.50778e-05
0.000529621
0.000121035
-0.000352851
0.00041155
-0.000115124
-9.9724e-05
0.000398577
0.000693824
-0.000196595
0.000349334
5.89531e-06
-0.000156493
0.000317307
-4.81744e-05
-0.000224587
0.000274909
-0.00112251
-0.000371433
0.000207048
-0.00210308
-3.82423e-05
0.000562228
0.000105045
-0.000172266
0.000486024
-0.000563968
-0.000117056
0.000440727
0.000335751
-6.43123e-05
0.000435999
8.25403e-05
0.000176755
0.00043319
-0.000270281
-0.000242141
0.000337918
0.00022565
-1.57964e-05
0.000324193
0.000266083
-0.000117645
0.000254102
0.000185459
-0.000125409
0.000211526
0.000277611
-0.000153581
0.000155444
0.000242388
-0.000200968
7.98432e-05
7.52965e-05
-4.21259e-05
0.000447041
0.000205965
-2.84238e-05
0.000419732
7.12096e-05
-0.000271876
0.000391836
-0.000418501
-3.26642e-05
0.00033009
0.000435877
-0.00013546
0.00030617
0.000254514
-1.73842e-05
0.00031141
-0.000277504
-0.000102129
0.000265799
0.000745433
-6.12295e-05
0.000236397
0.000235872
-5.39619e-05
0.000203565
6.74259e-05
-9.35159e-05
0.00017829
0.000454587
-0.000115327
0.000110394
0.00024912
-0.00011932
4.28516e-05
0.000138018
-1.23754e-06
0.000330241
-0.000625215
2.12175e-05
0.000316642
0.000331595
5.34658e-05
0.000287953
-1.17157e-05
-0.0002058
0.00026731
-0.00056718
-3.46366e-05
0.000223923
0.000215274
-0.000102484
0.000207004
-9.73744e-05
-4.69559e-05
0.0001724
-0.000559332
-6.07911e-05
0.000170274
-0.000289955
-8.52027e-05
0.000138208
-0.000463469
-4.79299e-05
0.000120588
-0.000288207
-5.75276e-05
7.77593e-05
-0.000230127
-7.26029e-05
4.03202e-05
-0.000267612
-8.54677e-05
2.51464e-05
-0.000379905
-4.70208e-05
0.000207016
-0.000158945
-6.5187e-06
0.000196525
-0.000427063
4.08984e-06
0.000184843
0.000218055
6.3676e-07
0.000167673
1.09317e-05
-0.000116046
0.00015596
-0.000751322
-2.98914e-05
0.000135851
6.78436e-05
-6.20315e-05
0.00012767
-0.000156543
-4.7132e-05
0.000112307
-0.000254879
-5.36741e-05
0.00011715
-0.000151837
-3.91123e-05
0.000122611
-8.45501e-05
-4.92008e-05
0.00011592
0.000169405
-4.98848e-05
0.000102963
0.000342392
-6.76954e-05
4.27875e-05
0.000189262
-8.91966e-05
-7.92226e-06
0.00172782
-5.52783e-06
6.67105e-05
-0.000274098
-9.45612e-06
6.39905e-05
-0.000119829
-6.33167e-06
6.15611e-05
-0.000473154
-7.28185e-06
5.55543e-05
-0.000401674
-8.29279e-06
4.88998e-05
0.000161767
-2.95864e-05
4.5915e-05
-0.000677982
-2.48379e-05
3.76462e-05
-8.70381e-05
-3.442e-05
3.24843e-05
5.55793e-05
-3.29053e-05
2.44518e-05
-2.80116e-05
-4.66624e-05
2.41594e-05
-2.36545e-05
-4.62402e-05
1.82005e-05
-0.000966921
-7.87765e-05
-1.05425e-05
-0.00119912
-7.53436e-05
-3.04263e-05
-0.00134828
-7.15785e-05
-2.18768e-05
-0.000667682
-6.58267e-05
-1.19285e-05
-0.00129565
-0.00164163
5.78512e-06
-0.00224412
-0.00146793
2.55944e-05
-0.00285355
-0.00167405
4.54135e-06
-0.00233633
-0.00124192
0.000248347
-0.00325033
-0.00149788
0.000112279
-0.00295497
-0.00170948
6.77501e-05
-0.00246205
-0.000843585
0.000302653
-0.00367975
-0.0010911
0.000128152
-0.00346737
-0.00145909
0.000129499
-0.00316136
-0.00157945
2.40051e-05
-0.00266598
-0.000573772
0.000455811
-0.0042635
-0.000902592
0.00024062
-0.00411507
-0.00108436
0.000147727
-0.00370478
-0.00137203
0.000164111
-0.00337787
-0.00159784
3.93571e-05
-0.00273138
-0.000759588
0.00101867
-0.00471923
-0.000408192
0.000708571
-0.00464537
-0.000681643
0.000563576
-0.00446412
-0.00110185
0.000299937
-0.00410524
-0.00127593
0.000146087
-0.00358565
-0.0015741
0.000161328
-0.00300267
-0.000207306
0.00122826
-0.00479148
-0.000430591
0.00116042
-0.00492137
-0.000255127
0.00102453
-0.00486772
-0.000494454
0.000894377
-0.00486994
-0.000926993
0.000644426
-0.00464363
-0.0012342
0.000116936
-0.00395052
-0.00141449
7.37139e-05
-0.00346168
-0.000388201
0.00106069
-0.00408321
-0.000193753
0.00104549
-0.00414083
-0.000220621
0.00102832
-0.00436705
-0.000150635
0.00109421
-0.00464078
-0.00020744
0.00106839
-0.00495468
-0.000432033
0.000986307
-0.00495322
-0.00115143
0.00064546
-0.00464681
-0.00123935
8.50856e-05
-0.00336843
-0.000302618
0.000859448
-0.00176917
-0.000316783
0.000850383
-0.00155534
-0.000373912
0.000767825
-0.00231194
-0.000318148
0.000614807
-0.00262073
-0.000195787
0.000732089
-0.00305387
-0.000121374
0.000734609
-0.00422081
-0.000106677
0.000779802
-0.00481804
-0.000762993
0.00083152
-0.0049234
-0.00121013
0.000410969
-0.00416609
-0.000192569
0.000785533
0.000258667
-0.000259587
0.000683445
-0.00060059
-0.000197615
0.000684775
0.000203901
-0.000295074
0.000640796
8.83804e-05
-0.000294805
0.00047867
-0.00100368
-0.000178245
0.000508782
0.000257873
-0.00014065
0.00047672
-0.00150196
-0.000125991
0.00041683
-0.00304039
-0.000325421
0.000436496
-0.00402607
-0.000696112
0.000384801
-0.00436449
-6.39316e-05
0.000676739
0.000298491
-0.000217453
0.000645251
-0.000227197
-0.000185263
0.000571676
-0.000253858
-0.000138497
0.00055362
0.000412261
1.92097e-05
0.000535327
0.000154803
-0.000220006
0.00041783
-0.000156511
-5.97617e-06
0.000429749
0.000603589
-0.000170243
0.000338953
3.6847e-05
-0.000158426
0.000310221
-5.04694e-05
-0.000238802
0.000270114
-0.00110036
-0.000440195
0.000211084
-0.00207494
-0.000202375
0.000602615
0.000415498
-6.89695e-05
0.000565601
6.60132e-05
-0.000299616
0.00046659
-0.00056209
-9.71823e-05
0.000438949
0.000397319
-0.000164596
0.000437281
0.000107586
-6.60084e-05
0.000406884
-0.000290623
-0.000114829
0.000335028
0.000227514
-4.38911e-05
0.000326984
0.000175861
-9.60163e-05
0.000246191
0.000192848
-0.000118394
0.0002091
0.000248833
-0.00015558
0.000147139
0.000215345
-0.000195683
7.8441e-05
7.32191e-05
1.38362e-05
0.000469089
1.63619e-05
-4.15898e-05
0.00044428
0.000244223
0.000105528
0.000420588
-9.60426e-06
-0.000287388
0.000366462
-0.000373285
-7.27431e-05
0.00032997
0.000450184
-0.000125749
0.000302879
0.00028631
-8.91863e-05
0.000297642
-0.000267117
-3.88695e-05
0.000256202
0.000703706
-8.95046e-05
0.00024101
0.000202729
-4.45794e-05
0.000196738
4.56277e-05
-8.05145e-05
0.000178865
0.000409103
-0.000121789
0.000102471
0.000238687
-0.000117263
3.71936e-05
0.000132619
-0.000105667
0.000355975
-7.2592e-05
-2.44357e-05
0.000328677
-0.000619332
-1.54991e-06
0.000317789
0.000307399
3.73237e-05
0.000282912
-6.40043e-05
-0.000191586
0.000271906
-0.000539623
-2.64317e-05
0.000231068
0.00018775
-0.000101736
0.0002075
-9.27701e-05
-7.65812e-05
0.000174827
-0.000534436
-3.64484e-05
0.000167983
-0.000336956
-6.63277e-05
0.000147313
-0.000462979
-4.46473e-05
0.000108051
-0.000323053
-5.46571e-05
7.91323e-05
-0.000264167
-7.18817e-05
3.87673e-05
-0.000277046
-8.77349e-05
2.35977e-05
-0.000404965
2.4202e-05
0.000214427
-9.38059e-05
-2.53955e-05
0.000203725
-0.000150206
-4.35915e-06
0.00019557
-0.000439762
-5.83829e-06
0.000184676
0.000199608
3.82822e-05
0.000170928
-5.06115e-05
-7.63504e-05
0.000156135
-0.000724842
-3.2221e-05
0.000135003
6.78945e-05
-5.28711e-05
0.000128606
-0.00015439
-4.34925e-05
0.000113107
-0.000240249
-4.98742e-05
0.000118863