/*--------------------------------*- C++ -*----------------------------------*\
  =========                 |
  \\      /  F ield         | OpenFOAM: The Open Source CFD Toolbox
   \\    /   O peration     | Website:  https://openfoam.org
    \\  /    A nd           | Version:  7
     \\/     M anipulation  |
\*---------------------------------------------------------------------------*/
FoamFile
{
    version     2.0;
    format      ascii;
    class       volVectorField;
    location    "1";
    object      U;
}
// * * * * * * * * * * * * * * * * * * * * * * * * * * * * * * * * * * * * * //

dimensions      [0 1 -1 0 0 0 0];

internalField   nonuniform List<vector> 
18750
(
(1.5224 -0.318315 -0.0360347)
(-0.624436 0.839389 0.00793108)
(1.23125 0.2684 -0.225762)
(1.40811 -0.33972 -0.0274428)
(-0.0811234 0.564495 0.095919)
(-0.247243 0.757623 0.240109)
(-0.55428 0.880379 0.00722536)
(1.43178 0.0290883 -0.496595)
(1.21445 0.253594 -0.226631)
(1.34291 -0.321986 -0.0674362)
(-0.224352 0.51495 -0.0586826)
(-0.0403906 0.226069 0.251227)
(-0.0477135 0.439537 0.121829)
(-0.433989 0.566802 0.309373)
(-0.260798 0.758981 0.234085)
(-0.495252 0.990867 -0.0268336)
(1.16569 0.1868 -0.392917)
(1.43397 0.00723063 -0.429212)
(1.22269 0.225385 -0.232242)
(1.33248 -0.30337 -0.0519975)
(-0.241549 0.35419 -0.029398)
(-0.378112 0.326964 0.552325)
(-0.132275 0.45296 0.00333277)
(-0.139943 0.395348 0.259281)
(-0.00930589 0.158999 0.247036)
(0.0388716 0.394107 0.106458)
(-0.0257476 0.50219 0.595887)
(-0.294412 0.553813 0.468773)
(-0.152656 0.789285 0.206714)
(-0.6498 0.940807 0.00787116)
(0.838657 0.330845 0.0187378)
(1.20276 0.202578 -0.401949)
(1.3971 -0.00333947 -0.425536)
(1.18349 0.245823 -0.275327)
(1.32698 -0.275645 -0.0811197)
(1.33244 0.505772 0.210517)
(-0.335824 0.137514 0.490339)
(-0.165349 0.300074 0.0507288)
(-0.481309 0.297209 0.511131)
(-0.315837 0.341133 0.480547)
(-0.0818429 0.453814 -0.00987289)
(0.0367519 0.395551 0.569776)
(-0.0794409 0.354616 0.253155)
(0.0187586 0.125801 0.247035)
(0.107839 0.420633 0.0816827)
(0.167751 0.496753 0.615699)
(-0.0282 0.523724 0.593988)
(-0.372043 0.628865 0.330595)
(-0.129164 0.809146 0.172638)
(-0.562993 0.972026 -0.00523432)
(0.345664 0.519919 0.574337)
(0.849777 0.309638 0.0317054)
(1.22848 0.207872 -0.404276)
(1.39847 -0.0163696 -0.424372)
(1.16118 0.203319 -0.288667)
(1.32005 -0.250487 -0.0919506)
(3.0107 0.410037 0.431794)
(0.722359 0.363015 0.579047)
(1.41448 0.270502 0.23826)
(-0.270716 0.220954 0.472207)
(-0.261927 0.213523 0.41637)
(-0.0969372 0.322686 0.0449148)
(-0.16968 0.216813 0.708032)
(-0.423364 0.267346 0.520628)
(-0.246898 0.38429 0.428054)
(-0.0308336 0.473654 -0.0658381)
(0.244742 0.406192 0.411768)
(0.0768834 0.384633 0.552961)
(-0.0157957 0.31963 0.25245)
(0.0491982 0.107666 0.256905)
(0.16165 0.405806 0.0736275)
(0.275798 0.452402 0.715893)
(0.174472 0.478823 0.606868)
(-0.0177601 0.535967 0.601455)
(-0.291264 0.546721 0.50132)
(-0.0483188 0.82536 0.138405)
(-0.476086 1.04717 -0.0352504)
(0.242698 0.335992 0.442856)
(0.345979 0.513243 0.585553)
(0.861349 0.281876 0.0582679)
(1.22729 0.222488 -0.412669)
(1.40355 -0.0173719 -0.432725)
(1.12834 0.24929 -0.330675)
(1.30866 -0.246981 -0.0976711)
(2.91984 1.02127 -0.0440494)
(2.67639 0.107969 0.766927)
(3.01196 0.306839 0.44425)
(0.0557835 0.217728 0.632475)
(0.76878 0.304267 0.602402)
(1.44274 0.18655 0.352775)
(-0.205203 0.175356 0.6132)
(-0.217464 0.240213 0.466292)
(-0.23693 0.264309 0.394162)
(-0.020577 0.366365 -0.011209)
(-0.379987 0.181473 0.693143)
(-0.140071 0.230031 0.6835)
(-0.394259 0.238911 0.523048)
(-0.209068 0.398076 0.434095)
(0.0241559 0.483021 -0.0958595)
(0.184342 0.403961 0.694767)
(0.293696 0.376917 0.397877)
(0.111852 0.363362 0.545517)
(0.0332016 0.291204 0.240908)
(0.0841825 0.090365 0.260904)
(0.217927 0.371894 0.0793068)
(0.259422 0.307657 0.744821)
(0.272791 0.433581 0.726382)
(0.190824 0.452952 0.62728)
(-0.0111238 0.526626 0.624332)
(-0.293792 0.56991 0.504975)
(0.0311346 0.844625 0.0897362)
(-0.624953 1.0328 -0.00992674)
(0.145179 0.37119 0.589251)
(0.242454 0.330452 0.44844)
(0.360812 0.499479 0.591275)
(0.866415 0.248539 0.0958964)
(1.25275 0.231916 -0.457523)
(1.37322 -0.0252807 -0.421416)
(1.1197 0.237072 -0.347738)
(1.27076 -0.241926 -0.106881)
(2.33521 1.49635 -0.0958994)
(3.24855 0.162495 1.1288)
(2.94552 1.13636 -0.0767985)
(1.97938 0.302112 0.61453)
(2.67683 -0.120707 0.770668)
(3.02462 0.0945731 0.44872)
(-0.00475459 0.239051 0.703188)
(0.0193292 0.254567 0.608831)
(0.805507 0.267978 0.594418)
(1.55637 0.221676 0.329195)
(-0.250429 0.0695982 0.754313)
(-0.196028 0.192031 0.601315)
(-0.204073 0.26315 0.430654)
(-0.186802 0.28675 0.425724)
(0.00815637 0.370496 -0.0261112)
(-0.190534 0.456383 0.745532)
(-0.344318 0.124701 0.707657)
(-0.0949404 0.236498 0.670164)
(-0.341742 0.312422 0.49961)
(-0.153961 0.397749 0.457097)
(0.0635719 0.475743 -0.0911206)
(0.167866 0.0620944 0.860705)
(0.212149 0.379191 0.681156)
(0.343065 0.342614 0.388746)
(0.141765 0.327433 0.547584)
(0.0776908 0.249016 0.236508)
(0.115886 0.0699737 0.259226)
(0.26111 0.327078 0.0909887)
(0.247617 0.357119 0.813903)
(0.26483 0.270618 0.762581)
(0.29187 0.385858 0.76452)
(0.179345 0.409946 0.7234)
(0.018678 0.523493 0.629251)
(-0.292927 0.543709 0.543523)
(0.0932498 0.837291 0.0420045)
(-0.548863 1.06313 -0.0379841)
(0.160755 0.226386 0.774575)
(0.151719 0.37326 0.592374)
(0.245703 0.321303 0.455265)
(0.359677 0.49787 0.597069)
(0.877799 0.208089 0.13264)
(1.27619 0.217584 -0.449194)
(1.38993 -0.0216604 -0.467963)
(1.09509 0.222108 -0.355719)
(1.26721 -0.23897 -0.110972)
(2.36524 1.2049 0.280543)
(3.16349 1.04888 0.335037)
(2.3937 1.40635 -0.162017)
(3.20483 -0.310871 1.07777)
(3.31983 -0.473565 1.21354)
(2.98565 1.0137 -0.101808)
(0.761774 0.0506402 0.727369)
(2.00578 0.047473 0.648233)
(2.66409 -0.593307 0.779798)
(3.07307 0.179911 0.403007)
(-0.175087 0.0799291 0.803887)
(0.00832671 0.224718 0.708723)
(0.0720416 0.301426 0.556414)
(0.857875 0.237765 0.574095)
(1.53957 0.148451 0.310986)
(0.0881074 0.782232 0.697716)
(-0.226679 0.057478 0.746389)
(-0.148203 0.100799 0.630226)
(-0.158314 0.279214 0.426633)
(-0.166112 0.286025 0.443756)
(0.062889 0.351968 0.000659917)
(-0.12813 -0.159471 0.960396)
(-0.18818 0.454601 0.737397)
(-0.304809 0.0525136 0.72149)
(-0.0525087 0.230176 0.65701)
(-0.288239 0.352657 0.500179)
(-0.0944287 0.39436 0.472135)
(0.0910335 0.439612 -0.0606743)
(0.182137 0.390457 0.839991)
(0.222281 0.0441372 0.810271)
(0.237474 0.313927 0.683432)
(0.392543 0.298421 0.377979)
(0.16256 0.273135 0.561996)
(0.10742 0.20736 0.222161)
(0.134716 0.0443873 0.249537)
(0.289063 0.268532 0.0957635)
(-0.0602776 0.145836 0.996146)
(0.255885 0.349098 0.816816)
(0.276949 0.216796 0.78104)
(0.294937 0.383294 0.794855)
(0.199693 0.374294 0.765748)
(0.0322358 0.507175 0.643714)
(-0.186307 0.539286 0.588844)
(0.133809 0.773845 0.0595844)
(-0.449675 1.12539 -0.0627251)
(0.536774 0.0935148 0.86278)
(0.167159 0.227232 0.775697)
(0.158869 0.3744 0.594519)
(0.245271 0.32149 0.46211)
(0.373961 0.47918 0.603315)
(0.872079 0.190364 0.152295)
(1.2953 0.213593 -0.443264)
(1.40743 -0.0302456 -0.469357)
(1.07535 0.200228 -0.369603)
(1.25454 -0.24142 -0.115823)
(2.14058 1.27907 0.0553364)
(2.74763 1.35632 -0.215708)
(2.4253 1.06043 0.259066)
(3.35276 -0.196759 1.1345)
(3.2664 0.148497 0.58826)
(2.57364 1.18317 -0.17841)
(2.83554 -0.135841 0.974729)
(3.19686 -0.484834 1.09058)
(3.30232 -0.390902 1.17505)
(3.04677 0.644023 -0.107175)
(0.247034 0.291205 0.773226)
(0.766005 -0.168013 0.755138)
(1.97975 -0.289837 0.718719)
(2.68396 -0.481571 0.77769)
(3.06178 -0.104252 0.43136)
(-0.0731508 0.465818 0.772145)
(-0.222279 0.0661744 0.820322)
(0.127205 0.0924378 0.768793)
(0.111065 0.294159 0.563413)
(0.861453 0.208576 0.561923)
(1.59086 0.0277273 0.310229)
(-0.142416 -0.197025 1.00492)
(0.0843736 0.626162 0.714588)
(-0.172021 0.167991 0.692908)
(-0.118714 0.0761309 0.629293)
(-0.13151 0.294153 0.421031)
(-0.125812 0.297452 0.43849)
(0.084417 0.333755 0.0179718)
(-0.12022 0.488032 0.878586)
(-0.0922893 -0.149359 0.98114)
(-0.192817 0.512626 0.720567)
(-0.260701 0.121321 0.712862)
(0.00839887 0.230519 0.641205)
(-0.268652 0.380484 0.478795)
(-0.0407055 0.411845 0.42223)
(0.118461 0.399871 -0.0352907)
(-0.239332 -0.0424796 1.03781)
(0.221946 0.472525 0.779445)
(0.273153 0.060509 0.764576)
(0.249094 0.30038 0.676136)
(0.42598 0.265986 0.376209)
(0.168008 0.216358 0.571208)
(0.139965 0.164237 0.217569)
(0.166253 0.019777 0.225398)
(0.320093 0.198887 0.0865805)
(0.664553 0.224578 0.999847)
(-0.0394832 0.157657 0.995961)
(0.25635 0.334686 0.821257)
(0.285746 0.204207 0.786284)
(0.302973 0.351941 0.826047)
(0.204959 0.34599 0.782603)
(0.0498279 0.489497 0.662543)
(-0.144758 0.554641 0.577597)
(0.171222 0.703214 0.0806817)
(-0.467739 1.17666 -0.0696503)
(-0.0430328 0.256924 1.03411)
(0.537899 0.0912262 0.86933)
(0.17325 0.228157 0.776776)
(0.165657 0.376798 0.595824)
(0.248953 0.31771 0.458116)
(0.371766 0.477218 0.610043)
(0.884217 0.12608 0.188542)
(1.34867 0.208831 -0.507999)
(1.38504 -0.0310127 -0.468188)
(1.07029 0.183746 -0.38853)
(1.25034 -0.248986 -0.117183)
(1.95217 1.22036 -0.0817362)
(2.52406 0.763999 0.211293)
(2.20235 1.1863 0.0584459)
(3.16497 0.491195 0.494009)
(2.83164 0.888276 -0.0177449)
(2.54861 0.814731 0.271717)
(3.29828 -0.230304 1.18657)
(3.24476 -0.336828 1.07664)
(3.23587 0.600052 0.419887)
(2.63616 1.08784 -0.13932)
(2.1045 6.55045e-05 1.20987)
(2.80553 -0.310081 0.952101)
(3.15386 -0.527036 1.08714)
(3.27354 -0.535735 1.23913)
(3.07167 0.496058 -0.0907775)
(0.610698 0.53798 0.619382)
(0.14889 0.280026 0.814634)
(0.795155 -0.232966 0.834089)
(1.97202 -0.335468 0.733286)
(2.72206 -0.470755 0.78511)
(3.04738 -0.423186 0.436367)
(-0.0994899 -0.0819749 0.933245)
(0.0241576 0.546441 0.714442)
(-0.300255 0.180337 0.768216)
(0.13243 0.147846 0.725345)
(0.150288 0.277398 0.559763)
(0.872198 0.147403 0.562184)
(1.57581 -0.0501505 0.310916)
(-0.123134 0.320967 0.930076)
(-0.0683268 -0.0227311 0.929225)
(0.0880901 0.719814 0.671912)
(-0.177402 0.272785 0.645843)
(-0.0827227 0.117475 0.612163)
(-0.108684 0.306434 0.410928)
(-0.0904643 0.331893 0.382645)
(0.11784 0.314331 0.0193121)
(-0.24264 0.114604 0.963436)
(-0.0942886 0.437127 0.877297)
(-0.0870428 -0.293188 1.03752)
(-0.171047 0.606735 0.682381)
(-0.215887 0.1835 0.691928)
(0.0187418 0.220617 0.623159)
(-0.253573 0.365165 0.480194)
(0.00513317 0.417747 0.367391)
(0.118526 0.368202 -0.00803314)
(0.523149 0.316356 1.09118)
(-0.221872 0.00494027 1.00952)
(0.234692 0.605117 0.696172)
(0.313062 0.0130647 0.76243)
(0.266928 0.26647 0.668345)
(0.440484 0.224563 0.394172)
(0.190943 0.172228 0.561126)
(0.168523 0.130661 0.214641)
(0.1688 0.008208 0.215567)
(0.332599 0.149186 0.0719295)
(-0.0609496 0.0522519 1.10524)
(0.662937 0.211265 1.01205)
(-0.0112833 0.174771 0.99595)
(0.250871 0.3495 0.794164)
(0.292476 0.190519 0.790652)
(0.303777 0.336221 0.833334)
(0.212199 0.306099 0.804894)
(0.0846558 0.465986 0.689272)
(-0.0710311 0.566771 0.564205)
(0.205431 0.634904 0.0965815)
(-0.43538 1.18387 -0.0733684)
(0.269406 0.00534111 1.07296)
(-0.0344238 0.251083 1.03583)
(0.542971 0.0914095 0.871447)
(0.179671 0.228398 0.77667)
(0.171132 0.372383 0.597962)
(0.252012 0.315902 0.44967)
(0.372906 0.45274 0.624181)
(0.896776 0.118832 0.180388)
(1.35158 0.230376 -0.597975)
(1.41004 -0.0482705 -0.493236)
(1.05463 0.181461 -0.408532)
(1.22432 -0.247781 -0.116877)
(1.80793 1.13664 0.0593223)
(2.33221 0.957461 0.17742)
(2.03815 1.1048 -0.0911063)
(2.83261 0.657122 0.13001)
(2.54578 0.724861 0.167091)
(2.30518 0.961163 0.0687223)
(3.1965 -0.0375481 0.85968)
(3.22978 0.403132 0.367646)
(2.74519 0.831925 -0.066458)
(2.59808 0.678601 0.265962)
(3.08168 -0.205404 1.24543)
(3.28146 -0.523587 1.22282)
(3.17376 -0.518128 1.09097)
(3.43323 0.39935 0.337641)
(2.68549 0.884612 -0.105763)
(2.00681 0.147939 0.783869)
(2.06976 -0.0798266 1.22442)
(2.73928 -0.518453 1.03383)
(3.10603 -0.653777 1.11203)
(3.23819 -0.711354 1.22066)
(3.16075 0.279568 -0.0913147)
(-0.0683709 -0.0588318 1.01088)
(0.672544 0.476611 0.58018)
(0.156309 0.366755 0.819302)
(0.833966 -0.217414 0.852102)
(1.96931 -0.395492 0.706114)
(2.65499 -0.731334 0.758942)
(3.01515 -0.535111 0.400311)
(-0.249176 0.259771 0.967646)
(-0.128036 -0.177324 0.932545)
(0.016584 0.558324 0.669159)
(-0.365918 0.278015 0.673367)
(0.176642 0.199563 0.685121)
(0.142058 0.260811 0.585484)
(0.838688 0.0784353 0.562078)
(1.57682 -0.192254 0.289318)
(-0.0522837 0.388753 0.969217)
(-0.122104 0.221513 0.966534)
(-0.0113615 -0.0698614 0.954657)
(0.185219 0.831637 0.596598)
(-0.154828 0.283786 0.635299)
(-0.0326369 0.167608 0.585247)
(-0.110058 0.253144 0.440515)
(-0.0609193 0.303351 0.375404)
(0.134365 0.292563 0.0357052)
(0.270868 0.232544 1.15282)
(-0.2856 0.182683 0.935586)
(-0.0212535 0.724136 0.736171)
(-0.0415128 -0.165885 0.973799)
(-0.212699 0.676481 0.66486)
(-0.191687 0.19113 0.682477)
(0.0454734 0.197063 0.623529)
(-0.191303 0.38442 0.47374)
(0.0679126 0.420872 0.312808)
(0.156015 0.346458 -0.0272151)
(-0.0503741 0.0198958 1.15056)
(0.549093 0.332446 1.07531)
(-0.18279 0.0827318 0.997991)
(0.209818 0.435195 0.743791)
(0.339425 -0.0232761 0.760802)
(0.26548 0.22144 0.666825)
(0.462062 0.167633 0.422639)
(0.207313 0.125188 0.542478)
(0.193793 0.0987403 0.209524)
(0.192093 -0.0279979 0.191797)
(0.358047 0.0880241 0.0775727)
(-0.189908 0.0673084 1.23379)
(-0.0459186 0.030287 1.1129)
(0.636543 0.184904 1.02343)
(0.00156763 0.189314 0.98786)
(0.25254 0.297723 0.797845)
(0.299999 0.176845 0.790474)
(0.295952 0.295851 0.848428)
(0.208186 0.260807 0.825199)
(0.0953384 0.442918 0.735223)
(0.0155594 0.574479 0.543913)
(0.235595 0.570909 0.109685)
(-0.336998 1.20827 -0.0893091)
(0.304162 -0.0050228 1.2505)
(0.27311 0.00151563 1.07609)
(-0.0289001 0.246892 1.03492)
(0.541213 0.0871828 0.874286)
(0.184626 0.227907 0.777592)
(0.175639 0.367069 0.598856)
(0.25234 0.313813 0.456457)
(0.381874 0.450414 0.604851)
(0.885821 0.0845085 0.201631)
(1.37605 0.222746 -0.609477)
(1.40567 -0.0432857 -0.51504)
(1.05507 0.189718 -0.427657)
(1.22692 -0.308555 -0.100814)
(1.6825 1.12108 0.0254768)
(2.1344 0.914617 -0.0128076)
(1.93019 0.981226 0.0782218)
(2.58019 0.663537 0.104738)
(2.36593 0.879431 0.170883)
(2.07614 1.02748 -0.0998394)
(3.01033 0.350649 0.439776)
(2.82803 0.541736 0.15593)
(2.57167 0.556103 0.188663)
(2.33234 0.892652 0.0556297)
(3.1715 -0.0767364 0.981779)
(3.16597 -0.177594 0.931015)
(3.1817 0.10104 0.357909)
(2.86896 0.658835 -0.197913)
(2.62274 0.494071 0.322192)
(2.93947 -0.0181684 1.20966)
(3.03249 -0.349762 1.2686)
(3.26765 -0.62648 1.22182)
(3.17115 -0.885647 1.13273)
(3.45887 0.281661 0.31687)
(2.73711 0.737491 -0.13265)
(1.34326 0.224227 1.00745)
(1.98842 0.0143979 0.773596)
(2.05723 -0.275754 1.21838)
(2.69992 -0.583596 1.00253)
(2.98862 -1.16608 1.14294)
(3.11641 -1.2595 1.17578)
(3.17885 0.232853 -0.141878)
(0.103746 0.354915 0.998732)
(-0.0287183 0.0919095 0.935894)
(0.658573 0.383765 0.601272)
(0.125955 0.485196 0.731026)
(0.922785 0.00280681 0.706231)
(1.94741 -0.479712 0.699006)
(2.47639 -1.27248 0.715328)
(2.97718 -0.697583 0.38505)
(0.261232 0.451759 1.04147)
(-0.187482 0.219215 0.996188)
(-0.0672865 -0.0851766 0.93658)
(0.172394 0.680075 0.596675)
(-0.353239 0.263705 0.706117)
(0.155769 0.272385 0.670281)
(0.164253 0.239561 0.575241)
(0.910035 -0.0238782 0.527464)
(1.54461 -0.263408 0.270642)
(0.397863 0.294615 1.07085)
(-0.0709829 0.356953 0.996218)
(-0.0883154 0.0624772 1.02877)
(-0.0353502 -0.158052 0.993832)
(0.162124 0.868843 0.631191)
(-0.17461 0.239168 0.656282)
(-0.019863 0.194774 0.568342)
(-0.0731486 0.267929 0.436764)
(-0.0170565 0.292241 0.352241)
(0.153567 0.278651 0.0320755)
(0.0180284 0.155198 1.22913)
(0.376414 0.361508 1.10555)
(-0.306446 0.0272994 1.02681)
(0.00232478 0.482601 0.817606)
(0.0506752 -0.210887 0.979307)
(-0.279014 0.640287 0.665909)
(-0.131043 0.184144 0.687591)
(0.0450739 0.181073 0.627848)
(-0.107175 0.43957 0.442457)
(0.050488 0.373785 0.344402)
(0.165001 0.326379 0.000214445)
(-0.259956 -0.0480374 1.24192)
(-0.0381947 0.0185253 1.17407)
(0.539934 0.410709 1.04171)
(-0.123673 0.103253 0.979334)
(0.209921 0.34689 0.762589)
(0.394813 -0.0426597 0.742942)
(0.25946 0.163654 0.676572)
(0.472721 0.145369 0.449979)
(0.22514 0.0641938 0.51441)
(0.20455 0.0533455 0.212342)
(0.225564 -0.0018716 0.166664)
(0.390505 0.0621327 0.0677288)
(0.30013 0.0626597 1.34151)
(-0.155155 0.0799864 1.23674)
(-0.0238406 0.0222694 1.12691)
(0.609893 0.175749 1.01467)
(0.0244527 0.197731 0.985722)
(0.250616 0.265312 0.796652)
(0.302457 0.163741 0.797103)
(0.298058 0.259438 0.847889)
(0.208715 0.206179 0.844187)
(0.112474 0.371839 0.796958)
(0.080469 0.544938 0.533673)
(0.265695 0.508205 0.104466)
(-0.322339 1.27101 -0.0902174)
(0.09721 0.0852443 1.35523)
(0.307404 -0.0182077 1.25345)
(0.276565 -0.00692484 1.07909)
(-0.0251191 0.233493 1.0365)
(0.540195 0.0802586 0.877512)
(0.190595 0.224395 0.778095)
(0.181504 0.36076 0.598676)
(0.253929 0.309838 0.457073)
(0.383332 0.440043 0.608552)
(0.902933 0.0379895 0.189414)
(1.4048 0.246646 -0.663238)
(1.42599 -0.0284871 -0.580247)
(1.06596 0.188577 -0.434831)
(1.20656 -0.317055 -0.0912154)
(1.65202 0.992085 -1.61629e-05)
(2.02284 0.898158 0.0212809)
(1.80057 0.982124 0.0343331)
(2.29661 0.575346 0.192878)
(2.23287 0.789194 -0.00756543)
(1.96977 0.898191 0.0699711)
(2.7354 0.284271 0.133416)
(2.5412 0.684981 0.125855)
(2.4454 0.638572 0.169185)
(2.15067 0.859876 -0.108648)
(2.98323 0.189848 0.600343)
(2.99759 0.314077 0.393868)
(2.87813 0.497116 0.069396)
(2.58559 0.337325 0.217573)
(2.41051 0.706766 0.0402042)
(3.21316 0.0966471 1.11458)
(3.15863 -0.173491 0.99734)
(3.19071 -0.41764 0.933632)
(3.13592 -0.127754 0.495734)
(2.966 0.450666 -0.290648)
(2.64771 0.300083 0.330478)
(2.67977 -0.16308 1.28408)
(2.87943 -0.212816 1.22575)
(2.99721 -0.520616 1.28473)
(3.16324 -0.878526 1.23794)
(3.16486 -1.06635 1.15199)
(3.36078 -0.161672 0.401907)
(2.77159 0.569485 -0.112998)
(1.22741 0.369306 1.16413)
(1.4366 0.137826 0.896074)
(1.90706 -0.0249506 0.852766)
(2.0283 -0.406884 1.13214)
(2.62716 -0.893351 1.07261)
(2.93594 -1.34377 1.10998)
(3.08589 -1.30371 1.20832)
(3.14778 -0.128574 -0.159217)
(0.373306 0.481043 0.965594)
(0.00101247 0.0890931 1.08458)
(0.0409563 0.256644 0.870391)
(0.706174 0.285907 0.586164)
(-0.0491589 0.287236 0.788642)
(1.03074 -0.0576673 0.671503)
(1.87855 -0.806675 0.643583)
(2.50237 -1.15479 0.752286)
(2.9376 -0.808489 0.381864)
(0.150767 0.270519 1.15051)
(0.309743 0.493051 0.964694)
(-0.206941 0.255964 1.00548)
(-0.0971684 -0.0111454 0.956646)
(0.338064 0.786156 0.594165)
(-0.373739 0.335081 0.709849)
(0.190719 0.330679 0.614705)
(0.185824 0.228562 0.579299)
(0.887061 -0.0720796 0.519412)
(1.51658 -0.364966 0.263301)
(-0.0766264 0.137444 1.26127)
(0.418899 0.341589 1.04104)
(-0.160616 0.218413 1.02157)
(-0.0162531 0.0678795 1.02775)
(0.0178876 -0.399931 0.98046)
(0.142199 0.57939 0.714459)
(-0.129429 0.204299 0.67471)
(-0.019849 0.19059 0.559461)
(-0.0418509 0.281602 0.422219)
(0.00592294 0.278925 0.347128)
(0.160192 0.249654 0.0528871)
(-0.123368 0.05346 1.24736)
(-0.0698223 -0.0321045 1.26917)
(0.431048 0.63769 1.01886)
(-0.265789 0.114209 1.00946)
(-0.00692481 0.375768 0.894976)
(0.149921 -0.127192 0.981394)
(-0.293225 0.528852 0.693779)
(-0.0702618 0.217979 0.673416)
(0.0491613 0.144993 0.634697)
(-0.0566065 0.444901 0.420415)
(0.118246 0.380789 0.274319)
(0.170299 0.303368 0.0229837)
(0.405763 0.00119756 1.30715)
(-0.256498 -0.113307 1.27591)
(-0.034724 0.0297503 1.18257)
(0.539963 0.488882 1.00133)
(-0.118189 0.0974603 0.977569)
(0.205575 0.310245 0.758945)
(0.424833 -0.00608264 0.729791)
(0.269429 0.0725462 0.690323)
(0.447382 0.0951772 0.502179)
(0.277661 0.0552993 0.451913)
(0.203505 0.00800397 0.219753)
(0.245775 -0.0218591 0.15407)
(0.424386 0.0285113 0.0478554)
(0.10537 0.0602872 1.42764)
(0.25194 0.0126301 1.35622)
(-0.134393 0.0996718 1.23732)
(-0.00386302 -0.0256275 1.1483)
(0.677994 0.244502 0.949231)
(0.0460331 0.214497 0.980095)
(0.248876 0.236786 0.80517)
(0.302135 0.147126 0.811879)
(0.291544 0.230374 0.85387)
(0.199165 0.169436 0.857629)
(0.112525 0.302274 0.856981)
(0.112772 0.470349 0.54541)
(0.297031 0.449602 0.0634634)
(-0.256333 1.29755 -0.098487)
(0.188734 0.0506592 1.34026)
(0.0994153 0.0780665 1.35724)
(0.312343 -0.0124078 1.25608)
(0.278162 -0.0151595 1.08276)
(-0.0159304 0.231775 1.03526)
(0.540468 0.0697268 0.880646)
(0.192238 0.221208 0.780961)
(0.187089 0.354581 0.60032)
(0.255436 0.306167 0.458668)
(0.389309 0.430757 0.603425)
(0.901977 0.00843413 0.202167)
(1.43906 0.238032 -0.721117)
(1.45675 -0.0407686 -0.562928)
(1.06059 0.17513 -0.425709)
(1.18994 -0.355468 -0.0810969)
(1.5965 0.876448 -0.0161699)
(1.9426 0.84294 0.0174218)
(1.71728 0.885018 -0.00997089)
(2.17834 0.69926 0.11102)
(2.09991 0.809395 0.0374685)
(1.83398 0.912497 0.0404234)
(2.4516 0.360818 0.0443683)
(2.3555 0.438619 0.227955)
(2.26424 0.675219 -0.0105948)
(2.04224 0.717783 0.0539211)
(2.76996 0.0740158 0.320467)
(2.7598 0.280648 0.133749)
(2.5621 0.434809 0.111522)
(2.48639 0.517658 0.163058)
(2.20227 0.745883 -0.106124)
(3.06639 0.178647 0.700655)
(3.02987 -0.233863 0.640561)
(2.9793 -0.14557 0.46777)
(2.92177 0.326472 0.0566767)
(2.59362 0.276313 0.227165)
(2.44544 0.611082 0.0548286)
(3.11736 -0.216002 1.28399)
(3.20525 -0.171573 1.1187)
(3.14145 -0.480643 1.02604)
(3.18836 -0.52605 0.880139)
(3.14566 -0.357777 0.519741)
(2.99501 0.29719 -0.253795)
(2.65044 0.217565 0.334369)
(2.67342 0.261232 1.18138)
(2.68776 -0.259194 1.21786)
(2.84437 -0.360515 1.26397)
(2.95186 -0.771628 1.29284)
(3.10367 -1.05082 1.24155)
(3.06066 -1.21552 1.13257)
(3.34394 -0.277049 0.393451)
(2.80134 0.205311 -0.105528)
(1.22735 0.213768 1.08558)
(1.0567 0.362376 1.2385)
(1.59702 0.231716 0.812335)
(1.8338 -0.0617039 0.947128)
(2.01023 -0.424322 1.0457)
(2.67328 -0.880361 1.03384)
(2.88524 -1.40043 1.11923)
(3.05859 -1.28288 1.23487)
(3.11561 -0.321385 -0.131775)
(-0.166494 0.253109 1.15417)
(0.418759 0.30735 0.993995)
(-0.123783 0.0790044 1.14551)
(0.0421999 0.326107 0.878342)
(0.764973 0.0665837 0.684445)
(-0.0471712 0.237504 0.839198)
(1.00517 -0.134283 0.683365)
(1.87652 -0.791923 0.654766)
(2.45676 -1.23348 0.762741)
(2.7365 -1.35966 0.386497)
(-0.218959 0.0526456 1.26595)
(0.195638 0.277719 1.17345)
(0.2397 0.282965 1.0381)
(-0.172054 0.256221 1.01669)
(-0.185918 -0.30569 1.0092)
(0.276589 0.344957 0.766369)
(-0.451784 0.159323 0.74247)
(0.171114 0.307001 0.595899)
(0.213029 0.229921 0.567341)
(0.864966 -0.133672 0.507859)
(1.49195 -0.49827 0.277115)
(-0.187071 0.194039 1.30206)
(-0.00338241 0.194124 1.23113)
(0.493174 0.594758 0.949721)
(-0.192771 0.186502 1.03326)
(0.0361331 0.351568 1.00857)
(0.235097 0.0748777 0.880531)
(-0.0589539 0.27372 0.794877)
(-0.0250731 0.241468 0.661116)
(-0.0385833 0.1781 0.55153)
(-0.0142014 0.268311 0.413543)
(0.04816 0.288732 0.305544)
(0.165345 0.227033 0.0567645)
(-0.0331316 -0.0413629 1.34856)
(-0.123591 0.0438745 1.2634)
(-0.0997875 -0.384529 1.26054)
(0.501226 0.680928 0.956362)
(-0.203486 0.292196 0.961295)
(-0.0269196 0.397753 0.870302)
(0.212201 0.0218983 0.940328)
(-0.29363 0.445716 0.715533)
(0.0198615 0.268035 0.65114)
(0.0534683 0.131792 0.623174)
(-0.0333562 0.393939 0.434495)
(0.167818 0.388634 0.228258)
(0.195871 0.283575 0.0107742)
(0.0885632 0.436201 1.46109)
(0.39688 -0.0619398 1.31725)
(-0.241597 -0.0779174 1.28373)
(0.076691 0.0152978 1.18345)
(0.637956 0.558075 0.94711)
(-0.0968273 0.119808 0.967586)
(0.20363 0.2359 0.766)
(0.409955 -0.00860194 0.739033)
(0.287903 0.0495412 0.696371)
(0.352725 -0.0539081 0.577136)
(0.28956 0.00943261 0.43779)
(0.205056 -0.0408009 0.22077)
(0.244329 -0.0314341 0.153834)
(0.447842 -0.0117458 0.0388298)
(0.0488077 0.0303416 1.44255)
(0.129961 0.0839826 1.41361)
(0.313385 0.0111383 1.33617)
(-0.104369 0.126277 1.2365)
(-0.0527684 -0.125025 1.20359)
(0.574656 0.111151 0.988127)
(0.0637646 0.217966 0.981405)
(0.248691 0.200983 0.821585)
(0.297658 0.129849 0.824053)
(0.283824 0.186865 0.871316)
(0.211375 0.136383 0.872612)
(0.116504 0.240949 0.913894)
(0.13304 0.374307 0.570484)
(0.324043 0.387873 -0.014387)
(-0.198848 1.29719 -0.0969066)
(0.234486 0.00594614 1.45656)
(0.190815 0.0496463 1.33818)
(0.0966669 0.0728655 1.35761)
(0.317954 -0.00228778 1.25856)
(0.280317 -0.0212968 1.08605)
(-0.0038142 0.235689 1.03358)
(0.542514 0.0688284 0.879153)
(0.193406 0.210565 0.780786)
(0.19335 0.349417 0.601801)
(0.256454 0.302203 0.46473)
(0.394176 0.422918 0.60013)
(0.870433 -0.0755898 0.237347)
(1.47135 0.229344 -0.764928)
(1.42482 -0.0606085 -0.565978)
(1.0481 0.187086 -0.412796)
(1.16385 -0.373751 -0.0686507)
(1.43925 0.941315 0.00722937)
(1.83204 0.768801 0.0222068)
(1.58558 0.874982 -0.0285651)
(2.08445 0.709473 0.0159413)
(1.99937 0.739519 0.0173306)
(1.73878 0.857422 0.00407184)
(2.22358 0.532098 0.236621)
(2.24363 0.538162 0.136106)
(2.13238 0.687741 0.0493763)
(1.92035 0.708307 0.0367791)
(2.48283 0.394243 0.425854)
(2.50133 0.403001 -0.0351992)
(2.3905 0.294335 0.215445)
(2.3179 0.50273 -0.0135505)
(2.09694 0.585442 0.0222773)
(2.84135 0.680345 0.44421)
(2.77741 0.0191122 0.296048)
(2.72517 0.0925093 0.158889)
(2.61668 0.180737 0.104819)
(2.50035 0.373874 0.179659)
(2.24288 0.600623 -0.0995581)
(3.03772 0.0295081 1.16127)
(3.08341 -0.0119437 0.734738)
(3.00614 -0.439046 0.622417)
(2.96332 -0.24466 0.488214)
(2.9069 0.140288 0.0767262)
(2.64603 -0.0134655 0.2347)
(2.47589 0.390026 0.108311)
(3.18335 -0.00762263 1.30416)
(3.06494 -0.264139 1.30032)
(3.19504 -0.569319 1.14499)
(3.12592 -0.736838 1.00393)
(3.1054 -0.799373 0.843204)
(3.13774 -0.494468 0.52243)
(2.9706 0.0406984 -0.192897)
(2.67844 -0.126545 0.364154)
(2.65579 0.187628 1.30584)
(2.67836 -0.173352 1.25706)
(2.67475 -0.222649 1.232)
(2.79763 -0.515899 1.32408)
(2.90224 -0.914436 1.30994)
(2.99981 -1.37476 1.26329)
(2.97227 -1.37027 1.1126)
(3.42768 -0.328299 0.284869)
(2.80624 0.134436 -0.113221)
(0.698509 0.272037 1.21268)
(1.15769 0.240258 1.11014)
(1.10924 0.331224 1.17737)
(1.70289 0.102681 0.769146)
(1.7985 -0.0519538 0.965833)
(1.98434 -0.486477 0.979851)
(2.53135 -1.25056 0.998266)
(2.75823 -1.66726 1.11852)
(2.9756 -1.47416 1.21988)
(3.08472 -0.683156 -0.0953422)
(-0.0841864 0.183569 1.29123)
(-0.101565 0.433302 1.11266)
(0.462504 0.152802 1.07203)
(-0.0672187 0.287971 1.09108)
(0.0481677 0.29422 0.889071)
(0.705707 0.0631082 0.740606)
(-0.10378 0.168764 0.848736)
(1.03855 -0.293559 0.67138)
(1.83662 -0.933374 0.712035)
(2.41313 -1.31535 0.759725)
(2.80149 -1.2278 0.390243)
(0.270188 0.632047 1.20401)
(-0.1374 0.120558 1.25424)
(0.24394 0.465318 1.08935)
(0.230509 0.241436 1.06863)
(-0.150178 0.416952 0.97293)
(-0.0760763 0.151096 0.848302)
(0.230215 0.191703 0.833945)
(-0.31968 0.151998 0.74354)
(0.132613 0.241403 0.586064)
(0.205374 0.196735 0.560933)
(0.853852 -0.197339 0.499867)
(1.43166 -0.569982 0.262172)
(-0.154678 -0.0147817 1.44148)
(-0.27369 0.250223 1.30328)
(-0.0535487 -0.132508 1.24781)
(0.608612 0.521899 0.927056)
(-0.1949 0.242575 1.03934)
(0.0890652 0.286002 1.00962)
(0.331963 0.248265 0.805368)
(-0.12451 0.0476163 0.832318)
(0.0785758 0.271714 0.636049)
(-0.043254 0.144517 0.552713)
(0.00423201 0.237437 0.417517)
(0.0888436 0.267535 0.296694)
(0.176418 0.210079 0.0471855)
(0.0141019 0.239881 1.45105)
(0.0229412 0.157758 1.33914)
(-0.167953 0.20124 1.29631)
(-0.0568608 -0.292591 1.21084)
(0.408875 0.452575 0.988661)
(-0.224378 0.23453 0.96335)
(0.0479076 0.457994 0.831904)
(0.302426 0.186809 0.875159)
(-0.342926 0.279644 0.770865)
(0.0629986 0.294188 0.625718)
(0.0690996 0.108401 0.616467)
(0.0186167 0.372798 0.433304)
(0.190567 0.373993 0.206919)
(0.217912 0.27424 -0.00347157)
(0.118032 -0.312951 1.49487)
(0.0820551 0.142071 1.45983)
(0.385749 -0.143432 1.32176)
(-0.194252 0.00454066 1.26041)
(-0.0710309 -0.241756 1.29536)
(0.480622 0.289948 1.01717)
(-0.0585218 0.129959 0.967396)
(0.180511 0.16134 0.78063)
(0.389215 -0.0648856 0.72707)
(0.322074 0.0101284 0.688462)
(0.404056 -0.0171478 0.488544)
(0.268268 -0.0691124 0.45311)
(0.213727 -0.0672604 0.207898)
(0.264524 -0.0484218 0.151774)
(0.441167 -0.0392922 0.0306636)
(0.254621 -0.102103 1.53167)
(0.0813847 0.0439206 1.42754)
(0.120518 0.124959 1.42812)
(0.299338 0.00529439 1.33271)
(-0.0827396 0.129009 1.24408)
(0.0245521 -0.110429 1.19526)
(0.592158 0.101747 0.975467)
(0.0737761 0.20567 0.985849)
(0.257208 0.181043 0.829411)
(0.293226 0.114846 0.837581)
(0.279645 0.160986 0.892191)
(0.212284 0.115109 0.88314)
(0.140898 0.182851 0.958488)
(0.159677 0.280873 0.585964)
(0.329672 0.316338 -0.111379)
(-0.12589 1.31097 -0.0917328)
(0.0970769 0.0939141 1.61607)
(0.239661 0.000594806 1.45772)
(0.192298 0.0473482 1.33774)
(0.0999237 0.078364 1.35785)
(0.326323 0.00600517 1.26074)
(0.283751 -0.0248495 1.08875)
(0.00575503 0.235057 1.03239)
(0.538225 0.0618289 0.884002)
(0.194687 0.204711 0.775868)
(0.200522 0.345112 0.601227)
(0.256477 0.29762 0.472051)
(0.400151 0.415698 0.600527)
(0.863971 -0.1083 0.211429)
(1.50771 0.193174 -0.802242)
(1.42669 -0.0777596 -0.633128)
(1.07714 0.197715 -0.393926)
(1.14123 -0.390714 -0.0592436)
(1.40826 0.821278 0.00431673)
(1.68556 0.877691 0.00419357)
(1.49732 0.835174 -0.0114046)
(1.94247 0.764055 0.0564978)
(1.84731 0.730044 0.0120173)
(1.64854 0.790299 -0.012197)
(2.16246 0.448159 0.223984)
(2.15405 0.548869 -0.00056865)
(2.02212 0.676558 0.0476655)
(1.80847 0.689672 0.0207856)
(2.29135 0.480593 0.327435)
(2.29523 0.285365 0.224179)
(2.27083 0.389696 0.189369)
(2.16953 0.586981 0.0241742)
(1.94101 0.657187 0.0303179)
(2.56354 0.442292 0.397484)
(2.49115 0.300061 0.384743)
(2.55413 0.213131 0.0264084)
(2.41655 0.151554 0.177082)
(2.33886 0.353339 -0.0258672)
(2.12682 0.513031 0.00901004)
(2.9062 -0.110997 0.732752)
(2.84441 0.373334 0.513134)
(2.8122 -0.178352 0.277828)
(2.70612 -0.0539011 0.148539)
(2.62783 0.0713741 0.123173)
(2.51348 0.0537764 0.209623)
(2.29831 0.418887 -0.0881647)
(3.20794 0.197364 0.969623)
(3.07542 -0.100485 1.07962)
(3.14064 -0.265774 0.742323)
(2.98522 -0.578457 0.569985)
(2.94803 -0.458104 0.496737)
(2.94064 -0.0614254 0.0610667)