/*--------------------------------*- C++ -*----------------------------------*\
  =========                 |
  \\      /  F ield         | OpenFOAM: The Open Source CFD Toolbox
   \\    /   O peration     | Website:  https://openfoam.org
    \\  /    A nd           | Version:  7
     \\/     M anipulation  |
\*---------------------------------------------------------------------------*/
FoamFile
{
    version     2.0;
    format      ascii;
    class       volVectorField;
    location    "1";
    object      U_0;
}
// * * * * * * * * * * * * * * * * * * * * * * * * * * * * * * * * * * * * * //

dimensions      [0 1 -1 0 0 0 0];

internalField   nonuniform List<vector> 
18750
(
(1.54002 -0.327874 -0.0335477)
(-0.626124 0.840327 0.00836321)
(1.22076 0.274879 -0.223152)
(1.41364 -0.337245 -0.0163493)
(-0.0838207 0.56271 0.0943267)
(-0.248229 0.760248 0.240086)
(-0.555659 0.882027 0.00737372)
(1.4315 0.0393303 -0.51478)
(1.21369 0.261371 -0.229912)
(1.35893 -0.322799 -0.0608685)
(-0.22292 0.514939 -0.0574771)
(-0.0417724 0.225484 0.250256)
(-0.0502032 0.437764 0.120711)
(-0.43512 0.566315 0.311053)
(-0.259633 0.762834 0.234025)
(-0.497494 0.991538 -0.0255724)
(1.15832 0.185484 -0.391707)
(1.43227 0.023038 -0.461302)
(1.22328 0.235518 -0.229579)
(1.35336 -0.311613 -0.0501874)
(-0.242884 0.353826 -0.0297408)
(-0.378417 0.327362 0.550854)
(-0.131023 0.453044 0.00324528)
(-0.138911 0.395921 0.25915)
(-0.0104539 0.158794 0.246096)
(0.0366612 0.393173 0.105057)
(-0.0262001 0.501008 0.59668)
(-0.293393 0.554738 0.467454)
(-0.153368 0.792562 0.2069)
(-0.653737 0.939328 0.00933726)
(0.835347 0.334121 0.0213345)
(1.19695 0.200288 -0.399264)
(1.39645 0.00530764 -0.427882)
(1.18745 0.254772 -0.268864)
(1.31749 -0.281375 -0.0720571)
(1.3159 0.506509 0.20686)
(-0.335744 0.137666 0.489137)
(-0.166439 0.299792 0.0501718)
(-0.479491 0.297991 0.511551)
(-0.316181 0.341693 0.479024)
(-0.081181 0.454248 -0.0103471)
(0.0367856 0.395447 0.568814)
(-0.0781733 0.355197 0.253151)
(0.0178186 0.125935 0.246027)
(0.105315 0.419941 0.0805741)
(0.165925 0.497343 0.617933)
(-0.0291599 0.523051 0.593702)
(-0.375894 0.630144 0.324911)
(-0.128116 0.812016 0.172849)
(-0.564355 0.972061 -0.00480777)
(0.345305 0.521177 0.571968)
(0.844487 0.318587 0.027181)
(1.22548 0.206054 -0.409008)
(1.39759 -0.0186496 -0.41193)
(1.17307 0.199503 -0.278535)
(1.33163 -0.257332 -0.0881381)
(3.00329 0.414053 0.429506)
(0.708594 0.363984 0.578871)
(1.39745 0.276822 0.233971)
(-0.270021 0.221885 0.471822)
(-0.261126 0.215073 0.414767)
(-0.0987673 0.32211 0.0436481)
(-0.170029 0.217008 0.707507)
(-0.422119 0.267406 0.521031)
(-0.246568 0.384986 0.427437)
(-0.030066 0.474007 -0.0665137)
(0.244872 0.40768 0.410863)
(0.0769077 0.384846 0.552086)
(-0.0146284 0.320264 0.252326)
(0.0484003 0.107835 0.255833)
(0.159203 0.405361 0.0726264)
(0.274391 0.453309 0.716135)
(0.173114 0.479665 0.608107)
(-0.0188494 0.535446 0.601932)
(-0.290624 0.540786 0.51071)
(-0.046107 0.827541 0.138972)
(-0.475954 1.0454 -0.0343243)
(0.24148 0.336749 0.440305)
(0.345614 0.514478 0.583189)
(0.857266 0.28834 0.0575208)
(1.22181 0.217576 -0.410322)
(1.40623 -0.019018 -0.4251)
(1.12874 0.244558 -0.31746)
(1.33968 -0.251168 -0.0924099)
(2.92142 1.01329 -0.0394992)
(2.66787 0.119822 0.762605)
(3.00545 0.3028 0.444072)
(0.0513559 0.218525 0.631989)
(0.753875 0.307992 0.600722)
(1.42592 0.187867 0.346629)
(-0.204599 0.175452 0.613276)
(-0.216698 0.241312 0.465863)
(-0.236638 0.264539 0.393104)
(-0.0223686 0.365878 -0.0129131)
(-0.380518 0.182688 0.6925)
(-0.139907 0.230275 0.683211)
(-0.392879 0.240246 0.523003)
(-0.209644 0.398301 0.433799)
(0.0248747 0.483404 -0.096096)
(0.18356 0.402683 0.696472)
(0.294105 0.378375 0.396906)
(0.111751 0.363785 0.544744)
(0.0340136 0.291596 0.240815)
(0.0835795 0.0905393 0.259709)
(0.215623 0.371832 0.0782092)
(0.258361 0.307973 0.744202)
(0.271173 0.434384 0.726728)
(0.189693 0.454194 0.627571)
(-0.011956 0.526859 0.624329)
(-0.294449 0.570103 0.505002)
(0.0320318 0.845646 0.0910833)
(-0.637035 1.02633 -0.00665283)
(0.144216 0.37149 0.588796)
(0.241342 0.331183 0.445656)
(0.360867 0.500724 0.588807)
(0.861402 0.255297 0.095879)
(1.24656 0.233952 -0.455098)
(1.37515 -0.028864 -0.410797)
(1.12132 0.233555 -0.344026)
(1.26666 -0.235488 -0.102547)
(2.33884 1.49111 -0.0986135)
(3.24541 0.177244 1.12038)
(2.95091 1.12099 -0.0705032)
(1.96581 0.302146 0.613047)
(2.66839 -0.108711 0.766564)
(3.01781 0.0691182 0.452287)
(-0.00598994 0.239705 0.703372)
(0.0153421 0.255929 0.607931)
(0.791188 0.273102 0.592232)
(1.54133 0.222675 0.327248)
(-0.249157 0.0716504 0.753913)
(-0.195723 0.19177 0.601428)
(-0.203144 0.264257 0.430251)
(-0.18613 0.286626 0.424977)
(0.00675015 0.369861 -0.0274041)
(-0.190022 0.453468 0.746624)
(-0.344937 0.125087 0.707277)
(-0.0948541 0.236756 0.670012)
(-0.339854 0.314463 0.499493)
(-0.1536 0.397891 0.457458)
(0.0643816 0.476193 -0.0910996)
(0.16659 0.0640793 0.860399)
(0.211743 0.37803 0.682552)
(0.343436 0.344214 0.387943)
(0.141625 0.328015 0.546966)
(0.078149 0.249341 0.236456)
(0.115398 0.0702645 0.257869)
(0.258604 0.327101 0.0897937)
(0.245165 0.357397 0.814035)
(0.263819 0.271956 0.761812)
(0.290531 0.386699 0.764268)
(0.177739 0.410831 0.72456)
(0.0178342 0.524291 0.628816)
(-0.292955 0.545079 0.542913)
(0.094739 0.837194 0.0430677)
(-0.549868 1.06496 -0.0394777)
(0.161684 0.2261 0.7744)
(0.150811 0.373622 0.591911)
(0.244564 0.32236 0.45281)
(0.358943 0.49965 0.595978)
(0.872125 0.211659 0.137407)
(1.27716 0.218679 -0.458101)
(1.38475 -0.0233786 -0.45824)
(1.10485 0.227959 -0.353526)
(1.27527 -0.243409 -0.107739)
(2.3639 1.20834 0.280035)
(3.16435 1.06286 0.340169)
(2.3912 1.40869 -0.161839)
(3.1982 -0.301408 1.0724)
(3.31603 -0.475656 1.20985)
(2.98855 1.01083 -0.0979018)
(0.749403 0.0541089 0.726828)
(1.99288 0.0606562 0.644645)
(2.6547 -0.596431 0.775562)
(3.06719 0.184968 0.403039)
(-0.175871 0.0813963 0.803987)
(0.00673046 0.225041 0.709425)
(0.066583 0.304215 0.554774)
(0.844529 0.242771 0.572729)
(1.52405 0.151761 0.307378)
(0.0897886 0.786787 0.696626)
(-0.225268 0.0595769 0.745912)
(-0.147738 0.10056 0.630387)
(-0.157304 0.279687 0.426376)
(-0.165389 0.286018 0.442857)
(0.0612518 0.351626 -0.000457262)
(-0.128459 -0.157943 0.960424)
(-0.187607 0.453001 0.738381)
(-0.305603 0.0537561 0.721026)
(-0.0522815 0.230504 0.656921)
(-0.286387 0.353465 0.500249)
(-0.0941905 0.394888 0.472077)
(0.091851 0.440151 -0.0605701)
(0.181009 0.389584 0.840501)
(0.221171 0.0453405 0.810272)
(0.237192 0.312877 0.684498)
(0.393185 0.299762 0.377081)
(0.162308 0.273936 0.561598)
(0.10789 0.207647 0.222139)
(0.134133 0.0448745 0.248135)
(0.28707 0.268695 0.0944124)
(-0.0593294 0.145549 0.995852)
(0.253697 0.349613 0.816726)
(0.275825 0.217529 0.780468)
(0.293646 0.38413 0.794482)
(0.198745 0.374837 0.766629)
(0.0313275 0.508313 0.643541)
(-0.186968 0.539158 0.589733)
(0.135282 0.773496 0.0611199)
(-0.448319 1.1284 -0.0632144)
(0.533376 0.0944014 0.862114)
(0.168046 0.226941 0.775522)
(0.157991 0.374778 0.594099)
(0.244231 0.322309 0.460854)
(0.373706 0.479592 0.602956)
(0.867865 0.194528 0.155593)
(1.29073 0.211421 -0.441746)
(1.40749 -0.0346381 -0.463039)
(1.0773 0.205906 -0.366223)
(1.2808 -0.248585 -0.111591)
(2.14092 1.2773 0.0569618)
(2.74869 1.36312 -0.220819)
(2.42371 1.0623 0.256601)
(3.35555 -0.206602 1.13604)
(3.26895 0.123211 0.597134)
(2.57129 1.18589 -0.183339)
(2.82712 -0.125398 0.971351)
(3.19205 -0.487605 1.08475)
(3.29935 -0.40179 1.17121)
(3.04747 0.642056 -0.103968)
(0.243912 0.291078 0.772138)
(0.752748 -0.161807 0.754554)
(1.96948 -0.279544 0.715028)
(2.67296 -0.490961 0.772322)
(3.05567 -0.104512 0.43152)
(-0.0721039 0.465564 0.771981)
(-0.222422 0.0681303 0.820098)
(0.12486 0.0920826 0.770358)
(0.105428 0.297508 0.561835)
(0.849488 0.214254 0.560253)
(1.57674 0.0348214 0.306283)
(-0.144237 -0.202971 1.0068)
(0.0855721 0.628989 0.714056)
(-0.170717 0.171787 0.6916)
(-0.118273 0.0764565 0.629242)
(-0.130431 0.294763 0.420712)
(-0.124845 0.298044 0.437416)
(0.08269 0.33358 0.0167586)
(-0.120673 0.489759 0.877475)
(-0.0926985 -0.151682 0.98187)
(-0.192283 0.511212 0.721605)
(-0.261428 0.123841 0.712037)
(0.00809792 0.231309 0.640832)
(-0.268612 0.381621 0.478189)
(-0.0403363 0.412503 0.421915)
(0.119098 0.400712 -0.035185)
(-0.23793 -0.0425181 1.03789)
(0.220605 0.471846 0.780167)
(0.272403 0.0622786 0.763923)
(0.24885 0.299614 0.677199)
(0.426909 0.267509 0.374915)
(0.167295 0.217365 0.57114)
(0.140377 0.16467 0.217689)
(0.165583 0.0203526 0.224044)
(0.318034 0.199978 0.0847451)
(0.6656 0.226218 0.998002)
(-0.0384295 0.157436 0.995922)
(0.254232 0.33562 0.821247)
(0.284639 0.204796 0.785596)
(0.301518 0.352739 0.826073)
(0.204105 0.34702 0.782671)
(0.048671 0.490728 0.662524)
(-0.145816 0.554306 0.578431)
(0.173141 0.702546 0.0821194)
(-0.476164 1.17342 -0.0682422)
(-0.044819 0.255392 1.03355)
(0.53505 0.092225 0.869044)
(0.174159 0.227868 0.776535)
(0.164808 0.377209 0.595451)
(0.247964 0.318598 0.45712)
(0.371276 0.478367 0.607976)
(0.880249 0.133112 0.190024)
(1.34736 0.201647 -0.488488)
(1.37636 -0.0334477 -0.457712)
(1.07041 0.18783 -0.383093)
(1.25792 -0.244388 -0.113781)
(1.95187 1.22085 -0.0819417)
(2.52258 0.76516 0.208914)
(2.20376 1.18385 0.060397)
(3.1639 0.481974 0.50119)
(2.83748 0.891652 -0.0210261)
(2.54646 0.817963 0.26867)
(3.29616 -0.22974 1.18569)
(3.24981 -0.336901 1.07662)
(3.23205 0.58287 0.432343)
(2.63702 1.08835 -0.144954)
(2.09593 0.00365442 1.20564)
(2.79687 -0.307624 0.947978)
(3.15061 -0.528173 1.08079)
(3.27161 -0.53337 1.23386)
(3.071 0.486057 -0.0868414)
(0.602712 0.535467 0.62315)
(0.145592 0.279876 0.812853)
(0.781778 -0.228633 0.833756)
(1.96042 -0.333293 0.730965)
(2.71585 -0.46066 0.78091)
(3.04165 -0.426004 0.438057)
(-0.100721 -0.0829834 0.933199)
(0.0252355 0.545988 0.71431)
(-0.301095 0.183842 0.7666)
(0.12984 0.147748 0.725956)
(0.14634 0.280837 0.558581)
(0.860576 0.155668 0.560983)
(1.56135 -0.0444731 0.308037)
(-0.123117 0.323726 0.929358)
(-0.0693642 -0.0260437 0.930467)
(0.0894247 0.723344 0.671317)
(-0.176064 0.275644 0.644859)
(-0.0821143 0.117851 0.61209)
(-0.107696 0.306959 0.410728)
(-0.0896373 0.332416 0.381536)
(0.116089 0.314309 0.0182193)
(-0.242477 0.113876 0.96376)
(-0.0943127 0.443114 0.875073)
(-0.0881932 -0.296964 1.03896)
(-0.171012 0.604025 0.683964)
(-0.216887 0.186033 0.691002)
(0.0195743 0.220522 0.623922)
(-0.251862 0.365624 0.48058)
(0.00573173 0.418571 0.367229)
(0.119885 0.368869 -0.00775773)
(0.523674 0.317585 1.09134)
(-0.220589 0.00532816 1.00993)
(0.232806 0.605343 0.696636)
(0.312467 0.0144098 0.761743)
(0.267004 0.266068 0.669226)
(0.441661 0.226661 0.392497)
(0.191237 0.173744 0.560335)
(0.16864 0.13117 0.214751)
(0.168278 0.00881422 0.214299)
(0.331112 0.15001 0.070334)
(-0.0668743 0.0504004 1.10616)
(0.662829 0.212417 1.01097)
(-0.0104187 0.174363 0.996092)
(0.248916 0.350637 0.794532)
(0.29118 0.191249 0.790206)
(0.302543 0.336902 0.833251)
(0.211401 0.307148 0.804881)
(0.0832162 0.46761 0.689219)
(-0.0711202 0.567556 0.564957)
(0.207667 0.633896 0.0980477)
(-0.440043 1.18194 -0.0725453)
(0.270552 0.00462459 1.07377)
(-0.035985 0.249629 1.03526)
(0.539821 0.0921018 0.871345)
(0.18052 0.228102 0.776357)
(0.170336 0.372928 0.597624)
(0.251129 0.316771 0.448416)
(0.372387 0.454345 0.621875)
(0.893556 0.122903 0.184244)
(1.35134 0.229842 -0.595208)
(1.40817 -0.0479609 -0.493524)
(1.05572 0.183617 -0.40702)
(1.23797 -0.250322 -0.113633)
(1.80792 1.13599 0.0583138)
(2.33343 0.95362 0.178765)
(2.03793 1.10513 -0.0911481)
(2.83335 0.663128 0.128178)
(2.54684 0.721041 0.16477)
(2.30566 0.960091 0.0710414)
(3.19836 -0.0372358 0.859858)
(3.23066 0.396454 0.374825)
(2.7484 0.830134 -0.0629853)
(2.59834 0.678739 0.261836)
(3.07914 -0.208451 1.24131)
(3.28055 -0.521512 1.22067)
(3.17406 -0.516287 1.08833)
(3.42762 0.382227 0.355331)
(2.68537 0.88708 -0.109747)
(1.99741 0.150499 0.782591)
(2.06075 -0.078406 1.22134)
(2.73392 -0.511453 1.02864)
(3.10281 -0.645248 1.1052)
(3.23787 -0.701648 1.21709)
(3.15994 0.266298 -0.0849587)
(-0.0709358 -0.0587256 1.01074)
(0.668635 0.479956 0.580147)
(0.153416 0.366615 0.817811)
(0.819303 -0.217363 0.85457)
(1.95747 -0.387116 0.707372)
(2.65126 -0.713619 0.75566)
(3.00867 -0.541672 0.403152)
(-0.2471 0.262261 0.967734)
(-0.129698 -0.180185 0.933189)
(0.0168979 0.558596 0.66916)
(-0.365563 0.281195 0.67234)
(0.174866 0.199808 0.6854)
(0.138047 0.264469 0.584821)
(0.826244 0.08715 0.561444)
(1.56479 -0.184998 0.287422)
(-0.0507904 0.388953 0.968795)
(-0.122493 0.223793 0.96644)
(-0.0122909 -0.0747646 0.956697)
(0.186718 0.834472 0.595938)
(-0.153512 0.286818 0.634493)
(-0.0320681 0.167947 0.585244)
(-0.1088 0.253962 0.440381)
(-0.0602218 0.303627 0.374606)
(0.132824 0.292779 0.0347392)
(0.270849 0.232228 1.15395)
(-0.285168 0.180729 0.936402)
(-0.0205018 0.737414 0.730539)
(-0.0420829 -0.165963 0.973976)
(-0.212715 0.67116 0.667214)
(-0.19276 0.193438 0.681807)
(0.0453671 0.19795 0.623508)
(-0.18938 0.38579 0.473871)
(0.0686081 0.421709 0.313058)
(0.157106 0.347322 -0.0270529)
(-0.0553301 0.0175312 1.15094)
(0.550809 0.333751 1.07534)
(-0.181 0.0832895 0.998564)
(0.207862 0.436872 0.743719)
(0.338672 -0.0224474 0.760525)
(0.266231 0.221234 0.667284)
(0.462326 0.169086 0.42186)
(0.207375 0.127081 0.542121)
(0.193653 0.0994533 0.209577)
(0.1914 -0.0271463 0.190882)
(0.356193 0.0898657 0.0760283)
(-0.189094 0.0673446 1.23469)
(-0.0518823 0.0288056 1.11372)
(0.637764 0.187158 1.02229)
(0.00231078 0.188965 0.988376)
(0.250721 0.299473 0.798016)
(0.298922 0.177482 0.789648)
(0.294889 0.297386 0.847761)
(0.207396 0.261937 0.824989)
(0.0930755 0.444921 0.735338)
(0.0150371 0.575506 0.544892)
(0.237993 0.569493 0.111052)
(-0.334722 1.21228 -0.0899514)
(0.302711 -0.00317013 1.25125)
(0.274247 0.000796178 1.07689)
(-0.0303806 0.245768 1.03405)
(0.538268 0.0880472 0.874036)
(0.185536 0.227601 0.777135)
(0.175121 0.367547 0.598571)
(0.25147 0.31477 0.455104)
(0.381381 0.451745 0.602561)
(0.878306 0.0894278 0.210915)
(1.37318 0.222981 -0.613909)
(1.40422 -0.0438807 -0.507149)
(1.05424 0.193578 -0.424949)
(1.24305 -0.300789 -0.102954)
(1.68224 1.1208 0.0256864)
(2.13334 0.915121 -0.0119527)
(1.92961 0.981106 0.0773922)
(2.58288 0.658477 0.103089)
(2.36596 0.878205 0.171773)
(2.07657 1.02692 -0.100063)
(3.01077 0.342858 0.442472)
(2.82942 0.535684 0.157952)
(2.5712 0.558683 0.185323)
(2.3336 0.889495 0.0583403)
(3.17276 -0.0767459 0.980443)
(3.1654 -0.180151 0.931453)
(3.18325 0.100756 0.358278)
(2.86875 0.661481 -0.193628)
(2.6225 0.495735 0.318206)
(2.93661 -0.0228861 1.20719)
(3.0298 -0.346599 1.2654)
(3.26775 -0.627994 1.22004)
(3.16972 -0.879581 1.13026)
(3.45922 0.269485 0.330126)
(2.73779 0.734834 -0.136719)
(1.33212 0.222914 1.00773)
(1.98198 0.0152198 0.770353)
(2.04912 -0.268608 1.21709)
(2.69305 -0.58066 0.996964)
(2.98665 -1.15331 1.1377)
(3.1145 -1.25506 1.17183)
(3.18119 0.226141 -0.137644)
(0.105533 0.358263 0.996951)
(-0.0350457 0.0876227 0.93879)
(0.655076 0.38664 0.600956)
(0.122085 0.486719 0.728628)
(0.90725 0.00665688 0.707461)
(1.93583 -0.471002 0.700658)
(2.46874 -1.26991 0.710311)
(2.96977 -0.700858 0.386345)
(0.261992 0.450218 1.04274)
(-0.184573 0.222792 0.995893)
(-0.0684688 -0.0878424 0.937736)
(0.174809 0.678651 0.597652)
(-0.351753 0.26664 0.705267)
(0.154426 0.273687 0.670282)
(0.160624 0.24339 0.574721)
(0.898546 -0.0140129 0.526873)
(1.5333 -0.256491 0.268198)
(0.398539 0.292513 1.07218)
(-0.0691228 0.357427 0.995541)
(-0.0890016 0.0641373 1.02886)
(-0.0365434 -0.164095 0.99673)
(0.16322 0.871213 0.631002)
(-0.173651 0.241113 0.655762)
(-0.0192611 0.195179 0.568342)
(-0.0720349 0.268617 0.436529)
(-0.0160786 0.292703 0.351395)
(0.152462 0.279568 0.0311377)
(0.0164278 0.154984 1.228)
(0.375631 0.354682 1.10891)
(-0.305923 0.0229772 1.02944)
(0.00147552 0.486501 0.815619)
(0.0513502 -0.209789 0.978854)
(-0.278905 0.635583 0.668235)
(-0.132016 0.186435 0.687164)
(0.0454523 0.182069 0.627768)
(-0.105937 0.440162 0.442933)
(0.0510831 0.374647 0.344877)
(0.166271 0.327092 0.000399544)
(-0.257874 -0.049526 1.24262)
(-0.0441365 0.0151364 1.17499)
(0.542611 0.408772 1.04285)
(-0.122266 0.10366 0.980089)
(0.207904 0.348201 0.762527)
(0.393336 -0.0414459 0.742722)
(0.260309 0.164483 0.67679)
(0.473399 0.14685 0.448801)
(0.224923 0.0657608 0.514742)
(0.204327 0.0540816 0.212427)
(0.224595 -0.00115769 0.165715)
(0.388803 0.0634495 0.0664718)
(0.302216 0.0648986 1.34153)
(-0.153725 0.0807846 1.23763)
(-0.0281721 0.0208866 1.12759)
(0.611203 0.175017 1.01432)
(0.0254981 0.198007 0.986028)
(0.24886 0.266922 0.796782)
(0.30148 0.164873 0.795663)
(0.296868 0.260834 0.847153)
(0.208689 0.207233 0.842763)
(0.110494 0.372735 0.797221)
(0.0794035 0.545245 0.535265)
(0.268274 0.506353 0.105415)
(-0.314282 1.27379 -0.0910314)
(0.0966424 0.0859471 1.35437)
(0.305801 -0.016299 1.25422)
(0.277728 -0.00756051 1.07985)
(-0.026487 0.232993 1.03558)
(0.537455 0.0810233 0.877664)
(0.191464 0.224111 0.777623)
(0.181073 0.361225 0.598318)
(0.253088 0.31082 0.455932)
(0.382702 0.441629 0.606354)
(0.897086 0.0422562 0.196166)
(1.40337 0.246187 -0.660487)
(1.41385 -0.0314505 -0.579649)
(1.06606 0.19404 -0.435828)
(1.21751 -0.32121 -0.0905574)
(1.65062 0.99403 0.000542747)
(2.02187 0.89815 0.0214983)
(1.80082 0.980883 0.0346311)
(2.29709 0.57418 0.192292)
(2.23252 0.788619 -0.00688172)
(1.97067 0.895624 0.0690292)
(2.7345 0.282408 0.134887)
(2.54331 0.685222 0.124542)
(2.44431 0.639366 0.170085)
(2.15066 0.860351 -0.10874)
(2.98247 0.188621 0.600162)
(2.99894 0.315336 0.396015)
(2.87774 0.495507 0.071808)
(2.58578 0.335011 0.214593)
(2.41041 0.704524 0.0424899)
(3.21202 0.104131 1.11384)
(3.15903 -0.17505 0.995945)
(3.18861 -0.418264 0.936648)
(3.13529 -0.131976 0.49759)
(2.9675 0.45432 -0.292429)
(2.64699 0.302558 0.327249)
(2.67296 -0.15484 1.28473)
(2.87644 -0.211638 1.22082)
(2.99226 -0.523765 1.28268)
(3.16466 -0.871879 1.23617)
(3.16487 -1.07009 1.15118)
(3.361 -0.168511 0.410561)
(2.7708 0.580132 -0.119621)
(1.22074 0.367358 1.16174)
(1.42057 0.139524 0.903067)
(1.90319 -0.0245725 0.846597)
(2.01801 -0.404618 1.13206)
(2.6205 -0.88497 1.06694)
(2.93133 -1.34136 1.10476)
(3.07819 -1.32077 1.20517)
(3.14929 -0.127086 -0.156249)
(0.369961 0.482315 0.965955)
(0.00399549 0.0914748 1.08333)
(0.0354877 0.253934 0.873161)
(0.705726 0.289735 0.584649)
(-0.0523253 0.287559 0.786799)
(1.01553 -0.0510922 0.6722)
(1.86981 -0.794653 0.644462)
(2.49267 -1.15706 0.745836)
(2.92868 -0.816363 0.383348)
(0.149311 0.269146 1.14998)
(0.311581 0.494541 0.964462)
(-0.204912 0.258392 1.00531)
(-0.0981665 -0.0120656 0.957075)
(0.336537 0.786372 0.595717)
(-0.371651 0.335947 0.709623)
(0.189614 0.332212 0.615139)
(0.181823 0.232812 0.578605)
(0.877925 -0.0624567 0.518815)
(1.50594 -0.356573 0.260308)
(-0.0800667 0.136521 1.26164)
(0.419859 0.339156 1.042)
(-0.158847 0.219883 1.0203)
(-0.0164173 0.0709322 1.02716)
(0.0160056 -0.411841 0.983713)
(0.142645 0.58064 0.714188)
(-0.128591 0.205211 0.674512)
(-0.0190911 0.19104 0.559485)
(-0.0405878 0.282237 0.42209)
(0.00697143 0.279632 0.346334)
(0.15887 0.250505 0.0519432)
(-0.123539 0.0531025 1.24731)
(-0.0722352 -0.0323523 1.26851)
(0.430107 0.630096 1.02197)
(-0.26324 0.116694 1.00931)
(-0.00843148 0.37967 0.8935)
(0.14942 -0.127328 0.98095)
(-0.291769 0.526728 0.695216)
(-0.0708583 0.220265 0.673044)
(0.0497433 0.146273 0.634497)
(-0.0555545 0.445146 0.420968)
(0.119698 0.381971 0.274184)
(0.171596 0.304361 0.0229297)
(0.408128 0.00564131 1.30726)
(-0.254256 -0.113392 1.27655)
(-0.0414516 0.0249921 1.18388)
(0.542076 0.488454 1.00226)
(-0.116915 0.0983717 0.978011)
(0.203828 0.311065 0.758742)
(0.424326 -0.00658438 0.729177)
(0.270593 0.0717625 0.690688)
(0.448046 0.0965471 0.501427)
(0.277464 0.0570734 0.452202)
(0.203064 0.00868524 0.220013)
(0.244559 -0.0210193 0.153124)
(0.423111 0.0302037 0.0466895)
(0.10255 0.0590166 1.42762)
(0.252226 0.014208 1.35694)
(-0.133179 0.100388 1.23786)
(-0.00872832 -0.0271133 1.14915)
(0.675517 0.240188 0.952399)
(0.046888 0.214419 0.980419)
(0.247144 0.238288 0.805264)
(0.301192 0.148043 0.810729)
(0.290469 0.231821 0.852847)
(0.19871 0.171901 0.855161)
(0.109862 0.304641 0.856966)
(0.110886 0.470098 0.547794)
(0.299792 0.447131 0.0637786)
(-0.264604 1.29999 -0.0989974)
(0.188567 0.0502847 1.33995)
(0.0989448 0.0787119 1.35651)
(0.310475 -0.0115944 1.25685)
(0.27932 -0.01589 1.08346)
(-0.0170157 0.231788 1.03432)
(0.537695 0.070777 0.880042)
(0.193191 0.220943 0.780728)
(0.186358 0.355247 0.59996)
(0.254679 0.307111 0.457315)
(0.388601 0.432291 0.601678)
(0.899248 0.015742 0.207402)
(1.43992 0.240142 -0.721958)
(1.46048 -0.0407838 -0.563679)
(1.0667 0.181286 -0.429445)
(1.20221 -0.354598 -0.0816681)
(1.59633 0.876947 -0.0160297)
(1.94205 0.843806 0.0175716)
(1.71769 0.884118 -0.00954379)
(2.17797 0.698387 0.111476)
(2.09992 0.808546 0.0371765)
(1.83388 0.912194 0.0404629)
(2.4516 0.35709 0.046363)
(2.35486 0.438753 0.227426)
(2.2636 0.676093 -0.0100405)
(2.04103 0.720073 0.0537726)
(2.77109 0.0734198 0.321267)
(2.76035 0.277248 0.134869)
(2.56222 0.439003 0.110988)
(2.48696 0.51363 0.163996)
(2.20234 0.746359 -0.106202)
(3.06662 0.174595 0.702478)
(3.02893 -0.232306 0.641279)
(2.98054 -0.144354 0.467595)
(2.92328 0.32451 0.0573138)
(2.59314 0.277676 0.223787)
(2.44666 0.605018 0.0569678)
(3.11796 -0.217824 1.28411)
(3.20421 -0.172749 1.11775)
(3.14095 -0.475854 1.02645)
(3.18786 -0.530086 0.882674)
(3.14395 -0.362475 0.524706)
(2.99868 0.297216 -0.25616)
(2.64989 0.220912 0.329796)
(2.66827 0.258168 1.17857)
(2.68292 -0.266266 1.21525)
(2.83921 -0.367682 1.2611)
(2.94868 -0.764485 1.28954)
(3.1033 -1.04466 1.24014)
(3.06357 -1.21584 1.13322)
(3.33753 -0.298948 0.406871)
(2.80119 0.209978 -0.110437)
(1.21892 0.214596 1.08377)
(1.04934 0.360099 1.23499)
(1.58402 0.232737 0.814989)
(1.82998 -0.0630653 0.941867)
(2.0001 -0.420923 1.04465)
(2.66695 -0.868649 1.03087)
(2.88019 -1.39922 1.11291)
(3.05678 -1.28186 1.23037)
(3.11525 -0.322207 -0.129577)
(-0.168808 0.251455 1.1548)
(0.416086 0.30908 0.993678)
(-0.120654 0.0786564 1.14551)
(0.0354276 0.326053 0.882398)
(0.768858 0.0669875 0.682741)
(-0.0504461 0.238244 0.838476)
(0.990101 -0.126045 0.683995)
(1.86663 -0.784844 0.652371)
(2.44689 -1.23308 0.757361)
(2.73873 -1.33819 0.38667)
(-0.219798 0.0536833 1.26599)
(0.193725 0.273731 1.17501)
(0.24092 0.283903 1.03716)
(-0.170299 0.257954 1.0165)
(-0.185728 -0.301786 1.00923)
(0.277014 0.345555 0.76581)
(-0.45006 0.161183 0.742703)
(0.170519 0.308908 0.596396)
(0.209792 0.234386 0.56667)
(0.856969 -0.124135 0.50778)
(1.48079 -0.489174 0.274107)
(-0.187278 0.194414 1.30228)
(-0.00697317 0.194106 1.23145)
(0.492302 0.590698 0.951453)
(-0.190003 0.188791 1.03162)
(0.0355834 0.358929 1.00807)
(0.234626 0.0705751 0.8832)
(-0.0581784 0.273606 0.795082)
(-0.0246503 0.241948 0.661057)
(-0.0377007 0.178507 0.551658)
(-0.0130277 0.268883 0.41351)
(0.0495757 0.289858 0.30474)
(0.164427 0.228084 0.0558848)
(-0.0321195 -0.0397666 1.34925)
(-0.123975 0.0465631 1.26305)
(-0.101805 -0.379858 1.2606)
(0.506686 0.688297 0.954972)
(-0.20159 0.293725 0.960459)
(-0.0281579 0.402287 0.867752)
(0.212181 0.0198049 0.940674)
(-0.292206 0.44296 0.716854)
(0.0189497 0.269685 0.651112)
(0.0540184 0.133409 0.6229)
(-0.032261 0.394114 0.435211)
(0.168898 0.389734 0.228693)
(0.197226 0.284611 0.0106011)
(0.0857516 0.430923 1.46227)
(0.399218 -0.0571545 1.31718)
(-0.239495 -0.0782785 1.28395)
(0.0704639 0.011722 1.18436)
(0.640256 0.557105 0.948435)
(-0.0955715 0.120216 0.968189)
(0.201171 0.23819 0.766336)
(0.409479 -0.00810506 0.738566)
(0.288713 0.0495784 0.696465)
(0.354056 -0.0510443 0.576743)
(0.289958 0.0118311 0.437441)
(0.204636 -0.0397646 0.220999)
(0.242981 -0.0305192 0.153027)
(0.446684 -0.00987332 0.0377999)
(0.0488554 0.029575 1.44245)
(0.128176 0.0837408 1.41303)
(0.31439 0.0126372 1.3368)
(-0.103271 0.127366 1.23701)
(-0.0556723 -0.123588 1.20324)
(0.575596 0.110545 0.988751)
(0.0646974 0.217955 0.981596)
(0.247099 0.202673 0.821533)
(0.296841 0.130886 0.822869)
(0.283063 0.188669 0.869947)
(0.210992 0.137665 0.870449)
(0.114126 0.244117 0.913377)
(0.131268 0.373959 0.573651)
(0.326843 0.384503 -0.014365)
(-0.200243 1.29728 -0.0957777)
(0.233553 0.00665424 1.45778)
(0.190891 0.0494792 1.33812)
(0.0960738 0.0729043 1.35698)
(0.315973 -0.00158445 1.25927)
(0.281384 -0.0221921 1.08674)
(-0.00499651 0.235809 1.03268)
(0.539529 0.069574 0.878778)
(0.194311 0.210284 0.780567)
(0.192622 0.350023 0.601566)
(0.255805 0.303152 0.463138)
(0.393397 0.424499 0.598304)
(0.867481 -0.0692499 0.247632)
(1.47415 0.232668 -0.768197)
(1.42477 -0.0589945 -0.560885)
(1.04626 0.192579 -0.414059)
(1.17551 -0.377497 -0.0686927)
(1.43953 0.940939 0.00729426)
(1.8326 0.767732 0.022298)
(1.58636 0.873516 -0.0284973)
(2.0846 0.708369 0.0164137)
(1.99993 0.738405 0.0171091)
(1.73894 0.856391 0.00410641)
(2.22316 0.532104 0.236238)
(2.24303 0.539004 0.135898)
(2.13192 0.687719 0.0493523)
(1.91977 0.709275 0.0370509)
(2.48386 0.390893 0.426393)
(2.50046 0.402752 -0.0360789)
(2.39012 0.294231 0.21581)
(2.31841 0.499173 -0.0131087)
(2.09693 0.584318 0.0221872)
(2.84286 0.677431 0.443654)
(2.77671 0.0194084 0.297818)
(2.72717 0.0930424 0.160177)
(2.61712 0.181705 0.102979)
(2.50006 0.37657 0.180274)
(2.24243 0.601508 -0.0993594)
(3.03871 0.025792 1.16075)
(3.08251 -0.00713331 0.73474)
(3.00637 -0.436925 0.625926)
(2.96431 -0.24265 0.488875)
(2.90768 0.138065 0.0778773)
(2.64492 -0.0131271 0.231881)
(2.47615 0.39373 0.108549)
(3.1824 -0.00509151 1.30267)
(3.06254 -0.275013 1.29997)
(3.19266 -0.565715 1.14289)
(3.12512 -0.737033 1.0046)
(3.10751 -0.796746 0.844625)
(3.13718 -0.500987 0.527824)
(2.97372 0.0444074 -0.192766)
(2.6786 -0.126378 0.359781)
(2.65173 0.188236 1.30312)
(2.67116 -0.16145 1.25382)
(2.66929 -0.221885 1.22959)
(2.79675 -0.505678 1.31851)
(2.89787 -0.917294 1.30692)
(2.99806 -1.37756 1.26242)
(2.97215 -1.3712 1.10979)
(3.42071 -0.335184 0.30252)
(2.80607 0.132136 -0.118418)
(0.685718 0.272792 1.21324)
(1.1494 0.239249 1.10859)
(1.09822 0.33278 1.17786)
(1.69466 0.109491 0.769221)
(1.79167 -0.0510027 0.962976)
(1.97772 -0.479222 0.97746)
(2.52333 -1.24743 0.993923)
(2.75421 -1.66591 1.11137)
(2.976 -1.46746 1.21594)
(3.0814 -0.695731 -0.0916177)
(-0.0824198 0.181147 1.29201)
(-0.1039 0.430669 1.11366)
(0.46122 0.156028 1.07032)
(-0.0651371 0.287776 1.09125)
(0.0429318 0.295839 0.89241)
(0.706255 0.0647971 0.740036)
(-0.105332 0.170108 0.849054)
(1.02381 -0.285061 0.671339)
(1.82884 -0.924322 0.709025)
(2.40391 -1.3129 0.754539)
(2.78982 -1.23925 0.39239)
(0.269725 0.634671 1.20422)
(-0.138576 0.119469 1.25484)
(0.242473 0.462191 1.09117)
(0.232077 0.242254 1.06749)
(-0.148256 0.417965 0.972581)
(-0.0779247 0.152391 0.849009)
(0.229862 0.192805 0.832874)
(-0.318183 0.153958 0.743846)
(0.132995 0.244107 0.586614)
(0.202781 0.201598 0.560637)
(0.846073 -0.186327 0.499644)
(1.42207 -0.560734 0.260097)
(-0.151932 -0.0130277 1.44211)
(-0.274112 0.250424 1.30368)
(-0.0561037 -0.130339 1.24732)
(0.608541 0.520089 0.927403)
(-0.192626 0.243218 1.03836)
(0.0858123 0.287201 1.00956)
(0.332454 0.248297 0.806668)
(-0.123358 0.0499189 0.832062)
(0.0786396 0.272015 0.636198)
(-0.0423179 0.144928 0.55296)
(0.00530029 0.238103 0.417573)
(0.0900875 0.268484 0.296051)
(0.175616 0.211264 0.0463197)
(0.0148833 0.238581 1.45207)
(0.02422 0.159141 1.33949)
(-0.167363 0.203846 1.29573)
(-0.0660017 -0.304363 1.21385)
(0.411729 0.455636 0.987861)
(-0.222521 0.234908 0.963198)
(0.0458932 0.462727 0.829442)
(0.301167 0.188548 0.874414)
(-0.339851 0.280771 0.77078)
(0.0621517 0.295453 0.625941)
(0.0695752 0.110015 0.616402)
(0.0198888 0.373287 0.43398)
(0.191662 0.374889 0.207439)
(0.219319 0.275134 -0.00366809)
(0.118922 -0.312957 1.49437)
(0.0793448 0.140228 1.46082)
(0.387398 -0.142239 1.32184)
(-0.192409 0.00522795 1.26065)
(-0.0750193 -0.241727 1.29497)
(0.482674 0.291011 1.01765)
(-0.0576822 0.130009 0.968067)
(0.178134 0.16255 0.780958)
(0.388201 -0.0632793 0.727369)
(0.322867 0.00991417 0.68846)
(0.403778 -0.0166664 0.489426)
(0.269427 -0.0657868 0.452278)
(0.213218 -0.0656486 0.208169)
(0.262929 -0.0473941 0.151328)
(0.43927 -0.0374479 0.0297887)
(0.253889 -0.101131 1.53248)
(0.0815829 0.043596 1.42722)
(0.117974 0.124027 1.42799)
(0.300082 0.00622426 1.33344)
(-0.081317 0.130684 1.24414)
(0.0201869 -0.109451 1.19548)
(0.591317 0.0996097 0.977018)
(0.0747356 0.205763 0.985886)
(0.255652 0.182553 0.829319)
(0.292647 0.116018 0.836281)
(0.278824 0.162612 0.890706)
(0.211626 0.116212 0.881164)
(0.139204 0.187061 0.956959)
(0.158295 0.280925 0.589826)
(0.332178 0.311998 -0.111306)
(-0.119685 1.31154 -0.0922005)
(0.0963074 0.0947876 1.61766)
(0.238778 0.00135795 1.45893)
(0.192441 0.0473024 1.33753)
(0.0994767 0.0782474 1.3572)
(0.324525 0.00703767 1.26133)
(0.284721 -0.0259778 1.08945)
(0.00469062 0.235141 1.03166)
(0.535888 0.0623093 0.883468)
(0.19562 0.204388 0.775427)
(0.199828 0.345703 0.600889)
(0.255829 0.298643 0.470596)
(0.399183 0.417488 0.598722)
(0.855994 -0.103265 0.227295)
(1.51211 0.202174 -0.810788)
(1.42465 -0.0756642 -0.632309)
(1.07696 0.201427 -0.394918)
(1.15364 -0.398136 -0.0583288)
(1.40792 0.82169 0.0046046)
(1.68587 0.877773 0.00447414)
(1.4971 0.835617 -0.0116165)
(1.9425 0.764319 0.0566572)
(1.84781 0.728682 0.0119204)
(1.64793 0.791115 -0.0121438)
(2.16283 0.446241 0.224806)
(2.15405 0.548517 -3.11303e-05)
(2.02194 0.676347 0.0476274)
(1.80778 0.691187 0.02059)
(2.29164 0.479025 0.327821)
(2.29397 0.287258 0.223912)
(2.27078 0.387742 0.190344)
(2.16944 0.585328 0.0240798)
(1.94132 0.656026 0.0309122)
(2.56286 0.441035 0.396748)
(2.49096 0.306592 0.387016)
(2.55491 0.213965 0.0237442)
(2.41629 0.150302 0.177285)
(2.33878 0.35665 -0.0249001)
(2.12658 0.512024 0.00827058)
(2.90314 -0.104709 0.731895)
(2.84625 0.383165 0.510568)
(2.8114 -0.181963 0.27806)
(2.70525 -0.0539395 0.149431)
(2.62828 0.072887 0.122991)
(2.51359 0.0517744 0.210543)
(2.29824 0.417401 -0.0884943)
(3.20764 0.195233 0.967731)
(3.07381 -0.0926093 1.08449)
(3.13921 -0.27184 0.743197)
(2.9849 -0.581977 0.571796)
(2.94952 -0.457765 0.49807)
(2.93937 -0.0628452 0.0629499)