/*--------------------------------*- C++ -*----------------------------------*\
  =========                 |
  \\      /  F ield         | OpenFOAM: The Open Source CFD Toolbox
   \\    /   O peration     | Website:  https://openfoam.org
    \\  /    A nd           | Version:  7
     \\/     M anipulation  |
\*---------------------------------------------------------------------------*/
FoamFile
{
    version     2.0;
    format      ascii;
    class       surfaceScalarField;
    location    "2";
    object      phi;
}
// * * * * * * * * * * * * * * * * * * * * * * * * * * * * * * * * * * * * * //

dimensions      [0 3 -1 0 0 0 0];

internalField   nonuniform List<scalar> 
53739
(
9.06748e-05
-0.00315786
-8.16396e-05
0.00024753
-0.00147174
-0.000316997
7.75942e-05
-0.00323494
-8.19965e-05
1.8243e-05
-0.00276513
-7.82486e-05
0.000409333
0.00141055
-0.000567894
0.000239181
-0.00161372
-0.000315974
8.45587e-05
-0.00150505
-0.000299885
6.67374e-05
-0.00330057
-8.3136e-05
-2.34957e-06
-0.00276684
-7.79412e-05
-3.0618e-05
-0.00326153
-7.47958e-05
0.000466389
0.00301473
-0.000791483
0.000455247
0.00119959
-0.0005547
0.00026797
0.000848522
-0.000513766
0.000236048
-0.0017618
-0.00031495
9.08971e-05
-0.00161454
-0.000299732
-4.29489e-05
-0.00185286
-0.000252756
5.37568e-05
-0.00335383
-8.36939e-05
-4.40714e-06
-0.00276757
-7.79928e-05
-4.30933e-05
-0.00322157
-7.47989e-05
-0.000109082
-0.00333328
-6.60977e-05
0.000408931
0.00580092
-0.00100306
0.000613039
0.0028349
-0.00076502
0.00064771
0.00174434
-0.000630999
0.000486834
0.000917568
-0.000548121
0.000341796
0.000531459
-0.000488536
0.000176866
-0.000594466
-0.000439673
0.00022555
-0.0019114
-0.000312727
0.000101489
-0.00173796
-0.000297424
-6.16526e-05
-0.00187982
-0.000254212
-0.000133708
-0.00209746
-0.000203574
4.30238e-05
-0.00339667
-8.36128e-05
-1.44151e-05
-0.00275784
-7.90088e-05
-7.08787e-05
-0.00315514
-7.35494e-05
-0.000120801
-0.00322078
-6.64953e-05
-0.000151318
-0.00245159
-5.75514e-05
-7.35471e-05
0.00578232
-8.71206e-05
0.000497838
0.00594343
-0.00101593
0.000363141
0.00610428
-0.00106338
0.0006747
0.00265407
-0.000748472
0.000708321
0.00126565
-0.000652848
0.000681107
0.0013289
-0.00055653
0.000432268
0.00065888
-0.000552912
0.000378346
0.000178319
-0.000471838
0.000175849
-0.000893942
-0.000426561
-2.23566e-06
-0.0012378
-0.000436066
0.000211232
-0.00205793
-0.000308887
9.94554e-05
-0.00186764
-0.000296916
-9.73059e-05
-0.00189712
-0.000253695
-0.00015966
-0.0020961
-0.000216713
-0.000205744
-0.00157653
-0.000195507
3.2961e-05
-0.00342946
-8.34603e-05
-3.49984e-05
-0.00272684
-7.96167e-05
-7.77797e-05
-0.0030818
-7.45703e-05
-0.000131571
-0.00309589
-6.68689e-05
-0.00015135
-0.00230891
-5.78304e-05
-0.000173487
-0.0013832
-6.01291e-05
-0.000269868
0.0054196
0.000486972
0.000427719
0.00554884
-0.000248518
-0.000351954
0.00736801
6.41267e-05
0.000456299
0.00615137
-0.000904806
0.000574417
0.00619235
-0.000970092
0.000880932
0.00269072
-0.000865465
0.000591831
0.00250806
-0.00077381
0.00077025
0.000823657
-0.000698387
0.000647678
0.00075813
-0.00055391
0.00030335
-0.00050532
-0.000514433
0.00042901
0.000406101
-0.000564312
0.000371968
-0.000177949
-0.000469158
0.000117941
-0.00116231
-0.000418716
-8.78432e-05
-0.00133496
-0.00040122
-9.61285e-05
-0.000803113
-0.000376056
0.000194567
-0.00219903
-0.000304226
7.65198e-05
-0.00199429
-0.000293762
-0.000110499
-0.0019051
-0.000256221
-0.000175502
-0.00209528
-0.000210583
-0.000225277
-0.00151705
-0.000202261
-0.000298163
-0.000810929
-0.000221798
1.59637e-05
-0.003445
-8.36344e-05
-5.22497e-05
-0.00267834
-7.97115e-05
-8.64819e-05
-0.00299942
-7.55177e-05
-0.000144669
-0.00295776
-6.80263e-05
-0.000164352
-0.00215487
-5.65502e-05
-0.000182076
-0.00119907
-5.9877e-05
-0.000213523
-0.000634673
-6.02738e-05
0.000377408
0.00555265
0.00134351
0.00030823
0.00541525
0.000544559
-0.000370589
0.00582281
0.000701111
-5.44414e-05
0.00607004
-0.000397015
8.39545e-05
0.00761778
-7.82011e-06
0.000701515
0.00770115
-0.000183814
0.000590453
0.0060881
-0.000879478
0.000726087
0.00611065
-0.000778945
0.000769557
0.00236941
-0.000770664
0.000820712
-0.000223727
-0.00061756
0.000592544
0.00241008
-0.000801521
0.000697083
0.000441864
-0.000717131
0.000551793
0.000200645
-0.000574754
0.000105234
-0.000758705
-0.000493603
5.66969e-06
-0.000984237
-0.00040732
0.000416551
0.000177471
-0.000563113
0.000325056
-0.000525872
-0.000464925
5.11596e-05
-0.00137563
-0.000417493
-0.000165338
-0.00138483
-0.000379004
-0.000202947
-0.000868431
-0.000358233
-0.000477399
-0.000341107
-0.000358394
0.000165877
-0.00233128
-0.000296104
3.09014e-05
-0.00209097
-0.000290688
-0.000140771
-0.00188851
-0.00025606
-0.000201979
-0.00207699
-0.000217195
-0.000272104
-0.00143036
-0.000189526
-0.000324195
-0.000656021
-0.000215049
-0.00041338
-0.00047919
-0.000208413
-3.88603e-06
-0.003441
-8.32893e-05
-6.92965e-05
-0.00261363
-7.90477e-05
-0.000101044
-0.00290328
-7.4802e-05
-0.000157625
-0.00280885
-6.68061e-05
-0.000167508
-0.00199747
-5.79229e-05
-0.000188665
-0.00100861
-5.83536e-05
-0.000217039
-0.000418119
-5.93919e-05
-0.000263778
1.54553e-05
-4.15381e-05
0.000634176
0.00581698
0.0023436
4.40049e-06
0.00626419
0.00134534
0.000189731
0.00621004
0.000972231
-0.000304598
0.00575939
0.000430903
-0.000220295
0.00624682
0.000424799
0.000354081
0.00711026
0.000839675
0.000128789
0.00626927
-0.000608829
0.000421462
0.00771284
-0.000187459
0.000843392
0.00800227
-0.000382773
0.000868012
0.00528196
-0.000305914
0.000492805
0.00621388
-0.00086541
0.000732412
0.00579104
-0.000595195
0.000731492
0.00207939
-0.000668627
0.000524458
-0.000848567
-0.000565049
-0.000181776
-0.000227756
-0.000370417
0.00063198
0.00224313
-0.000767463
0.000585075
9.91272e-05
-0.000718803
0.000329611
-0.000198928
-0.000596009
-0.00012912
-0.000868593
-0.000501082
-0.000190543
-0.00102797
-0.000462278
-0.000652614
-0.000561397
-0.000371262
0.000386321
-3.63938e-05
-0.000550072
0.000227301
-0.000833366
-0.000452018
-2.99185e-05
-0.00155258
-0.000398832
-0.000233037
-0.00140373
-0.00036754
-0.000296556
-0.00087619
-0.000346792
-0.000499686
-0.000152221
-0.000371629
-0.000574481
0.000123048
-0.000326662
0.000131085
-0.00244808
-0.000286637
-3.49255e-05
-0.00213754
-0.000283912
-0.000177972
-0.00184799
-0.000254281
-0.000247257
-0.00203128
-0.000212143
-0.000288567
-0.00133707
-0.000189423
-0.000338592
-0.000489242
-0.000206377
-0.000415962
-0.000295972
-0.000199345
-0.000517686
0.000478948
-0.000124908
-2.42357e-05
-0.00341675
-8.31667e-05
-8.48147e-05
-0.00253274
-7.93674e-05
-0.00012393
-0.00278424
-7.41627e-05
-0.00017557
-0.0026401
-6.79823e-05
-0.000183022
-0.00182448
-5.67712e-05
-0.000195877
-0.000812609
-5.80426e-05
-0.000222164
-0.00019593
-5.83774e-05
-0.000265584
0.000262449
-4.08015e-05
-0.000305495
0.000992963
-2.95116e-05
0.000544361
0.00645297
0.00305033
0.000148252
0.00610037
0.00224892
0.000511445
0.00606779
0.00187471
4.26452e-05
0.00644317
0.00123236
8.89738e-05
0.0063986
0.000847507
0.000308932
0.0062926
0.00104649
-0.000171858
0.00609454
0.000431655
0.000104238
0.00665058
0.000344364
0.000500618
0.00730145
0.000576383
0.000329832
0.00787803
0.000724956
0.000145141
0.00650096
-0.000476763
0.000498826
0.00760428
-0.000266683
0.000854453
0.00803231
-0.000340462
0.000731676
0.00509742
-0.000405448
-0.000132548
0.00236967
-0.000550018
0.000530083
0.00630676
-0.000706389
0.000670076
0.00540125
-0.000560621
0.000455584
0.00182937
-0.000471143
1.08104e-05
-0.00113048
-0.000526649
-0.000480375
-0.000131866
-0.000371107
-0.000960173
1.09605e-05
-0.000165357
0.000585663
0.00206685
-0.000723784
0.000485308
-0.000223699
-0.000702643
5.03622e-05
-0.000411142
-0.00058687
-0.000353481
-0.000851124
-0.000493034
-0.000462245
-0.000846582
-0.000516777
-0.000728755
-0.000326319
-0.000468286
-0.000770606
0.000808183
-0.000368289
0.0003144
-0.000209812
-0.00053728
0.000117173
-0.00109077
-0.000444769
-0.000135694
-0.00165838
-0.000388499
-0.000334278
-0.00137357
-0.000341963
-0.000388191
-0.000832901
-0.000311205
-0.000509082
2.20638e-05
-0.000350587
-0.000581948
0.000233006
-0.000315601
-0.000782284
0.000925536
-0.000194203
8.93738e-05
-0.00254281
-0.000277801
-8.49434e-05
-0.00214736
-0.000276685
-0.00020933
-0.00179185
-0.00025465
-0.000283577
-0.00196383
-0.00021372
-0.000335711
-0.0012165
-0.000180023
-0.000373104
-0.000305109
-0.00019633
-0.000432254
-0.000104979
-0.000187281
-0.000527101
0.000662321
-0.000121201
-0.000605392
0.00191931
-5.25134e-05
-4.52352e-05
-0.00337162
-8.25985e-05
-9.81156e-05
-0.00243898
-7.88063e-05
-0.000136109
-0.00265266
-7.48382e-05
-0.000185129
-0.00246273
-6.64062e-05
-0.000186443
-0.00164772
-5.83019e-05
-0.000202093
-0.000610391
-5.68967e-05
-0.000225272
2.89967e-05
-5.76983e-05
-0.000267121
0.000511229
-4.00363e-05
-0.000302166
0.00128307
-2.87429e-05
-0.000262233
0.00156907
-4.52222e-05
0.00052338
0.00623518
0.00319252
0.000152387
0.00644305
0.00298682
0.000570807
0.00611621
0.0029291
0.0003322
0.00624459
0.00218959
0.000380598
0.00628471
0.00174039
0.000173345
0.00645518
0.0017205
0.000166954
0.00672167
0.00121162
0.000217852
0.00662859
0.000888758
0.00019148
0.00652685
0.000922399
-0.0001191
0.00730335
0.0013028
1.06049e-05
0.00641509
0.000192563
0.000115374
0.00713142
0.00033427
0.000433491
0.00774089
0.000325885
0.000481505
0.0079038
0.000800778
2.70449e-05
0.00602652
0.000581453
3.32323e-05
0.00686847
-0.000400322
0.000328189
0.00774995
-0.000280544
0.000672974
0.0075742
-2.59577e-05
0.000554113
0.00466352
-0.000449872
-0.000477791
0.00248485
-0.000523206
-0.0012437
0.002014
-0.000690615
0.000630537
0.00619313
-0.000589803
0.000631694
0.00506274
-0.000514267
0.000110973
0.00167513
-0.00046699
-0.000379112
-0.000956417
-0.000619571
-0.000830581
-2.30479e-05
-0.00026713
-0.00110145
0.000398847
-0.000386299
-0.00130535
0.00189686
-0.000109971
0.000492925
0.00187495
-0.000700194
0.00036326
-0.000507806
-0.000685765
-9.91672e-05
-0.000594262
-0.000556049
-0.000450719
-0.000826351
-0.000495202
-0.000592712
-0.000692392
-0.000442703
-0.000824953
-4.31517e-05
-0.000484073
-0.000667237
0.000811456
-0.000386269
-0.000987761
0.00160802
-0.000287542
0.000259723
-0.000382588
-0.000521913
-5.06909e-06
-0.0012827
-0.000425219
-0.000237759
-0.00168866
-0.000386059
-0.000419001
-0.00128884
-0.000337814
-0.00046761
-0.000748246
-0.000294719
-0.000582566
0.000224387
-0.000304066
-0.000625629
0.000361088
-0.000285294
-0.000790343
0.00106426
-0.000191078
-0.000822263
0.0021435
-8.62269e-05
3.35399e-05
-0.00260317
-0.000267869
-0.000136906
-0.00211794
-0.000268433
-0.000255343
-0.00169623
-0.000253072
-0.000315266
-0.00187107
-0.000217272
-0.00036459
-0.00107473
-0.000177339
-0.000389794
-0.000109487
-0.000187944
-0.000442236
9.80456e-05
-0.000182391
-0.000536145
0.000860696
-0.000116632
-0.000592372
0.00213237
-4.40613e-05
-0.000567801
0.00306393
6.94179e-06
-6.34561e-05
-0.00330797
-8.2979e-05
-0.000110961
-0.00233191
-7.87062e-05
-0.000158384
-0.00250059
-7.24898e-05
-0.000197255
-0.0022723
-6.80088e-05
-0.000200915
-0.00145707
-5.61365e-05
-0.000208866
-0.000403654
-5.61725e-05
-0.000230313
0.000258476
-5.60625e-05
-0.000265661
0.000759482
-4.02904e-05
-0.000297185
0.00156853
-2.83139e-05
-0.000253507
0.00183581
-4.19704e-05
-0.000253287
-7.33248e-05
-5.15236e-05
0.000277756
0.00625306
0.00341969
0.000108551
0.00625135
0.00317438
0.000349213
0.00615973
0.00332587
0.000471875
0.00639092
0.00280312
0.000349582
0.0062751
0.00285895
0.000217528
0.00638126
0.00279083
0.000440081
0.00639537
0.00206162
0.000425135
0.0065683
0.00169872
0.000227683
0.00653596
0.0016234
-0.000376376
0.00668927
0.00194794
0.000146919
0.00712842
0.00110489
0.000277023
0.00678227
0.000896295
-3.63642e-05
0.00687239
0.00101307
5.36549e-05
0.00740751
0.00124609
-0.000444739
0.00693951
0.00139083
-5.67431e-05
0.00678776
0.000235588
-2.43117e-05
0.00731445
0.000362039
0.000237824
0.00821592
0.000294398
0.000698772
0.00752862
0.000556413
-0.00047707
0.00608098
0.0007456
-0.00125139
0.00466429
0.000465758
0.00021304
0.00712307
-0.000393694
0.00036739
0.0077453
-0.000131366
0.000283718
0.00712993
-9.01678e-06
0.000209101
0.00410841
-5.90555e-05
-0.000717982
0.00242706
-0.000504685
-0.00144175
0.00250702
-0.000675924
-0.00164796
0.00281241
-0.000457529
0.000520786
0.00619377
-0.000627599
0.000546316
0.00478536
-0.000495481
0.000140825
0.00138523
-0.000464364
-0.000606043
-0.000618647
-0.000649437
-0.000977805
0.000245904
-0.000503431
-0.00130414
0.00072856
-0.000117661
-0.00118611
0.002322
-0.000292572
-0.00124951
0.00346104
-8.45465e-05
0.00031667
0.0017831
-0.000688151
0.000149449
-0.000713084
-0.000649435
-0.00028783
-0.000671422
-0.000558533
-0.000622312
-0.000695569
-0.00048352
-0.000706614
-0.000520363
-0.000428228
-0.000879419
0.000215776
-0.000404777
-0.000902692
0.000979948
-0.000375502
-0.00103262
0.00169716
-0.000233127
-0.000991896
0.0024562
-0.000162525
0.000181356
-0.00055328
-0.000496229
-0.000103702
-0.0014395
-0.000398323
-0.000352352
-0.00164501
-0.000371862
-0.000479034
-0.00117946
-0.000331669
-0.000534153
-0.000646157
-0.00027034
-0.000623919
0.000459435
-0.000295642
-0.00063184
0.000515182
-0.000268556
-0.000795667
0.00123008
-0.000191598
-0.000797152
0.0022617
-0.000104499
-0.000759375
0.00345874
-8.33569e-05
-3.89139e-05
-0.00260925
-0.000263151
-0.000195058
-0.00204023
-0.000261483
-0.000314269
-0.00155862
-0.000250165
-0.00034714
-0.00175469
-0.000219575
-0.000388887
-0.000931125
-0.000172909
-0.000411094
9.28589e-05
-0.000177457
-0.000449579
0.000305222
-0.000175854
-0.000529629
0.00106124
-0.000118963
-0.000577885
0.00235562
-5.91753e-05
-0.000545048
0.00328441
2.69994e-05
-0.000528092
0.00256446
1.18053e-05
-7.67552e-05
-0.00323078
-8.27711e-05
-0.000117354
-0.0022186
-7.89352e-05
-0.000175798
-0.00232984
-7.36549e-05
-0.000212054
-0.00206702
-6.57183e-05
-0.00020548
-0.00126215
-5.74467e-05
-0.000212456
-0.000192484
-5.48512e-05
-0.000233482
0.000493343
-5.75569e-05
-0.000264285
0.00100815
-4.04468e-05
-0.000291543
0.00184817
-2.83809e-05
-0.000247172
0.00209447
-3.9807e-05
-0.000251371
0.000184459
-4.83828e-05
-0.000206848
-0.000437378
-5.12106e-05
-0.000466205
0.00568931
0.00379625
-9.4599e-05
0.00629441
0.00360674
0.00013647
0.00605935
0.00341059
-4.18854e-05
0.00613077
0.00363029
0.000511158
0.00618267
0.00312508
7.27855e-05
0.00631103
0.00329987
1.55633e-05
0.00623091
0.00343411
0.000654416
0.00633077
0.00266702
0.000401837
0.006414
0.00268752
0.000166491
0.00651477
0.00278664
-0.000267255
0.00604581
0.00285791
0.000245496
0.00672296
0.00173529
0.000451428
0.00687279
0.00158272
-8.31452e-05
0.00671242
0.00156904
-0.000253567
0.00673831
0.00188158
-0.00072785
0.0068606
0.00208525
0.0003716
0.00721502
0.000964551
0.00024243
0.00679262
0.000827794
-0.000260205
0.00729118
0.000975533
0.000192781
0.00765285
0.00127372
-0.000842469
0.00721878
0.00133221
-0.00123907
0.00627242
0.00143624
-8.64974e-06
0.00725928
0.000177698
5.58358e-05
0.00750404
0.000357544
-1.95746e-05
0.00833907
0.000542181
0.000501982
0.00713821
0.000391925
-0.000637509
0.00579486
0.000762064
-0.00134317
0.00462253
0.000688786
-0.00170338
0.00429035
0.000532537
7.56864e-05
0.00751097
-0.000343234
0.000419317
0.00758043
-0.00010182
0.000385686
0.00666761
8.60888e-05
-0.000505457
0.00401903
-2.02251e-05
-0.00118894
0.0029815
-0.00040235
-0.00155509
0.00283356
-0.000580281
-0.00173703
0.00302112
-0.000333715
-0.00156871
0.00398347
-0.000255637
0.000267162
0.00625988
-0.000506287
0.000359016
0.00455638
-0.000608186
-4.56294e-07
0.00116205
-0.000559674
-0.000797801
-0.000260487
-0.000647035
-0.00117253
0.000615332
-0.000552952
-0.00129113
0.00101423
-0.000377396
-0.00134892
0.00274942
-9.88586e-05
-0.0013458
0.00351598
-3.43363e-05
-0.00117102
0.00368586
-8.33947e-05
0.00026836
0.00166673
-0.000623507
-6.84876e-05
-0.00085022
-0.000586229
-0.000505899
-0.000619601
-0.00054771
-0.000733426
-0.000524627
-0.000475083
-0.000779287
-0.000351429
-0.00040732
-0.000934293
0.000485698
-0.000387775
-0.000812
0.00110535
-0.000350015
-0.00102437
0.00178364
-0.000233285
-0.000966671
0.00253275
-0.000140156
-0.000901809
0.00354529
-2.46732e-05
0.000106229
-0.00073089
-0.000462808
-0.000247289
-0.00150781
-0.000375681
-0.000465217
-0.00154708
-0.000345305
-0.000533931
-0.00104465
-0.00031988
-0.00060081
-0.000506872
-0.000259032
-0.000660938
0.000696383
-0.000257443
-0.000646539
0.000675912
-0.000259412
-0.000785844
0.00141912
-0.000201377
-0.000792746
0.0024054
-0.00012043
-0.000738917
0.00361716
-6.9047e-05
-0.000733309
0.00393011
-6.91651e-06
-9.9025e-05
-0.00258478
-0.000248938
-0.000243041
-0.00191709
-0.000260603
-0.000355086
-0.00139347
-0.000247343
-0.000380451
-0.00161476
-0.000221692
-0.000406999
-0.000779172
-0.000170009
-0.000424411
0.000300404
-0.000168499
-0.000465573
0.000534182
-0.000174327
-0.000522983
0.00126267
-0.000118586
-0.000564815
0.00257531
-6.53887e-05
-0.000521503
0.00348831
1.12579e-05
-0.000492117
0.00281026
2.1949e-05
-0.000432409
0.00156387
1.75181e-05
-9.56687e-05
-0.00313579
-8.20093e-05
-0.000141824
-0.00208131
-7.82351e-05
-0.000186945
-0.00214924
-7.25878e-05
-0.000223515
-0.00184975
-6.74139e-05
-0.00021563
-0.00105589
-5.6355e-05
-0.000214728
1.98014e-05
-5.50038e-05
-0.000236175
0.000729765
-5.50987e-05
-0.000255709
0.00124797
-4.16624e-05
-0.000281719
0.00211929
-2.98476e-05
-0.000240426
0.00234417
-3.76538e-05
-0.000249314
0.000439058
-4.50923e-05
-0.000207298
-0.000228799
-4.96633e-05
-0.000210247
0.000460062
-5.23504e-05
-0.000527371
0.00498361
0.00421634
-0.000308905
0.00578931
0.00384734
-0.000385198
0.00564493
0.00404816
4.51042e-05
0.00616191
0.00361155
-0.000308058
0.00593272
0.00378723
0.000327836
0.00613446
0.00337534
-0.000185441
0.00626784
0.00353175
-0.000126474
0.00649052
0.00361044
0.000645981
0.00612816
0.00313483
0.000330561
0.00621263
0.00329476
-0.000167471
0.00644595
0.00341879
-0.000154136
0.00631147
0.00343153
0.00028667
0.00639209
0.00261937
0.000257859
0.00665893
0.00261566
-0.000108447
0.00658567
0.00264192
-0.000400675
0.00610791
0.00287164
-0.000615912
0.00630615
0.0029207
0.000453813
0.00697634
0.00157405
0.000390419
0.00705643
0.00140366
-0.000130312
0.00682718
0.00133806
-0.000235396
0.00701961
0.00171593
-0.000812506
0.00676683
0.00194539
-0.00137483
0.00652158
0.00206733
0.000448081
0.0073975
0.00075921
0.000278104
0.00690327
0.000631636
-0.000207729
0.00745402
0.000853113
0.000286195
0.00785065
0.00099352
-0.000993988
0.00747289
0.00137609
-0.00113857
0.00603491
0.00136512
-0.00169616
0.00507428
0.00149321
6.49054e-05
0.00745802
0.000177429
0.000160718
0.00761175
0.000328586
0.000159222
0.00829842
0.000624651
-3.38589e-05
0.00666798
0.000540816
-0.000862376
0.00519023
0.000669989
-0.00158905
0.00460951
0.000809049
-0.00167781
0.00427948
0.000640441
-0.00164222
0.00484974
0.000593054
6.94303e-05
0.00756124
-0.000158748
0.000135714
0.00752652
-6.60238e-05
0.000334852
0.00625528
-2.47982e-05
-0.000707698
0.00437163
-0.000356616
-0.00140898
0.0035197
-0.000321975
-0.00162085
0.00307414
-0.000313198
-0.0017059
0.00308389
-0.000286063
-0.00163575
0.0040468
-0.000107097
-0.00153555
0.00480929
0.000183913
0.000273828
0.00612231
-0.000263574
0.000111205
0.00452714
-0.000656737
-0.000608126
0.00125516
-0.000599066
-0.000982055
6.95483e-05
-0.00064108
-0.00111671
0.000888859
-0.000583142
-0.00132451
0.00122354
-0.000372047
-0.00128582
0.00309149
-0.000245642
-0.00130035
0.00369399
-8.82684e-07
-0.00114642
0.00385127
-2.0001e-05
-0.00103502
0.00367044
9.57408e-05
0.000336195
0.00132628
-0.000473233
-0.000329258
-0.00087088
-0.000520878
-0.00065221
-0.00052454
-0.000494296
-0.000825612
-0.0003586
-0.000422057
-0.000906529
-0.000150917
-0.000369876
-0.000962164
0.000693352
-0.000313748
-0.000877243
0.00127806
-0.000329787
-0.00101748
0.00189739
-0.000232127
-0.000961857
0.00259278
-0.000124207
-0.000874762
0.00354588
-4.9039e-06
-0.00084916
0.00435696
8.08782e-05
-6.38632e-05
-0.000796755
-0.000438901
-0.000461893
-0.00140672
-0.000345046
-0.000516085
-0.00143056
-0.000331197
-0.000598898
-0.000881722
-0.000289787
-0.000661114
-0.000329581
-0.000243056
-0.000682134
0.000934593
-0.000239518
-0.000696969
0.000884229
-0.000234364
-0.000777069
0.00159727
-0.000183478
-0.000789539
0.00254506
-0.000116319
-0.000706365
0.00377369
-9.20989e-05
-0.000681068
0.00404572
4.29661e-06
-0.000647811
0.00444892
6.94959e-05
-0.00015276
-0.00253192
-0.000243494
-0.000314298
-0.00175015
-0.000243401
-0.000402706
-0.00118927
-0.00024904
-0.000413978
-0.00144988
-0.000221763
-0.000430626
-0.00062307
-0.000162797
-0.000428323
0.000504393
-0.000160404
-0.000469058
0.000759587
-0.000161021
-0.000508254
0.0014635
-0.000122614
-0.00055023
0.00279137
-6.61362e-05
-0.000497153
0.00366432
1.53226e-05
-0.000488823
0.00304313
1.7894e-05
-0.000411636
0.00177206
1.80944e-05
-0.000448521
0.00217314
-4.13187e-06
-0.000121542
-0.0030157
-8.05177e-05
-0.000154637
-0.00193059
-7.8099e-05
-0.000197857
-0.00195763
-7.19923e-05
-0.000234212
-0.00162035
-6.7772e-05
-0.000222616
-0.000844033
-5.66531e-05
-0.000216804
0.00023452
-5.42699e-05
-0.000235607
0.000965534
-5.51663e-05
-0.00025759
0.0014911
-4.06429e-05
-0.000274749
0.00238197
-2.95977e-05
-0.000231309
0.00258139
-3.57534e-05
-0.000246045
0.000689666
-4.22165e-05
-0.000206004
-2.00065e-05
-4.78803e-05
-0.000207618
0.000668848
-5.08313e-05
-0.000206679
0.00132438
-5.30289e-05
-0.000661954
0.00476363
0.00436895
-0.000390138
0.00498226
0.00410882
-0.000313178
0.0048907
0.00428514
-0.000363522
0.00516709
0.00422803
-0.000241185
0.00595887
0.00386161
-0.000387747
0.00553608
0.00403587
-0.00026235
0.00548614
0.00411326
0.000243451
0.00603446
0.00363638
-0.000296382
0.00588152
0.0037737
-0.000187863
0.00610227
0.00378873
0.000214155
0.00635551
0.00343933
-8.76505e-06
0.00643039
0.00355212
-0.000276177
0.00656242
0.00356856
-0.000104551
0.00642493
0.00344444
0.000262185
0.00605836
0.00319963
0.000124089
0.00615664
0.00332458
-0.000239362
0.00646676
0.00340486
-0.000443619
0.00628545
0.00348775
-0.000422708
0.00642995
0.00335083
0.000309416
0.00661092
0.00249815
0.000189815
0.00692225
0.00255665
-9.82185e-05
0.00659552
0.00257372
-0.000537603
0.00627105
0.00278098
-0.000804076
0.0063619
0.00280746
-0.00110404
0.0061745
0.00277571
0.000580964
0.0070847
0.00151414
0.000559852
0.00708296
0.00126578
-0.000199943
0.00675005
0.00147302
1.08963e-06
0.0071606
0.00148218
-0.00104254
0.0066354
0.00189591
-0.00110799
0.00649523
0.00194115
-0.00174005
0.00592197
0.00189887
0.000395268
0.00751886
0.000583554
-1.39171e-05
0.00726355
0.00057356
0.000103307
0.00747863
0.00066294
6.69109e-05
0.00760958
0.000993415
-0.00068241
0.00715412
0.00113232
-0.00155368
0.00601648
0.00135914
-0.0017741
0.0052007
0.00133498
-0.0016228
0.00531485
0.00128238
0.000371713
0.00725901
0.00016474
-0.000160741
0.0076574
0.000428235
-7.06312e-05
0.00844566
0.000586833
-0.000655871
0.00674107
0.000499731
-0.00136063
0.00498168
0.000701013
-0.00152126
0.00442276
0.000757142
-0.00169302
0.00427312
0.000802524
-0.00159303
0.00482164
0.00062582
-0.00153877
0.00476959
0.000579962
4.39061e-05
0.00757114
-6.87909e-05
6.96569e-05
0.00731899
9.03294e-05
-0.000222141
0.00593864
-0.000135367
-0.000893447
0.00447983
-0.000221605
-0.00141767
0.0039144
-0.000450363
-0.00168791
0.00335105
-0.000235489
-0.00180216
0.0033588
-7.17724e-05
-0.00160021
0.00410893
-4.83332e-05
-0.00152103
0.00486485
0.000211947
-0.00118007
0.00504772
0.000354991
0.000416283
0.00588071
-0.000252988
-0.000375749
0.00475517
-0.000445116
-0.000838405
0.00142306
-0.000638443
-0.00117434
0.000486342
-0.000667129
-0.00141657
0.00125678
-0.000498965
-0.00140057
0.00141283
-0.000334028
-0.00129518
0.00330096
-0.000163579
-0.00126967
0.00365572
4.48077e-05
-0.00112265
0.0039884
2.27848e-05
-0.000967361
0.00361517
0.000127866
-0.000942651
0.00416635
0.000256257
-1.10831e-05
0.00116274
-0.000412741
-0.000563689
-0.000825717
-0.000416601
-0.000740443
-0.000370586
-0.000450474
-0.000925174
-0.000167478
-0.000359141
-0.000958512
3.06587e-05
-0.000306234
-0.000979439
0.000894685
-0.000273904
-0.000954601
0.00148899
-0.000267043
-0.00100862
0.00198911
-0.00018995
-0.000949505
0.0026288
-0.000108183
-0.000839384
0.00353692
1.77747e-05
-0.000819963
0.0044092
8.17466e-05
-0.00073986
0.00446444
0.000107666
-0.00013786
-0.000861756
-0.00040471
-0.000562142
-0.00125961
-0.000338174
-0.000594922
-0.00127509
-0.0003083
-0.000651824
-0.000702294
-0.000272779
-0.000707179
-0.000129846
-0.000212969
-0.000685229
0.00114482
-0.000196376
-0.000710132
0.00110351
-0.000217724
-0.000773852
0.00179153
-0.000163028
-0.000771929
0.00269164
-0.00010835
-0.000678012
0.00387839
-4.01593e-05
-0.000677517
0.00416424
-2.19291e-05
-0.000627601
0.00461711
5.20702e-05
-0.000549986
0.00393193
2.12279e-05
-0.000232468
-0.00242915
-0.000230173
-0.000359455
-0.00156367
-0.000225153
-0.000438964
-0.000948426
-0.00024314
-0.000445609
-0.00126774
-0.000219786
-0.000445767
-0.000464888
-0.000156793
-0.00043442
0.000705325
-0.000146114
-0.000474229
0.00099396
-0.000156154
-0.000508365
0.0016604
-0.000107146
-0.000532884
0.00299029
-6.33974e-05
-0.000476525
0.00382639
1.70073e-05
-0.000432049
0.00321764
2.68197e-05
-0.000385478
0.00195733
1.20966e-05
-0.000405285
0.00239554
-6.634e-06
-0.000374659
0.00171524
-0.000107189
-0.000147578
-0.00286975
-8.03362e-05
-0.000169803
-0.00176397
-7.73322e-05
-0.00021002
-0.00175594
-6.97656e-05
-0.000242143
-0.00138178
-6.84154e-05
-0.000230679
-0.000624111
-5.70149e-05
-0.000217513
0.000448438
-5.30577e-05
-0.000235048
0.00120117
-5.48586e-05
-0.000250311
0.00172592
-3.96749e-05
-0.000266102
0.0026369
-2.94643e-05
-0.000218789
0.00280528
-3.47075e-05
-0.000240553
0.000934419
-3.99535e-05
-0.00020356
0.000188369
-4.70325e-05
-0.000205806
0.000876511
-4.97361e-05
-0.000200324
0.00152729
-5.34179e-05
-0.000123038
0.00166269
-5.05014e-05
-0.000644788
0.00420913
0.00455065
-0.000506501
0.0048187
0.00432647
-0.000329477
0.00463912
0.00439161
-0.000236023
0.00495989
0.0041462
-0.000241929
0.0050154
0.00403193
-0.000371949
0.00486285
0.00432788
-0.000280915
0.00506388
0.00428153
-0.000147015
0.00515821
0.00420485
-4.25024e-05
0.00602874
0.0039002
-0.000377082
0.00539432
0.00408407
-0.000271601
0.00549853
0.00410722
5.17411e-06
0.00565023
0.00395978
0.000145021
0.00585736
0.0036859
-0.000244622
0.00599807
0.00375569
-0.000305132
0.00617936
0.00372557
-0.000107585
0.00594036
0.00368104
-8.31761e-05
0.00647098
0.0034615
-3.65088e-05
0.0064348
0.00359552
-0.000285315
0.00651266
0.00364783
-0.000302011
0.00639111
0.00346077
-0.000386684
0.00634076
0.00327988
0.000157229
0.00610668
0.00323128
1.18131e-05
0.00616728
0.00336699
-0.000254444
0.00657366
0.00337391
-0.000598541
0.00641099
0.00334026
-0.00064748
0.00645651
0.0033046
-0.000674563
0.0061898
0.00304713
0.000301586
0.00684457
0.00250405
0.000281111
0.00718157
0.00251758
-0.000396134
0.00666612
0.00268223
-0.000401926
0.00655261
0.00269518
-0.000982574
0.00638045
0.00270246
-0.00103973
0.00630688
0.00260682
-0.00145085
0.00588483
0.00246249
0.000488327
0.0070207
0.00161166
0.000231459
0.00692602
0.0014257
-0.000188183
0.00693198
0.00137533
-0.000264939
0.00722848
0.00173698
-0.00103446
0.0066559
0.00181373
-0.00144074
0.00632026
0.00195794
-0.00164924
0.00597078
0.0017675
-0.00144841
0.00609241
0.00156091
0.000555086
0.00765377
0.000435539
-6.76675e-05
0.0073019
0.000452139
-0.00015691
0.00729734
0.00084113
-0.000391239
0.0069811
0.00102679
-0.0011208
0.00672715
0.00118056
-0.00142612
0.0058335
0.00122018
-0.00171962
0.0052956
0.00129084
-0.00146007
0.00532199
0.00119488
-0.00142968
0.00529447
0.00119052
9.69404e-05
0.00729376
0.000140575
-0.000169276
0.00763108
0.000430001
-0.000138998
0.00822937
0.000561381
-0.00106032
0.0068725
0.000622279
-0.00153244
0.00499924
0.000596943
-0.00172302
0.00432328
0.000835608
-0.0017505
0.00424613
0.000732481
-0.00160537
0.00491355
0.000715781
-0.00153551
0.00476361
0.000646284
-0.0012932
0.00530685
0.000646118
7.17145e-05
0.00763807
-4.27144e-06
-0.000285822
0.0069542
0.000206069
-0.000325876
0.00564858
-0.000132136
-0.000940208
0.00448219
-0.000371862
-0.00175434
0.00417133
-0.000140764
-0.00186517
0.00350993
-0.000144633
-0.00179518
0.00368432
-6.10111e-05
-0.00147446
0.00433189
-8.99427e-05
-0.00148024
0.00502156
0.000152547
-0.00100752
0.00498115
0.000318667
-0.000904825
0.0046342
0.000515947
8.25809e-05
0.00562902
-0.000126078
-0.000579899
0.00494569
-0.000427295
-0.00104994
0.00184945
-0.000562008
-0.00135759
0.000859906
-0.000579592
-0.00140372
0.00151813
-0.000483267
-0.00138729
0.0016549
-0.000333182
-0.00128814
0.00341189
-0.000111425
-0.00124851
0.00370861
2.34301e-05
-0.000981443
0.00396337
0.000101776
-0.000920964
0.00360394
0.000115589
-0.000873981
0.00407477
0.000273467
-0.00081734
0.00432168
0.000242434
-0.00021424
0.00107702
-0.000367623
-0.000726133
-0.00069707
-0.000377397
-0.00080204
-0.000177561
-0.000402508
-0.00101268
4.08764e-05
-0.000297977
-0.000990431
0.000202167
-0.000247398
-0.00100318
0.00114653
-0.000240134
-0.000937809
0.00168215
-0.000239394
-0.000990918
0.00210359
-0.000164459
-0.00097991
0.00275413
-0.000107298
-0.000813091
0.00353445
2.93625e-05
-0.00080751
0.00446701
8.99618e-05
-0.000712576
0.00454679
8.43753e-05
-0.000629279
0.00435896
9.15966e-05
-0.000274427
-0.000887147
-0.000368777
-0.000645488
-0.00107069
-0.000307597
-0.000666236
-0.00106575
-0.000320246
-0.000712397
-0.000501763
-0.000242042
-0.000744243
0.00010033
-0.000204479
-0.000686226
0.00136583
-0.000182178
-0.000715624
0.00132866
-0.00018013
-0.000767445
0.0019645
-0.000131611
-0.000748074
0.002835
-9.12024e-05
-0.000641128
0.0040008
-6.61583e-05
-0.000574366
0.0042345
3.18986e-05
-0.000574228
0.00474389
4.00458e-05
-0.000456908
0.00404536
-9.73475e-06
-0.000444386
0.00297864
-7.50971e-05
-0.000322799
-0.00226638
-0.000215331
-0.000408569
-0.00134482
-0.000210266
-0.000483175
-0.000677964
-0.00022246
-0.000469228
-0.00106015
-0.000223635
-0.000466157
-0.000292402
-0.000156795
-0.000428126
0.000903664
-0.000144518
-0.000477537
0.00123682
-0.000146484
-0.000484953
0.00184744
-0.000108553
-0.00050998
0.00318864
-6.16148e-05
-0.000446347
0.0039806
9.95877e-06
-0.000417045