/*--------------------------------*- C++ -*----------------------------------*\
  =========                 |
  \\      /  F ield         | OpenFOAM: The Open Source CFD Toolbox
   \\    /   O peration     | Website:  https://openfoam.org
    \\  /    A nd           | Version:  7
     \\/     M anipulation  |
\*---------------------------------------------------------------------------*/
FoamFile
{
    version     2.0;
    format      ascii;
    class       surfaceScalarField;
    location    "2";
    object      phi_0;
}
// * * * * * * * * * * * * * * * * * * * * * * * * * * * * * * * * * * * * * //

dimensions      [0 3 -1 0 0 0 0];

internalField   nonuniform List<scalar> 
53739
(
9.05208e-05
-0.00316551
-8.13984e-05
0.000248064
-0.00147925
-0.000316398
7.7731e-05
-0.00324285
-8.1604e-05
1.9055e-05
-0.00277083
-7.81567e-05
0.000411503
0.00139625
-0.000566943
0.000239843
-0.00162188
-0.000315309
8.61417e-05
-0.00150443
-0.000299939
6.60293e-05
-0.00330772
-8.26398e-05
-2.83837e-06
-0.00277185
-7.77489e-05
-2.96636e-05
-0.00326152
-7.4891e-05
0.000471408
0.00301208
-0.000789577
0.000456967
0.00118256
-0.000553936
0.000273544
0.000838049
-0.000513503
0.000236479
-0.00177126
-0.000314295
9.23957e-05
-0.00161531
-0.000299667
-4.32576e-05
-0.0018563
-0.00025296
5.244e-05
-0.00335947
-8.34664e-05
-7.12124e-06
-0.00276959
-7.77803e-05
-4.15875e-05
-0.00322271
-7.49701e-05
-0.000108966
-0.00333415
-6.61408e-05
0.000425536
0.0057959
-0.00100484
0.000616266
0.00283379
-0.000763593
0.000653324
0.0017161
-0.000630667
0.000484342
0.000902259
-0.000547919
0.000344696
0.000520068
-0.000488254
0.000178375
-0.000601616
-0.000439732
0.000224348
-0.00192133
-0.000312082
0.000102534
-0.00174188
-0.000297372
-6.197e-05
-0.00188177
-0.000253807
-0.000133973
-0.00210027
-0.00020275
4.09839e-05
-0.00340029
-8.35487e-05
-1.41138e-05
-0.00276038
-7.85587e-05
-6.82218e-05
-0.00315858
-7.36899e-05
-0.000120784
-0.00322179
-6.65504e-05
-0.000152885
-0.00244846
-5.75618e-05
-5.39802e-05
0.00577592
-9.115e-05
0.000500362
0.00593961
-0.00101436
0.000376514
0.00611432
-0.00105787
0.000669912
0.00265682
-0.000748006
0.000708981
0.00124246
-0.000654233
0.000683117
0.00130635
-0.000557041
0.000429937
0.000644598
-0.000553016
0.000378299
0.000168045
-0.000471661
0.000175235
-0.000900588
-0.000426487
-6.36507e-06
-0.00124222
-0.000435824
0.000208895
-0.00206798
-0.000308295
0.000100947
-0.00187237
-0.000296658
-9.7498e-05
-0.00189646
-0.000253412
-0.000161837
-0.0020964
-0.000216628
-0.000209849
-0.00157337
-0.000193683
3.15442e-05
-0.00343185
-8.31637e-05
-3.28459e-05
-0.00273178
-7.93014e-05
-7.92578e-05
-0.0030837
-7.41811e-05
-0.000131958
-0.00309681
-6.67125e-05
-0.000152046
-0.00230519
-5.77807e-05
-0.000173834
-0.00137635
-6.00869e-05
-0.000267662
0.00541894
0.000482976
0.000433438
0.00554726
-0.000259926
-0.000331086
0.00738035
5.42711e-05
0.000451453
0.00614597
-0.000900535
0.000583518
0.00619089
-0.000965475
0.000879071
0.00267742
-0.000862564
0.000589019
0.00251261
-0.000773869
0.000769267
0.000802275
-0.000698791
0.000644152
0.000738149
-0.000554949
0.000299212
-0.000505318
-0.000513791
0.000427071
0.000392514
-0.000564507
0.000370096
-0.000185006
-0.000469115
0.00011527
-0.00116649
-0.000418525
-9.1461e-05
-0.0013386
-0.00040049
-9.97715e-05
-0.000796482
-0.00037635
0.000192051
-0.00220838
-0.000303778
7.84176e-05
-0.00199818
-0.000293749
-0.000111603
-0.00190487
-0.0002559
-0.000177103
-0.00209444
-0.000210224
-0.000226591
-0.00151359
-0.000201867
-0.000297903
-0.000805032
-0.000221273
1.54558e-05
-0.003447
-8.34331e-05
-5.24033e-05
-0.00268285
-7.96929e-05
-8.76171e-05
-0.00299996
-7.54255e-05
-0.000145624
-0.0029573
-6.80616e-05
-0.000165379
-0.00215022
-5.62971e-05
-0.00018239
-0.00119191
-5.98366e-05
-0.000213574
-0.000621295
-6.02345e-05
0.000367116
0.00556068
0.00134353
0.000312608
0.00542352
0.000543441
-0.000362106
0.00582535
0.000677357
-6.40517e-05
0.00607886
-0.000411762
0.000109812
0.00761285
-1.8717e-05
0.000711704
0.00772588
-0.000200102
0.000588471
0.00608715
-0.000879769
0.000727538
0.00610491
-0.000772819
0.000762418
0.00236248
-0.000768803
0.000809733
-0.000243146
-0.000619617
0.000592574
0.00241532
-0.000800612
0.000689625
0.000425344
-0.000716466
0.000546929
0.000182053
-0.000574355
0.000100127
-0.000759452
-0.000492403
7.60072e-07
-0.000977758
-0.000406953
0.000414407
0.000164814
-0.000562979
0.000322505
-0.000528548
-0.000465051
4.8545e-05
-0.00137856
-0.000417194
-0.000170299
-0.00138577
-0.000378153
-0.000206804
-0.000859559
-0.0003572
-0.00047663
-0.000325627
-0.000358685
0.000164013
-0.00233958
-0.000296005
3.28433e-05
-0.00209644
-0.00029076
-0.000140864
-0.00188949
-0.000255883
-0.000203243
-0.00207586
-0.000216868
-0.000273737
-0.00142646
-0.000188999
-0.000324712
-0.000649954
-0.000214623
-0.000413415
-0.000464271
-0.000208296
-4.13665e-06
-0.00344278
-8.30444e-05
-6.87982e-05
-0.0026185
-7.89861e-05
-9.86953e-05
-0.0029059
-7.50545e-05
-0.000157375
-0.00280832
-6.70311e-05
-0.000167661
-0.00199271
-5.7913e-05
-0.000189115
-0.00100085
-5.82358e-05
-0.000217073
-0.000404693
-5.93663e-05
-0.000263421
2.83524e-05
-4.1545e-05
0.000632403
0.00581968
0.00234331
1.12107e-07
0.00629431
0.00133257
0.000189916
0.00620983
0.000967962
-0.000312212
0.00576703
0.000425667
-0.000208215
0.00626783
0.000418981
0.000368975
0.00711693
0.000814867
0.000128632
0.00627421
-0.000615308
0.000439143
0.0076933
-0.000203816
0.000845228
0.00801247
-0.000388118
0.000863037
0.00527873
-0.000306655
0.000492205
0.00621403
-0.000861309
0.000731014
0.0057752
-0.000591449
0.000730346
0.00206958
-0.00066334
0.000516576
-0.000865605
-0.000562793
-0.000188356
-0.00023432
-0.000364888
0.000632691
0.00224548
-0.000764787
0.000580433
8.4593e-05
-0.000717789
0.000317926
-0.000209349
-0.000594446
-0.000134447
-0.000869969
-0.000499691
-0.000197551
-0.00101849
-0.000460921
-0.000655613
-0.000549344
-0.000370288
0.000381182
-4.50002e-05
-0.000549654
0.000224776
-0.000831321
-0.000452139
-3.31392e-05
-0.00155272
-0.000398614
-0.000237057
-0.00140272
-0.000366427
-0.000298785
-0.000867254
-0.00034541
-0.000500402
-0.000136399
-0.000370738
-0.00057563
0.000128463
-0.00032621
0.000130773
-0.00245677
-0.000286579
-3.32415e-05
-0.00214391
-0.000284093
-0.000178073
-0.0018469
-0.000253975
-0.000248412
-0.00202885
-0.000211847
-0.000290163
-0.00133198
-0.000188843
-0.000338939
-0.000483043
-0.000206087
-0.000415863
-0.000280793
-0.000199311
-0.000517336
0.000487803
-0.000124782
-2.30133e-05
-0.00341982
-8.30081e-05
-8.512e-05
-0.0025372
-7.92208e-05
-0.000122813
-0.00278808
-7.3997e-05
-0.000176079
-0.00263943
-6.78704e-05
-0.000183577
-0.00181943
-5.6733e-05
-0.000196278
-0.000804606
-5.78819e-05
-0.000222224
-0.000182352
-5.83533e-05
-0.000265145
0.00027489
-4.07596e-05
-0.000305179
0.00100882
-2.95721e-05
0.000542042
0.00644815
0.00304956
0.00014415
0.00611513
0.00223608
0.000510073
0.00608246
0.00186258
5.25206e-05
0.00645965
0.00122186
9.09483e-05
0.00640527
0.000837968
0.000310482
0.00630214
0.00103953
-0.000170064
0.0061152
0.000420575
0.000125859
0.00666865
0.000338138
0.000505627
0.00731342
0.000562083
0.000342069
0.00787806
0.000731753
0.000149382
0.00650304
-0.00047437
0.000494054
0.00759622
-0.000281272
0.000858307
0.00800932
-0.000328629
0.000738883
0.00507281
-0.000404503
-0.00016107
0.00236242
-0.000537648
0.00053361
0.00629936
-0.000695061
0.000667637
0.00538526
-0.000558574
0.000432447
0.00182643
-0.000462814
-2.52049e-06
-0.00113828
-0.000522594
-0.000489995
-0.00014245
-0.000362218
-0.000967027
8.81449e-06
-0.000159439
0.00058245
0.00206719
-0.000722401
0.000482253
-0.000236884
-0.000700786
4.5057e-05
-0.000420155
-0.000585179
-0.000358783
-0.000851622
-0.000491066
-0.000466538
-0.00083635
-0.000514081
-0.000731725
-0.000311676
-0.000467265
-0.000771074
0.000807212
-0.000367092
0.000311439
-0.000215047
-0.000536978
0.000114043
-0.00108361
-0.000444646
-0.000138617
-0.00165661
-0.000387703
-0.000336563
-0.00137239
-0.000340796
-0.000390861
-0.000823278
-0.000309705
-0.00051073
3.9289e-05
-0.000349306
-0.00058359
0.000240761
-0.00031531
-0.000781883
0.000927368
-0.000192682
8.89811e-05
-0.00255044
-0.000277708
-8.63399e-05
-0.0021525
-0.000276774
-0.000209753
-0.00178984
-0.000254216
-0.000285248
-0.00196049
-0.000213169
-0.000336932
-0.0012109
-0.000179575
-0.000373399
-0.00029877
-0.000195995
-0.000431972
-8.98806e-05
-0.00018725
-0.000526504
0.00067107
-0.000121218
-0.000605387
0.00192811
-5.17498e-05
-4.69325e-05
-0.00337316
-8.23356e-05
-9.85954e-05
-0.00244284
-7.87748e-05
-0.000136045
-0.00265658
-7.46758e-05
-0.000186112
-0.00246096
-6.63532e-05
-0.000187545
-0.00164162
-5.81348e-05
-0.000202341
-0.000602199
-5.67993e-05
-0.00022534
4.27561e-05
-5.76494e-05
-0.000266617
0.000523179
-4.00252e-05
-0.000301847
0.00129869
-2.87809e-05
-0.00026169
0.00157194
-4.5789e-05
0.000515112
0.00623377
0.00319288
0.000155998
0.00644182
0.00297613
0.000567585
0.00612085
0.00292113
0.000350552
0.0062577
0.00217223
0.000379596
0.00630126
0.00172863
0.000163112
0.00646795
0.00171422
0.000170198
0.00673783
0.00119631
0.000225354
0.0066388
0.000888836
0.000184514
0.00654521
0.000916007
-0.000109187
0.00731205
0.00130113
2.40695e-05
0.00643411
0.000183189
0.000105432
0.00714636
0.000331482
0.000429218
0.00777243
0.000308224
0.000498656
0.00788965
0.000790719
-2.78239e-05
0.00603415
0.000590315
3.26036e-05
0.00687846
-0.000400042
0.000329159
0.00774013
-0.000279802
0.000647713
0.00753738
-2.45931e-05
0.000546241
0.0046283
-0.000432882
-0.000491401
0.00247006
-0.000510729
-0.00125283
0.0020391
-0.000683587
0.000633358
0.0061814
-0.000591144
0.000631418
0.00504916
-0.000508128
0.00011007
0.00166611
-0.000463272
-0.000392601
-0.000952031
-0.000615242
-0.000836889
-3.29577e-05
-0.000261735
-0.00110752
0.000399375
-0.000376984
-0.00130532
0.00190581
-0.000108022
0.000488307
0.00187722
-0.000699545
0.000353407
-0.000515394
-0.000683256
-0.000105244
-0.000600441
-0.000553872
-0.000455871
-0.000824758
-0.000492735
-0.00059608
-0.000682431
-0.000439766
-0.000826793
-2.84332e-05
-0.00048126
-0.000668853
0.000810217
-0.000385008
-0.000988746
0.00160338
-0.00028598
0.000255407
-0.000382967
-0.000522054
-8.58437e-06
-0.00127326
-0.000425083
-0.000240246
-0.00168567
-0.000385098
-0.00042194
-0.00128703
-0.000336374
-0.000470393
-0.000737808
-0.000292805
-0.000583908
0.00024291
-0.000302818
-0.000626389
0.000370808
-0.000284936
-0.000790069
0.00106717
-0.00019155
-0.000822166
0.00214752
-8.49366e-05
3.31829e-05
-0.0026129
-0.00026753
-0.000138037
-0.00212251
-0.000268255
-0.000255307
-0.0016946
-0.000252752
-0.000317019
-0.00186703
-0.000216773
-0.000365818
-0.00106893
-0.000176866
-0.000390027
-0.000103201
-0.000187457
-0.000441818
0.00011303
-0.000182428
-0.000535236
0.000869211
-0.000116772
-0.000592139
0.0021412
-4.40096e-05
-0.000566887
0.00308118
8.92954e-06
-6.53814e-05
-0.00330778
-8.28128e-05
-0.000111297
-0.00233529
-7.85908e-05
-0.000157404
-0.00250533
-7.26182e-05
-0.000198024
-0.00226967
-6.79467e-05
-0.000201083
-0.00145069
-5.61983e-05
-0.000208957
-0.000395283
-5.60934e-05
-0.000230365
0.000272397
-5.6075e-05
-0.000265061
0.000771044
-4.04534e-05
-0.000296809
0.0015839
-2.84301e-05
-0.000252929
0.00183854
-4.24554e-05
-0.000252719
-7.30664e-05
-5.18606e-05
0.000271593
0.006246
0.00342594
0.000113011
0.00624986
0.00317348
0.000334933
0.00616876
0.00332657
0.000489657
0.00639451
0.00279061
0.000344977
0.00628623
0.00284537
0.000204748
0.00638497
0.0027855
0.00043993
0.00641502
0.00203907
0.000424927
0.00658805
0.00168586
0.000213075
0.00655175
0.00161627
-0.000374891
0.00669265
0.00194804
0.000159147
0.00714004
0.00109361
0.000274573
0.00677833
0.000887641
-5.14095e-05
0.0068996
0.00101508
6.26705e-05
0.00741852
0.00124552
-0.000481165
0.00695528
0.00138894
-5.6783e-05
0.00680654
0.000235808
-1.78956e-05
0.00731757
0.000359035
0.000220264
0.00823043
0.000300924
0.00071208
0.00749408
0.000537958
-0.000488912
0.00608272
0.000739655
-0.00125557
0.0046528
0.000466428
0.000217875
0.00713831
-0.000396194
0.000376257
0.00772254
-0.000127294
0.000282586
0.00709411
-9.04629e-06
0.000177496
0.00407722
-4.36089e-05
-0.000745819
0.00244335
-0.000497245
-0.00144842
0.00252899
-0.00065972
-0.00164821
0.00282165
-0.000452548
0.000498407
0.00620273
-0.000624814
0.000535565
0.00477125
-0.000495391
0.000138826
0.00137555
-0.000461633
-0.000611094
-0.0006198
-0.000640281
-0.000985361
0.000241961
-0.00050088
-0.00130436
0.000729542
-0.000114332
-0.00118391
0.00233199
-0.000288114
-0.0012498
0.00345384
-7.9965e-05
0.000310105
0.00178988
-0.000688012
0.000144853
-0.000722739
-0.000645636
-0.000293806
-0.00067418
-0.000555958
-0.000629078
-0.000691367
-0.000480126
-0.000709508
-0.000511137
-0.000424914
-0.00088125
0.000231161
-0.000402018
-0.000902164
0.000979029
-0.000374297
-0.00103394
0.00169307
-0.000230825
-0.000993001
0.0024559
-0.000160603
0.000178081
-0.000549348
-0.000496786
-0.000107074
-0.00142837
-0.000397913
-0.000355567
-0.00163979
-0.0003707
-0.000481703
-0.00117712
-0.000330322
-0.000536568
-0.000635062
-0.00026837
-0.000624774
0.000479229
-0.000294377
-0.000632631
0.000526985
-0.000268182
-0.000794753
0.00123404
-0.000192286
-0.000796651
0.00226536
-0.000104883
-0.000758707
0.00347253
-8.18376e-05
-4.13538e-05
-0.00261794
-0.000262817
-0.000197083
-0.00204316
-0.000261096
-0.000315193
-0.00155523
-0.000249833
-0.000349227
-0.00174937
-0.000219207
-0.000390049
-0.000924355
-0.000172378
-0.000411237
9.94026e-05
-0.00017719
-0.000449489
0.000320462
-0.000175765
-0.00052839
0.00106931
-0.000119198
-0.000577535
0.00236495
-5.9802e-05
-0.000543685
0.00330064
2.72934e-05
-0.000526598
0.00257334
1.25342e-05
-7.85516e-05
-0.00322884
-8.26127e-05
-0.000117829
-0.00222142
-7.88543e-05
-0.000174796
-0.00233575
-7.33782e-05
-0.000212515
-0.0020638
-6.59659e-05
-0.000206122
-0.00125519
-5.73279e-05
-0.000212643
-0.000184134
-5.47041e-05
-0.000233453
0.000507339
-5.75822e-05
-0.000263546
0.00101908
-4.05625e-05
-0.000290793
0.00186292
-2.86764e-05
-0.000246732
0.00209709
-4.02501e-05
-0.000251117
0.000184244
-4.86482e-05
-0.000206452
-0.000424476
-5.13355e-05
-0.000462262
0.00569443
0.00379938
-9.51617e-05
0.00629223
0.0036111
0.000135547
0.0060574
0.00341316
-5.25344e-05
0.00613973
0.00363036
0.0005246
0.00618251
0.00312355
7.11452e-05
0.00631559
0.00330049
6.50412e-06
0.00623801
0.00343387
0.000652155
0.00633446
0.00265926
0.000399389
0.00642357
0.00267881
0.000145133
0.00651682
0.00278146
-0.000274973
0.00604271
0.00285966
0.000252099
0.00674184
0.00171038
0.00044937
0.00688521
0.00156711
-9.25647e-05
0.00671804
0.00156073
-0.00025057
0.00674774
0.00187442
-0.000749655
0.00686254
0.00208456
0.000383668
0.00721803
0.000946976
0.000245713
0.00679372
0.000814616
-0.000260052
0.00730326
0.000964298
0.000201107
0.00767446
0.0012701
-0.000852838
0.00722983
0.0013349
-0.00123452
0.00625114
0.00143895
-5.64888e-06
0.00727615
0.000174124
6.80574e-05
0.00750503
0.000356545
-7.86282e-06
0.00833213
0.000547785
0.000482848
0.00710096
0.000388691
-0.000651158
0.00577288
0.000753145
-0.00135937
0.00462095
0.000682458
-0.0016962
0.00429447
0.000529659
5.7965e-05
0.00752258
-0.000333197
0.000410197
0.00755661
-0.000104893
0.00038841
0.00662981
8.74204e-05
-0.000521169
0.00400951
-3.12633e-05
-0.00120524
0.00301139
-0.000391766
-0.0015565
0.00285034
-0.000566461
-0.00173578
0.00303811
-0.000324309
-0.00156899
0.00398806
-0.000250551
0.000266013
0.00625333
-0.000489791
0.000355719
0.00454332
-0.000607748
-1.5044e-05
0.0011595
-0.000558107
-0.000804715
-0.000267383
-0.000638413
-0.00117645
0.000615119
-0.000546491
-0.00129382
0.00101859
-0.000377351
-0.00134622
0.00275851
-9.67903e-05
-0.00134869
0.00351103
-3.05544e-05
-0.00117314
0.00367585
-8.13925e-05
0.000276357
0.00166347
-0.000620366
-8.38921e-05
-0.000851638
-0.000582296
-0.000511374
-0.000620004
-0.000544005
-0.000740575
-0.000516858
-0.000471595
-0.000783982
-0.000340917
-0.000402931
-0.000935921
0.000502884
-0.00038549
-0.00080941
0.00110206
-0.000348266
-0.0010239
0.00178043
-0.000232508
-0.000966814
0.00253284
-0.000137609
-0.000901432
0.00354354
-2.32043e-05
0.000102882
-0.000724888
-0.000463192
-0.000250719
-0.00149613
-0.000375386
-0.000470136
-0.00153911
-0.000343654
-0.000536975
-0.00104138
-0.000318691
-0.000602643
-0.000495784
-0.000257006
-0.000661783
0.00071725
-0.000255845
-0.000647312
0.000689121
-0.000258691
-0.000784625
0.00142321
-0.000201118
-0.000793614
0.00241009
-0.000120937
-0.000738046
0.00363004
-6.80274e-05
-0.000731424
0.00393845
-5.54748e-06
-0.0001031
-0.00259028
-0.000248536
-0.000243531
-0.00191963
-0.000260647
-0.000356386
-0.00138771
-0.00024702
-0.000382199
-0.00160796
-0.000221562
-0.000407983
-0.000771853
-0.000169848
-0.000424621
0.000307121
-0.000168118
-0.000465474
0.000549554
-0.000174262
-0.000521665
0.00127034
-0.000118679
-0.000563921
0.0025846
-6.57146e-05
-0.000520722
0.003504
1.08204e-05
-0.00049023
0.00281805
2.1696e-05
-0.000430685
0.00154367
1.7011e-05
-9.42349e-05
-0.00313525
-8.20261e-05
-0.000141816
-0.00208396
-7.82478e-05
-0.00018641
-0.00215567
-7.25202e-05
-0.000224256
-0.00184567
-6.7256e-05
-0.000215887
-0.00104893
-5.63445e-05
-0.000214821
2.83471e-05
-5.49879e-05
-0.000236158
0.000743729
-5.4936e-05
-0.000255048
0.0012581
-4.15555e-05
-0.000281248
0.00213359
-2.99854e-05
-0.000239834
0.0023463
-3.80479e-05
-0.000249183
0.000438757
-4.55813e-05
-0.000206817
-0.000216426
-4.98815e-05
-0.000209325
0.000456708
-5.25675e-05
-0.00052432
0.00498469
0.00421654
-0.000310598
0.0057957
0.00384996
-0.000382677
0.00564029
0.00405124
4.92825e-05
0.0061534
0.00361607
-0.000308387
0.00593143
0.00378825
0.00032729
0.00614561
0.00337769
-0.000185283
0.00627724
0.00353207
-0.000124574
0.00650147
0.00360521
0.000644287
0.0061245
0.00313672
0.000328413
0.00621358
0.00329654
-0.000182683
0.00644717
0.00341914
-0.000157906
0.00631086
0.00343189
0.000281757
0.00640531
0.00261282
0.000253498
0.00666777
0.00261093
-0.000118426
0.00658179
0.0026397
-0.000407808
0.0061122
0.00286921
-0.000620695
0.00630057
0.00291759
0.000471695
0.00698495
0.00156475
0.000394438
0.00705757
0.0013893
-0.000126293
0.0068203
0.00133109
-0.000228012
0.00702937
0.00170822
-0.000813776
0.00675797
0.00193993
-0.00136892
0.0065366
0.00206444
0.000446656
0.00740251
0.00073507
0.000268878
0.00691856
0.000621308
-0.000192782
0.00746403
0.00083876
0.000285715
0.00785364
0.00098225
-0.000992054
0.0074693
0.00137153
-0.00115983
0.00601942
0.00136708
-0.00169107
0.00507814
0.00149363
7.77132e-05
0.00744077
0.000173934
0.000148409
0.00760989
0.000331052
0.000161317
0.00828968
0.000626089
-5.71214e-05
0.00664174
0.000542956
-0.000873359
0.00516498
0.000664699
-0.00158567
0.00460351
0.00079975
-0.00167608
0.00427602
0.000641212
-0.00164431
0.004853
0.000590697
8.49184e-05
0.00755201
-0.000154957
0.000131141
0.00750938
-6.13894e-05
0.000324456
0.00621587
-3.04561e-05
-0.000725308
0.00437735
-0.000359821
-0.00141682
0.00354791
-0.000327416
-0.00162102
0.0030898
-0.000304031
-0.00170629
0.00310729
-0.000275569
-0.00163584
0.00405088
-9.99777e-05
-0.00153672
0.00480864
0.000185093
0.000288842
0.00610183
-0.000257326
9.07017e-05
0.00452079
-0.000641856
-0.000640481
0.00127534
-0.000594481
-0.000994872
6.72614e-05
-0.000638455
-0.00112399
0.000893241
-0.000576527
-0.00132574
0.00122868
-0.000366768
-0.00128
0.00309799
-0.00024624
-0.00129943
0.0036861
3.66888e-06
-0.00114433
0.00383994
-1.71215e-05
-0.00103446
0.00365835
9.70429e-05
0.00033427
0.00131916
-0.000468329
-0.000333316
-0.000873254
-0.000516152
-0.000654453
-0.000527908
-0.000490076
-0.00082917
-0.00035028
-0.000418388
-0.000908882
-0.000140239
-0.000366033
-0.000963159
0.000711889
-0.00031056
-0.000879694
0.00127709
-0.000328144
-0.00101725
0.00189534
-0.000230542
-0.000963405
0.00259193
-0.0001218
-0.000874119
0.00354562
-3.6163e-06
-0.000846637
0.00436144
8.05236e-05
-6.76245e-05
-0.000791075
-0.000437963
-0.000467444
-0.00139111
-0.0003443
-0.00052061
-0.0014204
-0.000329869
-0.000601095
-0.000876787
-0.000289353
-0.00066205
-0.000319451
-0.000240957
-0.000682405
0.000955801
-0.000237773
-0.000697617
0.000898837
-0.000233419
-0.000776075
0.0016013
-0.000182371
-0.000789138
0.00255042
-0.000116232
-0.000705014
0.00378659
-9.32036e-05
-0.000678314
0.00405337
5.13594e-06
-0.000645886
0.0044558
7.15436e-05
-0.000154184
-0.0025343
-0.00024358
-0.000315268
-0.00175092
-0.000243791
-0.000404409
-0.0011812
-0.000249165
-0.000415485
-0.00144193
-0.000221818
-0.00043112
-0.000615552
-0.00016263
-0.000428203
0.000510854
-0.000160199
-0.000468784
0.000774644
-0.000160582
-0.000506782
0.00147009
-0.000122273
-0.000549471
0.00279992
-6.57749e-05
-0.000495581
0.00367792
1.61118e-05
-0.000488773
0.0030504
1.80647e-05
-0.000410105
0.00175162
1.70276e-05
-0.000446618
0.00216556
-3.26536e-06
-0.000121688
-0.00301476
-8.07711e-05
-0.000155163
-0.00193282
-7.8005e-05
-0.000197319
-0.00196447
-7.21269e-05
-0.000234785
-0.00161567
-6.77368e-05
-0.00022309
-0.000836541
-5.65509e-05
-0.000216906
0.000242986
-5.40766e-05
-0.000235339
0.000979153
-5.50732e-05
-0.000257538
0.00150127
-4.05689e-05
-0.000274825
0.00239631
-2.9453e-05
-0.000230913
0.00258331
-3.60842e-05
-0.000245778
0.000688877
-4.23898e-05
-0.000205609
-7.88879e-06
-4.85087e-05
-0.000207046
0.00066502
-5.11469e-05
-0.00020675
0.00133271
-5.29453e-05
-0.000658243
0.0047641
0.00436972
-0.000389618
0.0049816
0.00410798
-0.000311145
0.00488748
0.00428688
-0.000361412
0.00516877
0.0042286
-0.000238894
0.00596453
0.00386617
-0.000386177
0.00552961
0.00403842
-0.000255718
0.00548478
0.00411352
0.000237452
0.00603008
0.00364071
-0.000297795
0.00588647
0.00377354
-0.000185492
0.00610737
0.00378721
0.000205909
0.00636881
0.00344426
-1.27126e-05
0.00643943
0.00355663
-0.00028401
0.00656723
0.00356764
-0.000103635
0.00642501
0.00343942
0.0002511
0.00605831
0.00320404
0.000109098
0.00616652
0.00332818
-0.000252913
0.00647203
0.00340618
-0.000449347
0.00628608
0.00348546
-0.000425322
0.00642833
0.00334879
0.000318406
0.00662825
0.00249474
0.000185041
0.00693728
0.0025527
-0.000116486
0.00660849
0.00257442
-0.000540007
0.00628524
0.00277865
-0.000814775
0.00636991
0.00280087
-0.00110807
0.00617926
0.00277441
0.000583472
0.00708163
0.00151037
0.000548675
0.00707819
0.00126433
-0.000206951
0.00675451
0.00146925
-6.56717e-06
0.00717179
0.00148095
-0.0010557
0.00663626
0.00189357
-0.00111283
0.00649102
0.00193851
-0.00173755
0.00592864
0.00189528
0.000398944
0.00751473
0.000570143
-2.69081e-05
0.00726104
0.000567914
0.000110152
0.00747083
0.000665676
6.16285e-05
0.00758021
0.00099344
-0.000675138
0.00712605
0.00112728
-0.00155162
0.00599964
0.00135726
-0.00176971
0.00520632
0.00133254
-0.00161763
0.00531898
0.00127944
0.000391606
0.00723384
0.000161543
-0.000169642
0.00765404
0.000430572
-8.1164e-05
0.00844139
0.000584969
-0.000699641
0.00674365
0.000498515
-0.00138591
0.00497681
0.000700221
-0.00152383
0.00441633
0.000754688
-0.00169714
0.00426867
0.000797954
-0.00159594
0.00482616
0.00062816
-0.00153678
0.00476775
0.000583474
4.88209e-05
0.00756423
-6.25368e-05
6.38192e-05
0.00728822
9.30868e-05
-0.00025158
0.0059062
-0.000140621
-0.000896651
0.00447365
-0.000224984
-0.00142491
0.00393421
-0.000445202
-0.00168993
0.00336426
-0.000237676
-0.00179996
0.00339094
-6.77252e-05
-0.00159674
0.00411883
-4.62038e-05
-0.00151888
0.00487181
0.000211395
-0.00117513
0.00503825
0.000355871
0.000415436
0.00585352
-0.000248438
-0.000403063
0.00477096
-0.000437756
-0.000838028
0.00144816
-0.000631101
-0.00118657
0.000489832
-0.000659654
-0.0014207
0.00126035
-0.000493747
-0.00139955
0.00141812
-0.000329578
-0.00129376
0.0033038
-0.000158504
-0.00126828
0.00364486
4.60221e-05
-0.0011197
0.0039718
2.81099e-05
-0.000965927
0.00360308
0.000129963
-0.000940122
0.00416019
0.000256915
-4.13807e-05
0.00118108
-0.000409627
-0.000570064
-0.000828742
-0.000410222
-0.000744236
-0.000374467
-0.000445968
-0.000929979
-0.000157563
-0.000353909
-0.000960031
4.13565e-05
-0.000302003
-0.00098057
0.000915378
-0.000271357
-0.000955544
0.00148955
-0.000265088
-0.00100846
0.00198688
-0.000187295
-0.000952613
0.0026318
-0.000106944
-0.000838068
0.00353758
1.92957e-05
-0.000818679
0.00441635
8.1845e-05
-0.000738136
0.00447346
0.000106339
-0.000141077
-0.000854195
-0.000403829
-0.000569378
-0.00123831
-0.000336653
-0.000599771
-0.00126238
-0.000306957
-0.000653107
-0.00069592
-0.000273112
-0.000708147
-0.000119825
-0.000211952
-0.000685267
0.00116638
-0.000194476
-0.000710028
0.00111853
-0.000216224
-0.000772845
0.0017957
-0.000161756
-0.000770979
0.00269688
-0.000107322
-0.000676547
0.00388789
-3.65615e-05
-0.000677772
0.00417157
-2.24037e-05
-0.000625661
0.00462567
5.08186e-05
-0.000545222
0.00393963
2.27857e-05
-0.00023521
-0.00242894
-0.000229795
-0.000361262
-0.00156302
-0.000225382
-0.000440988
-0.000937989
-0.00024333
-0.000446648
-0.00125898
-0.000220252
-0.000445953
-0.000457498
-0.000157009
-0.000434102
0.000711265
-0.000145845
-0.00047393
0.00100916
-0.000156122
-0.000507059
0.00166548
-0.000106456
-0.000531904
0.00299827
-6.3541e-05
-0.000475045
0.00383846
1.78152e-05
-0.000427993
0.00322135
2.73744e-05
-0.000384029
0.00193627
1.18389e-05
-0.000406316
0.00238876
-6.90176e-06
-0.000373913
0.00172919
-0.000106091
-0.000146776
-0.00286938
-8.03728e-05
-0.000169652
-0.00176638
-7.75587e-05
-0.000209812
-0.00176289
-6.9779e-05
-0.0002427
-0.00137672
-6.83697e-05
-0.00023092
-0.000616359
-5.69981e-05
-0.000217589
0.000457011
-5.29875e-05
-0.000234969
0.00121475
-5.4703e-05
-0.000250017
0.00173582
-3.96083e-05
-0.000265059
0.00265028
-2.94794e-05
-0.000218475
0.00280751
-3.51768e-05
-0.00024064
0.00093345
-4.00164e-05
-0.000203128
0.000200271
-4.74218e-05
-0.000205076
0.000871633
-5.00459e-05
-0.000200635
0.00153553
-5.33265e-05
-0.000122904
0.00166848
-5.06312e-05
-0.000645235
0.00421006
0.00455148
-0.000505055
0.00481946
0.00432487
-0.000323338
0.00463846
0.00439134
-0.000233017
0.00495842
0.00414505
-0.000240468
0.00501419
0.00403129
-0.000372792
0.00486429
0.00433023
-0.000275357
0.00506296
0.00428187
-0.000139981
0.00515859
0.00420175
-4.03464e-05
0.00602077
0.00390792
-0.000379058
0.00538778
0.00408925
-0.00026981
0.00550111
0.00410641
1.46114e-05
0.00564836
0.00395705
0.000135998
0.0058534
0.00368981
-0.000245068
0.00600302
0.00375652
-0.000310368
0.00618386
0.00372341
-0.000106179
0.0059428
0.00368107
-8.66877e-05
0.0064757
0.00346521
-4.22716e-05
0.00643338
0.00360168
-0.000290082
0.00651137
0.00364965
-0.000303489
0.00638553
0.00346126
-0.00039296
0.00634235
0.00327855
0.000151839
0.00611871
0.003235
1.98819e-06
0.00618317
0.00337044
-0.000270843
0.00658098
0.00337358
-0.000602377
0.00641756
0.00333707
-0.00065546
0.00645797
0.00329651
-0.000675817
0.00618904
0.00304095
0.000298182
0.00685742
0.00251316
0.000273656
0.00718463
0.00252242
-0.000400124
0.00666584
0.00268852
-0.000403367
0.00656283
0.00269363
-0.000990244
0.00638525
0.00269786
-0.00104429
0.00631041
0.00260118
-0.00145091
0.0058891
0.00245787
0.000480243
0.00701584
0.00161678
0.000204527
0.0069193
0.00143782
-0.00019011
0.0069289
0.0013902
-0.000267064
0.00722756
0.00174218
-0.00103201
0.00665855
0.00181552
-0.00144575
0.00632414
0.00195459
-0.00164255
0.005975
0.00176499
-0.00143503
0.00609412
0.00155865
0.000558439
0.00765704
0.000431688
-8.08345e-05
0.00729836
0.000444011
-0.000171681
0.00728833
0.000840935
-0.000452817
0.00695974
0.00103933
-0.00113896
0.00668576
0.00118678
-0.00142761
0.00581107
0.00121963
-0.00171747
0.00529387
0.00129002
-0.00146161
0.00532249
0.0011947
-0.00142592
0.00528766
0.00119052
7.43808e-05
0.00729449
0.00013749
-0.00016891
0.00762741
0.0004209
-0.000137529
0.00819742
0.000560488
-0.00105139
0.00686027
0.000623082
-0.00154317
0.00499883
0.000594746
-0.00173184
0.00432117
0.000837281
-0.00175409
0.00424788
0.000729603
-0.00160136
0.00491362
0.000715105
-0.00153707
0.00476634
0.000647762
-0.00128609
0.00530846
0.000648413
6.13736e-05
0.00764175
-5.53372e-06
-0.000317488
0.00693085
0.000209258
-0.000326457
0.00562207
-0.000134354
-0.000950124
0.00447682
-0.000380228
-0.00175955
0.00418386
-0.000135787
-0.00186485
0.00352948
-0.000145127
-0.00179021
0.003711
-6.12828e-05
-0.00147428
0.00434656
-8.94572e-05
-0.00147503
0.00502321
0.000157711
-0.00100366
0.00496579
0.000321594
-0.000900114
0.00461159
0.000516039
4.71865e-05
0.00560423
-0.00011371
-0.000585402
0.00496133
-0.000423464
-0.00106386
0.00188361
-0.000553577
-0.00136575
0.00086513
-0.000570628
-0.00140131
0.00152071
-0.000478742
-0.00138599
0.00165841
-0.000328622
-0.00128441
0.00341214
-0.000109049
-0.00124704
0.0036995
2.54333e-05
-0.000981284
0.0039454
0.000101091
-0.000922423
0.00360032
0.000115218
-0.00087864
0.00407541
0.000274705
-0.000815086
0.00432689
0.000241039
-0.000213518
0.00109115
-0.000365142
-0.000730896
-0.000704542
-0.000372309
-0.000805362
-0.000182136
-0.000396961
-0.00101655
5.2412e-05
-0.000292504
-0.000993361
0.00021429
-0.000241628
-0.00100332
0.00116777
-0.000236336
-0.000936883
0.00168243
-0.000237386
-0.00099009
0.00210229
-0.000163252
-0.000979758
0.00275908
-0.000105794
-0.000810176
0.00353483
2.94364e-05
-0.000804961
0.00447268
9.01491e-05
-0.000710599
0.00455661
8.36393e-05
-0.000622774
0.00436863
8.86905e-05
-0.000281698
-0.000874069
-0.000368015
-0.000651932
-0.00104499
-0.000306474
-0.000670878
-0.00104831
-0.000320837
-0.000713947
-0.000493653
-0.000241926
-0.000745224
0.000111041
-0.000204707
-0.000685709
0.00138719
-0.000181154
-0.000715402
0.00134478
-0.000179253
-0.00076612
0.00196965
-0.000131117
-0.000746187
0.00283924
-8.98317e-05
-0.000638353
0.00401241
-6.85333e-05
-0.000567539
0.00423644
3.81188e-05
-0.000571126
0.00474997
4.03947e-05
-0.000456632
0.00405263
-1.18604e-05
-0.000441853
0.00297408
-7.53677e-05
-0.000321176
-0.00226692
-0.000216522
-0.000410132
-0.00134205
-0.000210278
-0.000484672
-0.000665943
-0.000222567
-0.000469496
-0.00105154
-0.000223974
-0.000466416
-0.000285215
-0.000157039
-0.000427585
0.000909164
-0.000144912
-0.000476815
0.00125199
-0.000146826
-0.000483528
0.00185176
-0.000108891
-0.000508386
0.0031964
-6.12631e-05
-0.000443934
0.00399065
9.73789e-06
-0.000417329