/*--------------------------------*- C++ -*----------------------------------*\
  =========                 |
  \\      /  F ield         | OpenFOAM: The Open Source CFD Toolbox
   \\    /   O peration     | Website:  https://openfoam.org
    \\  /    A nd           | Version:  7
     \\/     M anipulation  |
\*---------------------------------------------------------------------------*/
FoamFile
{
    version     2.0;
    format      ascii;
    class       volVectorField;
    location    "2";
    object      U_0;
}
// * * * * * * * * * * * * * * * * * * * * * * * * * * * * * * * * * * * * * //

dimensions      [0 1 -1 0 0 0 0];

internalField   nonuniform List<vector> 
18630
(
(1.39398 0.882401 -1.85358)
(0.480228 1.10777 -2.30007)
(1.41419 0.852355 -1.85876)
(1.36126 0.184159 -1.84427)
(-0.970774 0.912946 -2.41025)
(0.505407 1.07271 -2.27571)
(0.575637 0.688098 -2.43829)
(1.44525 0.873025 -1.85764)
(1.4035 0.0822822 -1.8294)
(1.67208 0.00840945 -1.71512)
(-1.76893 0.800915 -2.75607)
(-0.922776 0.885582 -2.42131)
(-0.500541 0.0504615 -2.59761)
(0.531211 1.043 -2.2564)
(0.639479 0.621077 -2.41396)
(0.935194 0.0657647 -2.06487)
(1.46472 0.860274 -1.85333)
(1.39287 0.172672 -1.86523)
(1.68539 -0.0126106 -1.70393)
(1.90192 -0.66674 -1.66183)
(-3.13624 0.175842 -2.48449)
(-1.80177 0.943978 -2.5868)
(-1.22165 1.14961 -2.26594)
(-0.869805 0.916923 -2.43293)
(-0.432845 0.253066 -2.44802)
(0.290653 -0.193878 -2.03182)
(0.578917 1.01899 -2.23618)
(0.690908 0.549186 -2.39157)
(0.940288 0.0446201 -2.06314)
(1.19925 -0.522144 -1.77453)
(1.46879 0.860002 -1.8492)
(1.38683 0.247101 -1.88861)
(1.73381 -0.127885 -1.65688)
(1.92782 -0.669174 -1.6584)
(1.54682 -1.02697 -1.34964)
(-2.8114 0.0013306 -0.394382)
(-3.09511 0.401595 -2.62393)
(-3.23645 0.59658 -2.4054)
(-1.81526 0.934664 -2.41638)
(-1.1292 1.29901 -2.31247)
(-1.08428 1.18376 -1.75326)
(-0.810865 0.898414 -2.45805)
(-0.367405 0.5218 -2.35515)
(0.458253 -0.224411 -1.96089)
(0.612052 -0.235211 -1.97409)
(0.615114 1.00466 -2.21589)
(0.767312 0.488512 -2.35423)
(1.04717 -0.0992133 -2.02356)
(1.23011 -0.52563 -1.78638)
(1.11361 -1.02097 -1.23589)
(1.47811 0.867134 -1.83792)
(1.42965 0.220815 -1.87931)
(1.74673 -0.129886 -1.6566)
(1.94997 -0.710615 -1.63299)
(1.56308 -1.01973 -1.35033)
(1.0543 -1.37576 -1.27085)
(-2.34003 -1.29777 0.661155)
(-2.90645 -0.368404 -1.07256)
(-3.44346 -0.735233 0.071932)
(-3.21806 0.209239 -2.47977)
(-3.23146 0.420431 -2.40031)
(-1.69834 0.932266 -2.92718)
(-1.61068 0.575575 -2.58349)
(-0.926204 1.20699 -2.41717)
(-0.875523 1.29079 -1.81519)
(0.0894046 0.417959 -1.77839)
(-0.719258 0.876212 -2.51536)
(-0.275465 0.713242 -2.35815)
(0.624534 -0.209509 -1.90431)
(0.763305 -0.318144 -1.88784)
(0.440053 -0.352223 -1.87374)
(0.642791 1.0343 -2.17704)
(0.91952 0.398871 -2.29846)
(1.07258 -0.0797836 -2.03991)
(1.27349 -0.441085 -1.82389)
(1.00081 -0.853488 -1.42421)
(0.689447 -1.11073 -1.69236)
(1.51044 0.886077 -1.8333)
(1.48775 0.153234 -1.85929)
(1.7317 -0.0716327 -1.68755)
(1.96093 -0.702592 -1.64098)
(1.57988 -1.01052 -1.35053)
(1.06098 -1.36601 -1.28014)
(0.751651 -1.67853 -1.45967)
(-2.80624 -0.444159 2.26453)
(-2.771 0.0659409 0.96886)
(-2.62711 -1.49644 1.0307)
(-2.81337 -0.653666 -0.979052)
(-3.79579 -0.308191 0.105921)
(-3.96826 0.957768 0.157115)
(-3.35367 -0.017149 -2.31808)
(-3.43275 0.484058 -2.00497)
(-1.43366 0.585145 -2.45245)
(-0.175605 0.715039 -1.41851)
(-1.57324 0.49637 -2.6804)
(-0.757767 0.986671 -2.41507)
(-0.595983 1.05043 -1.94288)
(0.291858 0.202627 -1.67702)
(0.474924 0.0352956 -1.56277)
(-0.611253 0.815474 -2.50577)
(-0.209595 0.795078 -2.37497)
(0.763483 -0.18991 -1.86743)
(0.858104 -0.379542 -1.83433)
(0.605629 -0.59451 -1.642)
(0.453761 -1.18815 -1.55093)
(0.717445 0.98786 -2.14103)
(0.976525 0.337751 -2.25425)
(1.13468 -0.142046 -2.03058)
(1.33094 -0.492785 -1.81822)
(1.13758 -0.96678 -1.26775)
(0.707083 -1.21122 -1.60895)
(0.651668 -1.63469 -1.68794)
(1.54292 0.863426 -1.82217)
(1.48738 0.197589 -1.86328)
(1.73219 -0.0239479 -1.70777)
(1.98377 -0.692904 -1.63672)
(1.57812 -0.975109 -1.39691)
(1.09965 -1.37971 -1.22994)
(0.754256 -1.68204 -1.42888)
(0.508754 -2.1031 -1.28488)
(-2.76863 0.0594497 3.32671)
(-2.77422 -0.813731 2.34212)
(-3.02848 -0.583763 1.71538)
(-2.56894 -1.44954 0.646253)
(-2.68945 -1.17122 0.937399)
(-3.41295 -0.454865 1.35346)
(-2.95957 -0.428809 -1.62887)
(-3.93843 -0.376459 -0.636563)
(-4.19988 0.579437 -0.198038)
(-2.85523 1.28117 -1.06797)
(-3.32495 -0.155016 -2.2827)
(-3.33885 0.20374 -2.08382)
(-1.29815 0.44075 -1.88372)
(0.205288 0.291029 -1.37991)
(0.0693811 0.0955699 -1.52205)
(-1.62294 0.380608 -2.51728)
(-0.491928 0.714405 -2.45728)
(-0.292256 0.799134 -2.00082)
(0.446454 -0.0215775 -1.6483)
(0.561089 -0.196587 -1.50661)
(0.579879 -1.18499 -0.984358)
(-0.544827 0.769684 -2.45525)
(0.036152 0.662308 -2.3417)
(0.895379 -0.195013 -1.80811)
(0.9032 -0.383471 -1.82528)
(0.719629 -0.738904 -1.49625)
(0.4714 -1.25712 -1.58392)
(0.281502 -1.61288 -1.64571)
(0.803924 0.9411 -2.06325)
(1.16148 0.2009 -2.15557)
(1.19753 -0.199731 -2.00622)
(1.4017 -0.502212 -1.81319)
(1.12486 -0.916227 -1.36318)
(0.749136 -1.23458 -1.56879)
(0.645004 -1.62579 -1.64999)
(0.278113 -2.13355 -1.42507)
(1.56902 0.842277 -1.81209)
(1.50875 0.166793 -1.84432)
(1.80161 -0.116337 -1.65443)
(2.02405 -0.75114 -1.58286)
(1.62029 -1.00519 -1.33832)
(1.07613 -1.36706 -1.23984)
(0.753198 -1.69394 -1.39741)
(0.514947 -2.10143 -1.26476)
(0.134624 -2.51101 -0.598655)
(-3.1515 -0.143895 3.43128)
(-2.91022 -0.76948 3.31425)
(-2.89825 -0.252925 2.71761)
(-2.93736 -1.17862 2.16333)
(-2.96818 -0.923862 1.50767)
(-3.09759 -0.0828138 1.16677)
(-2.46773 -1.46102 0.707047)
(-3.10364 -0.764539 0.794663)
(-3.67185 -0.221886 0.52329)
(-4.04872 -0.222156 1.23698)
(-3.21486 -1.19372 -1.10256)
(-3.91122 -0.45506 -0.755241)
(-4.3019 0.262634 -0.22145)
(-2.86152 0.636755 -1.50419)
(-0.903366 -1.04477 -0.156847)
(-3.40326 -0.295342 -1.83881)
(-3.09368 0.00144408 -2.05253)
(-1.05248 -0.149388 -0.869244)
(0.652758 -0.298868 -1.35081)
(0.249586 -0.44234 -1.25573)
(0.411493 -1.45651 -0.296441)
(-1.45433 0.243717 -2.41406)
(-0.246418 0.513703 -2.39027)
(-0.0662041 0.512177 -1.92323)
(0.572875 -0.26222 -1.70263)
(0.65343 -0.430059 -1.5636)
(0.539794 -1.214 -1.35727)
(-0.0958107 -1.44317 -1.34297)
(-0.462154 0.735701 -2.44547)
(0.238576 0.511219 -2.25808)
(1.10235 -0.229207 -1.70983)
(1.07444 -0.555832 -1.69423)
(0.794925 -0.831948 -1.3896)
(0.472405 -1.30162 -1.59623)
(0.382823 -1.58955 -1.73257)
(0.0227363 -2.14937 -1.32288)
(0.90133 0.862695 -1.97276)
(1.22431 0.15934 -2.08016)
(1.25621 -0.251351 -1.98629)
(1.47228 -0.553366 -1.80047)
(1.21485 -1.00074 -1.28222)
(0.76748 -1.31997 -1.46342)
(0.66928 -1.64914 -1.54543)
(0.30355 -2.15839 -1.32493)
(-0.340684 -2.62964 -0.408473)
(1.62643 0.817561 -1.79323)
(1.52193 0.157273 -1.83456)
(1.7993 -0.0774527 -1.66807)
(2.04347 -0.715104 -1.59285)
(1.5795 -0.950536 -1.42432)
(1.07958 -1.36242 -1.23142)
(0.755427 -1.71198 -1.36106)
(0.537152 -2.09892 -1.23883)
(0.155336 -2.49903 -0.573736)
(-0.252726 -2.12232 -0.745563)
(-3.03927 -0.283867 3.22191)
(-3.08036 -0.60416 3.4606)
(-2.98637 -0.0886655 3.47862)
(-3.01549 -0.7441 3.19635)
(-3.01778 -0.525454 2.42925)
(-2.99396 -0.590711 2.04048)
(-2.97915 -1.24349 2.255)
(-2.99007 -1.06066 1.3519)
(-3.1909 -0.527423 0.982485)
(-3.60978 -0.533566 1.74383)
(-2.84323 -1.316 0.272112)
(-3.31968 -1.10095 0.660957)
(-3.72381 -0.380721 0.400464)
(-3.91781 -0.256484 1.25013)
(-3.02837 -0.175347 1.10611)
(-3.07523 -1.27314 -0.977522)
(-3.83766 -0.765988 -0.718974)
(-4.10901 -0.375768 -0.444906)
(-2.41741 -0.304073 -1.21035)
(-0.823596 -1.58831 -0.0286997)
(-0.404313 -1.90142 -1.88043)
(-3.33577 -0.573832 -1.65231)
(-2.85683 -0.171747 -1.67757)
(-0.601967 -0.746162 -0.639886)
(1.00881 -0.873164 -1.35663)
(0.464808 -1.32349 -1.08042)
(0.361985 -1.75423 -0.520999)
(-0.194632 -2.00809 -0.462305)
(-1.19521 -0.0535647 -2.49238)
(0.0222556 0.303148 -2.22318)
(0.151814 0.227186 -1.84143)
(0.686241 -0.456762 -1.73038)
(0.711157 -0.759911 -1.43177)
(0.516998 -1.20323 -1.60728)
(0.0273099 -1.50615 -1.64514)
(-0.299164 -2.19836 -1.03292)
(-0.360103 0.66279 -2.43955)
(0.466766 0.367326 -2.13429)
(1.18711 -0.268702 -1.70899)
(1.12713 -0.640345 -1.67608)
(0.919108 -0.974438 -1.27861)
(0.526422 -1.45142 -1.36767)
(0.399603 -1.6699 -1.54013)
(0.0680767 -2.18166 -1.11026)
(-0.528723 -2.50049 -0.347328)
(1.08002 0.774884 -1.85076)
(1.29516 0.123317 -2.01761)
(1.34701 -0.326387 -1.94226)
(1.52246 -0.563386 -1.81524)
(1.25266 -1.01498 -1.3001)
(0.765612 -1.38219 -1.38996)
(0.67701 -1.64735 -1.48608)
(0.361924 -2.17529 -1.24274)
(-0.264924 -2.62114 -0.456573)
(-0.897578 -2.58808 -0.416301)
(1.60876 0.844795 -1.80751)
(1.57365 0.129387 -1.80386)
(1.8245 -0.0996258 -1.64653)
(2.04271 -0.740307 -1.59911)
(1.62441 -1.0007 -1.3425)
(1.09739 -1.37476 -1.18926)
(0.775008 -1.73895 -1.31349)
(0.550993 -2.08137 -1.2327)
(0.139648 -2.48756 -0.55708)
(-0.26671 -2.11919 -0.732352)
(0.51235 -1.86251 -1.34627)
(-3.03105 -0.218704 2.99611)
(-2.93672 -0.792834 3.20858)
(-3.00956 -0.215596 3.29249)
(-3.15457 -0.732311 3.22397)
(-2.96839 -0.462055 3.27355)
(-3.06926 -0.417802 3.15145)
(-2.95295 -0.809243 3.01824)
(-3.14301 -0.551299 2.28255)
(-3.08258 -0.855213 1.96049)
(-3.03314 -1.13816 2.28468)
(-3.07584 -1.53158 1.94981)
(-3.07187 -1.30397 1.24919)
(-3.08593 -0.994405 1.27509)
(-3.60585 -0.581364 1.58115)
(-3.1338 -1.16842 2.01202)
(-2.68658 -1.95123 0.61517)
(-3.17488 -1.7066 0.306631)
(-3.90428 -0.876598 0.504726)
(-3.9775 -0.131698 0.526598)
(-2.92811 -0.711112 1.35236)
(-1.92677 -2.06015 1.00083)
(-3.2745 -1.12436 -1.0236)
(-3.79503 -1.03974 -0.64169)
(-3.6524 -0.84049 -0.479353)
(-2.03102 -1.04511 0.317591)
(-0.646551 -1.84991 -0.402076)
(-0.56186 -2.21687 -1.90056)
(-0.760523 -2.52515 -0.780219)
(-3.25463 -0.759963 -1.5713)
(-2.59515 -0.40176 -1.36781)
(-0.304357 -0.968505 -0.73694)
(0.909202 -1.06439 -1.56586)
(0.627882 -1.48135 -1.52516)
(0.477101 -2.17026 -0.17716)
(-0.851822 -1.65899 -1.34871)
(-1.28912 -2.33163 -0.0446052)
(-0.975474 -0.185586 -2.63106)
(0.304288 0.107977 -1.95613)
(0.415449 -0.0617962 -1.85963)
(0.848425 -0.715967 -1.64535)
(0.773621 -0.927101 -1.39023)
(0.533183 -1.46853 -1.27214)
(0.186798 -1.71929 -1.51067)
(-0.252157 -2.27105 -0.783738)
(-0.696745 -2.32134 -0.752285)
(-0.222237 0.556602 -2.39627)
(0.685348 0.25053 -1.98522)
(1.3113 -0.363035 -1.64021)
(1.20455 -0.718867 -1.63145)
(0.996487 -1.08231 -1.25446)
(0.562561 -1.51364 -1.32091)
(0.471666 -1.70618 -1.34048)
(0.192764 -2.20357 -0.998599)
(-0.411821 -2.45262 -0.547577)
(-1.15807 -2.50856 -0.449682)
(1.24931 0.666291 -1.75194)
(1.37857 0.154644 -1.95771)
(1.47343 -0.466129 -1.86063)
(1.57432 -0.57581 -1.82825)
(1.26228 -1.03937 -1.3213)
(0.818299 -1.4113 -1.3264)
(0.708234 -1.66689 -1.42229)
(0.389146 -2.16714 -1.22497)
(-0.267704 -2.62739 -0.478934)
(-0.931607 -2.56604 -0.251522)
(-0.67423 -2.44017 0.563412)
(1.61216 0.85686 -1.78737)
(1.59571 0.142167 -1.79766)
(1.81431 -0.126508 -1.6541)
(2.09858 -0.742422 -1.52785)
(1.60949 -0.965744 -1.39661)
(1.08444 -1.38017 -1.16983)
(0.783779 -1.72922 -1.31494)
(0.541647 -2.08156 -1.19847)
(0.172567 -2.45678 -0.571698)
(-0.253104 -2.11433 -0.738385)
(0.511765 -1.8917 -1.19835)
(0.599355 -1.50693 -0.981398)
(-2.72815 -0.578704 2.96387)
(-2.91915 -0.677404 2.94054)
(-2.9334 -0.679131 3.06383)
(-2.82578 -0.531884 3.34444)
(-3.02088 -0.525667 3.11971)
(-2.99529 -0.578137 3.26097)
(-2.98517 -0.515714 3.494)
(-3.02975 -0.799929 3.02905)
(-3.04283 -0.813248 3.03731)
(-3.03642 -0.461973 3.13314)
(-2.80831 -0.831471 3.15134)
(-3.05401 -1.10851 2.48684)
(-3.25272 -0.719117 2.06855)
(-3.0252 -1.24507 2.01766)
(-3.0799 -1.18456 2.09473)
(-3.12335 -1.27035 2.59509)
(-3.24985 -1.53284 1.67163)
(-3.06231 -1.38404 1.1799)
(-3.12921 -1.57335 1.34616)
(-3.57978 -0.662132 1.54449)
(-3.10011 -2.02976 1.98924)
(-2.77665 -1.78057 1.98516)
(-2.72635 -2.19464 0.528474)
(-3.163 -1.74478 0.177873)
(-3.73676 -1.82576 0.875952)
(-3.67585 -0.686011 0.375005)
(-2.72467 -1.26364 1.31586)
(-1.6572 -2.3623 1.25806)
(-1.6066 -2.57991 0.652696)
(-3.22243 -1.92658 -0.696828)
(-3.64432 -1.39259 -0.588734)
(-3.44349 -0.503485 0.0838443)
(-1.42398 -1.49188 0.432411)
(-0.587155 -2.09358 -0.45416)
(-0.594282 -2.5261 -1.52032)
(-0.632619 -2.87443 -0.737856)
(-1.53612 -2.49216 -1.06061)
(-2.93674 -1.42566 -1.29702)
(-2.21274 -0.88475 -1.60678)
(0.131277 -1.25575 -0.939792)
(1.0294 -1.40656 -1.41987)
(0.625934 -1.81185 -1.44737)
(0.36524 -2.14861 -0.849549)
(-0.387735 -2.31144 -0.387787)
(-1.03845 -2.49781 -0.031995)
(-1.34682 -2.19639 -0.349785)
(-0.820546 -0.431577 -2.42538)
(0.584934 -0.0469994 -1.65897)
(0.693457 -0.33909 -1.86646)
(0.909272 -0.8592 -1.65831)
(0.862935 -1.08311 -1.37814)
(0.584811 -1.61326 -1.21556)
(0.13712 -1.7854 -1.33059)
(-0.0802564 -2.27017 -0.802369)
(-0.639889 -2.33549 -0.65949)
(-1.32404 -2.14364 -0.278178)
(0.0513445 0.412758 -2.28614)
(0.975459 0.0725719 -1.79159)
(1.43287 -0.497152 -1.53206)
(1.27333 -0.776184 -1.5575)
(1.11099 -1.14312 -1.24299)
(0.58025 -1.64524 -1.11755)
(0.530093 -1.72372 -1.30309)
(0.208117 -2.18467 -1.0455)
(-0.351071 -2.4538 -0.674873)
(-1.10694 -2.5009 -0.43287)
(-1.37548 -2.35934 -0.290644)
(1.28844 0.644195 -1.72035)
(1.30803 0.158098 -1.98198)
(1.59159 -0.572013 -1.79385)
(1.62056 -0.583143 -1.85393)
(1.31663 -1.03391 -1.32371)
(0.823124 -1.45623 -1.23078)
(0.737239 -1.72267 -1.31874)
(0.423569 -2.15593 -1.18151)
(-0.232083 -2.60747 -0.524558)
(-0.828181 -2.55532 -0.455373)
(-0.686451 -2.4025 0.677495)
(-0.303055 -1.85839 -0.3571)
(1.6449 0.845582 -1.76525)
(1.59368 0.13252 -1.79988)
(1.84973 -0.104228 -1.64207)
(2.08406 -0.744517 -1.5519)
(1.63442 -0.983037 -1.36942)
(1.09219 -1.37627 -1.15208)
(0.797257 -1.75483 -1.26157)
(0.54134 -2.01764 -1.25926)
(0.133519 -2.44317 -0.603627)
(-0.243026 -2.11601 -0.743392)
(0.51818 -1.90802 -1.08251)
(0.594292 -1.50912 -0.980021)
(0.152149 -1.46166 -1.38619)
(-2.32745 -0.713493 3.06361)
(-2.68684 -0.652671 2.92906)
(-2.67873 -0.654968 3.06206)
(-2.97066 -0.763317 2.91934)
(-2.77812 -0.737845 3.19614)
(-2.87959 -0.691889 3.04796)
(-2.90887 -0.973255 3.23587)
(-3.05069 -0.770551 3.35305)
(-3.03416 -0.581542 3.08388)
(-3.04394 -0.567117 3.22434)
(-2.92664 -0.942071 3.43245)
(-3.01645 -0.865324 3.51223)
(-2.82669 -1.24355 2.92296)
(-3.03869 -1.02916 2.91716)
(-3.07689 -1.06282 2.9496)
(-2.78883 -0.929469 3.16173)
(-2.86879 -1.36134 3.30123)
(-3.19042 -1.25049 2.1875)
(-3.27185 -1.17973 1.75555)
(-2.95513 -1.52181 1.93178)
(-3.04901 -1.24695 1.87563)
(-3.04569 -1.57008 2.57821)
(-2.75805 -1.88073 2.76904)
(-3.20405 -1.67103 1.31079)
(-2.95015 -1.56302 1.03226)
(-3.25068 -1.62092 1.14767)
(-3.7044 -1.13773 1.31151)
(-2.96026 -2.17413 2.11068)
(-2.65848 -1.94808 1.92404)
(-2.10124 -2.14971 2.34848)
(-2.7824 -2.39796 0.311822)
(-3.29571 -1.79745 0.0505223)
(-3.50173 -2.14107 0.980501)
(-2.76832 -1.95913 0.818877)
(-1.90905 -2.3731 0.982171)
(-1.58904 -2.50865 1.33147)
(-1.5312 -2.47191 1.1286)
(-1.80844 -2.47708 1.16379)
(-3.0066 -2.37182 -0.468763)
(-3.40793 -1.66688 -0.66371)
(-3.38594 -0.800212 0.118776)
(-1.26456 -1.81085 0.218893)
(-0.555769 -2.38779 -0.51238)
(-0.480173 -2.59233 -1.13989)
(-0.782717 -2.80895 -0.684525)
(-1.18355 -2.70577 -0.548212)
(-1.8545 -2.44414 0.0585989)
(-2.87219 -1.45903 -0.899802)
(-1.74278 -1.47319 -1.19679)
(0.445725 -1.7183 -1.16624)
(1.13766 -1.64956 -1.65288)
(0.6391 -1.93749 -1.60287)
(0.500921 -2.19748 -1.11689)
(-0.804472 -2.07052 -1.04018)
(-1.01173 -2.50757 -0.076837)
(-1.28098 -2.20091 -0.121753)
(-1.36945 -2.15263 -0.0486198)
(-0.668238 -0.424707 -1.98028)
(0.907508 -0.305878 -1.33923)
(0.891455 -0.634657 -1.7706)
(1.0081 -0.978466 -1.58608)
(0.982665 -1.26087 -1.29358)
(0.619756 -1.6901 -1.08333)
(0.256245 -1.81417 -1.27541)
(-0.0248557 -2.28661 -0.809737)
(-0.496468 -2.38667 -0.66608)
(-1.19076 -2.18296 -0.211807)
(-1.66443 -2.22546 0.122282)
(0.329191 0.215896 -2.10929)
(1.22882 -0.154916 -1.59249)
(1.52405 -0.468351 -1.51386)
(1.3625 -0.850292 -1.41942)
(1.1558 -1.20121 -1.21065)
(0.61794 -1.70311 -1.01132)
(0.566577 -1.80845 -1.15749)
(0.231304 -2.18256 -0.989766)
(-0.307085 -2.45792 -0.703241)
(-1.05047 -2.47625 -0.442828)
(-1.41447 -2.28772 -0.170315)
(-1.72623 -2.21642 0.242079)
(1.31046 0.660611 -1.73007)
(1.54092 -0.0340033 -1.78076)
(1.64642 -0.626398 -1.77097)
(1.6648 -0.624491 -1.85874)
(1.35434 -1.05361 -1.31381)
(0.863074 -1.45991 -1.1913)
(0.755741 -1.73744 -1.26261)
(0.415033 -2.08183 -1.25745)
(-0.197385 -2.58321 -0.551535)
(-0.856816 -2.54485 -0.48783)
(-0.689972 -2.40001 0.625541)
(-0.310757 -1.85112 -0.329624)
(-0.519589 -2.2053 0.594168)
(1.71135 0.804474 -1.74475)
(1.60441 0.141332 -1.79437)
(1.86892 -0.102761 -1.60216)
(2.11612 -0.736923 -1.52296)
(1.63878 -0.978955 -1.38425)
(1.0855 -1.38707 -1.12476)
(0.78969 -1.72808 -1.28754)
(0.582549 -2.03187 -1.19148)
(0.136222 -2.45325 -0.570867)
(-0.301967 -2.13212 -0.749899)
(0.52338 -1.91881 -0.96616)
(0.580768 -1.51206 -0.954332)
(0.152878 -1.48411 -1.3138)
(-0.207965 -1.71486 -0.974566)
(-2.201 -0.397134 2.7301)
(-2.31813 -0.58269 2.79736)
(-2.25923 -0.761091 3.06383)
(-2.43339 -0.578799 3.02712)
(-2.68883 -0.752393 2.87747)
(-2.56426 -0.813801 3.09539)
(-2.58982 -0.583458 3.2393)
(-2.81937 -0.806357 2.97535)
(-2.70124 -0.839355 3.20561)
(-2.82986 -0.649664 3.20903)
(-2.89623 -0.846319 3.03495)
(-2.91674 -0.97721 3.17375)
(-3.00315 -1.0037 3.28099)
(-3.00771 -0.65347 3.33744)
(-2.80708 -1.00569 3.15502)
(-2.8604 -0.970251 3.25868)
(-2.89005 -1.17191 3.40837)
(-2.7574 -1.29003 3.52231)
(-3.05352 -0.950145 3.46597)
(-2.91817 -1.22315 2.88034)
(-3.05654 -1.13556 2.85507)
(-2.96336 -1.20678 2.91196)
(-2.75378 -1.20689 3.04922)
(-2.75015 -1.51782 3.27158)
(-2.60561 -1.83041 3.32068)
(-3.21661 -1.47192 1.93195)
(-3.24921 -1.36056 1.67894)
(-2.79386 -1.78652 1.78517)
(-3.38266 -1.20566 1.36628)
(-2.73063 -1.98767 2.37167)
(-2.86119 -1.95427 2.44128)
(-2.35025 -2.21848 2.59811)
(-3.19582 -1.82069 0.928454)
(-2.92973 -1.86812 0.78815)
(-3.48838 -1.42213 0.71308)
(-3.66264 -1.27116 1.15102)
(-3.34604 -1.81455 1.55828)
(-2.06169 -2.52563 1.934)
(-1.8182 -2.50717 2.14575)
(-2.06395 -2.24163 2.05153)
(-2.84319 -2.33782 0.202432)
(-2.83028 -2.55823 0.261159)
(-3.29366 -2.42627 1.01083)
(-2.41105 -2.33857 0.989291)
(-1.35673 -2.7146 1.06036)
(-1.26018 -2.6829 1.3506)
(-1.22245 -2.59718 1.42893)
(-1.74312 -2.59454 1.00867)
(-1.81927 -2.4815 0.84342)
(-2.75021 -2.51912 -0.422954)
(-3.106 -2.15443 -0.176034)
(-2.22896 -1.9892 0.385359)
(-1.24951 -2.25641 -0.235537)
(-0.876267 -2.33983 -1.50727)
(-0.472903 -2.69679 -0.823933)
(-0.377585 -2.91541 -0.00464863)
(-1.16451 -2.75262 -0.43916)
(-1.76154 -2.54799 0.151572)
(-2.07436 -2.03727 0.673662)
(-2.9201 -1.35912 -0.891152)
(-1.20975 -2.04752 -0.440171)
(0.784483 -1.76992 -1.71355)
(1.23013 -1.82664 -1.62025)
(0.809532 -2.18494 -1.34529)
(0.53092 -2.25492 -1.10712)
(-0.613628 -2.34851 -0.71934)
(-0.870474 -2.55283 -0.145702)
(-1.23268 -2.24241 0.100113)
(-1.27332 -2.14505 0.0402165)
(-1.63624 -1.94961 0.510107)
(-0.116417 -0.693029 -1.62426)
(1.50375 -0.843307 -0.800458)
(1.03189 -0.728748 -1.68104)
(1.13077 -1.13926 -1.34451)
(1.09008 -1.47313 -0.999114)
(0.648309 -1.7621 -0.926253)
(0.355491 -2.00078 -0.92306)
(0.040428 -2.27891 -0.727705)
(-0.346078 -2.44361 -0.65639)
(-1.05824 -2.17008 -0.1016)
(-1.60711 -2.26048 0.187316)
(-1.82491 -1.97707 0.39416)
(0.60862 0.0996077 -1.98568)
(1.34452 -0.225143 -1.5381)
(1.65118 -0.607876 -1.4356)
(1.43521 -0.920607 -1.30485)
(1.22615 -1.29803 -1.08256)
(0.626028 -1.72775 -0.892757)
(0.630594 -1.82366 -1.10277)
(0.30328 -2.19276 -0.906162)
(-0.225809 -2.44861 -0.587023)
(-0.986498 -2.49408 -0.369152)
(-1.19799 -2.41037 -0.378762)
(-1.65382 -2.2031 0.220434)
(-1.46382 -1.86122 0.403376)
(1.51204 0.577545 -1.61881)
(1.60655 -0.100413 -1.66621)
(1.67828 -0.6613 -1.72935)
(1.6898 -0.617401 -1.8799)
(1.40839 -1.06111 -1.29984)
(0.87194 -1.49584 -1.09261)
(0.778749 -1.76093 -1.16929)
(0.48045 -2.12111 -1.10941)
(-0.161283 -2.57512 -0.521571)
(-0.780726 -2.55223 -0.459612)
(-0.647276 -2.38048 0.736765)
(-0.305787 -1.83355 -0.336855)
(-0.534468 -2.18972 0.565946)
(-0.385905 -1.77862 -0.638776)
(1.75568 0.807352 -1.72012)
(1.65164 0.105042 -1.74913)
(1.83651 -0.134791 -1.57929)
(2.11026 -0.722045 -1.53975)
(1.6345 -0.973011 -1.41767)
(1.11406 -1.359 -1.11126)
(0.793166 -1.7273 -1.26378)
(0.557499 -2.05651 -1.16003)
(0.168007 -2.39004 -0.570844)
(-0.310105 -2.12718 -0.750651)
(0.530854 -1.9236 -0.861948)
(0.576888 -1.50602 -0.92346)
(0.150758 -1.49909 -1.26684)
(-0.205772 -1.70905 -0.971359)
(-0.575401 -0.994357 -1.39472)
(-1.96934 -0.632954 2.66304)
(-2.24748 -0.50275 2.70596)
(-2.17267 -0.27672 2.77509)
(-2.29731 -0.575353 2.80699)
(-2.33735 -0.539783 2.73515)
(-2.18541 -0.881748 3.06218)
(-2.34826 -0.702042 3.07736)
(-2.4396 -0.48801 3.09497)
(-2.83868 -0.848094 2.77936)
(-2.45597 -0.990753 3.13888)
(-2.54101 -0.744134 3.21042)
(-2.67927 -0.468321 3.19001)
(-2.65117 -1.15576 2.9778)
(-2.71139 -0.984072 3.16078)
(-2.79435 -1.01083 3.14441)
(-2.73772 -0.716037 3.20395)
(-2.85649 -1.36846 2.97809)
(-2.87325 -1.2373 3.23292)
(-2.91487 -1.23649 3.34131)
(-2.91366 -0.990618 3.28398)
(-2.88577 -0.947539 3.03498)
(-2.64014 -1.34154 3.16553)
(-2.68405 -1.32062 3.30652)
(-2.88817 -1.39914 3.39657)
(-2.66572 -1.59458 3.50488)
(-2.72287 -1.39522 3.5197)
(-2.83309 -1.14211 3.38848)
(-3.11578 -1.39568 2.73749)
(-3.33496 -1.26432 2.61371)
(-2.91011 -1.43089 2.88133)
(-2.82422 -1.39729 2.90626)
(-2.61215 -1.82734 3.13015)
(-2.74715 -1.66159 3.12456)
(-2.37725 -2.01731 3.05153)
(-2.97081 -1.78011 1.91093)
(-2.81474 -1.9791 1.78468)
(-2.80681 -1.91144 1.54815)
(-2.86311 -1.80644 1.85071)
(-2.60931 -2.19688 2.30758)
(-2.40904 -2.25269 2.52503)
(-2.35823 -2.27972 2.52121)
(-2.49766 -2.03434 2.25027)
(-3.42766 -1.7999 0.60488)
(-2.85873 -2.20183 0.679211)
(-2.99345 -1.93257 0.788478)
(-2.81529 -2.39112 1.12718)
(-2.39771 -2.49295 1.74981)
(-2.18544 -2.5374 1.75903)
(-1.7942 -2.6425 2.03401)
(-2.10936 -2.27168 1.77157)
(-2.23145 -2.05652 1.67792)
(-2.57883 -2.46263 0.272767)
(-2.7604 -2.6065 0.32856)
(-3.14104 -2.71745 1.1035)
(-2.24437 -2.67528 0.825168)
(-1.17571 -3.08693 0.749759)
(-0.959769 -2.88247 1.36129)
(-1.11561 -2.81386 1.19578)
(-1.56809 -2.61315 1.21369)
(-1.64566 -2.54339 1.11739)
(-2.15716 -2.03795 1.07363)
(-2.68305 -2.62098 -0.369832)
(-2.24223 -2.76128 0.150909)
(-1.80612 -2.36644 0.488493)
(-0.857949 -2.5717 -0.893932)
(-0.371449 -2.99327 -0.540277)
(-0.273888 -2.88383 -0.290922)
(-0.518977 -2.89063 -0.0679333)
(-1.10839 -2.72195 -0.283545)
(-1.58403 -2.61332 0.262691)
(-1.9928 -2.03229 0.686905)
(-1.84939 -1.87801 0.740522)
(-1.98599 -2.07943 -0.197233)
(-1.08336 -2.29277 -0.369834)
(0.767578 -2.09725 -1.51537)
(1.24197 -2.06286 -1.23035)
(0.71658 -2.19839 -1.45784)
(0.576467 -2.27717 -0.979223)
(-0.416294 -2.50445 -0.53521)
(-0.730498 -2.6022 -0.0594055)
(-1.23982 -2.23034 0.388573)
(-1.10398 -2.1042 0.0330566)
(-1.51871 -2.00819 0.577116)
(-1.72494 -1.82229 0.741593)
(0.0193395 -0.721696 -1.65368)
(1.84108 -0.999783 -0.770058)
(1.13514 -0.874921 -1.583)
(1.26099 -1.28725 -1.15652)
(1.21711 -1.51004 -0.806237)
(0.685917 -1.76859 -0.825016)
(0.377381 -2.04582 -0.827661)
(0.131773 -2.2482 -0.682853)
(-0.285588 -2.43826 -0.459796)
(-0.970392 -2.15656 -0.0129861)
(-1.48717 -2.28354 0.21318)
(-1.64332 -2.0847 0.339833)
(-1.73828 -1.75148 0.284276)
(0.844898 -0.0767471 -1.89405)
(1.47056 -0.337051 -1.36491)
(1.75055 -0.672346 -1.40909)
(1.54768 -1.03651 -1.17185)
(1.29517 -1.31757 -1.04575)
(0.668906 -1.74424 -0.763892)
(0.629084 -1.9062 -0.833986)
(0.343852 -2.1995 -0.80449)
(-0.176718 -2.4213 -0.484555)
(-0.94187 -2.46974 -0.403973)
(-1.48643 -2.15556 0.0563314)
(-1.66163 -2.16395 0.179104)
(-1.58841 -1.68956 0.245261)
(-1.10439 -1.57904 -0.184863)
(1.7121 0.440724 -1.44256)
(1.60704 -0.150777 -1.57149)
(1.7497 -0.736397 -1.59091)
(1.74769 -0.644432 -1.81955)
(1.47464 -1.09425 -1.25222)
(0.876025 -1.51245 -1.01518)
(0.802737 -1.80845 -1.0407)
(0.46075 -2.06884 -1.13082)
(-0.140097 -2.56671 -0.429757)
(-0.761834 -2.5197 -0.450835)
(-0.639118 -2.3505 0.733017)
(-0.30456 -1.8222 -0.304902)
(-0.532621 -2.20123 0.496324)
(-0.443961 -1.76071 -0.659457)
(-0.686669 -1.34642 -0.946287)
(1.78469 0.791274 -1.71705)
(1.62833 0.111846 -1.7491)
(1.84512 -0.121211 -1.57531)
(2.15923 -0.706094 -1.4552)
(1.66638 -0.978423 -1.41126)
(1.09795 -1.38354 -1.08483)
(0.791864 -1.75437 -1.21647)
(0.581692 -2.02905 -1.15394)
(0.164509 -2.36978 -0.557786)
(-0.275415 -2.10909 -0.756173)
(0.549572 -1.92321 -0.817239)
(0.586063 -1.48816 -0.910949)
(0.14219 -1.50706 -1.23066)
(-0.228658 -1.71464 -0.964123)
(-0.549042 -0.986615 -1.40276)
(-0.69905 -1.04212 -0.958315)
(-1.91734 -0.300323 2.52441)
(-1.89538 -0.608215 2.73848)
(-1.88016 -0.402612 2.71642)
(-2.24291 -0.62585 2.69546)
(-2.18257 -0.389368 2.73158)
(-2.08187 -0.198353 2.79556)
(-2.2499 -0.792265 2.82548)
(-2.29079 -0.595049 2.74841)
(-2.37331 -0.386025 2.7019)
(-2.15357 -0.920596 3.06209)
(-2.27446 -0.795504 3.10194)
(-2.35118 -0.635659 3.12099)
(-2.54474 -0.301607 2.98934)
(-2.72939 -0.904804 2.8704)
(-2.31253 -1.08616 3.26156)
(-2.4906 -0.848812 3.236)
(-2.63124 -0.577417 3.16457)
(-2.57066 -0.310049 3.03873)
(-2.46229 -1.3572 2.9907)
(-2.65692 -1.11223 3.17683)
(-2.77445 -1.14536 3.1416)
(-2.72888 -0.988662 3.15575)
(-2.76699 -0.824683 3.02327)
(-2.78799 -1.49077 2.97406)
(-2.77854 -1.3527 3.30913)
(-2.82361 -1.42161 3.36644)
(-2.82152 -1.24561 3.36477)
(-2.80416 -1.14347 3.115)
(-2.65693 -1.03737 3.04372)
(-2.48258 -1.68729 3.20921)
(-2.62343 -1.58632 3.34217)
(-2.56752 -1.95056 3.39212)
(-2.73716 -1.63709 3.43407)
(-2.84008 -1.7365 3.24073)
(-2.63237 -1.6055 3.23403)
(-2.66387 -1.38912 2.89747)
(-2.99642 -1.59998 2.90276)
(-3.22596 -1.51491 2.81259)
(-2.75226 -1.67155 3.04034)
(-2.78385 -1.51576 3.11129)
(-2.60994 -1.93603 3.0735)
(-2.36707 -2.14014 3.03359)
(-2.44779 -2.07252 2.79001)
(-2.58661 -1.64914 2.51946)
(-2.85016 -2.04535 1.93429)
(-2.61083 -2.10344 2.06019)
(-2.56784 -2.10879 1.869)
(-3.14159 -2.05288 1.86083)
(-2.31687 -2.43111 2.45123)
(-2.38692 -2.3631 2.35865)
(-2.28124 -2.3209 2.437)
(-2.52816 -2.04221 2.00291)
(-2.40825 -1.86321 1.76806)
(-2.84898 -2.53699 0.816702)
(-2.63488 -2.51809 0.640361)
(-2.88583 -2.19668 0.559132)
(-1.95198 -2.85015 1.58967)
(-2.07017 -2.76645 1.82653)
(-1.67234 -2.81744 1.71515)
(-1.67308 -2.74465 1.79611)
(-1.80614 -2.48021 1.75426)
(-1.98854 -2.17842 1.66898)
(-2.13886 -1.92225 1.73517)
(-2.40144 -2.72414 0.372314)
(-2.38919 -2.92656 0.155487)
(-3.00075 -2.67959 0.995587)
(-2.26973 -2.70006 0.709587)
(-0.721459 -3.1313 1.3365)
(-0.538673 -3.1604 1.28004)
(-0.795972 -2.97303 1.42778)
(-1.55808 -2.5475 1.21112)
(-1.59863 -2.56716 1.19913)
(-2.18722 -1.84127 1.02463)
(-2.23059 -1.45942 1.10351)
(-2.36542 -3.05936 -0.434174)
(-1.66792 -3.1084 0.339137)
(-1.21679 -2.69937 0.614309)
(-0.433457 -2.88843 -0.962965)
(-0.303221 -3.11641 -0.488953)
(-0.309453 -2.90945 -0.014974)
(-0.625072 -2.75994 -0.242276)
(-1.06728 -2.73621 -0.188294)
(-1.64477 -2.47598 -0.0699034)
(-1.83322 -2.09231 0.357715)
(-1.84035 -1.81927 0.576608)
(-1.78978 -1.56156 1.29985)
(-1.32787 -2.50091 0.0677851)
(-0.824713 -2.66258 -0.373214)
(0.82609 -2.17265 -1.52534)
(1.3432 -2.14717 -1.03053)
(0.825036 -2.16013 -1.43724)
(0.661817 -2.38104 -0.807234)
(-0.424219 -2.54455 -0.654382)
(-0.607345 -2.62215 0.0106904)
(-0.90979 -2.39534 0.201085)
(-0.994026 -2.12889 0.0836743)
(-1.31906 -2.09324 0.508564)
(-1.69461 -1.8051 0.757078)
(-1.84519 -1.54283 0.45056)
(0.535941 -0.886916 -1.45324)
(2.02525 -1.08065 -0.458882)
(1.32697 -1.0279 -1.39185)
(1.42662 -1.39504 -0.943188)
(1.31281 -1.57711 -0.602788)
(0.709995 -1.78215 -0.663391)
(0.425713 -2.02444 -0.695444)
(0.20925 -2.23004 -0.604012)
(-0.209896 -2.4007 -0.350061)
(-0.858573 -2.12518 -0.208237)
(-1.38803 -2.30256 0.186671)
(-1.63609 -2.11638 0.355964)
(-1.72151 -1.72207 0.188192)
(-1.81325 -1.43773 0.285647)
(1.22366 -0.0584074 -1.71733)
(1.70076 -0.514065 -1.1401)
(1.84405 -0.743499 -1.29712)
(1.5927 -1.04279 -1.31513)
(1.3178 -1.39753 -0.908001)
(0.641831 -1.75789 -0.73473)
(0.691693 -1.89664 -0.836288)
(0.326163 -2.16425 -0.740494)
(-0.164541 -2.37932 -0.311507)
(-0.881501 -2.42139 -0.344521)
(-1.16724 -2.16684 -0.168903)
(-1.64233 -2.13265 0.260308)
(-1.40186 -1.84111 0.196622)
(-1.06737 -1.57722 -0.341197)
(-1.00062 -1.39109 -0.493264)
(1.79449 0.384569 -1.32115)
(1.55625 -0.0924782 -1.55054)
(1.80126 -0.794915 -1.48144)
(1.82891 -0.717135 -1.64942)
(1.51657 -1.08907 -1.35356)
(0.902828 -1.532 -1.05564)
(0.790263 -1.79586 -1.09705)
(0.511853 -2.06317 -1.11443)
(-0.116354 -2.51986 -0.440493)
(-0.701999 -2.5318 -0.502174)
(-0.616342 -2.35962 0.603358)
(-0.288961 -1.80246 -0.330039)
(-0.485075 -2.21031 0.466354)
(-0.456802 -1.76041 -0.650903)
(-0.70275 -1.35042 -0.879785)
(-0.905178 -1.13237 -0.746436)
(1.80674 0.781697 -1.71255)
(1.6631 0.10691 -1.72077)
(1.84792 -0.0900886 -1.55612)
(2.12606 -0.717262 -1.45336)
(1.64048 -0.996372 -1.45448)
(1.10772 -1.3404 -1.14898)
(0.794091 -1.73966 -1.22678)
(0.56487 -2.02099 -1.15463)
(0.119498 -2.40432 -0.554652)
(-0.301092 -2.12708 -0.75051)
(0.525689 -1.91456 -0.797707)
(0.574699 -1.47751 -0.913147)
(0.122597 -1.50374 -1.22501)
(-0.234373 -1.71198 -0.968548)
(-0.599584 -0.966159 -1.39677)
(-0.698411 -1.02417 -0.97425)
(-0.831868 -0.485852 -1.08764)
(-1.93054 -0.411569 2.25558)
(-1.91504 -0.465083 2.50639)
(-1.97017 -0.424405 2.35334)
(-1.9971 -0.643313 2.70939)
(-1.91471 -0.546303 2.73321)
(-1.83218 -0.331956 2.73881)
(-2.19408 -0.796857 2.71141)
(-2.19747 -0.499509 2.69768)
(-2.08613 -0.283656 2.75927)
(-2.01425 -0.203049 2.79558)
(-2.19302 -0.90264 2.82292)
(-2.2162 -0.767988 2.78115)
(-2.29833 -0.360589 2.75242)
(-2.4054 -0.298074 2.62343)
(-2.18128 -1.02731 3.03246)
(-2.18525 -0.928898 3.11491)
(-2.22933 -0.783002 3.15958)
(-2.57764 -0.426549 2.89198)
(-2.59468 -0.0850171 2.75019)
(-2.36721 -1.29374 2.96474)
(-2.23077 -1.09388 3.28521)
(-2.38782 -0.886851 3.28524)
(-2.5168 -0.924132 3.11546)
(-2.45187 -0.691585 3.02142)