/*--------------------------------*- C++ -*----------------------------------*\
  =========                 |
  \\      /  F ield         | OpenFOAM: The Open Source CFD Toolbox
   \\    /   O peration     | Website:  https://openfoam.org
    \\  /    A nd           | Version:  7
     \\/     M anipulation  |
\*---------------------------------------------------------------------------*/
FoamFile
{
    version     2.0;
    format      ascii;
    class       volScalarField;
    location    "10";
    object      p;
}
// * * * * * * * * * * * * * * * * * * * * * * * * * * * * * * * * * * * * * //

dimensions      [0 2 -2 0 0 0 0];

internalField   nonuniform List<scalar> 
18870
(
-84.63
-84.9257
-84.6166
-83.8926
-83.8984
-84.859
-84.2497
-84.598
-83.9034
-83.2428
-83.1366
-83.7347
-83.203
-84.7989
-84.1439
-83.5747
-84.5781
-83.8996
-83.2559
-82.9639
-81.8655
-82.9305
-82.5075
-83.5544
-83.0474
-82.523
-84.7332
-84.039
-83.4604
-82.7399
-84.5545
-83.8805
-83.2692
-82.9706
-82.502
-80.4956
-81.5758
-81.2146
-82.7218
-82.2311
-81.7955
-83.3749
-82.8952
-82.34
-81.6232
-84.6774
-83.9541
-83.3512
-82.6462
-81.7753
-84.5249
-83.8515
-83.2349
-82.9828
-82.4588
-81.8526
-79.0956
-80.2659
-80.0442
-81.3511
-80.9401
-80.3659
-82.5202
-82.023
-81.5622
-80.5185
-83.1988
-82.7365
-82.1822
-81.4466
-80.7045
-84.6175
-83.8773
-83.2817
-82.5436
-81.7046
-81.65
-84.4904
-83.8185
-83.189
-82.9946
-82.4058
-81.8885
-81.4835
-77.9594
-78.9744
-78.7948
-80.1056
-79.775
-79.0494
-81.1094
-80.5743
-80.1029
-79.7207
-82.2928
-81.767
-81.3699
-80.315
-79.5772
-83.0249
-82.5655
-82.0711
-81.2747
-80.5859
-80.3466
-84.5528
-83.7971
-83.1996
-82.4291
-81.6344
-81.5029
-80.793
-84.4531
-83.7807
-83.1894
-83.0038
-82.3477
-81.9001
-81.4305
-81.3015
-77.0119
-77.7971
-77.6224
-78.8325
-78.5192
-78.0837
-79.8691
-79.4427
-78.7875
-78.4864
-80.8171
-80.3418
-79.8834
-79.4844
-79.093
-82.0661
-81.5662
-81.1475
-80.113
-79.3845
-78.8268
-82.8795
-82.449
-81.9607
-81.1242
-80.4827
-80.283
-79.9742
-84.4983
-83.7198
-83.0894
-82.3317
-81.5635
-81.368
-80.6884
-80.831
-84.4142
-83.7403
-83.1886
-83.0024
-82.2941
-81.8818
-81.3815
-81.3056
-80.5859
-76.2632
-76.9162
-76.8368
-77.6994
-77.4287
-77.1607
-78.5009
-78.2292
-77.8889
-77.4282
-79.6219
-79.1999
-78.6302
-78.2164
-77.5674
-80.6127
-80.1586
-79.6773
-79.3431
-78.8264
-78.2901
-81.934
-81.4306
-80.9558
-79.9612
-79.247
-78.8838
-78.5207
-82.7308
-82.3632
-81.8251
-81.0258
-80.416
-80.1943
-79.9137
-79.9494
-84.4529
-83.6518
-82.98
-82.2178
-81.4943
-81.2454
-80.5897
-80.762
-80.4332
-84.3825
-83.684
-83.1865
-82.9748
-82.2608
-81.8545
-81.3329
-81.2891
-80.5709
-80.1267
-75.6587
-76.1505
-76.1877
-76.6059
-76.7074
-76.4599
-77.5311
-77.3495
-76.9804
-76.6952
-78.3303
-78.011
-77.6935
-77.1967
-77.0471
-79.4371
-78.9598
-78.4696
-77.9567
-77.3526
-77.0407
-80.4383
-79.9869
-79.4784
-79.0316
-78.6095
-78.1556
-77.8707
-81.7757
-81.2373
-80.7466
-79.811
-79.0989
-78.7541
-78.544
-78.5587
-82.5819
-82.2846
-81.6955
-80.9147
-80.3453
-80.1718
-79.7472
-79.9491
-79.7939
-84.417
-83.5606
-82.8812
-82.1033
-81.4257
-81.1659
-80.506
-80.687
-80.3934
-79.5908
-84.3597
-83.6192
-83.1852
-82.948
-82.2362
-81.8343
-81.3094
-81.2468
-80.555
-80.1166
-79.8939
-75.138
-75.5407
-75.6044
-76.0372
-76.041
-75.796
-76.6427
-76.5674
-76.2057
-76.1696
-77.4849
-77.1929
-76.9199
-76.5498
-76.1906
-78.1177
-77.8602
-77.4184
-76.9931
-76.8571
-76.5973
-79.2101
-78.7319
-78.3059
-77.6864
-77.2328
-76.9026
-77.2085
-80.1437
-79.814
-79.2512
-78.7723
-78.4427
-78.1085
-77.9242
-78.264
-81.6236
-81.067
-80.5539
-79.6825
-78.9349
-78.6753
-78.6029
-78.5859
-78.7055
-82.453
-82.1972
-81.5683
-80.8327
-80.2516
-80.163
-79.6544
-79.8574
-79.7715
-79.2152
-84.3369
-83.498
-82.7871
-82.0168
-81.382
-81.1042
-80.4049
-80.6288
-80.3523
-79.5587
-78.9698
-84.315
-83.5534
-83.178
-82.9541
-82.1752
-81.8109
-81.2988
-81.1968
-80.5355
-80.1072
-79.886
-79.6768
-74.7933
-75.0727
-75.1171
-75.4426
-75.5998
-75.352
-75.9349
-75.9272
-75.8158
-75.6105
-76.5235
-76.3577
-76.1476
-76.0582
-75.9564
-77.2194
-76.9852
-76.8547
-76.477
-76.002
-75.5889
-77.826
-77.7003
-77.194
-76.8829
-76.5997
-76.4235
-76.2289
-79.1216
-78.4941
-78.0699
-77.6406
-77.0809
-76.7809
-77.0192
-77.6883
-80.0407
-79.6462
-79.0751
-78.7326
-78.2686
-78.0634
-77.9772
-78.3561
-77.9978
-81.4862
-80.9207
-80.3641
-79.5912
-78.7932
-78.6325
-78.6794
-78.6767
-78.701
-78.3487
-82.3209
-82.0917
-81.4863
-80.7224
-80.1899
-80.1671
-79.6667
-79.7965
-79.7089
-79.1711
-78.3727
-84.2416
-83.4464
-82.6924
-81.9295
-81.3621
-80.9532
-80.3142
-80.5818
-80.3082
-79.5254
-78.9421
-78.7312
-84.2683
-83.4855
-83.1633
-82.9018
-82.0992
-81.781
-81.2961
-81.1477
-80.5106
-80.0973
-79.891
-79.6273
-79.2093
-74.4888
-74.7194
-74.7724
-74.9705
-75.0998
-75.1388
-75.4205
-75.4378
-75.335
-75.2287
-75.805
-75.7705
-75.8332
-75.5802
-75.4982
-76.3543
-76.2538
-76.1738
-75.9302
-75.7729
-75.6243
-77.0174
-76.9052
-76.6955
-76.2658
-75.9208
-75.5321
-75.6849
-77.8994
-77.5488
-77.088
-76.6627
-76.3776
-76.2648
-75.8641
-76.283
-78.9006
-78.3692
-77.8348
-77.4607
-76.8998
-76.5927
-76.949
-77.6663
-78.5662
-79.888
-79.4791
-78.9762
-78.5942
-78.045
-77.9941
-78.0411
-78.3337
-78.1168
-77.2375
-81.3703
-80.7693
-80.1841
-79.4559
-78.697
-78.5855
-78.7121
-78.77
-78.7046
-78.3171
-77.564
-82.2515
-82.0053
-81.4213
-80.6315
-80.1308
-80.1952
-79.6048
-79.7628
-79.6506
-79.1128
-78.3374
-78.0535
-84.1722
-83.3819
-82.5907
-81.8608
-81.2861
-80.8465
-80.2558
-80.5293
-80.2626
-79.4977
-78.9197
-78.7265
-78.5904
-84.2389
-83.4201
-83.1468
-82.8285
-82.0412
-81.7351
-81.3049
-81.1013
-80.4861
-80.0876
-79.8942
-79.6026
-79.2178
-79.0511
-74.2468
-74.4813
-74.5297
-74.6961
-74.7173
-74.7256
-74.9794
-75.0365
-74.9277
-74.7986
-75.3577
-75.202
-75.2498
-75.2387
-75.0681
-75.6479
-75.7407
-75.7064
-75.4879
-75.3833
-75.224
-76.2742
-76.1144
-76.1611
-75.7409
-75.6724
-75.5859
-75.4219
-76.9189
-76.7198
-76.407
-76.0712
-75.8307
-75.6085
-75.5931
-75.9778
-77.7458
-77.3771
-76.8908
-76.4817
-76.0678
-76.0252
-75.5897
-76.2834
-76.9931
-78.6606
-78.2238
-77.6492
-77.1847
-76.6598
-76.5099
-76.9575
-77.6701
-78.446
-77.2662
-79.7892
-79.2748
-78.8469
-78.3329
-77.8449
-77.8512
-78.0573
-78.2926
-78.1105
-77.1491
-76.4132
-81.2647
-80.6677
-80.0227
-79.2683
-78.6595
-78.5347
-78.7126
-78.7831
-78.7075
-78.2619
-77.5308
-77.446
-82.165
-81.9063
-81.3635
-80.6175
-80.0641
-80.23
-79.5576
-79.6573
-79.6126
-79.0482
-78.2979
-78.0595
-77.9445
-84.0716
-83.3376
-82.5043
-81.7904
-81.2172
-80.8236
-80.1911
-80.4627
-80.2162
-79.4789
-78.9186
-78.7336
-78.5994
-78.5114
-84.2319
-83.361
-83.1342
-82.8097
-81.994
-81.6907
-81.2797
-81.0532
-80.4639
-80.078
-79.8928
-79.6116
-79.2021
-79.0816
-78.9386
-74.062
-74.2035
-74.2951
-74.4107
-74.5226
-74.4128
-74.6319
-74.6358
-74.6354
-74.7045
-74.9126
-74.8659
-74.8643
-74.8282
-74.8038
-75.2627
-75.2592
-75.2228
-75.108
-74.9887
-75.026
-75.6494
-75.5448
-75.6169
-75.4002
-75.3192
-75.1831
-75.5242
-76.2409
-76.0147
-76.0491
-75.7152
-75.6429
-75.5627
-75.1425
-75.7086
-76.8221
-76.5583
-76.244
-76.016
-75.7676
-75.5799
-75.6041
-76.2761
-76.7116
-77.6192
-77.1965
-76.7532
-76.0167
-75.9594
-75.8016
-75.4786
-76.2951
-77.1379
-77.5255
-78.5737
-78.0554
-77.4427
-76.9359
-76.6211
-76.4977
-76.9883
-77.6847
-78.284
-76.9966
-75.9898
-79.7156
-79.1206
-78.6681
-78.0961
-77.7358
-77.7573
-78.0249
-78.3452
-77.8833
-77.0765
-76.391
-76.7483
-81.1633
-80.5541
-79.9039
-79.0191
-78.6039
-78.5157
-78.7493
-78.7971
-78.6795
-78.2427
-77.4868
-77.4427
-77.5202
-82.1444
-81.8364
-81.2844
-80.5635
-80.0864
-80.2229
-79.5402
-79.6139
-79.5475
-78.9942
-78.2723
-78.0681
-77.9429
-78.1358
-83.9613
-83.2614
-82.4303
-81.7067
-81.2095
-80.7723
-80.1239
-80.4023
-80.1653
-79.4616
-78.9223
-78.6933
-78.6202
-78.531
-78.3768
-84.2235
-83.3085
-83.0768
-82.8066
-81.9499
-81.6815
-81.2237
-81.0022
-80.4425
-80.0706
-79.8948
-79.678
-79.1853
-79.0122
-78.9603
-78.8152
-73.9437
-74.0529
-74.086
-74.1873
-74.2608
-74.2508
-74.3163
-74.4346
-74.415
-74.4539
-74.5733
-74.6483
-74.7011
-74.6639
-74.5664
-74.8485
-74.8269
-74.8959
-74.7414
-74.7737
-74.7538
-75.1474
-75.1645
-75.1496
-75.1031
-75.0034
-74.7471
-75.1867
-75.5831
-75.4928
-75.5338
-75.3698
-75.2864
-75.2353
-75.3784
-75.9239
-76.0545
-75.9517
-75.9607
-75.5759
-75.6266
-75.5172
-75.0092
-75.967
-75.8913
-76.7406
-76.5038
-76.2055
-75.7155
-75.7517
-75.5049
-75.5008
-76.3304
-77.2162
-77.7516
-77.5926
-77.0475
-76.4978
-75.6639
-76.0772
-75.6916
-75.2618
-76.3731
-77.2365
-77.5165
-76.9055
-78.4417
-77.9529
-77.2308
-76.7875
-76.6432
-76.5447
-77.066
-77.7632
-78.2371
-77.0186
-76.0053
-76.4325
-79.6494
-79.0265
-78.5246
-77.8941
-77.6601
-77.7809
-77.9478
-78.3605
-77.8119
-77.0745
-76.3331
-76.7918
-77.2963
-81.0959
-80.4548
-79.7667
-78.8377
-78.5489
-78.5273
-78.7829
-78.7987
-78.6564
-78.228
-77.4712
-77.4453
-77.5138
-77.6861
-82.0947
-81.7307
-81.23
-80.5241
-80.0957
-80.1347
-79.5129
-79.5691
-79.5072
-78.9602
-78.2619
-78.0853
-77.9765
-78.1802
-77.9712
-83.8496
-83.179
-82.344
-81.6625
-81.1635
-80.6918
-80.0751
-80.3456
-80.1087
-79.448
-78.9162
-78.7362
-78.6348
-78.5224
-78.4031
-78.4181
-84.2045
-83.2842
-83.0072
-82.7947
-81.9165
-81.6894
-81.1634
-80.9526
-80.4209
-80.0641
-79.9029
-79.7209
-79.1972
-78.9187
-78.9785
-78.8719
-78.7184
-73.821
-73.9518
-73.9714
-73.935
-74.0666
-74.1359
-74.159
-74.2082
-74.228
-74.2657
-74.2474
-74.2846
-74.4222
-74.3909
-74.3405
-74.5314
-74.62
-74.6027
-74.5872
-74.5901
-74.5606
-74.8171
-74.7953
-74.8015
-74.8106
-74.7091
-74.6286
-74.8702
-75.1198
-75.1398
-75.1317
-75.0709
-74.9591
-74.7483
-74.9609
-75.8523
-75.4911
-75.4166
-75.4167
-75.2704
-75.309
-75.3414
-75.3825
-76.1055
-76.1413
-75.9742
-75.8766
-75.7675
-75.4712
-75.6266
-75.3823
-75.5273
-76.2541
-76.5486
-76.8664
-76.6669
-76.4437
-75.9157
-75.6191
-75.7379
-75.3866
-75.5039
-76.4805
-77.5631
-78.1168
-78.4153
-77.4749
-76.8448
-76.2295
-75.5733
-75.9608
-75.7784
-75.2196
-76.5845
-77.3781
-77.5348
-77.1506
-77.6415
-78.2849
-77.8964
-77.1216
-76.5705
-76.5828
-76.6252
-77.1631
-77.8988
-78.1771
-77.0789
-76.1362
-76.6475
-77.743
-79.5679
-78.9502
-78.4066
-77.665
-77.5574
-77.7683
-77.9028
-78.3375
-77.8943
-76.9761
-76.3221
-76.838
-77.3125
-77.416
-81.0181
-80.366
-79.6836
-78.6955
-78.5121
-78.5293
-78.7928
-78.752
-78.6089
-78.2044
-77.4302
-77.4303
-77.5257
-77.728
-77.6101
-82.0296
-81.6331
-81.1731
-80.4806
-80.0575
-80.0733
-79.4852
-79.5003
-79.4822
-78.9597
-78.315
-78.1014
-77.9754
-78.2033
-77.9905
-77.8889
-83.7668
-83.1291
-82.2664
-81.6153
-81.0998
-80.6453
-80.0336
-80.282
-80.0491
-79.4376
-78.937
-78.7883
-78.6526
-78.5468
-78.4471
-78.4323
-78.2983
-84.1828
-83.2776
-82.9866
-82.7532
-81.9028
-81.6316
-81.0959
-80.8967
-80.4009
-80.0597
-79.9123
-79.7354
-79.2072
-78.9558
-79.0035
-78.9284
-78.7498
-78.534
-73.8195
-73.81
-73.8406
-73.8574
-73.9242
-74.0016
-73.9263
-74.0248
-74.0665
-74.0785
-74.041
-74.2321
-74.1439
-74.2161
-74.2193
-74.2748
-74.2805
-74.3689
-74.3845
-74.3279
-74.4383
-74.5003
-74.5438
-74.5588
-74.5374
-74.5142
-74.4535
-74.6067
-74.6952
-74.7538
-74.7271
-74.7429
-74.6737
-74.663
-74.7151
-75.301
-75.1284
-75.0005
-75.0929
-75.0122
-75.058
-74.8748
-74.9549
-75.939
-76.0518
-75.4734
-75.3207
-75.3455
-75.2189
-75.3679
-75.4032
-75.6489
-76.1989
-76.4616
-76.9635
-75.9409
-75.8078
-75.5375
-75.4769
-75.606
-75.3391
-75.4574
-76.8242
-77.4113
-77.9465
-79.5765
-76.5493
-76.289
-75.8435
-75.4849
-75.8019
-75.412
-75.7784
-76.8624
-77.8004
-78.3677
-78.8621
-79.8882
-77.3675
-76.6606
-76.0652
-75.3441
-75.8803
-75.8685
-75.4925
-76.8687
-77.6107
-77.6998
-77.4764
-77.7897
-78.4764
-78.2388
-77.7591
-76.9965
-76.3132
-76.5012
-76.7118
-77.2805
-78.0414
-78.1344
-77.1251
-76.2792
-76.7724
-77.7069
-77.7293
-79.4949
-78.9102
-78.3031
-77.4391
-77.4994
-77.7445
-77.9533
-78.2855
-77.9319
-76.9145
-76.3759
-76.9092
-77.3442
-77.346
-77.2552
-80.9246
-80.2622
-79.5969
-78.5207
-78.4754
-78.647
-78.8177
-78.7289
-78.549
-78.187
-77.3942
-77.4228
-77.4892
-77.7387
-77.618
-77.5048
-82.0038
-81.5572
-81.094
-80.4431
-80.027
-80.0567
-79.4615
-79.4637
-79.4643
-78.9488
-78.3707
-78.1335
-78.063
-78.2224
-78.0002
-77.9328
-77.8817
-83.6838
-82.9753
-82.2152
-81.5695
-81.0601
-80.589
-79.9987
-80.225
-79.9889
-79.4338
-78.954
-78.7353
-78.6634
-78.5898
-78.4475
-78.446
-78.3192
-78.3045
-84.1616
-83.2725
-82.9581
-82.698
-81.8939
-81.5606
-81.0508
-80.8399
-80.384
-80.0555
-79.9152
-79.7926
-79.1947
-79.0446
-79.0377
-78.9053
-78.8146
-78.5565
-78.7096
-73.7535
-73.7646
-73.818
-73.7595
-73.799
-73.81
-73.9232
-73.8901
-73.932
-73.9313
-73.956
-73.9927
-74.0418
-74.052
-74.1054
-73.9474
-74.1102
-74.1724
-74.2153
-74.1587
-74.2399
-74.2582
-74.2882
-74.3216
-74.3418
-74.3306
-74.3155
-74.3505
-74.4109
-74.4273
-74.512
-74.5293
-74.4876
-74.5333
-74.5649
-74.8516
-74.6841
-74.7007
-74.649
-74.6957
-74.7717
-74.564
-74.6872
-75.0985
-75.7836
-74.9939
-74.9768
-75.0486
-75.0391
-75.1374
-75.053
-75.2518
-76.0057
-76.4313
-76.8121
-75.3757
-75.3117
-75.3359
-75.2088
-75.3833
-75.4737
-75.91
-76.7445
-76.9068
-78.0208
-78.8446
-75.9238
-75.7267
-75.4334
-75.3744
-75.5828
-74.9845
-75.8913
-77.262
-77.9703
-78.7282
-80.9718
-82.929
-76.5255
-76.1469
-75.7771
-75.3616
-75.5666
-75.7726
-76.1345
-77.3152
-78.1271
-78.6283
-79.3167
-80.0857
-79.5862
-77.2501
-76.6828
-76.0188
-75.2933
-75.8139
-76.1734
-75.999
-77.2333
-77.8425
-77.8874
-77.7493
-77.9884
-78.3641
-77.8477
-78.2267
-77.6342
-76.8804
-76.0406
-76.4198
-76.8398
-77.4177
-78.0968
-78.1106
-77.2248
-76.5417
-76.9505
-77.6674
-77.5974
-77.0395
-79.469
-78.8362
-78.1473
-77.2315
-77.4336
-77.7608
-77.8962
-78.3038
-77.9749
-77.0255
-76.4922
-76.9934
-77.357
-77.3759
-77.1854
-77.1463
-80.8861
-80.1934
-79.5376
-78.4876
-78.5248
-78.7715
-78.8169
-78.6994
-78.5366
-78.161
-77.301
-77.4093
-77.5864
-77.7564
-77.6066
-77.5094
-77.5015
-81.9819
-81.5061
-81.0614
-80.4531
-80.0288
-79.9895
-79.428
-79.4592
-79.454
-78.9508
-78.4307
-78.1433
-78.1323
-78.2489
-78.0245
-77.9818
-77.9243
-77.9644
-83.6087
-82.8373
-82.1688
-81.5295
-81.0372
-80.5207
-79.9703
-80.1809
-79.9276
-79.4341
-78.9788
-78.7975
-78.6805
-78.6246
-78.4791
-78.4751
-78.3271
-78.3239
-78.266
-84.1171
-83.272
-82.9041
-82.6252
-81.867
-81.5089
-81.03
-80.769
-80.3672
-80.0513
-79.9134
-79.8572
-79.2292
-79.1046
-79.0629
-78.8785
-78.8659
-78.5433
-78.7537
-78.5619
-73.5652
-73.7341
-73.7306
-73.6923
-73.7472
-73.7871
-73.7644
-73.7725
-73.8046
-73.8368
-73.8663
-73.7684
-73.9307
-73.9117
-73.947
-73.892
-73.9503
-74.0046
-74.0282
-74.0489
-74.153
-73.9914
-74.0977
-74.1115
-74.1835
-74.1524
-74.1423
-74.1375
-74.1644
-74.222
-74.2697
-74.3001
-74.3289
-74.331
-74.4218
-74.4927
-74.3402
-74.4188
-74.4761
-74.4537
-74.4811
-74.3995
-74.4971
-74.77
-75.0532
-74.6252
-74.6628
-74.7515
-74.8221
-74.8354
-74.7482
-74.8729
-75.1009
-75.7937
-76.1921
-74.974
-74.973
-74.9064
-74.995
-75.0936
-75.2597
-75.446
-76.1562
-76.621
-77.396
-77.311
-75.3603
-75.2576
-75.1985
-75.1904
-75.3704
-75.5219
-75.8724
-76.9927
-77.6711
-78.8226
-79.783
-81.1469
-75.8246
-75.7085
-75.3543
-75.3586
-75.5229
-75.1738
-76.4096
-77.9012
-78.7418
-79.4308
-81.7478
-82.9574
-81.1639
-76.533
-76.1499
-75.7607
-75.1792
-75.4808
-76.1327
-76.5118
-77.8524
-78.6792
-79.0576
-79.683
-79.9156
-79.402
-78.2527
-77.1974
-76.6316
-75.9334
-75.3347
-75.8821
-76.5454
-76.6628
-77.6243
-78.1219
-78.0905
-77.9029
-78.0666
-78.1757
-77.7522
-76.9052
-78.1435
-77.5682
-76.8537
-75.7111
-76.3003
-77.0052
-77.5256
-78.1551
-78.0337
-77.317
-76.7149
-77.074
-77.6145
-77.4079
-76.9802
-76.7905
-79.4713
-78.8338
-78.0401
-77.0869
-77.3953
-77.7652
-77.876
-78.339
-78.0953
-77.2146
-76.6414
-77.0615
-77.401
-77.3629
-77.1388
-77.1716
-77.1528
-80.769
-80.1135
-79.4829
-78.5081
-78.636
-78.8593
-78.8054
-78.7636
-78.5512
-78.1395
-77.2724
-77.4244
-77.6748
-77.7699
-77.6141
-77.5113
-77.4797
-77.5424
-82.0415
-81.4718
-81.0049
-80.4316
-79.9877
-79.9292
-79.3935
-79.492
-79.4156
-79.0163
-78.4921
-78.2126
-78.0781
-78.233
-78.0511
-78.0483
-77.9604
-77.995
-77.8564
-83.5725
-82.793
-82.1191
-81.4781
-80.9888
-80.4461
-79.9485
-80.1433
-79.8899
-79.4356
-79.0323
-78.8684
-78.7489
-78.6512
-78.5216
-78.4828
-78.3573
-78.3421
-78.3106
-78.3405
-84.0454
-83.2557
-82.8711
-82.5719
-81.8686
-81.4735
-81.0262
-80.7062
-80.3484
-80.0574
-79.9123
-79.8844
-79.2647
-79.1293
-79.0858
-78.8968
-78.9038
-78.5272
-78.7775
-78.5594
-78.7527
-73.5779
-73.5586
-73.5906
-73.6963
-73.6944
-73.7333
-73.5717
-73.717
-73.6689
-73.7722
-73.7369
-73.7157
-73.7695
-73.8012
-73.8052
-73.8258
-73.7738
-73.824
-73.8213
-73.8567
-73.9859
-73.8582
-73.9529
-73.92
-73.9843
-73.98
-73.9958
-74.083
-74.0059
-74.0319
-74.1281
-74.1137
-74.167
-74.1294
-74.1591
-74.1841
-74.1589
-74.1829
-74.1991
-74.2839
-74.3293
-74.3433
-74.3407
-74.409
-74.6305
-74.3211
-74.3842
-74.5288
-74.4526
-74.4528
-74.4704
-74.6402
-74.8528
-74.8836
-75.3676
-74.5671
-74.6461
-74.6735
-74.7962
-75.1106
-74.8766
-75.0854
-75.4176
-75.684
-76.806
-76.4144
-74.937
-74.8761
-74.8403
-74.9945
-75.1015
-75.2369
-75.8767
-76.275
-76.8127
-77.7888
-77.6293
-77.6688
-75.3884
-75.2643
-75.1215
-75.1393
-75.2902
-75.8163
-76.0419
-77.7256
-78.3657
-79.5439
-80.6246
-81.7973
-80.6081
-75.8056
-75.6413
-75.444
-75.2974
-75.5576
-75.7124
-76.496
-78.6241
-79.2716
-79.9741
-82.2427
-82.5897
-80.5477
-78.658
-76.458
-76.1275
-75.7711
-75.2271
-75.6665
-76.3275
-77.1685
-78.4053
-79.1105
-79.5271
-79.7952
-79.6973
-79.119
-78.0715
-76.9774
-77.1384
-76.4737
-75.9429
-75.3257
-75.8777
-76.6816
-77.2185
-77.946
-78.3726
-78.2569
-78.0224
-78.0635
-78.0424
-77.6255
-76.7773
-76.2574
-78.0772
-77.582
-76.786
-75.583
-76.3232
-77.2096
-77.6859
-78.1854
-78.0362
-77.3869
-76.9314
-77.1551
-77.5576
-77.2884
-76.9485
-76.6314
-76.5639
-79.3703
-78.7689
-77.9623
-76.9114
-77.3073
-77.794
-77.8973
-78.4042
-78.1276
-77.3729
-76.8746
-77.1714
-77.3599
-77.2788
-77.2528
-77.1515
-77.1548
-77.1683
-80.7054
-79.9859
-79.4056
-78.4623
-78.6829
-78.9061
-78.7096
-78.8456
-78.6195
-78.1214
-77.309
-77.4059
-77.5971
-77.7581
-77.6978
-77.552
-77.5316
-77.6129
-77.5702
-82.1214
-81.4277
-80.9383
-80.4018
-79.9621
-79.8926
-79.3973
-79.5076
-79.4316
-78.9944
-78.5429
-78.1838
-78.1164
-78.2591
-78.078
-78.1206
-77.9892
-78.0554
-77.8881
-78.0654
-83.5651
-82.7023
-82.0665
-81.4343
-80.9513
-80.38
-79.9299
-80.1104
-79.8541
-79.4529
-79.0858
-78.8432
-78.8154
-78.7037
-78.5638
-78.4994
-78.3872
-78.3649
-78.3704
-78.3826
-78.3531
-83.9786
-83.2281
-82.826
-82.5261
-81.8883
-81.4327
-81.0095
-80.6622
-80.3332
-80.0708
-79.9117
-79.9084
-79.3434
-79.1257
-79.1028
-78.9522
-78.939
-78.5506
-78.7708
-78.5645
-78.7692
-78.6594
-73.5053
-73.5637
-73.5023
-73.6191
-73.549
-73.5513
-73.638
-73.6572
-73.6843
-73.64
-73.6285
-73.5885
-73.6425
-73.7126
-73.6448
-73.6954
-73.6677
-73.7291
-73.7044
-73.7806
-73.7586
-73.7843
-73.7436
-73.7653
-73.826
-73.8267
-73.8737
-73.9023
-73.9591
-73.9213
-73.9405
-73.9927
-73.9697
-73.9744
-73.9927
-74.0605
-74.0034
-73.9939
-74.0494
-74.054
-74.1593
-74.2252
-74.1864
-74.2205
-74.4099
-74.0462
-74.2388
-74.3036
-74.3132
-74.2966
-74.2654
-74.4095
-74.4243
-74.6886
-74.7845
-74.2284
-74.3536
-74.5222
-74.479
-74.8949
-74.5926
-74.6526
-74.9663
-75.0601
-75.3355
-75.6425
-74.5431
-74.6351
-74.5129
-74.7159
-74.8535
-74.9039
-75.3468
-75.5042
-75.8742
-76.4777
-76.8341
-76.3911
-74.8619
-74.8785
-74.9377
-75.0599
-75.098
-75.3734
-75.9995
-76.4685
-77.2761
-78.2866
-78.2873
-78.0257
-77.4508
-75.1841
-75.2313
-75.0699
-75.0915
-75.3522
-76.0322
-76.5738
-78.5411
-79.0764
-80.2037
-81.2418
-81.7715
-80.0095
-77.9408
-75.783
-75.6083
-75.5159
-75.3112
-75.6162
-76.0609
-77.114
-79.1782
-79.5561
-80.2089
-81.8961
-81.9851
-80.07
-78.1324
-76.7255
-76.3823
-76.081
-75.7376
-75.2834
-75.7552
-76.6452
-77.6677
-78.8003
-79.3465
-79.5432
-79.659
-79.3858
-78.7889
-77.7929
-76.6629
-75.936
-77.033
-76.45
-75.9308
-75.1893
-75.8349
-76.8055
-77.6142
-78.2634
-78.5222
-78.3657
-78.114
-78.0322
-77.9318
-77.4607
-76.6665
-76.1687
-76.0987
-78.2587
-77.4866
-76.6838
-75.5017
-76.4548
-77.5395
-77.8294
-78.2343
-78.0267
-77.4078
-77.0447
-77.208
-77.5048
-77.1959
-76.9275
-76.5848
-76.6659
-76.5095
-79.3353
-78.664
-77.8446
-76.6958
-77.219
-77.7391
-77.9634
-78.4421
-78.1979
-77.4802
-76.9747
-77.2367
-77.4979
-77.2771
-77.266
-77.1714
-77.1634
-77.246
-77.192
-80.708
-79.9133
-79.354
-78.4664
-78.7511
-78.7459
-78.5845
-78.8927
-78.7424
-78.2278
-77.3878
-77.3498
-77.7458
-77.7709
-77.7474
-77.6527
-77.5829
-77.6614
-77.6057
-77.7718
-82.1756
-81.4153
-80.8738
-80.3185
-79.9419
-79.8977
-79.4573
-79.5549
-79.4416
-78.9963
-78.6639
-78.2624
-78.2028
-78.2981
-78.1012
-78.1785
-78.0252
-78.0899
-77.9384
-78.126
-78.1411
-83.5417
-82.6782
-82.0296
-81.3783
-80.921
-80.3171
-79.9246
-80.0608
-79.8056
-79.471
-79.1258
-78.9021
-78.8678
-78.7539
-78.6092
-78.5301
-78.4192
-78.4014
-78.4334
-78.4242
-78.3877
-78.3818
-83.9201
-83.1721
-82.7751
-82.4821
-81.8515
-81.3851
-80.9734
-80.6239
-80.3212
-80.0843
-79.911
-79.9334
-79.4656
-79.1213
-79.0911
-78.9887
-78.9648
-78.5844
-78.7662
-78.5777
-78.7799
-78.6737
-78.4676
-73.4034
-73.5034
-73.4296
-73.5689
-73.5207
-73.4725
-73.5341
-73.4999
-73.5815
-73.4743
-73.6036
-73.5999
-73.62
-73.6673
-73.5782
-73.629
-73.6036
-73.5936
-73.6524
-73.6517
-73.5723
-73.6923
-73.6645
-73.6888
-73.7024
-73.7392
-73.7721
-73.752
-73.6731
-73.7865
-73.7131
-73.7807
-73.8389
-73.8261
-73.8351
-73.846
-73.8351
-73.9065
-73.9176
-73.9263
-73.9867
-73.9462
-73.9657
-74.015
-74.1106
-74.0568
-74.0203
-74.0222
-74.0989
-74.1016
-74.0629
-74.1642
-74.211
-74.2958
-74.4003
-74.0981
-74.1431
-74.2544
-74.2856
-74.215
-74.4169
-74.4743
-74.4977
-74.6338
-74.6192
-74.9631
-74.2378
-74.408
-74.4159
-74.5488
-75.0039
-74.9695
-74.9195
-74.9782
-75.5356
-75.2177
-75.9311
-75.4323
-74.4822
-74.5495
-74.5321
-74.7878
-74.7069
-75.1496
-75.4257
-75.6984
-75.9533
-76.9488
-76.8323
-76.4061
-76.0837
-74.8405
-74.8928
-74.793
-75.0751
-75.1125
-75.359
-76.1174
-77.7361
-77.8011
-78.6966
-78.4673
-78.2313
-77.2085
-76.1799
-75.2909
-75.2294
-75.1889
-75.1001
-75.358
-75.9797
-77.2513
-78.0706
-79.2313
-80.3502
-81.146
-81.0833
-79.2585
-77.4271
-76.0107
-75.5665
-75.5642
-75.5196
-75.3272
-75.7511
-76.379
-77.8744
-79.5672
-79.8778
-80.29
-81.6424
-81.1928
-79.3836
-77.7527
-76.4
-75.5951
-76.3779
-76.0277
-75.6157
-75.2721
-75.8776
-76.9006
-78.0403
-79.0807
-79.4352
-79.5016
-79.5204
-79.011
-78.4452
-77.4359
-76.4251
-75.7187
-75.6306
-77.0253
-76.5484
-75.8533
-75.1268
-75.8556
-76.9559
-77.9147
-78.5032
-78.6446
-78.3841
-78.0845
-77.9269
-77.7966
-77.2428
-76.5026
-75.8858
-76.032
-76.0306
-78.2526
-77.4209
-76.6605
-75.431
-76.4867
-77.5445
-77.9425
-78.3133
-78.0543
-77.6218
-77.1295
-77.2312
-77.4815
-77.1077
-76.7262
-76.6229
-76.6765
-76.6772
-76.7198
-79.2922
-78.592
-77.7889
-76.611
-77.1918
-77.7342
-78.192
-78.5224
-78.2434
-77.6755
-77.2119
-77.3463
-77.584
-77.3586
-77.3104
-77.2163
-77.1887
-77.128
-77.1951
-77.4187
-80.6174
-79.882
-79.3574
-78.4841
-78.7874
-78.6676
-78.5592
-78.927
-78.8324
-78.1626
-77.5598
-77.4091
-77.8317
-77.7979
-77.7708
-77.7168
-77.6211
-77.7282
-77.6886
-77.8284
-77.9567
-82.2367
-81.4308
-80.8146
-80.2397
-79.922
-79.9295
-79.5239
-79.658
-79.4851
-79.1044
-78.7235
-78.4023
-78.2016
-78.3226
-78.1433
-78.2359
-78.0669
-78.1031
-78.0129
-78.1812
-78.2095
-78.1369
-83.5203
-82.5625
-82.0018
-81.3274
-80.8881
-80.2474
-79.9354
-80.0264
-79.7954
-79.5079
-79.2058
-78.9759
-78.8916
-78.7854
-78.6844
-78.5603
-78.4722
-78.4408
-78.5033
-78.4654
-78.4359
-78.421
-78.4292
-83.8666
-83.1426
-82.7344
-82.446
-81.785
-81.3353
-80.9532
-80.6051
-80.3113
-80.0936
-79.9115
-79.9496
-79.6391
-79.1465
-79.0719
-79.0091
-78.9732
-78.6183
-78.777
-78.595
-78.7914
-78.685
-78.5009
-78.5527
-73.3439
-73.4155
-73.3776
-73.4694
-73.4064
-73.3326
-73.538
-73.4561
-73.4829
-73.446
-73.5411
-73.4998
-73.5353
-73.4657
-73.4681
-73.6428
-73.5667
-73.5862
-73.6717
-73.5564
-73.5333
-73.6263
-73.6245
-73.5857
-73.609
-73.6131
-73.6334
-73.5855
-73.6796
-73.7075
-73.6383
-73.6584
-73.7046
-73.6699
-73.6572
-73.6464
-73.7029
-73.7113
-73.7912
-73.7902
-73.7866
-73.8143
-73.8538
-73.8012
-73.8458
-73.9241
-73.8413
-73.8172
-73.8667
-73.8875
-73.9066
-73.9693
-74.0212
-74.0405
-74.1021
-73.9496
-74.0495
-74.0541
-74.1758
-74.0271
-74.0617
-74.3333
-74.173
-74.1932
-74.3699
-74.4655
-74.1301
-74.1194
-74.2547
-74.3063
-74.5894
-74.6491
-74.4147
-74.7519
-74.6801
-74.7191
-75.0858
-74.5836
-74.1673
-74.4113
-74.33
-74.5464
-74.5173
-74.7979
-75.134
-75.2167
-75.2105
-75.4548
-75.9763
-75.401
-75.037
-74.6594
-74.6149
-74.7013
-74.7941
-74.7665
-75.1639
-75.4005
-76.2631
-76.6933
-77.2585
-76.8599
-76.4486
-75.8934
-75.3457
-74.788
-74.832
-74.8855
-74.9843
-75.1652
-75.5218
-76.5386
-77.6871
-77.8222
-78.7696
-78.7505
-78.3089
-76.9321
-76.0717
-75.1647
-75.4003
-75.1994
-75.1587
-75.2409
-75.5448
-76.1678
-77.7144
-78.5777
-79.3924
-80.5432
-80.7513
-80.2934
-78.3426
-77.0973
-75.6987
-74.9526
-75.6517
-75.529
-75.4527
-75.2519
-75.8018
-76.684
-78.2922
-79.7601
-80.0823
-80.3342
-80.882
-80.2652
-78.8352
-77.3911
-76.1883
-75.4543
-75.2628
-76.2376
-76.0197
-75.5503
-75.319
-76.0294
-77.1743
-78.3237
-79.2063
-79.4771
-79.3587
-79.292
-78.6321
-78.0242
-77.1454
-76.2373
-75.8276
-75.5856
-75.5664
-77.0561
-76.558
-75.9096
-75.1074
-75.9472
-77.166
-78.1425
-78.6809
-78.7602
-78.3196
-78.0614
-77.7598
-77.6207
-77.0599
-76.3772
-76.0615
-76.0972
-76.0148
-76.3202
-78.1912
-77.4832
-76.5306
-75.4102
-76.4422
-77.5583
-78.0665
-78.3088
-78.1769
-77.6644
-77.3224
-77.1814
-77.3107
-77.0146
-76.7646
-76.6462
-76.6174
-76.7206
-76.7869
-76.9907
-79.2642
-78.5507
-77.7446
-76.6446
-77.2382
-77.9526
-78.3619
-78.6947
-78.2961
-77.8562
-77.3581
-77.465
-77.4659
-77.3733
-77.4261
-77.1472
-77.2076
-77.2421
-77.2448
-77.3793
-77.515
-80.5377
-79.8529
-79.3491
-78.4903
-78.6782
-78.632
-78.5543
-79.0261
-78.9405
-78.2486
-77.723
-77.4866
-77.8112
-77.8306
-77.7725
-77.6634
-77.6899
-77.7697
-77.7554
-77.8743
-77.8737
-77.914
-82.2826
-81.4292
-80.7863
-80.2252
-79.8679
-79.9541
-79.6175
-79.7495
-79.5537
-79.1414
-78.7769
-78.472
-78.2694
-78.3838
-78.1987
-78.2776
-78.1078
-78.1371
-78.0837
-78.2356
-78.253
-78.1974
-78.2101
-83.5135
-82.4905
-81.9794
-81.2818
-80.8524
-80.2134
-79.9445
-80.0314
-79.8015
-79.5396
-79.2913
-79.0086
-79.0273
-78.8226
-78.7575
-78.5885
-78.4945
-78.478
-78.5706
-78.5182
-78.4878
-78.4657
-78.4656
-78.505
-83.8181
-83.1225
-82.6946
-82.412
-81.7696
-81.3145
-80.9492
-80.6013
-80.3038
-80.1018
-79.9123
-79.9653
-79.8364
-79.1823
-79.0793
-79.0224
-78.9717
-78.6797
-78.7856
-78.6037
-78.8015
-78.697
-78.5473
-78.5614
-78.8439
-73.2869
-73.282
-73.4114
-73.3401
-73.3257
-73.5242
-73.3518
-73.3555
-73.3065
-73.5332
-73.4275
-73.4053
-73.4212
-73.4296
-73.5809
-73.4782
-73.4521
-73.4936
-73.427
-73.3842
-73.5706
-73.5738
-73.5377
-73.5265
-73.548
-73.5195
-73.491
-73.5803
-73.5987
-73.5944
-73.5757
-73.5848
-73.5283
-73.5808
-73.5719
-73.6335
-73.6582
-73.687
-73.6791
-73.6319
-73.7074
-73.6892
-73.614
-73.6637
-73.6677
-73.7371
-73.6979
-73.7455
-73.7632
-73.7683
-73.7703
-73.8442
-73.8435
-73.8176
-73.8921
-73.8535
-73.8977
-73.9258
-73.8553
-73.8577
-73.9885
-73.9831
-74.0107
-74.0254
-74.0711
-73.9434
-73.9369
-74.0199
-74.1557
-74.0985
-74.11
-74.0343
-74.4403
-74.1573
-74.4082
-74.4684
-74.308
-73.9986
-74.1625
-74.2743
-74.3839
-74.4816
-74.6676
-74.7226
-74.8265
-74.8031
-74.8688
-75.21
-74.7309
-74.4021
-74.2716
-74.4622
-74.5019
-74.4914
-74.5618
-74.7066
-75.533
-75.2969
-75.7181
-75.7115
-76.1
-75.4771
-74.9903
-74.5335
-74.54
-74.5519
-74.5034
-74.7965
-74.9221
-75.2693
-75.7569
-76.5312
-76.7827
-77.3684
-76.9204
-76.4854
-75.9178
-75.2231
-74.531
-74.9847
-74.8151
-75.0147
-75.1344
-75.2475
-75.7166
-76.8365
-77.6606
-77.7315
-78.9631
-78.6533
-77.9926
-76.9304
-75.9677
-74.9284
-74.3883
-75.2139
-75.1791
-75.1658
-75.392
-75.6951
-76.4365
-78.2399
-79.124
-79.5826
-80.0873
-80.4078
-79.4355
-78.0106
-76.7514
-75.3911
-74.7728
-74.5278
-75.6896
-75.5652
-75.4802
-75.1711
-75.7333
-77.0389
-78.6689
-79.8915
-80.1738
-80.2559
-80.0833
-79.3309
-78.3428
-77.0432
-75.9507
-75.4129
-75.2143
-75.1373
-76.2116
-75.9364
-75.5953
-75.3547
-76.136
-77.3706
-78.5282
-79.2259
-79.4211
-79.1252
-78.9342
-78.2119
-77.6435
-76.9032
-76.0247
-75.8031
-75.5815
-75.5879
-75.8632
-77.0384
-76.4193
-75.9085
-75.0031
-76.0281
-77.3568
-78.3225
-78.7959
-78.7847
-78.272
-78.0295
-77.6022
-77.4461
-76.9025
-76.2147
-76.0702
-76.1266
-76.1745
-76.2976
-76.5351
-78.1777
-77.464
-76.575
-75.5228
-76.3919
-77.4995
-78.1533
-78.4772
-78.23
-77.8922
-77.402
-77.2479
-77.2117
-77.0446
-76.7073
-76.6207
-76.6839
-76.583
-76.8302
-77.0231
-77.1781
-79.2184
-78.5335
-77.7042
-76.6741
-77.2428
-78.1438
-78.5413
-78.7965
-78.3853
-77.816
-77.4595
-77.3845
-77.4962
-77.3929
-77.3223
-77.1684
-77.2123
-77.3541
-77.3092
-77.4473
-77.558
-77.682
-80.4742
-79.8466
-79.3553
-78.5192
-78.685
-78.5667
-78.5922
-79.1001
-79.0695
-78.4005
-77.8271
-77.6158
-77.8596
-77.8767
-77.8085
-77.719
-77.7576
-77.8445
-77.7848
-77.9079
-77.9918
-77.9551
-77.9769
-82.3181
-81.415
-80.7253
-80.1995
-79.9062
-79.9869
-79.7341
-79.8614
-79.6643
-79.2414
-78.8395
-78.4596
-78.35
-78.4546
-78.2584
-78.3107
-78.1729
-78.1857
-78.1749
-78.2925
-78.3436
-78.2486
-78.2344
-78.0916
-83.4621
-82.4886
-81.9607
-81.2311
-80.8196
-80.1862
-79.9817
-80.0576
-79.7881
-79.5721
-79.3676
-79.0658
-79.1328
-78.8712
-78.7776
-78.6231
-78.534
-78.5226
-78.6226
-78.5811
-78.5498
-78.5198
-78.4957
-78.5291
-78.4472
-83.7817
-83.0811
-82.6537
-82.3208
-81.7729
-81.3192
-80.9046
-80.5972
-80.299
-80.1162
-79.9168
-79.9836
-79.9089
-79.1986
-79.089
-79.0291
-78.9698
-78.7449
-78.7839
-78.6001
-78.8073
-78.7111
-78.575
-78.5332
-78.8539
-79.145
-73.2945
-73.2106
-73.2007
-73.4681
-73.3235
-73.2924
-73.2637
-73.4843
-73.363
-73.2889
-73.3625
-73.2325
-73.5107
-73.4297
-73.3616
-73.3675
-73.3786
-73.2536
-73.5631
-73.4735
-73.4247
-73.4036
-73.4139