/*--------------------------------*- C++ -*----------------------------------*\
  =========                 |
  \\      /  F ield         | OpenFOAM: The Open Source CFD Toolbox
   \\    /   O peration     | Website:  https://openfoam.org
    \\  /    A nd           | Version:  7
     \\/     M anipulation  |
\*---------------------------------------------------------------------------*/
FoamFile
{
    version     2.0;
    format      ascii;
    class       surfaceScalarField;
    location    "10";
    object      phi_0;
}
// * * * * * * * * * * * * * * * * * * * * * * * * * * * * * * * * * * * * * //

dimensions      [0 3 -1 0 0 0 0];

internalField   nonuniform List<scalar> 
54451
(
-8.88589e-05
-0.00074282
-4.65945e-05
-0.000261344
0.00301654
1.23744e-05
-8.85659e-05
-0.000653195
-4.48402e-05
-0.000108965
-0.000720058
-3.86698e-05
-0.000360169
0.00291457
0.000336751
-0.000256901
0.00319596
1.8612e-05
-0.000307108
0.00184654
1.10214e-05
-8.82159e-05
-0.000565288
-4.31839e-05
-0.000114142
-0.00061333
-3.74265e-05
-0.000176333
0.000165602
-2.71665e-05
-0.000485768
0.00448334
0.000674732
-0.000366136
0.00301211
0.000340547
-0.00039894
0.00308728
0.000207665
-0.000244362
0.00335973
2.91768e-05
-0.000294481
0.00204276
2.72606e-06
-0.000351336
0.00166253
1.05105e-05
-8.85963e-05
-0.00047798
-4.1861e-05
-0.000118884
-0.000501798
-3.58325e-05
-0.000178302
0.000334429
-2.79513e-05
-0.000192753
2.6886e-05
-1.63222e-05
-0.000536346
0.00551693
0.000903752
-0.000486098
0.00457616
0.000686703
-0.000593339
0.003742
0.000625577
-0.000384055
0.00313837
0.000349654
-0.000350461
0.00328778
0.000196028
-0.000401354
0.00266717
7.76342e-05
-0.000232013
0.00350233
3.28082e-05
-0.000277733
0.00222433
6.45834e-06
-0.000339753
0.0018181
8.60684e-06
-0.000367741
0.0024262
2.39443e-05
-8.70371e-05
-0.000393176
-4.12977e-05
-0.000121621
-0.000387765
-3.42725e-05
-0.000177626
0.000504959
-2.87359e-05
-0.000193439
0.000209383
-1.70095e-05
-0.000197531
0.000705768
-9.37507e-06
-0.000531023
0.00643371
0.00120628
-0.000558792
0.00562511
0.00092149
-0.00068034
0.00467013
0.000825579
-0.000503728
0.00467406
0.000706101
-0.000506274
0.00396289
0.000621623
-0.000428743
0.00329379
0.000548069
-0.000353695
0.00325382
0.000340484
-0.000317097
0.00347725
0.000199547
-0.000403415
0.00287376
5.30974e-05
-0.000531075
0.00295947
6.39559e-05
-0.000217508
0.00362099
3.64445e-05
-0.000271011
0.00239242
1.41119e-05
-0.000323263
0.00196288
7.30991e-06
-0.000353669
0.00256198
3.30585e-05
-0.0003676
0.00285316
1.79706e-05
-8.5623e-05
-0.000310568
-4.10896e-05
-0.000122479
-0.000273342
-3.32411e-05
-0.000175284
0.000674385
-2.84141e-05
-0.000199128
0.00039751
-1.77348e-05
-0.000193295
0.00089102
-8.96664e-06
-0.000208523
0.000298569
1.12787e-06
-0.000549409
0.00658833
0.0015054
-0.000551131
0.0064159
0.00124496
-0.000590734
0.005777
0.00112856
-0.000476228
0.00563432
0.000951095
-0.000595229
0.00488733
0.000793241
-0.000456637
0.00497562
0.00074697
-0.000467678
0.00475702
0.000681768
-0.000494478
0.00419402
0.000652361
-0.000450322
0.00342918
0.000533138
-0.000507971
0.0027189
0.00046322
-0.000314333
0.00334102
0.000334693
-0.000300191
0.00358831
0.00025861
-0.000344536
0.00304422
5.03618e-05
-0.000513614
0.00313096
4.15531e-05
-0.0005197
0.00330754
4.02162e-05
-0.000193717
0.0037103
4.23296e-05
-0.000255068
0.00253916
2.22927e-05
-0.000289237
0.00208582
5.12827e-06
-0.000351717
0.0026859
3.59771e-05
-0.00035424
0.00303084
1.63304e-05
-0.000305498
0.0028467
3.3608e-06
-8.5901e-05
-0.000228226
-4.14676e-05
-0.000123663
-0.00015885
-3.19186e-05
-0.000172829
0.000842362
-2.83895e-05
-0.000200324
0.000587156
-1.77372e-05
-0.000188332
0.00106976
-8.14356e-06
-0.00020833
0.000494453
3.47917e-06
-0.000200812
0.00116041
1.63725e-05
-0.000591665
0.00619017
0.00165027
-0.000486736
0.00659166
0.0015196
-0.000349332
0.00629414
0.00144297
-0.000357974
0.00632558
0.00124143
-0.000513471
0.00577618
0.00116403
-0.000192709
0.00506072
0.00111927
-0.000400343
0.00557576
0.000955862
-0.000492609
0.00502702
0.000809538
-0.000486881
0.0050671
0.000738324
-0.000504418
0.00460641
0.000717462
-0.00038151
0.00477412
0.000683432
-0.000371471
0.00435037
0.000596697
-0.000380023
0.00357727
0.00053975
-0.000471767
0.00276565
0.000444545
-0.000448786
0.00280159
0.00034452
-0.000249425
0.00338248
0.000328554
-0.000266851
0.00375505
0.000179735
-0.000325539
0.00321439
0.000124739
-0.00052428
0.00330016
5.37301e-05
-0.000539058
0.00352344
1.04639e-05
-0.000457879
0.00451291
-6.45845e-05
-0.000178534
0.00377631
4.28312e-05
-0.000244814
0.00267564
2.69975e-05
-0.000314404
0.00223933
1.03585e-05
-0.000340376
0.00279785
3.32273e-05
-0.000336106
0.00319624
1.83462e-05
-0.000281242
0.00292787
8.07038e-06
-0.000302359
0.00203986
6.99621e-06
-8.50792e-05
-0.000146707
-4.22952e-05
-0.000124859
-4.38665e-05
-3.15925e-05
-0.000169771
0.00100691
-2.66966e-05
-0.000199565
0.000776141
-1.78094e-05
-0.00018597
0.00124576
-7.77103e-06
-0.000207437
0.000689134
4.61236e-06
-0.000205652
0.00135126
1.8278e-05
-0.000137806
0.000448202
8.02303e-06
-0.000571446
0.00555001
0.00184469
-0.000468038
0.00614555
0.00167844
-7.97713e-05
0.0061462
0.00163313
-0.000205698
0.00648652
0.00154781
-0.00023534
0.00609035
0.00144526
6.03926e-05
0.00560735
0.00141321
-0.000249709
0.00620564
0.00128791
-0.000329522
0.00568424
0.00117028
-0.00053457
0.00511817
0.00115427
-0.000425412
0.00523668
0.000876441
-0.000402975
0.00561393
0.000976421
-0.000350279
0.00514715
0.000814538
-0.000472108
0.00524135
0.000727372
-0.000544692
0.00470402
0.000713636
-0.000279004
0.00356281
0.000592511
-0.000285252
0.0047733
0.000675462
-0.00033982
0.00448395
0.000622815
-0.000376888
0.00373198
0.000493336
-0.000473388
0.0028026
0.000451904
-0.00050523
0.00289993
0.000312377
-0.000650343
0.00364896
0.000243269
-0.000233291
0.00345561
0.000312345
-0.000248025
0.00390026
0.00018655
-0.000386771
0.00342317
4.33306e-05
-0.000519788
0.00354665
5.76623e-05
-0.000538577
0.00375979
1.98512e-05
-0.000398939
0.00467927
-3.81944e-05
-0.000177965
0.00332858
-0.000164925
-0.00015752
0.00380919
4.77332e-05
-0.00023346
0.00279211
3.49643e-05
-0.000290684
0.0023793
7.93752e-06
-0.000331009
0.00289114
4.85159e-05
-0.000335674
0.00335897
2.01973e-05
-0.00026507
0.00298644
1.74139e-05
-0.00034025
0.00215676
2.57661e-05
-0.000109619
0.00254896
-1.93444e-05
-8.2961e-05
-6.66308e-05
-4.37539e-05
-0.000126884
7.3197e-05
-3.24744e-05
-0.000168069
0.00117
-2.66158e-05
-0.000195346
0.000961272
-1.64808e-05
-0.000177775
0.00141286
-7.13417e-06
-0.000209428
0.000887858
2.93317e-06
-0.000212318
0.00154926
1.89358e-05
-0.000139875
0.000598387
7.96825e-06
-8.24321e-05
0.000439471
-9.78136e-06
-0.000346059
0.0051469
0.00214812
-0.000484267
0.00554101
0.00185592
6.3002e-05
0.0055934
0.00174436
-0.000199685
0.00613696
0.00164331
-1.63288e-05
0.00609235
0.00151328
-0.000189488
0.00626087
0.00160831
-0.000335666
0.00663306
0.00153107
-0.000119478
0.00596923
0.00145889
-0.000232415
0.00537237
0.00137808
-0.000187937
0.00564565
0.00135131
-0.000334527
0.00621744
0.00125843
-0.000240723
0.00564226
0.00122033
-0.000559428
0.0053224
0.00105337
-0.000391999
0.0053045
0.000933759
-6.27883e-05
0.00583079
0.000861871
-0.000264144
0.00562345
0.000973109
-0.000336837
0.00529517
0.000825419
-0.000355131
0.00532496
0.000709173
-0.000191441
0.00443456
0.000714889
-0.000286557
0.00347196
0.000585818
-0.000600209
0.0025742
0.000524423
-0.000274007
0.00478338
0.000671501
-0.000266552
0.00454627
0.000631669
-0.000345867
0.00381013
0.000503763
-0.000426176
0.00278413
0.000418196
-0.000561375
0.00307093
0.000303708
-0.000603644
0.00389782
0.000268225
-0.000296945
0.00414068
8.44168e-05
-0.000201602
0.00350265
0.000288631
-0.000199782
0.00400682
0.000172115
-0.000316608
0.00359243
4.32094e-05
-0.000536829
0.00371977
7.60235e-05
-0.000535755
0.00401461
2.92225e-06
-0.000342233
0.00477054
5.74065e-06
-0.000247715
0.00327133
-7.34823e-05
1.95556e-05
0.00385344
-0.00016843
-0.000144245
0.00383108
4.62057e-05
-0.000221255
0.00288404
5.01681e-05
-0.000274226
0.00251743
2.99708e-06
-0.000317835
0.00297163
4.99299e-05
-0.00030035
0.00349934
3.07236e-05
-0.000252889
0.00302611
2.39922e-05
-0.000377
0.00229161
4.72459e-05
-0.000145353
0.0025802
4.70508e-09
-0.000132753
0.00221555
-3.08704e-05
-7.08489e-05
2.33704e-06
-4.56946e-05
-0.000131859
0.000195321
-3.40193e-05
-0.000164417
0.00132916
-2.72186e-05
-0.00019366
0.00114492
-1.66002e-05
-0.000170335
0.00157386
-7.14445e-06
-0.000207264
0.00108271
5.27922e-06
-0.000213562
0.00174836
1.73932e-05
-0.000141522
0.000750285
8.56038e-06
-8.09131e-05
0.00053779
-9.43787e-06
-4.15348e-05
0.00118346
-2.52793e-05
-0.00030807
0.00509882
0.00254769
-0.000309088
0.0051219
0.00203667
4.83656e-05
0.00547785
0.00200699
-0.000367716
0.00574499
0.00180945
-5.77415e-05
0.00571536
0.00177538
-0.000171117
0.00530345
0.00175472
-0.000355971
0.00622836
0.00145742
-1.83018e-05
0.00605506
0.00157942
-3.68523e-05
0.00609722
0.00148137
-3.06236e-05
0.00576832
0.00148081
-0.000148091
0.00648277
0.00149019
3.80155e-05
0.0058447
0.00137686
-0.000473232
0.00545547
0.0012896
-2.31463e-05
0.00539867
0.00125621
6.93475e-05
0.00486035
0.00125969
-0.000159295
0.00614787
0.0012138
-0.00014512
0.00554093
0.00116804
-0.000419982
0.00556855
0.00103904
-1.65252e-05
0.00529845
0.000884499
3.67751e-05
0.00565647
0.000784749
-9.43384e-05
0.0035213
0.000881822
-0.000223188
0.00558045
0.000956564
-0.000213657
0.00539172
0.000823663
-0.000276991
0.00532644
0.000755058
-0.000238166
0.00421715
0.000738568
-0.000255082
0.0032704
0.000610155
-0.000590899
0.00262372
0.000523563
-0.000661807
0.00346619
0.000510829
-0.000217932
0.00475695
0.000673441
-0.000177198
0.00453445
0.000660743
-0.000208045
0.00379269
0.00054055
-0.000488359
0.0028271
0.000412326
-0.000583926
0.00326887
0.000268424
-0.000563506
0.00412424
0.000298562
-0.000331283
0.00433243
0.000160036
-1.25732e-06
0.00456918
1.59052e-05
-0.000179573
0.00355063
0.000268658
-0.000158367
0.00408723
0.000145328
-0.000274371
0.00373707
2.76226e-05
-0.000521245
0.00389148
7.49123e-05
-0.0004897
0.0042522
2.77861e-05
-0.000285225
0.00479619
9.60579e-06
-0.000315769
0.00317037
4.54739e-05
5.75898e-07
0.00372942
-9.53955e-05
-4.18879e-05
0.00347913
-0.000146663
-8.10976e-05
0.00379109
4.79998e-05
-0.000227066
0.00296248
6.29791e-05
-0.000254428
0.0026546
3.00159e-06
-0.000301451
0.00305093
3.14888e-05
-0.000256527
0.00360086
3.46044e-05
-0.000239146
0.00306654
2.21692e-05
-0.000376814
0.00241796
6.08929e-05
-0.000190672
0.0026599
1.66963e-05
-0.000134682
0.002287
-1.76698e-05
-0.000111407
0.00191662
-5.04894e-05
-7.68122e-05
7.87147e-05
-4.81099e-05
-0.000129776
0.000315583
-3.61804e-05
-0.000159612
0.00148186
-2.71051e-05
-0.000189184
0.00132383
-1.69511e-05
-0.00016822
0.00173264
-7.15655e-06
-0.000205637
0.00127385
7.34728e-06
-0.000211721
0.00194532
2.00383e-05
-0.000143662
0.00090201
9.33017e-06
-7.85142e-05
0.000633812
-8.94677e-06
-3.75574e-05
0.00123681
-2.52242e-05
-2.47447e-05
0.00232765
-2.61434e-05
-0.000305762
0.00517666
0.0027337
-0.000170733
0.00518265
0.00226306
9.89385e-06
0.00561787
0.00233072
-0.000304064
0.00524417
0.00198868
-4.52595e-05
0.0055548
0.00194724
-4.77682e-05
0.00512339
0.00195125
-0.00025369
0.00585438
0.00167859
-0.000201162
0.00595659
0.00175107
-0.000100765
0.00538802
0.00175473
5.13085e-05
0.00517332
0.00163198
-1.22167e-05
0.00612782
0.00144386
0.00014998
0.00596055
0.00143996
-0.000249175
0.00597088
0.0014817
-3.6351e-05
0.00575014
0.00151276
0.00019736
0.00521943
0.00140622
-2.01635e-05
0.00635853
0.00144699
-0.000116803
0.00588567
0.0014209
-0.000296588
0.00543546
0.00127348
2.22305e-05
0.00540899
0.00124053
0.000131617
0.00488719
0.00113452
0.000181685
0.00524571
0.00112206
-0.000150101
0.00606489
0.00126933
-0.000137903
0.00552062
0.00115836
-0.000263481
0.0057227
0.00100038
-0.000131404
0.00533713
0.000893599
0.000186762
0.00544587
0.000653253
-2.54074e-05
0.00309803
0.000642531
-0.000426408
0.00263495
0.000488751
-0.000303232
0.00567468
0.000912186
-0.000116382
0.00544584
0.000841635
-0.000130506
0.00531156
0.000761003
-0.000305463
0.00400815
0.000781162
-0.000319739
0.00310724
0.000637539
-0.000624935
0.00275982
0.000535476
-0.000655446
0.00378489
0.000529031
-0.000309647
0.00419934
0.000496571
-0.000175301
0.00474521
0.000653031
-0.000204119
0.00458181
0.000671828
-0.000151745
0.00376451
0.000566291
-0.000468884
0.00287273
0.000442561
-0.00056774
0.00349722
0.000262015
-0.000521837
0.00429072
0.000338547
-0.000325837
0.00436312
0.000277941
8.56085e-05
0.00453327
0.000110915
0.000139148
0.00485271
2.32606e-05
-0.000129025
0.00365863
0.000220603
-0.000114144
0.00413391
0.000109058
-0.000295367
0.00390569
1.76441e-05
-0.000477109
0.00405414
4.06182e-05
-0.000430695
0.00446231
3.8976e-05
-0.000248654
0.00482892
4.57141e-06
-0.00029622
0.00300429
9.50906e-05
-4.62333e-05
0.00363968
-9.22553e-06
-5.7218e-05
0.0034153
-0.000109035
-8.34734e-05
0.00278668
-0.000153905
-7.0127e-05
0.00374052
4.13652e-05
-0.000219073
0.0030248
7.49763e-05
-0.000229994
0.0027724
1.55662e-05
-0.000277617
0.00311577
2.65927e-05
-0.000256702
0.00369038
3.04504e-05
-0.00023172
0.00311071
1.65221e-05
-0.000365673
0.00253033
6.37556e-05
-0.000210367
0.00275872
2.87764e-05
-0.000125413
0.00235931
-8.72072e-06
-0.000103076
0.00200626
-4.1794e-05
-0.000116822
0.00241014
-5.39447e-05
-8.57064e-05
0.000165664
-5.10584e-05
-0.000122738
0.000429186
-3.89753e-05
-0.000156726
0.00163028
-2.78695e-05
-0.000186287
0.00149934
-1.63258e-05
-0.000154586
0.00187745
-7.17926e-06
-0.000200825
0.00146234
5.18599e-06
-0.000202454
0.00213241
2.27117e-05
-0.000145633
0.00105754
1.01383e-05
-7.71528e-05
0.000728688
-8.39394e-06
-3.33654e-05
0.00128634
-2.51082e-05
-1.78241e-05
0.00234493
-2.46791e-05
-4.58857e-05
0.00316187
-1.74438e-05
-0.000216925
0.0047758
0.00305314
-0.000138604
0.00519386
0.00269968
1.76592e-05
0.00529342
0.00265817
-0.000131232
0.0051818
0.00228492
5.09854e-05
0.00561245
0.00217223
0.000106473
0.00505879
0.00228992
-7.78761e-05
0.00523938
0.00195307
-0.00015344
0.00553798
0.00195778
2.49778e-05
0.00499711
0.00194778
0.000261048
0.00490937
0.0018442
4.49168e-05
0.00596089
0.00168726
-2.37222e-06
0.00607106
0.00171647
-4.07175e-07
0.00524183
0.00164849
0.000109827
0.00515331
0.00162856
0.000181348
0.00492732
0.00155547
0.000259749
0.00598396
0.00130115
-0.000104097
0.00599901
0.00139269
-0.000192876
0.00592801
0.00137912
0.000258804
0.00562047
0.0013748
0.000224778
0.00519685
0.00144217
0.000486937
0.0048199
0.00124589
-0.000177042
0.00637893
0.0014258
-3.98371e-06
0.00582675
0.00137199
-3.54889e-06
0.00536125
0.00123518
6.43716e-05
0.00537146
0.00111523
0.000218744
0.0049462
0.00114954
0.000299374
0.00510443
0.000951018
0.00019264
0.00363886
0.00107426
-0.000266367
0.00604338
0.0011979
-0.000153089
0.00567246
0.0011542
-7.21628e-05
0.00581498
0.00100774
-1.84682e-05
0.00516828
0.000882234
0.000358189
0.0050172
0.000644335
-0.000125343
0.00293774
0.000313949
-0.000426281
0.00279113
0.000257192
-0.000559278
0.00324695
0.000460514
-0.000152152
0.00566974
0.000895821
-0.000137894
0.00544614
0.000845654
-6.32634e-05
0.00530304
0.000761673
-0.000259298
0.00383777
0.000721797
-0.000396147
0.00311667
0.000600142
-0.000623515
0.00298589
0.000513145
-0.000519226
0.00396523
0.000548529
-0.000149021
0.00445189
0.000511105
-9.00186e-05
0.0052824
0.000409322
-9.11931e-05
0.00469908
0.000647772
-0.000173287
0.00464863
0.000645358
-0.000193976
0.00380072
0.000534234
-0.000464296
0.00299714
0.000429062
-0.000557948
0.00377362
0.000293415
-0.0004649
0.00443216
0.000336825
-0.000252591
0.00426905
0.000388989
0.000122189
0.00440654
0.000236246
0.000185366
0.00459434
0.000126705
0.000188794
0.00423108
-5.01893e-05
-9.42444e-05
0.00375066
0.000195926
-9.54033e-05
0.00413914
9.17018e-05
-0.000274252
0.00406051
-1.50752e-06
-0.000430275
0.00419582
2.86276e-05
-0.000413602
0.00462964
3.01815e-05
-0.00021405
0.00486822
-1.79971e-05
-0.000273378
0.00281113
0.000105436
-8.23554e-05
0.00355736
4.94014e-05
-6.58852e-05
0.00341762
-7.10711e-05
-0.000138384
0.00284968
-0.000136728
-0.000212389
0.0028854
-0.000129686
-8.60411e-05
0.00368041
3.39166e-05
-0.000189916
0.00304262
9.07222e-05
-0.000231828
0.00289241
3.0062e-05
-0.00025396
0.00318456
1.44534e-05
-0.000163807
0.00368211
4.40861e-05
-0.000208075
0.00313088
1.75246e-05
-0.000348046
0.00262945
6.29878e-05
-0.000225635
0.0028611
4.13726e-05
-0.00012681
0.0024372
5.46547e-07
-0.000101579
0.00210378
-3.80234e-05
-9.96608e-05
0.00249142
-4.12408e-05
-0.000191996
0.00323344
-3.6681e-05
-8.82898e-05
0.000257493
-5.46562e-05
-0.000123365
0.000544604
-4.31113e-05
-0.000153705
0.00177365
-2.86431e-05
-0.000178583
0.00166655
-1.64984e-05
-0.000154737
0.00202355
-7.68276e-06
-0.000195267
0.00164357
6.85905e-06
-0.000197033
0.00231408
2.05484e-05
-0.000146417
0.00121565
1.10221e-05
-7.64413e-05
0.000823043
-7.77472e-06
-2.98867e-05
0.00133264
-2.48091e-05
-6.50981e-06
0.00235165
-2.53209e-05
-5.84715e-05
0.00321271
-1.70444e-05
-8.66715e-05
0.00357643
-2.58284e-05
-0.000204554
0.00462863
0.00318857
-0.000128558
0.00481194
0.00300696
0.000103142
0.0048111
0.00297303
-2.68357e-06
0.00520079
0.00259126
0.000124752
0.00530038
0.00261896
0.000209909
0.0050335
0.00264731
0.000148041
0.00507571
0.00226486
0.000258872
0.00523269
0.00225237
0.00025006
0.00478535
0.00222059
0.000291956
0.00468483
0.002202
0.000170701
0.00529723
0.00193525
6.96955e-05
0.00543301
0.00198598
0.000149641
0.00489433
0.00191051
0.000370482
0.00476663
0.00182987
0.000500844
0.00493153
0.00165787
0.000320535
0.00598046
0.001655
0.000190349
0.00568695
0.00177693
-3.3024e-05
0.00508878
0.00170967
0.000367085
0.00511913
0.00157439
0.000270667
0.00486488
0.00164511
0.000659375
0.00429266
0.00160256
3.0521e-05
0.00589163
0.00134837
3.37884e-05
0.00604206
0.00122034
0.000147313
0.00582983
0.00134001
0.00035824
0.00530623
0.00139949
0.000451124
0.00496244
0.00137683
0.000476196
0.00497209
0.00111315
0.00083398
0.00388861
0.000220644
-9.87612e-05
0.00627341
0.00139876
-4.70899e-05
0.00583525
0.0013113
0.000185768
0.00535226
0.00112305
0.00031136
0.00521464
0.00106217
0.000544024
0.00479347
0.00108212
0.000355535
0.00479762
0.000975469
0.000231642
0.00306921
0.000862746
0.000103964
0.00308686
0.000807271
3.5319e-05
0.00587777
0.00119466
-0.000125283
0.00575061
0.00110715
8.25728e-05
0.00581487
0.00100847
8.59754e-05
0.00494289
0.000887853
0.000168134
0.00470914
0.000626018
-0.000331069
0.00311913
0.000170499
-0.000327519
0.00285478
5.85929e-05
-0.000128089
0.00343883
4.43789e-05
1.52367e-05
0.00382885
0.000592789
-0.000152162
0.00576315
0.000885511
-0.00010841
0.00542966
0.00084743
-9.63941e-06
0.00521739
0.000746964
-0.000288926
0.00374511
0.000678959
-0.000460084
0.00323768
0.000502922
-0.000570951
0.00330477
0.000387321
-0.000411638
0.00412162
0.000515803
-4.15134e-05
0.00465167
0.000512459
0.00034458
0.00521105
0.000423244
0.000388422
0.00471103
0.000289918
-5.81297e-05
0.0046501
0.000617821
-0.000105273
0.00465841
0.000647854
-0.000155993
0.00386853
0.000459291
-0.000448109
0.00319162
0.000357595
-0.000556984
0.00402617
0.000319886
-0.000406799
0.00462588
0.000292445
-0.000224255
0.00413684
0.00041991
8.06536e-05
0.00432306
0.000309463
0.000135656
0.00444744
0.000181606
7.37381e-05
0.00415344
-7.78279e-06
-8.9013e-05
0.0032331
-0.000181187
-0.000103611
0.0038442
0.000163721
-4.32318e-05
0.00417389
1.44973e-05
-0.000292746
0.00418297
3.01582e-05
-0.000400437
0.00433708
3.70323e-06
-0.000284751
0.00472081
5.84094e-05
-0.000169442
0.00486521
-5.43827e-06
-0.000331918
0.00266226
0.000114739
-0.000181387
0.00352965
8.8899e-05
-6.60057e-05
0.00344353
-3.73174e-05
-8.82746e-05
0.00288099
-0.000115692
-0.000191523
0.00297646
-0.000135932
-0.000232501
0.00278232
-0.000171245
-7.16375e-05
0.00360214
2.95855e-05
-0.000195443
0.00305873
8.98866e-05
-0.000203588
0.00300409
2.89313e-05
-0.000225493
0.00325099
1.05431e-05
-0.000178209
0.00369103
2.9003e-05
-0.000226033
0.00318229
2.34451e-05
-0.000317233
0.00270196
6.52197e-05
-0.000240111
0.00296339
5.44011e-05
-0.000123205
0.00251415
1.11833e-05
-9.19961e-05
0.00219287
-2.6438e-05
-8.39054e-05
0.00258156
-5.07679e-05
-0.000190595
0.00336435
-4.00318e-05
-0.00015998
0.00328583
-7.51229e-05
-9.38592e-05
0.00035753
-5.86687e-05
-0.000115093
0.000651219
-4.61788e-05
-0.000149699
0.0019106
-3.03656e-05
-0.000174303
0.00182867
-1.64542e-05
-0.000150497
0.00216428
-6.73708e-06
-0.000188245
0.00181777
6.36178e-06
-0.000186799
0.00248441
2.33295e-05
-0.000145977
0.00137032
1.18523e-05
-7.47484e-05
0.000915739
-6.92545e-06
-2.43705e-05
0.00137381
-2.45817e-05
-2.40125e-06
0.00235481
-2.55711e-05
-2.7115e-05
0.00323074
-1.62328e-05
-7.55427e-05
0.00366085
-2.59265e-05
-0.000106273
0.00377639
-3.86855e-05
-9.33981e-05
0.00436362
0.00339173
5.79198e-06
0.00457854
0.00318091
0.000110605
0.00473289
0.00307672
1.05117e-05
0.00484115
0.00297874
0.000183124
0.00481099
0.0029487
0.000333074
0.0049
0.00289674
0.000272545
0.00513021
0.00262216
0.000437827
0.00509384
0.00261884
0.000343541
0.0049266
0.00263238
0.00046181
0.00450445
0.00256712
0.000301161
0.0050091
0.00226062
0.000204508
0.00505258
0.00231016
0.000198834
0.00480306
0.00218547
0.000403973
0.00481179
0.00206015
0.000689322
0.00497892
0.00205565
0.000260935
0.00542656
0.0019967
0.000255094
0.00532458
0.00197893
0.000118565
0.00484787
0.00188084
0.000465162
0.00480359
0.00177547
0.000615556
0.00482935
0.00158717
0.000800082
0.00383084
0.00180789
0.000267635
0.00578457
0.00165773
0.000134075
0.0055497
0.00169197
0.000216646
0.00514044
0.00165594
0.000587965
0.00499373
0.00160535
0.000558997
0.00478347
0.00154793
0.00073025
0.00422888
0.00145484
0.00110002
0.00365931
0.0013352
0.000140146
0.00573698
0.00142998
0.000103626
0.00590284
0.00133687
0.000537864
0.00544942
0.00124865
0.000566869
0.00500851
0.00138222
0.000533031
0.00501619
0.00135674
0.000709194
0.00499699
0.000998275
0.00102188
0.00434666
-0.000135137
0.0011916
0.00360544
-0.000745437
0.00010638
0.00626443
0.00139735
1.62057e-06
0.00584987
0.00125723
0.00032281
0.00540234
0.00102099
0.00058407
0.00477842
0.00106117
0.000516567
0.0043766
0.00113061
0.000258251
0.00429103
0.000999398
0.000313587
0.00278583
0.000617737
0.000476573
0.00289732
0.000447623
0.000744021
0.0027435
0.00019574
-7.15942e-05
0.00582197
0.0012149
-2.23169e-06
0.00574448
0.00109461
0.000167368
0.00577913
0.000965874
1.82299e-05
0.00474849
0.00089572
4.57105e-05
0.00453301
0.000558186
-0.00028037
0.00342108
3.34901e-05
-0.00019577
0.00286395
-5.4546e-05
0.000181861
0.00333958
-6.5533e-05
0.000649186
0.00345248
0.000116142
0.000871183
0.00444234
0.000449351
-1.7974e-05
0.00576264
0.000865326
-8.88016e-06
0.00537041
0.000848367
5.74194e-05
0.00511183
0.000739581
-0.000309051
0.00365741
0.000695608
-0.000448097
0.00332895
0.000478807
-0.000479695
0.0035864
0.000294186
-0.000350322
0.00424825
0.000386757
6.534e-05
0.00468165
0.00050113
0.00040328
0.00498513
0.000470753
0.000524298
0.00443097
0.00025275
0.000341761
0.00336075
-4.38105e-05
-1.02341e-05
0.0045475
0.000591728
-2.667e-05
0.00465592
0.000603752
-0.000215945
0.0039965
0.000443077
-0.000445853
0.00341571
0.000280613
-0.000508369
0.00430292
0.000304466
-0.000350799
0.0047979
0.000329227
-0.000355674
0.00408256
0.000370484
-8.23903e-05
0.00427523
0.000368743
9.9494e-05
0.00440598
0.000185423
0.000130009
0.00412261
-5.84083e-06
-7.50629e-05
0.00329089
-0.000182035
-0.00016686
0.00226809
-0.000309176
-7.34636e-05
0.00392366
0.000118497
-9.58051e-05
0.00423837
-4.01721e-07
-0.000248454
0.00428311
-4.07735e-05
-0.000363874
0.0045137
-8.0754e-06
-0.000265247
0.00476423
4.73168e-05
-0.000184066
0.00485652
2.51292e-05
-0.000304261
0.00251426
0.000129598
-0.000245385
0.00350758
0.000142084
-9.23835e-05
0.00350385
-2.23413e-06
-8.30732e-05
0.00292106
-8.63131e-05
-0.000200428
0.00310707
-0.000129779
-0.000217641
0.00287764
-0.000204205
-0.000236714
0.00295742
-0.000216446
-5.40436e-05
0.00348622
3.68811e-05
-0.000176941
0.00306676
8.34036e-05
-0.000194921
0.0031123
2.68936e-05
-0.000210791
0.00332286
-6.45307e-06
-0.000176748
0.00370267
2.51517e-05
-0.00022636
0.00323023
1.91747e-05
-0.0002706
0.00274212
6.70869e-05
-0.000245287
0.00305898
6.89401e-05
-0.00013316
0.00260227
2.4694e-05
-7.6103e-05
0.00227353
-1.77429e-05
-6.80301e-05
0.00266245
-4.16961e-05
-0.000154295
0.00347957
-3.88098e-05
-0.000143165
0.00340351
-9.00869e-05
-0.000197723
0.00375631
-0.000124096
-9.43837e-05
0.00046167
-6.21275e-05
-0.00010547
0.000746687
-4.86667e-05
-0.000145337
0.00204067
-3.09107e-05
-0.000164314
0.00197904
-1.64219e-05
-0.000141606
0.00229851
-9.07089e-06
-0.000182378
0.00198606
7.34206e-06
-0.000175104
0.00264262
2.32571e-05
-0.000139569
0.00151936
1.38574e-05
-7.21496e-05
0.00100584
-6.10053e-06
-1.95831e-05
0.00141039
-2.39223e-05
6.53528e-06
0.0023488
-2.51069e-05
-1.77056e-05
0.00324021
-1.73408e-05
-6.30474e-05
0.00373234
-2.46767e-05
-9.08379e-05
0.00388006
-3.87619e-05
-7.60239e-05
0.00372135
-4.48181e-05
6.10514e-06
0.0041625
0.00359146
0.000121284
0.00428427
0.00339381
0.000104787
0.00448178
0.00336862
0.000266642
0.00441222
0.00322854
0.000327118
0.00468898
0.00308083
0.00034537
0.00465584
0.0030801
0.000258812
0.00484271
0.00298653
0.000414122
0.00484332
0.00297011
0.00042123
0.0048387
0.00293232
0.000522104
0.00447343
0.00281817
0.000383899
0.00501034
0.00262255
0.000269709
0.00500185
0.00264895
0.000233669
0.0048475
0.0026631
0.000564817
0.0044944
0.00248158
0.000908311
0.00474028
0.00233849
0.000286583
0.00498991
0.0022768
0.000311311
0.00495193
0.00230505
0.000334768
0.00468532
0.00221171
0.000528716
0.00490143
0.00203227
0.000786397
0.00497491
0.00189332
0.000932207
0.00393727
0.00205559
0.000398051
0.00532015
0.00200837
0.00029661
0.00515112
0.00200762
0.000318441
0.00478666
0.00193834
0.00071615
0.00483242
0.00172382
0.000728697
0.00489808
0.00153703
0.000981354
0.00386041
0.00130649
0.00119326
0.00363903
0.00174705
0.000442838
0.00553799
0.0015954
0.000234594
0.00550205
0.00157441
0.000630915
0.00522913
0.00151023
0.000771253
0.00492635
0.00151893
0.000643812
0.00479266
0.00148537
0.000990362
0.00433709
0.00115855
0.00160336
0.00388468
0.000647994
0.00177297
0.00409161
0.000503018
0.000150291
0.00577932
0.00147647
0.000274734
0.00569445
0.00136525
0.000695269
0.00528041
0.00113342
0.000703977
0.00489608
0.00124118
0.000692894
0.0048299
0.00139217
0.00098326
0.00470169
0.000927032
0.0012098
0.00425642
0.000192304
0.001358
0.0033271
-0.000738228
0.0013551
0.00281618
-0.000613886
0.000160555
0.00612443
0.0014184
0.000173416
0.00583622
0.00123536
0.000469938
0.00526499
0.00109201
0.000640497
0.00411506
0.00106208
0.000512672
0.00377308
0.00119772
0.000327938
0.00404857
0.000764756
0.000476964
0.00272155
0.000390947
0.00093422
0.00285862
-9.59186e-05
0.0012851
0.00285478
-0.000299578
0.00175812
0.00286785
-0.00039274
0.000104546
0.00574348
0.00117888
8.63123e-05
0.00576864
0.00109555
0.000229571
0.00574018
0.000961402
-0.000128
0.00462217
0.000911142
1.55141e-05
0.00432758
0.00063754
-0.000146431
0.00365696
-1.09575e-05
1.95043e-06
0.00277989
-0.000234715
0.000373437
0.00310814
-0.000131206
0.000909288
0.00301366
-0.000132724
0.00113308
0.00389195
5.77583e-05
0.00120344
0.00355499
-8.51034e-05
8.77637e-05
0.00567631
0.000811609
0.000115991
0.00525524
0.000837828
-8.70542e-06
0.00503787
0.000715085
-0.000308178
0.00355816
0.000701157
-0.000475089
0.00344598
0.000545297
-0.000572744
0.00398214
0.000305009
-0.000316596
0.00412861
0.000374742
0.000133669
0.00433581
0.000516547
0.000410474
0.00469092
0.000484357
0.000602266
0.00419085
0.00023861
0.000410748
0.00327628
-0.000148591
0.000101989
0.00230018
-0.000380176
2.90566e-05
0.00441111
0.000584162
2.3044e-06
0.00457397
0.00057557
-0.000209124
0.00413104
0.000429881
-0.00044013
0.00366678
0.000268267
-0.000457056
0.00447894
0.000296405
-0.000336237
0.00492454
0.000329993
-0.000376763
0.00414683
0.000337456
-0.000125988
0.00413675
0.000389569
8.86122e-05
0.00439884
0.000194885
8.55626e-05
0.00416551
-2.61198e-05
-7.72463e-05
0.00333015
-0.000168277
-0.000166859
0.00233811
-0.000302837
-0.000385207
0.00245455
-0.000342401
-7.2361e-05
0.0040414
4.44852e-05
-8.64043e-05
0.00427954
-1.32086e-05
-0.000244437
0.00440148
-6.92571e-05
-0.000331759
0.00461709
-2.32014e-05
-0.00022323
0.00477223
3.04071e-05
-0.000192518
0.00482485
4.51431e-05
-0.000250116
0.00239887
0.000120036
-0.000270084
0.00347932
0.000182651
-0.000135948
0.00362237
2.63522e-05
-7.61024e-05
0.00299127
-7.24359e-05
-0.000168443
0.0032297
-0.000108525
-0.00019178
0.00298228
-0.000196932
-0.000237306
0.00308026
-0.000232899
-0.000240601
0.00363564
-0.000236842
-3.39486e-05
0.0033499
2.83206e-05
-0.000142557
0.00305518
8.55491e-05
-0.000195345
0.00322592
1.97911e-05
-0.000185953
0.00338712
-1.5722e-05
-0.000146946
0.00368765
1.39054e-05
-0.000201813
0.00325471
2.01048e-05
-0.000232071
0.00275389
6.43645e-05
-0.000237181
0.00314031
8.33612e-05
-0.000115398
0.00268
3.44641e-05
-6.3315e-05
0.00234808
-6.12465e-06
-4.29636e-05
0.0027306
-3.63984e-05
-0.000136657
0.00361071
-5.38817e-05
-0.000144595
0.00352736
-8.11144e-05
-0.000166092
0.00386811
-0.000126627
-0.000166706
0.0036474
-0.000134865
-8.73777e-05
0.000560826
-6.27123e-05
-0.000105709
0.000841984
-5.1715e-05
-0.000134642
0.00215746
-3.08156e-05
-0.000159272
0.00212427
-1.68743e-05
-0.000143664
0.00243497
-9.22213e-06
-0.000177945
0.00214977
5.16638e-06
-0.000160946
0.00278817
2.27312e-05
-0.000130721
0.00165806
1.5279e-05
-7.11575e-05
0.00109579
-4.93214e-06
-1.30801e-05
0.00144132
-2.3947e-05
1.42696e-05
0.00233567
-2.50587e-05
-1.21574e-05
0.00324542
-1.81597e-05
-4.68378e-05
0.00378961
-2.77714e-05
-6.90472e-05
0.00396339
-3.89537e-05
-6.1652e-05
0.00378932
-4.50733e-05
-2.02608e-05
0.00297708
-5.84527e-05
4.72095e-06
0.00404103
0.00387911
0.00016279
0.00416681
0.00363075
0.000116881
0.0042339
0.00362838
0.00028961
0.00429095
0.00342956
0.000432665
0.00440886
0.00336118
0.000298119
0.00437578
0.00342236
0.000209442
0.00448444
0.00325751
0.000629266
0.004535
0.00316737
0.00051992
0.00457904
0.00305894
0.00046947
0.00457969
0.00306681
0.000344619
0.00483454
0.00298719