/*--------------------------------*- C++ -*----------------------------------*\
  =========                 |
  \\      /  F ield         | OpenFOAM: The Open Source CFD Toolbox
   \\    /   O peration     | Website:  https://openfoam.org
    \\  /    A nd           | Version:  7
     \\/     M anipulation  |
\*---------------------------------------------------------------------------*/
FoamFile
{
    version     2.0;
    format      ascii;
    class       volScalarField;
    location    "5";
    object      nut;
}
// * * * * * * * * * * * * * * * * * * * * * * * * * * * * * * * * * * * * * //

dimensions      [0 2 -1 0 0 0 0];

internalField   nonuniform List<scalar> 
18780
(
0.000197605
0.000315203
0.000189533
0.000249913
0.000587323
0.000489024
0.000248873
0.000143673
9.61225e-05
0.000383563
0.000468473
0.000850934
0.00057362
0.000486749
0.000373176
0.000507848
0.000152926
8.72916e-05
0.000373595
0.000159133
0.00060555
0.000891883
0.000432423
0.000422224
0.000212494
0.000606826
0.000192517
0.000218857
0.000452616
0.000301069
0.000213279
0.000227941
0.000450064
0.000185064
0.000195236
0.000580566
0.000841626
0.000837318
0.00125176
0.000573598
0.000617602
0.00104583
0.000578544
0.000617122
0.00039798
0.000173562
0.000416533
0.00044901
0.000303355
0.000358827
0.000127028
0.000210296
0.000483774
0.000212196
0.000164405
7.67436e-05
0.000440255
0.000772842
0.000611907
0.000913905
0.000871339
0.000197259
0.000853011
0.0004475
0.000455111
0.000450843
0.000275907
0.000402459
0.000718408
0.000403846
0.000615564
0.000298073
0.000327867
0.000388674
0.000342051
0.000404086
0.000365404
0.000118826
0.000103749
0.000314583
0.000184034
0.000155192
0.000108547
0.00019127
0.000733911
0.000984773
0.000668346
0.000906209
0.000650219
0.000390393
0.000550201
0.000879948
0.000134473
0.000468271
0.0010846
0.000277349
0.000526227
0.000740285
0.000340598
0.00105591
0.000492862
0.000855771
0.000366753
0.000298676
0.000536325
0.000361293
0.000370164
0.000450935
0.000334974
0.000358719
0.000382909
0.000445101
0.000194067
0.000317614
0.000180572
0.00021635
0.000141222
0.000115855
0.000159304
0.0001555
0.000727249
0.000710363
0.000445998
0.000919193
0.00065355
0.000594216
0.000565988
0.000263025
0.000460305
0.000628083
0.000484732
0.000747207
0.00039429
0.000229451
0.000369757
0.00031886
0.000247268
0.000637414
0.000505298
0.000469801
0.000631807
0.000366264
0.000579579
0.000768237
0.000495503
0.000538832
0.000662009
0.000449024
0.000203224
0.000339768
0.000429713
0.000381178
0.000350093
0.000349117
0.000550398
0.000382632
0.000103033
0.000116823
0.000179734
0.000206498
0.000162235
0.000132367
0.000181281
5.54839e-05
0.000269061
0.0010384
0.000532489
0.000525635
0.00104017
0.000901104
0.000804799
0.000419307
0.000877836
0.000646378
0.000554939
0.000548123
0.000292468
0.000479587
0.000510931
0.000380124
0.000550652
0.000874185
0.000718537
0.000396342
0.000349257
0.000421634
0.000335759
0.00099772
0.000460572
0.000478584
0.000589759
0.000409431
0.000700361
0.000932117
0.000463025
0.000196011
0.000489407
0.000449603
0.000571231
0.000608821
0.000498549
0.000459723
0.00017978
0.000197128
0.000265193
0.000473067
0.000453589
0.000355831
0.000453549
0.000412144
0.000371552
9.45584e-05
4.24336e-05
0.00020267
0.00050571
0.000206137
0.000145659
0.000145488
1.66744e-05
0.000113597
0.000142945
0.0015261
0.000535918
0.00100275
0.000245797
0.000758916
0.000768087
0.000643423
0.00071429
0.000748592
0.000499677
0.000560095
0.000513013
0.0009144
0.000434683
0.000745521
0.000635261
0.000764007
0.000516684
0.000517691
0.000191524
0.000344975
0.000495481
0.000455238
0.000732569
0.000607439
0.000524953
0.000306221
0.000337388
0.000286816
0.000687276
0.000982616
0.000974457
0.00135678
0.000484834
0.000316772
0.000775544
0.000864478
0.000487582
0.000343251
0.000334189
0.000410297
0.000506836
0.000630525
0.000599642
0.00056215
0.000839439
0.000460911
0.000204258
0.000356007
0.00040719
0.000481677
0.000280478
0.000366336
0.000502745
0.00040027
0.000464943
0.000408107
0.000226645
0.000215061
0.000200136
0.000529098
0.000126861
0.000136508
0.000205085
4.08675e-05
0.000285204
0.000109354
0.000136172
0.000216276
0.000547499
0.00114872
0.000900461
0.000533544
0.00103748
0.000498672
0.000880849
0.00056267
0.000635835
0.000303726
0.000914529
0.000455156
0.000906771
0.000726354
0.000710893
0.000613473
0.00131045
0.000900135
0.000879607
0.000920087
0.000561205
0.00047506
0.000656309
0.000635231
0.000564042
0.000276498
0.000648659
0.000589108
0.000470149
0.000535391
0.000879284
0.000442553
0.00076417
0.000467182
0.000411396
0.000382907
0.00086924
0.000612141
0.000478582
0.000982397
0.00122798
0.000486372
0.000598162
0.000608176
0.000851523
0.000698418
0.000638931
0.000206625
0.000420324
0.000391018
0.000349997
0.000319819
0.000771493
0.000502952
0.000487597
0.000569924
0.000481982
0.000229023
0.000248245
0.000484834
0.00051194
0.000338837
0.00034318
0.000475089
0.000369039
0.000362635
0.000452119
0.000385102
0.000172444
0.000139797
0.000222321
0.000190558
0.000113285
0.000162477
0.000274181
6.86799e-05
0.000315699
0.000110947
0.000172212
0.000110812
0.000219176
0.000883262
0.00120939
0.00032549
0.000408817
0.000505669
0.00125057
0.0011028
0.00079288
0.000981669
0.000373874
0.00100985
0.000631613
0.0011682
0.00080504
0.000588669
0.000405176
0.00114708
0.00106195
0.0005715
0.00081793
0.000809318
0.000557528
0.000367252
0.000914092
0.000906521
0.00101498
0.000495171
0.000947795
0.000688697
0.000761181
0.000654731
0.00104988
0.000670843
0.000781191
0.000282222
0.000590306
0.000524147
0.000524832
0.000594778
0.000561787
0.000527582
0.000576051
0.000532711
0.000419423
0.000663491
0.000562939
0.000863552
0.000883224
0.000470861
0.0002935
0.000464131
0.000671441
0.000556281
0.000597503
0.000727618
0.000884025
0.000905144
0.000378411
0.000122456
0.000353099
0.000418907
0.000514844
0.000300629
0.000372503
0.000640962
0.000487185
0.000671911
0.000568399
0.000896407
0.000253524
0.000230584
0.000160378
0.00048611
0.000554638
0.000419143
0.000365629
0.000425029
0.000320471
0.000333289
0.000411212
0.000321326
0.000358671
0.000117771
0.000184081
0.000313929
0.000201263
0.000138085
0.000131555
0.000189777
0.000146422
0.000138125
0.000152898
0.000152417
0.000135024
0.000278129
0.000345432
0.000651324
0.000322342
0.000299917
0.000822021
0.00102879
0.000834252
0.000390101
0.00145921
0.00051646
0.00124836
0.000759347
0.00089859
0.00105982
0.000571372
0.000348406
0.000573738
0.000970407
0.000551026
0.00105968
0.000856853
0.000899155
0.000797147
0.000536863
0.000647478
0.00107769
0.000686343
0.000599653
0.000724567
0.000615521
0.000170219
0.000645044
0.000454474
0.000652329
0.000853916
0.00102763
0.00073111
0.00100853
0.000529713
0.000774318
0.000564391
0.000580697
0.00106381
0.000549889
0.000784592
0.000464315
0.000380876
0.000584708
0.000577511
0.000609162
0.000758979
0.000593784
0.000418291
0.000649636
0.00079526
0.000843776
0.000280991
0.000550865
0.00060593
0.00104441
0.00064774
0.000316932
0.000414086
0.000301416
0.00071565
0.000773278
0.000489182
0.000849036
0.000643419
0.000956044
0.000657821
0.000867412
0.000442934
0.000567614
0.000602638
0.000751166
0.000398849
0.00075542
0.000609841
0.000452296
0.000385222
0.000631302
0.000658807
0.000327944
0.000426067
0.00021335
0.000320005
0.00077884
0.000489547
0.000423473
0.000336156
0.000443975
0.00033756
0.000392614
0.000387727
0.000319343
0.000317729
0.000484334
0.000118196
0.000248411
0.000171751
0.00023413
0.000156093
0.000109538
0.000168662
0.000103789
7.93084e-05
0.000111088
0.000140174
0.000130117
0.0002722
0.000172748
0.000486512
0.000397817
0.000535282
0.000538949
0.000200659
0.000460658
0.000602702
0.000548798
0.000821466
0.00051969
0.000776968
0.000689695
0.000715514
0.000471471
0.001039
0.0003032
0.000536913
0.000437827
0.00104655
0.000637231
0.000997131
0.000846194
0.000302819
0.000554855
0.000678339
0.000838197
0.000588608
0.000562816
0.000815617
0.000676457
0.000852568
0.000791538
0.000284991
0.000520887
0.000431191
0.00128113
0.000391989
0.00054091
0.00036877
0.000601896
0.000366575
0.000870291
0.000740113
0.000887505
0.000708065
0.000632888
0.000516689
0.000686079
0.000656236
0.000414543
0.000578182
0.000853364
0.000385788
0.00062007
0.000679808
0.00067967
0.00118474
0.00079193
0.000824854
0.000517716
0.000395399
0.00066899
0.000347282
0.000526217
0.000360855
0.000315951
0.000667753
0.00102132
0.000593849
0.000468141
0.000666545
0.000818787
0.000542552
0.000417678
0.000389163
0.000347989
0.00053298
0.00101229
0.000563992
0.000515238
0.000544412
0.00051749
0.000719762
0.000520266
0.000636457
0.000372191
0.000413204
0.00065759
0.000543533
0.000970444
0.000516109
0.000580617
0.000612686
0.000688673
0.000372143
0.000575148
0.000535887
0.00024456
0.000365598
0.000714597
0.00041306
0.000190088
0.000508131
0.000448303
0.000367318
0.000340075
0.000464999
0.000353836
0.000355938
0.000378896
0.00033197
0.000361114
0.00052909
0.000298109
0.00022
0.00019248
0.000278815
0.00021782
0.000155351
0.000141816
0.000207488
0.000123334
8.4803e-05
0.000101094
0.000145189
0.000245882
0.000247582
0.000150236
0.000683895
0.000357901
0.000336886
0.00041318
0.00043387
0.000462798
0.000501455
0.000355722
0.000557138
0.000411318
0.000438024
0.000566148
0.000220069
0.000854196
0.000358982
0.00098493
0.000512822
0.000808176
0.000559731
0.000340481
0.000445275
0.000664354
0.000442981
0.000805595
0.000765759
0.000666417
0.000888304
0.00103361
0.000690606
0.00049176
0.000579751
0.000227511
0.000633245
0.000960967
0.000914651
0.000791092
0.000795031
0.000365294
0.000359915
0.000282079
0.000727682
0.0010411
0.000541624
0.0006654
0.000632135
0.000686689
0.000832683
0.000497051
0.00061285
0.000315497
0.000990038
0.000255005
0.000849151
0.000624254
0.000504442
0.000591373
0.000575153
0.000539064
0.00069055
0.00127202
0.000732086
0.000454939
0.000541196
0.000642051
0.000875151
0.000399755
0.000281597
0.000550779
0.000519352
0.00109478
0.000940736
0.000804206
0.000820361
0.000360765
0.000626168
0.000690671
0.000627354
0.00067485
0.000263992
0.000228691
0.00032962
0.0010337
0.00121966
0.000545254
0.000687152
0.000752134
0.000676573
0.000698924
0.000371104
0.000740342
0.000431244
0.000408533
0.00104085
0.000505977
0.000475639
0.00055964
0.00051372
0.000741727
0.000468016
0.000604822
0.000329253
0.000585395
0.0005898
0.000325481
0.00049634
0.000433564
0.000538029
0.00045289
0.000626953
0.00063411
0.000410295
0.000482571
0.000489871
0.000367936
0.000446662
0.00057243
0.000618185
0.000231534
0.000182334
0.000542239
0.00048034
0.000335112
0.000354029
0.000433511
0.000360663
0.000395299
0.000352978
0.000332291
0.000333251
0.000454797
0.000780673
0.000659219
0.000257432
0.000305869
0.000192403
0.00029329
0.000173818
0.000205505
0.000146428
0.000159973
0.000115647
0.00010288
0.000202158
0.000148697
0.000421363
0.000139278
0.000647753
0.000119963
0.000286318
0.000571225
0.000366329
0.000385722
0.000571831
0.000413751
0.000302706
0.000397929
0.000550932
0.00028223
0.000667575
0.000391242
0.000297143
0.000527611
0.000443489
0.000377481
0.000790865
0.000413069
0.000608258
0.000407893
0.000893427
0.000588218
0.000510993
0.000810994
0.000646154
0.000441599
0.000884
0.000511656
0.000773189
0.000596571
0.000754155
0.000593873
0.000714028
0.000569036
0.0011155
0.000828824
0.00100259
0.00076108
0.000607861
0.000686061
0.000455021
0.00134199
0.000836221
0.000819349
0.000892768
0.00123683
0.000544301
0.000840398
0.000514139
0.000596862
0.000986282
0.000888862
0.000894277
0.00100291
0.000545622
0.000725005
0.00037736
0.000445395
0.000416084
0.000635424
0.000357765
0.000566286
0.00083279
0.00060905
0.000508942
0.000762656
0.00059091
0.000460199
0.00063881
0.00074939
0.000844167
0.000491612
0.000772045
0.000535466
0.000465106
0.000590969
0.000651323
0.000329718
0.000189428
0.000633016
0.000580668
0.00104723
0.00138162
0.000625758
0.00108327
0.000496463
0.000313077
0.000439853
0.000939544
0.000656883
0.000585084
0.000519018
0.000467214
0.00139559
0.0010399
0.000497829
0.000770225
0.000588344
0.000676077
0.000595023
0.000536009
0.000614629
0.000505281
0.000472096
0.000284693
0.000726511
0.000643627
0.000771636
0.000518521
0.000727589
0.000783135
0.000688442
0.000388863
0.0004393
0.000423048
0.000370737
0.00101588
0.000976145
0.00118364
0.00067183
0.000413411
0.000651928
0.000376945
0.000524428
0.000445485
0.00044301
0.000512627
0.000570473
0.000303221
0.000524683
0.000746498
0.00127266
0.000553734
0.000418262
0.000268152
0.000590096
0.00065916
0.000374359
0.000368266
0.000370383
0.000359
0.000411442
0.000283774
0.00031784
0.000370155
0.000541794
0.000460672
0.000567257
0.000582455
0.000307021
0.000187705
0.00047934
0.000198208
0.000175633
0.000107794
0.000150371
0.000124165
0.000130317
9.87704e-05
0.000150254
0.000153358
0.000279806
0.00012236
0.000572486
0.000187031
0.000199608
0.000300585
0.000298817
0.000373054
0.000348872
0.000627432
0.000437011
0.000563789
0.000352845
0.000511211
0.000334794
0.000350301
0.000456911
0.000542114
0.000372143
0.000441975
0.00036689
0.000340072
0.000454639
0.000500734
0.000634621
0.00054549
0.000947526
0.00050383
0.000479517
0.000501847
0.000448979
0.000631408
0.000346602
0.00123772
0.000615324
0.000718683
0.00079057
0.00074582
0.000475502
0.000628814
0.000658494
0.000459162
0.000517222
0.000705501
0.00048344
0.000762028
0.000567184
0.000793469
0.00069306
0.000765559
0.00100156
0.00119318
0.000471042
0.000287698
0.000439685
0.0002584
0.000751755
0.000572144
0.000534015
0.00114248
0.00112549
0.000408189
0.000830215
0.000338775
0.0003883
0.000598155
0.00114065
0.00107996
0.00067337
0.000766135
0.000927937
0.00101797
0.000501096
0.000528861
0.0004355
0.00024867
0.000738851
0.0011543
0.000868718
0.000419967
0.000594141
0.000919429
0.00142385
0.000679171
0.000410818
0.000379238
0.000452231
0.000512857
0.000891022
0.000480984
0.00058145
0.000572252
0.000533264
0.000281976
0.000429475
0.000583883
0.000464944
0.00041893
0.000647808
0.000526872
0.000534887
0.00103466
0.00103565
0.00090459
0.00061512
0.000463985
0.000937626
0.000487593
0.000588348
0.000671588
0.000490055
0.000574538
0.000427059
0.00133872
0.000750132
0.000538967
0.00083231
0.000748892
0.000318998
0.00054097
0.000557443
0.000477004
0.000424962
0.000412755
0.000709236
0.000584766
0.000417697
0.000499074
0.0007552
0.000540384
0.000748326
0.000548877
0.00064448
0.000460169
0.000397567
0.000321769
0.000543385
0.000604939
0.000736788
0.00114663
0.000536694
0.000415555
0.000336239
0.000555978
0.000513515
0.000521728
0.00040994
0.000425037
0.000491761
0.000614827
0.000369857
0.000347074
0.000453785
0.000855954
0.000833742
0.000249307
0.000469763
0.000454559
0.000680126
0.000459192
0.00033847
0.000360338
0.000355606
0.000363434
0.000431781
0.000283193
0.000289203
0.000394641
0.000637501
0.000490078
0.000522001
0.000491089
0.000355919
0.000224294
0.000121688
0.000176407
0.000591324
0.000198382
0.000240849
0.000263247
0.000210342
0.000147771
0.000125852
0.000119367
0.000167754
0.000259754
0.000119422
0.000491937
0.000108253
0.000212608
0.00034161
0.00072245
0.000473142
0.000435191
0.000338954
0.00036791
0.000446217
0.000314503
0.000441733
0.000552412
0.000356431
0.00044112
0.000436923
0.000414919
0.000361216
0.000311557
0.000547251
0.000425834
0.00032758
0.000396473
0.000253283
0.00043668
0.000832509
0.000775064
0.000421305
0.000486243
0.000504745
0.000334517
0.000541286
0.000578399
0.000713175
0.000571128
0.000604457
0.000566621
0.000476818
0.000571926
0.000823478
0.000479842
0.000852531
0.000200267
0.000426528
0.000650061
0.000430798
0.000496332
0.000824777
0.000876889
0.000587901
0.000532259
0.000359772
0.000748112
0.000193043
0.000762674
0.000240806
0.000759203
0.000691311
0.000575523
0.00107837
0.000630361
0.000860296
0.00042607
0.00047194
0.000267838
0.000536724
0.00072139
0.00053989
0.000615612
0.00112909
0.000715428
0.000900332
0.000426272
0.000332377
6.10902e-05
0.000238743
0.000308409
0.000799491
0.00113261
0.000650633
0.00051756
0.000581858
0.000775088
0.000412303
0.000460596
0.000468689
0.000351216
0.000259179
0.000796451
0.000342062
0.000575216
0.000679866
0.000684954
0.000822677
0.00109828
0.000659676
0.00050683
0.000508616
0.000284124
0.00045047
0.000670731
0.000557557
0.00136777
0.000367205
0.000553339
0.000561617
0.000711371
0.00135245
0.000297255
0.00048439
0.000874577
0.000518875
0.000322924
0.000483299
0.000729287
0.00131868
0.000729216
0.000745931
0.00064279
0.000306001
0.000349222
0.000588161
0.000549625
0.00059075
0.000637257
0.000497221
0.000376649
0.000388228
0.000503029
0.000489744
0.000714952
0.000809824
0.000706526
0.00042296
0.000675009
0.000601831
0.000410098
0.000453126
0.000681422
0.000695373
0.00108389
0.000572954
0.000843453
0.000712242
0.000767534
0.000482433
0.000601548
0.000542246
0.000670711
0.000415876
0.000517064
0.00038794
0.000591763
0.000828837
0.000961707
0.00183575
0.000601949
0.00024034
0.000474073
0.000404124
0.00052934
0.000368023
0.000544238
0.000471679
0.000410119
0.000423145
0.000720044
0.000344857
0.000736044
0.000471186
0.000691326
0.000823389
0.000507056
0.000493046
0.000404028
0.000322443
0.0005306
0.000389363
0.000280858
0.000302921
0.000341507
0.000393015
0.000431766
0.000261302
0.000374417
0.000332817
0.000471683
0.000706792
0.000509423
0.00061721
0.000380542
0.000667336
0.00019043
0.000487926
0.000171584
0.000217576
0.000200511
0.000370997
0.000380201
0.000360591
0.000144543
0.000136498
0.000122116
0.000214914
0.000278556
0.000108726
0.000418463
0.000100647
0.00022995
0.000336934
0.000185832
0.000959418
0.000642772
0.0007196
0.000335604
0.000460614
0.000407347
0.000321045
0.000375709
0.000444662
0.00035089
0.000478447
0.000307858
0.000516986
0.000322102
0.000421838
0.000617734
0.000461093
0.000486647
0.000566334
0.00048773
0.000330128
0.000425155
0.000430109
0.000486249
0.000536166
0.00029944
0.000490245
0.000522658
0.000731503
0.000560559
0.000469861
0.000338346
0.000285863
0.000549191
0.000286477
0.00064192
0.000576678
0.000769122
0.000420577
0.000499589
0.000308441
0.000313744
0.000461707
0.000299727
0.000783203
0.00112579
0.000641484
0.000630258
0.000368992
0.00050531
0.000419162
0.000363084
0.000516357
0.00128109
0.000536518
0.00100664
0.000237842
0.000489229
0.000703238
0.000317945
0.000509809
0.000232607
0.000330467
0.000652952
0.000589762
0.000811367
0.000853881
0.000223438
0.000975902
0.000458988
0.000678567
0.000450853
0.000257097
0.000398767
0.000873776
0.000866022
0.00059337
0.00036719
0.00069118
0.000806197
0.00066076
0.000497165
0.000399557
0.000390519
0.000309397
0.000573694
0.000389054
0.000887832
0.00085219
0.000724935
0.000705571
0.000428898
0.00071902
0.000488395
0.000258162
0.000217834
0.000348464
0.000370031
0.000649742
0.000474967
0.0012831
0.000795708
0.000893805
0.000625024
0.000745042
0.000547442
0.000572107
0.000347734
0.000294985
0.000423708
0.00117429
0.000613425
0.000560419
0.00104292
0.000898851
0.00054841
0.000777544
0.000673798
0.000486428
0.000656314
0.000266958
0.000235851
0.000387887
0.000404881
0.000720213
0.000447152
0.000578549
0.000683352
0.000799893
0.000823055
0.000542069
0.000581329
0.000588227
0.000474332
0.000597392
0.000697668
0.00085638
0.000433068
0.000514693
0.000243561
0.000478163
0.00035994
0.000741643
0.000491968
0.000717882
0.000613935
0.000560104
0.000620597
0.000750343
0.00075801
0.000454314
0.000634362
0.00126468
0.00141961
0.00157966
0.00060817
0.00067109
0.000372465
0.000619454
0.00043902
0.000522673
0.000483069
0.000721237
0.000460504
0.000333649
0.00054638
0.0005566
0.000534121
0.000703761
0.00115268
0.00082221
0.000557026
0.000337189
0.000494628
0.000760775
0.000610815
0.000390637
0.000525189
0.000578748
0.000393767
0.000439951
0.000587059
0.000350089
0.000540199
0.000481198
0.000778848
0.000816681
0.000601595
0.000505307
0.000850661
0.000348473
0.000200337
0.000683787
0.000699449
0.000374452
0.000329101
0.000363305
0.000385302
0.000446611
0.000244393
0.00037985
0.000376501
0.000439054
0.000469231
0.000362589
0.000767911
0.000405198
0.000832045
0.000344581
0.000255128
0.000379973
0.000491442
0.000138006
0.000213104
0.000430224
0.000530768
0.000118859
0.000188599
0.000103352
0.000138932
0.000150904
0.000252131
0.000173165
0.000381092
0.000238161
0.00023113
0.000279505
0.000196207
0.000156397
0.00111502
0.000939642
0.000954888
0.000690437
0.000645794
0.000755861
0.000434111
0.000418489
0.000308571
0.000391491
0.000340477
0.000339688
0.000454397
0.000424033
0.000533417
0.000493766
0.000497939
0.000290372
0.000498731
0.000439768
0.000375061
0.000917179
0.000581268
0.000523609
0.000729223
0.000398664
0.000296123
0.000587526
0.000476986
0.000563805
0.000468294
0.000489186
0.000454283
0.000425065
0.000656593
0.000452566
0.000279029
0.000613752
0.000740131
0.000263555
0.00035845
0.000465657
0.000270658
0.00048853
0.000472113
0.000736878
0.000178563
0.000706103
0.000352612
0.000250506
0.000456788
0.000366218
0.000464769
0.000444039
0.00100303
0.000702896
0.000523839
0.000838534
0.000261295
0.000445073
0.000418169
0.000510161
0.000373408
0.00030655
0.000781272
0.00121977
0.000886363
0.000933885
0.000357557
0.000682768
0.000503849
0.000402421
0.00057595
0.000281036
0.000407106
0.000787104
0.000839007
0.000541947
0.000501664
0.00110144
0.000798891
0.000388246
0.00051669
0.000501475
0.000355795
0.000356056
0.000355005
0.000331938
0.000533436
0.000693459
0.000564762
0.00086493
0.000623813
0.000393554
0.000686551
0.000225216
0.00037191
0.000308679
0.000279177
0.000715377
0.000634518
0.000567281
0.00100164
0.000641303
0.000781128
0.000565072
0.000686707
0.000687794
0.000277236
0.000411026
0.0002894
0.000515079
0.000173239
0.000464567
0.000822583
0.000948258
0.000833417
0.00068563
0.000595805
0.00062001
0.00118517
0.000710423
0.000165933
0.000263219
0.000336511
0.00049672
0.00115118
0.000588722
0.000460651
0.000569185
0.000958011
0.000458569
0.000720878
0.000613709
0.000132314
0.000721926
0.000466051
0.000421294
0.000662746
0.00076156
0.000424893
0.00117311
0.000437307
0.000399025
0.000640676
0.000711997
0.000864749
0.000626914
0.000596026
0.000641663
0.000518676
0.000527027
0.000902246
0.00088228
0.000619046
0.000697853
0.00100442
0.00078535
0.000503675
0.000484139
0.000776773
0.000744571
0.000646126
0.000742522
0.000515029
0.000559202
0.000887058
0.00127424
0.000666653
0.000685541
0.00078388
0.00108045
0.00142165
0.000617574
0.000583155
0.000584392
0.000412648
0.000566069
0.000393701
0.00051054
0.000445496
0.000498933
0.000593142
0.000298544
0.000539856
0.000529273
0.000586006
0.000659126
0.00202862
0.00112847
0.00150917
0.000580699
0.00057007
0.00042202
0.000772334
0.000570104
0.000756588
0.000610855
0.000615208
0.000502299
0.000513661
0.000471598
0.00029851
0.000450923
0.000636922
0.00127624
0.000845901
0.00055861
0.00064515
0.00102111
0.000560002
0.000390304
0.000278845
0.000648519
0.000679607
0.000371551
0.000414129
0.000391136
0.000380808
0.000442943
0.000244435
0.000553245
0.000289514
0.000477209
0.000816363
0.000485198
0.000543464
0.000496325
0.00106258
0.000403932
0.000275651
0.000231252
0.0003518
0.000348515
0.000180597
0.00025554
0.000198892
0.000455265
0.000127208
0.000126197
0.000116113
9.69356e-05
0.000121791
0.000257344
0.000177861
0.000355689
0.000217708
0.000192335
0.000253808
0.000184578
0.000186231
0.000453293
0.00099594
0.00111634
0.00107501
0.00083447
0.000819269
0.00103814
0.000608943
0.000678381
0.000636631
0.000591309
0.000656454
0.000292105
0.000377857
0.000367446
0.000352583
0.000401247
0.0004202
0.000408022
0.000477763
0.000453231
0.000373657
0.000488742
0.000445015
0.000449929
0.000453533
0.000565869
0.000378672
0.000348561
0.000642553
0.000672692
0.000514707
0.000620121
0.000406178
0.000440119
0.000558381
0.000355791
0.000460838
0.000398456
0.000378698
0.000406956
0.000444645
0.000338867
0.000431162
0.000616921
0.000281093
0.000513299
0.000495426
0.000568086
0.000453703
0.000327888
0.000462006
0.00041313
0.000372896
0.000528917
0.000393987
0.000554651
0.00115703
0.000461351
0.000303934
0.000566611
0.000450215
0.000421756
0.000547605
0.000376393
0.000293325
0.000671194
0.000609516
0.000974296
0.000463266
0.00047028
0.000331448
0.000717575
0.000505748
0.00038523
0.000515612
0.000328856
0.000804057
0.000786818
0.00104202
0.000834129
0.000275244
0.000570442
0.000636895
0.000361277
0.000567889
0.000316272
0.000410108
0.000347881
0.000887061
0.000920969
0.000909905
0.000834886
0.00101392
0.000810449
0.000841629
0.000426155
0.000488958
0.000403716
0.000504803
0.000338936
0.000217262
0.000640955
0.000937075
0.00112508
0.000660877
0.000614834
0.000778445
0.00098733
0.00063071
0.000327788
0.000255934
0.000387267
0.000339154
0.000375605
0.000757532
0.000463421
0.000266644
0.000531763
0.000435611
0.000540074
0.000839344
0.000548136
0.000566416
0.00023662
0.000165293
0.000292498
0.000411205
0.000507986
0.000895338
0.000426056
0.000401797
0.000563765
0.000898913
0.00053455
0.000756431
0.000396651
0.000789711
0.000847407
0.000395939
0.000311112
0.000468449
0.000624643
0.000465068
0.000323137
0.000831856
0.000384658
0.000340555
0.00074658
0.000817421
0.00072431
0.000433702
0.000851679
0.000596372
0.000569191
0.00030545
0.000669672
0.0006085
0.00056394
0.00123883
0.00095985
0.000634678
0.000732067
0.000625758
0.000599635
0.000736431
0.000532482
0.000482125
0.000519293
0.000483707
0.000751435
0.00101312
0.000919838
0.000616342
0.000980104
0.0017435
0.00233049
0.00127948
0.000263434
0.000513684
0.000646179
0.000983324
0.000647087
0.000544001
0.000549133
0.000646501
0.001102
0.000955936
0.000754227
0.000727431
0.00056598
0.00125209
0.00144594
0.000324393
0.00111901
0.000842164
0.000521249
0.000503391
0.000596704
0.000721126
0.000595786
0.000482775
0.000670825
0.000667191
0.000452909
0.000195868
0.000460029
0.000354618
0.000542284
0.00106188
0.001088
0.000955237
0.000507975
0.000960177
0.000752314
0.000469232
0.000411562
0.000705012
0.000219221
0.000404373
0.000731002
0.000407573
0.000491069
0.000426564
0.000561324
0.000611865
0.000532749
0.000622736
0.000712477
0.000828109
0.00056332
0.000992814
0.000595785
0.00056257
0.000402593
0.000318735
0.00137071
0.000378476
0.000443645
0.000479866
0.000329573
0.000389859
0.000439453
0.000268909
0.000614977
0.000184862
0.000373782
0.000584284
0.00043697
0.000455022
0.000710522
0.00110272
0.000390681
0.000277976
0.000297897
0.000187005
0.000183302
8.54752e-05
0.000316566
0.000194901
0.000104454
0.000219662
0.000580915
0.000226672
0.000117391
0.000300594
0.000133158
0.000251145
0.000196658
0.000339219
0.000225862
0.000176649
0.000276582
0.000168488
0.000163325
0.000328987
0.000563677
0.00225338
0.000981946
0.000897647
0.00110024
0.00092213
0.00107045
0.000843258
0.000883847
0.000974369
0.000897887
0.000735512
0.000564875
0.000636914
0.000657735
0.000686651
0.000554733
0.000362416
0.000279006
0.000402267
0.000465986
0.00040155
0.000572701
0.000391395
0.000345076
0.000492776
0.000303388
0.000486353
0.000306404
0.000625927
0.000442827
0.000562555
0.000417566
0.000556432
0.000269917
0.000313506
0.000534011
0.000372206
0.000717171
0.000559939
0.000360834
0.000550876
0.000218904
0.000461163
0.000516023
0.000488892
0.000433724
0.000378731
0.000489713
0.000373628
0.000548219
0.000546534
0.000451927
0.000316454
0.000376112
0.000317357
0.000587697
0.000252175
0.000582258
0.000448143
0.000388859
0.000300922
0.000328581
0.000459123
0.000489618
0.000480219
0.000377741
0.000888138
0.000350761
0.000580057
0.000327668
0.000871158
0.000447397
0.000394871
0.000354964
0.000364838
0.00024957
0.000382124
0.00101148
0.00121382
0.000584338
0.000411885
0.000847004
0.000483223
0.000664135
0.000283582
0.0003889
0.000230857
0.000391657
0.000391393
0.000556711
0.000529131
0.00115151
0.000750091
0.000872049
0.000356077
0.000922352
0.00045793
0.000465247
0.000506993
0.000292355
0.000470941
0.000292847
0.000937721
0.000620353
0.00100915
0.000397833
0.000508592
0.000336897
0.000872144
0.00051677
0.000380494
0.000278602
0.000459546
0.00038366
0.000315202
0.00029643
0.00106851
0.000606801
0.00100676
0.00107987
0.000749845
0.00069143
0.00129431
0.000653815
0.000513544
0.000176007
0.000340171
0.000322887
0.000476066
0.000495399
0.000518376
0.000341272
0.000343239
0.000437259
0.000657515
0.000465105
0.000861102
0.000709059
0.000794285
0.000405201
0.000476062
0.000498761
0.000350668
0.000279826
0.000462715
0.000918203
0.000534377
0.000613877
0.000577518
0.00093397
0.000908283
0.000893654
0.000604912
0.000684388
0.00117967
0.000530218
0.00022818
0.000364216
0.000571191
0.000451844
0.000541963
0.000348727
0.00123842
0.000360331
0.000461422
0.000486225
0.000561887
0.000707611
0.000876462
0.000717871
0.000708233
0.000751237
0.000314334
0.000777727
0.000881402
0.000417488
0.00064317
0.000863878
0.000526607
0.00055785
0.000314624
0.000638094
0.000584855
0.000358596
0.000444634
0.000710097
0.00058369
0.000697555
0.00120178
0.00104403
0.000951596
0.000496395
0.000766221
0.000927201
0.00163912
0.000615458
0.000902289
0.000382592
0.000428505
0.000461308
0.000792235
0.000542339
0.000676746
0.000329959
0.000634069
0.00102424
0.000919227
0.000642669
0.000533148
0.000732506
0.000642242
0.00138914
0.00119749
0.000675726
0.000744538
0.000880645
0.000443951
0.000488976
0.000535756
0.000657734
0.000665291
0.000616474
0.000721207
0.000503337
0.00028956
0.0003278
0.000430661
0.000314232
0.000633482
0.00154864
0.00119893
0.000454952
0.000749099
0.00152926
0.000679331
0.000821614
0.000428661
0.00135047
0.00053622
0.000238731
0.000447547
0.000708191
0.000359893
0.000389777
0.000364507
0.000601446
0.000631681
0.000555777
0.00112322
0.000845768
0.000984509
0.000411332
0.00104962
0.000605753
0.000571072
0.000484576
0.00050654
0.000379883
0.000202101
0.000290967
0.000454122
0.000223305
0.000286658
0.000435803
0.000415521
0.000256636
0.000592735
0.000164314
0.000433681
0.00116029
0.000456166
0.000875469
0.000804968
0.000875058
0.000438027
0.000322424
0.00032456
0.000422586
0.000161222
0.00047335
0.000146005
0.000229506
0.00021026
7.3147e-05
0.000220448
0.000116507
0.000169903
0.000101918
7.52592e-05
0.000141997
0.000270257
0.000297375
0.000335999
0.000247936
0.00013347
0.000306778
0.000142904
0.00012029
0.000155841
0.000656701
0.000355946
0.00227279
0.00223596
0.00119397
0.000935957
0.000998734
0.00117309
0.000956692
0.00110954