/*--------------------------------*- C++ -*----------------------------------*\
  =========                 |
  \\      /  F ield         | OpenFOAM: The Open Source CFD Toolbox
   \\    /   O peration     | Website:  https://openfoam.org
    \\  /    A nd           | Version:  7
     \\/     M anipulation  |
\*---------------------------------------------------------------------------*/
FoamFile
{
    version     2.0;
    format      ascii;
    class       surfaceScalarField;
    location    "5";
    object      phi_0;
}
// * * * * * * * * * * * * * * * * * * * * * * * * * * * * * * * * * * * * * //

dimensions      [0 3 -1 0 0 0 0];

internalField   nonuniform List<scalar> 
54184
(
-0.000161942
0.00185156
-3.09272e-05
-0.000434636
0.00100687
5.44542e-05
-0.000160879
0.00200403
-3.53271e-05
-0.000232287
0.00190255
-3.08796e-05
-0.000488342
0.000467281
0.000162989
-0.000449621
0.00125408
5.39309e-05
-0.000502848
0.000683497
4.63901e-05
-0.000152517
0.00214697
-3.41195e-05
-0.000249453
0.0021483
-3.16322e-05
-0.00020319
0.00172804
-3.87247e-05
-0.000837201
-0.00113159
0.000615071
-0.000538669
0.000592339
0.000168372
-0.000764442
-0.000690835
0.000138331
-0.00046167
0.00152087
4.08277e-05
-0.000546947
0.000989277
4.56449e-05
-0.000542473
-0.00112595
1.01349e-05
-0.000140409
0.00227836
-3.45731e-05
-0.000240392
0.00238324
-2.86632e-05
-0.000218265
0.00195492
-4.02449e-05
-0.00023834
0.00117219
-2.52799e-05
-0.0012589
0.000117696
0.000610789
-0.000912581
-0.000915627
0.000653751
-0.00108419
-0.000574872
0.000660963
-0.00062915
0.000800965
0.000104243
-0.000856787
-0.000352671
0.000140049
-0.000888557
-0.00134866
0.000133591
-0.000416911
0.00175925
3.15042e-05
-0.000532873
0.00128227
4.03143e-05
-0.000587081
-0.000719207
7.7215e-06
-0.000589989
-0.00185728
3.77373e-05
-0.000129505
0.00239641
-3.27181e-05
-0.000221225
0.00259652
-2.66289e-05
-0.000212385
0.00217792
-3.92829e-05
-0.000257739
0.00141727
-2.75858e-05
-0.000268401
-3.61764e-06
-1.76607e-05
-0.00141251
-0.00480927
0.00126114
-0.00125201
0.000394839
0.000595886
-0.00121252
-0.0016703
0.000701536
-0.0010224
-0.000635938
0.000558007
-0.00121218
-0.000246043
0.00068032
-0.00120268
-0.000842331
0.000631167
-0.000572211
0.00102465
0.000107926
-0.000824628
-6.75971e-05
0.000110924
-0.000946905
-0.00097177
0.000122986
-0.000972859
-0.00181722
0.000179611
-0.000354143
0.00194853
2.9939e-05
-0.000498883
0.00156021
3.1221e-05
-0.00058277
-0.00030927
7.6269e-07
-0.000653126
-0.0014878
3.36292e-05
-0.00061068
-0.00206068
1.64149e-05
-0.000114168
0.0024995
-3.37952e-05
-0.000216087
0.00280172
-2.18292e-05
-0.000209022
0.00239848
-3.81681e-05
-0.000252402
0.0016589
-2.85123e-05
-0.000301765
0.00028963
-1.90684e-05
-0.000238733
0.000605143
-2.2608e-05
-0.00167565
-0.00495083
0.00167686
-0.00144482
-0.00472458
0.00123277
-0.00145913
-0.0041413
0.00127575
-0.00117496
0.000536115
0.000483612
-0.00148374
-0.00160004
0.000797184
-0.00160895
-0.0026933
0.000773279
-0.00102713
-0.000285452
0.000470286
-0.00115545
2.45885e-05
0.0006182
-0.00121028
-0.000560494
0.00066186
-0.00123691
-0.00182274
0.000547006
-0.000473708
0.00118712
0.000152621
-0.000740992
0.000231188
5.12508e-05
-0.000944857
-0.000596202
9.74415e-05
-0.00106239
-0.00147397
0.000189006
-0.000937919
-0.00215816
0.000153565
-0.000335707
0.00214148
2.1911e-05
-0.000475041
0.00182335
2.57532e-05
-0.000558895
7.80583e-05
-6.23388e-06
-0.000668112
-0.00109256
2.12376e-05
-0.000699141
-0.0016412
1.15281e-05
-0.000506739
-0.00199726
4.99102e-06
-9.95154e-05
0.00258651
-3.22075e-05
-0.000193262
0.00298356
-2.23756e-05
-0.000200922
0.00261408
-3.65087e-05
-0.000245249
0.0018952
-2.92203e-05
-0.000300641
0.00058154
-1.97819e-05
-0.000259597
0.000869379
-2.3707e-05
-0.000179407
0.000774063
-1.46791e-05
-0.00168129
-0.00547841
0.00233163
-0.00207926
-0.00465749
0.00177684
-0.00198695
-0.0035714
0.00169593
-0.00123895
-0.00474785
0.00108711
-0.00173919
-0.00392172
0.00126864
-0.00173433
-0.00359745
0.00113675
-0.00113637
0.000611161
0.000444131
-0.00139392
-0.00159046
0.000712494
-0.00164439
-0.00233896
0.000876948
-0.00153257
-0.00318109
0.000804621
-0.000843109
3.06766e-05
0.000435844
-0.00104163
0.000256811
0.000538697
-0.00125566
-0.000228436
0.000596944
-0.00137481
-0.00142364
0.00057518
-0.00119554
-0.00252965
0.000519899
-0.000415533
0.0013905
4.57207e-05
-0.000686548
0.000561837
3.34795e-05
-0.00090189
-0.000255659
5.37027e-05
-0.00110535
-0.00110994
0.00017065
-0.00107341
-0.00177008
0.000175202
-0.000800534
-0.0033988
7.60065e-05
-0.000318267
0.00232746
5.91649e-06
-0.000441033
0.00208819
4.8468e-06
-0.00053082
0.000441942
-8.23284e-06
-0.000662123
-0.000699615
1.76935e-05
-0.000703441
-0.00121892
1.75558e-06
-0.000579264
-0.0016672
1.1318e-06
-0.0003277
-0.00184137
4.08629e-05
-8.63141e-05
0.00265945
-3.12567e-05
-0.000186707
0.00315831
-2.02458e-05
-0.000191451
0.00281915
-3.59866e-05
-0.000237733
0.00212458
-2.81627e-05
-0.00029696
0.000869307
-2.00279e-05
-0.000253823
0.00112674
-2.33188e-05
-0.000198
0.000964491
-1.61345e-05
-0.000195055
-4.4685e-05
-1.14757e-05
-0.00140236
-0.00627659
0.00266347
-0.00206292
-0.00554004
0.00254525
-0.00184898
-0.00587474
0.00211748
-0.00167393
-0.00450789
0.00162062
-0.00182132
-0.00359753
0.00188508
-0.00184534
-0.00414321
0.00158412
-0.00125651
-0.00466308
0.000908564
-0.00180751
-0.0036282
0.00120718
-0.00193079
-0.00325189
0.00120948
-0.00171521
-0.00384251
0.00107286
-0.000893148
0.000640701
0.000421563
-0.00132165
-0.0015573
0.000690997
-0.00170987
-0.00202323
0.000850982
-0.00173781
-0.00281108
0.000869929
-0.0013795
-0.0037818
0.000790021
-0.000624769
0.000146304
0.000503789
-0.000914226
0.000418259
0.000502074
-0.00115365
1.98203e-05
0.000542205
-0.00145403
-0.00101574
0.00053772
-0.0013488
-0.00224892
0.000569839
-0.000976427
-0.00278921
0.00033638
-0.000407813
0.00155377
1.40992e-05
-0.00064428
0.000858242
-4.74379e-05
-0.00083625
5.89862e-05
2.42649e-05
-0.00106088
-0.000816414
0.000158934
-0.00107196
-0.00138106
0.000150153
-0.000928166
-0.00297281
9.81204e-05
-0.000569661
-0.00432592
6.3449e-05
-0.000279472
0.00251237
6.58263e-06
-0.000423427
0.0023245
6.32869e-06
-0.000513641
0.000796797
-2.78175e-05
-0.000657275
-0.000297776
9.47015e-06
-0.000698345
-0.000800935
1.093e-06
-0.000591774
-0.00132192
-5.57714e-06
-0.000411655
-0.00166308
3.64973e-05
-0.000264987
-0.00146689
1.97063e-05
-6.83322e-05
0.00271483
-3.12096e-05
-0.000167383
0.00331347
-1.90382e-05
-0.000180497
0.00301605
-3.66487e-05
-0.00022856
0.00234656
-2.9405e-05
-0.000296398
0.00115718
-1.96371e-05
-0.000247668
0.0013769
-2.25232e-05
-0.000196273
0.00115285
-1.54016e-05
-0.000213168
0.000166843
-1.44939e-05
-0.000192051
-0.000901539
-1.88878e-05
-0.00115043
-0.0058385
0.00317827
-0.00119351
-0.00622233
0.00293901
-0.00185194
-0.00639051
0.00300321
-0.00150811
-0.00627073
0.00246054
-0.00167192
-0.00559671
0.00240644
-0.00163046
-0.0059121
0.00239175
-0.00190091
-0.00544254
0.00198055
-0.00170255
-0.00440923
0.00155472
-0.00208866
-0.00343325
0.00173751
-0.00207619
-0.00385596
0.00174323
-0.00164392
-0.00495628
0.00147538
-0.00109258
-0.0044799
0.000795474
-0.00173628
-0.00344799
0.00114298
-0.00205537
-0.00284348
0.00114427
-0.00194561
-0.00354706
0.00112183
-0.00151314
-0.00429906
0.00100522
-0.000596653
0.000617281
0.000454524
-0.00119932
-0.00153619
0.000685554
-0.00159787
-0.0017055
0.000817483
-0.00172549
-0.00253365
0.000845013
-0.00163135
-0.00350065
0.000871336
-0.00119536
-0.00410757
0.000766609
-0.000707211
0.000445534
0.000386275
-0.000764067
0.000585003
0.000456831
-0.00110181
0.000290531
0.000496919
-0.00135652
-0.000692986
0.000515095
-0.00136047
-0.00195407
0.000531374
-0.00114983
-0.00240257
0.000404857
-0.000702286
-0.00385976
0.000101637
-0.000390845
0.00174088
6.83406e-05
-0.000632186
0.00108893
-7.83153e-06
-0.000820262
0.000355044
-3.68743e-05
-0.00104628
-0.000522521
0.000119379
-0.00105969
-0.00101485
0.000154071
-0.000943914
-0.00255667
8.61442e-05
-0.000728539
-0.00394859
3.76735e-05
-0.000308308
-0.00470012
0.000118711
-0.0002362
0.00265241
1.9472e-06
-0.000371106
0.00252968
5.12186e-06
-0.000467258
0.00111778
-2.78951e-05
-0.000647325
0.000101575
-8.40376e-06
-0.000715397
-0.000363446
-9.0192e-06
-0.000607911
-0.000948116
-1.24652e-05
-0.000432479
-0.00145853
2.60845e-05
-0.00031207
-0.00134871
1.72133e-05
-0.00027274
-0.00153228
-2.97109e-05
-5.70609e-05
0.00275557
-3.0924e-05
-0.000151199
0.00345258
-1.91216e-05
-0.000166434
0.00320137
-3.79281e-05
-0.000208218
0.00254863
-3.04981e-05
-0.000289627
0.00143838
-2.09766e-05
-0.000241485
0.0016204
-2.16511e-05
-0.000192797
0.00133774
-1.46246e-05
-0.000208945
0.000374356
-1.39695e-05
-0.000213785
-0.000680062
-2.21855e-05
-0.00015627
-0.00181945
-1.9636e-05
-0.00112214
-0.00621751
0.00330115
-0.000913305
-0.00603976
0.00312285
-0.00127582
-0.0056608
0.00292201
-0.00180631
-0.00609657
0.00337157
-0.00127954
-0.00623402
0.00273535
-0.00173304
-0.00628641
0.00304029
-0.00167466
-0.00616645
0.00294312
-0.00183382
-0.00568351
0.0023425
-0.00167618
-0.00566709
0.00226626
-0.00192721
-0.00589039
0.00222329
-0.00198119
-0.00535684
0.00221106
-0.00157833
-0.00550824
0.00190271
-0.00155849
-0.00425476
0.00140947
-0.00188509
-0.00337294
0.00164321
-0.00207039
-0.00383604
0.0017326
-0.00195403
-0.00487082
0.0016662
-0.00162903
-0.00492859
0.00132768
-0.000990968
-0.0040541
0.000705012
-0.00166576
-0.00321475
0.00102868
-0.00204453
-0.00236363
0.00110979
-0.00194351
-0.00327714
0.00109238
-0.00181196
-0.00409667
0.00110005
-0.00122171
-0.00495428
0.000852442
-0.000604547
0.000450178
0.000385079
-0.00111057
-0.00136984
0.000634681
-0.0015933
-0.00136276
0.000834299
-0.00167477
-0.00223203
0.000834112
-0.00163248
-0.00324448
0.000860859
-0.0014107
-0.00381979
0.000844436
-0.000763056
-0.00409688
0.000627469
-0.000658008
0.000763854
0.000235737
-0.000703985
0.0007919
0.000251178
-0.000957259
0.000453563
0.000430797
-0.00135208
-0.000359678
0.000469413
-0.00138557
-0.00163592
0.00052282
-0.00118119
-0.00204717
0.000413257
-0.000871418
-0.00341187
9.98484e-05
-0.000410019
-0.00502475
0.000100887
-0.000366465
0.0019351
2.54523e-05
-0.000569316
0.00136842
-1.29389e-05
-0.000724194
0.000616022
-1.18741e-05
-0.00102308
-0.000265594
8.19507e-05
-0.00109424
-0.000620569
0.000103944
-0.000978354
-0.00212146
8.93111e-05
-0.000787274
-0.00350455
-3.10595e-06
-0.000395531
-0.00467871
9.97244e-05
-0.00022239
-0.00372044
0.000155354
-0.000195935
0.00276359
-3.83968e-06
-0.000345402
0.00273494
-9.11188e-06
-0.00044363
0.00143666
-3.65639e-05
-0.000622431
0.000488475
-5.82247e-07
-0.000705297
6.58236e-05
-2.20026e-05
-0.000609345
-0.000565933
-2.33435e-05
-0.000447401
-0.00123193
1.55328e-05
-0.000313178
-0.00123408
1.56879e-05
-0.000306479
-0.00138869
-3.3677e-05
-0.000274955
-0.00194039
-2.25161e-05
-3.90717e-05
0.00278051
-3.11229e-05
-0.00013565
0.00357492
-1.7608e-05
-0.000150204
0.00337177
-3.93154e-05
-0.000181164
0.00272368
-3.181e-05
-0.000280999
0.00170917
-2.02957e-05
-0.000235177
0.00185434
-1.9735e-05
-0.000189679
0.0015195
-1.373e-05
-0.000206493
0.000577389
-1.11644e-05
-0.00021463
-0.000457438
-2.19633e-05
-0.000182182
-0.00163779
-2.1661e-05
-9.898e-05
-0.00283989
-2.16795e-05
-0.000869983
-0.00557897
0.00343922
-0.000771538
-0.00609876
0.00291851
-0.0010532
-0.00606959
0.00326452
-0.00183399
-0.006008
0.0036177
-0.000819535
-0.00588466
0.00288672
-0.00168466
-0.00541928
0.00278407
-0.00171443
-0.00607138
0.00354464
-0.00166937
-0.00607018
0.00320244
-0.00151115
-0.00578958
0.0025856
-0.00164673
-0.00636833
0.00296733
-0.00188136
-0.00608071
0.0029087
-0.00185255
-0.00562048
0.00275144
-0.00156656
-0.00541506
0.00214105
-0.00155471
-0.00573873
0.0020681
-0.00175053
-0.00594258
0.00218389
-0.00192848
-0.00543058
0.00215512
-0.0021186
-0.00514843
0.00201581
-0.00136713
-0.00477885
0.00165575
-0.00152886
-0.00394645
0.00125488
-0.00174583
-0.00346455
0.00158115
-0.00204266
-0.00385592
0.00166121
-0.00200029
-0.00478372
0.00170228
-0.00171623
-0.00488428
0.00152616
-0.00112704
-0.00579064
0.00110002
-0.000906166
-0.00369822
0.00065981
-0.00152089
-0.00303212
0.0009327
-0.00196354
-0.00196282
0.000998119
-0.00203387
-0.00288116
0.00107291
-0.00186798
-0.00386594
0.00109715
-0.00146812
-0.00472631
0.000929501
-0.000789403
-0.00527729
0.000812341
-0.000540703
0.000372466
0.000369198
-0.000971673
-0.00127884
0.000561765
-0.0013375
-0.00123467
0.000886834
-0.00169068
-0.00186567
0.000806538
-0.00165205
-0.00296832
0.00082443
-0.00144026
-0.0035156
0.000815731
-0.000945434
-0.00389856
0.00072013
-0.000176587
-0.0044811
0.000474476
-0.000596921
0.0010885
0.000122448
-0.000633058
0.000927314
0.000164065
-0.000878803
0.000569243
0.000290107
-0.00123337
-0.000135317
0.000416733
-0.00143513
-0.001324
0.000498381
-0.00124364
-0.0016401
0.000381035
-0.000994344
-0.00291892
0.000127376
-0.000493458
-0.00495564
0.000128656
-0.000284264
-0.00556578
0.000244421
-0.000287537
0.00207584
1.84692e-05
-0.000514592
0.00162282
-5.97579e-05
-0.000694651
0.000875776
-2.16731e-05
-0.00100259
1.16266e-05
9.10664e-05
-0.00108777
-0.00022915
7.30083e-05
-0.000994538
-0.00170276
7.04333e-05
-0.000779863
-0.00311379
3.10217e-05
-0.00044336
-0.00461476
6.31355e-05
-0.00032274
-0.00379649
0.000192033
-0.000242527
-0.0032222
0.000151719
-0.000148764
0.00284535
-7.32481e-06
-0.000314177
0.00292676
-1.71294e-05
-0.000422646
0.00175155
-5.15576e-05
-0.000595949
0.000881344
-1.46478e-05
-0.000688442
0.000484511
-1.18262e-05
-0.000604774
-0.000187869
-3.0469e-05
-0.000475411
-0.00097745
7.91188e-06
-0.000359051
-0.00108103
1.50368e-05
-0.000322534
-0.00123516
-2.994e-05
-0.00029668
-0.00183396
-2.56081e-05
-0.000253223
-0.003019
-7.37382e-07
-2.14153e-05
0.00278711
-3.10408e-05
-0.000118368
0.00368036
-1.81931e-05
-0.00013788
0.00352927
-3.72267e-05
-0.00016485
0.00288204
-3.28299e-05
-0.000271769
0.00196944
-2.03019e-05
-0.000227565
0.00208037
-1.87649e-05
-0.000186048
0.00169672
-1.09061e-05
-0.000203861
0.000777636
-1.0116e-05
-0.000214766
-0.000234637
-1.91992e-05
-0.000191683
-0.0014455
-2.2567e-05
-0.000121691
-0.00271613
-2.37225e-05
-2.91898e-05
-0.00337239
-4.09805e-05
-0.000928267
-0.00475524
0.00417689
-0.000698404
-0.00547416
0.00382485
-0.000798328
-0.00560577
0.00357761
-0.000860368
-0.00570051
0.00344812
-0.001479
-0.00631315
0.00391612
-0.000589319
-0.00622148
0.00284019
-0.00127416
-0.005948
0.00320326
-0.00122391
-0.00634337
0.00358688
-0.00172798
-0.00574935
0.003541
-0.000982827
-0.00580703
0.00274615
-0.00136363
-0.00559678
0.00271108
-0.00136473
-0.006281
0.00358557
-0.00151727
-0.00624327
0.00335365
-0.00153005
-0.00596326
0.00305362
-0.00138492
-0.00549376
0.00242205
-0.00136864
-0.00659973
0.0028331
-0.00189572
-0.00590627
0.00293809
-0.00143844
-0.00593796
0.00273614
-0.00174307
-0.00549554
0.00245638
-0.00121358
-0.00594897
0.00203177
-0.00149895
-0.00574427
0.00183038
-0.00160222
-0.00605999
0.0020419
-0.00203088
-0.00539297
0.00213451
-0.00202877
-0.00514877
0.00218393
-0.00144418
-0.00479005
0.00175496
-0.00103173
-0.00592087
0.00140613
-0.00147381
-0.00355554
0.00113896
-0.00170959
-0.0034784
0.00145742
-0.00191847
-0.00398645
0.00166661
-0.00202748
-0.0047725
0.00164361
-0.00189691
-0.00478983
0.00163676
-0.00145287
-0.00548736
0.00120763
-0.000546017
-0.00573786
0.00108559
-0.000816492
-0.00335815
0.000581259
-0.00142927
-0.0027903
0.000875582
-0.00176553
-0.00156579
0.000963691
-0.00201039
-0.00255759
0.000994251
-0.00194261
-0.00361269
0.00111022
-0.00151999
-0.00449144
0.000942026
-0.000929021
-0.0052765
0.000912298
-0.000152847
-0.00550687
0.000791447
-0.000501992
0.000363756
0.000252495
-0.000940409
-0.00110636
0.000504074
-0.00129987
-0.00105002
0.000798189
-0.0015341
-0.00151514
0.000837025
-0.00172368
-0.00265198
0.000778748
-0.00151
-0.00321223
0.000787426
-0.00108583
-0.00379061
0.000799263
-0.000518633
-0.00434255
0.000606758
-0.000221286
-0.00503753
0.000518101
-0.000410818
0.00129762
0.000127447
-0.0006074
0.00109898
4.35883e-05
-0.00091363
0.000725846
0.000226441
-0.00126961
5.64643e-05
0.000365347
-0.00145086
-0.000967201
0.000423025
-0.00131101
-0.0012398
0.000414557
-0.00103823
-0.00243309
0.000153572
-0.000610681
-0.00475029
8.93562e-05
-0.000454488
-0.00560557
0.00030019
-0.000326736
-0.00483642
0.00036348
-0.000224765
0.00222704
-7.93117e-06
-0.000442808
0.00184514
-7.52226e-05
-0.000693978
0.00113879
-5.14385e-05
-0.00100667
0.000342804
5.78681e-05
-0.00106996
0.000163712
7.97257e-05
-0.00100735
-0.00128567
5.84963e-05
-0.000857463
-0.00269846
3.71534e-05
-0.00057045
-0.00446437
9.20216e-05
-0.000394073
-0.00388353
0.000221716
-0.000259314
-0.00325786
0.000190327
-0.000302897
-0.00301155
0.000125121
-0.000122318
0.00291468
-6.41664e-06
-0.000265199
0.00309723
-3.09672e-05
-0.000409091
0.00206623
-6.05966e-05
-0.000586407
0.00128222
-3.08821e-05
-0.000679286
0.000897747
-2.03676e-05
-0.000596006
0.000207777
-3.90324e-05
-0.000491816
-0.000701633
-5.17277e-07
-0.000381868
-0.000905656
1.055e-05
-0.000316433
-0.0010922
-2.62572e-05
-0.000312169
-0.00171974
-2.36691e-05
-0.000310268
-0.00285007
-5.9569e-06
-8.10705e-05
-0.00389922
-3.6547e-05
-7.34961e-06
0.00277922
-3.16445e-05
-9.53275e-05
0.00376311
-1.84675e-05
-0.000125861
0.00367427
-3.73355e-05
-0.000155324
0.00303183
-3.16961e-05
-0.000259906
0.00221689
-2.03774e-05
-0.000217834
0.00229623
-1.83237e-05
-0.000180711
0.00186864
-9.974e-06
-0.000200228
0.000975671
-8.71349e-06
-0.00021431
-1.23105e-05
-1.81324e-05
-0.000198168
-0.00124425
-2.22864e-05
-0.000133966
-0.00257978
-2.49559e-05
-4.91222e-05
-0.0033012
-4.57867e-05
2.26628e-05
-0.00275663
-7.34786e-05
-0.000773727
-0.00474228
0.00425168
-0.000762376
-0.00484505
0.00420632
-0.000718348
-0.00463332
0.00420802
-0.000584434
-0.00568666
0.00381399
-0.000720734
-0.00514967
0.00390937
-0.000793474
-0.00615146
0.00378929
-0.000656839
-0.00559183
0.00353645
-0.00106862
-0.00557277
0.00346655
-0.000830606
-0.00652227
0.00359516
-0.00149776
-0.00630404
0.00376846
-0.000786786
-0.00626739
0.00296354
-0.0012233
-0.00546228
0.00313515
-0.000963119
-0.00660598
0.00377178
-0.00112929
-0.00604653
0.00349608
-0.00108933
-0.00598088
0.00327414
-0.00130112
-0.00560418
0.00266975
-0.00107867
-0.00535078
0.0026995
-0.0010049
-0.0065748
0.00365622
-0.00180541
-0.00620025
0.00345223
-0.00109838
-0.00619797
0.0032483
-0.00141049
-0.00554832
0.0027756
-0.0010509
-0.00589446
0.00238068
-0.00148011
-0.00683199
0.00275519
-0.00180054
-0.00574288
0.00286803
-0.00180108
-0.00602817
0.0027985
-0.0014973
-0.00570502
0.00241416
-0.00125411
-0.00592765
0.00224499
-0.000889709
-0.00538025
0.00207914
-0.00141958
-0.00568615
0.00164745
-0.00172531
-0.00606462
0.00185073
-0.0020992
-0.00527019
0.00209985
-0.0021317
-0.00508674
0.0021767
-0.00190674
-0.004567
0.00197071
-0.00127392
-0.00583457
0.00148972
-0.000665561
-0.00578228
0.00168717
-0.00123428
-0.00323477
0.00115429
-0.00168354
-0.00343269
0.00134752
-0.00168116
-0.00423715
0.00162374
-0.0019917
-0.0047723
0.00164772
-0.00193542
-0.00479679
0.00164339
-0.00159701
-0.00512433
0.00135074
-0.000671233
-0.00596229
0.00117427
-0.000633355
-0.00502524
0.0011671
-0.000684725
-0.00304524
0.000539382
-0.00134881
-0.00255126
0.000750628
-0.0016008
-0.00124741
0.000858131
-0.00196049
-0.0021152
0.000947692
-0.00207792
-0.00335312
0.00108892
-0.00167526
-0.00421985
0.00100388
-0.0011707
-0.00516964
0.000920043
-0.00068442
-0.00548285
0.00105406
-0.000232702
-0.00507425
0.000939632
-0.000402823
0.000479931
0.00026849
-0.000979876
-0.000904512
0.000423119
-0.00139464
-0.000809868
0.000744931
-0.001627
-0.00118628
0.000826713
-0.00174006
-0.00226821
0.000742446
-0.00161226
-0.00290734
0.000775105
-0.00125722
-0.00360557
0.000821369
-0.000646348
-0.00421947
0.000711855
-0.000453754
-0.00509041
0.000658906
-0.000343296
-0.00498831
0.000516005
-0.000353351
0.00156299
6.39268e-05
-0.000505259
0.00125893
2.99455e-05
-0.000941387
0.000892351
0.000124493
-0.00131912
0.000272879
0.000322481
-0.00142814
-0.000597514
0.000353839
-0.00135095
-0.000845838
0.000372656
-0.00109128
-0.00205096
0.000266244
-0.00077747
-0.00448288
9.31807e-05
-0.000544058
-0.00559611
0.000229883
-0.000428536
-0.00478476
0.000417747
-0.000264771
-0.00353546
0.000305594
-0.000186869
0.00236379
5.46005e-06
-0.000366215
0.00209179
-0.00015356
-0.000690446
0.00142761
-8.26831e-05
-0.00105094
0.000734958
2.09404e-05
-0.00106734
0.000568434
4.12031e-05
-0.00100463
-0.000840446
4.31304e-05
-0.000873477
-0.00228557
2.72641e-05
-0.000664373
-0.00425556
0.000110855
-0.000378617
-0.00396236
0.000233043
-0.000214874
-0.00334667
0.000213224
-0.000419202
-0.00284313
0.000130842
-0.000161343
-0.00374111
8.85752e-05
-2.93569e-05
0.00290229
-1.05536e-05
-0.000243921
0.00328844
-4.903e-05
-0.000392064
0.00236692
-6.54586e-05
-0.000546491
0.00165465
-4.18518e-05
-0.000664447
0.00130413
-3.27273e-05
-0.000573931
0.000592189
-4.86826e-05
-0.000496461
-0.000418757
-6.15928e-06
-0.000387678
-0.000726909
8.18675e-06
-0.000346777
-0.000921259
-2.79247e-05
-0.000357122
-0.00156268
-2.43623e-05
-0.00032867
-0.00267938
3.49525e-07
-0.000125054
-0.00378054
-4.87107e-05
7.66947e-05
-0.00411971
-0.000123735
1.25823e-05
0.00275214
-3.19683e-05
-7.95882e-05
0.00382959
-1.85355e-05
-0.000101622
0.00379525
-3.78265e-05
-0.000145065
0.00317219
-3.26302e-05
-0.000248302
0.00245354
-2.00428e-05
-0.000206259
0.00250006
-1.79554e-05
-0.000174195
0.00203327
-8.76099e-06
-0.00019783
0.00117205
-8.52399e-06
-0.000214364
0.000210766
-1.74259e-05
-0.000204318
-0.00103532
-2.2736e-05
-0.000144061
-0.00243377
-2.42327e-05
-6.42965e-05
-0.00321694
-4.49208e-05
1.339e-05
-0.00273273
-8.30819e-05
5.08901e-05
-0.0019114
-6.7193e-05
-0.000515721
-0.00497109
0.00416849
-0.000603477
-0.00486781
0.00430625
-0.000520104
-0.00469565
0.00410494
-0.00046751
-0.00500752
0.00410986
-0.000630012
-0.0047218
0.00420408
-0.000714352
-0.00461922
0.00410976
-0.000914638
-0.00566332
0.00432261
-0.000538078
-0.00533488
0.00388043
-0.000967095
-0.00484218
0.00387318
-0.000858817
-0.00604402
0.00400694
-0.000995372
-0.00600749
0.00370257
-0.000777832
-0.00555787
0.00351259
-0.00103617
-0.00530842
0.00355585
-0.000994099
-0.00641717
0.00412444
-0.00127256
-0.00621242
0.00364681
-0.0010826
-0.00618616
0.00368049
-0.00118543
-0.00561599
0.00300155
-0.0010091
-0.00522204
0.00305626
-0.000907486
-0.00655081
0.00381449
-0.00138133
-0.00635662
0.0036578
-0.0012156
-0.0057558
0.00338821
-0.00139852
-0.00546279
0.00312077
-0.00112667
-0.00533894
0.00273369
-0.00067275
-0.00548862
0.00270719
-0.00108609
-0.0070154
0.00371233
-0.0016569
-0.0061276
0.00343994
-0.00142033
-0.00638624
0.00325975
-0.00119897
-0.00550809
0.00290974
-0.00107514
-0.00588414
0.00258631
-0.0006577
-0.00593057
0.00243779
-0.00138683
-0.00703554
0.00256165
-0.00184347
-0.00571302
0.00284348
-0.00220179
-0.00587858
0.00282103
-0.00212839
-0.00553201
0.00262218
-0.00185487
-0.00575498
0.00218961
-0.000738629
-0.00587233
0.00220177
-0.000854838
-0.00522888
0.00212877
-0.00124092
-0.00548924
0.00154043
-0.00164152
-0.00600081
0.00154162
-0.00190992
-0.00527488
0.00208418
-0.00228464
-0.00485036
0.00215641
-0.00177994
-0.00455979
0.002014
-0.00145843
-0.00562261
0.00162018
-0.00089929
-0.00587944
0.00181494
-0.000855951
-0.00421622
0.00183726
-0.00106001
-0.00304063
0.00121226
-0.00149828
-0.00340542
0.00127649
-0.00168468
-0.00432888
0.00152313
-0.00199661
-0.00474832
0.00163589
-0.0021719
-0.00469227
0.00163718
-0.00173198
-0.00483578
0.00141156
-0.00102632
-0.00592247
0.00116654
-0.000685107
-0.00518106
0.00133077
-0.000508251
-0.00529731
0.00129681
-0.000697125
-0.00258008
0.000412639
-0.00139806
-0.00212371
0.000530004
-0.0015284
-0.0010585
0.00069548
-0.00185339
-0.00184502
0.000814335
-0.0021213
-0.00307945
0.00105526
-0.00177224
-0.00399553
0.00102458
-0.00132604
-0.00503441
0.000937479
-0.000825719
-0.00534683
0.000963398
-0.000493038
-0.00521366
0.00123276
-0.000254763
-0.00404699
0.00108562
-0.00029202
0.000485079
0.000259656
-0.000850796
-0.000687766
0.000397281
-0.00145425
-0.000529424
0.000655538
-0.00165007
-0.000776974
0.000666581
-0.00167183
-0.00196341
0.000765612
-0.00164818
-0.00259637
0.000728707
-0.00126075
-0.00349777
0.00083678
-0.000938225
-0.00400779
0.000770438
-0.000476988
-0.00511036
0.000664726
-0.00049958
-0.00489232
0.00063396
-0.000400678
-0.00497519
0.000507417
-0.000191553
0.00168896
7.169e-05
-0.000406964
0.00150833
-0.000144723
-0.000928595
0.00106458
9.58617e-05
-0.00141981
0.000541457
0.000224782
-0.00149077
-0.00018278
0.000331176
-0.00137922
-0.000480705
0.000363292
-0.00112673
-0.00168567
0.000260621
-0.000960051
-0.00411469
0.000193727
-0.00062376
-0.00552373
0.000265948
-0.000383444
-0.00473684
0.00035053
-0.000474727
-0.00345049
0.000388305
-0.000193143
-0.00352551
0.000342869
2.30104e-07
0.00241419
-4.00611e-05
-0.00033816
0.00238146
-0.000189976
-0.00068721
0.00172097
-0.000151774
-0.000995216
0.00110486
-3.86218e-06
-0.00105139
0.00097044
5.87444e-06
-0.000959474
-0.000433209
1.95094e-05
-0.000881604
-0.00190286
4.55683e-05
-0.000707326
-0.00400462
9.59712e-05
-0.000508121
-0.00393713
0.000246969
-0.000424776
-0.00327939
0.000233422
-0.000429086
-0.00268355
0.000154058
-0.00026072
-0.00360365
0.00012905
5.38302e-05
-0.00436589
-2.62823e-05
-7.71452e-05
0.00294543
-9.5338e-06
-0.000158348
0.00338358
-2.69379e-05
-0.000332935
0.00264032
-9.11144e-05
-0.000527983
0.00201626
-4.41495e-05
-0.000631607
0.00168655
-4.09595e-05
-0.000552186
0.00096105
-5.56609e-05
-0.000496611
-0.000130642
-1.43811e-05
-0.000406888
-0.000529675
5.66464e-06
-0.000352955
-0.000750732
-2.37497e-05
-0.000345598
-0.00142642
-2.29129e-05
-0.000355095
-0.00249321
4.93121e-07
-0.000179831
-0.00362142
-4.32279e-05
2.23532e-06
-0.00403363
-0.000123636
0.000150082
-0.00427412
-0.000206139
2.83282e-05
0.00270806
-3.22562e-05
-6.26682e-05
0.00387777
-1.74831e-05
-0.00010115
0.00391498
-3.71117e-05
-0.000127914
0.00329555
-3.32668e-05
-0.000231225
0.00267265
-2.05125e-05
-0.000194976
0.00269284
-1.78431e-05
-0.000168845
0.00219296
-8.79533e-06
-0.000194469
0.00136608
-8.32017e-06
-0.000214014
0.000433398
-1.71412e-05
-0.000208021
-0.000821918
-2.28122e-05
-0.000156358
-0.00227469
-2.54553e-05
-7.68841e-05
-0.00311943
-4.48623e-05
3.20443e-06
-0.0026969
-8.39477e-05
5.09873e-05
-0.00196867
-7.68023e-05
7.82033e-05
-0.000397901
-5.552e-05
-0.000483974
-0.00443811
0.00452072
-0.000478793
-0.00506725
0.00420987
-0.000509548
-0.00489695
0.00426349
-0.000311195
-0.0050011
0.00436681
-0.000306482
-0.00487092
0.00415798
-0.000513917
-0.00489998
0.00399524
-0.000810717
-0.00508217
0.00465305
-0.00053104
-0.00475176
0.00413278
-0.000629108
-0.00483985
0.00408672
-0.000527977
-0.00467206
0.00397839
-0.000799375
-0.00570529
0.00425092
-0.000851103
-0.00544305
0.00428651
-0.000618026
-0.00506352
0.00394196
-0.000970843
-0.00481739
0.00378826
-0.000910719
-0.00602052
0.00398681
-0.00114495
-0.00600026
0.0038721
-0.000965051
-0.00577952
0.00380668
-0.00105042
-0.00548803
0.0035572
-0.000818468
-0.00509841
0.00350951
-0.000762834
-0.00650089
0.00409141
-0.0012293
-0.00623915
0.00399915
-0.00122005
-0.00619424
0.00365934
-0.0012711
-0.00565382
0.0035909
-0.00106859
-0.00538006
0.00310149
-0.00076505
-0.00524448
0.00303983
-0.000764656
-0.00686714
0.00403329
-0.00139111
-0.00650739
0.00369947
-0.000884742
-0.00612177
0.00348817
-0.00103995
-0.00548002
0.00324642
-0.000997724
-0.00525228
0.0029567
-0.000635761
-0.00554834
0.00277146
-0.000715182
-0.00498481
0.00274424
-0.00119781
-0.00724805
0.00358714
-0.00127859
-0.00652597
0.00354583
-0.00198338
-0.00638443
0.00321971
-0.00186341
-0.00543892
0.0029256
-0.00166878
-0.00583872
0.00267823
-0.000666832
-0.0060094
0.00259334
-0.000663578
-0.00519456
0.00238452
-0.00106441
-0.00724148
0.00233059
-0.00173278
-0.00583696
0.00277685
-0.00198213
-0.00576955
0.00280667
-0.00211132
-0.00555429
0.00266999
-0.00177895
-0.00557557
0.00244178
-0.00121995
-0.00599742
0.00207622
-0.00102584
-0.00522062
0.00232007
-0.000625334
-0.00521716
0.00209668
-0.00111915
-0.00526323
0.00155767
-0.00151746
-0.00580312
0.00136193
-0.00196912
-0.00527846
0.00182964
-0.00228354
-0.00456449
0.00208524
-0.0021052
-0.0046119
0.00214181
-0.00185331
-0.00522299
0.00173571
-0.00114678
-0.00584453
0.00170573
-0.000688637
-0.00441488
0.00201713
-0.000639979
-0.00402089
0.00180372
-0.0010259
-0.00290149
0.00118116
-0.00144411
-0.00344097
0.00129387
-0.00156167
-0.00451724
0.00149811
-0.00188946
-0.00481281
0.00162369
-0.00228628
-0.00454965
0.00165825
-0.00183701
-0.00461679
0.00148296
-0.00127185
-0.00575314
0.00118804
-0.000859833
-0.00525714
0.00127673
-0.00062993
-0.00526133
0.00143168
-0.000370271
-0.00509712
0.00147181
-0.000440097
-0.0021826
0.000387591
-0.0010376
-0.00206062
0.00053636
-0.00107327
-0.00147361
0.000564133
-0.00165724
-0.00182958
0.000687205
-0.00202558
-0.00279299
0.000881609
-0.00182154
-0.00380634
0.00103944
-0.00147595
-0.00477424
0.000979601
-0.00117361
-0.00520736
0.00103339
-0.000520845
-0.00525428
0.00104787
-0.000380901
-0.00422134
0.00128844
-0.000441265
-0.00367466
0.00111275
-0.000182625
0.000568016
0.000262726
-0.000611432
-0.000650493
0.000426851
-0.00128731
-0.000346614
0.00057319
-0.00165829
-0.000463133
0.000580182
-0.00175532
-0.00165438
0.000622098
-0.00168837
-0.00221027
0.000688663
-0.00133286
-0.00330582
0.00074288
-0.00116208
-0.00374569
0.000776708
-0.000781411
-0.00490632
0.000724049
-0.00043091
-0.00479212
0.000611994
-0.000537716
-0.00491492
0.000636684
-0.000287646
-0.0040886
0.000563308
-3.77151e-05
0.00186726
3.60079e-05
-0.000333858
0.0017189
-0.000143176
-0.000821383
0.00113577
-8.17355e-05
-0.00137029
0.000826412
0.000185983
-0.00145186
0.00017452
0.00026796
-0.00134971
-8.79806e-05
0.000328689
-0.00117569
-0.00133148
0.000303181
-0.00107931
-0.00368551
0.000203421
-0.000766585
-0.00533196
0.000260423
-0.00064615
-0.00466876
0.000419243
-0.00044691
-0.00346013
0.000377998
-0.00033648
-0.00339243
0.000330987
-0.000161003
-0.00453449
0.000325805
-0.000131243
0.00255403
1.7266e-05
-0.00019804
0.00257249
-0.000191393
-0.000635931
0.00203987
-0.000205882
-0.000954579
0.00142406
-4.43733e-05
-0.000992929
0.00134679