/*--------------------------------*- C++ -*----------------------------------*\
  =========                 |
  \\      /  F ield         | OpenFOAM: The Open Source CFD Toolbox
   \\    /   O peration     | Website:  https://openfoam.org
    \\  /    A nd           | Version:  7
     \\/     M anipulation  |
\*---------------------------------------------------------------------------*/
FoamFile
{
    version     2.0;
    format      ascii;
    class       volVectorField;
    location    "5";
    object      U;
}
// * * * * * * * * * * * * * * * * * * * * * * * * * * * * * * * * * * * * * //

dimensions      [0 1 -1 0 0 0 0];

internalField   nonuniform List<vector> 
18780
(
(-0.945162 1.10765 -1.10934)
(-0.508891 1.8453 0.186369)
(-0.973407 1.052 -1.14668)
(-0.981454 1.9231 -0.313043)
(-0.275548 1.79847 0.593024)
(-0.566484 1.72897 0.102897)
(-0.359612 2.10975 0.65544)
(-0.963054 1.04806 -1.14622)
(-1.01117 1.91885 -0.332368)
(-0.907066 1.6396 -1.05742)
(0.611463 0.924449 1.98679)
(-0.17769 1.78359 0.501327)
(0.354585 2.25093 0.84756)
(-0.515919 1.71959 -0.088772)
(-0.360493 2.09444 0.64349)
(0.581751 1.98659 0.0059865)
(-0.999069 1.0537 -1.1607)
(-0.997831 1.93378 -0.298281)
(-0.93978 1.65039 -0.959841)
(-0.596042 1.85509 -0.774341)
(-0.0571117 2.74167 1.61566)
(0.414929 0.86492 1.99221)
(0.338067 1.89921 2.06088)
(-0.227407 1.96184 0.0658559)
(0.358169 2.21435 0.846221)
(0.623379 2.52208 0.482967)
(-0.597613 1.67479 -0.157417)
(-0.326396 2.05952 0.642942)
(0.528825 1.93048 -0.0427687)
(0.921682 2.32188 0.170469)
(-1.00691 1.0277 -1.192)
(-1.03731 1.90466 -0.302536)
(-0.94955 1.65852 -0.89392)
(-0.594706 1.8439 -0.771884)
(0.0186229 2.10959 -0.369689)
(2.32823 1.56823 2.22352)
(-0.103858 2.84597 1.31772)
(0.921275 2.83418 1.52876)
(0.661904 1.19194 1.64396)
(0.243577 1.99342 1.87086)
(0.333882 2.4256 2.17261)
(-0.152483 1.70452 0.344354)
(0.234423 2.16005 0.754762)
(0.711424 2.43608 0.385001)
(0.82024 2.71735 0.735369)
(-0.5538 1.65272 -0.110308)
(-0.514277 1.98145 0.582556)
(0.450217 1.89915 -0.100969)
(0.912686 2.30091 0.165192)
(1.07659 2.53863 0.382393)
(-0.993652 1.02782 -1.19412)
(-0.997484 1.93289 -0.192095)
(-0.934526 1.68628 -0.806645)
(-0.600565 1.8198 -0.799117)
(0.00187914 2.12179 -0.371591)
(-0.282393 1.95033 -0.42378)
(2.49908 2.37163 2.66268)
(2.40098 0.832942 2.22673)
(1.96656 1.31554 2.90882)
(0.0532143 2.87356 1.11269)
(0.760407 2.72055 1.47328)
(1.24337 2.80466 1.88233)
(0.356321 1.26416 1.11831)
(0.197436 1.92776 1.64978)
(0.550407 2.30082 2.12262)
(0.751133 2.67829 1.89494)
(-0.220606 1.38178 0.716168)
(0.384346 2.02476 0.502376)
(0.56916 2.43003 0.228442)
(0.950667 2.64833 0.638594)
(1.15733 2.632 0.952508)
(-0.658996 1.56423 -0.103507)
(-0.301148 1.96304 0.520183)
(0.335682 1.87562 -0.152275)
(0.840394 2.30756 0.112778)
(0.98432 2.58949 0.288475)
(1.00212 2.08237 -0.144917)
(-1.02829 1.01612 -1.1796)
(-1.02409 1.89796 -0.234163)
(-0.929263 1.67277 -0.733838)
(-0.617396 1.78868 -0.829529)
(-0.0156096 2.12692 -0.392146)
(-0.316822 1.92518 -0.402394)
(-0.394057 1.52076 -0.638102)
(2.76343 1.90714 3.56722)
(2.38349 2.53085 2.37544)
(1.74937 2.80354 2.94459)
(2.45116 0.522074 1.79801)
(2.12494 1.71351 2.36406)
(1.79107 2.51209 2.3614)
(0.187302 2.79773 0.922169)
(1.15051 2.45134 1.15951)
(1.45217 2.3378 2.04618)
(1.5718 2.57108 2.00066)
(0.289929 0.995861 1.09567)
(0.246323 1.69166 1.58614)
(0.318874 2.36828 1.97976)
(1.02189 2.5967 1.79048)
(1.2131 2.6662 1.67385)
(-0.27497 1.5055 0.182953)
(0.15974 1.91921 0.519532)
(0.581211 2.30359 -0.0264072)
(0.838791 2.69222 0.575607)
(1.03362 2.68966 0.964742)
(1.69489 2.25667 0.447587)
(-0.627812 1.51065 -0.26728)
(-0.60916 1.85977 0.401698)
(0.325557 1.81121 -0.156831)
(0.825629 2.27086 0.0718408)
(0.926766 2.55705 0.187797)
(0.973733 2.0832 -0.134233)
(0.897564 1.44959 0.237153)
(-1.01598 1.01714 -1.174)
(-0.991409 1.89147 -0.206663)
(-0.931361 1.67802 -0.717131)
(-0.625142 1.77097 -0.826922)
(-0.0165398 2.12153 -0.401596)
(-0.294155 1.91328 -0.410938)
(-0.399205 1.51399 -0.610928)
(0.0176195 1.66343 -0.0454282)
(2.99042 1.69595 3.65607)
(2.721 1.98604 3.42409)
(2.73258 2.14555 3.23663)
(2.53721 2.01642 2.25291)
(1.84847 2.49544 3.00428)
(2.05022 2.47908 2.88608)
(2.51395 0.363274 1.49245)
(1.98065 1.52784 2.32356)
(1.73729 2.44633 2.38715)
(1.88052 2.65377 2.17695)
(0.226829 2.43217 0.899256)
(1.04107 2.15316 1.18924)
(1.10969 2.33919 1.9952)
(1.60163 2.53746 1.9794)
(1.8447 2.39512 2.02738)
(0.120561 0.697115 1.48678)
(0.103152 1.65198 1.38407)
(0.431921 2.2153 1.69033)
(0.779608 2.76047 1.57912)
(1.25245 2.60681 1.619)
(1.46255 2.16593 1.76306)
(-0.284403 1.49575 -0.0993848)
(0.239523 1.93351 0.182979)
(0.570011 2.16804 -0.197957)
(0.913582 2.62477 0.468781)
(0.97331 2.67239 0.890507)
(1.60212 2.23751 0.522252)
(2.21636 1.42183 0.241961)
(-0.675839 1.46621 -0.261733)
(-0.366368 1.86983 0.342807)
(0.155865 1.82031 -0.332667)
(0.770178 2.23668 0.0429081)
(0.934836 2.5096 0.18513)
(0.963377 2.0707 -0.158695)
(0.9448 1.48924 0.159928)
(0.703689 1.52201 0.368917)
(-1.04089 0.965419 -1.18351)
(-0.979546 1.89587 -0.164188)
(-0.974108 1.6838 -0.68732)
(-0.621988 1.76202 -0.815692)
(-0.0419343 2.14123 -0.382899)
(-0.345809 1.90335 -0.412142)
(-0.390555 1.50549 -0.589914)
(0.0044916 1.65736 -0.0706856)
(0.426605 1.5675 -0.500154)
(2.87393 1.0291 3.25038)
(3.04977 1.064 3.61504)
(3.23584 1.60305 3.54701)
(3.04819 1.74531 3.28311)
(2.95476 1.25922 3.32515)
(3.01165 1.35123 3.33412)
(2.66536 2.0203 3.05651)
(2.51621 1.88021 2.06525)
(2.04534 2.64307 2.65025)
(2.05288 2.38955 2.88605)
(2.36167 2.22602 2.53165)
(2.36726 -0.127568 1.33826)
(2.0633 1.4356 2.01253)
(1.80721 2.57969 2.14311)
(1.9343 2.66659 2.00594)
(2.16819 2.31295 2.23067)
(0.175038 1.77946 1.12142)
(1.27122 1.627 1.09913)
(1.46977 2.00701 1.87648)
(1.47377 2.48241 1.92996)
(1.87023 2.39237 2.00206)
(2.02768 2.08244 1.88002)
(0.192541 0.814233 1.31804)
(0.249353 1.36184 1.43178)
(0.385596 2.06226 1.68059)
(0.854676 2.56284 1.48796)
(1.32739 2.55465 1.59948)
(1.23199 2.25929 1.80937)
(1.954 1.7984 0.418777)
(-0.26181 1.33026 0.291952)
(0.141013 1.81281 0.193751)
(0.498409 2.18156 -0.530787)
(0.921588 2.59545 0.400774)
(1.09069 2.58597 0.899902)
(1.59701 2.20733 0.380782)
(2.05366 1.61909 0.289142)
(2.28353 0.790204 0.270479)
(-0.756707 1.41676 -0.261559)
(-0.596419 1.78151 0.33865)
(0.222181 1.77899 -0.251997)
(0.714014 2.18674 -0.0644104)
(0.877542 2.54435 0.0978692)
(0.907139 2.07413 -0.166675)
(0.924879 1.51202 0.0994943)
(0.762122 1.46705 0.321042)
(0.722655 1.64046 -0.066392)
(-1.0268 1.00404 -1.17275)
(-0.990749 1.88695 -0.154845)
(-0.978598 1.6649 -0.670427)
(-0.68087 1.70215 -0.864967)
(-0.0476002 2.13222 -0.440277)
(-0.361865 1.90164 -0.409706)
(-0.391153 1.49716 -0.560137)
(0.017285 1.63241 -0.0544194)
(0.420124 1.57257 -0.548604)
(0.869274 1.26458 -0.372219)
(2.70928 1.15627 3.00515)
(2.88234 1.1803 3.33226)
(2.55395 1.26925 3.2291)
(3.05919 1.31354 3.70768)
(2.98513 1.19365 3.20547)
(3.18484 1.17143 3.65167)
(3.06805 1.4459 3.55794)
(2.75346 2.08153 3.06371)
(2.9944 1.17642 3.06476)
(3.0697 1.47697 3.07762)
(2.65804 1.8746 3.11799)
(2.65667 1.73994 2.78523)
(2.63331 1.64208 1.75733)
(2.08372 2.37111 2.62145)
(2.07777 2.30646 2.80366)
(2.48013 2.01907 2.58019)
(2.41423 2.05856 2.57081)
(2.02283 -0.406972 1.20786)
(2.00441 1.36257 1.77528)
(1.73337 2.48849 2.13054)
(1.92514 2.55332 2.045)
(2.09424 2.44752 2.1712)
(2.44426 1.98741 1.81325)
(0.454844 1.85917 0.85731)
(1.10094 1.39738 0.955608)
(1.07699 1.92973 1.94455)
(1.62838 2.1759 1.92105)
(1.91449 2.27124 1.95337)
(2.02624 2.07892 1.89142)
(2.00733 1.25054 1.98133)
(0.0808106 1.0487 0.782699)
(0.0831027 1.53231 0.942438)
(0.3314 2.02083 1.37278)
(0.840443 2.52892 1.3097)
(1.29435 2.54488 1.57669)
(1.3617 2.22163 1.61241)
(1.90175 1.8357 0.547082)
(2.44832 0.997765 0.222123)
(-0.333265 1.29484 0.15584)
(0.063811 1.6837 0.238888)
(0.477805 1.88262 -0.239444)
(0.960233 2.56849 0.212102)
(0.98581 2.70416 0.626786)
(1.49703 2.2224 0.413778)
(1.94813 1.55884 0.348017)
(2.31311 0.812103 -0.0564149)
(1.78566 0.639656 0.846238)
(-0.778736 1.36574 -0.266908)
(-0.599166 1.75641 0.283407)
(0.0662865 1.77435 -0.260618)
(0.632137 2.09668 -0.1577)
(0.839283 2.5166 -0.040808)
(0.863044 2.04102 -0.230549)
(0.938644 1.51007 0.0081228)
(0.788146 1.41529 0.234784)
(0.772707 1.58148 -0.0720527)
(0.920664 1.42369 -0.40051)
(-1.05769 0.958746 -1.1863)
(-0.984698 1.88383 -0.150203)
(-0.996494 1.6515 -0.684477)
(-0.754573 1.55501 -0.946862)
(-0.0511624 2.12865 -0.442258)
(-0.371283 1.9001 -0.410132)
(-0.401143 1.48506 -0.535084)
(0.000271628 1.62163 -0.0584151)
(0.413303 1.58117 -0.514371)
(0.862768 1.28263 -0.379855)
(1.37576 0.727375 -0.558115)
(2.59344 0.959892 3.03314)
(3.3908 0.34199 2.67046)
(2.66801 1.11051 3.05405)
(2.87326 1.19543 3.38023)
(2.96551 1.1808 3.08295)
(2.42862 1.58526 2.87662)
(3.06921 1.18382 3.79133)
(3.02392 1.16697 3.44426)
(2.74033 1.48399 3.05031)
(3.33981 0.885283 3.47594)
(3.22597 1.46275 3.50222)
(2.73991 1.62522 3.3545)
(2.63298 1.76908 3.00573)
(3.10606 0.73744 2.84539)
(3.07731 0.915912 3.02468)
(2.84421 1.65226 2.95847)
(2.67489 1.96951 2.81466)
(2.0684 1.80336 2.91424)
(2.56511 1.5204 1.56238)
(2.19087 2.12519 2.47498)
(2.25545 2.03637 2.61746)
(2.5533 1.84758 2.64078)
(2.4834 1.95234 2.61418)
(2.87442 1.55046 1.91993)
(1.83456 -0.603608 1.17573)
(1.96329 1.17019 1.57521)
(1.58332 2.50444 1.93791)
(1.9208 2.57617 1.99491)
(2.20058 2.3527 2.05076)
(2.40932 1.97996 1.87704)
(2.54481 1.47044 1.66163)
(0.370941 1.46588 0.965319)
(1.19102 1.02007 0.842921)
(1.13632 1.34544 1.93876)
(1.47245 2.11399 1.96377)
(1.89755 2.18834 1.91113)
(1.96906 2.03514 1.91427)
(1.97165 1.28885 1.99394)
(2.1485 0.78784 1.11878)
(0.0556066 1.07714 0.509259)
(0.217416 1.37412 0.608574)
(0.450576 1.77748 0.608671)
(0.844443 2.43409 1.23233)
(1.31462 2.52458 1.47825)
(1.28079 2.29368 1.5899)
(1.5872 2.00708 0.816841)
(2.46432 0.923223 0.0494387)
(2.73406 0.670468 0.444333)
(-0.440721 1.23994 0.106555)
(0.0201465 1.62218 0.0366136)
(0.375811 1.86793 -0.325374)
(0.988913 2.50743 0.133327)
(1.04067 2.63901 0.505058)
(1.46169 2.18436 0.279292)
(1.91206 1.52967 0.341589)
(2.39113 0.685683 -0.379651)
(1.89406 0.611179 0.873513)
(1.51007 0.789602 0.624841)
(-0.814584 1.30878 -0.274827)
(-0.605381 1.73086 0.202929)
(-0.00177825 1.73689 -0.40064)
(0.518583 2.01095 -0.268023)
(0.764064 2.48228 0.160581)
(0.808738 2.00988 -0.278168)
(0.923244 1.53319 -0.0804278)
(0.821119 1.3961 0.182065)
(0.815832 1.51473 -0.00881451)
(0.971708 1.45746 -0.409329)
(1.48955 1.0309 0.0600705)
(-1.06435 0.930845 -1.19318)
(-0.943128 1.89702 -0.154874)
(-1.05891 1.69987 -0.642775)
(-0.797903 1.50283 -0.992653)
(-0.0698975 2.13135 -0.426723)
(-0.380851 1.88419 -0.398747)
(-0.417949 1.48601 -0.458462)
(-0.00974687 1.62194 -0.0572998)
(0.417664 1.58409 -0.402615)
(0.845748 1.29953 -0.384638)
(1.37857 0.707095 -0.5595)
(1.65774 0.29299 -0.420812)
(2.15294 0.821489 3.00756)
(2.55075 0.544273 2.93525)
(2.53951 0.931489 3.07664)
(2.70016 0.888098 2.90115)
(2.64413 1.22411 3.57178)
(3.20831 0.169905 2.77164)
(2.39142 1.42413 3.08919)
(3.20431 0.83347 3.37305)
(2.64665 1.20634 3.42675)
(2.80717 1.13679 2.9358)
(2.58598 1.27635 2.78855)
(3.15903 0.860018 3.80894)
(3.18636 1.18373 3.64105)
(2.81515 1.23132 3.20223)
(2.59892 1.22201 2.9215)
(3.41271 0.644418 3.37713)
(3.11837 1.32974 3.55908)
(2.97792 1.43518 3.3924)
(2.5752 1.91602 3.11509)
(2.83293 1.27861 2.56882)
(3.0868 0.48453 2.60543)
(3.174 0.463229 2.72657)
(2.97341 1.56487 2.91006)
(2.68279 1.95949 2.81556)
(2.71213 1.43899 2.65962)
(2.85942 1.23477 1.87777)
(2.5305 1.31972 1.41152)
(2.44453 1.70701 2.20882)
(2.3523 1.61355 2.59893)
(2.63717 1.7631 2.603)
(2.48603 1.86097 2.67458)
(2.81763 1.55253 2.12044)
(2.73123 0.836212 1.82002)
(1.76668 -0.448999 1.01167)
(1.89197 0.940901 1.44664)
(1.65262 2.24261 1.79669)
(2.01606 2.60446 1.78322)
(2.22777 2.31314 2.03946)
(2.4616 1.85734 1.99337)
(2.58368 1.46918 1.58959)
(2.7818 -0.0321939 1.55237)
(0.526038 1.17201 0.709694)
(0.941058 0.914247 0.65542)
(1.09376 1.30042 1.79052)
(1.44086 1.65174 2.21109)
(1.91174 2.24056 1.75562)
(2.0269 2.02872 1.83841)
(2.0716 1.42332 1.83738)
(2.17467 0.754732 1.24565)
(2.45682 0.615344 1.2266)
(-0.146608 0.929442 0.535941)
(0.131034 1.3661 0.187276)
(0.387217 1.77439 0.404169)
(0.873361 2.37765 1.135)
(1.38576 2.52017 1.25657)
(1.23855 2.34323 1.55461)
(1.69115 1.82418 0.695259)
(2.47383 1.01824 -0.070113)
(2.77978 0.820205 0.709267)
(2.32496 0.678762 1.11275)
(-0.569185 1.13658 0.145004)
(-0.0444651 1.55674 0.0315067)
(0.424262 1.86504 -0.506356)
(1.02529 2.48552 0.136353)
(0.941574 2.60552 0.655508)
(1.42219 2.13637 0.147941)
(1.86106 1.61021 0.315308)
(2.4241 0.895801 -0.089347)
(1.93371 0.660377 0.930044)
(1.61769 0.522399 0.790775)
(1.45511 1.13032 0.762492)
(-0.884748 1.23274 -0.267705)
(-0.705728 1.68599 0.149105)
(-0.0377438 1.7449 -0.430996)
(0.441845 1.98419 -0.345179)
(0.748528 2.46075 0.0865126)
(0.747068 1.98321 -0.334877)
(0.911146 1.54499 -0.136318)
(0.824061 1.37138 0.173588)
(0.810206 1.46314 0.0362133)
(1.02117 1.48398 -0.426919)
(1.45858 1.08688 0.0595769)
(1.93071 0.265026 -0.0697794)
(-1.0823 0.909279 -1.1984)
(-1.04388 1.80972 -0.144535)
(-1.05165 1.71475 -0.651825)
(-0.808877 1.55438 -0.966399)
(-0.0980199 2.11982 -0.444597)
(-0.376334 1.88257 -0.408246)
(-0.410002 1.46802 -0.417883)
(-0.00263847 1.61989 -0.0279827)
(0.423252 1.58256 -0.364654)
(0.85343 1.30247 -0.392455)
(1.35314 0.723788 -0.592651)
(1.64588 0.274312 -0.400388)
(1.4518 -0.197137 -1.48869)
(2.16978 0.877192 2.84824)
(2.20115 0.672422 2.99986)
(2.12203 0.776301 3.04701)
(2.73681 0.280886 3.00058)
(2.31142 0.615494 3.054)
(3.0587 0.385053 2.9707)
(2.601 0.818813 3.01183)
(2.65979 0.792177 2.95065)
(3.43996 0.116683 3.08816)
(2.90641 1.06933 3.1802)
(3.27256 0.482886 2.61807)
(2.53293 1.2407 2.89383)
(3.25555 0.19859 3.66656)
(3.01278 0.427084 3.43847)
(2.88013 0.849181 3.2018)
(2.70424 1.19062 2.71912)
(2.54467 1.03532 2.82039)
(3.32426 0.194398 3.97302)
(3.19008 0.906599 3.75951)
(3.10486 0.415794 3.45421)
(2.7321 0.783689 3.20274)
(2.68321 1.03676 2.68793)
(3.55971 0.358158 3.16263)
(3.23833 1.11068 3.38746)
(3.2744 1.31675 3.38754)
(3.02586 1.34563 3.02971)
(2.96854 1.20556 2.68879)
(2.45428 1.11507 2.67739)
(3.13469 0.207904 2.358)
(3.28695 0.38833 2.30175)
(3.04985 1.3757 2.83679)
(2.8378 1.72266 2.85639)
(2.29959 1.73392 3.07507)
(2.92869 1.33019 1.95562)
(2.72843 0.559505 2.24565)
(2.15944 0.853071 1.74201)
(2.23127 1.60379 2.0361)
(2.46323 1.12136 2.48265)
(2.76776 1.30941 2.64802)
(2.72875 1.78963 2.55902)
(2.7221 1.48088 2.41549)
(2.92375 0.654645 1.62204)
(2.54426 0.583088 1.91409)
(1.56094 -0.390059 0.983572)
(1.92165 0.918553 1.31043)
(1.5429 2.15749 1.70757)
(2.00639 2.48536 1.77079)
(2.29895 2.31759 2.00503)
(2.4453 1.87668 2.07651)
(2.74331 1.44477 1.54381)
(2.66032 0.759954 1.68965)
(2.68496 0.312738 1.69887)
(0.216807 0.859723 0.85323)
(1.02785 0.780163 0.398709)
(1.09898 1.42033 1.73414)
(1.34911 1.85957 1.95362)
(1.99306 2.12873 1.67534)
(2.0288 2.12077 1.78803)
(2.06209 1.63549 1.79345)
(2.12932 0.859706 1.77767)
(2.43064 0.672052 1.52632)
(2.44502 0.742511 1.38448)
(-0.230705 0.917762 0.39967)
(0.0692794 1.21179 0.185471)
(0.496275 1.77899 0.101645)
(1.00774 2.39394 0.993806)
(1.31907 2.54419 1.05174)
(1.27857 2.39969 1.34049)
(1.53648 2.00246 0.92042)
(2.53015 1.17049 0.24986)
(2.78006 0.797505 0.604147)
(2.26939 0.669444 1.09499)
(1.81173 0.608733 1.26574)
(-0.480207 1.16233 0.271581)
(-0.21557 1.49088 -0.22966)
(0.397292 1.89286 -0.628599)
(1.03209 2.56904 0.0630841)
(1.00754 2.59465 0.370081)
(1.31953 2.11121 0.0531395)
(1.72829 1.64222 0.348947)
(2.41289 0.929649 -0.0282935)
(2.09624 0.497226 0.894303)
(1.72413 0.469508 0.974535)
(1.45928 1.10269 0.795443)
(1.81699 0.578791 0.383836)
(-0.89312 1.21286 -0.261986)
(-0.716624 1.66802 0.155177)
(-0.106645 1.75883 -0.565565)
(0.29459 1.94621 -0.448625)
(0.633273 2.47875 -0.0697717)
(0.651815 1.95043 -0.382196)
(0.871625 1.54172 -0.20691)
(0.83053 1.32838 0.123033)
(0.847529 1.40749 -0.0170488)
(1.05561 1.49526 -0.419721)
(1.46615 1.06344 0.101294)
(1.88671 0.312874 -0.127121)
(2.01039 -0.0672186 -0.514571)
(-1.09782 0.900116 -1.20292)
(-0.913853 1.86963 -0.168011)
(-1.04372 1.69408 -0.662642)
(-0.840503 1.53799 -0.962718)
(-0.0846739 2.11115 -0.438153)
(-0.403017 1.88636 -0.403522)
(-0.432424 1.47849 -0.389193)
(0.0080923 1.62419 -0.0246858)
(0.420907 1.58849 -0.334222)
(0.855362 1.31536 -0.392078)
(1.34959 0.707586 -0.579068)
(1.62003 0.262175 -0.402085)
(1.38127 -0.2117 -1.54195)
(0.955484 -0.291254 -1.97961)
(2.27406 0.566837 2.6205)
(2.23849 0.606296 2.94854)
(2.1106 0.649952 2.8901)
(2.4165 0.533226 2.977)
(2.18473 0.646057 3.07359)
(2.09548 0.664115 3.04199)
(2.69602 0.355022 3.06833)
(2.58654 0.209396 3.04286)
(2.17859 0.953041 3.09771)
(2.9665 0.303458 3.19066)
(2.89991 0.553919 2.88806)
(2.60444 0.750996 3.042)
(2.42861 0.850501 3.01451)
(3.11455 0.0886076 3.56982)
(3.2203 0.566192 3.10815)
(2.90441 0.493898 3.20036)
(2.67998 0.958186 2.86462)
(2.32747 1.02817 2.96585)
(3.20798 -0.203085 3.72682)
(3.20193 0.803153 3.51516)
(2.88229 0.610358 3.21832)
(2.66581 1.10475 3.02342)
(2.51129 0.888517 2.80983)
(2.59128 0.73992 2.744)
(3.56066 0.211126 3.95225)
(3.21533 0.557067 3.81935)
(3.23805 0.703169 3.50808)
(2.8 0.565561 3.31302)
(2.98847 0.642511 2.67467)
(2.74795 0.625137 2.73829)
(3.68063 0.0117524 2.85948)
(3.18897 1.03422 3.39636)
(3.23231 1.25566 3.38633)
(2.97926 1.4983 3.21849)
(2.99363 1.41163 2.71263)
(2.73501 0.905588 2.58782)
(2.49704 0.982806 2.69224)
(3.03693 -0.0484088 2.28667)
(3.26666 0.21983 2.06283)
(2.95276 1.03024 2.77536)
(2.9507 1.78074 2.8754)
(2.55087 1.54313 3.01473)
(2.89632 1.38185 2.2219)
(2.88918 0.575785 2.05644)
(2.03912 1.07891 2.71964)
(2.01959 0.401988 1.75383)
(2.52416 1.04989 1.80963)
(2.51045 0.558523 2.31318)
(2.68525 1.08225 2.62449)
(2.81238 1.81352 2.54529)
(2.66395 1.52917 2.57209)
(2.93042 0.919297 1.8298)
(2.41663 0.744051 2.03856)
(2.54735 0.465091 2.04455)
(1.41844 -0.2954 0.766215)
(1.82315 1.11652 1.16582)
(1.56899 2.30753 1.37675)
(1.89365 2.5598 1.53456)
(2.30327 2.31987 1.86612)
(2.51591 1.85723 2.0491)
(2.77089 1.43387 1.68706)
(2.67656 0.709924 1.79472)
(2.27534 0.592158 2.24245)
(2.05188 0.506017 2.13315)
(0.25177 0.736961 0.778731)
(0.833928 0.611752 0.335432)
(1.18156 1.46692 1.60399)
(1.42515 1.93611 1.78175)
(1.78555 1.98525 1.87307)
(2.07198 2.08861 1.73161)
(2.12726 1.46294 1.80674)
(2.28765 1.03825 1.92014)
(2.62574 0.686264 1.49945)
(2.37628 0.73804 1.47139)
(2.4885 0.630692 1.19469)
(-0.386724 0.820063 0.427426)
(-0.0813824 1.15554 -0.0511872)
(0.543568 1.82216 0.0242619)
(1.08711 2.58297 0.66972)
(1.3802 2.51033 0.917289)
(1.24639 2.43363 1.14103)
(1.61876 1.9195 0.874032)
(2.44184 1.34767 0.661162)
(2.89921 0.548152 0.362301)
(2.55873 0.211555 0.773683)
(1.6801 0.896999 1.34637)
(1.72167 0.412887 0.706906)
(-1.02764 0.815146 -0.0186043)
(-0.146729 1.48771 -0.246851)
(0.414798 1.93539 -1.03028)
(0.980867 2.46896 -0.0741858)
(0.886049 2.63307 0.125868)
(1.23021 2.03187 0.0128338)
(1.6761 1.60753 0.316822)
(2.39984 0.88723 -0.141128)
(2.13391 0.650909 0.965461)
(1.70052 0.643476 1.10937)
(1.46518 1.08765 0.802527)
(1.83554 0.56214 0.282121)
(2.1821 -0.466796 0.46092)
(-0.988423 1.09449 -0.275822)
(-0.886696 1.54991 0.0863928)
(-0.339617 1.65312 -0.850298)
(0.365693 1.99213 -0.379655)
(0.638875 2.42603 -0.130639)
(0.571445 1.91884 -0.403138)
(0.853741 1.52719 -0.30433)
(0.828446 1.31085 0.108704)
(0.846863 1.37941 -0.00078683)
(1.09244 1.48074 -0.388262)
(1.44398 1.08359 0.0841948)
(1.82363 0.337805 -0.0845813)
(2.00664 -0.0873884 -0.557945)
(2.00177 -0.547545 -1.40923)
(-1.10601 0.87649 -1.22101)
(-0.982113 1.81412 -0.181692)
(-1.07858 1.7065 -0.675491)
(-0.832926 1.5683 -0.989863)
(-0.11988 2.0913 -0.467439)
(-0.417102 1.8834 -0.401442)
(-0.440375 1.49317 -0.371952)
(-0.00509847 1.63795 -0.0150781)
(0.405256 1.60139 -0.327399)
(0.846886 1.32159 -0.395509)
(1.30893 0.751583 -0.59781)
(1.61078 0.25305 -0.393173)
(1.29719 -0.221442 -1.50803)
(0.971153 -0.326686 -2.01867)
(0.198775 -0.34234 -1.1061)
(2.03484 0.596896 2.70723)
(2.39913 0.407655 2.6858)
(2.23584 0.520662 2.6419)
(2.35331 0.143604 2.96006)
(2.30005 0.466848 2.89477)
(2.26088 0.756999 2.66704)
(2.43342 0.478297 3.11222)
(2.23103 0.543216 3.02603)
(2.23296 0.600434 3.04426)
(2.10469 0.677109 2.93934)
(2.83401 0.123258 3.07018)
(2.59942 0.44006 3.10286)
(2.36088 0.366608 3.12015)
(2.22274 0.905406 3.01145)
(2.95191 0.136535 3.18011)
(2.97066 0.408537 3.0868)
(2.7359 0.624331 2.92509)
(2.59479 0.768261 3.00021)
(2.37514 0.789312 3.01679)
(3.26623 -5.6423e-05 3.56882)
(2.98553 0.121298 3.53251)
(3.11162 0.553874 3.08117)
(2.666 0.675747 3.13097)
(2.57633 0.942624 2.82543)
(2.53376 0.732932 2.74979)
(3.18663 -0.557615 3.90515)
(3.33253 0.508201 3.50861)
(3.05942 0.452368 3.42029)
(2.76506 0.637605 3.11918)
(2.59345 0.832517 2.811)
(2.66199 0.637204 2.81887)
(2.28157 0.783006 2.81953)
(3.64902 -0.208676 3.79662)
(3.30611 0.33986 3.97834)
(3.31873 0.993958 3.43575)
(2.75543 1.10668 3.40543)
(2.92221 1.09536 2.83067)
(2.93414 0.115681 2.65886)
(2.4388 0.71498 2.84599)
(3.68285 -0.459443 2.60265)
(3.29064 0.615498 3.21989)
(3.26283 0.922365 3.37159)
(3.06124 1.34882 3.33185)
(2.87579 1.00362 3.07918)
(3.14116 0.81798 2.44822)
(2.48516 0.926779 2.61981)
(2.52019 0.840494 2.74667)
(2.86185 -0.185589 2.39475)
(3.17337 -0.0579074 1.89279)
(3.26314 1.17189 2.19508)
(2.90041 1.79462 2.87941)
(2.64782 1.7433 2.96324)
(2.94036 1.315 2.42162)
(2.96756 0.753237 2.10427)
(2.09993 0.589699 2.76961)
(1.95526 0.860062 2.68064)
(1.87017 0.322005 1.76847)
(2.23181 0.95519 2.04679)
(2.33411 0.11571 2.30463)
(2.77092 0.490141 2.5379)
(2.84474 1.61414 2.55734)
(2.74396 1.47451 2.61676)
(3.12463 0.950562 1.87762)
(2.61504 0.811833 1.81633)
(2.57112 0.444179 2.09669)
(2.4386 0.332592 2.35519)
(1.13719 -0.539654 0.684604)
(1.75434 0.873311 0.855483)
(1.84666 2.1766 0.73486)
(2.05366 2.37273 1.26738)
(2.4519 2.14823 1.57606)
(2.45715 1.77768 2.08661)
(2.74591 1.34923 1.81)
(2.83981 1.0701 1.75188)
(2.79036 0.271493 1.79199)
(1.85706 0.59007 2.35715)
(1.81946 0.760275 2.30608)
(0.0150894 0.441651 0.885893)
(0.672648 0.414525 0.37847)
(1.05169 1.46242 1.56644)
(1.41794 2.16308 1.52268)
(1.91192 2.12569 1.31543)
(2.01943 2.0875 1.65185)
(2.21863 1.46001 1.66588)
(2.19688 1.32118 1.9655)
(2.56801 0.896595 1.65864)
(2.41812 0.730602 1.53988)
(2.34387 0.7127 1.3933)
(1.95531 0.503276 1.40935)
(-0.618554 0.693157 0.436386)
(-0.0663283 1.07257 -0.0330608)
(0.551558 1.83956 -0.758475)
(1.11909 2.42632 0.589187)
(1.28792 2.52611 0.643333)
(1.18661 2.32482 1.13895)
(1.42138 2.00061 1.02081)
(2.38144 1.35408 0.679108)
(2.90185 0.778026 0.544159)
(2.38508 0.914409 1.18175)
(1.77013 0.766271 1.28548)
(1.66908 0.616925 0.968039)
(2.04884 0.410085 1.51262)
(-0.289894 1.23038 0.499198)
(-0.482056 1.39664 -0.362294)
(0.313341 1.89968 -1.35073)
(0.87281 2.39523 -0.244896)
(0.934654 2.48654 0.0513219)
(1.1704 1.97846 -0.0581679)
(1.67645 1.58317 0.151559)
(2.36685 0.961229 0.0599677)
(2.20577 0.56782 0.956836)
(1.78588 0.390435 1.15467)
(1.44644 1.10902 0.835406)
(1.71347 0.740928 0.494727)
(2.05661 -0.0439883 0.819722)
(2.21939 -0.60981 -0.724395)
(-1.02201 1.06714 -0.27867)
(-0.817504 1.5814 0.117393)
(-0.104422 1.8522 -0.498385)
(0.141997 2.00922 -0.484454)
(0.49665 2.401 -0.236211)
(0.50116 1.89919 -0.459375)
(0.804308 1.54056 -0.392631)
(0.821065 1.29711 0.0890853)
(0.860966 1.35504 -0.0214553)
(1.12628 1.44701 -0.342436)
(1.44571 1.07592 0.0794857)
(1.79754 0.362157 -0.071961)
(1.93585 -0.110969 -0.51547)
(2.07838 -0.616406 -1.18502)
(1.36486 -1.06508 -1.69897)
(-1.13766 0.837177 -1.23339)
(-0.934422 1.80233 -0.160677)
(-1.08258 1.79717 -0.598188)
(-0.944398 1.53707 -0.957762)
(-0.127904 2.07666 -0.474882)
(-0.438375 1.83713 -0.408089)
(-0.428824 1.48873 -0.368881)
(0.00601527 1.65117 -0.0310583)
(0.399492 1.61621 -0.326063)
(0.846932 1.32309 -0.394592)
(1.32903 0.72507 -0.589206)
(1.56248 0.379191 -0.426002)
(1.2811 -0.231707 -1.5146)
(0.967711 -0.345875 -2.06242)
(0.222845 -0.236507 -1.18635)
(-0.616793 -0.619386 -1.4669)
(1.88489 0.435181 2.58441)
(2.0655 0.452492 2.71071)
(2.01948 0.635453 2.6436)
(2.39479 0.310279 2.73139)
(2.34791 0.243714 2.66819)
(2.25949 0.467445 2.69306)
(2.44391 0.189803 2.98497)
(2.30816 0.195562 2.95494)
(2.31154 0.472202 2.75381)
(2.24102 0.55956 2.68613)
(2.44131 0.201948 3.18406)
(2.36809 0.300006 3.09941)
(2.29227 0.486688 2.99554)
(2.21704 0.634236 2.93249)
(2.11197 0.654531 2.81649)
(2.7627 0.0103934 3.18043)
(2.633 0.345952 3.08735)
(2.52075 0.354881 3.09655)
(2.2755 0.734163 3.08616)
(2.26765 0.670739 2.92607)
(2.9269 -0.458682 3.4224)
(2.97453 0.424407 3.06065)
(2.9505 0.332915 2.97336)
(2.67207 0.657038 2.98987)
(2.41256 0.635472 3.06995)
(2.2365 0.741491 2.9792)
(3.12805 -0.265312 3.58085)
(3.22844 -0.0301896 3.51032)
(2.88277 -0.215292 3.41228)
(2.90409 0.28309 3.21379)
(2.59731 0.359593 3.00362)
(2.37332 0.459666 2.95546)
(2.25926 0.70353 2.89207)
(3.57802 -0.584146 3.77229)
(3.15898 -0.34765 3.77685)
(3.14784 0.649468 3.54004)
(2.79541 0.808627 3.20833)
(2.64989 0.844539 2.98766)
(2.57169 0.700072 2.77105)
(2.5105 0.539996 2.8794)
(2.31417 0.607091 2.80985)
(3.55522 -0.874942 3.58096)
(3.50453 0.0274104 3.85336)
(3.56865 0.486549 3.52187)
(3.05165 0.78443 3.43841)
(2.91983 0.989999 2.82341)
(2.93319 0.655451 2.77112)
(2.49694 0.595045 2.80865)
(2.66911 0.390599 2.64464)
(3.66776 -0.86117 2.46006)
(3.32843 0.2895 2.95959)
(3.19543 0.501987 3.43036)
(3.08574 0.974347 3.37434)
(3.08424 1.04752 3.06807)
(2.9583 1.25109 2.66188)
(2.76679 0.830259 2.47006)
(2.49655 0.565967 2.72975)
(2.24752 0.608313 2.68674)
(2.79752 -0.406639 2.44355)
(3.07285 -0.222755 1.86308)
(3.31637 0.971102 1.89281)
(3.02369 1.74319 2.75578)
(2.93995 1.84438 2.78891)
(2.74523 1.35698 2.80308)
(2.89608 0.860367 2.22585)
(2.27922 0.586575 2.52108)
(1.88035 0.740227 2.66808)
(2.22059 0.651712 2.59577)
(1.66151 -0.105243 1.79782)
(2.139 -0.0455418 1.99529)
(2.23592 -1.15523 1.98467)
(2.56272 -0.00934018 2.50336)
(2.77057 1.20916 2.67171)
(2.67081 1.4646 2.69786)
(2.99574 1.13999 2.04186)
(2.81976 0.958964 1.85619)
(2.59569 0.51097 2.10034)
(2.47193 0.232824 2.31596)
(1.76387 0.587156 2.68498)
(0.906126 -0.391892 0.730619)
(1.51667 0.33801 0.842996)
(1.76934 1.3957 1.1382)
(2.13122 2.01134 1.43904)
(2.33616 2.16464 1.33994)
(2.65807 1.69293 1.78859)
(2.76361 1.31151 1.81087)
(2.79584 1.19953 1.78942)
(2.56782 0.735337 2.09647)
(2.27693 0.0628061 2.09281)
(1.72536 0.688909 2.41975)
(2.19609 0.556621 2.18212)
(-0.20744 0.261082 0.872817)
(0.509933 0.168755 0.309861)
(1.02383 1.07332 1.66346)
(1.52831 2.13607 1.17221)
(1.94803 1.93314 1.1602)
(2.00813 2.03415 1.52487)
(2.22055 1.49966 1.56731)
(2.28171 1.56622 1.67695)
(2.63094 0.87306 1.68)
(2.51575 0.667964 1.63573)
(2.44617 0.461189 1.2491)
(1.98435 0.513189 1.54705)
(1.98464 0.35697 1.41796)
(-0.598939 0.676799 0.50432)
(-0.50179 0.99972 -0.240499)
(0.608941 1.68716 -0.794311)
(1.07385 2.41448 0.312249)
(1.27587 2.34487 0.500549)
(1.1493 2.28444 1.02844)
(1.51182 1.90349 0.849811)
(2.33592 1.42873 0.775058)
(2.87468 0.754376 0.570156)
(2.49416 0.651939 1.0037)
(1.80643 0.741935 1.31707)
(1.70497 0.552468 0.974618)
(2.23753 0.226666 0.964658)
(2.39091 -0.67051 0.663801)
(-1.05496 0.900774 0.0054157)
(-0.50438 1.37581 -0.365691)
(0.189847 1.86232 -1.26706)
(0.832189 2.26708 -0.402347)
(0.737149 2.48262 -0.134948)
(1.13676 1.9959 -0.187379)
(1.55515 1.6775 0.0507141)
(2.33352 0.946491 -0.0228019)
(2.23403 0.605302 0.910016)
(1.78562 0.608861 1.14904)
(1.45238 1.10608 0.821338)
(1.78953 0.562832 0.315476)
(2.04503 -0.2302 0.572046)
(2.20408 -0.293951 0.0818002)
(2.28138 -0.981558 -1.19286)
(-1.11788 0.970284 -0.304127)
(-0.96355 1.5387 0.0476949)
(-0.344934 1.83547 -0.710094)
(0.119438 1.94875 -0.564986)
(0.473258 2.35426 -0.265091)
(0.411458 1.89636 -0.477185)
(0.752244 1.51357 -0.470825)
(0.810544 1.28772 0.0631397)
(0.860427 1.34788 -0.0395684)
(1.14269 1.41427 -0.308121)
(1.44503 1.06712 0.142879)
(1.80096 0.37417 -0.0693643)
(1.85882 -0.107797 -0.460915)
(2.03831 -0.657885 -1.27281)
(1.41524 -1.01038 -1.67737)
(0.264448 -1.07111 -1.04747)
(-1.17229 0.800425 -1.25449)
(-0.964618 1.74823 -0.22896)
(-1.15654 1.71487 -0.669513)
(-0.801189 1.66071 -0.93303)
(-0.161548 2.05087 -0.50305)
(-0.483861 1.80434 -0.389808)
(-0.462378 1.49879 -0.360765)
(0.00735175 1.66822 -0.0154855)
(0.39865 1.63186 -0.338463)
(0.840885 1.32849 -0.397446)
(1.32238 0.753814 -0.587787)
(1.58326 0.273051 -0.400566)
(1.3215 -0.260906 -1.52082)
(0.980032 -0.370028 -2.09176)
(0.252077 -0.153657 -1.28232)
(-0.606789 -0.635446 -1.48984)
(-0.547737 -0.597239 -1.5274)
(1.79825 0.537555 2.31702)
(1.92688 0.404543 2.55632)
(1.88402 0.372967 2.59556)
(2.06587 0.278352 2.81998)
(2.01512 0.448487 2.71024)
(2.02184 0.530852 2.64994)
(2.3652 0.16601 2.75411)
(2.37279 0.140391 2.78225)
(2.32272 0.254258 2.68886)
(2.11963 0.443606 2.68506)
(2.46007 0.204838 3.01903)
(2.4187 0.227419 2.91531)
(2.45621 0.277275 2.73395)
(2.31421 0.46572 2.64374)
(2.21779 0.342452 2.66951)
(2.51216 0.101329 3.27172)
(2.36831 0.412098 3.18977)
(2.31107 0.383027 3.00188)
(2.32794 0.477832 2.9432)
(2.19867 0.562755 2.77735)
(2.31358 0.515807 2.61322)
(2.76163 -0.153161 3.10228)
(2.81253 0.14186 3.13141)
(2.60161 0.381107 3.06133)
(2.38158 0.400757 3.15449)
(2.38848 0.49041 2.96753)
(2.24963 0.39585 2.88336)
(2.9179 -0.501384 3.5038)
(2.86613 -0.0569731 3.31481)
(2.77845 0.36993 3.17051)
(2.87074 0.0885266 3.00015)
(2.65035 0.271379 2.99883)
(2.43264 0.639442 2.92512)
(2.33557 0.248959 2.91915)
(3.25596 -0.667516 3.62913)
(3.08223 -0.105411 3.58479)
(3.21554 0.124879 3.31392)
(2.89585 -0.004734 3.2291)
(2.74601 0.241472 3.12018)
(2.54826 0.527775 2.81)
(2.5758 -0.149415 2.77048)
(2.1553 0.599419 2.82645)
(3.37751 -0.790006 3.83427)
(3.52608 -0.221304 3.70055)
(3.31817 -0.15469 3.51075)
(3.23461 0.22705 3.21259)
(2.81748 0.34231 3.05961)
(2.63018 0.67626 2.78456)
(2.67872 0.387987 2.82621)
(2.44546 0.478231 2.74048)