/*--------------------------------*- C++ -*----------------------------------*\
  =========                 |
  \\      /  F ield         | OpenFOAM: The Open Source CFD Toolbox
   \\    /   O peration     | Website:  https://openfoam.org
    \\  /    A nd           | Version:  7
     \\/     M anipulation  |
\*---------------------------------------------------------------------------*/
FoamFile
{
    version     2.0;
    format      ascii;
    class       volScalarField;
    location    "4";
    object      nut;
}
// * * * * * * * * * * * * * * * * * * * * * * * * * * * * * * * * * * * * * //

dimensions      [0 2 -1 0 0 0 0];

internalField   nonuniform List<scalar> 
150000
(
0.00170512
0.00120788
0.00176132
0.00192666
0.00160475
0.0022097
0.00111356
0.00100339
0.00123732
0.00165567
0.00160388
0.00121269
0.00224383
0.00107993
0.00376551
0.00204446
0.0041567
0.00256431
0.00109164
0.000856342
0.000823219
0.00157961
0.00103164
0.00139733
0.00102644
0.000855706
0.000998342
0.00144528
0.00221243
0.00122274
0.00261393
0.003481
0.00108421
0.0033266
0.00213159
0.00268332
0.000924988
0.00124739
0.00111837
0.00105849
0.00080511
0.000607772
0.000628185
0.00090551
0.00118282
0.00126085
0.000977672
0.000631287
0.000397214
0.000918649
0.000384493
0.0010588
0.0014817
0.00175581
0.00182867
0.0021987
0.00278001
0.000985336
0.00257934
0.00325411
0.000997827
0.00131535
0.00110992
0.00311765
0.00210731
0.000771463
0.000778846
0.00116336
0.00123968
0.0023496
0.000805628
0.000849098
0.000977454
0.000406046
0.000487743
0.000384349
0.000602507
0.000913803
0.00145946
0.00103986
0.000468895
0.000383163
0.000351155
0.000980553
0.000383163
0.000240464
0.00040615
0.000991306
0.001213
0.000693558
0.00208337
0.00218578
0.00215442
0.000973857
0.00192677
0.00286366
0.00154944
0.00050357
0.00130332
0.00282606
0.00343332
0.00107386
0.000944926
0.000746816
0.00142994
0.00107393
0.00323872
0.00209887
0.000889828
0.000639071
0.000986599
0.00107623
0.00123973
0.00117555
0.000886216
0.00107517
0.00102272
0.00123064
0.000505069
0.000394423
0.000325713
0.000540307
0.000582844
0.000513346
0.000948913
0.00151711
0.00104616
0.00039099
0.000418175
0.00045022
0.00103715
0.000381296
0.000174513
4.25291e-05
0.000174139
0.00038815
0.000913044
0.000987366
0.00182326
0.00213561
0.00224787
0.00224
0.000797829
0.00272961
0.00184562
0.0020753
0.000661694
0.000417234
0.00252689
0.00255224
0.00129291
0.000661063
0.0018103
0.00071259
0.00150366
0.00279144
0.0029824
0.000407619
0.00139693
0.000660301
0.000407063
0.000428209
0.00136231
0.00149977
0.00348688
0.00208517
0.000925895
0.00051064
0.000714489
0.00116276
0.000874857
0.000899265
0.00121384
0.00217021
0.00242617
0.000573749
0.00132207
0.000947883
0.000715552
0.000356292
0.000357164
0.000421521
0.000511405
0.000480723
0.00059039
0.00055391
0.00132415
0.00132282
0.000987589
0.000383546
0.000467482
0.000490126
0.00100179
0.000382509
0.000265718
0.000122768
9.66158e-05
0.000121021
0.000176628
0.000403099
0.000791434
0.00135063
0.00249041
0.00201013
0.00220426
0.00222813
0.000863859
0.00245132
0.0023481
0.000519475
0.00045112
0.00136231
0.00252385
0.00201414
0.000954209
0.00169908
0.000818896
0.00113023
0.00158787
0.00242477
0.00258677
0.0011386
0.000876278
0.00097187
0.00145682
0.00136993
0.0016123
0.000816991
0.00265222
0.00314745
0.000951425
0.000851363
0.0013463
0.0011607
0.000718623
0.00113758
0.000581923
0.00140651
0.00139902
0.00293323
0.00244347
0.000996362
0.00069073
0.0010739
0.00100159
0.00100599
0.000715669
0.001029
0.00107044
0.00100367
0.00166612
0.00137292
0.000998467
0.00127825
0.000864884
0.000532134
0.000361963
0.000470186
0.000364931
0.000388357
0.000284742
0.000326722
0.000547749
0.000489834
0.00067544
0.000801579
0.0016486
0.000995669
0.000355401
0.000665978
0.000485633
0.000915621
0.000372594
0.000166159
0.000178967
0.000104485
8.25917e-05
9.85186e-05
0.000164494
0.000204142
0.00045628
0.000707315
0.0017489
0.00265559
0.00179413
0.00225489
0.00252552
0.000802024
0.00259829
0.00221985
0.000819429
0.000365989
0.000366038
0.00229977
0.00210065
0.00109201
0.000652502
0.000745503
0.000698191
0.000737949
0.00251972
0.00192621
0.00107873
0.000466795
0.00152144
0.000938039
0.00155166
0.00128432
0.000727439
0.00271259
0.00132292
0.00199196
0.000705239
0.000528497
0.00113511
0.000792768
0.00150702
0.00104003
0.000512938
0.00109062
0.00280448
0.0028142
0.00124014
0.00161797
0.000971769
0.000531923
0.000466539
0.000435317
0.000609132
0.000828376
0.000239295
0.00141376
0.00142463
0.00299945
0.00207028
0.00117698
0.000984373
0.000976758
0.00111132
0.00104807
0.000965936
0.000655992
0.000695028
0.000765565
0.000996298
0.00114893
0.00161777
0.00134903
0.00103884
0.00162519
0.00116016
0.000947528
0.000411039
0.000490352
0.000535507
0.000342773
0.000297558
7.57476e-05
0.000351473
0.000296367
0.000519539
0.000407055
0.00115452
0.000821271
0.00117645
0.000827084
0.000352351
0.000824469
0.000521292
0.000796839
0.000375875
0.000175105
0.000132911
0.000101759
8.11779e-05
0.000250387
8.92168e-05
0.000111428
0.00010308
0.000184097
0.000449575
0.000529688
0.00188935
0.00258981
0.00144016
0.00207485
0.00218827
0.00060148
0.00248473
0.00258371
0.000911621
0.000638609
0.000538084
0.00255317
0.00223148
0.000463608
0.000576273
0.000636686
0.000386122
0.000746856
0.00254281
0.00230404
0.000842328
0.000943952
0.0010183
0.000753104
0.000623053
0.00066807
0.000872295
0.00263775
0.00192827
0.00164842
0.00111064
0.00123247
0.00119133
0.000972891
0.000788334
0.00112331
0.000936182
0.00105506
0.00297728
0.00282491
0.00200386
0.0026222
0.000756805
0.000381107
0.000636149
0.000819595
0.000734962
0.00160491
0.00214509
0.00244334
0.00125284
0.0024924
0.00288636
0.0014578
0.000817794
0.000596441
0.000770524
0.000359766
0.000665161
0.00112835
0.00083932
0.000419879
0.00062307
0.000536386
0.00118552
0.00124883
0.0028995
0.00205482
0.00128092
0.000753696
0.000849311
0.00145149
0.000802817
0.00066206
0.000430699
0.000452879
0.00129259
0.000478319
0.000824999
0.00104289
0.00114155
0.00160494
0.00105602
0.00146662
0.00125777
0.000504886
0.000892139
0.000461612
0.000500691
0.000625995
0.000305145
0.000413621
0.000217188
0.000295249
0.000139392
0.0004173
0.000395758
0.000526543
0.000568966
0.00058413
0.000719268
0.00100665
0.000904769
0.000415795
0.000388108
0.000509363
0.000689895
0.000367228
0.000339346
8.5727e-05
0.000103464
8.57235e-05
0.000277055
0.000368249
0.000228914
0.000102
0.000122314
0.000127822
0.000193857
0.000400425
0.000467887
0.00189486
0.00230839
0.00101521
0.00250123
0.00215334
0.000641095
0.00253335
0.00224824
0.000680632
0.000560819
0.000711131
0.00243218
0.00259453
0.00086548
0.00070301
0.000898913
0.000429873
0.000434726
0.00262271
0.0021366
0.000777993
0.000276918
0.000328037
0.000464155
0.000255805
0.000372715
0.000549196
0.00255249
0.0022265
0.000930361
0.00118684
0.000502129
0.000844839
0.000732156
0.00086195
0.000802016
0.000745118
0.00125318
0.00241101
0.00233493
0.00178932
0.0011926
0.000699397
0.00113186
0.000672166
0.000967621
0.000890087
0.00104041
0.00122705
0.00123544
0.00162654
0.00304474
0.00423235
0.00136776
0.00135441
0.000742612
0.00100497
0.000507792
0.000503967
0.000305213
0.000642423
0.00205344
0.000682989
0.000854152
0.00272876
0.00091788
0.00256932
0.00319033
0.00185553
0.0014453
0.000464995
0.000329283
0.000433089
0.000552359
0.00104597
0.000825903
0.00129011
0.000211642
0.000245548
0.000711561
0.000611031
0.00138709
0.00199361
0.00276317
0.00230704
0.00113288
0.000669778
0.000840336
0.00148255
0.00065769
0.00114805
0.000298458
0.000523267
0.000536687
0.000441136
0.000644064
0.000764132
0.00107254
0.00090729
0.00110167
0.00169303
0.000686415
0.00149232
0.00113396
0.00147459
0.000546346
0.000561035
0.000590721
0.000549346
0.000275816
0.000226435
0.000118468
0.000239822
0.000161452
0.000199245
0.0001912
0.000345191
0.000382846
0.000537117
0.000344913
0.000362146
0.000713143
0.000794416
0.000937783
0.000333496
0.000458708
0.000514241
0.000620159
0.00035712
0.000204208
0.000116611
0.000103807
9.2586e-05
0.000300637
0.000411199
0.000267584
0.000368373
0.000206409
0.000112597
0.000139705
0.000140461
0.000172768
0.000417794
0.000381343
0.0017765
0.00188179
0.000636636
0.0023209
0.00251891
0.000632851
0.00255958
0.00233727
0.000725654
0.000526872
0.000825237
0.00244743
0.00233354
0.000437738
0.00038435
0.000488228
0.000498733
0.000803388
0.00231394
0.00245395
0.000818177
0.000508631
0.000446001
0.000414043
0.00055805
0.000722508
0.000916584
0.00255696
0.00210059
0.000806341
0.000317962
0.000238366
0.000373712
0.000580574
0.000410212
0.000325422
0.000597105
0.000361194
0.00235555
0.00216149
0.000816473
0.00072817
0.00045112
0.000527092
0.000698717
0.000699456
0.000844505
0.000827291
0.000752279
0.000684042
0.00122133
0.00227399
0.00217758
0.0016818
0.00233452
0.000911054
0.00044595
0.000783869
0.000798899
0.00071489
0.000749815
0.0010871
0.00162327
0.000979592
0.00199582
0.00154047
0.00322468
0.00290978
0.00142211
0.00151293
0.000926278
0.000883385
0.000754897
0.000762808
0.00050433
0.000524393
0.000231571
0.00105392
0.00142566
0.000926869
0.00089649
0.000730461
0.00188077
0.00291135
0.00327091
0.00174329
0.00144729
0.00042905
0.000181184
0.000643652
0.0013408
0.00089807
0.000769516
0.000803613
0.00093931
0.000611585
0.00032179
0.000447036
0.00069077
0.000893633
0.00248049
0.00128379
0.00266293
0.0023602
0.00104942
0.000875294
0.00116068
0.0013964
0.000512739
0.000350108
0.00054701
0.000643379
0.000498676
0.000312951
0.000640953
0.000852354
0.000718867
0.000665304
0.00105652
0.00113167
0.00123213
0.0014838
0.000928918
0.00129741
0.00104031
0.00182681
0.000721755
0.000743146
0.000640191
0.000440773
0.000382562
0.000265178
0.000152062
0.000146057
0.00024996
0.000312195
0.000295983
0.000208523
0.000246959
0.000282638
0.000334449
0.00044382
0.000333607
0.00122909
0.0013766
0.000705662
0.000643262
0.000399335
0.000324472
0.0005364
0.00056798
0.000343168
0.000219848
0.000204069
0.000122063
9.99869e-05
0.000314515
0.000454753
0.000245884
0.000185457
0.000287382
0.000327984
0.000183528
0.000124323
0.000123329
0.000169377
0.000198626
0.000409622
0.000428266
0.00140717
0.00137617
0.000405642
0.00210773
0.00246584
0.000440311
0.00247882
0.00232058
0.000726242
0.000385701
0.000701445
0.00278979
0.0022151
0.000578754
0.000585887
0.000202684
0.000476385
0.000741398
0.00251841
0.00200392
0.000475642
0.000503347
0.000434431
0.000383973
0.000718571
0.00042146
0.000732218
0.00232175
0.00251775
0.000966605
0.000550133
0.000603907
0.000400517
0.000515433
0.000456912
0.000250076
0.000684444
0.000568408
0.00241399
0.00212199
0.000563276
0.000325031
0.000281506
0.0004083
0.000563206
0.000513781
0.000467695
0.000448936
0.000503017
0.000538056
0.000761827
0.00238909
0.00219971
0.000857706
0.000710231
0.000706989
0.000641575
0.000705781
0.000606104
0.000467456
0.000966199
0.00104116
0.00100517
0.000825722
0.00104031
0.00116873
0.00231921
0.00243572
0.00232783
0.00145679
0.00191684
0.00107571
0.000866904
0.00103514
0.000842374
0.000773834
0.000614414
0.000771635
0.00143035
0.00145232
0.00149442
0.00101307
0.00270001
0.0032424
0.0027133
0.00199094
0.00162879
0.000773426
0.000905733
0.000780299
0.000275526
0.000417374
0.000933243
0.000940748
0.000708694
0.000890894
0.000906421
0.000827552
0.00165997
0.000803276
0.000873313
0.00246682
0.00352408
0.00332626
0.00219764
0.00101538
0.00074911
0.000376069
0.000786879
0.00134648
0.000995332
0.0006923
0.000929829
0.000718382
0.000504184
0.00151157
0.00150552
0.00124463
0.000738718
0.000886597
0.00190769
0.00158457
0.00114266
0.00296899
0.00188023
0.000702336
0.00139983
0.00112156
0.00179373
0.000427998
0.00140581
0.000703908
0.000299255
0.000310395
0.000582515
0.000210092
0.000129218
0.000506343
0.000729392
0.00049739
0.000455878
0.000416702
0.000888722
0.000935441
0.00135186
0.00142429
0.00219537
0.000674967
0.00197624
0.00067938
0.000808559
0.000683455
0.000466457
0.000498933
0.000373256
0.000229369
0.000181153
0.000341208
0.000316731
0.000184424
0.000380433
0.000191936
0.000211257
0.000317194
0.000207389
0.000406956
0.000544005
0.000303821
0.00086895
0.0011203
0.000494758
0.000727237
0.000649573
0.000344014
0.000555997
0.000508049
0.000326591
0.000118227
0.00023971
0.000156334
0.000109654
0.000322156
0.00047482
0.000248661
0.000196368
0.00033966
0.000160033
0.000316104
0.00029541
0.000172403
0.000146178
0.000107873
0.00015948
0.000245626
0.00040044
0.000343837
0.00123593
0.000913927
0.000295604
0.00207099
0.00213306
0.000498095
0.00211897
0.00244517
0.000670567
0.000259891
0.000523607
0.00254383
0.00249902
0.000474441
0.000380483
0.0003819
0.000388627
0.00040642
0.00269173
0.00231064
0.000556226
0.000571163
0.000319108
0.000420725
0.000487322
0.000378534
0.000859331
0.00269366
0.00230125
0.000830984
0.000348713
0.000503452
0.00043487
0.000422316
0.000483679
0.000373819
0.000680108
0.000672051
0.00228449
0.0026861
0.000763899
0.000516615
0.000601787
0.000683853
0.000476072
0.00045247
0.000441133
0.000435496
0.000516869
0.000574038
0.000731659
0.0024213
0.00205537
0.000746284
0.000489074
0.000391321
0.000430487
0.000430833
0.000709908
0.000440059
0.00041934
0.000566634
0.000445982
0.00048184
0.000253711
0.000647709
0.00232365
0.00243852
0.00146768
0.00155954
0.000493896
0.000605592
0.000557195
0.000571232
0.000399018
0.00058365
0.00107152
0.000970305
0.000868862
0.000678016
0.000762066
0.00113447
0.00116305
0.00192211
0.00262797
0.00252397
0.00158345
0.00147469
0.00102613
0.00102668
0.000821592
0.000660052
0.000613871
0.000706617
0.00054721
0.00107683
0.000981172
0.0012154
0.0015414
0.00131872
0.00163646
0.00202826
0.002383
0.00328045
0.00171482
0.00191852
0.000987701
0.00114113
0.00105759
0.00132814
0.000642516
0.000616859
0.00109975
0.00110059
0.000884465
0.000607384
0.000719084
0.00116217
0.000998943
0.00049826
0.00126859
0.00177387
0.00158021
0.00358744
0.00347138
0.00242238
0.00147235
0.000744507
0.000731055
0.000649031
0.00072978
0.000567827
0.000504546
0.000563765
0.000521726
0.000575964
0.000353553
0.00113206
0.00100393
0.000698729
0.000882805
0.000971609
0.00150074
0.00192004
0.00177559
0.00152301
0.00334967
0.0019558
0.00146255
0.00172538
0.00200239
0.00169571
0.000554841
0.0010018
0.000274071
0.000285738
0.00022817
0.00017045
0.000244638
0.00037147
0.000290139
0.00061881
0.000507716
0.000450104
0.000433225
0.000314482
0.000490387
0.00157419
0.00119539
0.000984608
0.00187123
0.00200141
0.000669553
0.00130341
0.000800905
0.000865695
0.000713695
0.000535983
0.000488518
0.000269316
0.000118387
0.000218416
0.000325078
0.000348232
0.000255746
0.000558971
0.000203145
0.00046729
0.000307064
0.000265847
0.000254576
0.000286669
0.000403641
0.000324087
0.000401241
0.000709039
0.000576557
0.000543715
0.000572227
0.0003485
0.000513452
0.000548257
0.000428067
0.000313914
0.000247947
0.000138466
0.000161076
0.000120633
0.00032973
0.000503583
0.000260928
0.00021751
0.00034259
0.000180138
0.000337928
0.000157079
0.000356248
0.000281386
0.000167613
0.00015355
0.000104651
0.000161554
0.000180866
0.000392149
0.000409123
0.00070595
0.000567005
0.000341007
0.00193433
0.00211073
0.000627679
0.00211227
0.00209848
0.000883881
0.000372344
0.000439781
0.00202565
0.00230699
0.000643691
0.000389791
0.000476077
0.000448695
0.000796053
0.00249732
0.00234651
0.000388341
0.000497319
0.000546415
0.000397988
0.000476833
0.000324701
0.000592779
0.00261457
0.00229188
0.000712602
0.000527307
0.000547698
0.00036798
0.00030115
0.000589779
0.000337771
0.000772069
0.00133585
0.00270667
0.00244618
0.000775372
0.000486065
0.000280942
0.000559939
0.000393933
0.000421817
0.000453805
0.000447596
0.000570854
0.000496892
0.000605026
0.00250243
0.00235709
0.000853748
0.000783716
0.00061354
0.000709001
0.000385939
0.000535459
0.000421336
0.000433435
0.000502992
0.000837152
0.000631643
0.00072604
0.000893418
0.00234572
0.00199419
0.000679813
0.000592048
0.000540271
0.000466878
0.000565191
0.000576987
0.000530164
0.000627028
0.000492096
0.000621322
0.00078077
0.000388449
0.000595529
0.000686526
0.000710414
0.00218411
0.0024933
0.00138176
0.000933354
0.000372925
0.00048987
0.000693977
0.000766644
0.000939152
0.000759827
0.00064688
0.000915636
0.00115887
0.000968412
0.000682574
0.00111844
0.000838115
0.000798449
0.00172443
0.00207769
0.00285877
0.00280178
0.00252422
0.00131616
0.00134591
0.00120301
0.000927253
0.000778842
0.000722975
0.000601567
0.000371647
0.000831574
0.000762289
0.00124099
0.0020085
0.00167484
0.00100157
0.00137956
0.00215212
0.0011783
0.00198432
0.00316753
0.00215693
0.00154587
0.00123051
0.00197638
0.000678629
0.000816536
0.00100719
0.000338387
0.000718484
0.000586042
0.000607182
0.0002054
0.000453423
0.000634373
0.000707076
0.00107648
0.000442295
0.000564636
0.00188938
0.00222749
0.00351226
0.00334948
0.00397725
0.00151877
0.00130783
0.000457538
0.000346126
0.000823465
0.000755837
0.000564204
0.000380484
0.000476652
0.000493126
0.000535363
0.000737731
0.00080615
0.00075826
0.000697812
0.00069955
0.000437426
0.000433717
0.000696986
0.00150319
0.00187242
0.00162522
0.00220802
0.00273339
0.00213445
0.000913611
0.0013696
0.00296992
0.00110804
0.000372448
0.000857659
0.000665836
0.000459467
0.000228091
0.0002937
0.000394941
0.000460384
0.000450122
0.00070042
0.000776951
0.000342161
0.000362683
0.000436794
0.000524792
0.000407525
0.000570757
0.00170602
0.00113936
0.000851818
0.0012137
0.0016977
0.000792298
0.000448984
0.000803703
0.000871955
0.000656884
0.000464559
0.000483917
0.000287867
0.000122449
0.000212621
0.000372917
0.000354742
0.00033283
0.00057045
0.000730448
0.000476014
0.000283513
0.000458258
0.000318079
0.000288657
0.000216456
0.000160481
0.000294004
0.000319506
0.000345506
0.0006157
0.000633513
0.000485753
0.000877858
0.000258904
0.000325042
0.000480102
0.000342721
0.000321926
0.00040279
0.000111581
0.000150644
0.000122445
0.000333235
0.000534944
0.000284388
0.000262685
0.000199136
0.000313146
0.000200023
0.000187408
0.000209072
0.000180345
0.000356175
0.000263001
0.000164334
0.00012193
0.000108979
0.000169869
0.000227539
0.000338808
0.00033891
0.000481094
0.000392981
0.000226355
0.00198344
0.00194526
0.000327463
0.0020214
0.00216327
0.000735896
0.000387863
0.000539829
0.00228361
0.00229619
0.000810081
0.000373078
0.000335443
0.000228293
0.000450592
0.00208781
0.00244009
0.000380801
0.000561682
0.000468262
0.000499968
0.000511501
0.000687014
0.00086042
0.00231763
0.00222229
0.00055393
0.000497959
0.000456787
0.000405117
0.0004699
0.000654168
0.000563785
0.00069031
0.000844425
0.00270014
0.00208435
0.000649056
0.000365451
0.000417362
0.000375715
0.000475398
0.000403142
0.000525704
0.000457914
0.000643699
0.000669404
0.00152176
0.00280694
0.00208459
0.000403355
0.000700809
0.00032606
0.000409177
0.000540377
0.000543227
0.000487591
0.00045352
0.000362085
0.000480123
0.000526873
0.000531476
0.000871557
0.00251155
0.00243405
0.0008532
0.000724227
0.000569037
0.000662215
0.000652932
0.00042675
0.000303104
0.000401168
0.000620717
0.000662606
0.000584127
0.000736303
0.000518298
0.000734609
0.000938219
0.00230878
0.00215814
0.000868301
0.00111564
0.000614313
0.000742247
0.000481357
0.000574595
0.000657819
0.000544014
0.000677993
0.000779177
0.000816138
0.000889603
0.000689801
0.000510015
0.000627199
0.000581134
0.000779206
0.00236727
0.00248158
0.00151046
0.00254644
0.000632476
0.000762604
0.000630011
0.000715471
0.000956441
0.000707806
0.000714459
0.000486149
0.000867033
0.000951669
0.000804015
0.00109734
0.000816339
0.000946639
0.000755669
0.00117611
0.00157141
0.00221125
0.00300115
0.00206019
0.00203744
0.001528
0.0014541
0.00182488
0.000788064
0.000842149
0.000713937
0.000693445
0.00038611
0.000558551
0.000848847
0.0010372
0.00118672
0.000875029
0.00230346
0.00175872
0.000991737
0.00135788
0.0016211
0.000924034
0.00256545
0.00308763
0.0022541
0.00104972
0.00144138
0.0011609
0.0018222
0.0010602
0.000916679
0.000642318
0.000270761
0.000604988
0.000689921
0.000403332
0.000653182
0.000774899
0.0013666
0.00114793
0.000602709
0.00083055
0.000479675
0.00136984
0.00175794
0.00249013
0.00215281
0.00265807
0.00391903
0.00116701
0.00211859
0.00202323
0.00145663
0.000578278
0.00118666
0.000668923
0.000482505
0.000544421
0.000661971
0.000724534
0.000702714
0.00091355
0.000663472
0.000600761
0.000620045
0.000960244
0.00124635
0.00114518
0.00061884
0.000765115
0.00156377
0.00118429
0.00144603
0.00226492
0.00245407
0.00227589
0.00112403
0.00156644
0.00249519
0.000696947
0.000668254
0.000571745
0.000870158
0.000410479
0.000154012
0.000344147
0.00031582
0.000452092
0.000335433
0.000873338
0.000826073
0.000677455
0.000394638
0.000446143
0.000453746
0.000406157
0.000342498
0.000352596
0.000294072
0.000545593
0.000706655
0.00127609
0.00105832
0.00131954
0.00092239
0.00054501
0.000770835
0.00085155
0.000516037
0.000445644
0.000509194
0.000418792
0.000132934
0.000237857
0.000378894
0.000334131
0.000348
0.000672096
0.00075416
0.000420763
0.000948836
0.000434565
0.000369384
0.000461148
0.000188873
0.000304768
0.00020247
0.000207549
0.000292785
0.000277788
0.000421183
0.000539256
0.000796394
0.00109108
0.000693269
0.000476929
0.000458278
0.000618281
0.000247961
0.000337502
0.000249657
0.000142127
0.000124954
0.000137875
0.000346086
0.000566224
0.000281596
0.000274523
0.000159502
0.00035813
0.000191319
0.000129107
0.000243192
0.000308452
0.000238821
0.000152027
0.000366721
0.000249906
0.000169489
9.97089e-05
0.000103624
0.000153777
0.000211306
0.000311354
0.000729154
0.000720333
0.000312181
0.00023775
0.00208719
0.0019582
0.000407968
0.00208542
0.00208998
0.000473595
0.000592873
0.00031283
0.00208147
0.00215601
0.000555861
0.00048726
0.000505363
0.000341976
0.000567174
0.00228373
0.00223401
0.00052956
0.000367986
0.000503527
0.000516185
0.000550482
0.000289811
0.000481592
0.00212598
0.00255337
0.000471107
0.00046794
0.000338505
0.000477303
0.000536129
0.000439622
0.000350281
0.000427673
0.00150197
0.00213407
0.00232213
0.000548772
0.000332263
0.000248417
0.00043811
0.000523866
0.00050939
0.000502477
0.000680267
0.000609546
0.000752836
0.000322535
0.00249303
0.00223165
0.000675006
0.000395021
0.00037664
0.000357592
0.000432194
0.000428806
0.000367805
0.000487716
0.000624155
0.000448994
0.000715174
0.000472472
0.00130635
0.00284418
0.00228897
0.000932209
0.000759516
0.000488125
0.000514503
0.000436671
0.000420418
0.000432435
0.000334853
0.000377929
0.000486267
0.000713806
0.000837017
0.000538614
0.000575888
0.000926131
0.00251971
0.00248784
0.0010323
0.000617929
0.000521641
0.000706119
0.000629345
0.000579928
0.000608655
0.000395196
0.000506429
0.00067846
0.000735489
0.000711059
0.000668306
0.000268081
0.000557246
0.000602124
0.00106812
0.00236276
0.00220508
0.000668703
0.000407262
0.000780365
0.000807946
0.00075283
0.000548995
0.000577075
0.000652704
0.000756158
0.000485899
0.000653315
0.000862685
0.000765268
0.000856428
0.000576894
0.000874417
0.000396076
0.000378195
0.000908228
0.00235292
0.00250599
0.00108817
0.00122698
0.00124883
0.000673844
0.000578308
0.000571298
0.000648076
0.000701021
0.00100642
0.000770447
0.000513787
0.000928304
0.000919966
0.00080064
0.000863219
0.00116202
0.00108441
0.000327006
0.000595169
0.00090371
0.0011976
0.00249
0.00315317
0.00101851
0.00187808
0.0019203
0.00233078
0.000957225
0.0014545
0.00079535
0.000750243
0.000717977
0.000927216
0.00106317
0.000908572
0.000630442
0.000961919
0.00122053
0.000794179
0.00120788
0.00119291
0.00107889
0.00112747
0.00141389
0.00226996
0.00192304
0.00194615
0.00330129
0.00163223
0.00181263
0.00144542
0.00222748
0.00175197
0.00224392
0.000886882
0.000597165
0.000483301
0.000792447
0.000396056
0.000430963
0.000936249
0.000908076
0.00130698
0.00143723
0.00102252
0.000706872
0.000674506
0.000973452
0.000759353
0.00210789
0.00140841
0.00244402
0.00216205
0.00293121
0.00327171
0.00165677
0.00168915
0.00199965
0.00104238
0.000545655
0.000848546
0.000699957
0.000655387
0.000570329
0.000558522
0.000595322
0.000614166
0.000604168
0.000499438
0.00118316
0.00102123
0.000527281
0.000444421
0.000527632
0.000762045
0.000904866
0.00066348
0.000690554
0.00152763
0.00114442
0.0010148
0.00182472
0.00211582
0.00214696
0.000851901
0.00159328
0.0017551
0.00108431
0.000751851
0.00068491
0.000317285
0.000350876
0.000369283
0.000256517
0.000516285
0.000620352
0.000394884
0.000603173
0.000636819
0.000635535
0.000587662
0.000596424
0.000683403
0.000507721
0.000373426
0.00037452
0.000351299
0.0003743
0.000535357
0.00056332
0.000742363
0.00135447
0.00139441
0.0014564
0.00107974
0.000598365
0.000805651
0.000763779
0.000422702
0.000400896
0.000426373
0.000311918
0.00013818
0.000245615
0.000444294
0.000342474
0.000393959
0.000780687
0.000733222
0.000513846
0.000644141
0.000632759
0.000969428
0.000497171
0.000413403
0.000419274
0.000264624
0.000254495
0.000198689
0.000243522
0.00046636
0.000267943
0.000373671
0.000670111
0.000803826
0.00127219
0.000482008
0.000433649
0.000355718
0.000521787
0.000378649
0.000361179
0.000290142
0.000145143
0.000104976
0.00014107
0.000357995
0.000568119
0.000247879
0.000279553
0.000155645
0.000392562
0.000206615
0.000125532
0.000147003
0.000170151
0.000286857
0.000397529
0.000498539
0.000115154
0.000399
0.000247738
0.000157824
0.00010468
9.66876e-05
0.000131492
0.000217767
0.000323589
0.000441568
0.000461404
0.00044677
0.000320998
0.00212019
0.00205034
0.000309166
0.00223113
0.00198448
0.000324477
0.000350748
0.000326862
0.00213865
0.00202505
0.00048998
0.000547424
0.000337464
0.000210638
0.000392879
0.00206312
0.00219794
0.000577561
0.000589653
0.000489686
0.000147815
0.000308994
0.000454649
0.000630593
0.00222006
0.00222612
0.00048858
0.000634957
0.000301788
0.000380751
0.000447321
0.000694002
0.000476171
0.0005836
0.000612057
0.00210624
0.00240608
0.000658003
0.000411184
0.000272882
0.000464131
0.000414836
0.000413304
0.00049511
0.000584455
0.000493533
0.000703744
0.00120205
0.00217654
0.00230154
0.000484672
0.0002967
0.000476071
0.000520729
0.000382875
0.000474862
0.000461567
0.000670831
0.000640925
0.000547727
0.000774308
0.000339009
0.000509769
0.00238605
0.00224966
0.00070765
0.000517008
0.000322877
0.000279317
0.000265838
0.000308308
0.000375647
0.000360002
0.000439921
0.000666842
0.000438407
0.000691262
0.000442435
0.000567529
0.000957078
0.00272435
0.00233311
0.00106422
0.00062016
0.000281046
0.000408868
0.000306397
0.000320884
0.000619627
0.000386616
0.000402039
0.000456155
0.00041264
0.00047885
0.000689444
0.000347826
0.000430286
0.000555617
0.000623389
0.00273562
0.00236243
0.000842963
0.000851031
0.000442855
0.000483421
0.000587009
0.0005662
0.000844569
0.000564527
0.000471903
0.000466168
0.00070385
0.000811545
0.000508348
0.000502734
0.000647335
0.000352501
0.000525773
0.000584803
0.00105376
0.00229227
0.00206175
0.000477286
0.0006826
0.000787997
0.000996128
0.000983723
0.000728168
0.000637509
0.000745133
0.000502939
0.000754075
0.000587232
0.000755449
0.000741259
0.000804016
0.00059864
0.00105714
0.000567201
0.000277046
0.000458406
0.000471101
0.000437316
0.00233487
0.00247449
0.00133495
0.00106905
0.00134072
0.00110284
0.000884745
0.00111907
0.000730715
0.000996366
0.00094041
0.00114229
0.000565072
0.000535192
0.000795075
0.000826754
0.000897633
0.000995802
0.00112578
0.000934905
0.000845768
0.000824378
0.00087056
0.000502156
0.00108069
0.002644
0.00307859
0.00170312
0.00161111
0.00164684
0.00104623
0.000879349
0.000680294
0.000785075
0.000757445
0.000601542
0.000786322
0.000729354
0.000873032
0.000950423
0.000824302
0.000848409
0.00117186
0.000518068
0.000619634
0.00127171
0.00074338
0.00132699
0.00103916
0.00148814
0.00233748
0.00178987
0.00183308
0.00329581
0.00110365
0.00182383
0.00176069
0.00208356
0.00112758
0.0005967
0.000712926
0.000412596
0.000505776
0.000339671
0.000267613
0.000711304
0.000581486
0.000596394
0.00128933
0.00131888
0.00107019
0.000723682
0.00136522
0.000857147
0.000935209
0.000884012
0.000557451
0.00079919
0.00108668
0.00136214
0.001683
0.00240147
0.00322183
0.0016181
0.00148553
0.00141147
0.00159987
0.000517815
0.000623428
0.00116935
0.000860464
0.000637085
0.000525704
0.000528163
0.000600634
0.00079851
0.000554659
0.000545802
0.000490649
0.00151732
0.00100437
0.000836818
0.000739391
0.000405357
0.00085433
0.000816521
0.000709664
0.00103171
0.000816916
0.000687613
0.00172287
0.00170687
0.00205285
0.00212967
0.000992587
0.0018576
0.000612996
0.00183971
0.000428993
0.000652097
0.000468884
0.000353024
0.000295764
0.000346084
0.000592974
0.000375949
0.000489086
0.000722425
0.000698196
0.000370718
0.000490397
0.000675479
0.000748834
0.000562577
0.000415506
0.000802454
0.000365715
0.000255217
0.000412069
0.000592711
0.000381071
0.000280024
0.000179296
0.000893714
0.00112452
0.00136868
0.00107409
0.00054698
0.000710825
0.000492241
0.000230622
0.000275147
0.000394439
0.000378539
0.000147194
0.000240957
0.000384303
0.000314756
0.000391254
0.000721536
0.000387459
0.000695373
0.00087172
0.000504692
0.000892525
0.000730311
0.000986472
0.000460475
0.00042672
0.000295876
0.000384849
0.000196467
0.000269001
0.000228039
0.000393619
0.000292007
0.000365937
0.000740999
0.000620527
0.000691227
0.000525883
0.000322029
0.000343385
0.000450327
0.000467768
0.00037469
0.000275944
0.000143878
0.000100811
0.000160891
0.000397371
0.000554137
0.000255458
0.000292415
0.000214787
0.000382987
0.000271795
0.000165479
0.000113925
0.00020266
0.000226914
0.000234195
0.000352417
0.000444228
0.000526331
0.000159148
0.000402018
0.000238337
0.000149216
8.86105e-05
9.76399e-05
0.000102572
0.000178597
0.000305871
0.000247004
0.000352904
0.000448104
0.000199041
0.00205072
0.00215435
0.000284653
0.00227905
0.00206101
0.000279373
0.000216577
0.000371504
0.00221489
0.00200336
0.000285202
0.000182093
0.000380212
0.0003838
0.000379326
0.0021385
0.00205897
0.000410163
0.00042442
0.000226943
0.00017393
0.000441283
0.000321013
0.000318531
0.00209422
0.00225444
0.000519492
0.000622479
0.000222481
0.000357303
0.000301863
0.000663848
0.000407629
0.00045199
0.000545098
0.00217807
0.0023074
0.000608253
0.000388321
0.000268713
0.000438838
0.00037824
0.000569946
0.000666706
0.000513328
0.000349637
0.000414469
0.00055485
0.00199244
0.00228545
0.000414406
0.00041921
0.000397063
0.000528554
0.000397625
0.000507099
0.000624871
0.000692923
0.000633134
0.000612781
0.000598481
0.000558412
0.000987133