/*--------------------------------*- C++ -*----------------------------------*\
  =========                 |
  \\      /  F ield         | OpenFOAM: The Open Source CFD Toolbox
   \\    /   O peration     | Website:  https://openfoam.org
    \\  /    A nd           | Version:  7
     \\/     M anipulation  |
\*---------------------------------------------------------------------------*/
FoamFile
{
    version     2.0;
    format      ascii;
    class       volScalarField;
    location    "4";
    object      p;
}
// * * * * * * * * * * * * * * * * * * * * * * * * * * * * * * * * * * * * * //

dimensions      [0 2 -2 0 0 0 0];

internalField   nonuniform List<scalar> 
150000
(
-78.5245
-77.8349
-79.5287
-80.3254
-77.7355
-72.3533
-78.562
-80.0302
-77.0585
-80.71
-81.3509
-82.2772
-79.2041
-77.3143
-66.7033
-72.6964
-72.3735
-72.3167
-79.1812
-80.481
-84.9037
-79.3624
-76.4166
-81.7571
-82.2293
-82.7269
-82.4943
-81.7262
-78.18
-76.9137
-62.604
-67.0751
-72.6976
-66.4457
-73.0263
-74.1048
-79.4571
-70.5483
-72.2759
-79.656
-80.9965
-85.1421
-83.9002
-84.5511
-78.5668
-75.9006
-82.4521
-82.8114
-83.0016
-82.6563
-81.8353
-82.3705
-81.2133
-77.4596
-76.5817
-61.2784
-63.0471
-66.0758
-61.8651
-67.6578
-73.1506
-72.1252
-72.2495
-66.2718
-73.3826
-74.9769
-80.4793
-78.9198
-79.2947
-54.0843
-72.1213
-80.1285
-81.8393
-85.3295
-83.9925
-82.5536
-83.8533
-84.1226
-78.0784
-75.3103
-82.8783
-83.2609
-83.1276
-82.8638
-81.8729
-81.3062
-81.7992
-82.2367
-80.6318
-77.0817
-76.4533
-59.4068
-61.5014
-62.1224
-61.3837
-63.5881
-66.1517
-67.3918
-65.632
-61.3289
-68.1268
-73.5562
-72.9844
-73.2849
-71.7721
-72.4385
-66.1609
-73.8036
-76.6191
-81.2976
-78.8851
-78.18
-78.6996
-79.2924
-62.1632
-71.9839
-80.6306
-82.8376
-85.5259
-84.1234
-82.5235
-81.3965
-82.589
-83.8054
-83.6006
-77.4861
-74.7497
-83.1145
-83.7481
-83.2549
-83.0395
-81.9108
-81.3002
-81.4213
-81.3106
-81.764
-82.1195
-80.1233
-76.7522
-76.5757
-58.3499
-59.8063
-59.6042
-58.9328
-62.433
-62.1631
-63.0074
-62.3227
-60.8898
-64.1988
-66.6511
-67.1457
-67.9879
-67.1553
-65.0627
-61.3806
-68.4385
-74.1462
-73.0547
-73.8123
-73.7822
-73.8353
-72.1213
-72.8772
-65.9327
-74.3169
-78.9565
-82.1014
-78.8519
-77.9814
-79.6028
-78.4148
-78.7882
-79.1609
-64.8605
-71.8552
-81.3542
-83.9467
-85.724
-84.2707
-82.5094
-81.4408
-81.36
-81.3842
-82.5647
-83.7519
-83.2144
-76.8224
-74.272
-83.2261
-84.1019
-83.4457
-83.198
-81.9477
-81.2969
-81.4211
-81.1381
-81.4177
-81.3146
-81.7165
-82.02
-79.7568
-76.6637
-76.8727
-56.7084
-58.4528
-58.6118
-58.2069
-59.7809
-60.0959
-60.2244
-59.377
-58.7511
-62.7277
-62.9274
-63.3293
-61.9269
-62.3858
-61.9393
-60.7035
-64.4339
-68.0078
-67.3498
-67.4566
-68.016
-68.2141
-67.3564
-65.1087
-61.7137
-68.2471
-74.7615
-72.8958
-73.8287
-73.6264
-74.415
-74.1555
-74.1778
-72.5963
-72.7971
-65.4291
-74.8262
-80.9225
-82.6564
-78.9522
-78.3002
-79.7531
-80.3546
-79.427
-78.8722
-79.3293
-79.0627
-67.3539
-71.5343
-82.1443
-84.9629
-85.9824
-84.4499
-82.5206
-81.4936
-81.428
-81.2097
-81.3258
-81.3891
-82.5098
-83.6448
-82.7814
-76.4156
-73.8816
-83.3284
-84.1762
-83.64
-83.3287
-81.986
-81.2952
-81.42
-81.1408
-81.4157
-81.1349
-81.4141
-81.319
-81.6689
-81.9264
-79.5362
-76.9839
-77.2296
-55.6849
-56.7682
-56.9563
-56.7002
-58.4401
-58.4667
-58.6245
-58.3529
-57.9966
-59.9258
-60.143
-60.3612
-60.4371
-59.9778
-59.5098
-58.6136
-63.0812
-63.2865
-63.8326
-62.5677
-62.338
-61.4009
-61.8616
-61.7138
-60.2765
-65.5721
-68.734
-67.2873
-67.2789
-67.6088
-68.0502
-68.4512
-68.7895
-68.1558
-65.1643
-62.4012
-68.0305
-75.0336
-72.3765
-73.2137
-73.5873
-74.3939
-73.9354
-74.5215
-74.8152
-74.7453
-73.4395
-72.7691
-64.977
-75.6444
-82.3255
-83.1565
-78.9932
-78.7708
-79.8055
-80.5693
-79.5714
-80.2723
-79.477
-79.0118
-79.533
-78.7951
-69.1319
-71.5681
-82.8287
-85.8051
-86.3126
-84.6218
-82.534
-81.5356
-81.4009
-81.2308
-81.1742
-81.2061
-81.311
-81.3705
-82.4177
-83.4907
-82.2641
-76.3454
-73.6735
-83.55
-84.4953
-83.7992
-83.4304
-82.0232
-81.2929
-81.4179
-81.1424
-81.4101
-81.493
-81.422
-81.1309
-81.4095
-81.32
-81.6295
-81.8469
-79.4694
-77.6
-77.5909
-55.3308
-55.7889
-55.6513
-55.5316
-56.7491
-57.022
-57.001
-57.016
-56.7196
-58.4896
-58.5245
-58.6838
-58.4321
-58.4663
-58.1432
-57.6686
-59.9304
-60.2195
-60.4395
-60.4209
-60.3371
-60.3921
-59.7741
-59.0618
-58.7083
-63.5799
-62.6715
-63.9077
-62.9801
-62.8908
-62.8516
-62.1394
-61.5218
-61.6712
-61.5173
-60.0091
-66.7886
-69.1372
-66.5091
-67.4687
-67.3182
-67.5618
-68.6831
-68.5814
-68.7777
-69.3199
-67.8172
-65.736
-63.9492
-68.2981
-75.5394
-73.0491
-73.2854
-73.7236
-74.4888
-74.1072
-73.6064
-74.0812
-74.8112
-74.9388
-75.2292
-74.4947
-72.8598
-65.0441
-76.4865
-83.6014
-83.8108
-79.3468
-79.2448
-79.9886
-80.661
-79.6043
-79.6248
-79.778
-80.3131
-79.6518
-79.0123
-79.7751
-78.4204
-70.6263
-71.7874
-83.6517
-86.652
-86.7297
-84.7717
-82.5718
-81.5543
-81.3837
-81.2311
-81.1514
-81.1181
-81.1989
-81.2235
-81.2682
-81.3188
-82.2959
-83.2777
-81.9778
-76.3296
-73.6539
-83.9322
-85.2321
-83.9225
-83.5174
-82.0623
-81.2988
-81.4158
-81.1432
-81.4043
-81.4914
-81.4482
-81.4963
-81.4273
-81.1252
-81.4028
-81.319
-81.5919
-81.7599
-79.5543
-78.3173
-77.8881
-54.5868
-55.268
-55.2993
-55.2058
-55.8776
-55.8364
-55.8439
-55.6586
-55.5794
-56.7619
-57.0926
-56.9577
-57.0364
-57.0893
-56.7298
-56.6081
-58.4789
-58.4922
-58.6942
-58.5063
-58.4271
-58.4955
-58.2646
-58.0398
-57.6337
-59.7846
-59.9607
-60.5299
-60.3881
-60.2852
-60.4873
-60.3424
-60.3154
-59.657
-58.6732
-58.5883
-63.5089
-62.3449
-64.494
-63.4068
-62.9299
-63.0469
-63.5623
-62.5741
-61.699
-61.4207
-60.9689
-61.6931
-60.3396
-66.5546
-70.0097
-65.7991
-67.0052
-67.5903
-67.6255
-68.501
-68.9475
-68.632
-68.7538
-68.9558
-69.8002
-68.3529
-66.4218
-65.217
-68.0581
-76.3376
-73.1876
-73.2283
-73.8263
-74.7184
-74.2374
-73.5492
-74.4245
-74.3511
-74.68
-75.2308
-75.3168
-75.6395
-75.1426
-73.2596
-65.1479
-77.4591
-85.206
-84.5075
-79.8867
-79.3756
-80.1697
-80.6049
-79.8467
-79.6389
-79.442
-79.5702
-79.6917
-80.195
-79.5904
-79.1464
-79.8481
-78.055
-71.6078
-71.8243
-84.4195
-87.7291
-87.1664
-84.9086
-82.6362
-81.5624
-81.4131
-81.2407
-81.117
-81.0836
-81.1974
-81.1963
-81.225
-81.2181
-81.2529
-81.2879
-82.1697
-83.0426
-81.7959
-76.3477
-73.7184
-84.3963
-85.7695
-84.0054
-83.5777
-82.1014
-81.3044
-81.4144
-81.1421
-81.3978
-81.491
-81.4273
-81.1698
-81.4692
-81.4999
-81.4325
-81.1181
-81.395
-81.3157
-81.5522
-81.6873
-79.785
-78.9721
-78.0807
-53.8523
-54.5135
-54.7131
-54.6523
-55.1175
-55.2146
-55.2266
-55.3695
-55.1443
-55.8672
-55.8851
-55.9869
-55.9698
-55.9147
-55.5951
-55.4425
-56.7995
-57.1417
-57.0241
-57.0759
-57.0588
-57.0753
-56.9178
-56.6339
-56.5408
-58.4984
-58.4264
-58.7683
-58.6974
-58.4196
-58.4711
-58.4279
-58.4252
-58.1906
-57.7788
-57.8223
-59.8531
-59.73
-60.1692
-60.378
-60.23
-60.4876
-60.5855
-60.4445
-60.286
-60.2122
-59.4207
-58.4286
-58.5422
-63.4772
-62.5345
-62.4737
-63.1884
-62.951
-63.1317
-63.3545
-64.0713
-63.3294
-61.9539
-61.6763
-61.3209
-60.2906
-61.9345
-60.5666
-67.0088
-70.6039
-68.4163
-66.8388
-67.5121
-67.5404
-68.3985
-68.8314
-69.1922
-69.0138
-68.7901
-69.2933
-69.3335
-69.7829
-68.8418
-66.8809
-65.7791
-67.9921
-77.2074
-73.4538
-73.162
-74.2259
-74.87
-74.2557
-73.9224
-74.5262
-74.9977
-73.9673
-74.22
-74.9401
-75.4546
-75.9427
-76.109
-75.7923
-73.6416
-65.2962
-78.7483
-86.6387
-85.0658
-80.5128
-79.6805
-80.3151
-80.7947
-79.9744
-79.5921
-79.3947
-79.5769
-79.526
-79.2849
-79.5061
-80.1743
-79.6573
-79.3431
-80.0976
-77.9446
-72.6591
-71.0569
-85.1434
-89.0369
-87.4751
-85.021
-82.7538
-81.5831
-81.435
-81.2532
-81.0963
-81.0686
-81.1387
-80.9309
-81.2484
-81.2324
-81.2341
-81.2145
-81.2383
-81.2752
-82.0283
-82.767
-81.4184
-76.4597
-73.8203
-84.7571
-86.1027
-84.0586
-83.6162
-82.1402
-81.294
-81.4134
-81.1399
-81.3919
-81.4915
-81.4075
-81.1479
-80.5895
-81.1942
-81.4875
-81.5042
-81.4367
-81.1109
-81.3858
-81.3091
-81.5171
-81.6126
-80.1195
-79.4637
-78.1821
-53.5052
-53.8555
-53.9636
-53.8608
-54.5418
-54.7031
-54.6353
-54.6537
-54.4668
-55.1335
-55.2849
-55.2891
-55.186
-55.2631
-55.4442
-55.2722
-55.9499
-55.9583
-55.9999
-56.0381
-56.0321
-55.9333
-55.9052
-55.5084
-55.5291
-56.7874
-57.1815
-56.967
-57.0882
-57.1073
-57.1355
-57.0753
-57.1157
-56.8106
-56.5618
-56.4624
-58.4455
-58.4842
-58.7357
-58.6844
-58.522
-58.5056
-58.6273
-58.4722
-58.3775
-58.3127
-58.1476
-57.639
-57.761
-59.7105
-59.4379
-59.6101
-60.1571
-60.1312
-60.4645
-60.7375
-60.9544
-60.5465
-60.332
-60.2579
-60.1547
-59.2037
-58.3362
-58.5436
-63.7282
-62.199
-62.7116
-62.4795
-63.0769
-63.1572
-63.5033
-64.0473
-64.6135
-63.965
-63.0399
-61.9556
-61.7361
-61.2867
-60.6742
-62.0364
-60.9294
-67.88
-70.7138
-67.5697
-67.5163
-67.1815
-67.5197
-68.4091
-68.8481
-69.2067
-69.6652
-69.1689
-69.4035
-69.407
-69.5349
-69.7244
-69.6428
-69.0169
-67.9822
-65.455
-68.0875
-78.1553
-74.0987
-73.5295
-74.5817
-75.3529
-74.0885
-74.1673
-74.5292
-75.0719
-75.1187
-74.6544
-73.6497
-73.556
-75.1965
-75.5397
-76.282
-76.5876
-75.936
-73.6436
-65.3463
-80.4797
-87.8477
-85.6902
-81.0467
-80.1721
-80.4419
-80.8168
-80.1199
-79.6301
-79.297
-79.4265
-79.4226
-79.6478
-79.6328
-79.3233
-79.531
-80.2604
-79.7142
-79.6412
-80.1758
-77.3659
-73.7956
-70.4686
-85.9509
-90.0891
-87.7864
-85.1331
-82.8698
-81.6087
-81.3616
-81.2413
-81.0731
-81.0393
-81.0699
-80.8746
-80.635
-80.989
-81.335
-81.277
-81.2532
-81.2058
-81.2116
-81.2552
-81.8817
-82.411
-80.9854
-76.6434
-74.0028
-85.0609
-86.1143
-84.0988
-83.6402
-82.1798
-81.2841
-81.4089
-81.1379
-81.3868
-81.4941
-81.3886
-81.1267
-80.5725
-80.0058
-80.6324
-81.2153
-81.5027
-81.5084
-81.4407
-81.1029
-81.3752
-81.3014
-81.4835
-81.5493
-80.4126
-79.7701
-78.2048
-53.2661
-53.5046
-53.5689
-53.5226
-53.9275
-53.9642
-54.0591
-53.7473
-53.847
-54.6009
-54.5837
-54.6993
-54.5697
-54.6017
-54.688
-54.448
-55.1416
-55.2095
-55.2389
-55.2495
-55.2244
-55.2047
-55.2091
-55.3269
-55.1861
-55.9501
-55.9362
-55.952
-56.0309
-56.0417
-56.0983
-56.0572
-55.9632
-55.7772
-55.4826
-55.4854
-56.7722
-57.0985
-56.9455
-57.0654
-57.0893
-57.1233
-57.2554
-57.1761
-57.0388
-56.9825
-56.7439
-56.3947
-56.4343
-58.4576
-58.3748
-58.6029
-58.535
-58.4965
-58.5439
-58.6738
-58.9279
-58.606
-58.4127
-58.4516
-58.2319
-58.1189
-57.6018
-57.6951
-59.6624
-58.9714
-58.9327
-59.5709
-59.9477
-60.2679
-60.6885
-61.0331
-61.2106
-60.8363
-60.5156
-60.2429
-60.179
-60.0836
-59.2956
-57.6294
-58.5164
-63.6257
-61.8063
-62.673
-62.5483
-62.8438
-63.0685
-63.4779
-63.9988
-64.5184
-64.6236
-64.7217
-63.9982
-63.0501
-62.363
-61.8599
-61.3056
-60.3312
-62.7538
-61.6615
-68.147
-71.8426
-66.7601
-67.8648
-67.4703
-67.6848
-68.3828
-68.9296
-69.3519
-69.6317
-69.9107
-69.5808
-69.5593
-69.6785
-69.5838
-69.8137
-70.1312
-70.0511
-68.3387
-68.103
-65.4175
-68.2796
-78.1247
-74.6238
-73.8877
-75.1691
-75.8232
-74.1551
-74.4826
-74.6276
-74.918
-75.0499
-74.8661
-75.0942
-74.7339
-74.4447
-74.3141
-75.6477
-75.6989
-76.4214
-76.5383
-75.5393
-74.8636
-65.7855
-82.1606
-89.1664
-86.3739
-81.7772
-80.7121
-80.5976
-80.7462
-80.2277
-79.6401
-79.1977
-79.3109
-79.2915
-79.2155
-79.5523
-79.8324
-79.708
-79.4539
-79.5427
-80.2302
-79.662
-79.1705
-79.6964
-77.0407
-74.3555
-70.039
-86.8705
-90.7699
-88.0911
-85.2618
-83.0206
-81.6251
-81.3283
-81.2149
-81.0653
-81.02
-81.0161
-80.8058
-80.4928
-80.3911
-80.7837
-81.0935
-81.3978
-81.3291
-81.2811
-81.2091
-81.1903
-81.2263
-81.7261
-82.0236
-80.453
-76.7929
-74.2485
-85.3697
-85.9537
-84.1297
-83.6536
-82.2187
-81.2822
-81.4047
-81.1345
-81.3817
-81.4987
-81.372
-81.1051
-80.557
-80.0238
-79.906
-79.9804
-80.6732
-81.233
-81.5172
-81.5128
-81.4448
-81.0937
-81.3639
-81.2913
-81.4486
-81.4894
-80.515
-79.9378
-78.2212
-53.0759
-53.295
-53.2447
-53.2915
-53.5733
-53.4478
-53.6729
-53.5565
-53.5708
-54.0818
-53.8945
-53.9891
-54.0068
-53.9733
-53.6959
-53.7256
-54.7287
-54.6153
-54.608
-54.6072
-54.6153
-54.6537
-54.5476
-54.738
-54.4246
-55.1507
-55.1449
-55.2596
-55.2578
-55.2861
-55.3188
-55.1767
-55.1928
-55.1218
-55.3092
-55.1855
-55.9186
-55.9471
-55.995
-56.0316
-56.0401
-56.1352
-56.2114
-56.0755
-56.0624
-55.8168
-55.7763
-55.4784
-55.4688
-56.8015
-56.9771
-56.9225
-57.0169
-57.0397
-57.1429
-57.239
-57.385
-57.2481
-57.1188
-57.0002
-56.7802
-56.704
-56.3268
-56.4654
-58.4902
-58.2533
-58.5975
-58.469
-58.5119
-58.5189
-58.6665
-58.8967
-59.0907
-58.9187
-58.522
-58.3599
-58.3641
-58.1885
-57.8067
-57.5648
-57.6731
-59.5652
-58.8201
-58.8492
-59.4036
-59.6389
-60.1878
-60.6402
-60.9598
-61.2866
-61.488
-61.1661
-60.5794
-60.284
-60.1619
-60.1755
-59.9401
-59.3785
-57.7647
-58.8552
-63.434
-61.6826
-61.6908
-62.2264
-62.7359
-62.8409
-63.4789
-63.8276
-64.4774
-64.5821
-64.8894
-64.9264
-64.8377
-64.2431
-62.8169
-62.3364
-62.2155
-61.082
-60.0919
-62.7457
-62.0855
-68.5563
-72.6726
-67.5547
-67.975
-66.9496
-68.4215
-68.4327
-68.8792
-69.2291
-69.5109
-69.6772
-69.5004
-69.8448
-69.7023
-69.6553
-69.6572
-70.2221
-70.2342
-70.2895
-70.1383
-68.1372
-68.5516
-65.4038
-69.0039
-78.0395
-75.2514
-74.4292
-75.423
-75.7572
-74.9062
-74.7108
-74.843
-75.0083
-75.047
-74.8167
-74.8188
-75.0318
-74.8347
-74.6854
-74.3902
-74.5449
-75.8997
-75.849
-76.1943
-76.3143
-75.1168
-75.0132
-66.4689
-83.6001
-90.0107
-86.7874
-82.3681
-81.2474
-80.8153
-80.7388
-80.3095
-79.662
-79.1644
-79.1634
-79.0957
-79.0892
-78.5693
-79.3597
-79.6847
-79.9216
-79.7148
-79.4468
-79.6166
-80.2354
-79.6692
-78.9643
-79.379
-76.782
-74.2742
-69.7861
-87.7435
-91.1567
-88.3522
-85.3409
-83.2081
-81.6288
-81.306
-81.1785
-81.0508
-81.015
-80.982
-80.7341
-80.374
-80.1986
-80.152
-80.5908
-80.8917
-81.1435
-81.4734
-81.3768
-81.3242
-81.2427
-81.1776
-81.2163
-81.5698
-81.6515
-79.7558
-76.9762
-74.2156
-85.5157
-85.8166
-84.1374
-83.654
-82.2529
-81.2912
-81.3984
-81.1306
-81.3771
-81.5043
-81.3593
-81.0834
-80.5152
-80.0286
-79.8764
-80.093
-79.9081
-79.961
-80.7148
-81.2534
-81.5352
-81.5178
-81.4486
-81.0852
-81.3526
-81.274
-81.4135
-81.421
-80.5646
-80.0217
-78.2625
-52.9185
-53.0867
-53.1056
-53.0795
-53.3262
-53.1882
-53.3149
-53.2846
-53.2729
-53.6792
-53.6152
-53.6151
-53.6793
-53.6709
-53.5635
-53.5317
-54.1631
-54.1325
-54.0313
-54.086
-54.0619
-54.0179
-53.8867
-53.4989
-53.6678
-54.7591
-54.7147
-54.6653
-54.6842
-54.6226
-54.6997
-54.4931
-54.5834
-54.5757
-54.7809
-54.3753
-55.1758
-55.1589
-55.2841
-55.3208
-55.3016
-55.3142
-55.4012
-55.2674
-55.2379
-55.1352
-55.0976
-55.1935
-55.0412
-55.9403
-55.9929
-55.8994
-56.0361
-56.05
-56.17
-56.2618
-56.335
-56.1693
-56.1104
-55.9181
-55.8443
-55.7888
-55.5206
-55.5922
-56.6902
-56.8871
-56.8001
-56.9241
-57.0049
-57.1297
-57.2716
-57.4088
-57.5798
-57.3279
-57.157
-57.0653
-56.991
-56.7875
-56.6684
-56.4084
-56.4687
-58.4168
-57.965
-58.5999
-58.4009
-58.5182
-58.4459
-58.6652
-58.7725
-59.1288
-59.2867
-58.9707
-58.5915
-58.5207
-58.3372
-58.3536
-58.1372
-57.8537
-57.4579
-57.7412
-59.6611
-58.7602
-58.512
-59.241
-59.0922
-59.9451
-60.5539
-60.8923
-61.2268
-61.6004
-61.8905
-61.4498
-60.9504
-60.4639
-60.0208
-60.1225
-60.2214
-59.9178
-59.0579
-58.5697
-59.01
-63.5733
-62.5035
-61.9579
-62.0014
-62.266
-62.5133
-63.6199
-63.797
-64.3389
-64.67
-64.911
-65.3642
-65.3096
-65.3917
-64.8489
-64.3145
-62.7473
-62.7493
-62.364
-60.9215
-60.4195
-61.8547
-62.286
-68.673
-72.1478
-68.4869
-68.2418
-68.945
-68.7098
-68.2947
-68.9007
-69.3298
-69.4782
-69.5605
-69.4539
-69.4973
-69.5195
-69.5348
-69.5081
-69.5717
-69.8656
-70.4235
-70.5633
-70.2719
-69.4174
-67.6068
-69.1363
-65.2946
-69.6517
-78.3483
-76.1237
-75.1811
-75.2221
-76.1652
-75.6206
-75.0022
-74.9722
-75.0207
-74.9651
-74.7561
-74.6659
-74.5965
-74.7548
-74.959
-74.6968
-74.1416
-74.2461
-74.7369
-75.9321
-75.8844
-76.0389
-75.7412
-74.8505
-74.2883
-66.8487
-85.0618
-90.584
-87.41
-83.0909
-81.8
-80.9765
-80.5882
-80.0958
-79.6601
-79.1213
-78.9909
-78.8854
-78.8739
-78.3394
-78.1627
-78.7593
-79.4302
-79.7504
-79.9535
-79.7431
-79.5734
-79.7157
-80.2996
-79.826
-79.0222
-79.0719
-76.4996
-74.04
-69.9778
-88.5412
-91.59
-88.5532
-85.4464
-83.4311
-81.6833
-81.2864
-81.0731
-81.0274
-81.0115
-80.9657
-80.6692
-80.2856
-80.0365
-80.0879
-81.0896
-80.2625
-80.7149
-80.9614
-81.1774
-81.531
-81.4395
-81.3764
-81.2403
-81.1511
-81.2121
-81.4
-81.3331
-79.2576
-76.9798
-74.0387
-85.5608
-85.6796
-84.0788
-83.6355
-82.283
-81.3077
-81.3933
-81.1258
-81.373
-81.5106
-81.3535
-81.0609
-80.4766
-80.0297
-79.8495
-80.0593
-80.0316
-80.1222
-79.9351
-79.945
-80.7615
-81.2723
-81.5467
-81.5232
-81.4518
-81.0762
-81.3432
-81.2579
-81.3681
-81.3682
-80.6727
-80.0758
-78.2697
-52.7596
-52.9447
-52.9537
-52.9373
-53.1233
-53.1203
-53.0913
-53.1085
-53.0615
-53.3632
-53.3486
-53.3657
-53.3689
-53.3389
-53.277
-53.2666
-53.6735
-53.7385
-53.695
-53.7099
-53.6684
-53.6428
-53.5904
-53.5737
-53.5317
-54.1363
-54.1613
-54.0944
-54.1397
-54.0746
-54.1022
-53.967
-53.9406
-53.7728
-53.1865
-53.6776
-54.6567
-54.6636
-54.656
-54.6972
-54.6592
-54.7108
-54.7574
-54.6583
-54.4969
-54.5266
-54.4577
-54.6369
-54.2766
-55.1337
-55.1346
-55.2332
-55.3317
-55.3284
-55.3077
-55.3958
-55.5606
-55.3573
-55.3095
-55.2046
-55.1458
-55.0779
-55.0753
-54.9527
-55.9202
-55.8858
-55.8441
-55.9933
-56.0707
-56.1443
-56.2853
-56.3818
-56.4964
-56.3227
-56.191
-56.0351
-55.8159
-55.9117
-55.8061
-55.6614
-55.5616
-56.6792
-56.7284
-56.8034
-56.8516
-56.891
-57.0708
-57.169
-57.3912
-57.6315
-57.7676
-57.5288
-57.2953
-57.1112
-57.0661
-57.0277
-56.7613
-56.5446
-56.3049
-56.6655
-58.5296
-57.8827
-58.0526
-58.1464
-58.3656
-58.4105
-58.5061
-58.812
-59.1004
-59.3398
-59.6847
-59.2782
-58.9027
-58.7109
-58.4238
-58.5621
-58.546
-58.1026
-57.7987
-57.6765
-57.7583
-59.9586
-59.0615
-58.46
-58.8874
-59.343
-59.7613
-60.5263
-60.8627
-61.3259
-61.6552
-61.856
-62.1722
-61.7979
-61.1747
-60.6946
-60.2563
-59.6058
-60.0808
-60.3082
-59.8974
-59.2956
-58.9241
-58.8586
-63.516
-62.927
-62.8638
-61.7691
-61.3942
-62.7016
-63.4204
-63.7815
-64.3075
-64.4398
-64.7853
-65.3473
-65.7279
-65.2981
-65.3595
-65.2178
-64.9625
-64.1979
-63.389
-63.1524
-62.5456
-60.405
-60.5089
-62.3846
-62.525
-68.498
-71.8135
-69.0449
-68.447
-69.9072
-68.2536
-68.5733
-69.0785
-69.4646
-69.486
-69.2912
-69.3936
-69.3309
-70.1581
-69.6274
-69.7291
-69.5917
-69.5677
-69.6479
-70.1115
-70.6107
-70.7966
-70.7805
-68.7835
-68.7294
-68.3113
-64.8471
-70.5087
-78.7154
-76.6644
-76.3075
-75.9122
-76.7132
-75.9182
-75.2766
-75.1571
-74.9237
-74.8729
-74.6909
-74.4889
-74.479
-74.2986
-74.6055
-74.6584
-74.8905
-74.6357
-74.3066
-74.4138
-74.9388
-76.1596
-75.8039
-76.2598
-75.4268
-74.9504
-73.7699
-67.4112
-86.3459
-91.1716
-87.9611
-83.9353
-82.6117
-81.1601
-80.601
-79.9815
-79.6272
-79.0184
-78.8725
-78.6546
-78.7382
-78.1239
-78.2061
-78.8023
-78.167
-79.0058
-79.4835
-79.8351
-79.9756
-79.7668
-79.6961
-79.7443
-80.3134
-79.7827
-78.9551
-78.9333
-76.4542
-74.0258
-70.1683
-89.2649
-91.9933
-88.6861
-85.5335
-83.6163
-81.7647
-81.2828
-81.0271
-80.9955
-81.0143
-80.9699
-80.6209
-80.1783
-79.9005
-80.0552
-80.9348
-79.7602
-81.2348
-80.3805
-80.8319
-81.0503
-81.2502
-81.5907
-81.4917
-81.4069
-81.2358
-81.1101
-81.2147
-81.2324
-81.056
-79.0296
-76.9079
-73.9372
-85.6287
-85.5415
-83.9397
-83.6052
-82.3075
-81.3216
-81.3912
-81.1195
-81.3706
-81.517
-81.352
-81.0359
-80.4398
-80.0271
-79.824
-80.0271
-79.9978
-80.1618
-80.0619
-80.1478
-79.9713
-79.9223
-80.791
-81.2951
-81.5491
-81.5307
-81.4541
-81.0652
-81.3342
-81.2423
-81.3223
-81.3625
-80.8119
-80.1167
-78.3319
-52.635
-52.7865
-52.7583
-52.735
-52.9703
-52.954
-52.9897
-52.9855
-52.8965
-53.1724
-53.1587
-53.1015
-53.1582
-53.1299
-53.0814
-53.0752
-53.3803
-53.3807
-53.3875
-53.3944
-53.4157
-53.3305
-53.3364
-53.2747
-53.2417
-53.7417
-53.713
-53.6943
-53.7402
-53.7295
-53.7379
-53.6233
-53.6098
-53.5562
-53.5288
-53.5289
-54.1759
-54.1355
-54.1631
-54.1655
-54.1252
-54.1311
-54.2174
-54.0761
-53.9737
-53.8929
-53.8942
-53.4304
-53.6849
-54.5738
-54.7085
-54.7312
-54.6893
-54.6763
-54.6972
-54.8041
-54.9888
-54.6851
-54.4897
-54.4944
-54.4118
-54.34
-54.394
-54.2143
-55.141
-55.0605
-55.2694
-55.2933
-55.3156
-55.3575
-55.476
-55.4856
-55.655
-55.5066
-55.4041
-55.2922
-55.1405
-55.1496
-55.028
-54.8845
-54.8243
-55.991
-55.8745
-55.8075
-56.0165
-56.0403
-56.1726
-56.2334
-56.3686
-56.6041
-56.7838
-56.5335
-56.284
-56.1063
-56.0458
-55.9759
-55.8121
-55.7662
-55.7606
-55.6509
-56.8079
-56.7458
-56.7735
-56.8344
-56.9615
-57.0415
-57.2404
-57.3704
-57.5768
-57.8141
-57.9609
-57.813
-57.5156
-57.2669
-57.0883
-57.0114
-56.9445
-56.7156
-56.5138
-56.3324
-56.7584
-58.6934
-58.0277
-58.0951
-57.8265
-58.2124
-58.2789
-58.4468
-58.816
-59.1237
-59.3968
-59.5792
-60.0708
-59.5673
-59.1641
-58.9846
-58.8237
-58.513
-58.6152
-58.4764
-58.0618
-57.8085
-57.9129
-57.7142
-59.8004
-59.6353
-58.4903
-58.9269
-59.2639
-59.7512
-60.2906
-60.9594
-61.3214
-61.7153
-61.7069
-62.1351
-62.5891
-62.1089
-61.7646
-61.0936
-60.4596
-60.1481
-60.0381
-60.2565
-60.3202
-59.7901
-59.2067
-59.1518
-59.2401
-63.317
-62.697
-63.5573
-61.7866
-62.3028
-62.4662
-62.6224
-63.7381
-64.172
-64.4613
-64.7978
-65.3391
-65.7221
-66.1143
-65.7334
-65.3576
-65.1446
-65.4421
-64.9381
-64.1131
-63.453
-63.2625
-62.5205
-60.7725
-60.6968
-62.1119
-62.4035
-68.3446
-71.6726
-68.8833
-68.866
-68.3188
-69.0532
-69.171
-69.1945
-69.5533
-69.4224
-69.2573
-69.4517
-69.508
-70.1162
-70.5014
-70.4238
-69.7738
-69.8473
-69.673
-69.5947
-69.6119
-70.3663
-70.7734
-70.9288
-70.4161
-68.5707
-67.5959
-67.7895
-64.9747
-71.2446
-79.5077
-77.7141
-77.5333
-77.0594
-76.8308
-76.2841
-75.5314
-75.1703
-74.8565
-74.8371
-74.5789
-74.2851
-74.333
-74.1647
-74.0388
-74.4589
-74.5475
-74.5997
-74.9014
-74.631
-74.3699
-74.5411
-75.2473
-76.4051
-75.808
-76.0834
-75.3582
-74.3333
-73.205
-67.745
-87.7087
-91.5572
-88.1357
-84.697
-82.8825
-81.3006
-80.5456
-79.9979
-79.4677
-78.8573
-78.7279
-78.4747
-78.5615
-77.9895
-78.3272
-78.8268
-77.7293
-78.7486
-77.9824
-79.0729
-79.4924
-79.9049
-79.9924
-79.8039
-79.7757
-79.7695
-80.2633
-79.7843
-78.9092
-78.7541
-76.5698
-73.9458
-70.515
-89.9101
-92.3575
-88.6558
-85.655
-83.6917
-81.8232
-81.2736
-80.9665
-80.9401
-81.0374
-80.9933
-80.5913
-80.079
-79.797
-80.0582
-80.7972
-79.5272
-79.1796
-79.974
-81.358
-80.4803
-80.9756
-81.1838
-81.3329
-81.6744
-81.555
-81.418
-81.2297
-81.0731
-81.2204
-81.0298
-80.7376
-79.0092
-76.8765
-73.9478
-85.7353
-85.3639
-83.8396
-83.5745
-82.3341
-81.3381
-81.3838
-81.1127
-81.3701
-81.521
-81.3523
-81.0129
-80.4032
-80.0185
-79.7755
-80.0069
-79.9538
-80.0989
-80.0138
-80.2133
-80.0964
-80.1621
-79.999
-79.9199
-80.8062
-81.3217
-81.5519
-81.5357
-81.457
-81.0543
-81.3243
-81.2222
-81.2826
-81.3694
-80.8726
-80.14
-78.4244
-52.4919
-52.638
-52.6425
-52.6044
-52.7865
-52.7889
-52.7943
-52.7263
-52.7293
-52.9783
-52.9598
-52.9986
-52.9732
-52.9647
-52.8914
-52.8688
-53.1942
-53.154
-53.1894
-53.174
-53.2559
-53.1291
-53.1137
-53.0706
-53.0702
-53.3766
-53.3987
-53.3707
-53.4562
-53.4618
-53.5178
-53.2303
-53.3355
-53.2692
-53.2378
-53.2594
-53.7672
-53.7079
-53.7389
-53.7653
-53.7427
-53.7889
-53.8238
-53.6479
-53.6703
-53.5823
-53.5982
-53.5546
-53.5107
-54.2393
-54.1255
-54.2272
-54.1716
-54.149
-54.1971
-54.2396
-54.2265
-54.193
-54.0352
-53.9727
-53.8826
-53.9178
-53.622
-53.6581
-54.6509
-54.7722
-54.6397
-54.6881
-54.7003
-54.7408
-54.7802
-54.8268
-55.0567
-54.9157
-54.6072
-54.5666
-54.4651
-54.3643
-54.2177
-54.2574
-54.1859
-55.1999
-55.168
-55.2006
-55.3366
-55.2924
-55.4004
-55.4316
-55.5134
-55.6641
-55.8684
-55.5647
-55.5481
-55.3734
-55.1593
-55.1321
-55.0399
-55.0483
-54.8456
-54.5898
-55.9826
-55.9918
-55.7912
-55.962
-56.0761
-56.1983
-56.3414
-56.3743
-56.596
-56.809
-56.9967
-56.6742
-56.5475
-56.2997
-56.1477
-56.1523
-55.949
-55.7677
-55.7698
-55.6087
-55.8068
-56.709
-56.7369
-56.6867
-56.7428
-56.9026
-57.0429
-57.155
-57.3898
-57.5753
-57.9256
-57.9611
-58.2479
-57.99
-57.8621
-57.4824
-57.2855
-57.0091
-57.1027
-56.9564
-56.6036
-56.6356
-56.6439
-56.6384
-58.8047
-58.0833
-57.9777
-57.8624
-58.0491
-58.2602
-58.3007
-58.8245
-59.0543
-59.4511
-59.7852
-60.0475
-60.3436
-59.8863
-59.4062
-59.2076
-58.965
-58.7983
-58.571
-58.5521
-58.3943
-58.1307
-57.6699
-57.8142
-57.5255
-59.6837
-59.7853
-58.4546
-58.9533
-59.3784
-59.9252
-60.2091
-60.9093
-61.301
-61.7073
-61.962
-62.1281
-62.6754
-62.9276
-62.4704
-62.174
-61.6161
-61.2704
-60.483
-59.9452
-60.2287
-60.3354
-60.3664
-59.6069
-59.0711
-59.6137
-59.8206
-63.6171
-62.4729
-63.7848
-61.8894
-62.5391
-62.1765
-63.0489
-63.704
-64.0955
-64.6168
-64.9366
-65.3124
-65.6098
-66.1616
-66.9413
-66.1808
-65.671
-65.3441
-65.3628
-65.3347
-65.0292
-64.2247
-63.5734
-63.5445
-61.7781
-60.7967
-60.2347
-61.7621
-62.0756
-68.2422
-71.3225
-69.3933
-69.7443
-68.6282
-69.6192
-69.142
-69.4705
-69.6524
-69.3387
-69.2328
-69.3733
-69.5295
-69.9569
-70.4268
-70.3913
-70.5486
-70.1396
-69.6818
-69.6906
-69.5599
-69.5129
-69.5552
-70.5525
-70.8661
-71.1527
-69.6187
-68.5498
-65.9291
-67.0318
-65.0546
-72.4006
-80.846
-78.9581
-78.4262
-77.8071
-77.119
-76.3966
-75.6387
-75.2124
-74.9114
-74.7015
-74.4939
-74.1901
-74.2386
-74.0859
-74.0373
-74.0293
-74.113
-74.5976
-74.3713
-74.611
-74.8784
-74.6198
-74.7158
-74.7094
-75.4847
-76.6218
-76.4016
-76.038
-75.2022
-73.9507
-72.7306
-68.1267
-89.0007
-91.8177
-88.1128
-85.288
-82.9928
-81.2726
-80.3711
-79.8802
-79.3728
-78.8597
-78.4672
-78.4375
-78.4301
-77.8948
-78.3881
-78.8913
-77.6199
-77.5373
-77.8718
-78.6423
-77.9692
-79.2185
-79.6143
-79.9984
-80.0571
-79.9082
-79.8102
-79.7645
-80.2502
-79.7896
-78.7967
-78.524
-76.4212
-73.735
-70.9129
-90.5055
-92.6465
-88.5677
-85.764
-83.8324
-81.8468
-81.2745
-80.8974
-80.8951
-81.0574
-81.0354
-80.5675
-79.993
-79.7317
-80.0913
-80.6699
-79.3352
-79.0583
-79.4404
-79.3167
-80.2049
-81.4052
-80.6235
-81.0984
-81.2491
-81.3727
-81.738
-81.6091
-81.4451
-81.2156
-81.026
-81.2068
-80.8119
-80.3723
-79.0681
-76.8691
-73.9772
-85.7527
-85.1465
-83.8148
-83.5438
-82.3577
-81.3564
-81.3751
-81.1062
-81.3728
-81.5294
-81.3566
-80.9941
-80.3699
-80.0046
-79.7363
-79.996
-79.9127
-80.0384
-79.9918
-79.1333
-80.0372
-80.2574
-80.1362
-80.1613
-80.0302
-79.9393
-80.834
-81.3423
-81.5563
-81.5364
-81.4586
-81.0434
-81.3138
-81.2027
-81.2456
-81.3714
-80.8731
-80.1897
-78.4575
-52.3669
-52.5006
-52.5123
-52.4839
-52.6728
-52.6495
-52.6625
-52.5983
-52.6315
-52.793
-52.7944
-52.8167
-52.7529
-52.7872
-52.7608
-52.6981
-52.9807
-52.9632
-53.0255
-52.9965
-53.0372
-53.0393
-52.9019
-52.8845
-52.8817
-53.1703
-53.1797
-53.1407
-53.2094
-53.2073
-53.2412
-53.1275
-53.1521
-53.111
-53.0657
-53.0699
-53.4368
-53.3893
-53.4766
-53.4642
-53.4563
-53.4721
-53.526
-53.3886
-53.4544
-53.3421
-53.1842
-53.2394
-53.2724
-53.8557
-53.7815
-53.7898
-53.7698
-53.7773
-53.7784
-53.8202
-53.8112
-53.8621
-53.6407
-53.6377
-53.5778
-53.6143
-53.5454
-53.4718
-54.2429
-54.1998
-54.1846
-54.2152
-54.2075
-54.2613
-54.204
-54.3402
-54.4585
-54.3561
-54.029
-53.9894
-53.9429
-53.8649
-53.7982
-53.6673
-53.6251
-54.6964
-54.6706
-54.6615
-54.675
-54.7019
-54.7535
-54.7769
-54.8868
-55.0673
-55.0927
-54.9498
-54.828
-54.647
-54.5611
-54.4109
-54.2937
-54.2385
-54.1185
-54.1194
-55.2207
-55.1925
-55.2127
-55.281
-55.3398
-55.3663
-55.4346
-55.5697
-55.6985
-55.8649
-56.009
-55.8347
-55.647
-55.4942
-55.2938
-55.2012
-55.1415
-55.0902
-54.9877
-54.7055
-54.693
-55.9991
-55.954
-55.6949
-55.8093
-55.9741
-56.1747
-56.2843
-56.4192
-56.5642
-56.7581
-56.8884
-57.145
-56.9263
-56.8009
-56.5452
-56.2777
-56.1454
-56.1047
-55.9036
-55.7386
-55.7026
-55.7437
-55.7344
-56.6777
-56.7465
-56.7663
-56.7571
-56.8988
-57.0132
-57.2437
-57.3474
-57.562
-57.8547
-58.0463
-58.272
-58.5327
-58.2378
-58.0267
-57.84
-57.4551
-57.1644
-57.0812
-57.1206
-56.9113
-56.7556
-56.6172
-56.6747
-56.6414
-58.8915
-58.1393
-57.9761
-57.7921
-58.0411
-58.2101
-58.5761
-58.6995
-59.0809
-59.4512
-59.8083
-60.0903
-60.3782
-60.556
-60.2062
-59.5813
-59.4624
-59.3134
-59.0245
-58.8663
-58.5992
-58.6301
-58.3788
-58.0009
-57.5759
-57.929
-57.8071
-59.4628
-59.7749
-58.8695
-58.9262
-59.5098
-59.8931
-60.3564
-60.798
-61.3308
-61.8043
-61.9552
-62.1279
-62.622
-62.9442
-63.2661
-62.8737
-62.5082
-62.1285
-61.5165
-61.1567
-60.4191
-60.0287
-60.2486
-60.5323
-60.2721
-59.5791
-59.355
-59.8706
-59.6968
-63.6927
-62.8077
-63.6794
-62.0593
-62.1106
-62.4082
-63.0717
-63.8962
-64.1512
-64.4829
-65.0087
-65.3144
-65.6941
-66.3268
-66.749
-67.3361
-66.6934
-65.9644
-65.6435
-65.378
-65.4992
-65.4005
-65.1055
-64.3143
-63.5336
-63.7127
-62.0552
-61.2007
-61.1747
-61.9212
-62.2924
-67.69
-70.6243
-70.5088
-70.5124
-69.9151
-68.9453
-69.4339
-69.9353
-69.7944
-69.4635
-69.0789
-69.216
-69.4905
-69.9004
-70.337
-70.2592
-70.5616
-70.6558
-70.7804
-70.112
-69.7512
-69.6013
-69.4737
-69.5429
-69.6413
-70.6368
-71.0397
-70.9916
-69.422
-68.1831
-66.2622
-66.9289
-65.1505
-73.7681
-81.2518
-79.9177
-78.9913
-78.1082
-77.344
-76.5733
-75.8456
-75.3235
-74.9145
-74.5764
-74.3472
-73.976
-74.0088
-74.1677
-74.0163
-73.9634
-74.3149
-74.0971
-74.2286
-74.5916
-74.1418
-74.4493
-74.7575
-74.6668
-74.8752
-74.964
-75.7036
-76.7912
-76.2189
-75.9766
-75.4009
-73.5702
-72.2545
-68.383
-90.1367
-91.8848
-88.1814
-85.6352
-83.1629
-81.2121
-80.3169
-79.7192
-79.3089
-78.8005
-78.3607
-78.326
-78.3532
-77.8398
-78.5364
-78.9476
-77.6046
-77.4868
-77.7055
-77.5855
-78.0384
-78.6364
-78.0412
-79.3311
-79.6857
-80.056
-80.1847
-79.9968
-79.945
-79.6573
-80.2304
-79.7646
-78.6674
-78.164
-76.1583
-73.3715
-71.4239
-90.7944
-92.6776
-88.358
-85.7668
-83.9988
-81.9142
-81.2802
-80.8469
-80.8601
-81.0706
-81.0856
-80.5635
-79.9248
-79.6851
-80.1204
-80.5082
-79.1927
-78.9671
-79.3104
-79.1731
-79.5897
-79.4767
-80.4434
-81.3423
-80.7485
-81.1728
-81.2895
-81.3961
-81.8187
-81.6464
-81.5094
-81.1867
-80.9733
-81.2033
-80.6154
-79.9361
-79.0026
-76.9019
-74.0593
-85.7038
-84.9169
-83.7698
-83.5074
-82.3736
-81.373
-81.3693
-81.1002
-81.3789
-81.5272
-81.3609
-80.9736
-80.3408
-79.9861
-79.7081
-79.9451
-79.8735
-79.9876
-79.9663
-79.1121
-78.7864
-79.1559
-80.0697
-80.3005
-80.1684
-80.1382
-80.074