/*--------------------------------*- C++ -*----------------------------------*\
  =========                 |
  \\      /  F ield         | OpenFOAM: The Open Source CFD Toolbox
   \\    /   O peration     | Website:  https://openfoam.org
    \\  /    A nd           | Version:  7
     \\/     M anipulation  |
\*---------------------------------------------------------------------------*/
FoamFile
{
    version     2.0;
    format      ascii;
    class       volScalarField;
    location    "0.5";
    object      nut;
}
// * * * * * * * * * * * * * * * * * * * * * * * * * * * * * * * * * * * * * //

dimensions      [0 2 -1 0 0 0 0];

internalField   nonuniform List<scalar> 
18750
(
0.000178268
0.000262052
0.000256249
0.00018633
0.000278043
0.000201445
0.000255493
0.000138543
0.000247781
0.000215624
0.000214237
0.000112982
0.000235384
3.11378e-05
0.000115637
0.00026819
0.000176968
0.000188892
0.00015852
0.000238287
0.000196379
8.52108e-05
0.000204967
0.000207079
8.01401e-05
0.000245654
7.68722e-05
0.000199173
8.87548e-05
0.000271872
0.00012607
0.000160282
0.00022516
0.000153581
0.000175995
0.000224679
9.21326e-05
0.000183768
0.000109478
9.00499e-05
0.000211287
0.000207671
0.000186125
7.48654e-05
0.000259534
8.93814e-05
7.05268e-05
0.000143626
0.000188493
0.000255878
0.00010494
0.000108065
0.000184988
0.000214364
0.000130872
0.00021061
0.000238691
7.85836e-05
0.000216766
0.000102875
8.47934e-05
0.000181608
6.26847e-05
8.35117e-05
8.09065e-05
0.000246241
0.000128838
0.000190308
0.000260939
0.00012044
0.000201808
9.83601e-05
9.58487e-05
8.63267e-05
4.31079e-05
0.000194409
0.00030652
6.68906e-05
6.02685e-05
8.83535e-05
0.000186587
0.00021324
0.000100496
0.000199483
0.000291095
0.000116632
0.00022597
9.43351e-05
8.28571e-05
0.000218797
0.000110803
8.75987e-05
7.68681e-05
0.000178583
6.29074e-05
6.91916e-05
8.43537e-05
0.000112288
0.00024109
8.76532e-05
0.000117752
0.000154259
0.000172449
0.000111567
0.000215232
6.98647e-05
9.23432e-05
6.78745e-05
0.000112661
0.00017451
0.000146748
0.000304285
4.33809e-05
6.33783e-05
7.75258e-05
8.29017e-05
0.00016894
0.000152157
0.000114587
0.000158665
0.000349319
0.000116031
0.00027751
0.000108819
9.3313e-05
0.000225158
9.60465e-05
9.46005e-05
8.59549e-05
0.000220442
9.04963e-05
9.06552e-05
7.88444e-05
7.82362e-05
0.000180159
6.54861e-05
6.1424e-05
6.25045e-05
8.76566e-05
0.000130232
0.00025878
7.73247e-05
8.54277e-05
0.000120797
0.000143405
0.000136118
8.33424e-05
0.000239866
6.32009e-05
6.41004e-05
8.11442e-05
8.07643e-05
0.000117877
0.000167274
0.000143863
0.000274231
3.35784e-05
4.12364e-05
6.54606e-05
0.000119735
7.47847e-05
0.000129135
0.000104504
0.000125147
0.000132259
0.000412318
0.000133848
0.000326666
0.000111537
0.000115359
0.000281165
0.00010814
9.012e-05
9.36738e-05
0.000222181
8.75663e-05
9.39658e-05
9.66396e-05
9.0751e-05
0.000222768
8.6831e-05
8.2428e-05
0.000110328
7.08841e-05
8.34707e-05
0.000178365
7.29633e-05
6.50555e-05
6.40939e-05
7.10329e-05
0.000148935
0.000132845
0.000247438
6.85446e-05
7.22116e-05
9.43559e-05
0.000128434
0.000119778
0.000157487
0.000132604
0.000211526
5.52984e-05
5.92483e-05
6.27391e-05
7.48925e-05
0.000102035
0.00013484
0.000144517
0.000153842
0.000257732
3.09858e-05
3.20141e-05
4.15548e-05
6.68247e-05
9.99232e-05
6.63608e-05
0.000103246
0.000118649
0.00013752
0.000129572
0.000483062
0.000145237
0.000389102
0.000129292
0.000123628
0.000327781
0.000111969
0.000106005
0.000116676
0.000282926
0.000113018
0.000100458
8.64105e-05
9.07753e-05
0.00022104
8.47356e-05
8.24472e-05
9.55471e-05
0.000102542
9.51566e-05
0.00022558
8.60376e-05
8.05559e-05
8.556e-05
0.000116734
7.10303e-05
7.81205e-05
0.000166711
7.16202e-05
6.79161e-05
6.42703e-05
8.01599e-05
0.000102976
0.000137382
3.45206e-05
0.000226515
6.13818e-05
5.9474e-05
7.20879e-05
0.000100313
0.000108244
0.000131792
0.00015372
4.6763e-05
0.000214118
5.06091e-05
5.22126e-05
6.05096e-05
6.46758e-05
8.95751e-05
8.20731e-05
0.00010857
0.000182451
0.00018372
0.00024839
2.6946e-05
2.81284e-05
3.25257e-05
4.27261e-05
6.58869e-05
9.01255e-05
7.27209e-05
0.000103782
0.000147176
0.000117651
0.000147314
0.000565064
0.000158872
0.000453218
0.000141388
0.000139647
0.000390192
0.000131642
0.000119346
0.000122573
0.000326519
0.000111035
0.000107321
0.000108781
0.000117865
0.000286698
0.000112862
0.000106156
0.000101002
8.31785e-05
8.91608e-05
0.000219771
8.87974e-05
7.92747e-05
8.06587e-05
9.46709e-05
0.000101308
9.91305e-05
0.000228311
8.8175e-05
8.3293e-05
8.43885e-05
8.0821e-05
8.83459e-05
6.66804e-05
6.72449e-05
0.000154778
7.11835e-05
6.86637e-05
6.43331e-05
6.01558e-05
6.70679e-05
8.16657e-05
0.000102768
0.000135048
0.000289944
5.72546e-05
5.14399e-05
6.49592e-05
7.69496e-05
9.07828e-05
9.37309e-05
0.000108004
0.000130829
6.47505e-05
0.000180408
4.56659e-05
4.73801e-05
5.37659e-05
6.13068e-05
6.81652e-05
7.55543e-05
9.98599e-05
0.000123756
8.87895e-05
0.000133305
0.000282441
2.56614e-05
2.55331e-05
2.85138e-05
3.32089e-05
4.34445e-05
6.87154e-05
0.000123789
9.31223e-05
0.000113501
0.000156784
0.000112367
0.000185234
0.000664645
0.000178078
0.000530516
0.000155892
0.00014952
0.000454556
0.000140223
0.000130922
0.000141329
0.00039148
0.000131645
0.000123971
0.000118418
0.000123951
0.000326831
0.000111714
0.000106362
0.000109492
0.000110677
0.000119498
0.000288551
0.000109849
0.000105753
0.000108949
9.50556e-05
8.11622e-05
8.55607e-05
0.000217462
9.13134e-05
8.35875e-05
7.86752e-05
7.83919e-05
0.000107448
9.36515e-05
0.000102693
0.00023261
8.65866e-05
8.34577e-05
8.52135e-05
8.22585e-05
9.21484e-05
9.38588e-05
7.23359e-05
7.11313e-05
0.000143526
7.0178e-05
6.85578e-05
6.75474e-05
6.46247e-05
5.42758e-05
7.24133e-05
8.96638e-05
0.000150531
0.000244454
0.000326808
5.60867e-05
5.16776e-05
5.63426e-05
6.17866e-05
7.65087e-05
8.68795e-05
7.95918e-05
0.000115675
0.000104196
0.000191871
0.000172479
4.34899e-05
4.18281e-05
4.7152e-05
5.55011e-05
6.46369e-05
7.14138e-05
7.5886e-05
0.000114169
0.000136609
0.000152134
0.000152427
0.000292859
2.40884e-05
2.52656e-05
2.5323e-05
3.03777e-05
3.37285e-05
4.4445e-05
6.95127e-05
0.000132785
5.35065e-05
0.000117936
0.000123025
0.000133615
0.000186167
0.000761046
0.000181923
0.000623374
0.000174741
0.000169536
0.000533117
0.000152815
0.000144701
0.000150931
0.00045414
0.000139637
0.000130157
0.000133029
0.000138569
0.000392407
0.000127375
0.000123269
0.000121609
0.000118925
0.00012368
0.000326552
0.000112804
0.000106177
0.000105789
0.000109746
0.000112257
0.000120082
0.000291245
0.000109037
0.000102063
0.000107779
0.000108583
0.000104391
8.36124e-05
8.62281e-05
0.000215056
9.27747e-05
8.59114e-05
8.33231e-05
7.89034e-05
8.09663e-05
0.000105008
9.30239e-05
0.000108575
0.000237666
8.1378e-05
8.19694e-05
8.08808e-05
8.31544e-05
8.36889e-05
0.000106314
8.28934e-05
7.14422e-05
7.13876e-05
0.000145335
7.03261e-05
6.68641e-05
6.87879e-05
6.85115e-05
6.62373e-05
6.42238e-05
7.27698e-05
7.8316e-05
0.000176051
7.55071e-05
0.000359463
5.24282e-05
5.44703e-05
5.35477e-05
5.57561e-05
6.42056e-05
7.93539e-05
9.23283e-05
8.88004e-05
0.000149248
0.000113498
8.45723e-05
0.000305113
4.08576e-05
3.9169e-05
4.19689e-05
4.89407e-05
5.84003e-05
6.60072e-05
6.92249e-05
8.46926e-05
0.000108815
0.000152297
0.000190906
0.000221483
0.000205831
2.29289e-05
2.30059e-05
2.52179e-05
2.7017e-05
2.95313e-05
3.46806e-05
4.48418e-05
6.94335e-05
0.000124618
7.33429e-05
0.000128432
0.000136171
0.000149886
0.000168503
0.000908255
0.000196639
0.000714744
0.000178204
0.000176161
0.000627417
0.000166835
0.000162101
0.000168837
0.000532877
0.000151864
0.000143157
0.000145284
0.000150816
0.000455732
0.000138471
0.000129413
0.000131052
0.000132844
0.000141744
0.000393909
0.000126857
0.000122677
0.000124034
0.000122385
0.000118764
0.000123202
0.000326631
0.000113994
0.000105802
0.000105966
0.000105574
0.000110055
0.000112153
0.000122615
0.000292946
0.000108407
9.93881e-05
0.000105783
0.000109156
0.000111003
0.000102681
8.57353e-05
8.60126e-05
0.000212357
8.9488e-05
8.74873e-05
8.59819e-05
8.35475e-05
8.09835e-05
8.90091e-05
0.000101756
9.48788e-05
0.000113271
0.000242105
8.22797e-05
7.69554e-05
7.81977e-05
8.11822e-05
8.33605e-05
8.48062e-05
9.9056e-05
8.50863e-05
7.28539e-05
7.87868e-05
0.000142974
6.73243e-05
6.65668e-05
6.71072e-05
6.92318e-05
6.9781e-05
6.87637e-05
7.03382e-05
6.93697e-05
8.55366e-05
0.000179415
0.00026025
0.000249476
5.48557e-05
5.5776e-05
5.35849e-05
5.44535e-05
5.4469e-05
6.8821e-05
8.39163e-05
8.63992e-05
8.16555e-05
9.90023e-05
6.92247e-05
7.46024e-05
0.000196628
4.0069e-05
3.77693e-05
3.92908e-05
4.40827e-05
5.07995e-05
5.90242e-05
7.07709e-05
9.14298e-05
9.23144e-05
0.000111003
0.000127287
0.000170621
0.000156157
0.000260189
2.15019e-05
2.19428e-05
2.30997e-05
2.52563e-05
2.64483e-05
3.07749e-05
3.55855e-05
4.54739e-05
6.69193e-05
0.00010624
8.20045e-05
0.000120045
0.000159108
0.000140042
0.000148471
0.00131396
0.000449756
0.000859316
0.000200141
0.000197711
0.000720997
0.000168338
0.000167858
0.000175166
0.000625934
0.000163805
0.000156949
0.000162249
0.00016845
0.000535585
0.000149562
0.00014165
0.000143085
0.000145192
0.000151622
0.000455827
0.000135798
0.000128778
0.000131829
0.000132209
0.000134099
0.000139496
0.000395458
0.000126623
0.000119703
0.000122314
0.000124219
0.000123055
0.00011787
0.000122915
0.000326634
0.0001161
0.000106454
0.00010787
0.000105885
0.000107848
0.000110246
0.000113956
0.000124331
0.000294819
0.00010136
0.000101072
0.000102565
0.000105244
0.000109756
0.0001083
9.59231e-05
8.44912e-05
8.4303e-05
0.000210345
9.44881e-05
8.44545e-05
8.73831e-05
8.64307e-05
8.45398e-05
8.49365e-05
9.11961e-05
0.000100677
9.75455e-05
0.000116299
0.000245308
7.74295e-05
7.87578e-05
7.79873e-05
7.92378e-05
8.09081e-05
8.2578e-05
8.40339e-05
9.56067e-05
8.5969e-05
6.95322e-05
6.93557e-05
0.000129874
6.69517e-05
6.27176e-05
6.66952e-05
6.74068e-05
6.96718e-05
7.07255e-05
7.02294e-05
7.17314e-05
7.16127e-05
8.83346e-05
0.000171286
0.000266833
0.000274117
5.75344e-05
5.21687e-05
5.36574e-05
5.54981e-05
5.15995e-05
6.04609e-05
6.53928e-05
8.1158e-05
8.19589e-05
7.72286e-05
0.000126518
7.39523e-05
0.000183112
0.000170285
3.71738e-05
3.64128e-05
3.97398e-05
4.1365e-05
4.47525e-05
5.17992e-05
6.34729e-05
7.56733e-05
9.38198e-05
9.69993e-05
0.00011521
0.000136957
0.000143606
0.000134298
0.0002871
2.07458e-05
2.07962e-05
2.17046e-05
2.35153e-05
2.52991e-05
2.70409e-05
3.10616e-05
3.57562e-05
4.55643e-05
6.72e-05
7.909e-05
8.39459e-05
0.00014222
0.000158595
0.000123786
0.000134265
0.00182129
0.000698906
0.00122962
0.000547555
0.000414668
0.000859577
0.000189157
0.000185665
0.000197279
0.000717256
0.000164355
0.000157865
0.000162706
0.000175446
0.000629614
0.000160881
0.000154246
0.000156484
0.000163399
0.000169581
0.000534808
0.000147084
0.000139823
0.000141905
0.000142946
0.000146915
0.000150877
0.000457088
0.000135873
0.00012847
0.000130431
0.000131465
0.000133637
0.00013511
0.000142661
0.000396164
0.000128577
0.000118682
0.000119457
0.0001212
0.000123544
0.000121604
0.000118512
0.000122199
0.000326584
0.000107652
0.000108597
0.000108268
0.000107117
0.000107744
0.000108393
0.000111863
0.000114688
0.000124169
0.000295898
0.000110317
9.71235e-05
9.9786e-05
0.000101013
0.000104712
0.000107128
0.000107441
9.41631e-05
8.42065e-05
8.44135e-05
0.000208283
8.53154e-05
8.91884e-05
8.42102e-05
8.79549e-05
8.69461e-05
8.58966e-05
8.61934e-05
9.33417e-05
0.000100301
0.000100638
0.000121108
0.000246148
7.91896e-05
7.31296e-05
8.00353e-05
7.74967e-05
8.0417e-05
8.2194e-05
8.41873e-05
8.44827e-05
8.93839e-05
8.75051e-05
7.0768e-05
6.05232e-05
0.000128289
6.52695e-05
6.10292e-05
6.23354e-05
6.68027e-05
6.76122e-05
6.94982e-05
7.01783e-05
7.48677e-05
7.30077e-05
7.01466e-05
7.87898e-05
0.000170368
0.000141475
0.000357062
5.05865e-05
4.8653e-05
5.4228e-05
5.24275e-05
5.18119e-05
5.76411e-05
5.83494e-05
7.37003e-05
7.14129e-05
7.81059e-05
8.87282e-05
9.9728e-05
8.44945e-05
5.19733e-05
0.00032892
3.60853e-05
3.41132e-05
3.84185e-05
3.78425e-05
4.0328e-05
4.50972e-05
5.3893e-05
6.26222e-05
7.40021e-05
7.21718e-05
0.000105001
0.000118733
0.000172426
0.000150769
0.000184514
0.000204359
1.89324e-05
1.97551e-05
2.03706e-05
2.21745e-05
2.36074e-05
2.6037e-05
2.7952e-05
3.07478e-05
3.63202e-05
4.59418e-05
6.96173e-05
9.51745e-05
0.000101685
0.000117028
0.000161863
0.000112424
0.000132039
0.00211587
0.000599844
0.00169369
0.000770434
0.000671161
0.0012278
0.000566479
0.000505498
0.000437914
0.000860818
0.000196166
0.00016717
0.000179203
0.000191556
0.000723779
0.000159412
0.000155638
0.000157233
0.000168255
0.000176239
0.000627946
0.000160534
0.000153253
0.00015414
0.000159194
0.000163682
0.000169946
0.000536771
0.000146629
0.000138584
0.000140065
0.000142311
0.000144273
0.000145361
0.000152843
0.000457549
0.000137751
0.000126994
0.000129992
0.000130272
0.000132304
0.000133355
0.000134827
0.000141967
0.000397722
0.000117148
0.000120253
0.000117332
0.000120505
0.000123056
0.000124034
0.000122338
0.000118254
0.000123182
0.000326584
0.000124186
0.000101976
0.000110087
0.000108168
0.000107282
0.000108095
0.000107751
0.000112478
0.000115951
0.000127208
0.000297516
9.2744e-05
0.000104324
9.52919e-05
0.000101355
0.000101922
0.000104612
0.000106653
0.000107856
9.15437e-05
8.47503e-05
8.35136e-05
0.000206627
9.22049e-05
8.04908e-05
8.89792e-05
8.48786e-05
8.82047e-05
8.77141e-05
8.65859e-05
8.79213e-05
9.5865e-05
9.99617e-05
0.000101384
0.000124955
0.000247643
7.85238e-05
7.3718e-05
7.50799e-05
7.81928e-05
7.58157e-05
8.05544e-05
8.24902e-05
8.43485e-05
8.53201e-05
8.59078e-05
8.64989e-05
7.11872e-05
5.75564e-05
0.000112629
6.03029e-05
6.0452e-05
6.12414e-05
6.33174e-05
6.70835e-05
6.69609e-05
6.93682e-05
7.24014e-05
7.69514e-05
7.13178e-05
7.24568e-05
7.47982e-05
0.000139184
0.000262169
0.000225994
5.09582e-05
4.91367e-05
5.13094e-05
5.07901e-05
5.13683e-05
5.62361e-05
5.70117e-05
6.07156e-05
7.92377e-05
6.8465e-05
7.48396e-05
6.79657e-05
9.012e-05
5.14612e-05
0.000173881
0.000137307
3.41097e-05
3.31389e-05
3.62887e-05
3.71473e-05
3.81569e-05
4.10606e-05
4.69268e-05
5.34063e-05
6.02364e-05
6.51928e-05
8.17217e-05
0.000105647
0.00011875
0.000137978
0.000182414
0.000237357
0.0002367
1.89321e-05
1.8085e-05
1.9706e-05
2.09148e-05
2.2159e-05
2.40772e-05
2.62594e-05
2.83313e-05
3.16295e-05
3.66013e-05
4.69812e-05
6.94597e-05
0.000107187
0.000118694
0.000139327
0.000123496
0.000107072
0.00012603
0.00224345
0.000439984
0.00202671
0.000447437
0.000498821
0.00170853
0.000787844
0.000753979
0.0006784
0.00121744
0.0006452
0.000525203
0.000478543
0.000416892
0.000862476
0.000186703
0.000170535
0.000175005
0.000183317
0.000197629
0.000718983
0.000158198
0.00015408
0.000151463
0.00016182
0.000165896
0.000177972
0.000629681
0.000161335
0.000151807
0.000151977
0.00015573
0.000158343
0.000165972
0.00016985
0.000537219
0.000148896
0.000137819
0.000139125
0.000140787
0.000142812
0.000142897
0.000147
0.00015092
0.000459394
0.000122526
0.000129381
0.000127747
0.000128745
0.000130407
0.00013318
0.000133646
0.000135992
0.000142402
0.00039826
0.00014458
0.000109051
0.00011957
0.000120041
0.000121244
0.00012313
0.000124927
0.000122198
0.000118184
0.000122071
0.00032664
9.39302e-05
0.000118405
0.000102561
0.000109354
0.000107858
0.000109007
0.000109162
0.000108791
0.000114054
0.000117357
0.00012789
0.00029844
0.000110171
8.6819e-05
0.000104237
9.59292e-05
0.000102696
0.000103243
0.000104978
0.00010599
0.0001086
9.02533e-05
8.47975e-05
8.31187e-05
0.000205374
8.77347e-05
8.66169e-05
8.0848e-05
8.93781e-05
8.52406e-05
8.84046e-05
8.84532e-05
8.75673e-05
8.92503e-05
9.51114e-05
9.86743e-05
0.000102837
0.000126215
0.000248091
7.29074e-05
7.24008e-05
7.64127e-05
7.40053e-05
7.87179e-05
7.83234e-05
8.07051e-05
8.33767e-05
8.42572e-05
8.586e-05
8.20865e-05
8.76318e-05
7.29138e-05
5.30045e-05
0.000105312
6.03287e-05
5.81169e-05
6.09264e-05
6.23083e-05
6.34958e-05
6.64624e-05
6.68564e-05
6.98742e-05
7.20859e-05
7.80658e-05
7.31139e-05
7.69448e-05
7.69719e-05
0.000132047
0.00025773
0.00033577
4.59371e-05
4.65412e-05
4.80488e-05
5.22801e-05
5.05638e-05
5.24435e-05
5.7266e-05
5.49914e-05
7.20203e-05
6.41906e-05
6.92838e-05
7.37727e-05
6.74538e-05
8.96568e-05
6.88951e-05
6.34815e-05
0.000173936
3.4726e-05
3.03693e-05
3.46043e-05
3.44246e-05
3.81806e-05
3.95296e-05
4.19579e-05
4.66889e-05
5.40446e-05
6.03973e-05
6.34161e-05
8.1847e-05
0.00011089
0.000120844
0.000131024
0.000197279
0.000206456
0.000238138
1.55385e-05
1.81013e-05
1.79252e-05
1.98949e-05
2.0922e-05
2.25675e-05
2.4418e-05
2.6938e-05
2.83292e-05
3.17756e-05
3.67975e-05
4.75423e-05
6.91584e-05
0.000124783
0.000105707
8.6981e-05
8.86489e-05
0.000111639
0.000135617
0.00223926
0.000358382
0.00210952
0.000227266
0.000322
0.00201373
0.00044759
0.000483627
0.00054573
0.0017027
0.00084406
0.000759957
0.000690137
0.000677134
0.00124024
0.00068021
0.000581036
0.000517019
0.000494457
0.0004321
0.000856142
0.000216138
0.000200289
0.000183292
0.000175948
0.000182681
0.000191253
0.000720465
0.000162018
0.000153353
0.000148551
0.00015689
0.000156299
0.000171201
0.000174327
0.000630086
0.000163617
0.000150878
0.000151901
0.000154049
0.000155484
0.000159353
0.000164349
0.000169915
0.000539797
0.000131651
0.000140302
0.000138121
0.000139418
0.000140625
0.000142661
0.000143738
0.000146857
0.000152925
0.000459157
0.000163138
0.000115362
0.00012932
0.000128564
0.000129825
0.000131648
0.000132807
0.000134517
0.000136791
0.000143345
0.00039975
9.2594e-05
0.000136127
0.000109796
0.000121474
0.000119638
0.000121005
0.000122995
0.000124708
0.000121492
0.000118145
0.000122648
0.000326501
0.000131816
8.86253e-05
0.000118761
0.000101791
0.000110341
0.000109308
0.000110072
0.000108752
0.000110524
0.000114186
0.000117573
0.000128493
0.000299523
9.79083e-05
0.000102848
8.82774e-05
0.000104393
9.65254e-05
0.000101086
0.000101944
0.000104529
0.000106957
0.000108506
8.925e-05
8.48231e-05
8.29214e-05
0.000204242
8.08331e-05
8.31865e-05
8.63915e-05
8.09051e-05
8.94231e-05
8.51275e-05
8.89663e-05
8.87823e-05
8.78835e-05
8.90608e-05
9.71646e-05
9.7789e-05
0.000102996
0.000129228
0.000247635
7.27342e-05
6.82629e-05
7.46703e-05
7.59157e-05
7.416e-05
8.03108e-05
7.79521e-05
8.15103e-05
8.36322e-05
8.25395e-05
8.48054e-05
8.04054e-05
8.62516e-05
7.44747e-05
4.74696e-05
0.000106492
5.67132e-05
5.78395e-05
5.76171e-05
6.14324e-05
6.23456e-05
6.2655e-05
6.5917e-05
6.73977e-05
6.92651e-05
7.39165e-05
7.69089e-05
7.48161e-05
8.06932e-05
8.41646e-05
0.000126209
0.000246642
0.000312217
4.81931e-05
4.37248e-05
4.88056e-05
4.75519e-05
4.99105e-05
5.21268e-05
5.60894e-05
5.31645e-05
6.14779e-05
6.33531e-05
6.67257e-05
6.6609e-05
7.91113e-05
6.85692e-05
8.8151e-05
5.18213e-05
6.44874e-05
0.000248964
2.76622e-05
3.26034e-05
3.17626e-05
3.40119e-05
3.66119e-05
3.72847e-05
3.9246e-05
4.21125e-05
4.66772e-05
5.11606e-05
5.91919e-05
6.3513e-05
8.38972e-05
0.000112416
0.00012191
0.00013724
0.000196988
0.000137182
0.000252081
1.6546e-05
1.4973e-05
1.79417e-05
1.82531e-05
2.01914e-05
2.11061e-05
2.27752e-05
2.46767e-05
2.66851e-05
2.93516e-05
3.16382e-05
3.70471e-05
4.82666e-05
6.89148e-05
9.70771e-05
0.000101801
7.00062e-05
9.15468e-05
0.000130007
0.000145328
0.00214778
0.000358358
0.00203699
0.000329119
0.000356025
0.00208193
0.000254512
0.000204634
0.000388833
0.00201007
0.000429328
0.000404042
0.000425254
0.000517408
0.0017249
0.000857731
0.000807133
0.000735709
0.000736149
0.000665378
0.00122569
0.000756894
0.000633458
0.000554161
0.000550523
0.000496526
0.000440434
0.000858937
0.000261751
0.000211368
0.00018755
0.000182813
0.000166467
0.000185164
0.000193206
0.000720278
0.000165224
0.000152016
0.000149813
0.000154074
0.000155361
0.000162807
0.000165923
0.000175363
0.000633752
0.000148231
0.000152843
0.000150583
0.0001525
0.000153654
0.000156306
0.000158514
0.000166159
0.000171189
0.000539502
0.00018368
0.000123842
0.000141037
0.000139158
0.000138985
0.00014163
0.000143017
0.000144544
0.000147679
0.000152191
0.00046129
8.77794e-05
0.000152933
0.00011609
0.000130744
0.000129103
0.00013015
0.000132247
0.000133026
0.00013527
0.000136934
0.000143845
0.000400348
0.000163467
8.81683e-05
0.000134279
0.000110716
0.000121262
0.000119287
0.000121936
0.000123382
0.000125651
0.000120892
0.000118528
0.000122474
0.000326896
0.000105819
0.000123827
9.07984e-05
0.000117603
0.000103252
0.000110795
0.000109702
0.000110208
0.000109945
0.000109659
0.000115586
0.000118805
0.0001298
0.000300225
9.04533e-05
9.16931e-05
0.000102437
8.82578e-05
0.000104406
9.51506e-05
0.000102069
0.000102818
0.00010587
0.000106577
0.000106184
8.85e-05
8.48867e-05
8.26703e-05
0.000203504
8.32576e-05
7.60699e-05
8.37337e-05
8.62177e-05
8.10516e-05
8.94375e-05
8.55547e-05
8.90836e-05
8.89073e-05
8.827e-05
9.02685e-05
9.83341e-05
9.76544e-05
0.000102375
0.000130482
0.000247244
6.82384e-05
6.93771e-05
6.74286e-05
7.42528e-05
7.49264e-05
7.50595e-05
7.93688e-05
7.80028e-05
8.20522e-05
8.23975e-05
8.28824e-05
8.45197e-05
7.90579e-05
8.73428e-05
7.60397e-05
4.91015e-05
0.000100042
5.97888e-05
5.40124e-05
5.81523e-05
5.66803e-05
6.15865e-05
6.16777e-05
6.26549e-05
6.7242e-05
6.68338e-05
7.01187e-05
7.338e-05
7.69819e-05
7.3813e-05
8.15904e-05
8.45792e-05
0.000114213
0.000254666
0.000244463
3.85126e-05
4.55539e-05
4.43434e-05
4.68346e-05
4.83548e-05
5.19658e-05
5.27548e-05
5.09533e-05
5.86039e-05
5.95679e-05
6.21896e-05
6.357e-05
6.92984e-05
6.92397e-05
6.94354e-05
6.99404e-05
5.28436e-05
0.000120261
0.000113478
3.02833e-05
2.73435e-05
3.24836e-05
3.16876e-05
3.44479e-05
3.54797e-05
3.69302e-05
3.77324e-05
4.07283e-05
4.53349e-05
4.99781e-05
5.87705e-05
6.5307e-05
8.30756e-05
0.000109971
0.000126031
0.000221995
0.000171465
0.000213538
0.000293232
1.4428e-05
1.59865e-05
1.48611e-05
1.82493e-05
1.83391e-05
2.0097e-05
2.11889e-05
2.32676e-05
2.49423e-05
2.75341e-05
2.85277e-05
3.23241e-05
3.72911e-05
4.89373e-05
6.89592e-05
9.03026e-05
9.45187e-05
0.000105046
0.000100245
0.000133953
0.000156895
0.002103
0.000324337
0.00200533
0.00036307
0.000308926
0.00207886
0.000412815
0.000334028
0.000336066
0.00211675
0.00022678
0.000173287
0.000326556
0.000341359
0.00201544
0.000402715
0.000383591
0.000388397
0.000429779
0.000556633
0.00169565
0.000869743
0.000809508
0.000765479
0.000767728
0.000695512
0.00071199
0.00123637
0.000832043
0.000711891
0.000653312
0.000593688
0.000531742
0.000509065
0.000420951
0.000856157
0.000265981
0.000230586
0.000203087
0.000195909
0.000177716
0.000178838
0.00018055
0.00019253
0.000726894
0.000154393
0.000151142
0.000148852
0.000151511
0.000152225
0.000158669
0.000159463
0.000169353
0.000175764
0.00063362
0.000200408
0.000140259
0.000154051
0.000152257
0.000152426
0.000154297
0.000155614
0.000160356
0.000167157
0.000171463
0.00054188
8.23047e-05
0.000172442
0.000125772
0.000141983
0.000138933
0.000140853
0.000142157
0.000144455
0.000144929
0.00014755
0.000153506
0.000461192
0.000206828
8.35675e-05
0.000151714
0.000116704
0.0001317
0.000128832
0.000130978
0.000131235
0.000134902
0.00013463
0.000138754
0.000143905
0.000401615
0.000115144
0.000154299
9.07568e-05
0.000134742
0.000110577
0.000121568
0.000121223
0.000121367
0.000124523
0.000124615
0.00012171
0.000118257
0.000123291
0.00032699
9.64428e-05
9.92328e-05
0.0001199
9.03191e-05
0.000117688
0.000103327
0.0001104
0.000110719
0.000110012
0.000110625
0.000110358
0.00011657
0.000118499
0.000130531
0.000300963
9.41662e-05
8.54492e-05
9.45798e-05
0.000102035
8.81128e-05
0.00010443
9.70798e-05
0.000102825
0.000103027
0.000105012
0.000106243
0.000105993
8.84466e-05
8.51323e-05
8.28679e-05
0.000203038
8.07446e-05
7.84549e-05
7.60085e-05
8.33274e-05
8.57698e-05
8.14078e-05
8.98036e-05
8.56102e-05
8.92577e-05
8.93493e-05
8.8853e-05
9.13207e-05
9.78053e-05
9.7291e-05
0.000102809
0.000131796
0.000246092
7.34687e-05
6.47788e-05
6.88152e-05
6.80402e-05
7.38413e-05
7.53739e-05
7.47105e-05
7.93008e-05
7.85938e-05
8.16241e-05
8.28711e-05
8.29335e-05
8.41464e-05
7.78374e-05
8.45594e-05
7.61628e-05
4.93145e-05
0.000109302
4.74483e-05
5.64738e-05
5.41376e-05
5.74445e-05
5.74889e-05
6.15363e-05
6.21041e-05
6.33541e-05
6.64811e-05
6.73592e-05
7.01929e-05
7.39577e-05
7.59524e-05
6.96512e-05
7.92063e-05
9.07556e-05
0.000114092
0.000199285
0.00030653
4.08454e-05
3.64032e-05
4.55432e-05
4.37771e-05
4.69774e-05
4.86735e-05
5.0544e-05
5.12295e-05
5.36688e-05
5.59343e-05
6.14436e-05
6.16562e-05
6.29212e-05
6.78889e-05
7.50825e-05
7.16044e-05
6.36923e-05
4.31326e-05
6.95355e-05
0.000164863
2.61275e-05
2.82842e-05
2.69275e-05
3.30921e-05
3.10226e-05
3.51229e-05
3.51545e-05
3.70005e-05
3.8633e-05
4.01846e-05
4.51379e-05
5.32398e-05
5.88785e-05
6.70677e-05
8.83558e-05
0.000102694
0.000100995
0.000103342
0.000258716
0.000252631
0.000238782
1.60029e-05
1.3381e-05
1.60045e-05
1.51676e-05
1.83692e-05
1.85273e-05
2.05726e-05
2.16867e-05
2.32323e-05
2.51678e-05
2.7331e-05
2.93709e-05
3.24989e-05
3.77551e-05
5.0045e-05
6.9302e-05
9.29162e-05
9.39155e-05
8.89319e-05
0.000120771
0.000133713
0.000166595
0.00207013
0.000275982
0.00194885
0.000313993
0.000287894
0.00203191
0.000287004
0.000315009
0.000349116
0.00212236
0.000339338
0.000285281
0.000314491
0.000395624
0.00212398
0.000336759
0.000195623
0.000221078
0.000181345
0.000365684
0.00201576
0.000361615
0.000320055
0.000359438
0.000402805
0.00044476
0.000549147
0.00173032
0.00091576
0.000807712
0.000825332
0.00079985
0.000758993
0.000760785
0.000671688
0.00122859
0.000848052
0.00077644
0.000716758
0.000637474
0.000594185
0.000546683
0.000498123
0.000415998
0.000869188
0.00027098
0.000247242
0.00022137
0.000202846
0.000196231
0.000184744
0.000171804
0.000187845
0.000193847
0.000724709
0.000196534
0.000142568
0.000152318
0.000150276
0.000151392
0.000154723
0.000155345
0.000162681
0.000169952
0.000177635
0.000635581
9.2738e-05
0.000187552
0.000140697
0.000154824
0.000153141
0.000153853
0.000153925
0.000157327
0.000159985
0.000166946
0.000171943
0.000542596
0.000250333
8.05295e-05
0.000169722
0.000126947
0.00014238
0.000140349
0.000140754
0.000142355
0.000144703
0.000145071
0.000148978
0.000153313
0.000462692
0.00012356
0.000195374
8.95493e-05
0.000150074
0.00011867
0.000130763
0.000130046
0.000130406
0.000132801
0.000133424
0.000136333
0.000137249
0.000145281
0.000402428
0.00010408
0.000106115
0.00014449
9.09608e-05
0.00013506
0.000111284
0.000122702
0.000119974
0.000121998
0.000123415
0.000125679
0.000120278
0.000119502
0.000122845
0.000327573
0.000105669
9.51861e-05
0.000103384
0.000120784
9.14342e-05
0.000117706
0.000103205
0.000112242
0.000110269
0.000110913
0.000109785
0.00011193
0.000115753
0.000120172
0.000131499
0.000301485
9.67132e-05
8.71281e-05
8.4357e-05
9.40904e-05
0.000101281
8.91559e-05
0.000104824
9.61235e-05
0.000103297
0.000103126
0.000106102
0.00010679
0.00010536
8.8136e-05
8.52904e-05
8.29453e-05
0.000203048
8.59993e-05
7.52998e-05
7.91649e-05
7.57668e-05
8.41469e-05
8.60951e-05
8.15521e-05
8.99261e-05
8.57966e-05
8.95843e-05
8.96416e-05
8.9376e-05
9.16759e-05
9.82824e-05
9.82758e-05
0.000102227
0.000131171
0.000243582
5.44619e-05
6.94617e-05
6.50396e-05
6.86268e-05
6.7741e-05
7.45226e-05
7.51134e-05
7.50176e-05
7.99382e-05
7.86353e-05
8.19454e-05
8.2254e-05
8.03456e-05
8.92212e-05
7.58066e-05
8.25056e-05
7.31686e-05
4.89883e-05
0.000108934
4.75502e-05
4.55322e-05
5.61446e-05
5.39982e-05
5.7455e-05
5.74223e-05
6.15269e-05
6.22628e-05
6.3267e-05
6.67782e-05
6.73758e-05
7.10578e-05
7.36263e-05
7.6466e-05
6.58219e-05
7.84894e-05
9.48871e-05
0.000118272
0.000169931
0.000247469
3.69008e-05
3.91718e-05
3.68443e-05
4.57295e-05
4.33405e-05
4.82439e-05
4.72943e-05
5.14669e-05
5.2982e-05
5.44958e-05
5.75768e-05
5.79083e-05
6.04988e-05
6.10331e-05
6.68496e-05
8.32408e-05
7.76796e-05
5.42142e-05
3.98012e-05
0.000111624
0.000165277
2.81509e-05
2.40899e-05
2.86113e-05
2.66239e-05
3.30521e-05
3.34188e-05
3.57724e-05
3.63588e-05
3.75251e-05
3.90722e-05
3.98226e-05
4.70807e-05
5.26483e-05
5.99485e-05
7.03685e-05
9.88019e-05
0.000125657
8.801e-05
0.000157565
0.000258483
0.00020877
0.000178944
1.11623e-05
1.46905e-05
1.36085e-05
1.62387e-05
1.53158e-05
1.85107e-05
1.85924e-05
2.04359e-05
2.18598e-05
2.36794e-05
2.54315e-05
2.7771e-05
2.87775e-05
3.2135e-05
3.80224e-05
5.112e-05
7.39563e-05
9.91176e-05
9.53638e-05
0.000128212
0.000129964
0.000136833
0.000175908
0.00202176
0.000341561
0.00198677
0.000144196
0.000302396
0.0020063
0.000252907
0.000178876
0.000335331
0.00202995
0.000313042
0.00026437
0.000291436
0.000409935
0.0020939
0.000365298
0.000370591
0.000325102
0.00025455
0.00034401
0.00212713
0.000467392
0.00016911
0.000280002
0.000212361
0.000230199
0.000344194
0.00204233
0.000310927
0.000273143
0.000345416
0.000371295
0.00038361
0.000451049
0.000546238
0.00171186
0.000888299
0.000861833
0.000844866
0.000805212
0.000808144
0.000773434
0.000716759
0.000676496
0.00122773
0.000930543
0.000756645
0.00073574
0.000690988
0.000659896
0.000620322
0.000542893
0.000474171
0.000418333
0.00086982
0.000404381
0.000259354
0.000242356
0.000226892
0.000208236
0.000197702
0.000168958
0.000179203
0.000192387
0.000199174
0.000726926
0.000121201
0.000183792
0.000141754
0.000153677
0.00015327
0.000155076
0.000152147
0.000157738
0.000161617
0.000172483
0.00017719
0.000637005
0.000292266
9.06843e-05
0.000181091
0.00014376
0.000155497
0.000153367
0.000152788
0.000156208
0.000156542
0.000161498
0.000167258
0.000172972
0.000544465
0.000132308
0.000241407
8.94694e-05
0.000166668
0.000129173
0.000142679
0.000140084
0.000140445
0.000142705
0.00014416
0.000145947
0.000147977
0.000153852
0.000463942
0.000118056
0.000115531
0.000173652
9.02212e-05
0.000149797
0.000118211
0.000132284
0.000129785
0.000131418
0.000132836
0.000134686
0.000136461
0.000138447
0.000144629
0.000403528
0.00011643
0.000114935
0.000115172
0.00014487
9.4148e-05
0.000133794
0.000111682
0.000122357
0.000120611
0.000122925
0.000124384
0.000125637
0.000120773
0.000119046
0.000123428
0.000327835
0.000114437
9.59754e-05
8.94931e-05
0.00010279
0.000116851
9.18315e-05
0.000118561
0.000103837
0.000112426
0.000110221
0.000111525
0.00011049
0.000112021
0.000116646
0.000120479
0.000131479
0.000301981
9.9592e-05
9.0178e-05
8.93349e-05
8.4419e-05
9.52019e-05
0.000102264
8.92011e-05
0.000104282
9.71006e-05
0.000102924
0.000104048
0.000106147
0.000105829
0.000104336
8.79604e-05
8.53522e-05
8.33988e-05