/*--------------------------------*- C++ -*----------------------------------*\
  =========                 |
  \\      /  F ield         | OpenFOAM: The Open Source CFD Toolbox
   \\    /   O peration     | Website:  https://openfoam.org
    \\  /    A nd           | Version:  7
     \\/     M anipulation  |
\*---------------------------------------------------------------------------*/
FoamFile
{
    version     2.0;
    format      ascii;
    class       surfaceScalarField;
    location    "0.5";
    object      phi_0;
}
// * * * * * * * * * * * * * * * * * * * * * * * * * * * * * * * * * * * * * //

dimensions      [0 3 -1 0 0 0 0];

internalField   nonuniform List<scalar> 
54125
(
-6.30393e-05
-6.55247e-06
-0.00157194
-9.03012e-05
5.5456e-06
0.000379882
-5.48717e-05
-1.6622e-05
-0.00148363
-5.98409e-05
-5.77325e-06
-0.00150633
-6.49851e-05
-1.02722e-07
-0.000944627
-8.48256e-05
1.1252e-05
0.000607808
-7.79437e-05
4.68053e-06
0.000393305
-4.43828e-05
-1.94632e-05
-0.00138086
-5.26261e-05
-1.45106e-05
-0.00142227
-6.28926e-05
-5.41992e-06
-0.00143802
-0.000136142
3.76866e-05
0.000304263
-7.79357e-05
-9.67593e-06
-0.000885159
-5.72375e-05
-3.01063e-07
-0.000965031
-0.000100996
2.34094e-05
0.000653689
-7.55316e-05
9.89979e-06
0.000625495
-7.76996e-05
4.83004e-06
0.000403282
-4.18487e-05
-1.05814e-05
-0.000998836
-4.27795e-05
-1.70146e-05
-0.00133558
-5.37536e-05
-1.35599e-05
-0.00136037
-6.48247e-05
-5.1501e-06
-0.00136804
-0.000166659
3.73076e-05
3.44884e-05
-0.000131444
5.91388e-05
0.000408894
-0.00012873
3.3895e-05
0.000341861
-9.95722e-05
2.74576e-05
-0.000368302
-7.0293e-05
-5.66202e-06
-0.000885037
-6.17042e-05
-2.14999e-06
-0.000978877
-9.38285e-05
3.14413e-05
0.000260281
-8.74892e-05
2.38361e-05
0.000684462
-7.62545e-05
8.48095e-06
0.000644345
-7.5242e-05
4.45642e-06
0.000409243
-3.41208e-05
-5.04382e-06
-0.000814225
-4.01382e-05
-8.38411e-06
-0.000967328
-4.64026e-05
-1.61681e-05
-0.00128657
-5.62975e-05
-1.3043e-05
-0.00129618
-6.72292e-05
-4.89848e-06
-0.00129591
-0.000208076
4.72161e-05
5.9158e-06
-0.000157946
6.12025e-05
2.43895e-05
-0.000154933
3.25628e-05
2.81284e-05
-0.000130361
8.68887e-05
0.000135152
-0.000122821
5.57933e-05
0.000439523
-0.000132571
3.35663e-05
0.000379162
-8.99811e-05
7.4063e-05
-8.60181e-05
-9.1606e-05
2.43775e-05
-0.000394224
-7.76638e-05
-2.25941e-06
-0.000883518
-5.9851e-05
-2.84257e-06
-0.000991425
-7.84706e-05
4.6183e-05
8.08854e-05
-8.46112e-05
3.11735e-05
0.000297417
-8.59624e-05
2.34097e-05
0.000709094
-7.92048e-05
9.12442e-06
0.000662584
-7.63517e-05
4.29356e-06
0.000414072
-2.49694e-05
3.81889e-06
-0.000728266
-3.26993e-05
-3.42897e-06
-0.000786481
-4.20673e-05
-7.7344e-06
-0.000933694
-4.83216e-05
-1.4983e-05
-0.00123631
-5.84533e-05
-1.26511e-05
-0.00122998
-6.97982e-05
-5.00727e-06
-0.00122111
-0.000255869
5.21517e-05
3.39658e-05
-0.000205312
9.33567e-05
1.00158e-05
-0.00019095
4.23044e-05
-3.72075e-07
-0.000170966
0.00010532
2.96904e-05
-0.000146741
5.50586e-05
2.58142e-05
-0.000156852
3.15107e-05
2.08984e-05
-0.000115871
0.000113353
2.01502e-06
-0.000121084
8.11459e-05
0.000139277
-0.000126239
5.84332e-05
0.000463232
-0.000135298
3.41605e-05
0.000420449
-8.20306e-05
9.58053e-05
-8.42743e-05
-8.40457e-05
6.29287e-05
-0.000125135
-8.7223e-05
2.60555e-05
-0.000421278
-8.40408e-05
1.44882e-06
-0.000882974
-6.79049e-05
2.49961e-07
-0.00100012
-5.64272e-05
5.99019e-05
1.86354e-05
-7.13117e-05
4.42141e-05
0.000106457
-8.37663e-05
3.32486e-05
0.000329277
-8.00556e-05
2.35671e-05
0.000726385
-7.85948e-05
8.7957e-06
0.000678223
-7.01799e-05
4.67919e-06
0.000409774
-1.95306e-05
1.68147e-05
-0.000369904
-2.46923e-05
3.73868e-06
-0.000710741
-3.46679e-05
-3.11583e-06
-0.000756431
-4.39371e-05
-7.03565e-06
-0.000897705
-5.01298e-05
-1.41521e-05
-0.00118468
-6.14722e-05
-1.26791e-05
-0.00116083
-7.17338e-05
-4.8242e-06
-0.00114455
-0.000320268
6.44611e-05
3.04775e-05
-0.000251825
0.000112759
5.15496e-05
-0.000235568
4.77909e-05
3.07938e-05
-0.000215084
0.000143376
3.52469e-06
-0.000186547
8.48736e-05
7.25271e-06
-0.000192381
4.21121e-05
-6.95505e-06
-0.000148761
0.000153051
8.88662e-05
-0.000157883
9.44011e-05
2.71474e-05
-0.000149063
5.37054e-05
2.64434e-05
-0.000157314
3.0108e-05
1.28056e-05
-0.000107797
0.000141715
-1.02886e-05
-0.000106471
0.000104643
9.43845e-07
-0.000120538
8.53417e-05
0.000145684
-0.000123936
6.21828e-05
0.000475104
-0.000138988
2.98347e-05
0.000461696
-7.49025e-05
0.000119805
-2.88462e-05
-7.57901e-05
8.47387e-05
-0.000101606
-8.60825e-05
5.74311e-05
-0.000154194
-8.28835e-05
2.77539e-05
-0.000444756
-8.72384e-05
7.03299e-06
-0.000881113
-6.58696e-05
1.58665e-08
-0.00100445
-4.30162e-05
7.5699e-05
-5.59099e-06
-5.15122e-05
5.59349e-05
3.37347e-05
-7.22492e-05
4.58524e-05
0.000131435
-8.34333e-05
3.42404e-05
0.0003581
-7.79176e-05
2.29551e-05
0.000740013
-7.94943e-05
7.82531e-06
0.000693099
-7.58572e-05
5.01275e-06
0.000408885
-1.36596e-05
2.44793e-05
-0.000304828
-1.89434e-05
1.53473e-05
-0.000362569
-2.6686e-05
3.79143e-06
-0.000690962
-3.64843e-05
-2.87765e-06
-0.000724105
-4.54853e-05
-6.07418e-06
-0.000860297
-5.25077e-05
-1.37117e-05
-0.00113114
-6.29769e-05
-1.20543e-05
-0.00109063
-7.3642e-05
-4.90305e-06
-0.00106601
-0.000392814
7.36964e-05
1.74597e-05
-0.000329714
0.00014036
4.27911e-05
-0.000292439
5.85285e-05
2.88195e-05
-0.000257273
0.000168707
3.92397e-05
-0.000232847
0.000101839
4.38007e-05
-0.000237718
4.79039e-05
2.82278e-05
-0.000205087
0.000200344
2.44845e-05
-0.00019659
0.000131181
-4.07578e-06
-0.000187539
8.54922e-05
2.34885e-06
-0.00019297
4.20692e-05
-1.33683e-05
-0.000144876
0.000193485
9.53552e-05
-0.000136349
0.000137352
7.57937e-05
-0.000158809
9.22041e-05
2.692e-05
-0.000148314
5.30399e-05
2.78899e-05
-0.000157451
2.88842e-05
2.38447e-06
-0.000103095
0.000171844
-2.51698e-06
-0.000100309
0.00012925
-1.0377e-05
-0.000106694
0.000106689
2.07817e-07
-0.00011653
8.99427e-05
0.00015157
-0.000128506
5.79525e-05
0.000488253
-0.000140884
2.786e-05
0.000508851
-6.20774e-05
0.000144522
3.48783e-05
-6.80727e-05
0.00010777
-3.53164e-05
-7.8177e-05
8.18704e-05
-0.000120117
-8.9792e-05
5.40852e-05
-0.000174167
-8.62611e-05
3.33277e-05
-0.000462707
-9.20108e-05
1.11962e-05
-0.000879777
-7.8947e-05
-1.87987e-06
-0.000999479
-3.42577e-05
9.33221e-05
-2.87287e-06
-3.94687e-05
6.92533e-05
1.61593e-06
-5.27895e-05
5.7356e-05
4.83345e-05
-7.21216e-05
4.81564e-05
0.000153156
-8.08633e-05
3.43986e-05
0.000382035
-7.60653e-05
2.11443e-05
0.000750252
-8.15456e-05
7.17983e-06
0.000709501
-8.41773e-05
5.50493e-06
0.000413915
-1.1303e-05
3.06947e-05
-0.000260271
-1.33569e-05
2.22668e-05
-0.000298391
-2.01037e-05
1.54916e-05
-0.000354165
-2.85927e-05
4.05413e-06
-0.000669302
-3.80161e-05
-2.26128e-06
-0.000689902
-4.75962e-05
-5.61899e-06
-0.000820794
-5.4371e-05
-1.28734e-05
-0.00107595
-6.56024e-05
-1.22643e-05
-0.00101766
-7.45289e-05
-4.85831e-06
-0.000986619
-0.000478329
8.45431e-05
1.62537e-05
-0.000415568
0.000158881
2.28108e-05
-0.000359091
6.68879e-05
1.72235e-05
-0.000330992
0.000212968
3.99455e-05
-0.000300781
0.000127889
4.13641e-05
-0.000293131
5.8901e-05
2.53312e-05
-0.000263454
0.000228778
3.30831e-05
-0.000236733
0.000150529
3.06923e-05
-0.000236161
0.000101729
3.85973e-05
-0.000238934
4.78517e-05
2.63402e-05
-0.000196584
0.000251573
1.48176e-05
-0.00018601
0.000183706
2.162e-05
-0.000198118
0.000132553
-1.18285e-05
-0.000187528
8.65848e-05
-2.95336e-06
-0.000192614
4.21796e-05
-2.03842e-05
-0.000143113
0.000234257
7.41766e-05
-0.000132786
0.000174181
9.10031e-05
-0.000135868
0.000137491
5.96805e-05
-0.000156607
9.05052e-05
2.95314e-05
-0.000148984
5.27702e-05
2.44823e-05
-0.000157555
2.73237e-05
-8.26759e-06
-9.55771e-05
0.000206858
-2.00567e-05
-9.47921e-05
0.000155997
-2.54426e-06
-0.000101902
0.000131847
-1.18091e-05
-0.000109328
0.000111167
-1.48055e-06
-0.000114776
9.03941e-05
0.000147643
-0.000131435
5.06236e-05
0.000504914
-0.000142366
2.87157e-05
0.000543554
-5.34098e-05
0.000169033
7.24386e-05
-5.6565e-05
0.000130791
2.89532e-05
-6.72325e-05
0.000106947
-4.59502e-05
-7.83648e-05
7.96233e-05
-0.000139412
-8.97505e-05
5.76418e-05
-0.000189594
-8.57768e-05
4.00298e-05
-0.000481829
-9.80873e-05
2.99979e-06
-0.000868115
-9.46237e-05
-1.37694e-06
-0.000987656
-2.95711e-05
0.000109748
8.62082e-06
-3.14762e-05
8.50769e-05
-5.77139e-07
-4.006e-05
6.98955e-05
9.03266e-06
-5.25667e-05
5.90201e-05
6.14448e-05
-7.092e-05
4.86411e-05
0.000171817
-8.05293e-05
3.35688e-05
0.000402543
-8.15226e-05
1.94734e-05
0.00076511
-8.18613e-05
6.12305e-06
0.000725142
-8.30265e-05
5.87258e-06
0.00041654
-8.83028e-06
3.63958e-05
-0.000206094
-1.10429e-05
2.79688e-05
-0.00025493
-1.4253e-05
2.24002e-05
-0.000291046
-2.10762e-05
1.56192e-05
-0.000344654
-3.0677e-05
4.39508e-06
-0.000645281
-3.93141e-05
-1.32883e-06
-0.000654878
-4.93228e-05
-5.16141e-06
-0.000779183
-5.679e-05
-1.26823e-05
-0.00101874
-6.78271e-05
-1.25947e-05
-0.000942098
-7.48247e-05
-4.71741e-06
-0.000907077
-0.000575826
9.77149e-05
1.66014e-05
-0.000515077
0.000183371
2.69489e-05
-0.000435564
7.72154e-05
1.55112e-05
-0.000412535
0.000241398
2.07253e-05
-0.000378632
0.000144152
2.33973e-05
-0.000359832
6.72323e-05
1.66918e-05
-0.000335576
0.000285491
2.83728e-05
-0.00030205
0.000193543
3.96087e-05
-0.000302588
0.000128373
3.83185e-05
-0.000294077
5.9004e-05
2.14698e-05
-0.000261428
0.000293992
3.34571e-05
-0.00024084
0.000204961
3.34815e-05
-0.000239717
0.000149239
2.47821e-05
-0.000237881
0.000101728
3.50742e-05
-0.000239242
4.80414e-05
2.49261e-05
-0.000192191
0.000300652
8.58195e-06
-0.000178755
0.000229389
1.51038e-05
-0.000185948
0.00018536
1.88933e-05
-0.000197288
0.000134368
-1.89306e-05
-0.000188603
8.7438e-05
-8.5923e-06
-0.000192879
4.24567e-05
-2.75172e-05
-0.000138761
0.000277368
7.01108e-05
-0.000130867
0.000212027
7.24054e-05
-0.000133094
0.000174271
8.54151e-05
-0.000136664
0.000137012
4.05097e-05
-0.000154852
9.04635e-05
3.19142e-05
-0.000150096
5.19631e-05
1.85039e-05
-0.000156887
2.55963e-05
-1.9342e-05
-8.95005e-05
0.000242023
-2.02787e-05
-8.80147e-05
0.00018758
-2.01907e-05
-9.15232e-05
0.000159307
-5.71443e-06
-9.98769e-05
0.000133725
-1.28553e-05
-0.000109058
0.000115011
-6.78982e-06
-0.000117798
8.06278e-05
0.000149661
-0.000128743
5.19482e-05
0.000512338
-0.000141391
3.20745e-05
0.000558247
-5.01467e-05
0.000192678
7.4283e-05
-4.87258e-05
0.000153225
6.72544e-05
-5.65893e-05
0.000130959
2.14712e-05
-6.78893e-05
0.000105997
-5.70008e-05
-7.65077e-05
7.89121e-05
-0.000155095
-9.20428e-05
6.10664e-05
-0.000199117
-9.87445e-05
3.00165e-05
-0.000491624
-0.000108989
2.23607e-06
-0.0008446
-0.000106491
-1.01275e-06
-0.000963178
-2.59331e-05
0.000125558
1.69343e-05
-2.71354e-05
0.000100024
9.76606e-06
-3.17144e-05
8.57241e-05
1.05571e-06
-3.99872e-05
7.07467e-05
1.6217e-05
-5.34412e-05
5.88104e-05
7.40396e-05
-6.93508e-05
4.82489e-05
0.000187174
-8.0014e-05
3.26844e-05
0.000420023
-8.54889e-05
1.81295e-05
0.000781802
-8.11656e-05
5.18363e-06
0.000739169
-8.13156e-05
5.69261e-06
0.000417338
-7.64091e-06
4.15384e-05
-0.000166832
-8.62749e-06
3.31099e-05
-0.000202608
-1.17753e-05
2.81317e-05
-0.000248886
-1.5113e-05
2.25416e-05
-0.000282856
-2.20816e-05
1.57837e-05
-0.000333961
-3.23356e-05
5.11833e-06
-0.000619392
-4.07359e-05
-1.52775e-06
-0.000617776
-5.01785e-05
-4.83238e-06
-0.000736854
-5.90937e-05
-1.28597e-05
-0.00095938
-6.99055e-05
-1.20742e-05
-0.000864836
-7.56945e-05
-4.72102e-06
-0.000826661
-0.000691579
0.000114895
1.90748e-05
-0.000626837
0.000209545
2.12827e-05
-0.000524477
8.90362e-05
1.64787e-05
-0.00050891
0.000279958
2.25671e-05
-0.000467774
0.000167837
2.54686e-05
-0.000436825
7.7794e-05
1.47106e-05
-0.000419161
0.00032587
2.31011e-05
-0.000375957
0.00021896
1.98241e-05
-0.000380558
0.000144982
2.36186e-05
-0.000360788
6.75352e-05
1.5868e-05
-0.000332283
0.000356561
2.09308e-05
-0.000305451
0.000260111
2.64158e-05
-0.00030357
0.000194312
3.75231e-05
-0.000304219
0.000128326
3.53346e-05
-0.000295241
5.91808e-05
1.82886e-05
-0.000256601
0.000359114
3.53171e-05
-0.000238317
0.00026556
3.24206e-05
-0.000242625
0.000203951
3.54469e-05
-0.000241013
0.000148795
2.144e-05
-0.000239575
0.000101615
3.24722e-05
-0.000239717
4.82992e-05
2.34658e-05
-0.000189282
0.000351731
3.99066e-06
-0.000175314
0.000273416
9.00139e-06
-0.000179742
0.000230095
1.70171e-05
-0.000185641
0.000186625
1.56127e-05
-0.000197201
0.000136128
-2.52718e-05
-0.000190363
8.9114e-05
-1.49822e-05
-0.000193799
4.25355e-05
-3.31408e-05
-0.000132671
0.000321246
6.41281e-05
-0.000126368
0.000252153
6.83382e-05
-0.000130764
0.000213078
7.28398e-05
-0.000131994
0.000175774
7.87697e-05
-0.000138833
0.000135165
2.55829e-05
-0.000152858
8.89088e-05
3.00281e-05
-0.000147989
5.08081e-05
1.25378e-05
-0.000155026
2.42255e-05
-2.99333e-05
-8.53316e-05
0.000276882
-9.44755e-06
-8.1896e-05
0.000219806
-1.93342e-05
-8.77681e-05
0.000188493
-1.81977e-05
-9.21053e-05
0.000159444
-7.21738e-06
-9.75719e-05
0.000137356
-1.41364e-05
-0.000116004
0.000107759
-9.95901e-06
-0.000118906
8.38364e-05
0.000137934
-0.000128812
5.98598e-05
0.000504376
-0.000147562
3.0591e-05
0.000568727
-4.79921e-05
0.000216341
6.39179e-05
-4.57357e-05
0.000174724
7.13838e-05
-4.87905e-05
0.000153854
6.14356e-05
-5.65676e-05
0.000130899
1.31494e-05
-6.91292e-05
0.000104773
-6.71742e-05
-7.95456e-05
7.85494e-05
-0.000162383
-9.09407e-05
5.96714e-05
-0.000217845
-0.000106462
2.94438e-05
-0.000497858
-0.000116892
5.60599e-06
-0.000815493
-0.000118483
-4.17002e-06
-0.00092184
-2.35754e-05
0.000140609
2.63185e-05
-2.37866e-05
0.000114249
1.78683e-05
-2.73239e-05
0.000100737
1.03017e-05
-3.20663e-05
8.63083e-05
2.44742e-06
-4.03389e-05
7.10253e-05
2.22594e-05
-5.46407e-05
5.78664e-05
8.67272e-05
-6.82512e-05
4.91724e-05
0.000198201
-7.8338e-05
3.22023e-05
0.00043411
-8.5134e-05
1.64977e-05
0.000796528
-8.22008e-05
5.61052e-06
0.000751547
-7.79288e-05
6.48153e-06
0.000413091
-6.95915e-06
4.65607e-05
-0.000134235
-7.4105e-06
3.78181e-05
-0.00016413
-9.2056e-06
3.32875e-05
-0.000198558
-1.24696e-05
2.83016e-05
-0.000242177
-1.58927e-05
2.26815e-05
-0.000273861
-2.30464e-05
1.59663e-05
-0.000321763
-3.39566e-05
4.97745e-06
-0.000591941
-4.21945e-05
-1.07591e-06
-0.000579338
-5.17563e-05
-4.84351e-06
-0.000693114
-5.7844e-05
-1.23359e-05
-0.000901274
-7.02422e-05
-1.21588e-05
-0.000787156
-7.68007e-05
-4.79956e-06
-0.000745061
-0.000830897
0.000138442
3.22548e-05
-0.000751131
0.000240046
2.11334e-05
-0.000628941
0.000104834
1.87046e-05
-0.000618554
0.000319393
2.0071e-05
-0.000569666
0.00019124
2.09717e-05
-0.000525725
8.96244e-05
1.57548e-05
-0.000514394
0.000375231
1.7709e-05
-0.000462605
0.00025502
2.2032e-05
-0.000469369
0.000168968
2.31049e-05
-0.000437666
7.81315e-05
1.3457e-05
-0.000416604
0.000411275
2.48618e-05
-0.000381148
0.000295777
2.1981e-05
-0.000377829
0.000220153
1.89115e-05
-0.000381529
0.000145857
2.26066e-05
-0.000361963
6.77218e-05
1.48679e-05
-0.000328293
0.000427859
1.69084e-05
-0.000301924
0.000324815
1.98332e-05
-0.000306815
0.000261395
2.3522e-05
-0.000304793
0.000194688
3.4941e-05
-0.000305741
0.000128755
3.19265e-05
-0.000296467
5.93571e-05
1.56809e-05
-0.000252399
0.000422998
3.59406e-05
-0.000233559
0.000325744
3.33784e-05
-0.000239469
0.000265687
3.04116e-05
-0.000243961
0.000203597
3.89648e-05
-0.000242397
0.000148005
2.02468e-05
-0.000241178
0.000101483
3.01039e-05
-0.000239985
4.84017e-05
2.12497e-05
-0.000184482
0.000404135
3.05169e-06
-0.000172662
0.000319671
4.02956e-06
-0.000176334
0.000274264
1.04027e-05
-0.000180377
0.000230829
2.11964e-05
-0.000186651
0.000188032
1.15268e-05
-0.000196249
0.000131289
-2.40558e-05
-0.000190967
9.06737e-05
-2.01428e-05
-0.000194872
4.28165e-05
-3.61107e-05
-0.000128088
0.000365154
5.53584e-05
-0.000120201
0.000292609
6.19774e-05
-0.000125803
0.00025362
6.58305e-05
-0.000128976
0.000214944
7.0541e-05
-0.000131053
0.000177039
7.03764e-05
-0.000152171
0.00013308
1.75785e-05
-0.000151577
8.79246e-05
2.55825e-05
-0.000143194
4.85232e-05
2.62221e-06
-0.000151401
2.32258e-05
-4.93196e-05
-8.15463e-05
0.000310906
9.21271e-07
-7.78154e-05
0.000251819
-9.38064e-06
-8.26402e-05
0.000220392
-1.73835e-05
-8.80876e-05
0.000189112
-1.63462e-05
-9.27821e-05
0.00016017
-6.37788e-06
-0.000103732
0.000135092
-1.72832e-05
-0.00011556
0.000108527
-1.00295e-05
-0.00011938
8.93343e-05
0.000121378
-0.000131397
6.093e-05
0.000488542
-0.000145884
3.45306e-05
0.000561597
-4.62336e-05
0.000240105
5.62001e-05
-4.37523e-05
0.000196246
6.2362e-05
-4.58224e-05
0.000175532
6.8204e-05
-4.88172e-05
0.000154164
5.49214e-05
-5.66665e-05
0.000130748
3.50265e-06
-7.11289e-05
0.000103051
-7.51879e-05
-8.23034e-05
7.81289e-05
-0.000166789
-9.1099e-05
6.03353e-05
-0.000235975
-0.000108867
2.83059e-05
-0.000496825
-0.000120537
7.42943e-06
-0.000788757
-0.000124119
6.03028e-07
-0.000876253
-2.18101e-05
0.000155136
3.34575e-05
-2.16473e-05
0.000127614
2.71903e-05
-2.40375e-05
0.000114954
1.84835e-05
-2.75799e-05
0.000101466
1.02547e-05
-3.21804e-05
8.69622e-05
2.79822e-06
-4.15929e-05
7.10493e-05
2.76229e-05
-5.42533e-05
5.87041e-05
9.74922e-05
-6.77042e-05
4.90792e-05
0.000206834
-7.69808e-05
3.1899e-05
0.000443933
-7.508e-05
1.74186e-05
0.000801956
-7.90217e-05
6.14506e-06
0.000760663
-7.80174e-05
7.49588e-06
0.000406812
-6.33982e-06
5.15441e-05
-0.000105933
-6.73268e-06
4.23808e-05
-0.000132065
-7.85746e-06
3.80176e-05
-0.000161002
-9.77154e-06
3.34667e-05
-0.000193952
-1.3106e-05
2.84799e-05
-0.000234869
-1.66395e-05
2.28324e-05
-0.000264087
-2.37139e-05
1.6136e-05
-0.000309207
-3.53426e-05
5.37545e-06
-0.00056305
-4.31997e-05
-4.39565e-08
-0.000540937
-5.31168e-05
-4.89098e-06
-0.000647442
-5.81416e-05
-1.21703e-05
-0.000843121
-7.13885e-05
-1.24936e-05
-0.000708073
-7.76797e-05
-4.73176e-06
-0.00066265
-0.000990634
0.0001592
5.49244e-05
-0.000888002
0.000276685
2.17806e-05
-0.000752745
0.000124663
3.13955e-05
-0.000742598
0.000363293
1.88716e-05
-0.000683512
0.00022012
1.96932e-05
-0.000630776
0.00010585
1.79053e-05
-0.000621013
0.000426555
1.98842e-05
-0.000560534
0.000290567
1.86734e-05
-0.000571754
0.000192131
2.08496e-05
-0.000526806
8.99865e-05
1.49077e-05
-0.000511902
0.000470453
1.54771e-05
-0.000467525
0.000341341
1.7765e-05
-0.000464535
0.000256156
2.15507e-05
-0.000471421
0.000169279
2.18493e-05
-0.000439297
7.82115e-05
1.25793e-05
-0.000411461
0.000495174
2.52227e-05
-0.000378787
0.000373428
2.40743e-05
-0.000383167
0.000296561
2.19259e-05
-0.000378912
0.00022131
1.75781e-05
-0.00038315
0.000146373
2.13642e-05
-0.000363106
6.80696e-05
1.34382e-05
-0.000324589
0.000499642
1.44566e-05
-0.000297632
0.0003896
1.61963e-05
-0.000303161
0.000326083
1.88379e-05
-0.000308162
0.000262252
2.01588e-05
-0.000306
0.000195419
3.18797e-05
-0.000307337
0.000129438
2.80047e-05
-0.000297431
5.95285e-05
1.35988e-05
-0.000246394
0.000486438
3.49962e-05
-0.000229717
0.000384286
3.44535e-05
-0.000234486
0.000326793
3.0423e-05
-0.000240547
0.000266371
2.78067e-05
-0.00024363
0.000203517
4.04313e-05
-0.000244301
0.000152646
1.71359e-05
-0.000241665
0.000101948
2.72554e-05
-0.000240415
4.84603e-05
1.83315e-05
-0.000180841
0.000457274
6.49786e-06
-0.000168159
0.000367198
3.48236e-06
-0.000173198
0.00032078
4.90876e-06
-0.000176379
0.000275528
1.31071e-05
-0.00018106
0.000231904
2.73321e-05
-0.000197227
0.000180908
6.96421e-06
-0.000195021
0.000133096
-2.30353e-05
-0.000191638
9.30611e-05
-2.19435e-05
-0.000196127
4.33404e-05
-3.47256e-05
-0.000123159
0.000407485
4.77987e-05
-0.000115963
0.000332487
5.36284e-05
-0.000120209
0.000293606
5.95604e-05
-0.000124952
0.000255203
6.24358e-05
-0.000128164
0.000216167
6.67953e-05
-0.000133088
0.000176734
5.6079e-05
-0.000155578
0.000132311
1.32097e-05
-0.000150901
8.66994e-05
1.89266e-05
-0.000140235
4.72603e-05
-1.25748e-05
-0.000150002
2.28854e-05
-6.80869e-05
-7.93803e-05
0.000345194
1.02755e-05
-7.41346e-05
0.000282894
2.28699e-07
-7.86616e-05
0.000252718
-8.86696e-06
-8.29229e-05
0.00022131
-1.54758e-05
-8.87754e-05
0.000189843
-1.3911e-05
-9.4214e-05
0.000161278
-9.47886e-06
-0.000107445
0.00013395
-1.75646e-05
-0.000114254
0.000111056
-8.5961e-06
-0.000119116
9.55139e-05
9.70432e-05
-0.000132249
5.89928e-05
0.000475792
-0.00014453
3.43412e-05
0.000547667
-4.38951e-05
0.000263338
5.09562e-05
-4.21861e-05
0.000218179
5.48061e-05
-4.39498e-05
0.000197064
6.0742e-05
-4.59149e-05
0.000176166
6.45363e-05
-4.85223e-05
0.000154623
4.73883e-05
-5.76129e-05
0.000129715
-7.14124e-06
-7.23588e-05
0.000103223
-8.2177e-05
-8.3898e-05
7.8126e-05
-0.000168385
-9.13753e-05
5.82122e-05
-0.000251487
-0.000105732
3.1501e-05
-0.000490245
-0.000123765
8.84867e-06
-0.000752259
-0.000121411
6.08943e-06
-0.000838949
-2.04139e-05
0.000169339
3.81169e-05
-2.00502e-05
0.000140719
3.36701e-05
-2.18922e-05
0.000128267
2.79117e-05
-2.42208e-05
0.000115813
1.85851e-05
-2.76647e-05
0.000102286
9.48974e-06
-3.29797e-05
8.76826e-05
2.50518e-06
-4.14266e-05
7.18907e-05
3.2149e-05
-5.3831e-05
6.01885e-05
0.000104871
-6.63821e-05
4.82988e-05
0.000213617
-7.77998e-05
3.18925e-05
0.000454143
-6.94187e-05
1.74367e-05
0.000801942
-7.95691e-05
6.45934e-06
0.00076988
-7.58643e-05
8.14164e-06
0.000396855
-5.82868e-06
5.638e-05
-8.3541e-05
-6.08312e-06
4.68858e-05
-0.000104355
-7.09081e-06
4.25925e-05
-0.000129549
-8.2823e-06
3.82188e-05
-0.000157472
-1.0298e-05
3.36427e-05
-0.000188816
-1.36991e-05
2.8651e-05
-0.000226989
-1.73248e-05
2.29812e-05
-0.000253608
-2.42067e-05
1.63384e-05
-0.000295964
-3.67162e-05
6.40041e-06
-0.000532778
-4.44049e-05
2.66353e-08
-0.00050145
-5.48694e-05
-5.07497e-06
-0.000599668
-6.0214e-05
-1.21887e-05
-0.000783212
-7.22854e-05
-1.24119e-05
-0.000628108
-7.65323e-05
-4.67121e-06
-0.000581446
-0.00118117
0.000194541
0.000126026
-0.0010386
0.000312912
2.43947e-05
-0.000891716
0.000140328
5.35672e-05
-0.000879767
0.000411831
2.04602e-05
-0.000812983
0.000254267
2.16479e-05
-0.000756798
0.000126993
3.04252e-05
-0.000738988
0.000482297
1.61281e-05
-0.000669987
0.00033147
1.69746e-05
-0.000686049
0.000220793
1.90454e-05
-0.0006322
0.000106039
1.72601e-05
-0.000617482
0.000533081
1.97263e-05
-0.000563666
0.000388011
1.85811e-05
-0.00056445
0.000291885
1.88348e-05
-0.000573354
0.000193076
1.9693e-05
-0.000528893
9.0149e-05
1.43553e-05
-0.000505158
0.000564979
1.50337e-05
-0.00046517
0.000427674
1.55282e-05
-0.0004695
0.000342947
1.73066e-05
-0.000465869
0.000256935
2.08517e-05
-0.000473316
0.000169665
2.05619e-05
-0.000440367
7.85247e-05
1.13149e-05
-0.000406546
0.000578237
2.445e-05
-0.000373448
0.000450423
2.40443e-05
-0.000380428
0.00037462
2.3281e-05
-0.000384225
0.000297869
2.14293e-05
-0.000380423
0.000222082
1.62923e-05
-0.000384533
0.000146821
1.98085e-05
-0.000364334
6.83e-05
1.20407e-05
-0.000318996
0.000572101
1.41656e-05
-0.000294303
0.00045473
1.39117e-05
-0.000298755
0.000391134
1.5415e-05
-0.000304503
0.000327189
1.78578e-05
-0.000309819
0.00026311
1.86577e-05
-0.000307057
0.000195454
2.86193e-05
-0.000308968
0.000130045
2.47923e-05
-0.000298157
5.971e-05
1.16314e-05
-0.000242891
0.000549996
3.31178e-05
-0.000224394
0.000441856
3.36611e-05
-0.000229936
0.000386292
3.16935e-05
-0.000235108
0.000328336
2.71877e-05
-0.000240872
0.000267074
2.40602e-05
-0.000243812
0.000209067
3.05948e-05
-0.000245017
0.000154494
1.45871e-05
-0.000242158
0.000102438
2.37972e-05
-0.000240473
4.84895e-05
1.41875e-05
-0.000173666
0.000508454
1.10097e-05
-0.000164639
0.000415535
6.83672e-06
-0.000168552
0.000368677
3.92704e-06
-0.00017311
0.000322296
6.29793e-06
-0.000176386
0.000276999
1.6234e-05
-0.000184087
0.000231116
2.81234e-05
-0.000198476
0.00018162
1.33903e-06
-0.000194403
0.000135442
-2.19139e-05
-0.000192412
9.47711e-05
-2.11967e-05
-0.000196426
4.3763e-05
-3.20645e-05
-0.00012226
0.000451362
4.26815e-05
-0.000111379
0.000371055
4.64746e-05
-0.000116589
0.000333358
5.18032e-05
-0.000120068
0.000295062
5.68463e-05
-0.000125197
0.000256314
5.87106e-05
-0.000129818
0.000216019
6.31144e-05
-0.000135158
0.000175763
4.03402e-05
-0.00015707
0.000132271
1.04539e-05
-0.000150808
8.59509e-05
1.19274e-05
-0.000139076
4.64987e-05
-2.93607e-05
-0.000149842
2.28255e-05
-8.56003e-05
-7.48755e-05
0.000377844
1.728e-05
-7.21351e-05
0.000313959
9.15974e-06
-7.46644e-05
0.000284128
-4.66961e-07
-7.89367e-05
0.000253817
-8.35146e-06
-8.32552e-05
0.000222406
-1.33054e-05
-8.89259e-05
0.000191282
-1.26023e-05
-9.62427e-05
0.000161621
-1.32664e-05
-0.000109275
0.000134012
-1.51437e-05
-0.000112646
0.000113764
-5.57624e-06
-0.000119371
9.49479e-05
7.47279e-05
-0.000127386
6.60973e-05
0.000447656
-0.000140519
2.89342e-05
0.000537841
-4.22334e-05
0.000287035
4.59804e-05
-3.98633e-05
0.000239729
4.92187e-05
-4.24277e-05
0.00021903
5.33757e-05
-4.40283e-05
0.000197998
5.87178e-05
-4.56968e-05
0.000176956
6.02352e-05
-4.89359e-05
0.000154588
3.84718e-05
-5.75734e-05
0.000130158
-1.79292e-05
-7.30966e-05
0.000103503
-8.82881e-05
-8.39891e-05
7.89177e-05
-0.000171484
-9.46551e-05
5.96291e-05
-0.00026276
-0.00010421
3.23847e-05
-0.00047899
-0.000124239
1.51903e-05
-0.00071669
-0.000119324
2.5229e-06
-0.000798012
-1.92342e-05
0.000183242
4.00134e-05
-1.86062e-05
0.00015374
3.76195e-05
-2.02706e-05
0.00014129
3.38273e-05
-2.19817e-05
0.000129316
2.8109e-05
-2.42858e-05
0.000116736
1.81229e-05
-2.79782e-05
0.000103269
8.18285e-06
-3.30569e-05
8.86322e-05
1.49579e-06
-4.03473e-05
7.34999e-05
3.49782e-05
-5.39825e-05
6.07371e-05
0.000109699
-6.39675e-05
4.81569e-05
0.000216915
-7.70783e-05
3.13873e-05
0.000462401
-6.98082e-05
1.69677e-05
0.000801028
-7.66698e-05
5.28552e-06
0.00077712
-7.39844e-05
9.50865e-06
0.000384798
-5.27401e-06
6.10101e-05
-6.53748e-05
-5.54758e-06
5.12764e-05
-8.2384e-05
-6.41557e-06
4.70973e-05
-0.000102444
-7.44815e-06
4.28066e-05
-0.000126688
-8.69518e-06
3.84218e-05
-0.000153556
-1.07812e-05
3.38295e-05
-0.000183214
-1.42689e-05
2.88243e-05
-0.000218563
-1.78219e-05
2.31475e-05
-0.000242595
-2.39671e-05
1.65421e-05
-0.000282138
-3.80954e-05
6.69245e-06
-0.000501348
-4.55714e-05
-7.81164e-07
-0.000460172
-5.54942e-05
-4.71882e-06
-0.000551644
-6.24896e-05
-1.18241e-05
-0.00072131
-7.30164e-05
-1.21664e-05
-0.000547596
-7.6584e-05
-4.69707e-06
-0.000500165
-0.00142696
0.000236286
0.00058194
-0.00120303
0.000368309
0.000181638
-0.00105816
0.000168218
0.000124253
-0.00103186
0.000462289
2.30035e-05
-0.000961057
0.00028886
2.39361e-05
-0.000900484
0.000143606
5.36471e-05
-0.000865848
0.000541917
1.69017e-05
-0.000789845
0.000377265
1.73203e-05
-0.000813392
0.000254692
2.12912e-05
-0.00075816
0.000126781
2.96042e-05
-0.000732869
0.000598874
1.52078e-05
-0.000670984
0.00043876
1.61562e-05
-0.000676288
0.000332121
1.7485e-05
-0.00068837
0.000221338
1.87622e-05
-0.000634918
0.000106009
1.72763e-05
-0.000608968
0.000638176
1.94799e-05
-0.000560331
0.000484724
1.81739e-05
-0.000566445
0.000389506
1.79056e-05
-0.0005653
0.000293311
1.8032e-05
-0.000576367
0.000193453
1.94398e-05
-0.000529811
9.05727e-05
1.32268e-05
-0.000499899
0.000658279
1.60436e-05
-0.000459233
0.000513567
1.49245e-05
-0.000466842
0.000429701
1.5188e-05
-0.000470853
0.000344359
1.65104e-05
-0.000467918
0.000257942
2.00702e-05
-0.000475319
0.000170405
1.94671e-05
-0.000441922
7.8793e-05
1.01097e-05
-0.000400283
0.000660785
2.37999e-05
-0.000368953
0.000525906
2.36176e-05
-0.000375072
0.000451969
2.30135e-05
-0.000381466
0.000376228
2.18859e-05
-0.000385799
0.000298965
2.0526e-05
-0.00038197
0.000222987
1.50397e-05
-0.000386238
0.000147175
1.82037e-05
-0.0003654
6.86933e-05
1.05895e-05
-0.000316249
0.000645718
1.58017e-05
-0.000289464
0.000520449
1.35175e-05
-0.000295046
0.000456834
1.33224e-05
-0.000300166
0.000392518
1.51432e-05
-0.000305699
0.000328612
1.71831e-05
-0.00031163
0.000262739
1.9191e-05
-0.000308218
0.000196131
2.57339e-05
-0.000310265
0.000130675
2.19342e-05
-0.000298838
5.99492e-05
1.00479e-05
-0.000232545
0.000610319
3.16546e-05
-0.000221151
0.000499683
3.18032e-05
-0.000224518
0.000444181
3.17384e-05
-0.000230294
0.000388148
2.9065e-05
-0.000235502
0.000329698
2.36807e-05
-0.000240762
0.0002691
2.07011e-05
-0.00024619
0.000210045
2.27574e-05
-0.000245556
0.000155631
1.25471e-05
-0.000242828
0.00010276
1.99431e-05
-0.000240559
4.85399e-05
9.78043e-06
-0.000175665
0.000562608
1.58082e-05
-0.00015783
0.000462224
1.07719e-05
-0.000165064
0.000417266
6.72301e-06
-0.000168795
0.000370434
4.51644e-06
-0.000173437
0.000323848
7.68804e-06
-0.000177327
0.000277855
1.70045e-05
-0.000185417
0.000232007
2.79953e-05
-0.000199729
0.000183195
-3.75456e-06
-0.000194477
0.000137616
-2.10894e-05
-0.000192614
9.62752e-05
-2.01708e-05
-0.000196468
4.41186e-05
-2.95566e-05
-0.000114721
0.000492446
3.88604e-05
-0.000110616
0.000410812
4.1406e-05
-0.00011171
0.00037254
4.43387e-05
-0.000116568
0.000334806
4.96898e-05
-0.000120301
0.000296469
5.3738e-05
-0.000126513
0.00025699
5.5327e-05
-0.000131841
0.000215814
5.86614e-05
-0.000137123
0.000174616
2.5844e-05
-0.000157108
0.000133064
7.80288e-06
-0.000150445
8.58602e-05
3.63983e-06
-0.000137999
4.62411e-05
-4.2163e-05
-0.000150535
2.2364e-05
-9.79488e-05
-7.31449e-05
0.000410315
2.25898e-05
-6.81383e-05
0.000343367
1.61468e-05
-7.25003e-05
0.000315395
7.96511e-06
-7.50257e-05
0.000285367
-1.01985e-06
-7.90491e-05
0.000255099
-7.69243e-06
-8.31339e-05
0.00022387
-1.16949e-05
-8.95769e-05
0.000192412
-1.1389e-05
-9.79272e-05
0.000162012
-1.64358e-05
-0.000107926
0.000135405
-1.28478e-05
-0.000110474
0.000116504
-1.1314e-05
-0.000116734
9.73849e-05
5.59643e-05
-0.000121628
6.58632e-05
0.000408116
-0.000140005
3.15181e-05
0.000527003
-4.06391e-05
0.000310312
4.20488e-05
-3.8306e-05
0.000260985
4.44252e-05
-4.01151e-05
0.000240729
4.73644e-05
-4.24121e-05
0.000220137
5.16673e-05
-4.39421e-05
0.000199129
5.62008e-05
-4.56308e-05
0.000177804
5.46715e-05
-4.84777e-05
0.000155186
2.88643e-05
-5.66838e-05
0.000130577
-2.86673e-05
-7.18835e-05
0.000102062
-9.35314e-05
-8.19421e-05
8.21815e-05
-0.000176062
-9.44079e-05
6.13313e-05
-0.000274377
-0.000107233
3.61567e-05
-0.000462532
-0.000119477
1.3385e-05
-0.000684744
-0.000121781
4.37045e-06
-0.000754585
-1.76883e-05
0.000196317
4.06304e-05
-1.74747e-05
0.000166414
3.92662e-05
-1.88858e-05
0.000154336
3.7043e-05
-2.03669e-05
0.00014218
3.38816e-05
-2.20203e-05
0.000130349
2.78212e-05