/*--------------------------------*- C++ -*----------------------------------*\
  =========                 |
  \\      /  F ield         | OpenFOAM: The Open Source CFD Toolbox
   \\    /   O peration     | Website:  https://openfoam.org
    \\  /    A nd           | Version:  7
     \\/     M anipulation  |
\*---------------------------------------------------------------------------*/
FoamFile
{
    version     2.0;
    format      ascii;
    class       volVectorField;
    location    "0.5";
    object      U;
}
// * * * * * * * * * * * * * * * * * * * * * * * * * * * * * * * * * * * * * //

dimensions      [0 1 -1 0 0 0 0];

internalField   nonuniform List<vector> 
18750
(
(1.09171 -0.591898 -0.00495475)
(-0.281085 -0.806652 0.041009)
(1.01308 -0.499998 -0.260699)
(1.06662 -0.573906 -0.00297271)
(0.632853 -0.0939342 0.0270966)
(-0.430136 -0.687568 0.0364589)
(-0.234657 -0.818391 0.0421244)
(0.957008 -0.391486 -0.456779)
(1.00677 -0.467427 -0.239461)
(1.03135 -0.543738 0.00456933)
(-0.208692 -0.375227 0.0562278)
(0.605241 -0.184647 -0.0308953)
(0.659939 -0.0139876 0.0204432)
(-0.459208 -0.604882 0.111976)
(-0.382821 -0.709561 0.0277467)
(-0.200106 -0.824238 0.0410697)
(0.665735 -0.385657 -0.35232)
(0.932333 -0.372805 -0.422951)
(1.01747 -0.455909 -0.235109)
(1.05705 -0.533629 0.00670484)
(-0.0367824 -0.334857 0.0388291)
(-0.275867 -0.358366 0.15454)
(-0.204635 -0.415301 0.04575)
(0.231856 -0.389402 -0.0401806)
(0.601067 -0.128917 -0.0258622)
(0.656394 0.0136219 0.0190749)
(-0.175186 -0.557586 0.211666)
(-0.452468 -0.609881 0.119056)
(-0.380855 -0.705057 0.0312541)
(-0.148303 -0.835099 0.0378828)
(0.541159 -0.320828 -0.0799742)
(0.672707 -0.385028 -0.335448)
(0.928278 -0.360421 -0.399006)
(0.997284 -0.45502 -0.231231)
(1.05268 -0.531212 0.00708839)
(-0.0189767 -0.358716 0.00230311)
(-0.0252653 -0.318076 0.12438)
(-0.0106068 -0.339628 0.0332469)
(-0.0977363 -0.316565 0.207269)
(-0.278665 -0.388642 0.162509)
(-0.208631 -0.447805 0.0332422)
(0.0294067 -0.350632 0.256272)
(0.27058 -0.362174 -0.0162694)
(0.611401 -0.133043 -0.0433054)
(0.678314 0.0879936 0.0155725)
(-0.0613959 -0.445308 0.239311)
(-0.174412 -0.556146 0.240282)
(-0.387219 -0.656125 0.0955473)
(-0.347089 -0.720236 0.0298289)
(-0.111589 -0.826964 0.039168)
(0.485469 -0.263878 -0.124267)
(0.543407 -0.316003 -0.0558382)
(0.671161 -0.375579 -0.293564)
(0.942081 -0.346862 -0.380383)
(0.977698 -0.431594 -0.215601)
(1.03765 -0.507719 0.0118867)
(-0.0361251 -0.359229 0.00213756)
(-0.0197267 -0.345638 0.165522)
(0.00910605 -0.365952 -0.000384974)
(-0.0307907 -0.342501 0.162897)
(-0.0071766 -0.32465 0.123357)
(0.0138157 -0.339828 0.0313306)
(-0.0113144 -0.284211 0.292367)
(-0.0835109 -0.336624 0.213024)
(-0.264678 -0.419521 0.172046)
(-0.20416 -0.480304 0.0327238)
(0.0390791 -0.323791 0.354284)
(0.0835607 -0.358093 0.230686)
(0.295763 -0.303199 0.0262127)
(0.63192 -0.136886 -0.0438346)
(0.682829 0.0970111 0.0129073)
(-0.0166209 -0.279405 0.393378)
(-0.0490738 -0.452328 0.250689)
(-0.168782 -0.552382 0.26376)
(-0.397342 -0.668253 0.101578)
(-0.305218 -0.743125 0.0245037)
(-0.0754047 -0.79722 0.044204)
(0.239676 -0.182521 0.286874)
(0.490265 -0.263185 -0.114782)
(0.54466 -0.313093 -0.0406802)
(0.67921 -0.365225 -0.267256)
(0.929748 -0.325937 -0.362775)
(0.968982 -0.442437 -0.2267)
(1.04128 -0.487876 0.0129923)
(-0.0324076 -0.392935 0.00265575)
(-0.0465066 -0.349851 0.154923)
(-0.0112854 -0.364226 0.00292457)
(-0.0176877 -0.369327 0.190419)
(0.00406307 -0.351337 0.166071)
(0.0354787 -0.367597 -0.00196043)
(-0.0760515 -0.297009 0.307118)
(-0.0093489 -0.34629 0.161156)
(0.0120289 -0.324233 0.119638)
(0.0394591 -0.332261 0.0254301)
(-0.00165939 -0.246998 0.379998)
(0.00629328 -0.287442 0.300787)
(-0.0650629 -0.349404 0.220736)
(-0.269972 -0.435411 0.176559)
(-0.191969 -0.517763 0.0447771)
(0.00862873 -0.285834 0.442178)
(0.0750848 -0.319757 0.337074)
(0.132468 -0.362365 0.200589)
(0.355911 -0.239648 0.0588343)
(0.635328 -0.0874862 -0.0117938)
(0.64747 0.159792 0.00883321)
(-0.00196007 -0.237873 0.45036)
(-0.0092789 -0.285782 0.413164)
(-0.0340731 -0.459701 0.255683)
(-0.149137 -0.560321 0.260251)
(-0.371189 -0.682554 0.100807)
(-0.267472 -0.755252 0.0231949)
(-0.0133089 -0.79195 0.0448949)
(0.199493 -0.127116 0.41915)
(0.24739 -0.183006 0.286381)
(0.487781 -0.264773 -0.113951)
(0.546078 -0.309653 -0.0315658)
(0.678636 -0.35 -0.230568)
(0.932528 -0.301167 -0.346928)
(0.968994 -0.441985 -0.230894)
(1.02558 -0.469678 0.0151197)
(-0.0253852 -0.42908 0.00734475)
(-0.042412 -0.395607 0.16411)
(-0.00941924 -0.398276 0.00117883)
(-0.0405248 -0.358073 0.205883)
(-0.0217637 -0.354718 0.155097)
(0.0137627 -0.365311 0.00291859)
(-0.0269508 -0.31995 0.32874)
(0.0112312 -0.375098 0.189475)
(0.0288161 -0.353836 0.166456)
(0.0624973 -0.367154 -0.00284853)
(-0.0756289 -0.294707 0.393587)
(-0.0421242 -0.306582 0.302066)
(0.0140616 -0.338567 0.156554)
(0.0286605 -0.311912 0.118318)
(0.0632585 -0.323006 0.019567)
(-0.00673196 -0.230402 0.455444)
(0.0141241 -0.255884 0.379984)
(0.0267991 -0.283681 0.315453)
(-0.050852 -0.354243 0.239934)
(-0.22308 -0.480862 0.138098)
(-0.193865 -0.551141 0.0502845)
(-0.0332338 -0.205494 0.550566)
(0.0299386 -0.282144 0.437165)
(0.101512 -0.319692 0.315981)
(0.166686 -0.35747 0.182171)
(0.345992 -0.219884 0.0815204)
(0.629345 -0.066808 -0.0121879)
(0.677036 0.13175 -0.00649776)
(-0.00310099 -0.178312 0.584657)
(0.00864756 -0.245783 0.454525)
(8.93469e-06 -0.292156 0.429531)
(-0.0327921 -0.46061 0.26941)
(-0.132451 -0.569738 0.2494)
(-0.321133 -0.702775 0.0931188)
(-0.243833 -0.763499 0.0256204)
(0.0300448 -0.800505 0.0447327)
(0.170546 -0.101 0.591695)
(0.203492 -0.126802 0.419796)
(0.254012 -0.18202 0.28812)
(0.499329 -0.264076 -0.100406)
(0.548493 -0.306075 -0.0236795)
(0.685617 -0.338371 -0.218256)
(0.917577 -0.302321 -0.347793)
(0.962933 -0.441631 -0.230211)
(1.0206 -0.466655 0.0149294)
(-0.0266164 -0.470272 0.0111943)
(-0.0290087 -0.44643 0.159885)
(0.00112575 -0.431894 0.00759379)
(-0.0395603 -0.398449 0.22288)
(-0.015939 -0.400976 0.165396)
(0.0185662 -0.398956 0.00126016)
(-0.0342558 -0.37136 0.308069)
(-0.0119399 -0.362819 0.203436)
(0.0047761 -0.356736 0.154832)
(0.0362223 -0.361826 0.00286407)
(-0.019704 -0.300312 0.419814)
(-0.00669982 -0.317909 0.333171)
(0.039849 -0.377172 0.189859)
(0.0531881 -0.352512 0.166608)
(0.0891293 -0.363823 -0.00225643)
(-0.0593758 -0.288782 0.484855)
(-0.0520214 -0.302863 0.389234)
(-0.0262964 -0.308791 0.295357)
(0.0288428 -0.321756 0.15313)
(0.0459856 -0.301657 0.11768)
(0.0899224 -0.309243 0.015843)
(0.00587783 -0.211834 0.555572)
(0.00963088 -0.233148 0.457633)
(0.0320505 -0.263729 0.37669)
(0.0419565 -0.297587 0.324006)
(-0.0331583 -0.363319 0.246829)
(-0.21249 -0.523361 0.120451)
(-0.172307 -0.583579 0.0500647)
(-0.0526166 -0.163986 0.645807)
(-0.013585 -0.201788 0.545647)
(0.0526168 -0.286912 0.429083)
(0.138072 -0.313481 0.302079)
(0.201489 -0.320153 0.212827)
(0.377562 -0.160931 0.119118)
(0.659021 -0.0589017 -0.0140685)
(0.704768 0.0914091 0.0022383)
(-0.0102207 -0.149833 0.70788)
(0.00630452 -0.185219 0.586945)
(0.0191793 -0.253448 0.457572)
(0.0045248 -0.298159 0.446656)
(-0.00993532 -0.458769 0.278443)
(-0.110111 -0.587204 0.232236)
(-0.295969 -0.719939 0.0844626)
(-0.210384 -0.759069 0.0320557)
(0.0724266 -0.774417 0.046172)
(0.133977 -0.0764312 0.703274)
(0.173418 -0.10094 0.59262)
(0.207301 -0.126021 0.420957)
(0.261287 -0.179785 0.289364)
(0.507709 -0.261993 -0.0886672)
(0.549716 -0.303107 -0.0202007)
(0.692081 -0.334439 -0.21914)
(0.917756 -0.297888 -0.355)
(0.950152 -0.429134 -0.223807)
(1.02413 -0.472771 0.0138317)
(-0.0267685 -0.512777 0.0167739)
(-0.0322827 -0.500488 0.159384)
(0.00359305 -0.472171 0.0106163)
(-0.0281931 -0.443612 0.224132)
(-0.00225265 -0.449015 0.159392)
(0.027509 -0.429738 0.00837933)
(-0.0321488 -0.401267 0.33672)
(-0.0143286 -0.4029 0.222326)
(0.009382 -0.404088 0.16569)
(0.0440234 -0.398647 0.00182947)
(-0.0338427 -0.364255 0.40963)
(-0.011006 -0.375869 0.301236)
(0.0144985 -0.364606 0.201768)
(0.0285385 -0.353606 0.154055)
(0.0581837 -0.354187 0.0034717)
(-0.0155075 -0.294814 0.507518)
(-0.000789543 -0.300629 0.421518)
(0.0155693 -0.313903 0.336733)
(0.0663833 -0.372089 0.192701)
(0.0793656 -0.352129 0.165829)
(0.117432 -0.35962 0.00025892)
(-0.0548098 -0.271197 0.580629)
(-0.0396073 -0.29468 0.480889)
(-0.0328721 -0.302321 0.389831)
(0.0187103 -0.306591 0.289141)
(0.0449341 -0.305705 0.151845)
(0.0676197 -0.289229 0.113125)
(0.109738 -0.288798 0.0111056)
(0.00639784 -0.199664 0.656548)
(0.0199461 -0.217621 0.553297)
(0.0208389 -0.215347 0.474924)
(0.0456343 -0.256 0.391624)
(0.0695237 -0.308126 0.316948)
(0.0138876 -0.383445 0.21354)
(-0.159097 -0.52928 0.124234)
(-0.150504 -0.61156 0.0350071)
(-0.0528311 -0.148616 0.746711)
(-0.0432295 -0.163033 0.643922)
(0.000316856 -0.197882 0.542481)
(0.0775597 -0.273721 0.418738)
(0.16636 -0.294147 0.302804)
(0.207335 -0.298448 0.235614)
(0.423533 -0.205767 0.0416727)
(0.678636 -0.0423357 -0.0185578)
(0.695146 0.11527 -0.00456883)
(-0.0151241 -0.121103 0.818051)
(-0.00179519 -0.154869 0.709711)
(0.0169076 -0.190684 0.589378)
(0.0297483 -0.256266 0.464347)
(0.0200263 -0.309562 0.441975)
(0.00244925 -0.455023 0.282263)
(-0.0843318 -0.598974 0.212902)
(-0.254601 -0.749614 0.0666445)
(-0.185099 -0.760465 0.03589)
(0.080696 -0.722104 0.0539007)
(0.1079 -0.0663909 0.816306)
(0.137053 -0.0766044 0.703936)
(0.17644 -0.10048 0.593632)
(0.210948 -0.124576 0.42247)
(0.267655 -0.176529 0.291518)
(0.50208 -0.258276 -0.0577226)
(0.553353 -0.30126 -0.0189141)
(0.695352 -0.327111 -0.218269)
(0.915562 -0.29509 -0.354107)
(0.952885 -0.423864 -0.225249)
(1.02327 -0.469166 0.0139708)
(-0.0302878 -0.56086 0.0236679)
(-0.0316598 -0.55358 0.160536)
(0.00347886 -0.514551 0.0162174)
(-0.0309839 -0.49305 0.234468)
(-0.00512512 -0.501588 0.160849)
(0.032377 -0.470862 0.00981687)
(-0.0308056 -0.449542 0.332904)
(-6.50063e-05 -0.445848 0.223718)
(0.0252463 -0.448758 0.158805)
(0.0536282 -0.42592 0.00819492)
(-0.0273154 -0.396397 0.434109)
(-0.00671303 -0.402934 0.337239)
(0.0100957 -0.405269 0.221959)
(0.0367393 -0.405031 0.164749)
(0.0716327 -0.396202 0.00208029)
(-0.0347192 -0.352302 0.507171)
(-0.0112805 -0.367742 0.405574)
(0.0114982 -0.377299 0.296836)
(0.0392732 -0.360631 0.201205)
(0.0517824 -0.349626 0.15336)
(0.0793281 -0.345886 0.00394892)
(-0.0125019 -0.291906 0.601622)
(0.00331838 -0.295942 0.508397)
(0.0171349 -0.301861 0.421223)
(0.0350097 -0.310366 0.339031)
(0.0949012 -0.366087 0.195608)
(0.106022 -0.352426 0.163646)
(0.144731 -0.356195 0.0015286)
(-0.0520558 -0.251263 0.678472)
(-0.0387894 -0.273485 0.579356)
(-0.0222721 -0.293252 0.479489)
(-0.00822733 -0.294636 0.391078)
(0.0394165 -0.296267 0.286482)
(0.0590893 -0.291705 0.151535)
(0.0791609 -0.266566 0.109159)
(0.127494 -0.261509 0.0100517)
(-0.00040352 -0.191103 0.76113)
(0.0198472 -0.20439 0.655171)
(0.0324929 -0.218168 0.554701)
(0.0389536 -0.22396 0.471967)
(0.0620389 -0.242651 0.413668)
(0.0981101 -0.329467 0.287896)
(0.0234812 -0.399602 0.216908)
(-0.178578 -0.602278 0.164285)
(-0.113443 -0.694343 0.03994)
(-0.0458329 -0.140373 0.846844)
(-0.0449554 -0.149549 0.745006)
(-0.0272058 -0.159145 0.643451)
(0.0180276 -0.189743 0.538911)
(0.100764 -0.265983 0.407935)
(0.187435 -0.273327 0.307157)
(0.254819 -0.265878 0.224477)
(0.457498 -0.202166 0.0399053)
(0.603999 -0.0497911 -0.00838672)
(0.700246 0.102497 -0.00264929)
(-0.0206193 -0.102433 0.921893)
(-0.0079149 -0.124926 0.819724)
(0.00746148 -0.158695 0.712441)
(0.0280414 -0.195298 0.591151)
(0.0425922 -0.261337 0.46225)
(0.0335878 -0.317027 0.429478)
(0.0166917 -0.450121 0.286498)
(-0.0710897 -0.595384 0.211332)
(-0.213296 -0.770568 0.0468554)
(-0.131109 -0.778713 0.0239496)
(0.0895197 -0.663663 0.0668234)
(0.0862038 -0.0612299 0.920733)
(0.110728 -0.0664298 0.817001)
(0.13918 -0.0765379 0.70522)
(0.17929 -0.0995406 0.594712)
(0.214756 -0.122482 0.424072)
(0.273618 -0.172348 0.294078)
(0.517185 -0.255406 -0.0651186)
(0.5547 -0.296189 -0.0067767)
(0.701045 -0.32068 -0.216458)
(0.8958 -0.271785 -0.334396)
(0.953768 -0.42384 -0.23026)
(1.0067 -0.450449 0.0146983)
(-0.0404081 -0.621358 0.0321078)
(-0.0343953 -0.609531 0.165456)
(0.0033293 -0.562456 0.0234577)
(-0.0306886 -0.543693 0.243945)
(0.00194854 -0.554292 0.161533)
(0.0361864 -0.512462 0.0166204)
(-0.0276713 -0.497128 0.341331)
(0.000179728 -0.494424 0.23546)
(0.0313551 -0.500051 0.162261)
(0.0613233 -0.467482 0.0103022)
(-0.0308903 -0.444019 0.43754)
(-0.000913389 -0.450973 0.332206)
(0.0274706 -0.444821 0.224985)
(0.0509972 -0.4455 0.159078)
(0.0793278 -0.42098 0.00784876)
(-0.0240167 -0.391174 0.523897)
(-0.00174765 -0.396302 0.435041)
(0.0199667 -0.402769 0.33775)
(0.0373953 -0.40536 0.221248)
(0.0630224 -0.403896 0.164281)
(0.0972902 -0.392389 0.00215673)
(-0.0337205 -0.342814 0.606325)
(-0.0125045 -0.355598 0.505247)
(0.0122598 -0.36779 0.403456)
(0.0329363 -0.375547 0.293869)
(0.0619606 -0.356415 0.200107)
(0.0743874 -0.344017 0.15304)
(0.099996 -0.336224 0.00391767)
(-0.0113602 -0.285297 0.69759)
(0.00640405 -0.293478 0.601505)
(0.0205875 -0.296318 0.508134)
(0.0331371 -0.301463 0.421048)
(0.0579579 -0.312936 0.340644)
(0.116687 -0.356648 0.203803)
(0.133521 -0.349121 0.162072)
(0.171391 -0.350555 0.000560775)
(-0.04587 -0.23774 0.778555)
(-0.0334751 -0.251059 0.679794)
(-0.0196479 -0.269593 0.580986)
(-0.00513412 -0.284341 0.48183)
(0.00603597 -0.289921 0.387493)
(0.0700436 -0.300223 0.277798)
(0.076659 -0.2798 0.148638)
(0.0908414 -0.227193 0.103036)
(0.138758 -0.220683 0.00592893)
(-0.00714215 -0.182309 0.863524)
(0.0123072 -0.193938 0.761006)
(0.0306693 -0.208023 0.654157)
(0.0449636 -0.221111 0.553709)
(0.0534646 -0.228453 0.472508)
(0.0845508 -0.268145 0.3945)
(0.116091 -0.31707 0.302603)
(0.070971 -0.403401 0.226211)
(-0.0462063 -0.607318 0.152411)
(-0.0435673 -0.701743 0.0447257)
(-0.0413939 -0.134844 0.943566)
(-0.0384951 -0.142253 0.844699)
(-0.0325482 -0.147976 0.745687)
(-0.0159553 -0.156362 0.641667)
(0.0335338 -0.182324 0.534209)
(0.123342 -0.265474 0.39739)
(0.208043 -0.259941 0.301879)
(0.256657 -0.257597 0.225478)
(0.467338 -0.171012 0.0579344)
(0.647679 0.00957563 -0.0341777)
(0.663957 0.0859055 0.00538483)
(-0.0250785 -0.0898951 1.02535)
(-0.0145479 -0.105716 0.921811)
(-0.000635325 -0.127886 0.8217)
(0.017213 -0.161394 0.714875)
(0.0400953 -0.197697 0.593163)
(0.0562506 -0.265987 0.456614)
(0.0431936 -0.314713 0.434826)
(0.0387369 -0.448118 0.278057)
(-0.0408865 -0.585934 0.206447)
(-0.220082 -0.738401 0.0618463)
(-0.130151 -0.769364 0.0206762)
(0.127707 -0.626781 0.071453)
(0.0675821 -0.0557895 1.02714)
(0.0888718 -0.0614542 0.922329)
(0.112964 -0.0662364 0.81787)
(0.14227 -0.0763049 0.706524)
(0.182429 -0.0981358 0.595693)
(0.218208 -0.119827 0.426023)
(0.27975 -0.166903 0.296724)
(0.527741 -0.249247 -0.0506291)
(0.558631 -0.287828 0.0062353)
(0.704484 -0.309281 -0.206011)
(0.9052 -0.265653 -0.33737)
(0.955856 -0.418342 -0.229591)
(1.00556 -0.426968 0.0153827)
(-0.0587697 -0.686481 0.0350341)
(-0.0359924 -0.672211 0.175897)
(-0.00392408 -0.622256 0.0324941)
(-0.0323701 -0.599528 0.254903)
(0.00486633 -0.609904 0.166319)
(0.0390771 -0.560389 0.0231336)
(-0.0306418 -0.545433 0.347974)
(0.00305401 -0.544053 0.244383)
(0.0366204 -0.552995 0.161626)
(0.0661805 -0.508152 0.0166766)
(-0.0252616 -0.492975 0.445918)
(0.00330189 -0.498083 0.341609)
(0.0297176 -0.493793 0.235186)
(0.0588252 -0.498174 0.161781)
(0.0903761 -0.46276 0.0105405)
(-0.0311672 -0.436513 0.531903)
(-0.00280239 -0.445513 0.436628)
(0.0264281 -0.450909 0.331742)
(0.0540946 -0.441115 0.225514)
(0.0802138 -0.440534 0.159225)
(0.105681 -0.414201 0.00798734)
(-0.0218828 -0.385629 0.618982)
(0.000407979 -0.390317 0.524917)
(0.023424 -0.395817 0.435018)
(0.0460264 -0.40191 0.337336)
(0.0629782 -0.403122 0.221529)
(0.0912623 -0.400471 0.163979)
(0.123081 -0.386032 0.00227017)
(-0.0328324 -0.331104 0.706838)
(-0.0139461 -0.345469 0.605684)
(0.0111077 -0.355545 0.504063)
(0.0361635 -0.36545 0.402362)
(0.0486836 -0.370505 0.290778)
(0.0848642 -0.351454 0.198657)
(0.0943318 -0.334298 0.152725)
(0.120955 -0.325945 0.00394879)
(-0.0134126 -0.278408 0.79455)
(0.00653664 -0.286459 0.696983)
(0.0237182 -0.293464 0.600929)
(0.0370576 -0.294172 0.508085)
(0.0475327 -0.300029 0.422528)
(0.0909872 -0.353405 0.310514)
(0.136533 -0.346373 0.21042)
(0.158621 -0.344525 0.163656)
(0.19652 -0.346112 0.00118525)
(-0.0397514 -0.226852 0.877147)
(-0.0280992 -0.237945 0.779838)
(-0.0179823 -0.249735 0.680412)
(-0.00365056 -0.264976 0.582755)
(0.0119201 -0.278499 0.483156)
(0.0369616 -0.28565 0.383407)
(0.0926044 -0.297794 0.274489)
(0.0943153 -0.265636 0.142516)
(0.0986532 -0.196841 0.101901)
(0.154653 -0.191088 0.00532164)
(-0.0131604 -0.175175 0.962632)
(0.00541133 -0.184053 0.864168)
(0.0237099 -0.196193 0.760376)
(0.0428541 -0.208261 0.654232)
(0.0578415 -0.222068 0.55291)
(0.0681174 -0.228854 0.473385)
(0.107847 -0.277531 0.384559)
(0.134296 -0.302208 0.322777)
(0.105005 -0.403486 0.245659)
(-0.0231272 -0.635102 0.164348)
(-0.00134681 -0.702121 0.0380347)
(-0.0383046 -0.128655 1.03955)
(-0.0331902 -0.137206 0.941409)
(-0.0272448 -0.142815 0.845053)
(-0.0225527 -0.14734 0.745003)
(-0.0016736 -0.150972 0.640397)
(0.0525803 -0.183249 0.525397)
(0.144148 -0.255608 0.395757)
(0.223315 -0.245825 0.3015)
(0.306374 -0.225229 0.201434)
(0.441759 -0.119286 0.0969766)
(0.638107 0.026083 0.00378006)
(0.625084 0.0816467 0.00344883)
(-0.0272974 -0.0807699 1.12527)
(-0.0190212 -0.09396 1.02248)
(-0.0086336 -0.108113 0.923584)
(0.00692364 -0.129988 0.824176)
(0.0277748 -0.162292 0.718029)
(0.0535131 -0.199158 0.595045)
(0.0703407 -0.263182 0.460597)
(0.0561252 -0.313388 0.438951)
(0.0579425 -0.437629 0.277204)
(-0.0188251 -0.586199 0.200074)
(-0.19131 -0.692367 0.0766433)
(-0.0839247 -0.744123 0.0301066)
(0.170434 -0.608387 0.0796345)
(0.0527346 -0.0504313 1.129)
(0.0702069 -0.0561611 1.02773)
(0.0914444 -0.0613076 0.923751)
(0.115632 -0.065809 0.818738)
(0.145052 -0.0756642 0.707983)
(0.185316 -0.0963345 0.596758)
(0.221699 -0.116385 0.428045)
(0.284681 -0.160762 0.300454)
(0.519327 -0.240054 -0.00286833)
(0.557225 -0.290071 -0.00111546)
(0.705262 -0.299489 -0.193879)
(0.901213 -0.257689 -0.333155)
(0.938556 -0.401116 -0.222153)
(0.998142 -0.411116 0.0153406)
(-0.109747 -0.748938 0.0365682)
(-0.0400307 -0.717335 0.18508)
(-0.0154704 -0.684418 0.0355032)
(-0.0354688 -0.662223 0.267274)
(0.00588354 -0.675259 0.173269)
(0.0364414 -0.620549 0.031324)
(-0.0305744 -0.597026 0.357316)
(0.00621483 -0.596981 0.257482)
(0.0422195 -0.608984 0.167778)
(0.0721357 -0.555988 0.0236532)
(-0.0308612 -0.540345 0.454792)
(0.00325515 -0.545822 0.348026)
(0.0376004 -0.543284 0.244518)
(0.0690698 -0.549281 0.161539)
(0.0980428 -0.502785 0.016865)
(-0.0252908 -0.484613 0.540959)
(0.00400635 -0.493735 0.445934)
(0.0331693 -0.497098 0.342009)
(0.0606785 -0.491007 0.234876)
(0.0921672 -0.493384 0.161082)
(0.118364 -0.455989 0.0107945)
(-0.0308709 -0.429207 0.628609)
(-0.00352422 -0.436609 0.531917)
(0.02451 -0.444943 0.436204)
(0.0527331 -0.447593 0.331907)
(0.0824054 -0.43644 0.225195)
(0.105901 -0.434529 0.159271)
(0.131085 -0.406009 0.00816327)
(-0.0216972 -0.37697 0.717127)
(0.00200325 -0.385185 0.619668)
(0.0253836 -0.389355 0.524869)
(0.0471961 -0.394627 0.434886)
(0.0728567 -0.398981 0.336864)
(0.0907646 -0.398574 0.222429)
(0.117312 -0.395636 0.163651)
(0.147688 -0.377696 0.00235345)
(-0.0327128 -0.324112 0.804471)
(-0.0132264 -0.333678 0.706215)
(0.00957286 -0.343766 0.606183)
(0.0338438 -0.352322 0.504115)
(0.0587029 -0.360722 0.40139)
(0.0759421 -0.356262 0.30592)
(0.107047 -0.342655 0.199346)
(0.11602 -0.322983 0.152244)
(0.140859 -0.31309 0.00396525)
(-0.0162102 -0.266978 0.891737)
(0.0040869 -0.278818 0.79406)
(0.0235173 -0.286333 0.696804)
(0.0404162 -0.290666 0.601293)
(0.0520411 -0.291406 0.508373)
(0.0650277 -0.304925 0.420561)
(0.118518 -0.351694 0.308647)
(0.15645 -0.336864 0.216938)
(0.182303 -0.338489 0.164587)
(0.217412 -0.337393 0.00160465)
(-0.0354861 -0.221922 0.974025)
(-0.0238009 -0.226744 0.87833)
(-0.0130876 -0.238954 0.778421)
(-0.00121135 -0.247612 0.68135)
(0.0156934 -0.262841 0.583012)
(0.0332364 -0.278436 0.48048)
(0.0637469 -0.283149 0.379755)
(0.111743 -0.290668 0.273273)
(0.11123 -0.25106 0.136863)
(0.116778 -0.17195 0.10006)
(0.17398 -0.16786 0.00527009)
(-0.017381 -0.16438 1.06121)
(-0.000903791 -0.176877 0.963412)
(0.0166665 -0.185032 0.864195)
(0.0355573 -0.19603 0.760781)
(0.0537728 -0.206762 0.654734)
(0.0692465 -0.217525 0.554886)
(0.0874634 -0.229497 0.471525)
(0.127565 -0.276939 0.381657)
(0.145379 -0.290682 0.336932)
(0.159269 -0.389133 0.224148)
(0.00535107 -0.632859 0.179145)
(0.0643956 -0.646834 0.0240114)
(-0.0336903 -0.123002 1.13761)
(-0.0299076 -0.129995 1.04062)
(-0.0225286 -0.13866 0.941334)
(-0.0190629 -0.142741 0.844958)
(-0.0104938 -0.144714 0.744809)
(0.011811 -0.152738 0.63539)
(0.0691377 -0.173661 0.52504)
(0.164144 -0.241057 0.393692)
(0.243525 -0.224914 0.302152)
(0.325904 -0.227351 0.191185)
(0.458929 -0.0771238 0.0823307)
(0.569101 -0.0137836 0.0431697)
(0.657291 0.183207 0.000531336)
(-0.0282504 -0.0744621 1.2224)
(-0.022809 -0.0839313 1.12334)
(-0.0139322 -0.096067 1.02287)
(-0.00244951 -0.109674 0.927137)
(0.0154564 -0.130708 0.827297)
(0.0389223 -0.161818 0.722313)
(0.0665739 -0.199211 0.599097)
(0.079579 -0.257364 0.473752)
(0.07707 -0.321583 0.426862)
(0.0746927 -0.423913 0.280857)
(0.0234366 -0.591173 0.184154)
(-0.157052 -0.691151 0.0737423)
(-0.0494563 -0.742823 0.0300176)
(0.153511 -0.567589 0.0938477)
(0.0409018 -0.0447971 1.22785)
(0.0554153 -0.0509733 1.12941)
(0.0727053 -0.0562449 1.02842)
(0.0940766 -0.0610274 0.925109)
(0.11842 -0.0650584 0.819598)
(0.147831 -0.074751 0.709465)
(0.18849 -0.0939387 0.597717)
(0.224467 -0.112466 0.430509)
(0.28925 -0.153726 0.304326)
(0.528286 -0.230986 0.00410737)
(0.575468 -0.289705 -0.0227699)
(0.710791 -0.284288 -0.184925)
(0.89836 -0.24109 -0.324228)
(0.936083 -0.38714 -0.21936)
(0.99357 -0.39243 0.015081)
(-0.401432 -0.847603 0.044594)
(-0.15127 -0.771886 0.211476)
(-0.0599157 -0.743007 0.0341843)
(-0.0389958 -0.70955 0.276993)
(0.00627112 -0.727617 0.177564)
(0.0264628 -0.686533 0.0327858)
(-0.0332481 -0.65189 0.368012)
(0.00738606 -0.656364 0.274393)
(0.0460597 -0.672698 0.177711)
(0.0731187 -0.616785 0.0319254)
(-0.0294426 -0.590844 0.464075)
(0.00738779 -0.596509 0.357252)
(0.0431868 -0.598313 0.255643)
(0.0792314 -0.604618 0.166828)
(0.106213 -0.550725 0.0241153)
(-0.0302223 -0.530678 0.551142)
(0.00385485 -0.540467 0.454939)
(0.0380167 -0.544577 0.348233)
(0.0682511 -0.53915 0.245035)
(0.103785 -0.543973 0.160958)
(0.127929 -0.495045 0.0167953)
(-0.0257693 -0.477492 0.636862)
(0.0045759 -0.485357 0.540764)
(0.0345747 -0.492302 0.446392)
(0.0634463 -0.493959 0.341803)
(0.0896763 -0.486854 0.234839)
(0.121601 -0.487615 0.160754)
(0.14717 -0.44734 0.010612)
(-0.0305834 -0.420564 0.72748)
(-0.00256422 -0.429317 0.628801)
(0.0245651 -0.436074 0.531444)
(0.0518635 -0.441966 0.436396)
(0.0810016 -0.443081 0.331973)
(0.108742 -0.430472 0.224834)
(0.134651 -0.426504 0.159004)
(0.156331 -0.39591 0.00839101)
(-0.022258 -0.370822 0.814651)
(0.00244127 -0.376987 0.71765)
(0.0257477 -0.383785 0.619925)
(0.0482197 -0.387843 0.524583)
(0.0718446 -0.390747 0.434994)
(0.0976225 -0.39712 0.333716)
(0.115641 -0.392548 0.223082)
(0.144848 -0.387807 0.163399)
(0.172124 -0.367644 0.00247825)
(-0.0315543 -0.309507 0.901591)
(-0.0112842 -0.326424 0.803744)
(0.0084891 -0.331738 0.707144)
(0.0312689 -0.340544 0.606638)
(0.0574531 -0.347685 0.504263)
(0.083536 -0.352972 0.403362)
(0.101566 -0.347994 0.308726)
(0.128516 -0.332145 0.200214)
(0.135842 -0.311532 0.151674)
(0.160648 -0.298958 0.00369564)
(-0.019368 -0.266599 0.987498)
(0.0010347 -0.267276 0.891432)
(0.0207424 -0.278645 0.794294)
(0.040241 -0.283989 0.697366)
(0.0565827 -0.28716 0.601776)
(0.0689543 -0.290023 0.506834)
(0.0847925 -0.301846 0.422491)
(0.144499 -0.344802 0.309028)
(0.176524 -0.327921 0.221278)
(0.203449 -0.329947 0.165288)
(0.237471 -0.325077 0.00179186)
(-0.0322222 -0.208306 1.07176)
(-0.0213971 -0.221906 0.975509)
(-0.00988303 -0.227188 0.87795)
(0.00179671 -0.237367 0.779106)
(0.0151784 -0.246213 0.681377)
(0.0338043 -0.262965 0.581204)
(0.0529646 -0.278422 0.476766)
(0.092752 -0.27799 0.376875)
(0.130078 -0.278324 0.273339)
(0.128162 -0.235031 0.134566)
(0.127135 -0.149286 0.099069)
(0.191899 -0.15103 0.00424767)
(-0.0201001 -0.158294 1.1568)
(-0.00569563 -0.166186 1.06136)
(0.010251 -0.177286 0.96402)
(0.0287269 -0.184485 0.864499)
(0.0469058 -0.193772 0.761816)
(0.0647051 -0.201284 0.656792)
(0.0828798 -0.214676 0.555588)
(0.10509 -0.227996 0.470406)
(0.140773 -0.266773 0.385695)
(0.161251 -0.271523 0.34943)
(0.180523 -0.368656 0.245531)
(0.0905145 -0.570166 0.163534)
(0.0587871 -0.684272 0.0207143)
(-0.0308727 -0.116797 1.23525)
(-0.0271255 -0.123516 1.1389)
(-0.0186559 -0.131613 1.04066)
(-0.0149295 -0.138584 0.942661)
(-0.00733914 -0.141011 0.845763)
(-0.000765039 -0.145096 0.743803)
(0.0281678 -0.144224 0.634861)
(0.0835701 -0.156697 0.52605)
(0.174096 -0.217607 0.398319)
(0.243564 -0.200374 0.323653)
(0.339768 -0.182294 0.211969)
(0.443871 -0.0850621 0.0976562)
(0.592442 0.0787742 0.0165127)
(0.569827 0.0889445 0.00346312)
(-0.0281453 -0.0676499 1.316)
(-0.0240915 -0.076759 1.2211)
(-0.0166842 -0.0869452 1.12312)
(-0.00785201 -0.0976642 1.02734)
(0.00475861 -0.110574 0.930948)
(0.0239022 -0.130146 0.831663)
(0.0497607 -0.160803 0.727735)
(0.0805598 -0.193792 0.604816)
(0.0879175 -0.230197 0.489105)
(0.095826 -0.322142 0.419447)
(0.0912997 -0.406275 0.286237)
(0.0355064 -0.588175 0.179409)
(-0.105811 -0.709997 0.055787)
(-0.0221273 -0.742053 0.0323377)
(0.2026 -0.515003 0.0902451)
(0.0305275 -0.0405107 1.32432)
(0.0434129 -0.0453715 1.2282)
(0.0577761 -0.0512215 1.12987)
(0.0752648 -0.056088 1.02916)
(0.0966725 -0.0603967 0.926543)
(0.120902 -0.0641754 0.820533)
(0.151025 -0.0734764 0.710781)
(0.191178 -0.0910345 0.598848)
(0.227422 -0.107831 0.432757)
(0.294209 -0.147783 0.306744)
(0.542111 -0.230317 -0.0196622)
(0.578683 -0.286525 -0.0153444)
(0.70756 -0.274979 -0.171001)
(0.897442 -0.224745 -0.319272)
(0.930595 -0.375564 -0.217791)
(0.991163 -0.385252 0.0139469)
(-0.888111 -0.939964 0.0316999)
(-0.773874 -0.851463 0.232445)
(-0.362132 -0.854825 0.0317895)
(-0.176751 -0.765884 0.294189)
(-0.0986669 -0.802792 0.202133)
(-0.0154118 -0.752904 0.0297415)
(-0.0352718 -0.689828 0.377057)
(0.00754144 -0.700922 0.290864)
(0.0486395 -0.722288 0.185094)
(0.068263 -0.681491 0.0340959)
(-0.0331477 -0.642907 0.474189)
(0.0084632 -0.652501 0.366903)
(0.0488694 -0.658471 0.268843)
(0.0880089 -0.668264 0.175943)
(0.110375 -0.611437 0.0325171)
(-0.0289198 -0.580223 0.561303)
(0.00767009 -0.590316 0.464239)
(0.0437216 -0.595857 0.357705)
(0.0775113 -0.593298 0.255952)
(0.115438 -0.599938 0.165499)
(0.139127 -0.54156 0.0236428)
(-0.0301009 -0.523002 0.645932)
(0.00365156 -0.531346 0.550996)
(0.0371599 -0.53961 0.454747)
(0.0693578 -0.540863 0.348239)
(0.103175 -0.533535 0.244785)
(0.135715 -0.536301 0.161188)
(0.159057 -0.485819 0.016749)
(-0.0260096 -0.468526 0.736418)
(0.00346814 -0.477398 0.637036)
(0.0339306 -0.48393 0.540948)
(0.0640991 -0.488843 0.446534)
(0.0937346 -0.489154 0.341886)
(0.120894 -0.479812 0.23542)
(0.151904 -0.478979 0.160906)
(0.174556 -0.437107 0.010806)
(-0.0300382 -0.417053 0.824082)
(-0.00163459 -0.420894 0.727695)
(0.0233522 -0.428615 0.628756)
(0.0504736 -0.433986 0.531367)
(0.0797168 -0.438285 0.435979)
(0.107793 -0.436777 0.332337)
(0.13613 -0.422783 0.224502)
(0.159916 -0.41701 0.159075)
(0.180541 -0.38403 0.00837401)
(-0.0225644 -0.352532 0.911235)
(0.000881293 -0.37124 0.815007)
(0.0248838 -0.375596 0.718071)
(0.049355 -0.381565 0.619575)
(0.0720185 -0.383402 0.52483)
(0.0960663 -0.386392 0.434058)
(0.121981 -0.392654 0.332661)
(0.142787 -0.383852 0.223716)
(0.169861 -0.378898 0.163224)
(0.195103 -0.356261 0.00216194)
(-0.031111 -0.315016 0.996932)
(-0.0108349 -0.310654 0.901312)
(0.00907246 -0.325152 0.804432)
(0.0298097 -0.329427 0.707594)
(0.0538237 -0.337465 0.606525)
(0.0803449 -0.342614 0.503996)
(0.106193 -0.346863 0.402484)
(0.127075 -0.339723 0.309238)
(0.148276 -0.321104 0.200586)
(0.155537 -0.297768 0.151476)
(0.179819 -0.284557 0.00348569)
(-0.0205137 -0.247939 1.08509)
(-0.00203993 -0.266951 0.987447)
(0.0172339 -0.266803 0.891662)
(0.0374524 -0.276631 0.794929)
(0.0567785 -0.280453 0.6979)
(0.0734876 -0.283604 0.601222)
(0.0873987 -0.286693 0.50653)
(0.102435 -0.295803 0.425924)
(0.168157 -0.334461 0.310874)
(0.196286 -0.316942 0.224941)
(0.223933 -0.318254 0.16606)
(0.256153 -0.311204 0.00192377)
(-0.0309103 -0.204443 1.16464)
(-0.0191322 -0.208839 1.07249)
(-0.00632098 -0.222133 0.975703)
(0.0062839 -0.226544 0.877904)
(0.0177015 -0.235102 0.780481)
(0.0323014 -0.244373 0.681417)
(0.052628 -0.260794 0.579652)
(0.0747042 -0.275861 0.473452)
(0.115671 -0.266756 0.37705)
(0.145592 -0.26615 0.273172)
(0.143451 -0.219412 0.133886)
(0.13571 -0.127358 0.0976216)
(0.202614 -0.129403 0.00303416)
(-0.0215775 -0.15304 1.25088)
(-0.00942083 -0.16026 1.15565)
(0.00470431 -0.166581 1.062)
(0.0220486 -0.176149 0.964324)
(0.0397156 -0.182351 0.865251)
(0.0577219 -0.188746 0.763606)
(0.0758709 -0.197368 0.658188)
(0.0948614 -0.211703 0.556357)
(0.122051 -0.221716 0.471166)
(0.152887 -0.253568 0.390819)
(0.18772 -0.271032 0.342826)
(0.220014 -0.340832 0.24211)
(0.122103 -0.55131 0.182952)
(0.118714 -0.608303 0.0155165)
(-0.0298611 -0.107657 1.32784)
(-0.0233897 -0.117784 1.23413)
(-0.0164314 -0.124871 1.13927)
(-0.0116752 -0.131816 1.04162)
(-0.00326007 -0.136845 0.944736)
(-0.000660731 -0.140136 0.847692)
(0.0143006 -0.140008 0.744116)
(0.0362586 -0.134556 0.633096)
(0.107938 -0.172239 0.505046)
(0.186952 -0.19778 0.401118)
(0.261146 -0.180901 0.317236)
(0.340214 -0.145817 0.227724)
(0.444934 -0.0294306 0.108091)
(0.568827 0.0873698 0.0300646)
(0.584644 0.172278 -0.00227308)
(-0.0291346 -0.0643467 1.4059)
(-0.0247382 -0.0695039 1.3147)
(-0.0182243 -0.0793914 1.22099)
(-0.0109 -0.0889612 1.12366)
(-0.00168757 -0.0987444 1.03134)