/*--------------------------------*- C++ -*----------------------------------*\
  =========                 |
  \\      /  F ield         | OpenFOAM: The Open Source CFD Toolbox
   \\    /   O peration     | Website:  https://openfoam.org
    \\  /    A nd           | Version:  7
     \\/     M anipulation  |
\*---------------------------------------------------------------------------*/
FoamFile
{
    version     2.0;
    format      ascii;
    class       volVectorField;
    location    "0.5";
    object      U_0;
}
// * * * * * * * * * * * * * * * * * * * * * * * * * * * * * * * * * * * * * //

dimensions      [0 1 -1 0 0 0 0];

internalField   nonuniform List<vector> 
18750
(
(1.07981 -0.584616 -0.00203494)
(-0.283985 -0.809584 0.0408596)
(1.0087 -0.504216 -0.273841)
(1.06801 -0.564438 -0.00250796)
(0.630625 -0.094691 0.0271241)
(-0.434878 -0.684605 0.0368719)
(-0.237397 -0.819465 0.0420851)
(0.95525 -0.381667 -0.44187)
(1.02062 -0.492509 -0.26282)
(1.0623 -0.552431 0.00048991)
(-0.207579 -0.374907 0.0559609)
(0.603144 -0.184221 -0.0295073)
(0.657837 -0.0144199 0.0206743)
(-0.462669 -0.602032 0.112446)
(-0.387448 -0.707616 0.0281925)
(-0.203872 -0.824698 0.0411383)
(0.662287 -0.384654 -0.349313)
(0.938979 -0.374589 -0.429838)
(1.00877 -0.461333 -0.24329)
(1.03964 -0.523637 0.00858462)
(-0.0368703 -0.334751 0.0388414)
(-0.274418 -0.357842 0.154381)
(-0.203538 -0.414701 0.0454685)
(0.23174 -0.390045 -0.0397937)
(0.599891 -0.129838 -0.0250786)
(0.654388 0.0131107 0.0195312)
(-0.175497 -0.557485 0.21093)
(-0.456446 -0.607269 0.120276)
(-0.380723 -0.707316 0.0303204)
(-0.150946 -0.83561 0.0381902)
(0.546707 -0.323714 -0.0925309)
(0.672027 -0.383338 -0.329276)
(0.924925 -0.364275 -0.409972)
(0.993629 -0.457788 -0.237195)
(1.04834 -0.520312 0.00890298)
(-0.018939 -0.358601 0.00238178)
(-0.0255344 -0.317831 0.12426)
(-0.0107757 -0.339459 0.0333551)
(-0.0971541 -0.316347 0.20717)
(-0.277086 -0.38807 0.162466)
(-0.207426 -0.446966 0.0330423)
(0.028543 -0.350619 0.256313)
(0.26976 -0.364834 -0.0176517)
(0.609229 -0.133088 -0.0423259)
(0.676421 0.0879476 0.0163462)
(-0.0620866 -0.445099 0.239405)
(-0.174769 -0.555937 0.239806)
(-0.386755 -0.656546 0.0947228)
(-0.347701 -0.722829 0.0286339)
(-0.116056 -0.827613 0.0395855)
(0.486806 -0.264112 -0.125356)
(0.541323 -0.316742 -0.0536886)
(0.676995 -0.378621 -0.306188)
(0.931796 -0.352508 -0.387151)
(0.987224 -0.441424 -0.225128)
(1.05425 -0.522348 0.00993712)
(-0.0361422 -0.359091 0.00218659)
(-0.0196231 -0.345522 0.165391)
(0.00914632 -0.365808 -0.000315957)
(-0.0309137 -0.342198 0.1629)
(-0.00754313 -0.324429 0.123163)
(0.0135354 -0.339595 0.0314393)
(-0.0110271 -0.283953 0.292405)
(-0.0826954 -0.336299 0.213057)
(-0.263105 -0.41891 0.171996)
(-0.202993 -0.479316 0.0329)
(0.0384379 -0.324257 0.354128)
(0.0828178 -0.358064 0.23093)
(0.293557 -0.304756 0.0263525)
(0.630672 -0.138602 -0.0445494)
(0.681409 0.096309 0.0137936)
(-0.0165158 -0.279326 0.39293)
(-0.0496156 -0.452055 0.25098)
(-0.168899 -0.55243 0.26282)
(-0.402103 -0.665315 0.103287)
(-0.309939 -0.742702 0.0249746)
(-0.0762275 -0.799591 0.0442267)
(0.239623 -0.182393 0.286388)
(0.489921 -0.263066 -0.11191)
(0.547317 -0.313328 -0.0413177)
(0.675147 -0.367875 -0.271831)
(0.927474 -0.336623 -0.376743)
(0.980094 -0.448668 -0.229584)
(1.03453 -0.501535 0.0127125)
(-0.0324611 -0.392786 0.0026856)
(-0.0464463 -0.349688 0.15485)
(-0.0112957 -0.364069 0.00297456)
(-0.0176894 -0.369188 0.190308)
(0.00411364 -0.351213 0.165952)
(0.0355125 -0.367424 -0.00189098)
(-0.0760231 -0.296843 0.306997)
(-0.00951021 -0.34597 0.161181)
(0.0115857 -0.323967 0.119473)
(0.0390397 -0.331917 0.0254438)
(-0.00162601 -0.246785 0.379946)
(0.00670308 -0.287162 0.300807)
(-0.0641761 -0.348885 0.220797)
(-0.267969 -0.435248 0.17596)
(-0.190657 -0.516633 0.0450324)
(0.00814802 -0.285758 0.442162)
(0.0745189 -0.319989 0.337326)
(0.131733 -0.362298 0.201175)
(0.354429 -0.238972 0.0603589)
(0.633903 -0.0899598 -0.0118154)
(0.645111 0.16035 0.0100196)
(-0.0019035 -0.237755 0.450084)
(-0.0091474 -0.285823 0.412588)
(-0.03456 -0.459507 0.255949)
(-0.14921 -0.5603 0.259692)
(-0.375241 -0.680058 0.10297)
(-0.26912 -0.755201 0.0235894)
(-0.0150806 -0.79572 0.0445852)
(0.199294 -0.126938 0.418741)
(0.247349 -0.182896 0.285889)
(0.487313 -0.264427 -0.110177)
(0.551098 -0.31176 -0.0402007)
(0.682326 -0.352767 -0.241259)
(0.93564 -0.320916 -0.36768)
(0.957122 -0.434579 -0.224413)
(1.03115 -0.474824 0.0143781)
(-0.0254257 -0.428886 0.00734572)
(-0.0424696 -0.395399 0.164007)
(-0.00946852 -0.398125 0.00121586)
(-0.0404667 -0.357951 0.20576)
(-0.0217171 -0.35455 0.155004)
(0.013731 -0.365139 0.00296592)
(-0.0271385 -0.319702 0.328674)
(0.0112037 -0.37495 0.189393)
(0.0288808 -0.353703 0.166343)
(0.0625156 -0.366974 -0.0027926)
(-0.0755271 -0.294697 0.393366)
(-0.0421235 -0.306453 0.301928)
(0.0138779 -0.33821 0.15661)
(0.0281322 -0.311523 0.118294)
(0.0626958 -0.32262 0.0195899)
(-0.00667173 -0.230245 0.455328)
(0.0141611 -0.255605 0.379957)
(0.0269459 -0.283493 0.315313)
(-0.049314 -0.353384 0.240015)
(-0.221161 -0.480279 0.137767)
(-0.192647 -0.5499 0.0504814)
(-0.033591 -0.20538 0.550314)
(0.0294948 -0.282055 0.437158)
(0.100966 -0.320055 0.316066)
(0.166004 -0.357559 0.182569)
(0.346538 -0.219934 0.0805608)
(0.627092 -0.0660528 -0.0106761)
(0.674488 0.135164 -0.00629589)
(-0.00304067 -0.178142 0.584395)
(0.00870779 -0.245668 0.454235)
(0.00012763 -0.292243 0.428781)
(-0.0331558 -0.460584 0.269724)
(-0.133358 -0.569904 0.249267)
(-0.321246 -0.703475 0.0927216)
(-0.246096 -0.764334 0.0253478)
(0.0279683 -0.803026 0.0446329)
(0.170295 -0.100777 0.591237)
(0.203295 -0.126637 0.419389)
(0.253898 -0.181934 0.287713)
(0.499618 -0.263787 -0.0995615)
(0.550363 -0.306983 -0.0250711)
(0.690866 -0.342695 -0.230156)
(0.914768 -0.300817 -0.34263)
(0.966901 -0.436508 -0.230315)
(1.01863 -0.455463 0.0160996)
(-0.0266568 -0.470043 0.0111695)
(-0.0290585 -0.446116 0.15981)
(0.00106072 -0.431704 0.00759205)
(-0.0395896 -0.398294 0.222766)
(-0.0159938 -0.400758 0.165297)
(0.0185073 -0.398807 0.00129733)
(-0.034204 -0.371193 0.307852)
(-0.0118886 -0.362687 0.203319)
(0.00478819 -0.356536 0.154738)
(0.0361722 -0.361622 0.00290891)
(-0.0198642 -0.30018 0.419652)
(-0.00687306 -0.317678 0.333102)
(0.0398058 -0.376985 0.189809)
(0.0532212 -0.35236 0.166512)
(0.0891177 -0.363664 -0.00221279)
(-0.0593476 -0.288717 0.484583)
(-0.0519748 -0.302853 0.389012)
(-0.0262674 -0.308682 0.295262)
(0.0286471 -0.321418 0.153205)
(0.0455383 -0.301287 0.117606)
(0.0891761 -0.308819 0.0158403)
(0.00589543 -0.211756 0.555382)
(0.00966337 -0.232992 0.457508)
(0.0319915 -0.263471 0.376656)
(0.0423033 -0.297481 0.323488)
(-0.032889 -0.362997 0.24773)
(-0.210714 -0.521545 0.120455)
(-0.170684 -0.58237 0.0498822)
(-0.0527249 -0.163957 0.645505)
(-0.0140025 -0.201698 0.545402)
(0.052026 -0.286695 0.429144)
(0.137331 -0.31387 0.302252)
(0.200706 -0.32083 0.21235)
(0.375163 -0.163028 0.119792)
(0.656599 -0.0583276 -0.0124149)
(0.704766 0.0918059 0.00271174)
(-0.010181 -0.149623 0.707613)
(0.00635685 -0.18504 0.586691)
(0.0192386 -0.253316 0.457288)
(0.0046993 -0.298177 0.445667)
(-0.0104252 -0.458787 0.279037)
(-0.10851 -0.588868 0.229985)
(-0.29722 -0.722036 0.0835745)
(-0.209721 -0.76253 0.0311409)
(0.0711582 -0.776413 0.0464414)
(0.133758 -0.0763121 0.702457)
(0.173159 -0.100725 0.59217)
(0.207098 -0.125866 0.420557)
(0.261141 -0.17972 0.289015)
(0.50802 -0.261332 -0.086156)
(0.551395 -0.301638 -0.0143303)
(0.690329 -0.332556 -0.210374)
(0.917757 -0.283616 -0.340061)
(0.969454 -0.43805 -0.231983)
(1.01413 -0.454466 0.0169253)
(-0.026789 -0.5125 0.016716)
(-0.0322935 -0.500125 0.159286)
(0.00354357 -0.47194 0.0106009)
(-0.0282448 -0.443371 0.223974)
(-0.00228317 -0.448714 0.159311)
(0.027449 -0.429546 0.00838064)
(-0.0321624 -0.401104 0.33652)
(-0.0143531 -0.402734 0.2222)
(0.00933016 -0.403867 0.165593)
(0.0439558 -0.398493 0.00186849)
(-0.0338439 -0.364054 0.409425)
(-0.0109849 -0.375682 0.301042)
(0.0145117 -0.364451 0.201653)
(0.028534 -0.353376 0.153966)
(0.0581197 -0.353979 0.00351426)
(-0.0155984 -0.294761 0.50729)
(-0.000931878 -0.300527 0.42135)
(0.0153692 -0.313724 0.336644)
(0.0663005 -0.371867 0.192674)
(0.0793695 -0.351955 0.165749)
(0.117391 -0.359471 0.00030387)
(-0.0547984 -0.271087 0.580352)
(-0.039615 -0.294576 0.480627)
(-0.0328411 -0.302263 0.389619)
(0.0186925 -0.306496 0.289099)
(0.0447115 -0.30534 0.151913)
(0.067016 -0.288853 0.113017)
(0.108785 -0.288387 0.0110784)
(0.00630004 -0.19963 0.656303)
(0.0199477 -0.217544 0.553098)
(0.0209123 -0.21547 0.474601)
(0.0458182 -0.256045 0.391077)
(0.0694746 -0.307514 0.317447)
(0.0154829 -0.382679 0.213878)
(-0.157141 -0.527858 0.125162)
(-0.149765 -0.611016 0.0351044)
(-0.0528237 -0.148619 0.746399)
(-0.043408 -0.162999 0.643644)
(-0.000116832 -0.197777 0.542246)
(0.0769836 -0.273503 0.418935)
(0.165837 -0.29478 0.302573)
(0.207084 -0.298818 0.235105)
(0.421387 -0.204705 0.0443355)
(0.677745 -0.0409428 -0.0169904)
(0.692909 0.117944 -0.00376141)
(-0.0151084 -0.120939 0.81777)
(-0.00176858 -0.154642 0.70945)
(0.0169502 -0.190495 0.58914)
(0.0298807 -0.256359 0.46374)
(0.0200915 -0.309548 0.44089)
(0.00198209 -0.454879 0.283027)
(-0.0840345 -0.599759 0.212026)
(-0.251104 -0.754433 0.0627157)
(-0.1847 -0.765385 0.0340901)
(0.0774983 -0.723541 0.0543621)
(0.107625 -0.0663594 0.815774)
(0.136823 -0.0764897 0.703192)
(0.176178 -0.100281 0.593184)
(0.210746 -0.124436 0.42207)
(0.26747 -0.176485 0.291225)
(0.502457 -0.257026 -0.0537204)
(0.55603 -0.29867 -0.0130664)
(0.695545 -0.31994 -0.204595)
(0.922451 -0.281487 -0.34563)
(0.956938 -0.426395 -0.226928)
(1.02295 -0.45791 0.016671)
(-0.0302581 -0.560446 0.0235544)
(-0.0316622 -0.553175 0.160403)
(0.0034515 -0.514272 0.0161605)
(-0.0309928 -0.492771 0.234245)
(-0.0051444 -0.50123 0.160743)
(0.0323187 -0.47063 0.00980626)
(-0.030858 -0.449281 0.332721)
(-0.000127289 -0.445611 0.223552)
(0.0251677 -0.448465 0.158724)
(0.0535559 -0.425733 0.00819452)
(-0.0273371 -0.396259 0.433835)
(-0.00673907 -0.402765 0.337031)
(0.010072 -0.405097 0.221825)
(0.0366837 -0.404808 0.164652)
(0.0715479 -0.396046 0.00212185)
(-0.0347239 -0.352121 0.506945)
(-0.0113006 -0.367537 0.405384)
(0.0115062 -0.377086 0.296664)
(0.0392532 -0.360463 0.201089)
(0.0517554 -0.34939 0.153273)
(0.0792578 -0.345682 0.0039893)
(-0.0125735 -0.291865 0.601351)
(0.00323535 -0.295909 0.508158)
(0.0169888 -0.301784 0.421052)
(0.034857 -0.310234 0.338919)
(0.0947697 -0.365874 0.195583)
(0.105983 -0.352241 0.163583)
(0.144645 -0.35607 0.00157471)
(-0.0520003 -0.251162 0.678186)
(-0.0387847 -0.273344 0.57909)
(-0.0222845 -0.293083 0.479259)
(-0.00828333 -0.294539 0.390898)
(0.0393631 -0.296202 0.286463)
(0.058854 -0.29131 0.151574)
(0.0784282 -0.266085 0.10906)
(0.126479 -0.261155 0.00997781)
(-0.000517449 -0.191066 0.760858)
(0.0197455 -0.204344 0.654929)
(0.0324849 -0.218198 0.554428)
(0.0389672 -0.224021 0.471621)
(0.0620066 -0.242593 0.413288)
(0.0981948 -0.329078 0.288271)
(0.0252058 -0.398832 0.217186)
(-0.177961 -0.601005 0.164996)
(-0.110822 -0.694265 0.0402098)
(-0.0457683 -0.140405 0.84651)
(-0.0449084 -0.149577 0.744621)
(-0.027371 -0.159105 0.643199)
(0.0175687 -0.189645 0.53875)
(0.100153 -0.265812 0.408066)
(0.186891 -0.273842 0.307001)
(0.254221 -0.266488 0.224233)
(0.455263 -0.201831 0.0412406)
(0.601795 -0.051396 -0.00593515)
(0.697292 0.102588 -0.00225672)
(-0.0205937 -0.102333 0.921547)
(-0.00791161 -0.124752 0.819435)
(0.00746796 -0.158456 0.712188)
(0.0280881 -0.195113 0.590904)
(0.0427312 -0.261365 0.461718)
(0.0336343 -0.316871 0.428433)
(0.0164144 -0.450099 0.286919)
(-0.0721335 -0.595073 0.211779)
(-0.214188 -0.771743 0.0453263)
(-0.132203 -0.782557 0.0230893)
(0.0871366 -0.6651 0.0669868)
(0.0859097 -0.0612009 0.920212)
(0.110463 -0.0664021 0.816467)
(0.138941 -0.0764218 0.704529)
(0.179028 -0.0993621 0.594268)
(0.214553 -0.122359 0.423671)
(0.273351 -0.172342 0.293861)
(0.516372 -0.254695 -0.0634175)
(0.555959 -0.294848 -0.00358386)
(0.704041 -0.31642 -0.211527)
(0.897531 -0.258977 -0.325177)
(0.951003 -0.413634 -0.226188)
(1.01437 -0.452058 0.0155095)
(-0.0402522 -0.620679 0.0319791)
(-0.034382 -0.608995 0.16522)
(0.00334466 -0.562041 0.0233396)
(-0.0307012 -0.543363 0.243661)
(0.00189216 -0.553898 0.161399)
(0.0361413 -0.512186 0.0165622)
(-0.027697 -0.49686 0.341082)
(0.00015397 -0.494146 0.235232)
(0.0312897 -0.499697 0.162149)
(0.061255 -0.467257 0.0102889)
(-0.0309317 -0.443789 0.437278)
(-0.000987026 -0.450708 0.332024)
(0.0273974 -0.444591 0.224817)
(0.0509307 -0.445203 0.158999)
(0.0792534 -0.420798 0.00784857)
(-0.0240369 -0.391064 0.523591)
(-0.00177631 -0.39616 0.434766)
(0.0199368 -0.402595 0.337535)
(0.0373635 -0.405183 0.221114)
(0.0629461 -0.403668 0.164186)
(0.0971898 -0.392236 0.00219905)
(-0.033731 -0.342646 0.606072)
(-0.0125376 -0.355416 0.50503)
(0.0122364 -0.367577 0.403277)
(0.0328997 -0.375311 0.293723)
(0.0619201 -0.356245 0.199996)
(0.0743275 -0.343774 0.152951)
(0.0999216 -0.336033 0.00395503)
(-0.0114387 -0.285265 0.697287)
(0.00632914 -0.29344 0.601223)
(0.0204949 -0.296289 0.507892)
(0.0330067 -0.301389 0.42088)
(0.0577898 -0.312857 0.340471)
(0.116537 -0.356505 0.203726)
(0.133406 -0.34896 0.162008)
(0.171245 -0.350455 0.00060755)
(-0.0457932 -0.23766 0.778247)
(-0.0334254 -0.250958 0.679503)
(-0.019644 -0.269449 0.580727)
(-0.00514531 -0.284212 0.481593)
(0.00611198 -0.2898 0.387382)
(0.0699025 -0.300058 0.277845)
(0.0763918 -0.279482 0.14867)
(0.0899805 -0.226905 0.102972)
(0.137864 -0.220651 0.00584662)
(-0.00723715 -0.18229 0.86322)
(0.0121895 -0.193888 0.760735)
(0.030577 -0.207993 0.653897)
(0.0449513 -0.221114 0.553425)
(0.0535241 -0.228531 0.472072)
(0.0845517 -0.267761 0.394452)
(0.115992 -0.317099 0.302562)
(0.072025 -0.402652 0.226535)
(-0.0429983 -0.605391 0.152347)
(-0.04142 -0.699493 0.0444889)
(-0.0413263 -0.134864 0.943186)
(-0.0384513 -0.142287 0.844391)
(-0.0325684 -0.148035 0.745297)
(-0.016162 -0.156364 0.641408)
(0.0330586 -0.182227 0.534083)
(0.12286 -0.265483 0.397247)
(0.207303 -0.260311 0.301978)
(0.256147 -0.25787 0.225431)
(0.465796 -0.171212 0.0592194)
(0.646798 0.00691458 -0.032824)
(0.666349 0.0902324 0.00512902)
(-0.0250631 -0.0898104 1.02502)
(-0.0145424 -0.105608 0.921428)
(-0.000650586 -0.127703 0.821411)
(0.0171998 -0.161142 0.714634)
(0.0401412 -0.197486 0.59295)
(0.0564675 -0.26614 0.45593)
(0.0431434 -0.314609 0.433836)
(0.0383565 -0.448852 0.277646)
(-0.0395502 -0.586739 0.204987)
(-0.224667 -0.735594 0.0633158)
(-0.133578 -0.771577 0.0203043)
(0.127443 -0.630149 0.0713633)
(0.067335 -0.0557463 1.02671)
(0.0885945 -0.0614329 0.921803)
(0.112702 -0.0662121 0.817333)
(0.142034 -0.0761888 0.705867)
(0.182168 -0.0979767 0.595253)
(0.218007 -0.119719 0.425618)
(0.279436 -0.166948 0.296542)
(0.527393 -0.248997 -0.0508999)
(0.562661 -0.287672 0.00235915)
(0.705688 -0.308848 -0.206668)
(0.896501 -0.252568 -0.325843)
(0.958134 -0.407728 -0.227854)
(1.00799 -0.430972 0.015883)
(-0.0584619 -0.685816 0.0349756)
(-0.0359757 -0.67159 0.175584)
(-0.00383013 -0.621608 0.0323492)
(-0.0323657 -0.599062 0.254543)
(0.0048251 -0.609357 0.166114)
(0.0390672 -0.559979 0.0230267)
(-0.0306526 -0.545135 0.347675)
(0.00300661 -0.543746 0.244089)
(0.0365692 -0.552594 0.161487)
(0.0661281 -0.507885 0.0166177)
(-0.0252923 -0.492734 0.445597)
(0.00327195 -0.497812 0.341354)
(0.0296796 -0.493518 0.234959)
(0.0587656 -0.497819 0.161672)
(0.0902916 -0.462537 0.0105253)
(-0.0311934 -0.436327 0.531595)
(-0.00284972 -0.445276 0.436372)
(0.0263613 -0.450643 0.331559)
(0.054013 -0.440895 0.225346)
(0.0801139 -0.440245 0.159146)
(0.105598 -0.414029 0.00798487)
(-0.0219182 -0.385522 0.618659)
(0.000374667 -0.390219 0.524602)
(0.0233916 -0.395676 0.434734)
(0.0459807 -0.401738 0.337116)
(0.0629288 -0.402942 0.221394)
(0.0911742 -0.400243 0.163887)
(0.122963 -0.385884 0.00231214)
(-0.0328347 -0.330995 0.706547)
(-0.0139557 -0.345304 0.605429)
(0.0110726 -0.35535 0.503859)
(0.0361193 -0.365227 0.402197)
(0.0486839 -0.370232 0.290698)
(0.0848125 -0.351284 0.198565)
(0.0942669 -0.334065 0.152636)
(0.120883 -0.325775 0.00398324)
(-0.0134883 -0.278345 0.794223)
(0.00646114 -0.286419 0.696676)
(0.0236368 -0.293426 0.600645)
(0.0369552 -0.294126 0.507852)
(0.0474063 -0.299958 0.422344)
(0.0908123 -0.353141 0.310459)
(0.136348 -0.346238 0.210341)
(0.158427 -0.34436 0.163599)
(0.196343 -0.346012 0.00123305)
(-0.0396733 -0.226836 0.876801)
(-0.0280361 -0.237874 0.779518)
(-0.0179708 -0.249641 0.680135)
(-0.00362274 -0.264889 0.582467)
(0.0119391 -0.278416 0.482913)
(0.0368297 -0.285578 0.383283)
(0.0924748 -0.297647 0.274531)
(0.094121 -0.265494 0.142552)
(0.0979596 -0.196845 0.101824)
(0.154057 -0.19139 0.00527344)
(-0.0132259 -0.175133 0.962307)
(0.00531102 -0.184027 0.863868)
(0.023599 -0.196133 0.760108)
(0.0427684 -0.208222 0.65397)
(0.0578178 -0.222047 0.552614)
(0.0681275 -0.228816 0.47303)
(0.107749 -0.277284 0.384439)
(0.13422 -0.302241 0.322597)
(0.106128 -0.402233 0.245516)
(-0.0204402 -0.633332 0.164096)
(-0.00215933 -0.7027 0.0382151)
(-0.0382294 -0.128657 1.03917)
(-0.0330795 -0.137235 0.941007)
(-0.0271683 -0.14287 0.844722)
(-0.0225591 -0.147394 0.744665)
(-0.00188394 -0.150994 0.640157)
(0.0520992 -0.183235 0.525204)
(0.143596 -0.255713 0.395591)
(0.223016 -0.246175 0.301287)
(0.305497 -0.225607 0.201664)
(0.43882 -0.120783 0.0993708)
(0.641183 0.0274594 -0.000674832)
(0.622029 0.0812129 0.00395404)
(-0.0272697 -0.0807162 1.12493)
(-0.0190133 -0.0938699 1.02213)
(-0.00863685 -0.107997 0.92323)
(0.00688968 -0.129797 0.823898)
(0.0277415 -0.162026 0.717801)
(0.0535645 -0.198901 0.594884)
(0.070535 -0.263178 0.460091)
(0.0555931 -0.312398 0.439377)
(0.0577581 -0.438242 0.276824)
(-0.0186582 -0.587296 0.199023)
(-0.188771 -0.693753 0.0750295)
(-0.0823836 -0.747955 0.0291377)
(0.169098 -0.612002 0.0796131)
(0.0525147 -0.0503684 1.12858)
(0.0699583 -0.0561229 1.02729)
(0.0911853 -0.0612906 0.923192)
(0.115369 -0.065787 0.8182)
(0.144825 -0.0755562 0.707334)
(0.18506 -0.0961982 0.596315)
(0.221505 -0.116299 0.42763)
(0.284334 -0.160836 0.300291)
(0.520537 -0.240094 -0.00770092)
(0.560955 -0.289859 -0.00307861)
(0.7074 -0.301457 -0.198767)
(0.903454 -0.256383 -0.335157)
(0.948534 -0.398413 -0.224624)
(0.998763 -0.41237 0.0157696)
(-0.108049 -0.747891 0.0364728)
(-0.039978 -0.716964 0.184704)
(-0.0152651 -0.68387 0.0354297)
(-0.0354474 -0.661659 0.266877)
(0.00586891 -0.674567 0.173076)
(0.0365196 -0.619885 0.0312082)
(-0.0305782 -0.596643 0.356933)
(0.00618671 -0.596566 0.257073)
(0.0421764 -0.608441 0.167532)
(0.0720979 -0.555581 0.0235429)
(-0.0308656 -0.540086 0.45442)
(0.00321103 -0.545526 0.347729)
(0.0375433 -0.542965 0.244231)
(0.0689862 -0.548887 0.161408)
(0.0979765 -0.502519 0.0168029)
(-0.0253271 -0.484426 0.540593)
(0.0039627 -0.493496 0.445608)
(0.0331263 -0.496834 0.341751)
(0.0606188 -0.490733 0.234648)
(0.0920621 -0.493035 0.160977)
(0.118273 -0.455774 0.0107768)
(-0.0308811 -0.429055 0.628273)
(-0.00355361 -0.436421 0.531614)
(0.0244535 -0.444705 0.435946)
(0.0526561 -0.44734 0.331723)
(0.0823114 -0.436224 0.225027)
(0.105803 -0.434244 0.159191)
(0.130996 -0.405846 0.00816058)
(-0.0217401 -0.376884 0.716789)
(0.00196227 -0.38509 0.619335)
(0.0253393 -0.389251 0.524557)
(0.0471575 -0.394493 0.434593)
(0.0727782 -0.398813 0.33664)
(0.0906999 -0.398397 0.222286)
(0.117189 -0.395404 0.163564)
(0.147559 -0.377553 0.00239538)
(-0.0326908 -0.324002 0.80414)
(-0.0132188 -0.333566 0.705922)
(0.00954371 -0.3436 0.605929)
(0.0337879 -0.352121 0.503917)
(0.0586531 -0.360501 0.401236)
(0.0758981 -0.356078 0.30576)
(0.106985 -0.342493 0.199256)
(0.115949 -0.322776 0.152156)
(0.14079 -0.312951 0.0039984)
(-0.0162781 -0.266987 0.891384)
(0.00401278 -0.278746 0.793734)
(0.0234376 -0.286293 0.696495)
(0.0403301 -0.290629 0.601013)
(0.0519452 -0.291358 0.508142)
(0.0649075 -0.304778 0.42039)
(0.11832 -0.351489 0.308559)
(0.156233 -0.336712 0.216845)
(0.182068 -0.338335 0.164531)
(0.217235 -0.337283 0.00166024)
(-0.0354159 -0.221855 0.973678)
(-0.0237533 -0.22673 0.877984)
(-0.0130342 -0.23888 0.778108)
(-0.00114417 -0.247538 0.681051)
(0.0157064 -0.262784 0.58271)
(0.0332356 -0.278362 0.480253)
(0.0637009 -0.283106 0.379585)
(0.111619 -0.290549 0.273328)
(0.111075 -0.2511 0.136908)
(0.116258 -0.172277 0.100023)
(0.173336 -0.168189 0.00521392)
(-0.0174255 -0.164367 1.06084)
(-0.000976396 -0.176834 0.963077)
(0.016571 -0.184996 0.863902)
(0.035451 -0.195969 0.760512)
(0.0536889 -0.206707 0.654476)
(0.0692177 -0.217475 0.554591)
(0.0874304 -0.229409 0.471187)
(0.127494 -0.276775 0.38146)
(0.145236 -0.290752 0.336602)
(0.160126 -0.387442 0.223884)
(0.00545085 -0.632636 0.179591)
(0.0642263 -0.646305 0.0244074)
(-0.0336217 -0.122986 1.13726)
(-0.0298224 -0.129991 1.04024)
(-0.0224652 -0.138684 0.940928)
(-0.0190294 -0.142802 0.844608)
(-0.0105154 -0.144796 0.744467)
(0.011579 -0.152792 0.635146)
(0.0687197 -0.173656 0.52481)
(0.163625 -0.241145 0.393567)
(0.242941 -0.225705 0.301803)
(0.326001 -0.227703 0.190894)
(0.456137 -0.076828 0.0843332)
(0.568106 -0.0121539 0.0432292)
(0.655822 0.185091 0.000637828)
(-0.0282134 -0.0744082 1.22205)
(-0.0227732 -0.0838726 1.12298)
(-0.0139218 -0.0959796 1.02251)
(-0.00246092 -0.109552 0.926807)
(0.0154052 -0.130514 0.827026)
(0.0388618 -0.161528 0.722107)
(0.0666098 -0.198943 0.598966)
(0.0798212 -0.257244 0.473304)
(0.0767973 -0.320979 0.426974)
(0.0746861 -0.424558 0.280358)
(0.0231791 -0.591841 0.183899)
(-0.157113 -0.694595 0.0713875)
(-0.0500235 -0.747765 0.0288695)
(0.150147 -0.569707 0.0942895)
(0.0406945 -0.0447416 1.22747)
(0.055197 -0.0509127 1.12898)
(0.0724614 -0.0562123 1.02796)
(0.0938153 -0.0610163 0.924547)
(0.118169 -0.0650375 0.819048)
(0.147599 -0.0746496 0.708814)
(0.188243 -0.0938321 0.597272)
(0.224279 -0.112397 0.430085)
(0.288944 -0.153808 0.304089)
(0.527591 -0.231552 0.0018802)
(0.574803 -0.288135 -0.0183668)
(0.712341 -0.287549 -0.18978)
(0.903095 -0.24969 -0.332445)
(0.940546 -0.387022 -0.221415)
(0.995924 -0.392461 0.0154423)
(-0.394905 -0.845911 0.0444092)
(-0.146468 -0.771002 0.210559)
(-0.0583056 -0.74205 0.0341548)
(-0.0389655 -0.709165 0.276569)
(0.00627149 -0.72714 0.177391)
(0.0266876 -0.68591 0.0327555)
(-0.033238 -0.651507 0.367582)
(0.007385 -0.655848 0.273866)
(0.0460305 -0.672042 0.177432)
(0.0731331 -0.616114 0.031804)
(-0.0294446 -0.590517 0.463632)
(0.00734828 -0.596121 0.356877)
(0.0431299 -0.597881 0.255261)
(0.0791329 -0.604081 0.166602)
(0.10617 -0.550314 0.0239969)
(-0.0302337 -0.530492 0.550715)
(0.00381723 -0.540216 0.454561)
(0.0379669 -0.544286 0.347932)
(0.0681893 -0.538842 0.244745)
(0.103693 -0.543578 0.160829)
(0.127855 -0.494792 0.0167389)
(-0.0258038 -0.477338 0.63649)
(0.0045303 -0.485169 0.5404)
(0.0345253 -0.492067 0.446061)
(0.0633742 -0.493696 0.341547)
(0.0896155 -0.486581 0.234612)
(0.121498 -0.487266 0.160652)
(0.147061 -0.447132 0.010598)
(-0.03058 -0.420472 0.727112)
(-0.002576 -0.42917 0.62846)
(0.0245149 -0.435881 0.531141)
(0.0517857 -0.441734 0.436138)
(0.0809183 -0.442835 0.331785)
(0.108643 -0.430264 0.224667)
(0.134526 -0.42623 0.158922)
(0.156232 -0.395756 0.00838663)
(-0.0222968 -0.370683 0.814299)
(0.00238582 -0.376909 0.717305)
(0.0256991 -0.38369 0.619594)
(0.0481824 -0.387733 0.524269)
(0.0717883 -0.390612 0.434702)
(0.097534 -0.396929 0.333523)
(0.115554 -0.39237 0.222937)
(0.144711 -0.387573 0.163313)
(0.171986 -0.367509 0.00252245)
(-0.0315414 -0.309532 0.901232)
(-0.0112709 -0.326301 0.80341)
(0.00847412 -0.331627 0.70685)
(0.0312341 -0.340386 0.606382)
(0.0573835 -0.3475 0.50406)
(0.0834513 -0.352798 0.403171)
(0.101489 -0.347838 0.308559)
(0.128451 -0.332008 0.200125)
(0.135766 -0.311356 0.15159)
(0.160578 -0.298841 0.00373036)
(-0.0194064 -0.266502 0.987137)
(0.000970338 -0.267281 0.891082)
(0.0206655 -0.278574 0.793964)
(0.0401625 -0.283955 0.697056)
(0.0565061 -0.287126 0.601496)
(0.0688558 -0.289954 0.506616)
(0.0846537 -0.301719 0.422291)
(0.144293 -0.34462 0.308921)
(0.176292 -0.327769 0.221158)
(0.203209 -0.32982 0.165229)
(0.237296 -0.324938 0.00185975)
(-0.0321734 -0.208302 1.07136)
(-0.0213333 -0.221852 0.97515)
(-0.00980131 -0.22717 0.877611)
(0.00185498 -0.237298 0.778788)
(0.0151767 -0.24615 0.681072)
(0.0338172 -0.262885 0.580919)
(0.0529696 -0.278344 0.476552)
(0.0926836 -0.277977 0.376687)
(0.129957 -0.278228 0.273414)
(0.128037 -0.235217 0.134555)
(0.126816 -0.14972 0.0990999)
(0.191211 -0.150969 0.00417199)
(-0.0201097 -0.158308 1.15643)
(-0.00574621 -0.166176 1.06098)
(0.0101741 -0.177239 0.963689)
(0.028629 -0.184442 0.864201)
(0.0468055 -0.193707 0.761543)
(0.0646271 -0.201227 0.656532)
(0.0828293 -0.214596 0.555304)
(0.105034 -0.227884 0.470077)
(0.140711 -0.266608 0.385471)
(0.160988 -0.271561 0.349127)
(0.1816 -0.366643 0.244992)
(0.0915457 -0.569855 0.164863)
(0.060124 -0.681379 0.0210833)
(-0.0308146 -0.11674 1.2349)
(-0.0270423 -0.1235 1.13855)
(-0.0185885 -0.1316 1.04029)
(-0.0148527 -0.138599 0.942311)
(-0.00728026 -0.141071 0.845436)
(-0.000801825 -0.145173 0.743483)
(0.0279404 -0.144308 0.634613)
(0.0830746 -0.156735 0.525835)
(0.173573 -0.217773 0.398138)
(0.243211 -0.200868 0.323229)
(0.339573 -0.183942 0.211193)
(0.442216 -0.0860255 0.0979866)
(0.590641 0.0768548 0.0172386)
(0.570657 0.0931437 0.00351762)
(-0.0281189 -0.0676313 1.31563)
(-0.0240427 -0.0767076 1.22073)
(-0.0166678 -0.0868721 1.12278)
(-0.0078415 -0.0975832 1.02696)
(0.00473311 -0.110454 0.930629)
(0.0238301 -0.129952 0.831394)
(0.0496661 -0.160487 0.727554)
(0.0806089 -0.193526 0.604666)
(0.0880387 -0.230073 0.488793)
(0.0955716 -0.321712 0.419384)
(0.0912304 -0.406784 0.28587)
(0.0346114 -0.588884 0.179143)
(-0.106545 -0.711954 0.0544861)
(-0.024135 -0.745115 0.0320228)
(0.200209 -0.516253 0.0903247)
(0.0303654 -0.0404622 1.32394)
(0.0432157 -0.0453171 1.2278)
(0.0575563 -0.0511637 1.12944)
(0.0750241 -0.05606 1.02869)
(0.096411 -0.0603937 0.926008)
(0.120648 -0.0641574 0.819976)
(0.150794 -0.0733808 0.71014)
(0.190945 -0.0909572 0.598396)
(0.227242 -0.107783 0.432321)
(0.29397 -0.147891 0.306426)
(0.542206 -0.230134 -0.0212651)
(0.580267 -0.284375 -0.0123088)
(0.708932 -0.276646 -0.173903)
(0.893526 -0.230497 -0.321195)
(0.938818 -0.376316 -0.220856)
(0.991123 -0.384499 0.0149193)
(-0.881734 -0.938357 0.0319524)
(-0.76425 -0.850682 0.232118)
(-0.35564 -0.853004 0.0316478)
(-0.170614 -0.765096 0.293666)
(-0.09395 -0.8013 0.200998)
(-0.0139513 -0.751792 0.0297773)
(-0.0352192 -0.689617 0.376537)
(0.00759528 -0.700604 0.290241)
(0.0486163 -0.721796 0.184824)
(0.0683959 -0.680893 0.0340623)
(-0.0331183 -0.642596 0.473717)
(0.00844696 -0.652093 0.366481)
(0.0488135 -0.658013 0.268357)
(0.0879097 -0.667588 0.175678)
(0.110379 -0.610766 0.0323764)
(-0.0289326 -0.579978 0.560804)
(0.00762965 -0.589994 0.463788)
(0.0436672 -0.595478 0.357324)
(0.0774423 -0.592863 0.255572)
(0.115335 -0.599398 0.165289)
(0.139058 -0.541172 0.0235351)
(-0.0301104 -0.522864 0.645512)
(0.00362297 -0.531151 0.550573)
(0.0371203 -0.539365 0.454369)
(0.0692972 -0.540577 0.347939)
(0.103078 -0.533237 0.244491)
(0.135601 -0.535922 0.161054)
(0.158967 -0.485572 0.01669)
(-0.0260428 -0.468433 0.736012)
(0.00342426 -0.477251 0.636661)
(0.0338797 -0.483743 0.54058)
(0.0640263 -0.488608 0.446204)
(0.0936639 -0.48889 0.341631)
(0.120801 -0.479544 0.235191)
(0.151769 -0.478646 0.160801)
(0.17444 -0.436907 0.0107884)
(-0.0300162 -0.416884 0.823712)
(-0.00165651 -0.420802 0.727322)
(0.0233192 -0.428471 0.628414)
(0.0504315 -0.433799 0.531059)
(0.0796459 -0.438052 0.43572)
(0.107695 -0.436548 0.332139)
(0.136014 -0.42258 0.224335)
(0.159783 -0.416748 0.158991)
(0.180435 -0.383888 0.0083681)
(-0.0226149 -0.352613 0.910847)
(0.000833497 -0.371105 0.81465)
(0.0248363 -0.375519 0.717725)
(0.0493023 -0.381464 0.619246)
(0.0719679 -0.383294 0.524514)
(0.0960053 -0.386239 0.433781)
(0.121889 -0.392459 0.332469)
(0.14268 -0.383673 0.22357)
(0.1697 -0.378672 0.16314)
(0.194964 -0.356136 0.00220897)
(-0.0310669 -0.31484 0.996583)
(-0.0108277 -0.310665 0.900961)
(0.00908621 -0.325035 0.804092)
(0.0298044 -0.329325 0.707289)
(0.0537655 -0.33732 0.606263)
(0.0802488 -0.342455 0.503779)
(0.106096 -0.346687 0.402308)
(0.126997 -0.339574 0.309075)
(0.148215 -0.320992 0.2005)
(0.155459 -0.297624 0.151394)
(0.179745 -0.284458 0.00352162)
(-0.0205565 -0.24797 1.08467)
(-0.00208754 -0.266853 0.987091)
(0.0171687 -0.266806 0.891308)
(0.0373709 -0.276563 0.794596)
(0.0567042 -0.280421 0.697587)
(0.073411 -0.283568 0.600947)
(0.0872968 -0.286635 0.506295)
(0.102309 -0.295707 0.425701)
(0.167934 -0.334284 0.310757)
(0.196053 -0.316791 0.224798)
(0.22368 -0.318112 0.166002)
(0.255975 -0.311059 0.00200247)
(-0.0308505 -0.204445 1.16427)
(-0.0190835 -0.208839 1.07209)
(-0.00626851 -0.222076 0.975347)
(0.00632577 -0.226535 0.877554)
(0.0177486 -0.235046 0.780149)
(0.0323536 -0.244289 0.681117)
(0.0526276 -0.260697 0.579381)
(0.0746855 -0.275787 0.473232)
(0.115591 -0.266741 0.37687)
(0.145466 -0.266065 0.273256)
(0.143327 -0.219728 0.133918)
(0.135441 -0.127592 0.0976428)
(0.201814 -0.129741 0.00294795)
(-0.0215876 -0.153023 1.25049)
(-0.0094469 -0.160274 1.15526)
(0.00464846 -0.166572 1.06162)
(0.0219627 -0.176095 0.963997)
(0.0396195 -0.182313 0.864947)
(0.0576273 -0.18869 0.763328)
(0.075793 -0.197297 0.657928)
(0.0947948 -0.211586 0.556085)
(0.121985 -0.221598 0.470842)
(0.152815 -0.253444 0.390574)
(0.187571 -0.271153 0.342295)
(0.220898 -0.339271 0.241818)
(0.12433 -0.548598 0.183025)
(0.117978 -0.609363 0.0160275)
(-0.0298116 -0.107637 1.32746)
(-0.0233208 -0.117733 1.23377)
(-0.0163717 -0.124848 1.13891)
(-0.0115941 -0.131804 1.04126)
(-0.00318948 -0.136862 0.944397)
(-0.00062933 -0.14019 0.847375)
(0.0142545 -0.140123 0.74381)
(0.0360244 -0.134701 0.632834)
(0.107534 -0.172239 0.50486)
(0.186428 -0.197983 0.400917)
(0.260756 -0.181388 0.316941)
(0.339825 -0.146404 0.227613)
(0.443867 -0.0300999 0.108108)
(0.57217 0.0921562 0.0277911)
(0.583418 0.169416 -0.00236335)
(-0.0290755 -0.0643261 1.40549)
(-0.024706 -0.0694859 1.31429)
(-0.0181947 -0.0793184 1.22062)
(-0.0108716 -0.0888959 1.12328)
(-0.00168833 -0.0986634 1.03095)