/*--------------------------------*- C++ -*----------------------------------*\
  =========                 |
  \\      /  F ield         | OpenFOAM: The Open Source CFD Toolbox
   \\    /   O peration     | Website:  https://openfoam.org
    \\  /    A nd           | Version:  7
     \\/     M anipulation  |
\*---------------------------------------------------------------------------*/
FoamFile
{
    version     2.0;
    format      ascii;
    class       surfaceScalarField;
    location    "3";
    object      phi;
}
// * * * * * * * * * * * * * * * * * * * * * * * * * * * * * * * * * * * * * //

dimensions      [0 3 -1 0 0 0 0];

internalField   nonuniform List<scalar> 
53739
(
-0.000195215
-0.000881708
-8.5146e-06
-0.000396317
0.000164035
4.84142e-05
-0.000195946
-0.000684379
-1.22528e-05
-0.000220414
-2.7915e-05
-2.37378e-06
-0.000348204
0.00147438
0.000204486
-0.000391707
0.000326352
5.28993e-05
-0.000427658
0.00102939
4.48472e-05
-0.00019675
-0.000482383
-1.75628e-05
-0.000223115
0.000187961
-5.01381e-06
-0.000270645
0.000986829
1.70224e-06
-0.00034389
0.00415957
0.000315864
-0.000381612
0.00155132
0.000223087
-0.000571103
0.00175837
0.000209304
-0.00038766
0.000460928
6.64379e-05
-0.000434507
0.00124394
4.97445e-05
-0.000480468
0.00103892
3.91486e-05
-0.000197055
-0.000276082
-2.32237e-05
-0.000225449
0.000404605
-8.7572e-06
-0.000271818
0.00125056
3.07531e-06
-0.000241196
0.00121277
-1.11949e-05
-0.000643204
0.00420328
0.000707852
-0.000370625
0.00421669
0.00031376
-0.000513775
0.00439231
0.000338457
-0.000401032
0.00165494
0.00022958
-0.000606078
0.00193238
0.000220644
-0.000640876
0.00133257
0.000248771
-0.00038506
0.000574091
7.46016e-05
-0.000433062
0.0014415
7.64958e-05
-0.000479912
0.00125269
4.40646e-05
-0.000425667
0.00141049
1.74671e-05
-0.000197208
-7.07105e-05
-2.31543e-05
-0.000227528
0.000621083
-1.21739e-05
-0.000268478
0.00150694
3.34256e-06
-0.00023879
0.00146457
-9.93356e-06
-0.000215907
0.00181219
-3.00586e-05
-0.000497333
0.00617188
0.00100294
-0.000512693
0.00435423
0.00062342
-0.000429896
0.00434839
0.000606007
-0.000395409
0.00429759
0.000341998
-0.000627094
0.00438088
0.000346205
-0.000532581
0.00359649
0.000318362
-0.000432226
0.00179908
0.00023362
-0.000585553
0.00208654
0.000227906
-0.000630712
0.00145761
0.000246398
-0.000566247
0.00183427
0.000154244
-0.000386887
0.000684846
6.80365e-05
-0.000437968
0.00163081
9.57263e-05
-0.000478892
0.00148981
4.97845e-05
-0.000431521
0.00163443
1.28559e-05
-0.000404369
0.00203105
-2.38721e-05
-0.000198099
0.000134638
-2.36545e-05
-0.00022834
0.000836769
-1.05008e-05
-0.000263099
0.00175341
4.45178e-06
-0.000234635
0.00171119
-8.64463e-06
-0.00021124
0.00204403
-3.05255e-05
-0.000202598
0.00229862
-5.16291e-05
-0.000268142
0.00733756
0.00123531
-0.000156587
0.00588684
0.00101044
-0.000169469
0.00544024
0.000789914
-0.000553702
0.00457879
0.000584037
-0.000567994
0.00437496
0.000537745
-0.000437145
0.0048495
0.000418268
-0.000411282
0.00439211
0.000386676
-0.000649079
0.00441472
0.000371692
-0.000510146
0.0034901
0.000332033
-0.000565868
0.00311941
0.000325226
-0.000443495
0.00194938
0.000239446
-0.000600751
0.00224618
0.000236765
-0.000634649
0.00158232
0.000258961
-0.00061127
0.00208056
0.000179857
-0.000473804
0.00223882
1.00583e-05
-0.000393357
0.000803811
5.77125e-05
-0.00044654
0.00182134
9.5709e-05
-0.000475576
0.00174183
5.61881e-05
-0.00041872
0.00187717
-8.87292e-06
-0.000402825
0.00228257
-4.70759e-05
-0.000355932
0.00257444
-0.000100353
-0.000197823
0.000337059
-2.27397e-05
-0.000228982
0.0010511
-9.00211e-06
-0.000259333
0.00199664
5.59834e-06
-0.000228329
0.00195181
-7.83466e-06
-0.000204426
0.00226994
-3.01378e-05
-0.000191572
0.00251172
-5.20533e-05
-0.00014355
0.00313717
-5.91962e-05
-1.69558e-05
0.00719452
0.00167526
-8.31635e-06
0.00712898
0.00132716
-0.00010629
0.0069975
0.00126244
-0.000263199
0.00579236
0.000937764
-0.000287238
0.00542648
0.000743448
-0.000310831
0.00605498
0.000598327
-0.000556281
0.00480271
0.000577328
-0.000621909
0.00444298
0.000488853
-0.000393903
0.00487785
0.000393151
-0.000360697
0.00444039
0.000258649
-0.000422747
0.00456964
0.000403441
-0.000620507
0.00441881
0.00040234
-0.000495424
0.00336354
0.000359026
-0.000577065
0.00309175
0.000325487
-0.000429242
0.00346262
0.000358255
-0.000515502
0.00215288
0.000242408
-0.000610559
0.00239692
0.000252728
-0.000642331
0.00172078
0.000265053
-0.000582186
0.00228055
0.000222438
-0.000467527
0.00243245
5.09306e-05
-0.000397601
0.00261476
-9.17385e-05
-0.000394643
0.000924639
4.55088e-05
-0.000461752
0.00201221
9.96121e-05
-0.000467919
0.00199753
4.85988e-05
-0.000410093
0.00212051
-5.38158e-06
-0.000383455
0.00252801
-7.52778e-05
-0.000339891
0.00279015
-0.000114465
-0.000284857
0.00327791
-0.000154181
-0.000202161
0.000542879
-2.37131e-05
-0.000230302
0.00126577
-7.10739e-06
-0.000252312
0.0022341
5.85429e-06
-0.000223434
0.00219004
-9.20179e-06
-0.000194114
0.00248568
-2.94604e-05
-0.000181384
0.00271588
-5.29169e-05
-0.000130404
0.00327511
-5.95879e-05
-5.48265e-05
0.00363703
-5.67473e-05
1.25535e-05
0.0067119
0.00186598
0.000111685
0.00710064
0.00168181
3.76834e-05
0.00681341
0.00170331
-7.95964e-05
0.00706023
0.00118263
-0.000234653
0.00698775
0.00128432
-0.000106642
0.00605886
0.00119694
-0.000389779
0.00571135
0.00102925
-7.23522e-05
0.00507927
0.000735415
-7.41827e-05
0.0059253
0.000553404
-0.000310123
0.00570226
0.000424729
-0.000541833
0.00495089
0.000564536
-0.000776183
0.00469102
0.000484963
-0.000293542
0.00477695
0.000387872
-0.000303246
0.00441069
0.000149027
-0.000186527
0.00507447
3.74989e-05
-0.000546053
0.00475887
0.000431889
-0.000611162
0.00439862
0.000424232
-0.000543416
0.00328049
0.000386476
-0.000589444
0.00312929
0.000328747
-0.000463423
0.00341593
0.000368067
-0.000285384
0.00421496
0.000190207
-0.000494682
0.00231379
0.000249094
-0.000641449
0.00255563
0.000263394
-0.000628907
0.0018686
0.000265903
-0.000579806
0.00252125
0.00019406
-0.00048298
0.00268178
7.26322e-05
-0.000399263
0.00285206
-0.000127001
-0.000315085
0.00360742
-0.000143517
-0.000407483
0.00105745
5.35504e-05
-0.000466125
0.00218473
0.00010881
-0.000455046
0.00223175
6.8123e-05
-0.00040426
0.00235426
-4.32976e-06
-0.000383962
0.00276411
-5.16373e-05
-0.000322301
0.002975
-0.000119206
-0.00022612
0.00341888
-0.000159719
-0.000141207
0.00369079
-0.000151188
-0.000207448
0.000753092
-2.50609e-05
-0.000229031
0.00147688
-5.7956e-06
-0.000244561
0.00246732
4.22961e-06
-0.000218559
0.0024242
-9.74719e-06
-0.00018957
0.00269795
-3.19012e-05
-0.000175375
0.00291503
-5.32285e-05
-0.000120534
0.00340205
-5.93226e-05
-4.75969e-05
0.00368201
-5.69716e-05
1.57024e-06
0.00367429
-3.84189e-05
-8.18899e-05
0.00659921
0.00220873
-2.87593e-05
0.00678085
0.00192989
-8.17958e-05
0.00672125
0.00194558
7.3916e-05
0.00700919
0.00161399
2.44752e-05
0.00652855
0.00170753
0.000161837
0.00620703
0.00181617
-6.36464e-05
0.00688739
0.00110413
-3.26399e-05
0.007158
0.000972676
5.81872e-05
0.00613284
0.00107798
-0.000329011
0.00616486
0.00109347
-0.000410379
0.00566249
0.00105574
-0.000285525
0.00483308
0.000784778
-4.33028e-05
0.00572841
0.000682075
-0.000364518
0.00583541
0.000481522
-1.58358e-05
0.00561541
0.000301472
-0.000530381
0.00492487
0.000575416
-0.000698175
0.0048688
0.000473767
-0.000427655
0.0047656
0.000380551
-0.000313127
0.00439686
0.000125387
-0.000257561
0.00506951
-5.18711e-05
-0.000254482
0.00574108
-6.62409e-05
-0.00050425
0.00491018
0.000483323
-0.000594923
0.00431854
0.000465446
-0.000567711
0.00323008
0.000413445
-0.000602637
0.00319942
0.000339174
-0.000485579
0.00338844
0.000358843
-0.000273855
0.00428994
0.000167679
-0.000237662
0.00490488
8.71347e-05
-0.000460963
0.00239907
0.0002414
-0.000647994
0.00271424
0.000272359
-0.000611895
0.00202701
0.000261833
-0.000577308
0.00274119
0.000219012
-0.000520787
0.00295973
5.29368e-05
-0.000384893
0.0031204
-0.000133113
-0.000231476
0.00369073
-0.000204954
-0.000200664
0.00457709
-0.00012193
-0.000421412
0.001199
5.97496e-05
-0.000468241
0.0023621
0.000115394
-0.000441429
0.00244934
8.80854e-05
-0.000390798
0.00259777
-3.15162e-06
-0.000363879
0.00298671
-5.26168e-05
-0.000320403
0.0031683
-9.99085e-05
-0.000212108
0.00354358
-0.000152326
-0.000147356
0.00377896
-0.00014813
-8.01163e-05
0.00419885
-0.000112315
-0.000208118
0.000964602
-2.66496e-05
-0.000227782
0.00168544
-5.83925e-06
-0.000235927
0.00269108
6.37062e-06
-0.000209962
0.00264951
-1.11161e-05
-0.000174313
0.00289366
-3.11407e-05
-0.000170335
0.0031065
-5.30438e-05
-0.000108845
0.00351889
-6.12229e-05
-1.92637e-05
0.00369776
-5.58096e-05
9.97175e-06
0.0036457
-3.8358e-05
8.16356e-05
0.00321501
-1.82743e-05
-0.000131402
0.00633662
0.00253191
-0.000144881
0.00668483
0.00219999
-0.000245865
0.00645088
0.00217903
5.91576e-05
0.006728
0.00195776
-1.0778e-06
0.00669536
0.00198134
0.000202161
0.00651421
0.00198126
0.000244184
0.00683006
0.00147616
6.16629e-05
0.00642187
0.00162637
0.000105008
0.006079
0.00178875
-0.000206406
0.00612617
0.00173598
-0.000221473
0.00691334
0.00115534
0.000218055
0.00690271
0.000855833
-3.67774e-06
0.006146
0.000919892
-0.000301247
0.00623188
0.000947692
-2.63465e-05
0.00621109
0.00113971
-0.000280138
0.00549757
0.00110288
-0.000223001
0.00465354
0.0007601
-0.000122156
0.00572025
0.000487434
3.97281e-05
0.00563267
0.000531962
-7.91263e-05
0.00557726
0.000341245
-0.000396478
0.00592886
0.00038471
-0.00059253
0.00491107
0.000626098
-0.000635094
0.00497819
0.000506202
-0.000491106
0.00478493
0.000377841
-0.000148674
0.00418644
0.000137008
-0.00023919
0.00503338
-8.48704e-05
-0.0001878
0.0056978
-9.46516e-05
-0.000334138
0.00551407
-1.98383e-07
-0.000403972
0.00498176
0.000500977
-0.000544825
0.00417615
0.000522542
-0.000561176
0.00319367
0.000451143
-0.000679397
0.00337443
0.000340521
-0.000551351
0.00340384
0.000354332
-0.000260552
0.0043597
0.000164739
-0.000231087
0.00500327
6.88972e-05
-0.000312611
0.00561788
0.000211887
-0.000477299
0.00245262
0.000236441
-0.000629993
0.00284697
0.000270419
-0.000601563
0.00220457
0.000254926
-0.000569595
0.00295401
0.000227806
-0.000511152
0.00322464
0.000101373
-0.000356486
0.00330094
-9.15252e-05
-0.000225279
0.00378825
-0.000217457
-0.00015159
0.00451117
-0.000134805
-0.000119785
0.00459064
-0.0001011
-0.000436876
0.00135969
5.6623e-05
-0.000475936
0.00255094
0.000119062
-0.000431822
0.00267237
8.82543e-05
-0.00037599
0.00284894
2.94375e-06
-0.000330149
0.00318091
-4.1522e-05
-0.000310739
0.00336599
-0.000109908
-0.000227744
0.00372315
-0.000160579
-0.000109787
0.00387111
-0.000153949
-7.01504e-05
0.00424376
-0.000112923
5.73128e-05
0.00378504
-6.39968e-05
-0.000205141
0.00117349
-2.77853e-05
-0.000223748
0.00188882
-6.28376e-06
-0.00022981
0.00290878
6.27127e-06
-0.000204151
0.00287031
-1.0274e-05
-0.000165881
0.00308049
-3.20631e-05
-0.000159371
0.00328498
-5.02444e-05
-9.82401e-05
0.00362552
-6.14432e-05
-3.22989e-05
0.00372558
-5.67458e-05
2.67484e-05
0.00360103
-3.78835e-05
8.80852e-05
0.0031067
-1.81343e-05
0.000116702
0.00196333
-3.2514e-05
-0.000202749
0.00573914
0.00275323
-1.77429e-05
0.00618716
0.00247389
-0.000217376
0.00616905
0.00242698
6.56313e-05
0.00665354
0.00225518
-0.000154153
0.00660458
0.00219937
9.90576e-05
0.00652357
0.00218866
0.00019738
0.00677301
0.001937
0.000206809
0.006539
0.00196897
0.000284639
0.00634085
0.00197506
0.000131313
0.00611258
0.00187312
4.34534e-05
0.00670582
0.00153136
0.000285608
0.00629661
0.00153386
-4.00226e-05
0.00612259
0.00161912
-0.000117261
0.0060503
0.00168064
0.000162815
0.00597246
0.00146654
-0.000181789
0.00703564
0.0011694
0.000156884
0.00677767
0.000900495
9.47042e-05
0.00590119
0.00088378
0.000194273
0.00592338
0.00107385
-0.0001502
0.00631887
0.000910992
-0.000497662
0.00621279
0.0010411
-0.00028
0.00524933
0.00115455
-0.000146447
0.00458141
0.000686364
-0.000128179
0.00573527
0.000382155
0.000266528
0.00542042
0.000284487
-8.05426e-05
0.00563542
0.000315149
-0.000131811
0.0059065
0.000307616
-0.000213641
0.00589532
0.000346059
-0.000552445
0.00496465
0.000641763
-0.000522718
0.00500734
0.000574833
-0.000496827
0.00478943
0.000437353
-0.00027919
0.00400759
0.000156485
-0.000202458
0.00491603
-9.45362e-05
-0.000123953
0.00559159
-0.000115253
-0.000305567
0.00549601
-2.11003e-06
-0.00039504
0.00588066
-6.94269e-05
-0.000390044
0.00498747
0.000497296
-0.000471255
0.00397972
0.000538673
-0.000569793
0.00318358
0.000500853
-0.000678449
0.00354226
0.000392175
-0.000586601
0.00349787
0.000321941
-0.000257564
0.00445595
0.000159161
-0.000210628
0.00507795
7.54128e-05
-0.000215419
0.00555959
0.000191011
0.000124676
0.00489905
0.000146536
-0.000455092
0.0024194
0.000240253
-0.000646032
0.00298855
0.000264954
-0.000579433
0.00237418
0.000248423
-0.000534011
0.00317713
0.000189828
-0.000453349
0.00345492
0.000120734
-0.000373037
0.00354133
-7.67154e-05
-0.000262411
0.0039126
-0.000181207
-0.000110683
0.00444027
-0.000145658
-0.000170293
0.00469363
-0.000137652
-9.94521e-05
0.00418393
-0.000108575
-0.000445728
0.00153974
4.35685e-05
-0.000462167
0.00273764
0.000108348
-0.000420975
0.00289738
8.52224e-05
-0.000368751
0.00309901
2.78908e-06
-0.00032844
0.00345067
-0.000104252
-0.000301452
0.0035479
-8.13482e-05
-0.000204184
0.00388444
-0.000165259
-0.000127987
0.0039504
-0.000144188
-4.79812e-05
0.00429159
-0.000127047
0.000140199
0.00369307
-7.30677e-05
0.000230597
0.00269824
-8.9002e-05
-0.000203345
0.00138075
-2.82498e-05
-0.000217073
0.00208606
-7.94832e-06
-0.000220669
0.0031189
4.2678e-06
-0.000192852
0.00308049
-1.10566e-05
-0.000155586
0.00325742
-3.16199e-05
-0.000149577
0.00345469
-5.21997e-05
-0.000102639
0.00373701
-5.90885e-05
-1.00306e-06
0.00372082
-5.56759e-05
3.04275e-05
0.00355079
-3.69405e-05
9.83209e-05
0.00298809
-1.75946e-05
0.000124036
0.0018532
-3.20456e-05
0.00011688
0.00227355
-3.73242e-05
-0.000371517
0.00516251
0.00323994
-0.000289684
0.00559165
0.00298052
-6.98278e-05
0.00580104
0.0027563
-0.000265114
0.00573281
0.00270679
0.000122637
0.00612568
0.00251803
-9.68619e-05
0.00619899
0.00238666
0.000109096
0.00628678
0.0024021
0.000278422
0.00661174
0.00225313
0.000240423
0.00662925
0.0021969
0.000137621
0.00668849
0.00218146
7.03421e-05
0.00634641
0.00214578
0.000157716
0.00664716
0.00196619
0.000191107
0.00660644
0.00196407
-1.20856e-05
0.00631585
0.00196604
0.000128537
0.00605308
0.00178876
0.000232531
0.0062717
0.00150156
3.32546e-05
0.00663515
0.00154821
0.000189948
0.00628673
0.00150818
1.22745e-05
0.00616305
0.00157584
4.40621e-05
0.00621789
0.00160174
8.32141e-05
0.00601768
0.001402
1.31061e-05
0.00596583
0.00119418
-7.61012e-05
0.0069917
0.001228
0.000290962
0.00663096
0.000878701
0.00017117
0.00583686
0.000665474
0.000262676
0.0060526
0.000758407
-0.000175235
0.00637467
0.00111274
-0.000149648
0.00625429
0.000887333
0.000126985
0.00563993
0.000792595
-0.000416784
0.00519418
0.00117716
-0.000118707
0.00460741
0.000724545
-0.000169256
0.00580358
0.000290485
0.000189383
0.00514311
0.000190893
0.00029804
0.00527495
0.000144458
-0.000209193
0.00607986
0.000227031
-0.000176837
0.00582745
0.000246764
-0.000532222
0.00581808
0.000203321
-0.000479965
0.00495533
0.00062032
-0.000399081
0.00493204
0.000644892
-0.000456659
0.00475107
0.000500051
-0.00045075
0.00398075
0.000236496
-3.64655e-05
0.00460481
-8.24328e-05
-0.000134371
0.00554167
-0.000167813
-0.00027257
0.00555111
-0.000108404
-0.000306786
0.00594765
2.22667e-05
0.00020769
0.00562792
6.62562e-06
-0.000263137
0.0048526
0.000510146
-0.000446506
0.00371657
0.000560919
-0.000566652
0.00318628
0.0005232
-0.000610808
0.00374384
0.000376066
-0.000580503
0.00363922
0.000377982
-0.000264828
0.00452824
0.000141439
-0.000176961
0.00508892
6.27351e-05
-3.07493e-05
0.00539229
0.000162785
-5.0901e-05
0.00486361
0.000107052
-0.000152616
0.00450908
1.40336e-05
-0.000451836
0.0023482
0.000227487
-0.000610518
0.0031174
0.000259756
-0.00055451
0.00252321
0.000249461
-0.000514605
0.00331649
0.000254921
-0.000524845
0.00374056
0.000100585
-0.000332239
0.0037199
-2.70548e-05
-0.000211176
0.00402046
-0.000177591
-0.000140949
0.00439684
-0.000124819
-0.000173883
0.00476679
-9.29131e-05
6.48654e-05
0.00429537
-0.000173764
0.000239297
0.00348857
-0.000135556
-0.000459684
0.00173671
3.62978e-05
-0.000448184
0.0029134
9.89111e-05
-0.000409901
0.00312812
6.68424e-05
-0.000347587
0.00333636
2.60768e-06
-0.000292638
0.00367392
-8.34109e-05
-0.000293939
0.00372773
-0.000139723
-0.000202412
0.0040684
-0.000165529
-9.51125e-05
0.00403663
-0.000157378
-6.99159e-05
0.00436441
-0.000116659
9.99244e-05
0.00364553
-8.11129e-05
0.000247451
0.00259894
-9.71811e-05
0.000232076
0.00214746
-0.00015737
-0.000197921
0.00158359
-3.10013e-05
-0.000209157
0.00227525
-8.28559e-06
-0.000210749
0.00331819
3.50799e-06
-0.000180197
0.00327645
-1.14962e-05
-0.000139863
0.00342018
-3.39555e-05
-0.000139496
0.00361171
-4.91401e-05
-6.13328e-05
0.00380663
-6.04895e-05
2.07224e-05
0.00369604
-5.5034e-05
4.75211e-05
0.00348288
-3.52859e-05
0.000112517
0.00285475
-1.6112e-05
0.000133063
0.00173393
-3.13799e-05
0.000120196
0.00215802
-3.67168e-05
5.16479e-05
0.00245134
-3.43303e-05
-0.000255863
0.00478617
0.00359528
-0.000270288
0.00517311
0.0032679
-5.19879e-05
0.0051319
0.00318836
-1.89711e-05
0.00557734
0.00293093
-0.000240861
0.00531097
0.00297902
5.47705e-05
0.00590658
0.00273934
-0.000124047
0.00581962
0.00269668
-3.1924e-06
0.00579316
0.00267006
0.0001979
0.00620234
0.00247153
0.000240477
0.00628965
0.00242732
0.000103574
0.00630134
0.00240614
0.000143855
0.00581766
0.00235855
0.000361712
0.0065067
0.00222912
0.000215465
0.00669349
0.00216453
-8.07289e-06
0.006763
0.00211837
0.000139159
0.00640276
0.00211449
0.000335623
0.00598114
0.00195075
0.000141028
0.00656317
0.00198741
0.000296924
0.00650882
0.00195683
6.03087e-05
0.00629209
0.00193979
0.000239014
0.00607433
0.00174983
0.000306467
0.00634493
0.00149228
0.000462109
0.00643478
0.0012911
-1.37077e-06
0.00667418
0.00159167
0.000237023
0.00639188
0.001497
3.577e-05
0.00628314
0.0015235
0.000140734
0.00634338
0.00157229
0.000134432
0.00590551
0.00140424
-8.79402e-06
0.00602555
0.00120143
0.000346841
0.00588003
0.00112824
-0.000272616
0.00695009
0.00135789
0.000327016
0.00646415
0.000949079
0.000263516
0.00559373
0.000689062
0.00028394
0.00603861
0.000584909
0.000175197
0.00652912
0.000726802
-0.000247158
0.00647405
0.000930947
0.000141506
0.00532684
0.000882081
-0.00032719
0.00482049
0.000742631
-0.000354653
0.00512912
0.0012231
-0.000153466
0.00479075
0.000748203
-0.000103101
0.00580532
0.000369245
-1.48631e-05
0.00489168
0.000106029
0.000269395
0.0050779
8.20881e-05
-1.50421e-05
0.00593882
0.000166167
-0.00019037
0.00588576
8.65157e-05
-2.83261e-05
0.00559576
0.00019063
-3.95512e-05
0.00594926
0.000257657
-0.000407118
0.00501612
0.000629061
-0.00036345
0.00474914
0.000720164
-0.000435714
0.00468813
0.000576896
-0.000473226
0.00406099
0.000282223
-0.000190323
0.00451099
-5.98649e-05
-0.000198224
0.00557643
-0.000183792
-0.000188808
0.00558214
-0.000186998
-7.42051e-05
0.0059024
-1.96987e-05
5.85934e-05
0.00546956
7.11334e-05
-0.000235868
0.00472468
7.0309e-05
-0.000138171
0.00460246
0.000498199
-0.000395574
0.00345666
0.000555104
-0.000537756
0.00317935
0.000551088
-0.000568879
0.0039003
0.000421016
-0.000639951
0.00380083
0.000329558
-0.000210303
0.00461541
0.000168878
-1.32507e-05
0.00497015
6.22915e-05
-9.54694e-05
0.00524302
0.000166525
-0.000161694
0.00495181
6.23953e-05
-0.000138771
0.0048248
-5.0334e-06
0.000146236
0.00440009
-8.35237e-07
-0.000607087
0.00242168
0.000187852
-0.000592889
0.00326602
0.000223567
-0.000513398
0.00264975
0.000236712
-0.000489637
0.003497
0.000211
-0.000448164
0.0039835
0.000167511
-0.000394321
0.00396612
-4.52497e-05
-0.000275873
0.00419746
-0.000130594
-0.000163643
0.00441346
-0.000125681
-0.000185794
0.00482979
-7.19392e-05
1.00634e-05
0.00440984
-0.000117516
0.000261258
0.00346167
-0.000160674
0.000275228
0.00313233
-0.000152717
-0.000455144
0.00193477
1.58781e-05
-0.000428931
0.00308196
8.7514e-05
-0.000390415
0.00335326
5.34361e-05
-0.000324776
0.00356265
-1.48693e-05
-0.000289192
0.00389343
-6.75768e-05
-0.000284438
0.00392383
-0.000134567
-0.000155245
0.00419472
-0.00017213
-7.45423e-05
0.00411759
-0.000151223
-3.928e-05
0.00442588
-0.000132049
0.000112641
0.00361338
-8.46318e-05
0.000239845
0.00251986
-0.00010882
0.000210115
0.00212575
-0.000165393
2.33159e-05
0.00286092
-0.000198364
-0.000191212
0.00178165
-3.36147e-05
-0.000199615
0.00245437
-1.04996e-05
-0.000202005
0.00351047
1.43935e-06
-0.00016893
0.0034614
-1.25109e-05
-0.000132128
0.00357326
-3.24447e-05
-0.000121903
0.00375046
-5.08046e-05
-7.01832e-05
0.00388889
-6.12212e-05
2.51325e-05
0.00366608
-5.56633e-05
5.47273e-05
0.00340819
-3.50716e-05
0.000126932
0.00270807
-1.55382e-05
0.000136808
0.00161172
-3.07139e-05
0.000127862
0.00203502
-3.62443e-05
6.45988e-05
0.00238397
-3.39488e-05
7.71166e-05
0.002479
-3.09683e-05
-0.000262344
0.00463547
0.00385291
-0.000138261
0.00486457
0.00362867
-0.000271069
0.00481596
0.00364368
1.81986e-05
0.00504546
0.00344443
-8.96485e-05
0.00531056
0.00325639
-0.000142903
0.00507556
0.00322629
-3.54733e-05
0.00506695
0.00311739
0.00013382
0.00551302
0.00295463
-0.000209035
0.00536974
0.00295714
9.60576e-05
0.00540544
0.00279935
0.000109281
0.00605979
0.00270515
0.000115158
0.00599004
0.00269424
6.54856e-05
0.00584762
0.00268032
0.000310506
0.00558988
0.00256823
0.000266752
0.0063641
0.00246221
0.000280203
0.00633683
0.00235961
0.000144638
0.00619825
0.0023777
0.000139627
0.0058795
0.00234384
0.000451093
0.00568203
0.00221554
0.000347459
0.00643724
0.00224287
0.000371039
0.00670485
0.00214364
7.80682e-05
0.00679225
0.00211752
0.000235659
0.00644934
0.00207516
0.000400339
0.00604458
0.00195718
0.000509798
0.00605601
0.00181696
9.10156e-05
0.00652315
0.00199065
0.000294387
0.00650873
0.00193013
6.99929e-05
0.00629535
0.00191936
0.000186422
0.00620691
0.00176152
0.000410052
0.00625829
0.00156085
0.000425457
0.00611966
0.00137314
0.000476067
0.00567386
0.00128357
-1.51679e-05
0.00654233
0.00162841
0.000312345
0.00647227
0.00152595
0.000221838
0.00639284
0.00142898
0.00028478
0.00644811
0.00141793
0.000185714
0.00606566
0.00140162
5.26201e-05
0.00601915
0.00111087
0.000354153
0.00572535
0.00114346
0.0002483
0.00505001
0.00113234
-0.000260773
0.00693241
0.00142667
0.000162793
0.00642841
0.00107737
0.000371776
0.00529984
0.000768089
0.000284522
0.00594524
0.000483051
3.44915e-05
0.00652694
0.000821987
5.3131e-05
0.00632287
0.000809811
0.000158384
0.0052042
0.000704831
0.000227098
0.00467242
0.000774725
6.29881e-05
0.00463473
0.000711024
-0.000335965
0.0050981
0.00124744
-0.000161023
0.00494083
0.000870594
-4.87471e-05
0.00575796
0.000408591
-0.000201373
0.00483457
0.000154501
0.000132379
0.00488411
-2.28841e-05
-0.000211168
0.00592919
0.000104664
4.20807e-05
0.00584297
-2.19252e-05
-7.7039e-05
0.00560813
7.69774e-05
-5.02506e-05
0.00601389
0.000234851
-0.000219771
0.00516158
0.000387549
-0.000288049
0.00513512
0.000584017
-0.000269741
0.00452347
0.0007289
-0.000370754
0.00458111
0.000660184
-0.000441299
0.0041799
0.00033041
-0.000340609
0.0044838
1.00767e-05
-0.000243871
0.0057569
-0.000206767
-2.61584e-05
0.00552494
-0.000113687
-4.68422e-05
0.0056748
-8.02478e-06
-0.000139213
0.00532264
0.00010474
-0.000338869
0.0048923
0.000103612
-3.44383e-05
0.00477634
2.47106e-05
-0.000263626
0.00433958
0.00043095
-0.000364746
0.00326919
0.000457531
-0.000471902
0.00314625
0.000546713
-0.000564646
0.00405922
0.000467178
-0.00057983
0.00400548
0.00034804
-0.000233822
0.00461766
0.000166812
-9.30527e-05
0.004878
7.82043e-05
-4.81264e-05
0.00500891
0.000180885
-0.000238137
0.00509596
7.47274e-05
-0.000156621
0.0050536
2.78669e-07
0.000136128
0.00451514
5.04984e-06
0.000191385
0.00406729
-8.23128e-06
-0.000651798
0.00255299
0.000142396
-0.000576507
0.00342876
0.00017269
-0.000481216
0.00276568
0.00019844
-0.000445232
0.00366168
0.000192494
-0.000443006
0.00421679
0.000131521
-0.000431202
0.0043168
-3.64038e-05
-0.000221321
0.00437656
-0.000158273
-0.000184822
0.00451171
-0.00011856
-0.000159179
0.00491778
-9.37764e-05
3.00587e-05
0.00456785
-0.000147367
0.000236856
0.00349287
-0.000145725
0.000226194
0.00312413
-0.000168557
6.98492e-05
0.00264294
-0.000240297
-0.000432155
0.00214073
-2.87567e-05
-0.000397814
0.00323042
6.56218e-05
-0.000358956
0.00355026
4.74594e-05
-0.000299279
0.0037574
-1.09625e-05
-0.000267215
0.00408847
-7.48226e-05
-0.000264216
0.00411606
-0.000117496
-0.000121742
0.00429193
-0.000180225
-6.68176e-05
0.00419102
-0.000153614
-2.49906e-05
0.0044743
-0.000119921
0.000147846
0.00354792
-8.75064e-05
0.000274902
0.0024058
-0.000108663
0.00018798
0.00213059
-0.000173777
5.24903e-05
0.00291148
-0.000203846
0.000149291
0.00266184
-0.000204363
-0.000186366
0.00197428
-3.35864e-05
-0.000190979
0.00262547
-1.37394e-05
-0.00019304
0.00369126
1.75415e-06
-0.000149349
0.00362861
-1.64261e-05
-0.000114268
0.00370902
-3.40014e-05
-0.000117063
0.00388573
-5.06478e-05
-7.182e-05
0.00397062
-6.07095e-05
2.65715e-05
0.00363567
-5.73828e-05
6.59285e-05
0.00332201
-3.5414e-05
0.000140592
0.00254806
-1.56512e-05
0.000145362
0.00148098
-3.0157e-05
0.000126413
0.00191447
-3.65777e-05
7.41054e-05
0.00230801
-3.43833e-05
8.43586e-05
0.00239084
-3.01463e-05
8.63159e-05
0.00288811
-3.04148e-05
-3.4449e-05
0.00452719
0.00374448
-9.94253e-05
0.00463198
0.00385804
6.82831e-05
0.00454969
0.0038921
-0.000150572
0.00484771
0.0036388
-0.000230089
0.00478562
0.00362254
-0.00022458
0.00500281
0.00364465
0.000103414
0.00504019
0.00340263
0.000208628
0.00496625
0.00332621
8.89561e-05
0.0053069
0.00339037
-0.000144748
0.00504533
0.00322233
0.000182823
0.0050797
0.00312677
0.000248853
0.0049429
0.00304885
0.000113403
0.00554814
0.00294043
0.000102072
0.00540094
0.00293652
9.74534e-05
0.00551438
0.00281623
0.000439352
0.00546486
0.00276198
0.000235848
0.00616453
0.00269492
0.000312177
0.00599291
0.0026703
0.000224508
0.00577817
0.00268382
0.000355526
0.00549931
0.00255499
0.00054491
0.00536731
0.00241658
0.000384341
0.0063717
0.00245968
0.000433661
0.0063695
0.00236692
4.87956e-05
0.00622999
0.00235714
0.000171427
0.00600528
0.00231615
0.000455687
0.00577808
0.00219244
0.000653318
0.00552125
0.00206788
0.00017177
0.00646264
0.0022672
0.000374783
0.00670482
0.0021625
0.00014159
0.00671875
0.00214555
0.000301716
0.0064027
0.00204886
0.00049773
0.0060965
0.00193555
0.000630239
0.00602814
0.00178027
0.000689287
0.00582487
0.00165381
8.36986e-05
0.00644342
0.00200171
0.000341292
0.0065463
0.00192413
0.000169007
0.00636289
0.00191541
0.000366798
0.00624299
0.00180126
0.000568458
0.00602276
0.0016143
0.000474233
0.0058352
0.00142371
0.000571385
0.00553683
0.00129295
0.000441864
0.00496163
0.00127543
-7.98119e-06
0.0064548
0.00162056
0.000209536
0.00657436
0.00147958
0.000350793
0.00652319
0.00141658
0.000383741
0.00633096
0.00144691
0.000300768
0.00600573
0.00121158
0.000160132
0.00625664
0.00105713
0.00038065
0.00560101
0.00101294
0.000408728
0.00503432
0.000977533
0.000472757
0.00452072
0.000688376
-0.000212045
0.00682822
0.0015612
9.60164e-05
0.00631438
0.00128367
0.000254032
0.00524974
0.00082469
5.59558e-05
0.00560587
0.00085013
0.000129381
0.0064011
0.000611893
9.41745e-05
0.00605048
0.000789034
0.0003404
0.00516565
0.000550042
0.000142649
0.00483923
0.000318333
0.000173043
0.0048885
0.000297657
1.99116e-05
0.00455696
0.000412623
-0.000289475
0.00513747
0.00123059
-0.000243932
0.00519656
0.000965909
-5.08012e-06
0.00564782
0.000615062
-0.000120488
0.00469062
0.000231723
-6.29564e-05
0.00476012
8.36419e-07
-0.000242447
0.00586507
3.9809e-05
-0.00012995
0.00610959
-5.81694e-05
-4.8619e-05
0.00558852
-5.35366e-07
-0.000166849
0.00591395
0.000204547
-0.00039362
0.00510962
0.000341557
-0.000154806
0.00520837
0.000397523
-0.000107461
0.00499498
0.000569464
-0.00021089
0.00426439
0.000689241
-0.000318795
0.00447282
0.000684079
-0.000420867
0.00430166
0.000394648
-0.000407304
0.00457421
6.74656e-05
-0.000127579
0.00576051
-9.97815e-05
-6.12102e-05
0.00536373
-7.74062e-05
6.23638e-05
0.00535528
9.53478e-05
-0.000306461
0.00519457
0.00018837
-0.000356165
0.00505455
0.000142037
-3.05513e-05
0.00500969
3.69428e-05
0.000137619
0.00418379
4.61607e-05
-0.000316168
0.0041492
0.000315449
-0.000399325
0.00325158
0.000271377
-0.000424591
0.00307259
0.000474561
-0.000529403
0.00419885
0.000491248
-0.000545491
0.00420641
0.000368728
-0.000232259
0.00462324
0.000143518
-0.000147774
0.00487512
9.61448e-05
-0.000255555
0.0050365
0.000121342
-0.000218574
0.00521723
0.000119001
-9.78606e-05
0.00522157
3.46783e-05
0.000122955
0.00461064
1.86771e-05
0.000170798
0.00414362
-1.58843e-05
0.00027341
0.00317038
-0.000135909
-0.000656278
0.00273555
7.35072e-05
-0.000517538
0.0035986
9.22764e-05
-0.000444606
0.00286929
0.000154728
-0.000419634
0.00370892
0.000271554
-0.000419461
0.00446098
0.00010055
-0.000416861
0.00458048
2.04881e-05
-0.000208594
0.00457415
-0.00014714
-0.000137048
0.00452682
-0.000103152
-0.000170465
0.00503836
-9.36674e-05
0.000105916
0.004651
-0.000134994
0.000295203
0.00350593
-0.000180727
0.000130225
0.00321139
-0.000175227
0.000136337
0.00265553
-0.000264996
0.000377296
0.00195403
-0.000323301
-0.000394952
0.00234001
-6.74516e-05
-0.000360263
0.00334748
2.34607e-05
-0.000327247
0.00371336
3.67364e-05
-0.000268621
0.0039194
4.72662e-06
-0.000203013
0.00423356
-6.73017e-05
-0.000240212
0.00428144
-0.00011705
-0.000126005
0.00440485
-0.000176227
-5.10645e-05
0.00424276
-0.000154327
-8.17042e-06
0.00450972
-0.000114944
0.000180987
0.00347282
-8.52182e-05
0.000255197
0.00232374
-0.000115276
0.00015046
0.00216816
-0.000170273
7.42058e-05
0.00294435
-0.000206749
0.000161669
0.00258922
-0.000208538
0.000235187
0.00221273
-0.000210515
-0.000187428
0.00216779
-3.01645e-05
-0.000181461
0.00278546
-1.21142e-05
-0.000183541
0.00385928
1.78573e-06
-0.000137256
0.00378279
-1.5164e-05
-9.9572e-05
0.00382755
-3.53883e-05
-9.5859e-05
0.00399901
-5.14307e-05
-1.62732e-05
0.00399788
-6.16307e-05
4.60541e-05
0.00358461
-5.57028e-05
7.43277e-05
0.00322611
-3.5808e-05
0.000149146
0.00237923
-1.57295e-05
0.000152556
0.00134324
-3.04692e-05
0.000135336
0.00178568
-3.67047e-05
7.99523e-05
0.00222685
-3.53793e-05