/*--------------------------------*- C++ -*----------------------------------*\
  =========                 |
  \\      /  F ield         | OpenFOAM: The Open Source CFD Toolbox
   \\    /   O peration     | Website:  https://openfoam.org
    \\  /    A nd           | Version:  7
     \\/     M anipulation  |
\*---------------------------------------------------------------------------*/
FoamFile
{
    version     2.0;
    format      ascii;
    class       volVectorField;
    location    "3";
    object      U;
}
// * * * * * * * * * * * * * * * * * * * * * * * * * * * * * * * * * * * * * //

dimensions      [0 1 -1 0 0 0 0];

internalField   nonuniform List<vector> 
18630
(
(0.853983 -1.46121 -0.0729147)
(0.292808 -1.56623 0.378924)
(0.846189 -1.44731 -0.128496)
(0.469522 -1.80813 -0.301806)
(-0.322819 -2.03476 0.995793)
(0.306289 -1.55464 0.324735)
(-0.085477 -1.80578 0.335862)
(0.837561 -1.43583 -0.18225)
(0.46731 -1.83757 -0.415318)
(0.0591246 -2.24812 0.181942)
(-2.08227 -0.252407 1.0235)
(-0.192384 -2.00536 1.15882)
(-0.399726 -2.14545 0.869264)
(0.326502 -1.55135 0.228194)
(-0.0681602 -1.84886 0.452965)
(-0.00500565 -2.19816 0.365714)
(0.825094 -1.42711 -0.243072)
(0.498304 -1.85819 -0.596754)
(0.0713747 -2.25928 0.173455)
(-0.0942108 -2.07037 -0.0881773)
(-1.66027 -1.98875 1.76026)
(-2.01749 -0.587696 1.08712)
(-1.98426 -1.35897 1.07022)
(-0.173181 -1.98813 1.17149)
(-0.338534 -2.18635 0.890075)
(-0.220865 -2.07179 1.09066)
(0.362754 -1.55088 0.120373)
(-0.0801349 -1.88584 0.751615)
(0.0373827 -2.22454 0.327028)
(-0.239129 -2.01073 0.244133)
(0.806532 -1.42419 -0.288033)
(0.508143 -1.86691 -0.787862)
(0.0766188 -2.26702 0.181293)
(-0.0993429 -2.07285 -0.0122085)
(-0.43886 -1.88557 -0.440065)
(-2.8187 -1.26952 2.09367)
(-1.68115 -2.00511 1.7228)
(-1.85738 -1.70756 1.68032)
(-1.95537 -0.869269 1.22831)
(-1.78114 -1.65365 0.981292)
(-1.50242 -1.76922 1.07406)
(-0.123538 -1.98162 1.19686)
(-0.299973 -2.19763 0.934288)
(-0.125588 -2.05789 1.14784)
(-0.505 -1.81049 1.1125)
(0.407955 -1.55156 -0.00409925)
(-0.03199 -1.9318 0.985185)
(0.0501374 -2.21536 0.432453)
(-0.20992 -2.02372 0.35521)
(-0.563869 -1.88715 0.00769033)
(0.801718 -1.4196 -0.344457)
(0.495957 -1.86095 -0.737692)
(0.0792926 -2.27073 0.218974)
(-0.0994763 -2.07219 -0.00666548)
(-0.464533 -1.88297 -0.456264)
(-0.675113 -1.88803 -0.92453)
(-3.45353 -1.35068 2.16489)
(-2.86741 -1.1043 2.04225)
(-2.624 -0.703604 2.02086)
(-1.60491 -2.0544 1.75324)
(-1.69114 -2.04657 1.29677)
(-2.16632 -1.29206 1.30695)
(-1.84526 -1.18187 1.45022)
(-1.74652 -1.71391 1.00136)
(-1.32632 -1.81336 1.20472)
(-1.25419 -1.76047 0.91977)
(-0.0689449 -2.00797 1.18217)
(-0.240688 -2.24606 0.947242)
(-0.081662 -2.09058 1.13961)
(-0.466856 -1.92027 1.03135)
(-0.684536 -1.81399 0.242566)
(0.463709 -1.56542 -0.109513)
(0.0385881 -2.00721 1.01584)
(0.0477858 -2.2116 0.481326)
(-0.225287 -2.03118 0.328807)
(-0.572119 -1.945 -0.167383)
(-0.869997 -1.7228 -0.35438)
(0.796908 -1.42534 -0.400413)
(0.512073 -1.83902 -0.696717)
(0.0940664 -2.27433 0.247967)
(-0.115424 -2.07035 0.00882736)
(-0.42931 -1.91581 -0.407317)
(-0.696416 -1.86969 -0.921495)
(-1.25161 -1.3517 -1.46136)
(-3.52835 -0.83246 2.55043)
(-3.46929 -1.04056 2.20453)
(-3.32829 -1.00168 2.00686)
(-2.56741 -1.40984 2.14851)
(-2.42128 -1.04645 2.07687)
(-2.77063 -1.19485 1.1406)
(-1.70294 -2.07877 1.66543)
(-1.51749 -2.2847 1.06673)
(-2.132 -1.36128 1.30764)
(-1.94856 -1.19613 0.801272)
(-1.85925 -1.40435 1.55679)
(-1.59629 -1.88788 1.0536)
(-1.13195 -1.89433 1.32826)
(-1.00678 -2.00077 0.86713)
(-1.5091 -1.29495 1.15591)
(-0.00277798 -2.0577 1.11034)
(-0.197233 -2.27499 1.01309)
(-0.0200653 -2.09899 1.18249)
(-0.488307 -1.9142 1.14559)
(-0.69669 -1.85465 0.539949)
(-0.928312 -1.63804 -0.145543)
(0.514183 -1.56281 -0.267048)
(0.0971929 -2.10304 0.966894)
(0.0501005 -2.22716 0.445999)
(-0.230106 -2.03239 0.36877)
(-0.612842 -1.86941 -0.479977)
(-0.909282 -1.69342 -0.522892)
(-1.29393 -1.52338 -1.15348)
(0.814555 -1.42963 -0.457278)
(0.535082 -1.86023 -0.601069)
(0.099781 -2.27156 0.27122)
(-0.125047 -2.08242 0.0298441)
(-0.511837 -1.91135 -0.385749)
(-0.702594 -1.86629 -0.945136)
(-1.25172 -1.34025 -1.47318)
(-1.70129 -0.628422 -1.18425)
(-3.23575 -0.640619 2.31592)
(-3.43804 -0.903074 2.46507)
(-3.35284 -0.709426 2.33627)
(-3.24572 -1.26615 2.24518)
(-3.17829 -1.28274 2.26715)
(-2.90754 -0.867067 2.21762)
(-2.37548 -1.68184 2.15763)
(-2.5904 -1.23325 1.66521)
(-2.78303 -1.285 0.908142)
(-2.62583 -1.04794 1.20963)
(-1.65124 -2.20202 1.59363)
(-1.55728 -2.20067 1.13449)
(-2.08815 -1.39875 1.27039)
(-2.01083 -1.15713 0.674946)
(-2.32159 -1.31145 0.433344)
(-1.58563 -1.85327 1.62681)
(-1.48191 -2.0757 1.03968)
(-0.947186 -2.02131 1.43839)
(-0.975694 -1.97999 0.933599)
(-1.37001 -1.3644 1.20715)
(-1.86504 -1.20978 1.10514)
(0.0152494 -2.10036 1.02396)
(-0.0958854 -2.31463 1.1122)
(0.0215665 -2.07185 1.23479)
(-0.488262 -1.9503 1.15043)
(-0.662475 -1.90635 0.790282)
(-0.912502 -1.67913 -0.0681079)
(-1.47536 -1.50239 -0.679106)
(0.58673 -1.61766 -0.146101)
(0.151736 -2.16985 0.943624)
(0.0367264 -2.21194 0.545163)
(-0.238904 -2.05921 0.28757)
(-0.64337 -1.90566 -0.457796)
(-0.931792 -1.6956 -0.631916)
(-1.29844 -1.52667 -1.18752)
(-1.62362 -1.0789 -1.18189)
(0.815445 -1.43201 -0.526961)
(0.537461 -1.86951 -0.581407)
(0.119615 -2.27272 0.264236)
(-0.110592 -2.08229 0.0216956)
(-0.453153 -1.93001 -0.466023)
(-0.73502 -1.85426 -0.92785)
(-1.26039 -1.3691 -1.47081)
(-1.6913 -0.636805 -1.19525)
(-1.82887 -0.181624 -1.40322)
(-3.12348 -0.699119 2.423)
(-3.24346 -0.715546 2.37325)
(-3.2475 -0.608533 2.42889)
(-3.20656 -1.13762 2.35916)
(-3.13054 -1.03711 2.3825)
(-3.07191 -0.669453 2.57784)
(-3.08665 -1.65464 2.16471)
(-3.3911 -1.01737 1.72089)
(-2.92718 -0.496504 2.02688)
(-2.83841 -0.913082 1.85324)
(-2.29565 -1.7796 2.19049)
(-1.74521 -1.85973 2.0108)
(-2.64003 -1.16612 1.29237)
(-2.61725 -1.21643 1.23317)
(-2.77779 -0.391675 0.463569)
(-1.48397 -2.41791 1.51482)
(-1.55887 -2.20686 1.14025)
(-1.89192 -1.57934 1.17512)
(-1.7873 -1.39675 0.688414)
(-2.1398 -1.5563 0.0272986)
(-2.65553 -0.939947 -0.245912)
(-1.63162 -1.94006 1.69939)
(-1.21391 -2.27425 1.1449)
(-0.801281 -2.06878 1.55978)
(-0.864913 -2.02147 1.018)
(-1.25554 -1.53652 1.14872)
(-1.79519 -1.3691 1.10384)
(-2.23482 -1.02502 0.138931)
(0.121335 -2.1295 0.887062)
(-0.0560638 -2.32756 1.25908)
(0.0551559 -2.05788 1.2101)
(-0.474525 -2.00826 1.0984)
(-0.67209 -2.05599 0.529129)
(-0.985371 -1.70369 -0.121586)
(-1.50873 -1.16802 -1.06521)
(-2.09613 -0.913714 -0.635017)
(0.683232 -1.6906 -0.0686471)
(0.227721 -2.20953 0.942113)
(0.0250035 -2.1846 0.69401)
(-0.229548 -2.04659 0.480501)
(-0.646061 -1.93205 -0.364446)
(-0.912779 -1.80582 -0.299109)
(-1.30871 -1.54552 -1.14102)
(-1.54676 -1.19132 -1.22148)
(-1.93868 -0.725831 -1.10584)
(0.785863 -1.43611 -0.595209)
(0.556626 -1.87154 -0.558774)
(0.112579 -2.27993 0.306834)
(-0.134522 -2.07685 -0.0427282)
(-0.517942 -1.91164 -0.488533)
(-0.694509 -1.87494 -0.944519)
(-1.27768 -1.36647 -1.49212)
(-1.75596 -0.498038 -1.16892)
(-1.81271 -0.201446 -1.3921)
(-1.75767 0.4668 -0.316429)
(-2.99755 -0.748896 2.54925)
(-3.07929 -1.10781 2.45022)
(-2.97369 -0.896773 2.55275)
(-3.19313 -0.924816 2.43642)
(-3.23592 -0.674106 2.50282)
(-3.22839 -0.334309 2.52342)
(-3.30104 -1.12796 2.12096)
(-2.90334 -1.24792 2.31041)
(-2.82742 -0.977794 2.54679)
(-2.73875 -1.12911 2.68119)
(-2.84531 -1.91513 2.25475)
(-3.29003 -1.08249 1.49815)
(-2.90692 -0.877926 1.52048)
(-2.88306 -1.27681 1.62945)
(-2.85116 -0.861824 1.81938)
(-2.26452 -1.74177 2.26373)
(-1.70492 -1.88584 2.03522)
(-2.36119 -1.61254 1.08007)
(-2.57321 -1.23771 1.33387)
(-2.66208 -0.646167 0.668184)
(-2.75129 -1.03083 0.782261)
(-1.3519 -2.42499 1.58992)
(-1.60954 -2.13671 1.26648)
(-1.75487 -1.76444 1.10287)
(-1.6783 -1.5836 0.73763)
(-2.06247 -1.67195 -0.10592)
(-2.64097 -1.00554 -0.283399)
(-2.54485 -1.00874 -0.0722074)
(-1.6761 -1.93776 1.7301)
(-0.936558 -2.38611 1.3767)
(-0.662908 -2.07758 1.68784)
(-0.793617 -2.07384 1.06883)
(-1.09044 -1.73371 1.11252)
(-1.72805 -1.49582 1.0902)
(-2.19493 -1.18629 -0.0109885)
(-2.5684 -1.17672 0.415765)
(0.211073 -2.16542 0.807218)
(0.00347589 -2.35198 1.31423)
(0.0849609 -2.06456 1.12767)
(-0.451397 -2.06205 1.06831)
(-0.688415 -2.04204 0.794438)
(-0.999001 -1.75102 -0.0371451)
(-1.52477 -1.2597 -1.06556)
(-2.02944 -1.06781 -0.803321)
(-2.12679 -0.811259 -0.444714)
(0.786279 -1.72328 -0.127813)
(0.301447 -2.2482 0.950638)
(0.0346627 -2.17907 0.777873)
(-0.26498 -2.08333 0.61858)
(-0.688233 -1.8861 -0.53784)
(-0.882561 -1.83783 -0.39829)
(-1.25431 -1.56204 -1.18891)
(-1.64399 -1.14865 -1.14726)
(-1.96112 -0.801001 -1.01595)
(-1.91907 0.0889815 -0.540721)
(0.79627 -1.43352 -0.613072)
(0.566013 -1.87681 -0.554946)
(0.144022 -2.29245 0.280924)
(-0.12984 -2.08031 0.0119032)
(-0.487795 -1.91454 -0.488027)
(-0.766828 -1.88565 -0.877036)
(-1.28593 -1.38169 -1.47886)
(-1.69024 -0.675616 -1.20901)
(-1.81759 -0.150829 -1.35992)
(-1.7498 0.430184 -0.320267)
(-1.19215 0.803285 -0.534476)
(-2.68751 -0.665698 2.5721)
(-2.95862 -0.817312 2.5121)
(-2.86623 -0.748989 2.59691)
(-3.09226 -1.12469 2.54682)
(-3.05449 -1.08756 2.49098)
(-3.08114 -0.629789 2.41826)
(-3.17019 -1.05618 2.44489)
(-3.19559 -0.7261 2.49278)
(-3.13899 -0.448348 2.54044)
(-3.01153 -0.498395 2.54933)
(-2.97768 -1.4664 2.29215)
(-2.98914 -0.923176 2.1293)
(-2.77245 -1.09838 2.35103)
(-2.77102 -1.07157 2.58327)
(-2.94023 -0.441929 2.41051)
(-2.8204 -1.99517 2.24271)
(-3.1711 -1.15608 1.53787)
(-2.87277 -0.924856 1.40715)
(-2.92375 -0.478299 1.58734)
(-2.96349 -1.1235 1.53037)
(-2.71808 -1.27245 1.995)
(-1.83832 -1.99179 2.37165)
(-1.52501 -1.95832 2.11582)
(-2.21678 -1.87991 0.964351)
(-2.68704 -0.751992 0.793383)
(-2.64553 -0.752826 0.786511)
(-2.71826 -1.08586 0.73849)
(-2.71968 -1.19063 0.755077)
(-1.31225 -2.30431 1.59643)
(-1.7065 -1.97274 1.42656)
(-1.68333 -1.88804 1.11568)
(-1.30735 -1.94301 0.789807)
(-1.89546 -1.87968 -0.10224)
(-2.59401 -1.07934 -0.310033)
(-2.49601 -1.10992 -0.167979)
(-2.65484 -1.26157 0.0748243)
(-1.50304 -2.09209 1.61488)
(-0.843254 -2.38634 1.43687)
(-0.510289 -2.09145 1.8161)
(-0.735918 -2.14202 1.15404)
(-0.984882 -1.87609 1.06087)
(-1.72672 -1.52098 1.08388)
(-2.157 -1.33157 -0.0170912)
(-2.58157 -1.02627 0.449)
(-2.33511 -0.759427 0.916298)
(0.3976 -2.17972 0.743115)
(0.14983 -2.39975 1.34579)
(0.11561 -2.07456 1.04617)
(-0.454013 -2.09772 1.07226)
(-0.774719 -2.04524 0.903626)
(-0.98193 -1.81597 0.134608)
(-1.43078 -1.56773 -0.77681)
(-1.97744 -1.06202 -0.904346)
(-2.09995 -0.922928 -0.383256)
(-2.00441 -0.535022 -0.431654)
(0.801046 -1.71191 -0.301167)
(0.340076 -2.27427 0.957554)
(0.0357109 -2.1884 0.808015)
(-0.267939 -2.15806 0.536646)
(-0.725496 -1.92063 -0.584063)
(-0.948059 -1.9457 -0.0562642)
(-1.32242 -1.58991 -1.23685)
(-1.48318 -1.34116 -1.20755)
(-1.90456 -0.789057 -1.1781)
(-1.91648 -0.0161129 -0.629928)
(-1.4963 0.522524 -0.458887)
(0.804059 -1.44896 -0.596408)
(0.573789 -1.87263 -0.584023)
(0.155783 -2.30553 0.260165)
(-0.136541 -2.09826 0.0223923)
(-0.51861 -1.93586 -0.493226)
(-0.722651 -1.8927 -0.905782)
(-1.18788 -1.54682 -1.41457)
(-1.74016 -0.62706 -1.19938)
(-1.81041 -0.215189 -1.33833)
(-1.75659 0.42774 -0.313017)
(-1.21029 0.797435 -0.520069)
(-1.34178 0.775637 -0.935882)
(-2.40718 -0.59192 2.57739)
(-2.59907 -0.757516 2.50604)
(-2.68459 -0.782945 2.5683)
(-2.6468 -0.76898 2.53181)
(-2.85214 -0.819347 2.58725)
(-2.9143 -0.827509 2.50732)
(-3.01531 -0.517113 2.36786)
(-3.04495 -1.1144 2.60448)
(-3.05658 -1.01549 2.52408)
(-3.10615 -0.7456 2.4707)
(-2.97351 -0.533483 2.516)
(-3.01966 -1.37436 2.46629)
(-3.06153 -1.00217 2.42871)
(-2.92917 -0.958086 2.51034)
(-2.84656 -0.705557 2.48563)
(-2.93645 -0.470045 2.2414)
(-2.84131 -1.66778 2.30286)
(-2.80755 -1.32844 2.06803)
(-2.78156 -1.16866 2.25667)
(-2.81329 -1.09068 2.30368)
(-2.75277 -0.839806 2.34644)
(-2.82551 -1.06962 1.86705)
(-2.90864 -2.00919 2.22103)
(-3.16847 -1.14772 1.56639)
(-2.75054 -0.925641 1.52109)
(-2.77663 -0.668222 1.49821)
(-2.68483 -1.31717 1.97282)
(-3.02751 -0.893554 1.53882)
(-2.67647 -0.5438 1.56376)
(-1.63862 -2.15412 2.38922)
(-1.38179 -2.00278 2.17515)
(-2.15689 -2.05185 0.592169)
(-2.41587 -0.887393 0.492695)
(-2.68973 -0.707406 0.323771)
(-2.69754 -1.12919 0.510972)
(-2.62592 -1.29849 0.493655)
(-2.55192 -1.14004 0.615015)
(-1.31371 -2.33099 1.34391)
(-1.69298 -1.87697 1.49447)
(-1.54205 -2.0042 1.27854)
(-1.10862 -1.97431 1.05894)
(-1.70131 -1.99947 -0.0571948)
(-2.41396 -1.28094 -0.361835)
(-2.45342 -1.16979 -0.231564)
(-2.61816 -1.35594 0.1683)
(-2.86124 0.185377 -0.437467)
(-1.5027 -2.01792 1.59459)
(-0.537732 -2.32201 1.53922)
(-0.459117 -2.07322 1.84313)
(-0.763275 -2.12729 1.30398)
(-1.00557 -1.80931 1.30865)
(-1.59245 -1.75537 0.914218)
(-2.12073 -1.44659 -0.0483984)
(-2.46168 -1.06109 0.489533)
(-2.13129 -1.17093 0.743274)
(-2.03077 -0.843776 0.0621559)
(0.619582 -2.19397 0.667505)
(0.155542 -2.38501 1.43102)
(0.152971 -2.06839 0.961248)
(-0.425941 -2.14912 1.08409)
(-0.694131 -2.21034 0.57666)
(-1.00698 -1.89944 0.192459)
(-1.39196 -1.57692 -0.813395)
(-1.85575 -1.1742 -0.858546)
(-2.12308 -1.00837 -0.370414)
(-2.07233 0.0630667 -0.815638)
(-1.87675 0.663645 -0.579576)
(0.825755 -1.7149 -0.360161)
(0.369492 -2.27164 0.939756)
(0.0603091 -2.24433 0.626696)
(-0.268567 -2.17181 0.462266)
(-0.712569 -1.99678 -0.499015)
(-0.811196 -1.8254 -0.910123)
(-1.33793 -1.66693 -1.15234)
(-1.66196 -1.17504 -1.20647)
(-1.95423 -0.931546 -0.963413)
(-1.89098 -0.0719757 -0.675029)
(-1.48541 0.502813 -0.501846)
(-1.2028 0.586008 -0.886238)
(0.803789 -1.45771 -0.625032)
(0.578895 -1.87225 -0.61638)
(0.163605 -2.32962 0.219777)
(-0.177974 -2.09284 -0.0448007)
(-0.557708 -1.91654 -0.535078)
(-0.742542 -1.90566 -0.871529)
(-1.40449 -1.28463 -1.46074)
(-1.80531 -0.533119 -1.17311)
(-1.82987 -0.231109 -1.28947)
(-1.78733 0.470675 -0.277224)
(-1.22393 0.788493 -0.504429)
(-1.36436 0.762941 -0.920134)
(-1.30776 0.336777 -0.762424)
(-2.23129 -0.554281 2.64103)
(-2.40546 -0.682625 2.558)
(-2.50788 -0.373983 2.50668)
(-2.59526 -0.78768 2.48905)
(-2.47612 -0.701441 2.5761)
(-2.69697 -0.898335 2.56667)
(-2.64305 -0.870048 2.52182)
(-2.70471 -0.531849 2.4894)
(-2.88477 -0.879187 2.54617)
(-2.94648 -0.65928 2.5174)
(-2.96509 -0.712293 2.36326)
(-2.75022 -0.579273 2.50984)
(-2.99067 -1.22044 2.57697)
(-3.04381 -1.1395 2.44048)
(-3.10791 -1.14725 2.38348)
(-3.04176 -0.707226 2.44921)
(-2.86654 -0.334296 2.37429)
(-2.8719 -1.51799 2.51807)
(-3.02419 -1.12962 2.43608)
(-2.85287 -1.14936 2.51845)
(-2.85683 -0.747794 2.44685)
(-3.02616 -0.595069 2.04462)
(-3.24709 -0.18047 1.57593)
(-2.71883 -1.84187 2.30174)
(-2.76861 -1.39911 2.08585)
(-2.74624 -1.31391 2.23519)
(-2.85948 -1.05542 2.25294)
(-2.73031 -0.985681 2.32186)
(-2.71522 -1.04916 1.72801)
(-2.91952 -0.338366 1.5976)
(-2.51253 -2.35939 2.38774)
(-3.04959 -1.26825 1.74981)
(-2.59666 -1.17991 1.40886)
(-2.88628 -1.10993 0.632664)
(-3.21897 -0.821456 1.04184)
(-2.67637 -1.3705 1.75995)
(-2.60696 -0.654111 1.49556)
(-2.21168 -1.33533 1.14577)
(-1.57663 -2.12968 2.45064)
(-1.42321 -1.98918 2.21311)
(-2.08049 -2.02412 0.672462)
(-1.99919 -1.48988 0.495883)
(-2.65739 -0.198282 0.23159)
(-2.69741 -1.26153 0.276599)
(-2.49427 -1.43658 0.369884)
(-2.6234 -1.125 0.458715)
(-2.75912 -0.665636 0.247399)
(-1.35139 -2.17548 1.34919)
(-1.58722 -1.86154 1.62952)
(-1.32794 -2.11473 1.53993)
(-1.09947 -1.94079 1.18338)
(-1.33432 -2.1147 0.104328)
(-2.3855 -1.31489 -0.353689)
(-2.44001 -1.21876 -0.436594)
(-2.76696 -0.874355 -0.272183)
(-2.70619 -0.407762 -0.0802557)
(-2.16852 -0.752761 0.467062)
(-1.43793 -1.96434 1.66179)
(-0.361234 -2.19309 1.62904)
(-0.360774 -2.00897 1.84768)
(-0.758071 -2.17913 1.38895)
(-0.785359 -2.16372 1.06239)
(-1.66027 -1.73778 0.998016)
(-2.11855 -1.40071 0.0162311)
(-2.27739 -1.33486 0.433767)
(-2.04355 -1.38884 0.522726)
(-2.10425 -0.873603 -0.027163)
(-2.11934 -0.192585 0.0132767)
(0.86134 -2.21493 0.497695)
(0.231954 -2.36496 1.37968)
(0.163318 -2.04599 0.827154)
(-0.409395 -2.12982 1.16591)
(-0.778898 -2.07972 1.13273)
(-0.936098 -2.04 0.334985)
(-1.34209 -1.74428 -0.431723)
(-1.72072 -1.37999 -0.781621)
(-1.99655 -1.3316 -0.226759)
(-2.15005 -0.524273 -0.434829)
(-1.95379 0.610344 -0.785055)
(-1.70651 0.676337 -0.675838)
(0.812222 -1.70036 -0.527268)
(0.396585 -2.25223 0.889853)
(0.0703256 -2.28018 0.496843)
(-0.262971 -2.19759 0.371261)
(-0.755546 -2.05092 -0.428512)
(-0.957018 -1.99413 -0.701855)
(-1.3354 -1.68246 -1.16558)
(-1.62134 -1.18444 -1.28183)
(-1.9508 -0.857266 -1.15542)
(-1.87238 -0.100066 -0.722854)
(-1.4883 0.532804 -0.571151)
(-1.23036 0.476355 -0.956512)
(-1.40882 -0.16418 -1.45467)
(0.820979 -1.47573 -0.606428)
(0.599714 -1.86737 -0.700772)
(0.193043 -2.35042 0.240979)
(-0.158188 -2.09435 -0.0403771)
(-0.511096 -1.94863 -0.495859)
(-0.790134 -1.87206 -0.934168)
(-1.17762 -1.5341 -1.39964)
(-1.78917 -0.594884 -1.18728)
(-1.80461 -0.271742 -1.28258)
(-1.80658 0.527305 -0.2619)
(-1.24031 0.781615 -0.479315)
(-1.36774 0.739416 -0.895705)
(-1.32909 0.331784 -0.746155)
(-1.35045 0.472509 -0.802883)
(-2.19776 -0.456243 2.40994)
(-2.29601 -0.417668 2.49628)
(-2.21943 -0.62155 2.66709)
(-2.33279 -0.42769 2.54462)
(-2.42617 -0.63274 2.56075)
(-2.34081 -0.624186 2.5758)
(-2.40416 -0.432208 2.4568)
(-2.55018 -0.836458 2.48576)
(-2.45342 -0.725737 2.49155)
(-2.5067 -0.590734 2.45021)
(-2.69974 -1.11249 2.51312)
(-2.72823 -0.913439 2.47654)
(-2.74181 -0.725902 2.46044)
(-2.70744 -0.372857 2.43772)
(-2.91134 -1.04519 2.5442)
(-2.93925 -0.987673 2.4243)
(-2.87701 -0.929997 2.40137)
(-2.73644 -0.661861 2.49248)
(-2.74122 -0.322846 2.3272)
(-2.84084 -1.40255 2.61424)
(-3.05608 -1.21386 2.39632)
(-3.0782 -1.18322 2.39676)
(-3.01555 -0.827707 2.41081)
(-2.87419 -0.451331 2.34909)
(-2.89515 -0.25335 2.07536)
(-2.70045 -1.70347 2.52846)
(-2.92059 -1.33012 2.42473)
(-2.78323 -1.32373 2.49583)
(-2.84856 -0.993701 2.36642)
(-3.04256 -0.711381 1.99618)
(-2.98857 -0.549589 1.75623)
(-2.81794 -0.18091 1.69445)
(-2.50589 -2.09756 2.35559)
(-2.76266 -1.55756 2.17033)
(-2.89655 -1.20726 2.14895)
(-2.97408 -1.06685 2.10985)
(-2.64628 -1.20892 2.28332)
(-2.68681 -1.04607 1.75489)
(-2.74467 -0.473731 1.71626)
(-2.49587 -0.414743 1.72186)
(-2.38212 -2.5192 2.42169)
(-2.72785 -1.64686 2.01248)
(-2.37376 -1.21937 1.44505)
(-2.70052 -1.18565 0.836259)
(-2.64262 -1.60591 1.29602)
(-2.98339 -1.14764 1.36293)
(-2.45109 -0.802599 1.42991)
(-2.12115 -0.24902 1.48599)
(-2.20563 -0.530156 1.36615)
(-1.35042 -2.22086 2.43966)
(-1.37604 -2.10141 2.26422)
(-2.05519 -2.05233 0.710649)
(-1.71182 -1.73194 0.732542)
(-2.40968 -0.708141 -0.106861)
(-2.39073 -1.69963 0.116811)
(-2.48073 -1.46072 0.361334)
(-2.47916 -1.19313 -0.0311087)
(-2.79318 -0.92516 0.350765)
(-2.41458 -0.942894 0.724525)
(-1.49839 -2.06048 1.306)
(-1.47872 -1.81032 1.63965)
(-1.18103 -2.15834 1.75044)
(-1.11082 -1.95306 1.28772)
(-1.24514 -2.10509 0.207539)
(-2.33393 -1.47543 -0.406727)
(-2.57896 -0.93394 -0.525292)
(-2.59585 -1.12044 -0.45317)
(-2.49568 -0.9273 0.15851)
(-2.15035 -0.964003 0.435393)
(-2.26623 -0.180131 -0.0968849)
(-0.616761 -2.34881 1.54618)
(-0.184657 -2.09423 1.46131)
(-0.336184 -1.93492 1.71364)
(-0.666916 -2.24193 1.52893)
(-0.79325 -2.12771 1.26604)
(-1.35176 -2.07217 0.940202)
(-1.76673 -1.73064 0.104824)
(-2.12187 -1.44979 0.357171)
(-2.07421 -1.39016 0.611652)
(-2.22262 -0.939062 -0.103055)
(-2.17983 -0.291461 -0.0132959)
(-1.98943 0.0741543 -0.0183042)
(0.981764 -2.21541 0.336349)
(0.257791 -2.3659 1.18686)
(0.186895 -1.98425 0.556967)
(-0.423802 -2.13004 1.1754)
(-0.775001 -2.323 0.676332)
(-0.910934 -2.16625 0.378786)
(-1.43928 -1.60882 -0.743229)
(-1.69996 -1.43789 -0.740986)
(-1.95611 -1.43518 -0.305651)
(-2.11812 -0.62927 -0.385153)
(-1.96677 0.288734 -0.641097)
(-1.69839 0.414027 -0.690199)
(-1.25066 -0.235599 -0.647817)
(0.773982 -1.66762 -0.727668)
(0.381695 -2.22246 0.763575)
(0.0828037 -2.29354 0.371916)
(-0.299151 -2.22187 0.299631)
(-0.762313 -2.0628 -0.61313)
(-0.919822 -2.05517 -0.53927)
(-1.42659 -1.62709 -1.26013)
(-1.58708 -1.29769 -1.36156)
(-2.00953 -1.00588 -0.979348)
(-1.88386 -0.19688 -0.742821)
(-1.51802 0.438805 -0.577073)
(-1.23897 0.501001 -1.04534)
(-1.41592 -0.0880247 -1.49775)
(-1.37682 0.175161 -1.57339)
(0.833138 -1.50939 -0.55208)
(0.625335 -1.88137 -0.829505)
(0.236585 -2.36985 0.230893)
(-0.2028 -2.09876 -0.164872)
(-0.580685 -1.933 -0.543889)
(-0.717981 -1.94763 -0.884474)
(-1.11531 -1.65435 -1.39965)
(-1.73648 -0.71229 -1.2414)
(-1.79914 -0.291896 -1.28532)
(-1.81492 0.54169 -0.263925)
(-1.25073 0.765296 -0.458687)
(-1.37031 0.701673 -0.882739)
(-1.37195 0.352819 -0.749877)
(-1.35944 0.472418 -0.796127)
(-1.5501 0.434234 -0.603922)
(-2.11861 -0.195816 2.32004)
(-2.17056 -0.391139 2.45462)
(-2.17146 -0.0307891 2.44943)
(-2.23451 -0.645562 2.48167)
(-2.20358 -0.22919 2.4375)
(-2.20747 -0.76375 2.68203)
(-2.35618 -0.564245 2.54)
(-2.35752 -0.333157 2.46302)
(-2.48902 -0.732134 2.53991)
(-2.30365 -0.868038 2.52985)
(-2.41748 -0.33355 2.42715)
(-2.30739 -0.180531 2.44775)
(-2.5199 -0.901715 2.47083)
(-2.47948 -0.727307 2.48015)
(-2.53858 -0.655603 2.45909)
(-2.68308 -0.350261 2.2847)
(-2.68927 -1.24132 2.48127)
(-2.77363 -0.915758 2.43144)
(-2.71027 -0.765555 2.47337)
(-2.59189 -0.61278 2.47074)
(-2.57091 -0.120975 2.33294)
(-2.88798 -1.23951 2.49086)
(-2.93096 -1.07606 2.39122)
(-2.80528 -1.13494 2.36928)
(-2.76637 -0.772344 2.39892)
(-2.73557 -0.447767 2.30377)
(-2.67417 -0.132544 2.18806)
(-2.69709 -1.60043 2.65095)
(-2.98247 -1.37924 2.38808)
(-3.01355 -1.35518 2.36907)
(-2.95438 -1.05613 2.36134)
(-2.93286 -0.566286 2.26347)
(-2.96034 -0.282468 2.08474)
(-2.83109 -0.161009 2.01274)
(-2.66192 -1.80094 2.53868)
(-2.87563 -1.43238 2.42215)
(-2.70496 -1.4797 2.4252)
(-2.83458 -1.10997 2.3097)
(-2.9415 -0.698231 2.10528)
(-2.78654 -0.736466 1.94729)
(-2.70441 -0.315429 1.70847)
(-2.44833 -0.126297 1.64399)
(-2.35777 -2.2078 2.36196)
(-2.6543 -1.84701 2.22224)
(-2.95625 -1.20198 2.10187)
(-2.91503 -1.27292 1.95198)
(-2.86947 -0.98057 1.96742)
(-2.75968 -1.07877 1.75282)
(-2.72089 -0.572548 1.46492)
(-2.36574 -0.442947 1.64947)
(-2.12689 -0.211582 1.62424)
(-2.26779 -2.56386 2.56734)
(-2.59729 -1.87208 2.23137)
(-2.26067 -1.32696 1.58999)
(-2.3689 -1.53203 1.04996)
(-2.78275 -1.84665 0.726072)
(-2.68297 -1.44075 1.46672)
(-2.43045 -0.425716 1.41184)
(-2.28667 -0.660095 0.896021)
(-2.1942 -0.621792 1.17216)
(-2.12051 -0.651656 1.03002)
(-1.26177 -2.31365 2.33188)
(-1.45423 -2.12647 2.31816)
(-2.00406 -1.97302 1.13833)
(-1.57852 -1.84764 0.849318)
(-2.00524 -1.34992 -0.151067)
(-2.18872 -1.96039 0.0338786)
(-2.44619 -1.62919 0.290437)
(-2.43816 -1.11909 -0.443003)
(-2.63663 -1.24776 0.360451)
(-2.17752 -1.30654 0.531591)
(-2.33102 -0.930737 0.844693)
(-1.5712 -2.0148 1.47494)
(-1.33804 -1.7615 1.45842)
(-1.1042 -2.11063 1.76557)
(-1.01614 -2.00862 1.47191)
(-1.19228 -2.13787 0.32925)
(-2.4322 -1.49622 -0.179906)
(-2.45958 -1.09195 -0.571488)
(-2.56011 -1.05357 -0.00885554)
(-2.12791 -1.47339 0.412805)
(-2.10067 -1.30925 0.348629)
(-2.34 -0.445818 0.0951175)
(-2.02423 -0.198615 0.219278)
(-0.222773 -2.45084 1.45233)
(-0.0365115 -2.05296 1.1397)
(-0.224282 -1.87326 1.27647)
(-0.677909 -2.25672 1.61078)
(-0.839554 -2.16824 1.41594)
(-1.11173 -2.31145 0.850462)
(-1.63971 -1.84735 0.139635)
(-1.81605 -1.69174 0.367791)
(-2.10427 -1.45506 0.777544)
(-2.30936 -1.02969 -0.11785)
(-2.22652 -0.383599 0.0981119)
(-2.03228 -0.15622 0.0480721)
(-1.60332 0.0601324 -0.0282586)
(1.00027 -2.1662 0.0738141)
(0.240192 -2.33584 0.934464)
(0.107923 -1.91351 0.303073)
(-0.403918 -2.14105 1.10883)
(-0.720644 -2.36225 0.512284)
(-0.972681 -2.28996 0.506716)
(-1.45551 -1.77899 -0.705337)
(-1.68593 -1.51748 -0.668322)
(-1.95693 -1.50335 -0.279657)
(-2.20132 -0.522223 -0.50522)
(-1.84386 0.506482 -0.98306)
(-1.62848 0.00968826 -0.688677)
(-1.26372 -0.244866 -0.761601)
(-1.09514 0.594919 -1.52585)
(0.770318 -1.67989 -0.85065)
(0.394804 -2.18631 0.324833)
(0.0904748 -2.30886 0.176268)
(-0.325534 -2.2155 0.334719)
(-0.770339 -2.12747 -0.470528)
(-0.905481 -2.03533 -0.442932)
(-1.33969 -1.77844 -1.17646)
(-1.60674 -1.38229 -1.38259)
(-1.97068 -1.04898 -0.913088)
(-1.87929 -0.202813 -0.744736)
(-1.51375 0.475432 -0.592762)
(-1.31906 0.30152 -1.02494)
(-1.47367 -0.128128 -1.51546)
(-1.36653 0.12338 -1.59229)
(-1.22219 0.411522 -1.49424)
(0.939619 -1.50923 -0.425935)
(0.629098 -1.86015 -0.872213)
(0.264088 -2.35974 0.218638)
(-0.17737 -2.13091 -0.13379)
(-0.586009 -1.9219 -0.578253)
(-0.805467 -1.93575 -0.899188)
(-1.43551 -1.36787 -1.42893)
(-1.79979 -0.675764 -1.19433)
(-1.7884 -0.334772 -1.29657)
(-1.81511 0.50985 -0.270211)
(-1.24818 0.748365 -0.452445)
(-1.36876 0.674537 -0.875252)
(-1.37217 0.324019 -0.769262)
(-1.37486 0.44221 -0.806601)
(-1.56485 0.426764 -0.568695)
(-1.2654 0.426391 -0.76896)
(-1.98013 -0.200215 2.34987)
(-2.11326 -0.364238 2.34166)
(-2.17681 -0.291986 2.14882)
(-2.1458 -0.432296 2.49964)
(-2.11904 -0.682401 2.4052)
(-2.00103 -0.301793 2.48881)
(-2.19346 -0.721239 2.47306)
(-2.2801 -0.295657 2.41872)
(-2.2858 -0.127986 2.40291)
(-2.33443 -0.817478 2.57914)
(-2.35057 -0.607201 2.53554)
(-2.33128 -0.46059 2.42041)
(-2.28637 -0.228637 2.35359)
(-2.36243 -0.975132 2.62837)
(-2.23004 -0.762382 2.6984)
(-2.37216 -0.578287 2.47069)
(-2.40489 -0.181694 2.42446)
(-2.40999 0.0154903 2.30702)
(-2.50332 -0.964962 2.50159)
(-2.53261 -0.846442 2.44169)
(-2.57533 -0.752618 2.44731)
(-2.57886 -0.306106 2.34176)
(-2.30491 -0.157207 2.43322)
(-2.75596 -1.29193 2.40311)
(-2.75433 -0.976671 2.43943)
(-2.59624 -1.02176 2.46885)
(-2.51248 -0.780212 2.44585)
(-2.62999 -0.356674 2.25071)
(-2.56599 0.0299342 2.18255)
(-2.67863 -1.6016 2.49941)
(-2.83553 -1.25712 2.42033)
(-2.75258 -1.21357 2.38085)
(-2.80219 -0.828732 2.34923)
(-2.73658 -0.557217 2.3215)
(-2.6991 -0.254055 2.14649)
(-2.66521 0.139309 2.00936)
(-2.56481 -1.88993 2.63654)
(-2.8787 -1.55752 2.39034)
(-2.94318 -1.37883 2.39105)
(-2.91844 -0.987486 2.4333)
(-2.94113 -0.641268 2.25677)
(-2.93702 -0.317427 2.10475)
(-2.84474 -0.167432 1.91509)
(-2.54595 -0.169071 1.77493)
(-2.49611 -1.93507 2.56011)
(-2.74111 -1.70039 2.42548)
(-2.68465 -1.64039 2.3917)
(-2.8619 -1.11439 2.34031)
(-2.66178 -1.0718 2.24074)
(-2.66631 -0.853687 1.95758)
(-2.64609 -0.496875 1.65189)
(-2.44764 -0.0539314 1.62857)
(-2.13037 0.236791 1.62188)
(-2.17034 -2.30482 2.35196)
(-2.49696 -2.11419 2.19334)
(-2.79484 -1.71569 1.89613)
(-2.6326 -1.57657 1.98262)
(-2.73484 -0.913375 2.1346)
(-2.93852 -1.0303 1.51474)
(-2.63853 -0.800098 1.34312)
(-2.3543 -0.572017 1.47283)
(-2.23108 -0.149736 1.21616)
(-1.90244 -0.133541 0.400774)
(-2.13772 -2.59188 2.64936)
(-2.10467 -2.27914 2.54417)
(-2.07042 -1.49434 2.02337)
(-2.38805 -1.45947 1.08169)
(-2.35252 -1.67802 1.71983)
(-2.46964 -1.4299 1.36354)
(-2.31532 -1.09865 1.15651)
(-2.22921 -0.948139 0.445914)
(-2.19512 -0.921251 0.206532)
(-1.98148 -0.958967 -0.194287)
(-2.01649 -0.400543 0.348279)
(-1.37846 -2.17158 2.29056)
(-1.43862 -2.19614 2.3487)
(-1.90098 -2.05856 1.45952)
(-1.43368 -1.82477 1.22866)
(-1.63376 -1.61912 0.0407641)
(-2.17979 -1.9823 0.164295)
(-2.4047 -1.88761 0.122504)
(-2.45954 -1.1746 -0.527062)
(-2.47008 -1.40529 0.446784)
(-2.15082 -1.28698 0.405888)
(-2.36466 -0.972083 0.839285)
(-2.02452 -0.181643 0.787492)
(-1.43093 -2.01535 1.58544)
(-0.988846 -1.81354 1.21367)
(-1.01649 -2.03795 1.7458)
(-0.966618 -2.11104 1.55579)
(-1.09734 -2.21309 0.445105)
(-2.44747 -1.4546 -0.0473603)
(-2.23085 -1.38665 -0.284589)
(-1.9608 -1.63947 0.217594)
(-2.02149 -1.63166 0.444172)
(-2.16137 -1.31938 0.489673)
(-2.33556 -0.725415 0.371875)
(-2.01009 -0.309078 0.0960085)
(-1.79763 0.288315 0.00847512)
(0.0727396 -2.44643 1.24801)
(-0.0544833 -1.94549 0.509058)
(-0.112543 -1.88628 0.465837)
(-0.624463 -2.30889 1.5931)
(-0.822965 -2.23773 1.48918)
(-1.00229 -2.37707 0.829296)
(-1.61058 -1.92108 0.085598)
(-1.87444 -1.67978 0.441709)
(-1.98905 -1.76656 0.393015)
(-2.3556 -1.0604 -0.00251678)
(-2.26659 -0.471467 0.311671)
(-1.99042 -0.485522 0.0286801)
(-1.61591 0.276007 -0.136125)
(-1.51308 0.882049 -0.869746)
(0.838817 -2.07237 -0.478547)
(0.165468 -2.26486 0.577751)
(0.0678611 -1.82371 -0.139412)
(-0.368129 -2.106 0.990399)
(-0.926561 -2.13551 1.26221)
(-0.952134 -2.40286 0.381593)
(-1.42127 -1.91153 -0.335742)
(-1.62766 -1.56666 -0.592526)
(-1.92863 -1.62233 -0.212321)
(-2.35158 -0.575039 -0.548751)
(-2.0458 -0.0499381 -0.751396)
(-1.59373 -0.305469 -0.611551)
(-1.30014 -0.194076 -0.811776)
(-1.11482 0.600074 -1.64075)
(-1.05608 1.09282 -1.42031)
(0.77377 -1.69036 -0.963261)
(0.447476 -2.16353 -0.107669)
(0.145127 -2.31601 0.00818153)
(-0.327486 -2.20012 0.373912)
(-0.750769 -2.16929 -0.283843)
(-0.965015 -2.06101 -0.472924)
(-1.37941 -1.72666 -1.26904)
(-1.5915 -1.37439 -1.38939)
(-1.93347 -1.10024 -0.891235)
(-1.8762 -0.207586 -0.753615)
(-1.55194 0.463094 -0.553621)
(-1.29045 0.364382 -1.09736)
(-1.50412 -0.207575 -1.4872)
(-1.35301 0.143332 -1.60821)
(-1.17557 0.35176 -1.52826)
(-0.649456 0.507131 -1.64345)
(0.791467 -1.51368 -0.654898)
(0.644419 -1.85519 -0.846623)
(0.194854 -2.3465 0.326176)
(-0.191941 -2.15027 -0.122799)
(-0.616393 -1.92848 -0.555098)
(-0.806993 -1.92877 -0.932055)
(-1.27646 -1.50608 -1.4378)
(-1.77048 -0.719292 -1.22438)
(-1.81951 -0.304332 -1.26249)
(-1.80278 0.482266 -0.270703)
(-1.25201 0.738658 -0.448223)
(-1.35717 0.639382 -0.893165)
(-1.35248 0.317727 -0.77057)
(-1.35827 0.423055 -0.821953)
(-1.56293 0.419216 -0.609165)
(-1.2676 0.439731 -0.791349)
(-0.812215 0.968365 -0.852259)
(-1.84821 -0.164225 2.09348)
(-2.01272 -0.269374 2.31661)
(-2.12556 -0.164993 2.13371)
(-2.12243 -0.462184 2.32081)
(-2.23213 -0.299512 2.19013)
(-2.1742 -0.102532 2.1261)
(-2.06845 -0.562793 2.49437)
(-2.18284 -0.57371 2.37436)
(-2.14479 -0.267092 2.37664)
(-2.1592 0.0235825 2.3108)
(-2.1682 -0.794425 2.4399)
(-2.28547 -0.520713 2.41253)
(-2.33277 -0.317437 2.3831)
(-2.26876 0.00654388 2.3256)
(-2.32845 -0.904096 2.57527)
(-2.27701 -0.61093 2.62063)
(-2.30199 -0.598699 2.42943)
(-2.274 -0.356268 2.35807)
(-2.28369 -0.0224865 2.31339)
(-2.34554 -1.15197 2.62356)
(-2.31246 -0.96465 2.61536)