/*--------------------------------*- C++ -*----------------------------------*\
  =========                 |
  \\      /  F ield         | OpenFOAM: The Open Source CFD Toolbox
   \\    /   O peration     | Website:  https://openfoam.org
    \\  /    A nd           | Version:  7
     \\/     M anipulation  |
\*---------------------------------------------------------------------------*/
FoamFile
{
    version     2.0;
    format      ascii;
    class       volScalarField;
    location    "1";
    object      nut;
}
// * * * * * * * * * * * * * * * * * * * * * * * * * * * * * * * * * * * * * //

dimensions      [0 2 -1 0 0 0 0];

internalField   nonuniform List<scalar> 
18720
(
8.47058e-05
7.33111e-05
7.71497e-05
9.29358e-05
8.0099e-05
7.65702e-05
6.55577e-05
8.08626e-05
6.64492e-05
7.42531e-05
9.05628e-05
8.70306e-05
7.54983e-05
6.29621e-05
6.08046e-05
9.80906e-05
6.75529e-05
5.7699e-05
7.50241e-05
7.42488e-05
6.04476e-05
7.1856e-05
8.06052e-05
8.51445e-05
8.06836e-05
6.8251e-05
6.07527e-05
1.75661e-05
9.98992e-05
5.07538e-05
5.24022e-05
0.000128653
8.37909e-05
5.89995e-05
5.20507e-05
5.77411e-05
6.71422e-05
6.84218e-05
5.37755e-05
6.71476e-05
6.45419e-05
7.67524e-05
7.85705e-05
7.10572e-05
5.64853e-05
8.15869e-05
7.42542e-05
5.90466e-05
6.71576e-05
2.85357e-05
7.05063e-05
8.21801e-05
4.19654e-05
4.69117e-05
7.78485e-05
0.000104879
7.11448e-05
4.80604e-05
4.73263e-05
3.58307e-05
4.87087e-05
6.20748e-05
6.02524e-05
4.65058e-05
5.82349e-05
1.8839e-05
6.41824e-05
7.13672e-05
6.77842e-05
5.65181e-05
4.16728e-05
9.51562e-05
9.74804e-05
3.12896e-05
6.15153e-05
5.55072e-05
2.40644e-05
6.39705e-05
7.60592e-05
4.31097e-05
5.76495e-05
5.35285e-05
6.15553e-05
3.29363e-05
3.99377e-05
6.5374e-05
5.51224e-05
8.5039e-05
5.8603e-05
4.00604e-05
4.22174e-05
5.71856e-05
2.65436e-05
4.47544e-05
5.56245e-05
5.09945e-05
3.89884e-05
4.48641e-05
4.94292e-05
2.77143e-05
6.06661e-05
6.05647e-05
5.21935e-05
4.02628e-05
2.74013e-05
9.63803e-05
4.07045e-05
5.62316e-05
4.8982e-05
9.33753e-05
3.88402e-05
2.72526e-05
7.24312e-05
4.87189e-05
8.7839e-05
3.2213e-05
6.42559e-05
6.49388e-05
4.07073e-05
0.000100462
5.1992e-05
3.84566e-05
4.28763e-05
2.94452e-05
3.45925e-05
0.000149608
5.18749e-05
4.55318e-05
6.62548e-05
4.89644e-05
3.25536e-05
3.66806e-05
7.64804e-05
4.95341e-05
2.20677e-05
4.16276e-05
4.66291e-05
4.17203e-05
2.97454e-05
3.0362e-05
7.7285e-05
3.29934e-05
3.21899e-05
5.05982e-05
4.55839e-05
3.62206e-05
2.61303e-05
1.88871e-05
0.000143225
0.000100771
0.000117313
8.13313e-05
2.87262e-05
6.31885e-05
4.17478e-05
4.0686e-05
0.000100172
8.64514e-05
5.63652e-05
3.62374e-05
8.31489e-05
3.69289e-05
6.86532e-05
8.93035e-05
5.14769e-05
4.47993e-05
5.34869e-05
3.70371e-05
9.13839e-05
8.38239e-05
5.44994e-05
2.34558e-05
3.47581e-05
2.98085e-05
2.96468e-05
0.000165479
0.000120719
5.06332e-05
4.1916e-05
5.14108e-05
3.75697e-05
2.64196e-05
2.91434e-05
8.02758e-05
7.05603e-05
4.18365e-05
2.24397e-05
3.4842e-05
3.73089e-05
3.10316e-05
2.53772e-05
2.05638e-05
9.04778e-05
6.46736e-05
2.2138e-05
2.52954e-05
3.61705e-05
3.13531e-05
2.3472e-05
1.87435e-05
1.4653e-05
0.000617675
0.00011879
0.000158577
9.13294e-05
9.51929e-05
0.000123009
0.000103888
9.8158e-05
4.16053e-05
4.73963e-05
3.28531e-05
5.9291e-05
6.59595e-05
0.000114605
2.92595e-05
6.06751e-05
6.96354e-05
4.09049e-05
7.98532e-05
3.4611e-05
5.14913e-05
5.58341e-05
9.71494e-05
6.24149e-05
3.88989e-05
4.46497e-05
3.51332e-05
8.29247e-05
8.01658e-05
7.1633e-05
5.26668e-05
2.65926e-05
3.42628e-05
2.71867e-05
2.53174e-05
0.000121086
0.00015311
0.000112792
5.2948e-05
3.35549e-05
3.72393e-05
2.8391e-05
2.44935e-05
2.53862e-05
7.77636e-05
7.77981e-05
6.36792e-05
3.62787e-05
2.17339e-05
2.80838e-05
2.77633e-05
2.59515e-05
2.32909e-05
1.53743e-05
9.46122e-05
7.94724e-05
5.44935e-05
2.01776e-05
1.60604e-05
2.339e-05
2.0279e-05
1.7617e-05
1.51736e-05
1.27128e-05
0.00119735
0.000618495
0.000731972
0.000411008
5.6418e-05
0.000130476
0.00016541
7.86481e-05
0.000123752
0.000124739
0.000102989
0.000110932
9.66503e-05
5.87729e-05
0.000107995
6.16817e-05
4.35101e-05
8.27613e-05
8.2657e-05
0.000116317
7.20612e-05
4.11492e-05
6.05168e-05
6.59268e-05
5.02124e-05
6.67785e-05
3.54412e-05
3.04693e-05
4.90919e-05
5.03842e-05
8.235e-05
5.71804e-05
3.67598e-05
4.34798e-05
3.02225e-05
7.79083e-05
8.11897e-05
4.35678e-05
4.8986e-05
4.20721e-05
3.16737e-05
3.18545e-05
2.90228e-05
2.40359e-05
5.6009e-05
0.000128974
0.000144359
0.000114559
5.38387e-05
2.64983e-05
2.72202e-05
2.65056e-05
2.26726e-05
2.3799e-05
6.91485e-05
7.72207e-05
7.39264e-05
5.68706e-05
3.32077e-05
2.209e-05
2.26561e-05
2.40094e-05
2.3492e-05
2.10199e-05
1.31582e-05
9.10041e-05
8.71055e-05
7.02413e-05
4.58758e-05
2.1339e-05
1.22383e-05
1.52202e-05
1.58383e-05
1.47651e-05
1.34128e-05
1.19163e-05
0.00069168
0.00124341
0.00140228
0.00100916
0.000386531
0.000674247
0.000465769
0.000287169
8.70904e-05
0.000109167
0.000153659
0.000172432
9.21738e-05
0.000124606
7.88414e-05
8.46412e-05
0.00011343
0.000101795
9.97081e-05
6.50407e-05
6.58838e-05
8.63871e-05
4.47753e-05
4.45337e-05
8.76425e-05
6.77577e-05
9.29462e-05
0.000119018
7.1539e-05
4.59092e-05
5.40608e-05
5.98188e-05
5.58527e-05
5.95818e-05
2.98092e-05
6.38219e-05
2.76323e-05
5.96011e-05
4.50129e-05
6.03547e-05
4.46789e-05
3.94152e-05
4.53628e-05
3.16789e-05
4.44224e-05
7.84143e-05
4.90324e-05
3.69292e-05
3.75264e-05
3.63324e-05
3.12957e-05
3.17163e-05
2.74134e-05
2.29094e-05
3.41271e-05
6.74281e-05
0.00012258
0.00013049
0.000105943
5.48528e-05
2.44931e-05
2.56743e-05
2.44807e-05
2.24486e-05
2.18769e-05
6.27091e-05
6.82206e-05
7.48532e-05
6.73823e-05
5.10531e-05
3.30573e-05
2.10336e-05
2.17669e-05
2.26265e-05
2.16508e-05
2.02205e-05
1.23621e-05
8.11314e-05
8.75375e-05
7.94753e-05
6.0292e-05
3.80284e-05
1.96222e-05
1.14791e-05
1.33912e-05
1.38242e-05
1.34743e-05
1.25614e-05
1.0624e-05
0.000462849
0.000619782
0.000937407
0.000910727
0.00108442
0.00133915
0.00127463
0.000888072
0.000210156
0.000679413
0.00049874
0.000336434
0.000154829
0.000110285
0.000134216
0.000140995
0.000168422
0.00015775
8.89955e-05
0.000137714
6.38344e-05
5.35881e-05
7.627e-05
0.000104798
9.58238e-05
5.42942e-05
6.57826e-05
4.50912e-05
4.448e-05
5.4472e-05
4.32021e-05
4.36496e-05
8.07822e-05
6.93242e-05
7.89545e-05
0.000157207
0.000108591
7.12783e-05
4.23024e-05
4.69883e-05
4.17866e-05
5.92801e-05
5.77662e-05
2.94595e-05
6.94684e-05
5.38606e-05
3.08809e-05
6.93508e-05
3.95111e-05
3.99464e-05
3.84999e-05
3.99367e-05
4.01473e-05
2.82543e-05
5.21818e-05
4.59352e-05
8.20342e-05
4.82202e-05
5.67942e-05
4.25716e-05
3.41985e-05
3.2214e-05
2.92077e-05
2.59381e-05
2.26835e-05
4.56453e-05
3.55102e-05
6.39284e-05
9.5457e-05
0.000108361
8.97612e-05
4.85585e-05
2.43235e-05
2.39259e-05
2.4017e-05
2.26348e-05
2.10143e-05
5.73193e-05
5.83915e-05
6.59159e-05
6.85372e-05
5.97144e-05
4.67112e-05
2.89292e-05
2.12048e-05
2.20765e-05
2.14269e-05
2.11973e-05
1.8547e-05
1.11849e-05
6.69372e-05
8.19635e-05
8.216e-05
6.92395e-05
4.96432e-05
3.00931e-05
1.58212e-05
1.18463e-05
1.26402e-05
1.31608e-05
1.25701e-05
1.08492e-05
9.41555e-06
0.000682787
0.000373039
0.000325685
0.000233465
0.00105461
0.000776766
0.00109206
0.00112036
0.000947022
0.00126107
0.00131025
0.000984186
0.000769509
0.00011589
0.000639308
0.000481149
0.00033761
0.000201967
0.000102684
0.000106708
0.000107225
0.000134098
0.000166188
0.000140931
0.000162256
7.27638e-05
8.74923e-05
8.77615e-05
8.39327e-05
6.38675e-05
6.971e-05
0.000122153
5.80903e-05
5.39431e-05
5.25639e-05
4.18072e-05
4.55489e-05
4.50646e-05
4.55631e-05
6.065e-05
4.70146e-05
6.33802e-05
9.19492e-05
8.06148e-05
7.42103e-05
0.000136302
9.21664e-05
5.56401e-05
4.84495e-05
4.39139e-05
5.53345e-05
6.20639e-05
6.04843e-05
3.05035e-05
4.57888e-05
6.20008e-05
6.274e-05
4.52823e-05
6.66336e-05
3.55883e-05
3.66543e-05
3.27625e-05
3.43054e-05
3.93313e-05
2.62806e-05
6.20122e-05
4.57882e-05
7.16301e-05
8.72269e-05
5.57162e-05
6.0845e-05
4.46022e-05
3.42895e-05
2.9312e-05
2.79573e-05
2.62876e-05
2.28727e-05
5.9531e-05
3.83779e-05
3.83135e-05
4.57448e-05
6.19089e-05
8.14262e-05
7.07653e-05
3.48478e-05
2.3723e-05
2.35522e-05
2.39462e-05
2.11755e-05
1.91567e-05
5.2985e-05
5.10264e-05
5.49859e-05
5.94323e-05
5.9503e-05
5.25188e-05
3.825e-05
2.47814e-05
2.18366e-05
2.12579e-05
2.11777e-05
1.95995e-05
1.66622e-05
1.01278e-05
5.13354e-05
7.17336e-05
7.94085e-05
7.27839e-05
5.76895e-05
3.84117e-05
2.2215e-05
1.40129e-05
1.13669e-05
1.19478e-05
1.20281e-05
1.04565e-05
9.92231e-06
8.71595e-06
0.000605464
0.000704009
0.000445937
0.000584673
0.000222023
0.000251595
0.000222899
0.000286916
0.00106583
0.00066663
0.0010526
0.00127776
0.00119725
0.000743566
0.00125116
0.0011263
0.0009764
0.000762002
0.000543932
0.000103223
0.000570001
0.000415855
0.000297081
0.00019929
0.000131186
8.87602e-05
7.69294e-05
0.000137441
6.90441e-05
0.000128537
0.000133666
0.000147907
0.00012712
7.48669e-05
6.55551e-05
0.000107554
5.76542e-05
9.35383e-05
7.03756e-05
7.47905e-05
7.90007e-05
6.40279e-05
5.62717e-05
6.66123e-05
4.26975e-05
5.06696e-05
5.53861e-05
5.06463e-05
5.22143e-05
5.23434e-05
4.72986e-05
6.9759e-05
9.96324e-05
6.371e-05
0.000119236
6.74796e-05
0.000132658
7.64065e-05
6.16178e-05
5.13337e-05
5.53524e-05
5.89964e-05
5.61129e-05
6.50274e-05
3.25035e-05
8.85623e-05
5.4753e-05
6.89068e-05
7.98038e-05
4.97578e-05
5.00949e-05
3.58108e-05
3.74219e-05
3.35187e-05
3.43067e-05
3.94389e-05
2.6845e-05
4.14052e-05
3.3494e-05
5.65076e-05
8.96248e-05
9.46996e-05
4.73271e-05
5.15641e-05
4.11807e-05
3.03326e-05
2.7539e-05
2.86907e-05
2.43981e-05
2.13883e-05
5.63275e-05
3.89308e-05
3.98899e-05
4.1161e-05
3.24876e-05
3.78324e-05
5.72824e-05
5.23554e-05
2.59157e-05
2.35661e-05
2.34814e-05
2.22322e-05
1.82298e-05
1.70268e-05
4.62406e-05
4.71556e-05
4.76111e-05
4.90165e-05
4.99983e-05
5.02422e-05
4.17415e-05
3.05956e-05
2.27711e-05
2.12273e-05
2.11565e-05
1.96009e-05
1.76119e-05
1.54568e-05
8.9529e-06
3.72331e-05
5.87412e-05
7.23257e-05
7.16627e-05
6.15956e-05
4.47439e-05
2.73287e-05
1.7864e-05
1.32594e-05
1.13642e-05
1.09829e-05
1.01822e-05
1.05083e-05
1.05958e-05
9.15972e-06
0.000461344
0.000334048
0.000424172
0.000584894
0.000540823
0.000496511
0.000643737
0.000534908
0.000489399
0.000334079
0.000211414
0.000306
0.00080857
0.00119436
0.000611862
0.00100087
0.00111179
0.00130111
0.00113314
0.000528311
0.00105595
0.00107959
0.00100902
0.000689256
0.000598784
0.000266105
0.000103894
0.000558874
0.000386897
0.000236964
0.000142477
0.000122282
0.000111019
0.000114913
5.98512e-05
0.000116709
7.80645e-05
8.97622e-05
9.89922e-05
0.000107573
0.000123616
7.75438e-05
7.43673e-05
5.20576e-05
7.04754e-05
6.9773e-05
0.000119392
9.06866e-05
0.000105233
6.27354e-05
5.54541e-05
8.70081e-05
5.63022e-05
8.69151e-05
5.64897e-05
3.95487e-05
7.50862e-05
5.56741e-05
4.91921e-05
4.7219e-05
4.58356e-05
4.98331e-05
9.4735e-05
9.5362e-05
6.11882e-05
6.59795e-05
6.79078e-05
7.86343e-05
0.000119701
7.6874e-05
5.71694e-05
4.39109e-05
5.4903e-05
4.09705e-05
5.08355e-05
5.62032e-05
3.50069e-05
9.41042e-05
7.74323e-05
6.68417e-05
7.89943e-05
8.52668e-05
4.2807e-05
4.7399e-05
3.7115e-05
3.62255e-05
3.49167e-05
3.53873e-05
3.61762e-05
2.48324e-05
3.42702e-05
2.06714e-05
2.00411e-05
5.20118e-05
9.9577e-05
9.5981e-05
4.02016e-05
4.58019e-05
3.21045e-05
2.80435e-05
2.79732e-05
2.62226e-05
2.26673e-05
1.84561e-05
2.66341e-05
3.94813e-05
2.96735e-05
3.9866e-05
4.48097e-05
3.77797e-05
2.98496e-05
4.16353e-05
3.63482e-05
2.44303e-05
2.33503e-05
2.24232e-05
1.91234e-05
1.60454e-05
1.57319e-05
3.88329e-05
4.14803e-05
4.44116e-05
4.1753e-05
4.05842e-05
4.15281e-05
3.83897e-05
3.22867e-05
2.56864e-05
2.14493e-05
2.11067e-05
1.9632e-05
1.73282e-05
1.62121e-05
1.47931e-05
8.70344e-06
2.59238e-05
4.48885e-05
6.224e-05
6.67783e-05
6.16424e-05
4.79759e-05
3.12385e-05
1.93504e-05
1.56994e-05
1.42924e-05
1.26955e-05
1.11914e-05
1.11214e-05
1.15686e-05
1.13511e-05
9.47941e-06
0.000403156
0.000383752
0.000365385
0.000300227
0.000426131
0.000417634
0.000657834
0.000815848
0.00068073
0.000638239
0.000601194
0.000559628
0.000373343
0.000724594
0.000411734
0.000175767
0.000392519
0.000751363
0.000972167
0.00112251
0.000666364
0.00103551
0.00119245
0.00121912
0.00124351
0.000844194
0.000289968
0.00118038
0.00105696
0.000926184
0.000689481
0.000561621
0.00029113
0.000155472
9.19143e-05
0.000658625
0.000387007
0.000236535
8.58281e-05
0.000129626
0.000104978
0.000115664
9.49352e-05
6.4264e-05
9.57963e-05
0.000105002
7.61458e-05
0.000111739
7.73987e-05
8.25424e-05
8.00258e-05
8.2548e-05
7.67651e-05
5.42857e-05
0.000127149
7.5288e-05
9.16781e-05
0.000117726
8.38323e-05
9.86527e-05
7.02385e-05
5.58244e-05
9.78419e-05
8.1525e-05
8.7449e-05
6.86832e-05
6.02647e-05
5.90214e-05
8.51741e-05
4.10077e-05
4.81477e-05
5.12218e-05
4.52139e-05
5.94087e-05
9.8877e-05
8.14961e-05
5.67675e-05
0.000136597
4.87077e-05
5.5598e-05
8.60223e-05
0.000105829
7.71954e-05
4.02218e-05
4.4227e-05
3.79107e-05
4.41926e-05
4.77242e-05
3.98692e-05
3.54466e-05
4.89995e-05
6.86577e-05
6.89549e-05
7.35956e-05
7.91041e-05
7.08896e-05
3.87568e-05
4.45084e-05
3.50241e-05
3.47231e-05
3.64743e-05
3.44119e-05
3.02911e-05
2.30073e-05
6.70073e-05
3.51427e-05
4.61812e-05
2.59915e-05
4.94605e-05
0.000103965
8.43095e-05
4.1101e-05
3.52145e-05
2.78844e-05
2.82949e-05
2.57716e-05
2.41611e-05
2.0848e-05
1.60515e-05
2.80576e-05
2.03502e-05
3.22053e-05
2.81141e-05
3.76768e-05
4.18987e-05
3.92525e-05
2.79919e-05
3.09531e-05
3.02374e-05
2.44798e-05
2.25688e-05
1.97975e-05
1.68772e-05
1.55649e-05
1.51139e-05
3.0234e-05
3.66326e-05
4.03038e-05
3.82278e-05
3.39032e-05
3.39171e-05
3.16379e-05
2.98889e-05
2.58855e-05
2.26434e-05
2.11538e-05
1.94472e-05
1.7188e-05
1.57922e-05
1.55734e-05
1.45727e-05
8.71977e-06
1.71031e-05
3.2249e-05
5.04535e-05
5.90312e-05
5.83786e-05
4.82613e-05
3.26632e-05
1.97888e-05
1.33581e-05
1.45098e-05
1.51578e-05
1.3667e-05
1.215e-05
1.21824e-05
1.23052e-05
1.1486e-05
9.26162e-06
0.000253604
0.000356065
0.000277603
0.000384631
0.000281425
0.000249847
0.000450955
0.00013784
0.000446483
0.000596219
0.000541381
0.000674972
0.000417221
0.000537283
0.000804058
0.000548589
0.000707493
0.00046515
0.000390274
0.00092934
0.000369572
0.000232501
0.000487844
0.000631041
0.00121978
0.000995535
0.000851834
0.000758135
0.000938807
0.00126946
0.00118412
0.0012261
0.000901153
0.000635263
0.000109856
0.00119264
0.00108581
0.000945335
0.000725603
0.000505207
0.000332158
0.000162409
0.000132635
6.06601e-05
0.000682979
0.000395035
0.000246349
0.000108387
0.000158324
0.000119937
0.000115793
7.43258e-05
9.29312e-05
6.54619e-05
7.67351e-05
0.00018634
8.19016e-05
8.23306e-05
0.000101162
8.82907e-05
6.87953e-05
6.87611e-05
8.36123e-05
6.71339e-05
6.89628e-05
6.23889e-05
6.52625e-05
8.41177e-05
9.59819e-05
0.000103488
5.86963e-05
7.27655e-05
8.23539e-05
5.58767e-05
0.000115962
6.68549e-05
7.45302e-05
8.70881e-05
4.86879e-05
5.07943e-05
7.77746e-05
7.2614e-05
5.34909e-05
5.17803e-05
4.47407e-05
4.9524e-05
6.37297e-05
8.47667e-05
5.82156e-05
4.4956e-05
0.000130207
8.54216e-05
3.61149e-05
5.7422e-05
8.32141e-05
8.53341e-05
6.89419e-05
4.89711e-05
3.6897e-05
4.21781e-05
4.31009e-05
4.164e-05
3.27281e-05
3.27984e-05
3.89975e-05
4.92012e-05
4.80311e-05
5.81471e-05
7.78175e-05
7.20335e-05
4.73882e-05
3.90986e-05
3.75183e-05
3.42813e-05
3.44595e-05
3.71082e-05
2.97531e-05
2.58962e-05
2.09214e-05
3.02258e-05
4.99268e-05
4.64864e-05
4.94616e-05
3.16938e-05
5.98812e-05
9.07812e-05
7.10912e-05
3.42205e-05
3.00316e-05
2.79346e-05
2.55721e-05
2.40312e-05
2.22716e-05
1.99917e-05
1.54686e-05
3.18407e-05
2.52402e-05
2.72436e-05
3.0774e-05
3.15009e-05
3.30819e-05
3.29166e-05
3.1313e-05
2.38256e-05
2.69864e-05
2.6544e-05
2.28789e-05
1.99218e-05
1.70277e-05
1.64316e-05
1.53381e-05
1.48649e-05
2.77711e-05
2.89789e-05
3.75018e-05
3.60371e-05
3.08542e-05
2.94202e-05
2.67432e-05
2.64076e-05
2.51561e-05
2.22909e-05
2.11849e-05
1.93025e-05
1.69586e-05
1.55587e-05
1.52277e-05
1.54311e-05
1.49245e-05
8.64036e-06
1.27891e-05
2.19443e-05
3.85896e-05
4.96207e-05
5.24865e-05
4.59846e-05
3.2273e-05
1.95232e-05
1.20059e-05
1.09758e-05
1.31294e-05
1.37337e-05
1.24247e-05
1.2008e-05
1.26053e-05
1.19593e-05
1.09837e-05
9.29585e-06
0.000309636
0.000302262
0.000458223
0.000312558
0.000239481
0.000223542
0.000453552
0.000322808
0.000284485
0.000497173
0.000455587
0.000293171
0.000274989
0.00059922
0.000380876
0.000523444
0.000698528
0.000480795
0.000424644
0.000304603
0.000729218
0.000499498
0.000407988
0.000648531
0.000447275
0.000532688
0.00110119
0.000426141
0.000298209
0.000440816
0.000730442
0.00115926
0.00118393
0.00110243
0.000697886
0.000593421
0.000975341
0.00118578
0.0012539
0.00107846
0.000954608
0.000683757
0.000345052
8.08047e-05
0.00141502
0.00107023
0.000932304
0.000716365
0.000447817
0.000299848
0.000139881
0.000139114
7.18014e-05
5.66174e-05
0.00068415
0.000425452
0.000240988
0.000132453
0.0001205
9.60196e-05
0.000133068
5.80308e-05
7.96961e-05
0.000102686
5.55979e-05
8.23507e-05
8.12666e-05
0.000164752
7.36567e-05
7.68318e-05
9.1111e-05
9.06678e-05
6.78802e-05
5.94503e-05
7.20587e-05
7.25459e-05
5.61836e-05
0.000120656
6.40584e-05
4.47915e-05
9.4275e-05
0.000107843
6.22749e-05
7.02332e-05
6.82409e-05
6.94896e-05
6.4611e-05
9.09027e-05
5.62272e-05
5.38412e-05
8.43595e-05
8.19218e-05
4.87386e-05
4.39029e-05
7.13125e-05
5.14665e-05
6.84825e-05
5.04536e-05
4.32434e-05
5.51566e-05
6.91426e-05
5.48396e-05
4.34003e-05
3.46021e-05
9.98686e-05
0.000122511
3.62842e-05
3.47045e-05
6.22043e-05
5.60473e-05
6.89866e-05
7.27662e-05
4.62594e-05
3.90564e-05
4.52798e-05
4.05408e-05
3.39396e-05
3.22105e-05
3.04486e-05
7.83445e-05
4.26199e-05
7.68444e-05
5.19652e-05
5.75065e-05
7.9781e-05
5.39817e-05
3.86354e-05
3.97501e-05
3.45133e-05
3.38938e-05
3.47642e-05
3.15641e-05
2.6209e-05
2.3251e-05
2.01517e-05
2.24572e-05
2.88218e-05
4.92022e-05
5.65278e-05
3.45529e-05
4.27608e-05
5.32022e-05
7.15223e-05
4.84021e-05
2.84794e-05
2.84566e-05
2.54974e-05
2.35909e-05
2.21075e-05
2.11747e-05
1.94789e-05
1.53086e-05
1.75154e-05
2.63127e-05
2.39125e-05
3.63763e-05
3.11796e-05
3.27744e-05
2.88411e-05
2.71282e-05
2.32448e-05
2.27941e-05
2.53518e-05
2.32603e-05
1.99309e-05
1.69769e-05
1.62487e-05
1.61396e-05
1.56951e-05
1.50951e-05
2.45575e-05
2.5268e-05
3.14161e-05
3.51199e-05
3.03544e-05
2.77704e-05
2.53235e-05
2.42633e-05
2.40778e-05
2.20414e-05
2.1032e-05
1.90316e-05
1.68235e-05
1.5322e-05
1.49954e-05
1.51225e-05
1.58739e-05
1.57573e-05
8.75113e-06
1.231e-05
1.54793e-05
2.71461e-05
4.0053e-05
4.51136e-05
4.17488e-05
3.07488e-05
1.9266e-05
1.21587e-05
1.38651e-05
1.05182e-05
1.05813e-05
1.07601e-05
9.9658e-06
1.14233e-05
1.20209e-05
1.13386e-05
1.07876e-05
9.49717e-06
0.000317296
0.000467218
0.000352913
0.000351855
0.00036194
0.000378819
0.00058487
0.000435014
0.00031688
0.000294144
0.000379681
0.000403715
0.000291888
0.000352405
0.000536066
0.000348634
0.000463979
0.000213827
0.000430974
0.000523794
0.000616041
0.000647308
0.000501725
0.000693992
0.000459978
0.000407504
0.000644466
0.000592997
0.000565538
0.000521536
0.000536858
0.000388606
0.000651564
0.000953722
0.00116383
0.000520534
0.000397661
0.000400652
0.000848445
0.00095307
0.00152194
0.00120798
0.00102
0.000305207
0.000870059
0.000983556
0.000963474
0.0013707
0.00107295
0.00100376
0.000740889
0.000309298
0.000219846
6.35553e-05
0.00142768
0.00110501
0.000938767
0.000697682
0.000534995
0.000234425
0.000113884
0.000113166
8.47849e-05
7.36254e-05
6.83796e-05
0.000690272
0.000485048
0.000299555
0.000110483
0.000110733
0.00010386
0.000110751
9.90074e-05
5.46759e-05
8.39369e-05
5.26904e-05
5.28278e-05
0.000165187
3.9825e-05
0.000121609
0.000110099
7.05745e-05
7.41665e-05
8.18819e-05
9.42124e-05
5.83815e-05
5.06454e-05
7.80899e-05
5.71035e-05
4.88745e-05
0.000104707
8.52096e-05
5.94134e-05
6.16957e-05
9.03574e-05
8.3377e-05
5.96018e-05
8.92926e-05
5.35096e-05
7.56238e-05
4.91517e-05
6.98346e-05
4.49409e-05
4.71735e-05
5.18409e-05
5.86621e-05
9.22902e-05
6.40398e-05
4.54238e-05
5.37875e-05
4.97655e-05
6.77187e-05
5.83325e-05
5.41306e-05
5.02712e-05
6.74558e-05
3.65273e-05
3.57682e-05
2.73557e-05
5.62282e-05
9.04352e-05
7.33528e-05
4.10646e-05
4.46657e-05
4.81003e-05
4.0987e-05
7.90906e-05
5.69793e-05
4.28307e-05
4.33185e-05
4.19609e-05
3.60566e-05
2.80353e-05
3.14453e-05
2.75494e-05
9.86252e-05
6.64728e-05
5.51882e-05
8.65804e-05
5.23091e-05
6.00192e-05
6.84302e-05
3.80897e-05
3.87874e-05
3.88298e-05
3.25555e-05
3.16857e-05
3.06725e-05
2.72814e-05
2.41311e-05
2.10397e-05
1.95514e-05
3.43043e-05
2.6861e-05
4.33741e-05
5.80115e-05
5.0876e-05
4.22085e-05
3.74632e-05
3.92753e-05
4.50736e-05
3.18538e-05
2.76931e-05
2.54627e-05
2.39479e-05
2.18001e-05
2.10579e-05
2.04253e-05
1.92942e-05
1.56656e-05
2.58173e-05
1.72431e-05
2.7251e-05
2.92587e-05
3.30506e-05
3.29247e-05
3.10908e-05
2.67885e-05
2.3856e-05
2.20037e-05
2.28667e-05
2.27229e-05
2.0027e-05
1.72746e-05
1.61695e-05
1.60456e-05
1.64314e-05
1.73076e-05
1.58617e-05
2.18524e-05
2.0981e-05
2.60849e-05
3.03714e-05
2.97201e-05
2.69651e-05
2.53147e-05
2.41844e-05
2.36797e-05
2.18152e-05
2.08823e-05
1.90751e-05
1.65763e-05
1.52338e-05
1.47811e-05
1.48803e-05
1.56449e-05
1.68938e-05
1.66912e-05
9.00994e-06
1.30834e-05
1.3447e-05
1.90509e-05
3.07999e-05
3.75179e-05
3.65237e-05
2.85546e-05
1.92078e-05
1.28827e-05
1.48442e-05
1.40099e-05
9.67109e-06
8.90985e-06
8.4621e-06
9.11241e-06
1.10543e-05
1.13668e-05
1.11081e-05
1.07725e-05
1.01051e-05
0.000514621
0.000426513
0.00043164
0.000330838
0.000386802
0.000403043
0.000394454
0.000365886
0.000443523
0.000308432
0.00035155
0.00043386
0.000343164
0.000253274
0.000265587
0.000408852
0.000427156
0.000259273
0.00022064
0.000379479
0.000478063
0.000368233
0.000194056
0.000281962
0.000428203
0.000508302
0.000486886
0.000462914
0.000529063
0.000615
0.000676375
0.000591092
0.000240444
0.000328661
0.00101742
0.000769406
0.000636179
0.000812253
0.000452921
0.000271086
0.000620862
0.000980747
0.00134431
0.00103267
0.000382032
0.000244524
0.000327384
0.00077956
0.00103678
0.00131637
0.00133863
0.00108755
0.000719456
0.000180149
0.000748414
0.00108426
0.00111722
0.00129088
0.00125723
0.000873139
0.000609016
0.000282174
0.000165416
8.7156e-05
5.37852e-05
0.00128503
0.001192
0.00107202
0.000703207
0.000499968
0.000294451
0.000102632
0.000117744
9.26027e-05
6.62212e-05
7.33251e-05
4.81309e-05
0.000750504
0.00047764
0.000360514
0.000136564
0.000131469
8.81477e-05
0.000103496
7.86255e-05
8.88513e-05
6.85891e-05
5.62472e-05
7.79555e-05
3.99341e-05
0.00010513
9.66132e-05
8.6779e-05
0.000105268
9.11585e-05
7.18548e-05
6.51691e-05
6.86453e-05
8.52171e-05
5.01744e-05
5.16284e-05
6.35163e-05
4.83534e-05
4.18498e-05
3.80933e-05
9.49527e-05
4.79671e-05
5.95608e-05
9.01286e-05
6.84122e-05
6.60461e-05
5.64052e-05
6.53675e-05
6.14485e-05
7.61675e-05
4.82118e-05
5.19077e-05
3.20919e-05
4.498e-05
6.65505e-05
6.491e-05
7.91056e-05
0.00010565
6.23556e-05
5.36978e-05
5.08627e-05
4.9038e-05
6.55045e-05
5.56585e-05
6.03028e-05
4.98644e-05
4.50942e-05
3.16959e-05
2.76229e-05
2.57852e-05
7.70903e-05
5.25745e-05
0.000102333
4.55588e-05
7.21323e-05
7.27201e-05
3.83943e-05
5.38827e-05
6.24956e-05
4.5418e-05
4.31317e-05
3.72862e-05
3.96266e-05
2.80918e-05
2.59118e-05
2.81424e-05
2.31235e-05
4.85757e-05
7.04231e-05
5.70199e-05
9.13453e-05
6.31322e-05
4.07317e-05
5.92363e-05
5.12909e-05
3.72814e-05
3.81981e-05
3.45442e-05
2.98714e-05
2.87795e-05
2.69773e-05
2.50135e-05
2.20881e-05
2.12492e-05
1.92691e-05
2.42062e-05
1.63772e-05
4.13141e-05
5.38801e-05
6.49344e-05
4.47613e-05
3.95027e-05
3.30932e-05
2.84209e-05
2.8906e-05
2.73e-05
2.50928e-05
2.3865e-05
2.21278e-05
2.09293e-05
2.05555e-05
2.03251e-05
2.01825e-05
1.74061e-05
2.1784e-05
2.14341e-05
2.62197e-05
3.27311e-05
2.82415e-05
2.74098e-05
2.94901e-05
2.95682e-05
2.42135e-05
2.28607e-05
2.2709e-05
2.18356e-05
1.96671e-05
1.72825e-05
1.64794e-05
1.5991e-05
1.64975e-05
1.82323e-05
1.90818e-05
1.67326e-05
1.66505e-05
2.10492e-05
2.17638e-05
2.51315e-05
2.6109e-05
2.59351e-05
2.40722e-05
2.48632e-05
2.37419e-05
2.20158e-05
2.07065e-05
1.88987e-05
1.66893e-05
1.50881e-05
1.47092e-05
1.46799e-05
1.53603e-05
1.66475e-05
1.78725e-05
1.82453e-05
9.68473e-06
1.4447e-05
1.3233e-05
1.1548e-05
2.23059e-05
3.04237e-05
3.10992e-05
2.59849e-05
1.91962e-05
1.40153e-05
1.2014e-05
1.56398e-05
1.19241e-05
8.88793e-06
8.24624e-06
8.20078e-06
9.3481e-06
1.08468e-05
1.11904e-05
1.09678e-05
1.11398e-05
1.10237e-05
0.000842485
0.000608371
0.000589018
0.000559359
0.000341002
0.000330815
0.000329889
0.00033932
0.000341656
0.000396827
0.000475692
0.000335113
0.000346242
0.000449301
0.000431158
0.000382948
0.000560059
0.000454393
0.000291645
0.000258848
0.000215418
0.000370105
0.00030385
0.000300359
0.00027383
0.000366107
0.000359873
0.000485323
0.000384881
0.000268695
0.000317132
0.000436647
0.000606708
0.000318181
0.000260705
0.000367206
0.000620055
0.000622215
0.000586169
0.000511035
0.000131206
0.000244738
0.000485931
0.00113708
0.000540972
0.000624083
0.000600726
0.0003615
0.000330389
0.000551058
0.00101334
0.00135572
0.0013491
0.00073692
0.000553468
0.000248492
0.000521389
0.000715706
0.00106834
0.00114788
0.00134721
0.00105247
0.000712679
0.000340152
0.000110735
0.000595822
0.000928122
0.00129162
0.00117945
0.00114843
0.00100451
0.000644948
0.000298181
0.00020532
8.49516e-05
7.69014e-05
6.9813e-05
0.00129279
0.00126178
0.000998761
0.000755685
0.000468111
0.000268041
0.000100813
0.000105478
0.000109129
5.83697e-05
6.49944e-05
5.04519e-05
6.9486e-05
0.00080657
0.000538888
0.000353118
0.00019794
9.77637e-05
0.000104779
9.05003e-05
9.12886e-05
5.73083e-05
0.000110357
4.87192e-05
7.35029e-05
5.27052e-05
4.01891e-05
8.33655e-05
0.000109621
7.00725e-05
9.73372e-05
8.29066e-05
6.85192e-05
6.25922e-05
6.69285e-05
5.69876e-05
6.24475e-05
5.31867e-05
4.65815e-05
4.85631e-05
4.56309e-05
2.99507e-05
5.5506e-05
6.59453e-05
7.11641e-05
6.31923e-05
7.7149e-05
8.04443e-05
6.05016e-05
6.74175e-05
5.80081e-05
7.02584e-05
5.91507e-05
6.84865e-05
4.66193e-05
3.1248e-05
2.98775e-05
3.9866e-05
5.73835e-05
7.95599e-05
9.75391e-05
0.000113272
7.39212e-05
5.41853e-05
5.39472e-05
5.09421e-05
5.43934e-05
5.98671e-05
4.8306e-05
5.67049e-05
4.00293e-05
3.78211e-05
2.7628e-05
2.19893e-05
2.35543e-05
6.64513e-05
5.82545e-05
7.34708e-05
9.89172e-05
6.45165e-05
0.000106624
8.11937e-05
4.99318e-05
5.19688e-05
4.64483e-05
4.01733e-05
3.47608e-05
3.37079e-05
3.29453e-05
2.50527e-05
2.47244e-05
2.5561e-05
2.1574e-05
4.37485e-05
4.87779e-05
5.09144e-05
6.89106e-05
8.57373e-05
4.95337e-05
4.08044e-05
5.60648e-05
4.01084e-05
3.89568e-05
3.4872e-05
3.04352e-05
2.77354e-05
2.59998e-05
2.48213e-05
2.29601e-05
2.21396e-05
2.32259e-05
2.03076e-05
3.20985e-05
2.13245e-05
3.43369e-05
3.85013e-05
5.79396e-05
5.85941e-05
3.87523e-05
3.61287e-05
3.05866e-05
2.46721e-05
2.62134e-05
2.46454e-05
2.35374e-05
2.23599e-05
2.09097e-05
2.03405e-05
2.02168e-05
2.13217e-05
2.25809e-05
1.92082e-05
1.57746e-05
1.56057e-05
2.12791e-05
3.11802e-05
3.03902e-05
2.55195e-05
2.4923e-05
2.7378e-05
2.75728e-05
2.3402e-05
2.31286e-05
2.18808e-05
1.94823e-05
1.7015e-05
1.63614e-05
1.60636e-05
1.64578e-05
1.82644e-05
2.03209e-05
2.17967e-05
1.83358e-05
1.39847e-05
2.06717e-05
2.18319e-05
2.18574e-05
2.23324e-05
2.40052e-05
2.35951e-05
2.42303e-05
2.44222e-05
2.22483e-05
2.083e-05
1.87373e-05
1.65801e-05
1.51856e-05
1.46163e-05
1.4549e-05
1.51962e-05
1.64167e-05
1.76598e-05
1.95013e-05
2.05923e-05
1.06433e-05
1.46488e-05
1.40474e-05
1.21973e-05
1.51875e-05
2.42287e-05
2.61388e-05
2.32521e-05
1.89746e-05
1.44213e-05
1.19052e-05
1.38528e-05
1.34094e-05
9.67071e-06
8.21346e-06
8.06364e-06
8.28256e-06
9.97759e-06
1.10033e-05
1.10419e-05
1.11119e-05
1.18405e-05
1.23388e-05
0.00116196
0.000778957
0.000832853
0.000808043
0.00055275
0.000611922
0.000585481
0.000610173
0.000404512
0.000372857
0.000349378
0.000520853
0.000443091
0.000446008
0.00036195
0.000376192
0.000307993
0.000404753
0.000389731
0.000516452
0.000388588
0.000433934
0.000512356
0.00040529
0.000441984
0.000392522
0.000426963
0.000354697
0.000327885
0.000349084
0.000456249
0.000289538
0.000385312
0.000502386
0.000270399
0.000398525
0.000337278
0.000359132
0.000298517
0.000446502
0.000466063
0.000524628
0.000257741
0.000700714
0.000393986
0.00062356
0.000785198
0.00056052
0.000481202
0.000281704
0.000239875
0.000563932
0.000996467
0.00128868
0.000444985
0.000517292
0.000570532
0.000419058
0.000292251
0.000709787
0.000959335
0.00119935
0.00120969
0.00107465
0.000344332
0.000711558
0.000253179
0.00046501
0.000723903
0.000987629
0.00124815
0.00123771
0.00106592
0.000828883
0.000332345
6.17242e-05
0.000103255
0.000820616
0.000835108
0.00116839
0.00116136
0.00104479
0.000965689
0.000697269
0.000348333
0.00022322
9.12835e-05
8.38283e-05
9.83681e-05
5.69856e-05
0.00134663
0.00119346
0.0010142
0.000780032
0.000463919
0.000246368
9.93218e-05
9.70714e-05
0.000129104
6.39602e-05
7.40901e-05
5.87727e-05
5.59065e-05
5.10165e-05
0.000735514
0.000492206
0.000311561
0.000252396
0.000119961
8.92258e-05
0.000117025
5.46984e-05
8.07589e-05
8.01617e-05
7.60666e-05
5.97326e-05
6.79666e-05
4.20581e-05
3.77149e-05
0.000163869
7.73396e-05
9.64453e-05
8.01076e-05
9.31237e-05
6.66839e-05
6.8008e-05
5.83086e-05
7.40132e-05
5.12147e-05
7.11923e-05
4.54113e-05
4.1515e-05
4.57911e-05
3.04443e-05
3.00543e-05
3.43096e-05
6.91761e-05
6.26517e-05
4.96912e-05
8.15657e-05
6.94748e-05
6.16015e-05
6.11244e-05
6.22268e-05
7.87328e-05
5.69069e-05
5.20507e-05
5.67325e-05
3.47626e-05
2.94118e-05
2.45396e-05
3.20347e-05
3.58661e-05
5.82464e-05
0.000113175
0.000126236
9.88244e-05
4.66655e-05
4.51378e-05
4.59641e-05
4.9769e-05
5.75875e-05
5.31235e-05
4.38353e-05
4.94874e-05
3.4357e-05
3.14897e-05
2.65267e-05
2.25498e-05
2.29775e-05
5.47132e-05
5.92338e-05
7.62824e-05
9.74576e-05
0.000122929
5.63576e-05
9.71195e-05
5.68789e-05
4.53719e-05
4.86509e-05
3.99484e-05
3.26462e-05
3.17649e-05
2.92507e-05
2.882e-05
2.41875e-05
2.38119e-05
2.62658e-05
2.3245e-05
3.42515e-05
4.12792e-05
4.25442e-05
6.13878e-05
7.63649e-05
5.04442e-05
4.44518e-05
4.57944e-05
3.79819e-05
3.86759e-05
3.7958e-05
3.18177e-05
2.73281e-05
2.56739e-05
2.41367e-05
2.25703e-05
2.29651e-05
2.43019e-05
2.5539e-05
2.27874e-05
5.07538e-05
2.17955e-05
3.45792e-05
4.09393e-05
3.26635e-05
5.09499e-05
3.91601e-05
3.89481e-05
3.17921e-05