/*--------------------------------*- C++ -*----------------------------------*\
  =========                 |
  \\      /  F ield         | OpenFOAM: The Open Source CFD Toolbox
   \\    /   O peration     | Website:  https://openfoam.org
    \\  /    A nd           | Version:  7
     \\/     M anipulation  |
\*---------------------------------------------------------------------------*/
FoamFile
{
    version     2.0;
    format      ascii;
    class       surfaceScalarField;
    location    "1";
    object      phi;
}
// * * * * * * * * * * * * * * * * * * * * * * * * * * * * * * * * * * * * * //

dimensions      [0 3 -1 0 0 0 0];

internalField   nonuniform List<scalar> 
54006
(
1.67158e-05
-0.000131705
0.000115822
8.6893e-05
2.95795e-05
-0.000138792
0.000127594
0.000267168
1.51092e-05
8.80091e-05
2.03443e-05
9.63415e-05
9.46465e-05
1.57441e-05
-0.000125549
0.000111288
8.54102e-05
3.56364e-05
-9.56934e-05
9.25866e-05
0.000459243
2.39162e-05
0.000270378
3.95453e-05
0.000109999
0.000291006
2.86891e-05
-0.000125114
0.000115218
0.000264119
1.43037e-05
8.64842e-05
2.20944e-05
7.50661e-05
9.33053e-05
1.91248e-05
9.3734e-05
9.30761e-05
1.44584e-05
-0.000121492
0.000108862
8.35814e-05
4.6604e-05
-5.3711e-05
4.75829e-05
0.000653115
2.58048e-05
0.000463681
5.40143e-05
8.05897e-05
0.000501038
3.34248e-05
-8.91905e-05
8.86534e-05
0.000455044
2.39119e-05
0.000267109
4.73783e-05
8.5825e-05
0.000286736
3.76947e-05
9.97115e-05
0.000287942
2.75346e-05
-0.000112285
0.000102978
0.000260349
1.31677e-05
8.46004e-05
2.32916e-05
5.25831e-05
9.20447e-05
2.0789e-05
7.44349e-05
9.18154e-05
1.75969e-05
9.31936e-05
9.11469e-05
1.3229e-05
-0.000109723
9.84362e-05
8.16395e-05
8.17924e-05
-1.97053e-05
-8.43381e-06
0.000842123
3.70094e-05
0.000657017
7.42934e-05
3.1505e-05
0.00071555
3.84497e-05
-5.569e-05
5.77539e-05
0.000646026
2.61807e-05
0.000458874
7.40086e-05
5.54965e-05
0.000494283
5.00481e-05
7.99341e-05
0.000497404
3.22168e-05
-9.08329e-05
9.12582e-05
0.000449937
2.36219e-05
0.000263091
5.56366e-05
5.41678e-05
0.000282353
4.45269e-05
7.86704e-05
0.000284039
3.56422e-05
8.86792e-05
0.000284196
2.56408e-05
-9.65195e-05
8.84525e-05
0.000256004
1.21029e-05
8.25684e-05
2.37444e-05
2.96675e-05
9.09805e-05
2.19937e-05
5.38548e-05
9.06311e-05
1.92301e-05
7.57797e-05
8.99992e-05
1.60478e-05
8.44037e-05
8.91321e-05
1.26618e-05
-9.46433e-05
8.40111e-05
7.961e-05
0.000140947
4.81443e-06
-4.93345e-05
0.00103345
8.17032e-05
0.000846195
0.000100859
-2.90545e-05
0.00092617
6.64452e-05
-1.59243e-05
-2.87992e-06
0.000832931
2.93474e-05
0.000649399
9.61069e-05
1.19474e-05
0.000709044
6.66364e-05
4.78463e-05
0.000708869
3.5126e-05
-6.79984e-05
7.37031e-05
0.000637412
2.70184e-05
0.000453268
8.93812e-05
2.21664e-05
0.000487464
6.68601e-05
6.00743e-05
0.000491809
4.60826e-05
8.5618e-05
0.000492604
3.22814e-05
-8.39153e-05
8.4064e-05
0.000443147
2.25376e-05
0.000258439
5.44565e-05
2.42759e-05
0.000279545
5.14509e-05
5.13084e-05
0.000280258
4.14886e-05
6.96829e-05
0.000280777
3.27813e-05
7.60615e-05
0.000279854
2.43917e-05
-7.89026e-05
7.22144e-05
0.000250963
1.17105e-05
8.0407e-05
2.41329e-05
6.51829e-06
9.01443e-05
2.27345e-05
3.24783e-05
8.96225e-05
2.05669e-05
5.69067e-05
8.89371e-05
1.7526e-05
6.87386e-05
8.81383e-05
1.51901e-05
7.09003e-05
8.70537e-05
1.16361e-05
-7.97057e-05
6.98259e-05
7.78537e-05
0.000183404
8.36471e-05
-0.000106481
0.00122585
0.000156218
0.00103873
0.000132706
-6.64763e-05
0.00113573
0.000120558
4.19895e-05
-8.00699e-05
0.00101742
6.60391e-05
0.000836102
0.000111637
-4.03593e-05
0.000919791
9.78995e-05
-2.51797e-05
0.000917207
6.45714e-05
-1.92868e-05
1.89127e-06
0.000820881
2.65536e-05
0.000640694
9.21214e-05
1.02605e-05
0.000703752
8.73589e-05
3.26117e-05
0.00070378
6.23013e-05
6.60087e-05
0.000700345
3.9746e-05
-6.48343e-05
6.88904e-05
0.000625891
2.82971e-05
0.000446024
8.46951e-05
-7.70077e-06
0.000484983
7.90166e-05
3.35485e-05
0.000486424
5.92896e-05
7.15886e-05
0.000488037
4.34063e-05
8.02564e-05
0.000485786
3.32945e-05
-6.72739e-05
6.70648e-05
0.000434454
2.19261e-05
0.000253048
4.73695e-05
2.36518e-06
0.000279625
5.06681e-05
2.51508e-05
0.000277769
4.75023e-05
4.54261e-05
0.00027758
3.76276e-05
5.97648e-05
0.000276972
3.06154e-05
6.18895e-05
0.000274754
2.18978e-05
-6.41035e-05
5.82936e-05
0.000246511
1.09075e-05
7.84925e-05
2.33782e-05
-1.56527e-05
9.00096e-05
2.31627e-05
1.06599e-05
8.88e-05
2.16786e-05
3.68054e-05
8.80451e-05
1.8851e-05
5.15832e-05
8.72415e-05
1.6429e-05
5.63667e-05
8.6243e-05
1.37747e-05
5.78058e-05
8.52989e-05
1.02519e-05
-6.20984e-05
5.35708e-05
7.61295e-05
0.000188303
0.000227596
-0.000208095
0.00143889
0.000190082
0.00122996
0.000158231
-0.000111116
0.00134943
0.000167562
6.99224e-05
-9.85417e-05
0.00120747
0.000133078
0.00102376
0.000143494
-8.59819e-05
0.00112911
0.000134
-0.000100672
0.00112023
0.00012278
4.74629e-05
-9.35274e-05
0.00100528
6.07348e-05
0.000823582
9.05112e-05
-3.45481e-05
0.000916014
0.000101557
-3.22173e-05
0.00091263
9.59664e-05
-1.92944e-05
0.000904728
6.92741e-05
-8.55998e-06
-4.53582e-06
0.000804449
3.10805e-05
0.000629197
7.65185e-05
1.94658e-05
0.000701084
8.16782e-05
3.41387e-05
0.000699563
7.85856e-05
5.39128e-05
0.00069658
6.16797e-05
6.27334e-05
0.000688228
4.47118e-05
-5.49032e-05
5.70882e-05
0.000612289
3.03204e-05
0.000436955
6.81155e-05
-2.70632e-05
0.000486638
7.41103e-05
1.10992e-05
0.00048399
6.84549e-05
5.33176e-05
0.000483743
5.34446e-05
7.04722e-05
0.000482005
4.24079e-05
6.4223e-05
0.000476835
3.10567e-05
-5.25474e-05
5.20122e-05
0.00042583
1.99954e-05
0.000248232
3.77259e-05
-1.01815e-05
0.00028138
4.55507e-05
4.76723e-06
0.000277621
4.7563e-05
2.18685e-05
0.000275442
4.26315e-05
3.92477e-05
0.000274316
3.45698e-05
4.83185e-05
0.000272402
2.68866e-05
4.96449e-05
0.00027029
1.98631e-05
-4.48565e-05
4.0259e-05
0.000241497
9.73406e-06
7.66302e-05
2.20572e-05
-3.63956e-05
9.02619e-05
2.26045e-05
-1.04338e-05
8.84988e-05
2.22537e-05
1.60316e-05
8.73202e-05
2.00137e-05
3.31097e-05
8.6505e-05
1.75691e-05
4.0514e-05
8.55251e-05
1.47108e-05
4.46679e-05
8.467e-05
1.19642e-05
4.3372e-05
8.35337e-05
8.88442e-06
-5.35839e-05
4.63905e-05
7.44385e-05
0.000163439
0.000365319
-0.000307605
0.00164302
0.000185256
0.00143646
0.000157235
-0.000180105
0.00158694
0.000180437
0.000175855
-0.000158911
0.00140907
0.000171114
0.00121478
0.000153591
-9.81414e-05
0.00134602
0.000177052
-0.000122401
0.00133024
0.000165202
6.74567e-05
-9.53917e-05
0.00119298
0.000130607
0.00101121
0.000140664
-0.00012496
0.00112602
0.000123632
-0.000108926
0.00111529
0.000133837
-0.000118943
0.00110777
0.000136738
6.50445e-05
-0.000114846
0.000987617
5.98493e-05
0.000807461
6.55682e-05
-1.95276e-05
0.000913406
8.12443e-05
-2.41139e-05
0.000908345
9.61822e-05
-2.54771e-05
0.000901216
9.59389e-05
-2.03777e-05
0.00088631
6.90661e-05
-1.67843e-06
-3.84704e-06
0.000785621
3.75668e-05
0.000615524
7.11224e-05
1.83056e-05
0.000700442
6.94695e-05
4.31718e-05
0.000696692
6.9498e-05
5.9282e-05
0.000693151
7.16867e-05
5.57602e-05
0.000685311
6.15638e-05
5.25555e-05
0.000673605
4.30108e-05
-4.3275e-05
4.36732e-05
0.000599937
2.92361e-05
0.000428067
4.67639e-05
-3.31964e-05
0.000489393
6.18893e-05
-2.77159e-06
0.00048417
6.41887e-05
3.9356e-05
0.000481326
5.87862e-05
5.9622e-05
0.000478438
4.99881e-05
5.71594e-05
0.00047365
3.87427e-05
4.91454e-05
0.000467846
3.00791e-05
-4.08842e-05
4.03271e-05
0.000416171
1.859e-05
0.000242915
2.87625e-05
-1.47631e-05
0.000283001
3.67389e-05
-6.85198e-06
0.000278864
4.3391e-05
3.22532e-06
0.000275127
4.3226e-05
1.89361e-05
0.000272541
3.82796e-05
3.16524e-05
0.000270272
2.979e-05
3.85616e-05
0.000268406
2.36223e-05
3.37401e-05
0.000265151
1.73381e-05
-3.66808e-05
3.33273e-05
0.000236397
8.46991e-06
7.48466e-05
2.04853e-05
-5.54599e-05
9.06903e-05
2.13145e-05
-3.01079e-05
8.86215e-05
2.18903e-05
-4.30537e-06
8.69454e-05
2.05521e-05
1.39765e-05
8.59012e-05
1.8527e-05
2.35595e-05
8.49325e-05
1.55528e-05
3.05317e-05
8.41085e-05
1.25936e-05
3.24184e-05
8.303e-05
1.03032e-05
3.78638e-05
8.17577e-05
7.40329e-06
-4.57145e-05
3.98991e-05
7.28507e-05
9.58194e-05
0.000642019
-0.000524263
0.00184723
0.000160635
0.00166014
0.000151231
-0.000256825
0.0017994
0.000168379
0.000372516
-0.000327516
0.00161008
0.000166812
0.0014081
0.000118932
-0.000120502
0.00158305
0.000181687
-0.000132407
0.0015558
0.000155384
0.000104643
-7.36316e-05
0.00138788
0.000172195
0.00120045
0.000168203
-0.000107356
0.00134594
0.00015167
-0.00012908
0.00132466
0.000187206
-0.000132357
0.00131383
0.000193543
7.32408e-05
-0.000107658
0.00117059
0.000142983
0.000993214
8.97341e-05
-0.000134376
0.001118
0.000110402
-0.000124945
0.00111288
0.000107583
-0.000118636
0.00110359
0.00013888
-0.000138238
0.00108822
0.000132438
5.30591e-05
-9.5759e-05
0.000966945
6.43859e-05
0.000789029
8.11845e-05
-2.5352e-05
0.000910418
6.40976e-05
-1.1054e-05
0.000905718
7.25816e-05
-1.6581e-05
0.000896365
9.49346e-05
-2.557e-05
0.000883161
9.30421e-05
-1.43139e-05
0.000865299
5.82353e-05
-1.27752e-06
2.8885e-06
0.000768785
3.90698e-05
0.000602893
7.30612e-05
-4.51039e-06
0.000702048
6.68384e-05
4.36161e-05
0.000695048
5.93627e-05
7.07818e-05
0.000690018
6.13657e-05
6.396e-05
0.000682372
6.75824e-05
4.91561e-05
0.000671116
5.64388e-05
3.95383e-05
0.000660044
4.51454e-05
-2.89933e-05
2.83823e-05
0.000585482
2.9249e-05
0.000418222
2.8457e-05
-2.85333e-05
0.000492069
4.32117e-05
-5.42489e-06
0.000485573
5.56302e-05
3.08585e-05
0.000480429
5.61924e-05
5.20229e-05
0.000475959
5.32832e-05
4.99892e-05
0.000470605
4.37641e-05
4.36576e-05
0.000465164
3.63065e-05
3.80749e-05
0.000457414
2.77111e-05
-4.18595e-05
4.10663e-05
0.000406591
1.64654e-05
0.000237696
2.34788e-05
-1.55123e-05
0.000284279
2.75808e-05
-1.02574e-05
0.00028014
3.48505e-05
-6.78438e-06
0.000275914
3.90608e-05
3.45504e-06
0.000272099
3.82689e-05
1.56716e-05
0.00026878
3.20542e-05
2.56345e-05
0.000266698
2.54055e-05
2.56839e-05
0.00026365
2.02843e-05
2.87025e-05
0.000259795
1.47747e-05
-3.19333e-05
2.95879e-05
0.000231371
7.06943e-06
7.3209e-05
1.88901e-05
-7.28594e-05
9.12359e-05
1.98081e-05
-4.81544e-05
8.89287e-05
2.05966e-05
-2.32207e-05
8.69403e-05
2.01095e-05
-4.71153e-06
8.5524e-05
1.88276e-05
6.2094e-06
8.44237e-05
1.61686e-05
1.567e-05
8.36256e-05
1.31141e-05
2.0853e-05
8.25598e-05
1.07563e-05
2.88134e-05
8.1324e-05
8.51688e-06
3.30899e-05
8.00499e-05
6.44671e-06
-3.67162e-05
3.19307e-05
7.11895e-05
0.000334885
0.00292446
-0.00314659
0.00213653
8.99263e-05
0.00187616
0.000113299
-0.00046511
0.00201403
0.00011971
0.00052563
-0.000462164
0.00183243
0.000174417
0.00162158
0.000124193
-0.000215982
0.00179183
0.00013095
-0.000246467
0.00176909
0.000151126
0.000355657
-0.000322755
0.00158143
0.000142667
0.00138958
0.000132693
-5.87866e-05
0.00157619
0.00013819
-9.14656e-05
0.00155559
0.000177506
-3.96309e-05
0.0015315
0.000181132
9.3973e-05
-5.09018e-05
0.00135722
0.000209186
0.00117671
0.00013447
-0.000127371
0.00134016
0.000145675
-0.000142502
0.00132409
0.00014075
-0.000146729
0.00130586
0.000200201
-0.000143932
0.00128879
0.000198665
6.89206e-05
-0.000110839
0.00114628
0.000146233
0.000972367
8.19646e-05
-0.000117999
0.00111387
6.92937e-05
-0.000117731
0.00110559
9.00362e-05
-0.000124037
0.00110083
0.000108732
-0.000132451
0.001084
0.000136456
-0.000115714
0.00106476
0.000104271
2.03558e-05
-4.47091e-05
0.000945262
6.65354e-05
0.000772307
0.000106252
-5.3444e-05
0.000909066
7.5066e-05
-1.23957e-05
0.000903532
6.11747e-05
-5.7201e-06
0.000893045
7.15511e-05
-1.77541e-05
0.000878364
9.18292e-05
-1.73926e-05
0.000861993
7.69029e-05
1.10344e-06
0.00084662
5.51006e-05
-4.09766e-06
1.10829e-05
0.000751845
4.29864e-05
0.000588162
6.09897e-05
-3.18602e-05
0.000703395
6.94181e-05
2.41588e-05
0.000695298
6.20745e-05
7.15651e-05
0.000687821
5.67304e-05
7.41789e-05
0.000679261
6.07407e-05
5.56812e-05
0.000668389
5.89434e-05
3.79167e-05
0.000657559
5.6501e-05
2.43476e-05
0.000643884
4.26257e-05
-3.68092e-05
3.55791e-05
0.000571797
2.7324e-05
0.000408494
1.95178e-05
-1.93523e-05
0.000493446
2.45491e-05
2.72283e-06
0.000486953
4.28967e-05
2.79774e-05
0.000480408
5.05638e-05
4.66728e-05
0.000474276
5.18294e-05
4.431e-05
0.000468077
4.61928e-05
3.75886e-05
0.000462535
3.9199e-05
3.4334e-05
0.000455111
3.23828e-05
3.94672e-05
0.000446914
2.56254e-05
-4.08146e-05
3.96268e-05
0.000396928
1.41844e-05
0.000232644
2.19276e-05
-1.61602e-05
0.00028517
2.11914e-05
-8.50064e-06
0.000281139
2.60777e-05
-8.89048e-06
0.000276765
3.06415e-05
-3.62767e-06
0.000272465
3.42119e-05
4.18868e-06
0.000268198
3.12945e-05
1.39257e-05
0.000265363
2.65411e-05
1.67065e-05
0.000262248
2.14649e-05
2.30353e-05
0.000258609
1.70115e-05
2.65056e-05
0.000254383
1.35562e-05
-2.52167e-05
2.33264e-05
0.000226152
6.20239e-06
7.15232e-05
1.72994e-05
-8.86393e-05
9.18013e-05
1.83322e-05
-6.46341e-05
8.93834e-05
1.91242e-05
-4.05561e-05
8.71399e-05
1.89102e-05
-2.21103e-05
8.54289e-05
1.82582e-05
-1.05897e-05
8.40649e-05
1.62108e-05
7.06617e-07
8.31763e-05
1.34125e-05
8.93634e-06
8.21296e-05
1.10982e-05
1.93755e-05
8.08996e-05
8.83112e-06
2.59338e-05
7.9649e-05
7.357e-06
2.63806e-05
7.82421e-05
5.60822e-06
-3.02235e-05
2.62724e-05
6.95323e-05
0.000521923
0.00564756
-0.0057226
0.00281768
0.000115358
0.00212848
0.000222535
-0.00316563
0.00240023
0.000219188
0.00169123
-0.00179487
0.00214069
0.000138607
0.00184502
0.000132653
-0.000455169
0.00200693
6.70675e-05
-0.000405114
0.00202086
0.000151713
0.000377454
-0.000344633
0.00179903
0.000144951
0.00158717
0.000131587
-0.000179932
0.00180574
9.00363e-05
-0.000170239
0.00176376
0.000114403
-0.000236339
0.00174577
0.000192029
0.000272219
-0.000245935
0.00154425
0.000177016
0.00136192
0.000139997
-4.1875e-05
0.00158429
0.000137733
-5.40263e-05
0.00154669
0.000132516
-9.85847e-06
0.00153405
0.000193124
-7.27934e-06
0.00149496
0.000188472
5.63533e-05
-2.08521e-05
0.00133191
0.000218694
0.00115036
0.000126923
-0.000143167
0.00133545
9.9374e-05
-0.000147191
0.00131477
0.000122712
-0.00015825
0.00130294
0.000145409
-0.000154283
0.00127954
0.000200301
-0.000145289
0.00125939
0.000167133
3.80194e-05
-7.79639e-05
0.00112336
0.000125234
0.000951032
8.55195e-05
-8.08117e-05
0.00111262
6.25575e-05
-9.21625e-05
0.00110081
6.2737e-05
-0.000115467
0.00109546
9.19186e-05
-0.000132141
0.00108015
0.000111849
-0.000112482
0.00106075
0.000117889
-6.14081e-05
0.00104048
8.82237e-05
-2.75305e-06
-4.61707e-06
0.000919509
6.82201e-05
0.000755422
7.11324e-05
-5.7006e-05
0.000906769
9.77933e-05
-3.44044e-05
0.0009027
7.0904e-05
-2.68776e-06
0.00089167
6.85323e-05
-9.98431e-06
0.000873473
7.72949e-05
-1.33859e-05
0.000857803
7.93839e-05
-8.61403e-07
0.000843517
7.06412e-05
1.6295e-05
0.000827267
4.8869e-05
-8.47656e-06
1.79201e-05
0.000736158
4.08993e-05
0.000574301
4.5793e-05
-5.17702e-05
0.000701779
5.79899e-05
-1.5951e-06
0.000695708
7.33973e-05
4.87979e-05
0.000687565
6.38512e-05
7.1805e-05
0.000676907
6.07469e-05
6.0597e-05
0.000665428
5.71989e-05
4.04961e-05
0.000654803
5.68484e-05
2.30487e-05
0.000641208
5.17356e-05
3.14852e-05
0.000628625
4.20075e-05
-3.60423e-05
3.3423e-05
0.000558034
2.53681e-05
0.000398722
1.91475e-05
-1.09069e-05
0.00049315
1.46753e-05
1.51287e-05
0.000487556
2.757e-05
3.28637e-05
0.000480575
4.32182e-05
4.14406e-05
0.000473063
4.85541e-05
3.83515e-05
0.000465892
4.55117e-05
3.14036e-05
0.000460045
4.10526e-05
2.95408e-05
0.000452817
3.40703e-05
3.71457e-05
0.000444827
2.90242e-05
3.8198e-05
0.00043633
2.4895e-05
-3.68817e-05
3.55896e-05
0.000386882
1.32256e-05
0.000227361
1.9858e-05
-1.61151e-05
0.000285797
1.89643e-05
-5.7252e-06
0.000281763
1.96586e-05
-5.65621e-06
0.000277371
2.34221e-05
-4.22605e-06
0.000272851
2.66359e-05
8.33649e-08
0.000268192
2.73369e-05
6.344e-06
0.000264653
2.56076e-05
8.84359e-06
0.000261031
2.21381e-05
1.68043e-05
0.000257439
1.77566e-05
2.27886e-05
0.0002534
1.53419e-05
2.10612e-05
0.000248663
1.23509e-05
-2.19522e-05
2.02111e-05
0.00022115
5.43244e-06
6.98513e-05
1.57738e-05
-0.00010291
9.23062e-05
1.69276e-05
-7.96534e-05
8.98929e-05
1.77418e-05
-5.64162e-05
8.75018e-05
1.75764e-05
-3.80834e-05
8.55366e-05
1.71722e-05
-2.62502e-05
8.39173e-05
1.56343e-05
-1.36919e-05
8.28291e-05
1.33341e-05
-2.94001e-06
8.17186e-05
1.12625e-05
9.74667e-06
8.0496e-05
9.0484e-06
1.85369e-05
7.92481e-05
7.55296e-06
2.06128e-05
7.78638e-05
6.36441e-06
2.17105e-05
7.64389e-05
4.72916e-06
-2.09446e-05
1.77775e-05
6.79703e-05
0.000515787
0.00630798
-0.00629906
0.00332788
0.000212765
0.00281556
0.000425951
-0.00582249
0.00316015
0.000398105
0.00499053
-0.00503986
0.00268808
0.00016314
0.00211367
9.07499e-05
-0.00297396
0.00249584
0.000275705
-0.00202095
0.00241767
0.000268007
0.00119732
-0.0012592
0.00208627
0.000162109
0.00180955
0.00013184
-0.000435292
0.00203796
4.06376e-05
-0.000372115
0.00202333
0.000107524
-0.000313273
0.00199638
0.000201951
0.000298508
-0.000262938
0.00175353
0.000177459
0.00154446
9.8899e-05
-0.000111897
0.00180892
8.85451e-05
-9.09423e-05
0.00177563
6.58201e-05
-0.000150396
0.00174451
0.000160683
-0.000176565
0.00170884
0.000200795
0.000221637
-0.00020232
0.00151261
0.000186558
0.00133764
0.000185417
-7.37571e-05
0.001582
0.000134404
-5.78126e-05
0.00155305
0.000127376
7.17881e-06
0.00152499
0.000154688
2.27687e-05
0.00149472
0.0002032
7.50844e-06
0.0014637
0.000191766
3.24322e-05
-2.13382e-05
0.00129618
0.000179728
0.00112673
0.000109277
-0.000134455
0.00133145
8.7933e-05
-0.00014512
0.00130801
8.06659e-05
-0.000155697
0.00129429
0.000119556
-0.000154345
0.00127536
0.000148416
-0.000153155
0.00125083
0.000184313
-0.000116709
0.00123171
0.000151921
-9.02567e-06
-2.82864e-05
0.00109698
0.000107293
0.000926204
5.01913e-05
-4.04945e-05
0.00110688
7.04775e-05
-5.1996e-05
0.00109977
5.50523e-05
-9.02307e-05
0.00109142
7.87229e-05
-0.000121792
0.00107492
0.000104525
-0.000115155
0.00105559
0.000105249
-6.40367e-05
0.00103751
0.000112197
-1.73873e-05
0.00101169
8.10524e-05
-4.17401e-05
3.14942e-05
0.000897572
6.00565e-05
0.000739598
4.71602e-05
-4.99114e-05
0.000900762
7.42724e-05
-4.32148e-05
0.000899297
9.55595e-05
-1.34634e-05
0.000891313
7.41738e-05
-1.1193e-06
0.000872483
8.1212e-05
-1.26107e-05
0.000852233
7.86412e-05
-4.06799e-06
0.000839567
7.66103e-05
1.56615e-05
0.000824389
6.44827e-05
2.32246e-05
0.000809216
4.9422e-05
-9.56081e-06
1.84805e-05
0.000719824
4.03968e-05
0.0005604
3.80872e-05
-6.41588e-05
0.000699114
4.35197e-05
-2.21388e-05
0.000693479
6.62401e-05
1.84969e-05
0.000687339
8.39981e-05
4.23021e-05
0.000676288
7.10662e-05
5.18392e-05
0.000663153
6.00815e-05
3.94435e-05
0.000651911
5.64497e-05
2.40233e-05
0.000638432
5.21188e-05
2.87938e-05
0.000625851
4.82782e-05
2.93579e-05
0.000613436
4.19627e-05
-2.72012e-05
2.36911e-05
0.000544477
2.46994e-05
0.000388616
1.2552e-05
1.93284e-06
0.000491896
1.36373e-05
2.64557e-05
0.00048715
1.58816e-05
4.32542e-05
0.000480943
3.18231e-05
4.12996e-05
0.000472315
4.429e-05
2.98904e-05
0.00046387
4.35825e-05
2.33803e-05
0.00045767
4.09739e-05
2.36863e-05
0.000450533
3.5422e-05
3.39361e-05
0.000442742
2.98239e-05
3.65548e-05
0.000434403
2.7669e-05
3.4281e-05
0.000425312
2.35888e-05
-3.27881e-05
3.14001e-05
0.000377032
1.21036e-05
0.000222226
1.66454e-05
-1.42382e-05
0.000286161
1.8444e-05
-3.56658e-06
0.000282122
1.77974e-05
-1.62974e-06
0.000277681
1.84563e-05
-7.85977e-07
0.000273051
2.1368e-05
5.85839e-07
0.000268153
2.15435e-05
4.2882e-06
0.000264339
2.22758e-05
4.36712e-06
0.000260188
2.16251e-05
1.11489e-05
0.000256324
1.81704e-05
1.87615e-05
0.000252344
1.57885e-05
1.84963e-05
0.00024773
1.37717e-05
1.82909e-05
0.000243176
1.11732e-05
-1.48852e-05
1.3446e-05
0.000216145
4.6233e-06
6.82793e-05
1.42993e-05
-0.000115767
9.26934e-05
1.5614e-05
-9.3343e-05
9.03818e-05
1.65015e-05
-7.0963e-05
8.79382e-05
1.63516e-05
-5.27311e-05
8.57978e-05
1.59879e-05
-4.06411e-05
8.39396e-05
1.47197e-05
-2.71275e-05
8.26332e-05
1.28964e-05
-1.4403e-05
8.13957e-05
1.11803e-05
1.76574e-07
8.01084e-05
9.14081e-06
1.10309e-05
7.88611e-05
7.66771e-06
1.4707e-05
7.74861e-05
6.48169e-06
1.69978e-05
7.60947e-05
5.31433e-06
1.41529e-05
7.47482e-05
3.87908e-06
-1.54084e-05
1.28395e-05
6.66601e-05
0.000559736
0.0055531
-0.00566056
0.00341772
0.000251273
0.00336217
0.000404631
-0.00628681
0.00369648
0.000360201
0.00618212
-0.00619842
0.00338209
0.000344158
0.00265045
0.00016464
-0.00578973
0.00313397
0.00051723
-0.00510269
0.00298146
0.000488083
0.00410007
-0.00407195
0.00243989
0.000225633
0.00205967
0.000104882
-0.00285026
0.00254903
0.000229176
-0.00212176
0.00240811
0.000183282
-0.00126292
0.00234563
0.000276996
0.000698259
-0.000685181
0.00199815
0.000211877
0.00176203
7.69917e-05
-0.000386641
0.00205832
6.42169e-05
-0.000349756
0.00203992
6.23548e-05
-0.000290922
0.00200444
0.000178718
-0.000223968
0.00193938
0.000225671
0.000227483
-0.000204647
0.00170582
0.000182352
0.00151092
0.000145249
-5.63009e-05
0.00181432
9.68896e-05
-1.8739e-05
0.00177423
5.73107e-05
-5.84588e-05
0.00175376
0.000122247
-0.000111332
0.00171172
0.000173761
-0.000137982
0.00167394
0.000220596
0.00015727
-0.000150206
0.00147672
0.000181911
0.00130108
0.000164219
-0.000102414
0.00157257
0.000146036
-8.23364e-05
0.00154842
0.000124728
-1.274e-05
0.0015289
0.00013591
4.35993e-05
0.00148781
0.0001591
3.31702e-05
0.00145838
0.000217456
-1.58777e-05
0.00142509
0.000194846
1.14082e-06
-1.10189e-05
0.00126313
0.000149025
0.00110003
7.07008e-05
-0.000129488
0.00132962
8.99214e-05
-0.000136526
0.00130342
6.10704e-05
-0.000143274
0.00128957
9.79344e-05
-0.000148911
0.00126964
0.000118922
-0.00013968
0.00124749
0.000146624
-0.000130661
0.00122341
0.000178366
-6.51997e-05
0.00120246
0.000156337
-3.77959e-05
-1.07439e-05
0.00107024
9.05225e-05
0.000904361
3.04708e-05
-3.35892e-06
0.00110608
5.25146e-05
-1.6679e-05
0.00109332
7.02274e-05
-5.47579e-05
0.00108963
7.08039e-05
-9.84959e-05
0.0010715
9.78039e-05
-0.00010609
0.00104926
0.000112303
-7.4304e-05
0.0010322
0.000110781
-2.34938e-05
0.00100945
0.000100062
1.99193e-05
0.000987686
9.54562e-05
-3.3992e-05
1.04733e-05
0.000875057
5.67943e-05
0.000723026
5.74105e-05
-6.07027e-05
0.000898703
4.73006e-05
-3.93199e-05
0.000893086
7.95948e-05
-1.53176e-05
0.000887797
0.000101086
5.93017e-07
0.000872513
8.67339e-05
-6.7255e-06
0.00085093
8.52222e-05
-1.11487e-05
0.000834173
8.51259e-05
6.41149e-06
0.000820141
7.39265e-05
1.94416e-05
0.000806364
6.64629e-05
1.86457e-05
0.000790866
5.1384e-05
-1.1326e-05
1.96208e-05
0.000702107
4.02746e-05
0.000546769
2.14826e-05
-6.60869e-05
0.00069478
3.82871e-05
-3.85646e-05
0.00069089
5.01755e-05
-7.03286e-06
0.000684715
7.68221e-05
9.39214e-06
0.00067525
9.24908e-05
1.76866e-05
0.00066224
7.05126e-05
2.58396e-05
0.000649826
5.84657e-05
2.29545e-05
0.000635488
5.3265e-05
2.63794e-05
0.000623003
4.84794e-05
2.5845e-05
0.000610708
4.67285e-05
1.95877e-05
0.00059848
4.00686e-05
-2.24372e-05
1.86748e-05
0.000531759
2.34863e-05
0.00037875
6.79659e-06
1.68943e-05
0.000490352
1.16267e-05
3.91694e-05
0.000485999
1.22533e-05
5.53099e-05
0.000480638
1.87523e-05
4.94782e-05
0.000472468
3.48042e-05
2.60662e-05
0.000462702
4.09107e-05
1.26639e-05
0.000455219
3.9957e-05
1.53756e-05
0.0004483
3.61031e-05
2.93206e-05
0.000440671
3.03398e-05
3.46656e-05
0.000432462
2.80523e-05
3.28488e-05
0.000423572
2.59839e-05
2.99719e-05
0.000414528
2.19256e-05
-2.33697e-05
2.19958e-05
0.000367653
1.10377e-05
0.00021713
1.29564e-05
-1.01312e-05
0.000286217
1.74318e-05
-1.51967e-06
0.000282296
1.82993e-05
9.16333e-07
0.000277778
1.77155e-05
2.4709e-06
0.00027306
1.85855e-05
3.03946e-06
0.000267999
1.8049e-05
5.18213e-06
0.00026393
1.82339e-05
3.74927e-06
0.000259619
1.95731e-05
7.66607e-06
0.000255278
1.79707e-05
1.49481e-05
0.000251307
1.60509e-05
1.57805e-05
0.000246677
1.40393e-05
1.62691e-05
0.000242194
1.23677e-05
1.1885e-05
0.000237684
9.48259e-06
-1.07768e-05
9.61025e-06
0.000211708
3.8181e-06
6.69501e-05
1.28825e-05
-0.000127302
9.29321e-05
1.43545e-05
-0.000105799
9.07949e-05
1.53883e-05
-8.43484e-05
8.83788e-05
1.52725e-05
-6.62018e-05
8.61364e-05
1.48669e-05
-5.37983e-05
8.40881e-05
1.37334e-05
-3.94764e-05
8.25551e-05
1.22154e-05
-2.51672e-05
8.1182e-05
1.09147e-05
-9.15013e-06
7.98077e-05
9.07346e-06
3.55925e-06
7.85066e-05
7.70303e-06
8.73959e-06
7.71255e-05
6.53622e-06
1.21845e-05
7.57633e-05
5.35975e-06
1.04237e-05
7.44642e-05
4.32854e-06
9.91364e-06
7.33446e-05
3.20605e-06
-8.62315e-06
6.60312e-06
6.54741e-05
0.000270891
0.00524223
-0.00511946
0.00364503
0.000281789
0.00343215
0.000392355
-0.00569249
0.00374634
0.000244883
0.00604035
-0.00594319
0.00343587
0.000332606
0.00337342
0.000157461
-0.00633265
0.00370714
0.000531074
-0.00622545
0.00370966
0.000748192
0.00592699
-0.00601865
0.00321364
0.000463492
0.00240892
0.000172119
-0.00573749
0.00309002
0.000390271
-0.00511768
0.00298787
0.000422619
-0.00402081
0.00269098
0.000421133
0.0032762
-0.0032472
0.00226676
0.000280321
0.00197349
8.33952e-05
-0.00278439
0.0024928
0.000189417
-0.00208834
0.00239041
0.000240037
-0.00135768
0.00232519
0.000253424
-0.000636209
0.00222195
0.000237906
0.000355827
-0.000314799
0.00194489
0.000257072
0.00170558
0.000154468
-0.000364876
0.00204337
6.13125e-05
-0.000299506
0.00204364
5.22133e-05
-0.000259586
0.00201369
0.000173738
-0.000213898
0.00194288
0.000204074
-0.000179564
0.00188398
0.000288522
0.000217934
-0.000210771
0.00163073
0.000201511
0.0014779
0.000184574
-6.06165e-05
0.0017985
0.000155826
7.99083e-06
0.0017778
9.39179e-05
2.82058e-06
0.00174376
0.000105172
-4.28111e-05
0.00171598
0.000129199
-7.22889e-05
0.00167592
0.000224433
-0.000112705
0.00162947
0.00022851
0.000106867
-9.88269e-05
0.00143501
0.00017044
0.00126888
7.99999e-05
-9.08711e-05
0.00155543
0.000147817
-0.000104829
0.00153717
0.000101621
-2.94549e-05
0.00152458
0.000158012
2.47044e-05
0.00148772
0.000127706
5.85654e-05
0.00145363
0.000175159
-5.81469e-07
0.00141455
0.000226003
-2.38186e-05
0.00139026
0.000190576
-3.99207e-05
3.17988e-05
0.00123702
0.000137708
0.001074
5.45767e-05
-0.000128733
0.00134056
7.83633e-05
-0.000137695
0.00130494
9.50677e-05
-0.000150048
0.00128535
8.71878e-05
-0.000143197
0.00126747
0.000119734
-0.000135138
0.00124317
0.000130063
-0.000121396
0.00122046
0.000151751
-7.79631e-05
0.0011952
0.000162309
-4.62026e-05
0.00117567
0.000183195
-3.30317e-05
-2.67982e-05
0.00104233
9.73338e-05
0.000881093
4.97998e-05
2.19748e-05
0.00110551
3.0232e-05
1.52602e-05
0.00109121
5.84331e-05
-2.45519e-05
0.00108428
8.64461e-05
-6.36469e-05
0.00106942
9.68312e-05
-9.0545e-05
0.00104585
0.000106096
-7.1778e-05
0.00102586
0.00012577
-3.6871e-05
0.00100493
9.98821e-05
1.64768e-05
0.000986934
0.000101333
5.52935e-07
0.000962737
9.93245e-05
-2.95709e-05
5.34643e-07
0.000856152
5.61729e-05
0.000705188
6.57317e-05
-9.38253e-05
0.00089359
6.34806e-05
-5.69378e-05
0.000891128
5.07688e-05
-5.26212e-06
0.000882437
8.6997e-05
9.43982e-06
0.000868775
0.000109215
-2.48849e-06
0.000851551
9.62308e-05
-1.76175e-05
0.00083168
9.05519e-05
-7.30794e-06
0.000815806
8.08057e-05
1.07626e-05
0.000801279
7.51526e-05
1.05386e-05
0.000787798
6.67066e-05
1.88024e-05
0.000771707
4.96372e-05
-1.07774e-05
1.84093e-05
0.000684907
3.85243e-05
0.00053397
5.46619e-06
-5.75571e-05
0.000690991
1.99834e-05
-3.8999e-05
0.000686858
4.29257e-05
-2.84944e-05
0.000681679
5.68489e-05
-1.61028e-05
0.000672113
8.1977e-05
-1.45254e-05
0.000660289
8.60586e-05
-5.68102e-06
0.000648613
6.89671e-05
1.03553e-05
0.000633416
5.37625e-05
2.41565e-05
0.000620051
4.91e-05
2.22944e-05
0.000607793
4.70188e-05
1.54984e-05
0.000595831
4.44168e-05
1.41273e-05
0.000584594
3.83574e-05
-9.81022e-06
6.1014e-06
0.000519036
2.19626e-05
0.000369325
2.39158e-06
3.22451e-05
0.000488164
1.22442e-05
5.00398e-05
0.00048467
1.4293e-05
6.59245e-05
0.000479391
1.52153e-05
6.05594e-05
0.000472057
2.32611e-05
3.12409e-05
0.000462618
3.29537e-05
6.55121e-06
0.00045391
3.79216e-05
5.08638e-06
0.000445821
3.58832e-05
2.26789e-05
0.000438631
3.12677e-05
3.14374e-05
0.000430602
2.81726e-05
3.14262e-05
0.000421763
2.61769e-05
2.84496e-05
0.000412956
2.42392e-05
2.03399e-05
0.000404312
1.88179e-05
-1.73862e-05
1.60731e-05
0.000359631
9.39776e-06
0.000212661
1.02793e-05
-4.68812e-06
0.000285781
1.48016e-05
2.00627e-06
0.000282244
1.83207e-05
2.56075e-06
0.000277719
1.8507e-05
4.08249e-06
0.000272932
1.89561e-05
4.25859e-06
0.000267752
1.72021e-05
6.21147e-06
0.000263501
1.62182e-05
4.72764e-06
0.000258949
1.66798e-05
7.0379e-06
0.000254482
1.70966e-05
1.2007e-05
0.000250196
1.5994e-05
1.31035e-05
0.000245693
1.4235e-05
1.41216e-05
0.000241126
1.24397e-05
1.02992e-05
0.0002367
1.05123e-05
8.28631e-06
0.000232824
8.1847e-06
-5.9966e-06
5.07824e-06
0.000207648
3.18272e-06
6.57308e-05
1.16946e-05
-0.00013775
9.29928e-05
1.31115e-05
-0.000117077
9.10991e-05
1.43334e-05
-9.666e-05
8.87732e-05
1.43256e-05
-7.86397e-05
8.6491e-05
1.38768e-05
-6.5841e-05
8.43023e-05
1.27654e-05
-5.07238e-05
8.25701e-05
1.14781e-05
-3.51203e-05
8.103e-05
1.04699e-05
-1.80339e-05
7.95959e-05
8.92654e-06
-3.8061e-06
7.82465e-05
7.65504e-06
2.76538e-06
7.68258e-05
6.54418e-06
7.30448e-06
7.54613e-05
5.37542e-06
6.61193e-06
7.41996e-05
4.34221e-06
6.91788e-06
7.31178e-05
3.55329e-06
4.3218e-06
7.2072e-05
2.83588e-06
-3.29229e-06
1.62643e-06
6.43041e-05
0.000114285
0.00499716
-0.00497897
0.00398848
0.000202978
0.00365103
0.00029907
-0.00511327
0.00388167
0.000205489
0.00523022
-0.00520641
0.00366062
0.000278508
0.00343875
0.000151331
-0.00572806
0.00376321
0.000508159
-0.00590769
0.00373377
0.000656659
0.00587581
-0.00590391
0.00355549
0.000507139
0.00322953
0.000102714
-0.00631435
0.00368175
0.000453098
-0.00628224
0.0037011
0.000496048
-0.00594197
0.00355955
0.000626834
0.00554851
-0.00555249
0.00301193
0.000503857
0.00227949
0.000164932
-0.00570808
0.00305632
0.000309989
-0.00507492
0.00292668
0.000555505
-0.0040563
0.00270789
0.000376588
-0.00313019
0.00245081
0.000468265
0.00202884
-0.00212052
0.00212808
0.000304778
0.00191349
0.00022646
-0.00281086
0.00234811
0.000146731
-0.00202023
0.00233928
0.000249925
-0.00144809
0.00228311
0.000281342
-0.000617774
0.00219915
0.000190757
-0.00023525
0.00215572
0.00037976
0.000128118
-0.000137814
0.00186335
0.000290871
0.00163192
0.000273362
-0.000410004
0.002034
0.000158436
-0.000282419
0.00202367
6.62788e-05