/*--------------------------------*- C++ -*----------------------------------*\
  =========                 |
  \\      /  F ield         | OpenFOAM: The Open Source CFD Toolbox
   \\    /   O peration     | Website:  https://openfoam.org
    \\  /    A nd           | Version:  7
     \\/     M anipulation  |
\*---------------------------------------------------------------------------*/
FoamFile
{
    version     2.0;
    format      ascii;
    class       surfaceScalarField;
    location    "1";
    object      phi_0;
}
// * * * * * * * * * * * * * * * * * * * * * * * * * * * * * * * * * * * * * //

dimensions      [0 3 -1 0 0 0 0];

internalField   nonuniform List<scalar> 
54006
(
1.66736e-05
-0.000131634
0.000115793
8.69064e-05
2.94784e-05
-0.000138695
0.000127547
0.000267245
1.50674e-05
8.80219e-05
2.02979e-05
9.6357e-05
9.46628e-05
1.57085e-05
-0.000125446
0.00011122
8.5423e-05
3.54477e-05
-9.57493e-05
9.27114e-05
0.000459395
2.38185e-05
0.000270452
3.94248e-05
0.000110015
0.000291096
2.86161e-05
-0.000125011
0.000115151
0.000264198
1.42693e-05
8.64963e-05
2.20457e-05
7.51284e-05
9.33232e-05
1.90855e-05
9.37058e-05
9.30922e-05
1.4423e-05
-0.000121322
0.000108725
8.35963e-05
4.62651e-05
-5.40099e-05
4.79978e-05
0.000653323
2.56392e-05
0.000463824
5.38051e-05
8.07743e-05
0.000501222
3.33004e-05
-8.93518e-05
8.88567e-05
0.000455206
2.38461e-05
0.000267184
4.72501e-05
8.59072e-05
0.000286835
3.76096e-05
9.96873e-05
0.000288036
2.74624e-05
-0.000112088
0.000102814
0.000260432
1.31337e-05
8.46141e-05
2.325e-05
5.26839e-05
9.20646e-05
2.07501e-05
7.4445e-05
9.18338e-05
1.75573e-05
9.30935e-05
9.1166e-05
1.32015e-05
-0.000109491
9.82277e-05
8.16579e-05
8.12182e-05
-2.00001e-05
-7.93958e-06
0.000842394
3.66462e-05
0.000657216
7.3949e-05
3.20076e-05
0.000715797
3.82546e-05
-5.61252e-05
5.8255e-05
0.000646239
2.60776e-05
0.000459027
7.37747e-05
5.57495e-05
0.000494486
4.99007e-05
8.01867e-05
0.000497601
3.21242e-05
-9.09479e-05
9.13977e-05
0.000450095
2.35583e-05
0.000263169
5.55222e-05
5.43019e-05
0.000282463
4.44385e-05
7.86919e-05
0.000284142
3.55572e-05
8.8553e-05
0.000284297
2.55755e-05
-9.62691e-05
8.82378e-05
0.00025609
1.20771e-05
8.25847e-05
2.3706e-05
2.98025e-05
9.10026e-05
2.19575e-05
5.38997e-05
9.06524e-05
1.91903e-05
7.57157e-05
9.00213e-05
1.6016e-05
8.42225e-05
8.91555e-05
1.26379e-05
-9.43987e-05
8.37848e-05
7.96339e-05
0.000140293
4.84513e-06
-4.93036e-05
0.0010337
8.1138e-05
0.000846451
0.000100384
-2.8467e-05
0.000926492
6.62133e-05
-1.63418e-05
-2.42662e-06
0.000833204
2.91509e-05
0.000649606
9.57651e-05
1.2508e-05
0.00070932
6.64523e-05
4.83796e-05
0.000709121
3.50472e-05
-6.83541e-05
7.40613e-05
0.000637608
2.6938e-05
0.000453418
8.90988e-05
2.25373e-05
0.000487691
6.66753e-05
6.04074e-05
0.000492028
4.59581e-05
8.58044e-05
0.000492793
3.2224e-05
-8.38375e-05
8.39931e-05
0.000443291
2.24802e-05
0.000258518
5.43356e-05
2.44631e-05
0.000279666
5.1367e-05
5.13704e-05
0.000280375
4.13957e-05
6.96017e-05
0.000280888
3.27024e-05
7.58911e-05
0.000279957
2.43296e-05
-7.86577e-05
7.20006e-05
0.000251055
1.1689e-05
8.04283e-05
2.40911e-05
6.68805e-06
9.0168e-05
2.27032e-05
3.25521e-05
8.9647e-05
2.05294e-05
5.68758e-05
8.89629e-05
1.74926e-05
6.85858e-05
8.81654e-05
1.51611e-05
7.06966e-05
8.70835e-05
1.16085e-05
-7.9449e-05
6.95917e-05
7.78827e-05
0.000183068
8.27642e-05
-0.000106014
0.00122616
0.000155469
0.00103902
0.000132361
-6.65733e-05
0.00113603
0.000120356
4.18792e-05
-8.00705e-05
0.00101775
6.57741e-05
0.000836368
0.000111173
-3.96961e-05
0.000920136
9.77451e-05
-2.47485e-05
0.000917521
6.45054e-05
-1.95628e-05
2.18444e-06
0.000821124
2.64628e-05
0.00064089
9.17785e-05
1.0839e-05
0.000704053
8.71271e-05
3.31909e-05
0.000704057
6.21848e-05
6.63816e-05
0.000700574
3.97498e-05
-6.49931e-05
6.90123e-05
0.000626063
2.8243e-05
0.00044616
8.4422e-05
-7.2372e-06
0.000485219
7.87932e-05
3.40045e-05
0.000486668
5.91181e-05
7.18646e-05
0.000488246
4.33036e-05
8.02279e-05
0.000485957
3.32302e-05
-6.71223e-05
6.69226e-05
0.00043459
2.18704e-05
0.000253134
4.7269e-05
2.5801e-06
0.000279747
5.05897e-05
2.52513e-05
0.000277899
4.73914e-05
4.54109e-05
0.000277703
3.75401e-05
5.96458e-05
0.000277086
3.05369e-05
6.17181e-05
0.000274864
2.18375e-05
-6.38456e-05
5.80645e-05
0.000246607
1.08827e-05
7.85189e-05
2.33323e-05
-1.54447e-05
9.0032e-05
2.31312e-05
1.07616e-05
8.88274e-05
2.16442e-05
3.68039e-05
8.80747e-05
1.88178e-05
5.14585e-05
8.72724e-05
1.63972e-05
5.61885e-05
8.62763e-05
1.37411e-05
5.76001e-05
8.53338e-05
1.02241e-05
-6.19136e-05
5.34121e-05
7.61601e-05
0.000188171
0.00022689
-0.00020756
0.00143917
0.000189399
0.00123033
0.000158387
-0.000111226
0.00134979
0.000167309
6.94646e-05
-9.8152e-05
0.00120789
0.000132815
0.00102411
0.000142902
-8.59362e-05
0.00112946
0.00013392
-0.000100817
0.0011206
0.000122869
4.7218e-05
-9.34678e-05
0.00100563
6.06066e-05
0.000823829
9.02311e-05
-3.39823e-05
0.000916349
0.000101308
-3.17605e-05
0.000912967
9.58583e-05
-1.89647e-05
0.000904997
6.9248e-05
-8.62922e-06
-4.41025e-06
0.000804665
3.10595e-05
0.000629371
7.62709e-05
1.99813e-05
0.000701382
8.13713e-05
3.48066e-05
0.000699859
7.83838e-05
5.4347e-05
0.000696826
6.15927e-05
6.28708e-05
0.000688426
4.4672e-05
-5.49143e-05
5.70698e-05
0.000612466
3.02659e-05
0.000437086
6.79001e-05
-2.65442e-05
0.000486856
7.38817e-05
1.16939e-05
0.000484238
6.81962e-05
5.37551e-05
0.000483973
5.3313e-05
7.05112e-05
0.00048219
4.23205e-05
6.40997e-05
0.000476996
3.09892e-05
-5.24273e-05
5.19035e-05
0.000425962
1.99423e-05
0.000248323
3.762e-05
-9.93248e-06
0.000281494
4.54724e-05
4.9059e-06
0.000277751
4.74535e-05
2.1923e-05
0.000275577
4.25227e-05
3.92034e-05
0.000274441
3.448e-05
4.81994e-05
0.000272522
2.68077e-05
4.9458e-05
0.000270404
1.98085e-05
-4.46784e-05
4.01108e-05
0.00024159
9.70799e-06
7.66588e-05
2.20109e-05
-3.61488e-05
9.02817e-05
2.25703e-05
-1.0303e-05
8.85262e-05
2.22185e-05
1.606e-05
8.73528e-05
1.99794e-05
3.30142e-05
8.65395e-05
1.75351e-05
4.0364e-05
8.55618e-05
1.46738e-05
4.44951e-05
8.47075e-05
1.19314e-05
4.32453e-05
8.35693e-05
8.85768e-06
-5.34739e-05
4.63061e-05
7.44702e-05
0.000163072
0.000365849
-0.00030806
0.00164338
0.000184901
0.0014367
0.000157487
-0.000179719
0.00158728
0.000180088
0.000174897
-0.00015794
0.00140943
0.00017087
0.00121525
0.000153246
-9.85455e-05
0.00134633
0.000177237
-0.000122389
0.00133071
0.000165349
6.71142e-05
-9.51113e-05
0.00119341
0.00013064
0.00101157
0.000140054
-0.000124589
0.00112638
0.000123209
-0.000108946
0.00111568
0.000133843
-0.00011901
0.00110816
0.000136797
6.47463e-05
-0.000114601
0.000987937
5.98187e-05
0.000807686
6.5386e-05
-1.90822e-05
0.000913737
8.09771e-05
-2.3684e-05
0.000908667
9.60399e-05
-2.51494e-05
0.000901496
9.5851e-05
-2.02094e-05
0.000886538
6.89334e-05
-1.81754e-06
-3.62317e-06
0.000785845
3.755e-05
0.0006157
7.08738e-05
1.88319e-05
0.000700719
6.91959e-05
4.38924e-05
0.000696982
6.92137e-05
5.97824e-05
0.000693406
7.15359e-05
5.59553e-05
0.000685519
6.147e-05
5.2544e-05
0.000673803
4.29621e-05
-4.32151e-05
4.35955e-05
0.000600113
2.918e-05
0.000428197
4.65398e-05
-3.26095e-05
0.000489584
6.16994e-05
-2.07303e-06
0.000484396
6.3936e-05
3.99508e-05
0.000481559
5.85877e-05
5.97815e-05
0.000478637
4.98645e-05
5.70834e-05
0.000473821
3.8656e-05
4.90534e-05
0.000467998
3.00206e-05
-4.08851e-05
4.03366e-05
0.000416298
1.85407e-05
0.000243005
2.86463e-05
-1.44661e-05
0.000283107
3.66586e-05
-6.67471e-06
0.000278986
4.32868e-05
3.34426e-06
0.000275262
4.31054e-05
1.89798e-05
0.000272675
3.81656e-05
3.16097e-05
0.0002704
2.96968e-05
3.843e-05
0.000268527
2.35533e-05
3.36336e-05
0.000265259
1.72853e-05
-3.66156e-05
3.32904e-05
0.000236488
8.44417e-06
7.48773e-05
2.04403e-05
-5.51749e-05
9.07075e-05
2.12786e-05
-2.99464e-05
8.86465e-05
2.18501e-05
-4.24278e-06
8.69789e-05
2.05136e-05
1.3915e-05
8.59384e-05
1.84889e-05
2.34426e-05
8.4972e-05
1.55119e-05
3.03968e-05
8.41483e-05
1.25581e-05
3.23275e-05
8.30672e-05
1.02719e-05
3.78104e-05
8.17936e-05
7.3815e-06
-4.56158e-05
3.98226e-05
7.28819e-05
9.49757e-05
0.000640479
-0.00052299
0.00184826
0.000161167
0.00166048
0.000150516
-0.00025663
0.00179968
0.00016838
0.000372618
-0.000328055
0.00161052
0.000166399
0.00140851
0.000118662
-0.000120297
0.00158345
0.000181755
-0.000131403
0.00155622
0.000155242
0.000103989
-7.27303e-05
0.00138828
0.000172438
0.00120087
0.000167465
-0.000107621
0.00134629
0.000151402
-0.000129325
0.00132507
0.000187379
-0.000132236
0.0013143
0.000193756
7.29136e-05
-0.00010744
0.00117098
0.000143124
0.000993534
8.91282e-05
-0.000133678
0.00111833
0.000109872
-0.000124743
0.00111328
0.000107382
-0.000118635
0.00110397
0.000138902
-0.000138057
0.00108856
0.000132215
5.24666e-05
-9.50543e-05
0.000967243
6.44097e-05
0.000789258
8.08829e-05
-2.49403e-05
0.000910742
6.39173e-05
-1.06984e-05
0.00090603
7.24001e-05
-1.63024e-05
0.000896633
9.48078e-05
-2.53688e-05
0.000883383
9.28334e-05
-1.39842e-05
0.000865536
5.80879e-05
-1.47834e-06
3.17102e-06
0.000769026
3.90461e-05
0.000603066
7.27529e-05
-3.91246e-06
0.000702291
6.66347e-05
4.43577e-05
0.000695318
5.91366e-05
7.12944e-05
0.000690269
6.1209e-05
6.41564e-05
0.000682584
6.74289e-05
4.91842e-05
0.000671314
5.63515e-05
3.94677e-05
0.000660235
4.5095e-05
-2.90616e-05
2.84461e-05
0.000585654
2.91968e-05
0.000418348
2.81921e-05
-2.78401e-05
0.000492233
4.31003e-05
-4.69821e-06
0.000485768
5.54484e-05
3.15426e-05
0.000480642
5.60025e-05
5.2285e-05
0.000476159
5.31251e-05
4.99756e-05
0.000470786
4.36436e-05
4.36047e-05
0.000465323
3.62284e-05
3.81035e-05
0.000457556
2.76536e-05
-4.19375e-05
4.115e-05
0.000406718
1.64163e-05
0.000237787
2.3338e-05
-1.51381e-05
0.00028438
2.74944e-05
-1.00364e-05
0.000280253
3.47427e-05
-6.60258e-06
0.00027604
3.89474e-05
3.57669e-06
0.000272231
3.81397e-05
1.57199e-05
0.000268914
3.19398e-05
2.55784e-05
0.000266824
2.5326e-05
2.56286e-05
0.000263764
2.022e-05
2.87033e-05
0.000259898
1.47359e-05
-3.18887e-05
2.95641e-05
0.000231458
7.04861e-06
7.32398e-05
1.88489e-05
-7.2539e-05
9.1251e-05
1.97725e-05
-4.79625e-05
8.89511e-05
2.05548e-05
-2.31227e-05
8.69717e-05
2.00645e-05
-4.73238e-06
8.55618e-05
1.87833e-05
6.13274e-06
8.44649e-05
1.61224e-05
1.55796e-05
8.36668e-05
1.30756e-05
2.0802e-05
8.25981e-05
1.0723e-05
2.8794e-05
8.13606e-05
8.49108e-06
3.30402e-05
8.00847e-05
6.43035e-06
-3.66484e-05
3.18804e-05
7.12195e-05
0.000331188
0.00290129
-0.00312389
0.00213706
9.13874e-05
0.00187667
0.000111079
-0.000463443
0.00201564
0.000120397
0.000525533
-0.000462321
0.00183303
0.000174314
0.0016219
0.000123326
-0.00021547
0.00179206
0.000130708
-0.000247027
0.0017697
0.000151235
0.000355177
-0.000322578
0.00158193
0.000142613
0.00139004
0.000132089
-5.87338e-05
0.00157655
0.000137996
-9.06386e-05
0.00155609
0.000177477
-3.8534e-05
0.00153193
0.000181291
9.35444e-05
-5.04257e-05
0.00135763
0.000209491
0.00117707
0.000133506
-0.000127252
0.00134041
0.000145111
-0.000142758
0.00132448
0.000140599
-0.000146667
0.00130629
0.000200315
-0.000143736
0.00128918
0.000198458
6.83058e-05
-0.000110246
0.00114668
0.000146156
0.000972674
8.13376e-05
-0.000117101
0.00111415
6.89074e-05
-0.000117414
0.00110601
8.97933e-05
-0.000123945
0.0011012
0.000108676
-0.000132292
0.00108433
0.000136316
-0.000115052
0.00106508
0.00010393
1.96871e-05
-4.38166e-05
0.00094553
6.65242e-05
0.000772555
0.000105891
-5.30994e-05
0.000909387
7.48276e-05
-1.20038e-05
0.000903855
6.11003e-05
-5.5239e-06
0.000893288
7.14963e-05
-1.76103e-05
0.000878587
9.16468e-05
-1.70487e-05
0.00086223
7.66945e-05
1.48337e-06
0.00084688
5.49838e-05
-4.31162e-06
1.13506e-05
0.000752098
4.29475e-05
0.000588333
6.06152e-05
-3.11812e-05
0.000703608
6.9339e-05
2.48651e-05
0.000695545
6.19482e-05
7.20493e-05
0.000688063
5.6658e-05
7.42971e-05
0.000679473
6.06426e-05
5.56643e-05
0.000668586
5.88204e-05
3.78595e-05
0.000657746
5.64236e-05
2.44167e-05
0.000644069
4.25722e-05
-3.69587e-05
3.57219e-05
0.000571972
2.72674e-05
0.000408619
1.92381e-05
-1.8564e-05
0.000493586
2.4469e-05
3.44002e-06
0.00048712
4.28293e-05
2.86295e-05
0.000480594
5.04515e-05
4.69609e-05
0.000474462
5.16863e-05
4.43296e-05
0.000468258
4.6058e-05
3.75713e-05
0.000462701
3.90983e-05
3.43972e-05
0.000455257
3.23061e-05
3.95656e-05
0.000447054
2.55871e-05
-4.08572e-05
3.96747e-05
0.000397049
1.41481e-05
0.000232732
2.1775e-05
-1.5691e-05
0.000285264
2.10981e-05
-8.22661e-06
0.000281245
2.59811e-05
-8.65785e-06
0.000276882
3.05209e-05
-3.42789e-06
0.000272589
3.4084e-05
4.32139e-06
0.000268329
3.11725e-05
1.39502e-05
0.000265492
2.64509e-05
1.67122e-05
0.000262365
2.13944e-05
2.30796e-05
0.000258716
1.69643e-05
2.65089e-05
0.00025448
1.3529e-05
-2.52e-05
2.33225e-05
0.000226237
6.18684e-06
7.1553e-05
1.72634e-05
-8.82877e-05
9.18148e-05
1.82993e-05
-6.44142e-05
8.94035e-05
1.90829e-05
-4.04237e-05
8.71691e-05
1.88652e-05
-2.20909e-05
8.5465e-05
1.82104e-05
-1.06221e-05
8.41062e-05
1.61603e-05
6.66037e-07
8.32182e-05
1.33706e-05
8.92958e-06
8.21686e-05
1.1063e-05
1.93926e-05
8.09365e-05
8.80368e-06
2.5913e-05
7.96841e-05
7.33789e-06
2.63508e-05
7.82755e-05
5.59348e-06
-3.01664e-05
2.62305e-05
6.95619e-05
0.000518004
0.00563826
-0.005712
0.00281446
0.000112893
0.00212953
0.000227278
-0.00315419
0.00239953
0.000213197
0.00168176
-0.00177854
0.00214104
0.000139867
0.00184543
0.000131366
-0.000453835
0.00200831
6.7306e-05
-0.00040515
0.00202187
0.000151942
0.000376394
-0.000343623
0.00179955
0.000144952
0.00158756
0.000130484
-0.000178968
0.00180604
8.9017e-05
-0.000170431
0.00176444
0.000114543
-0.00023636
0.00174642
0.00019248
0.000271428
-0.000245424
0.00154474
0.00017726
0.00136237
0.000139287
-4.19705e-05
0.00158466
0.000137284
-5.34218e-05
0.00154716
0.000132484
-8.83532e-06
0.0015345
0.000193191
-6.73923e-06
0.00149537
0.000188541
5.57697e-05
-2.05283e-05
0.0013323
0.00021846
0.00115074
0.000126136
-0.000142849
0.00133562
9.86942e-05
-0.000147266
0.00131514
0.000122365
-0.00015809
0.00130333
0.000145379
-0.000154067
0.00127992
0.000200242
-0.000144773
0.00125978
0.000166789
3.71515e-05
-7.7073e-05
0.00112374
0.000124936
0.000951318
8.48805e-05
-7.97648e-05
0.00111291
6.21231e-05
-9.17728e-05
0.00110122
6.26977e-05
-0.000115377
0.00109584
9.19456e-05
-0.000132008
0.00108047
0.00011176
-0.000111896
0.00106106
0.000117716
-6.05213e-05
0.00104076
8.8042e-05
-3.44175e-06
-3.86688e-06
0.000919781
6.81351e-05
0.000755679
7.06816e-05
-5.67217e-05
0.000907068
9.75855e-05
-3.38878e-05
0.000903025
7.07798e-05
-2.42078e-06
0.00089192
6.85869e-05
-9.92448e-06
0.000873673
7.72903e-05
-1.31504e-05
0.000858042
7.92164e-05
-4.55479e-07
0.000843773
7.04986e-05
1.66195e-05
0.000827537
4.87949e-05
-8.68169e-06
1.8145e-05
0.000736412
4.08484e-05
0.000574476
4.54211e-05
-5.10423e-05
0.000701971
5.7961e-05
-9.50167e-07
0.000695931
7.34591e-05
4.91649e-05
0.000687799
6.38569e-05
7.18367e-05
0.000677118
6.07131e-05
6.04855e-05
0.000665625
5.71195e-05
4.03962e-05
0.000654988
5.67602e-05
2.31115e-05
0.000641389
5.16517e-05
3.16303e-05
0.000628815
4.19808e-05
-3.60739e-05
3.34457e-05
0.000558207
2.53283e-05
0.000398842
1.89046e-05
-1.00722e-05
0.000493278
1.45695e-05
1.58461e-05
0.000487709
2.75695e-05
3.3425e-05
0.000480736
4.31802e-05
4.16667e-05
0.000473229
4.84555e-05
3.83549e-05
0.000466066
4.53922e-05
3.1397e-05
0.000460213
4.09453e-05
2.96374e-05
0.000452966
3.3981e-05
3.72674e-05
0.000444969
2.89741e-05
3.82552e-05
0.000436464
2.48664e-05
-3.69084e-05
3.56224e-05
0.000386998
1.31997e-05
0.000227446
1.97421e-05
-1.55807e-05
0.000285884
1.88774e-05
-5.40059e-06
0.00028186
1.95773e-05
-5.38654e-06
0.000277479
2.33323e-05
-3.97918e-06
0.000272966
2.65258e-05
2.78027e-07
0.000268317
2.72217e-05
6.43825e-06
0.00026478
2.55209e-05
8.9047e-06
0.000261149
2.20627e-05
1.68966e-05
0.000257548
1.77053e-05
2.28233e-05
0.0002535
1.53086e-05
2.10742e-05
0.000248758
1.23281e-05
-2.19442e-05
2.02129e-05
0.000221234
5.41833e-06
6.98808e-05
1.57439e-05
-0.000102532
9.2319e-05
1.68992e-05
-7.94095e-05
8.99109e-05
1.77034e-05
-5.62522e-05
8.75286e-05
1.7533e-05
-3.80254e-05
8.55706e-05
1.71259e-05
-2.62402e-05
8.39572e-05
1.55839e-05
-1.36826e-05
8.28709e-05
1.32907e-05
-2.90081e-06
8.17579e-05
1.12258e-05
9.80224e-06
8.05332e-05
9.01971e-06
1.85465e-05
7.92834e-05
7.53286e-06
2.06047e-05
7.78974e-05
6.34735e-06
2.1686e-05
7.64718e-05
4.71505e-06
-2.09069e-05
1.77528e-05
6.8001e-05
0.000515174
0.00630816
-0.00630251
0.00332733
0.000206824
0.00281213
0.000433389
-0.00581299
0.00315686
0.000390658
0.00498298
-0.00502982
0.00268384
0.000166787
0.00211401
9.16364e-05
-0.00296491
0.00249374
0.00027403
-0.00200384
0.00241811
0.000266488
0.00119311
-0.0012531
0.00208649
0.000162596
0.00181
0.000132178
-0.000435747
0.00203887
3.91101e-05
-0.00037148
0.00202455
0.000108209
-0.000312429
0.00199701
0.000202728
0.000297883
-0.000262491
0.00175391
0.00017785
0.00154487
9.78608e-05
-0.000110526
0.00180927
8.71772e-05
-9.05932e-05
0.0017763
6.58529e-05
-0.000150489
0.0017452
0.000161099
-0.000176333
0.00170942
0.000201223
0.000220756
-0.000201771
0.00151307
0.000186561
0.00133803
0.000184468
-7.35264e-05
0.00158233
0.000133797
-5.73315e-05
0.00155346
0.000127105
8.13939e-06
0.00152545
0.000154721
2.33149e-05
0.00149511
0.000203366
7.59597e-06
0.00146412
0.000191766
3.18438e-05
-2.10809e-05
0.00129657
0.000179193
0.0011271
0.000108596
-0.000134054
0.00133158
8.70356e-05
-0.000144912
0.00130836
8.05174e-05
-0.000155489
0.00129471
0.000119381
-0.000153912
0.00127574
0.000148419
-0.00015275
0.00125123
0.000184209
-0.000115888
0.0012321
0.000151867
-9.83214e-06
-2.75956e-05
0.00109734
0.000107029
0.00092649
4.94897e-05
-3.93521e-05
0.00110714
7.01439e-05
-5.15871e-05
0.00110017
5.49709e-05
-9.01625e-05
0.00109181
7.88665e-05
-0.000121666
0.00107522
0.00010463
-0.000114665
0.00105589
0.000105201
-6.32445e-05
0.0010378
0.000112071
-1.66593e-05
0.00101198
8.1122e-05
-4.21758e-05
3.17709e-05
0.000897859
5.99452e-05
0.000739852
4.67791e-05
-4.97651e-05
0.000901037
7.41809e-05
-4.26437e-05
0.000899604
9.54825e-05
-1.2986e-05
0.000891567
7.41782e-05
-1.00529e-06
0.00087268
8.12856e-05
-1.25121e-05
0.000852463
7.86637e-05
-3.78476e-06
0.000839827
7.65357e-05
1.59601e-05
0.000824657
6.44334e-05
2.34143e-05
0.000809485
4.94202e-05
-9.72165e-06
1.86359e-05
0.000720058
4.0366e-05
0.000560572
3.78243e-05
-6.34653e-05
0.000699303
4.34778e-05
-2.15767e-05
0.000693689
6.63475e-05
1.87628e-05
0.000687555
8.41174e-05
4.22052e-05
0.000676493
7.10744e-05
5.16315e-05
0.000663353
6.00248e-05
3.92951e-05
0.000652094
5.63982e-05
2.40367e-05
0.00063861
5.20379e-05
2.89234e-05
0.000626039
4.82261e-05
2.9384e-05
0.000613625
4.19338e-05
-2.71986e-05
2.36866e-05
0.000544651
2.46693e-05
0.000388733
1.23949e-05
2.76519e-06
0.000492021
1.35225e-05
2.7183e-05
0.000487296
1.58475e-05
4.37689e-05
0.000481094
3.18264e-05
4.14446e-05
0.000472464
4.42449e-05
2.9835e-05
0.00046403
4.34927e-05
2.33558e-05
0.000457836
4.0882e-05
2.38042e-05
0.000450685
3.53252e-05
3.40859e-05
0.000442885
2.97673e-05
3.66241e-05
0.000434538
2.76348e-05
3.43198e-05
0.00042544
2.35596e-05
-3.27735e-05
3.13917e-05
0.000377148
1.20812e-05
0.000222308
1.65804e-05
-1.36808e-05
0.000286242
1.83805e-05
-3.21008e-06
0.000282212
1.77379e-05
-1.34172e-06
0.000277781
1.83996e-05
-5.2416e-07
0.000273157
2.12888e-05
8.11822e-07
0.00026827
2.14554e-05
4.42354e-06
0.00026446
2.22042e-05
4.46763e-06
0.000260303
2.15576e-05
1.12801e-05
0.000256434
1.8117e-05
1.88305e-05
0.000252444
1.57534e-05
1.85291e-05
0.000247825
1.37449e-05
1.83047e-05
0.000243269
1.11484e-05
-1.48848e-05
1.34553e-05
0.00021623
4.60959e-06
6.831e-05
1.42762e-05
-0.000115368
9.27063e-05
1.55912e-05
-9.30798e-05
9.03982e-05
1.64675e-05
-7.07713e-05
8.79625e-05
1.63107e-05
-5.26368e-05
8.58293e-05
1.59443e-05
-4.05911e-05
8.39772e-05
1.46725e-05
-2.7072e-05
8.26741e-05
1.28549e-05
-1.43197e-05
8.1435e-05
1.11433e-05
2.71027e-07
8.01458e-05
9.11136e-06
1.10718e-05
7.88964e-05
7.64677e-06
1.47213e-05
7.75199e-05
6.46397e-06
1.69914e-05
7.6128e-05
5.29829e-06
1.41428e-05
7.47824e-05
3.86618e-06
-1.53967e-05
1.28392e-05
6.66923e-05
0.000556492
0.00555439
-0.0056609
0.00341836
0.000246232
0.00336128
0.000410479
-0.00628743
0.00369502
0.000354752
0.00617915
-0.00619634
0.00338042
0.000352362
0.00264665
0.000168084
-0.00578281
0.00313268
0.000511709
-0.00508921
0.00297857
0.000483995
0.00409165
-0.00406233
0.00243701
0.000226853
0.0020597
0.000107101
-0.00284132
0.00254828
0.000231466
-0.00211025
0.00240779
0.000183285
-0.00125539
0.00234532
0.000277045
0.000693787
-0.000680068
0.00199845
0.000212741
0.00176229
7.48604e-05
-0.000386033
0.00205911
6.29011e-05
-0.000349266
0.00204093
6.31492e-05
-0.000290237
0.00200506
0.00017953
-0.000223631
0.00193971
0.000226662
0.000226763
-0.000204274
0.00170599
0.000182768
0.00151138
0.000144011
-5.45976e-05
0.00181482
9.57778e-05
-1.80698e-05
0.00177477
5.70543e-05
-5.8559e-05
0.00175443
0.000122514
-0.000111231
0.00171231
0.0001745
-0.000137913
0.00167443
0.000220855
0.000156359
-0.000149474
0.0014771
0.000181718
0.00130146
0.000163646
-0.000102144
0.00157288
0.000144719
-8.14871e-05
0.0015488
0.000124601
-1.17778e-05
0.0015293
0.000135667
4.42636e-05
0.00148821
0.000159194
3.31972e-05
0.00145873
0.000217582
-1.58663e-05
0.00142553
0.000194853
4.73529e-07
-1.04579e-05
0.00126356
0.000148697
0.00110039
6.99795e-05
-0.000129061
0.00132981
8.9474e-05
-0.000136403
0.00130374
6.08708e-05
-0.000143057
0.00129003
9.80996e-05
-0.000148485
0.00127005
0.000118921
-0.000139192
0.00124789
0.000146661
-0.000129923
0.00122381
0.000178254
-6.45458e-05
0.00120287
0.000156627
-3.81986e-05
-1.05484e-05
0.00107058
9.04586e-05
0.000904645
3.00269e-05
-2.277e-06
0.00110632
5.23872e-05
-1.6379e-05
0.00109372
7.01998e-05
-5.4716e-05
0.00109
7.0962e-05
-9.84348e-05
0.0010718
9.79495e-05
-0.000105654
0.00104955
0.000112435
-7.36132e-05
0.00103249
0.000110723
-2.27929e-05
0.00100975
0.000100025
2.01616e-05
0.000988
9.5614e-05
-3.41245e-05
1.04323e-05
0.000875357
5.67405e-05
0.000723261
5.71771e-05
-6.07261e-05
0.00089898
4.71986e-05
-3.87205e-05
0.000893393
7.95819e-05
-1.46636e-05
0.000888047
0.000101086
8.75558e-07
0.000872717
8.68409e-05
-6.74458e-06
0.000851146
8.52552e-05
-1.09923e-05
0.00083444
8.51241e-05
6.66484e-06
0.000820396
7.39092e-05
1.95699e-05
0.00080663
6.64679e-05
1.87571e-05
0.000791123
5.13737e-05
-1.14688e-05
1.97585e-05
0.000702329
4.02424e-05
0.000546944
2.12149e-05
-6.53468e-05
0.000694965
3.82621e-05
-3.8107e-05
0.000691093
5.02174e-05
-6.8345e-06
0.000684916
7.69042e-05
9.24587e-06
0.000675437
9.24892e-05
1.74427e-05
0.000662438
7.04641e-05
2.5666e-05
0.000650011
5.83825e-05
2.2966e-05
0.000635664
5.32012e-05
2.64692e-05
0.000623188
4.84334e-05
2.58607e-05
0.000610896
4.66904e-05
1.95835e-05
0.000598672
4.00348e-05
-2.24082e-05
1.86519e-05
0.000531932
2.34568e-05
0.000378866
6.72266e-06
1.76907e-05
0.000490479
1.15794e-05
3.98631e-05
0.000486142
1.22122e-05
5.5806e-05
0.000480785
1.87571e-05
4.95719e-05
0.00047261
3.47898e-05
2.59442e-05
0.000462854
4.0853e-05
1.26097e-05
0.000455379
3.98878e-05
1.55034e-05
0.000448453
3.60172e-05
2.94957e-05
0.000440815
3.02768e-05
3.47523e-05
0.000432598
2.80164e-05
3.28929e-05
0.000423702
2.59526e-05
2.99674e-05
0.000414657
2.18865e-05
-2.33472e-05
2.19785e-05
0.000367778
1.10132e-05
0.000217215
1.29189e-05
-9.56943e-06
0.000286295
1.73936e-05
-1.15038e-06
0.00028238
1.82557e-05
1.21067e-06
0.000277871
1.76847e-05
2.72321e-06
0.00027316
1.85415e-05
3.26284e-06
0.000268109
1.79877e-05
5.3334e-06
0.000264045
1.81833e-05
3.86921e-06
0.00025973
1.95257e-05
7.81535e-06
0.000255385
1.79209e-05
1.50474e-05
0.000251407
1.60152e-05
1.58338e-05
0.000246771
1.40099e-05
1.62974e-05
0.000242286
1.23409e-05
1.19043e-05
0.000237777
9.45701e-06
-1.07962e-05
9.63883e-06
0.000211796
3.80548e-06
6.69821e-05
1.28656e-05
-0.000126887
9.29456e-05
1.43375e-05
-0.000105521
9.08103e-05
1.53594e-05
-8.41335e-05
8.84009e-05
1.52347e-05
-6.60741e-05
8.61651e-05
1.48258e-05
-5.37106e-05
8.4123e-05
1.36899e-05
-3.93788e-05
8.25941e-05
1.21775e-05
-2.50439e-05
8.12208e-05
1.08797e-05
-9.01902e-06
7.98454e-05
9.04426e-06
3.63111e-06
7.85423e-05
7.68176e-06
8.7764e-06
7.71596e-05
6.51814e-06
1.21961e-05
7.57971e-05
5.34332e-06
1.04285e-05
7.4499e-05
4.31417e-06
9.926e-06
7.33804e-05
3.19628e-06
-8.62814e-06
6.61764e-06
6.55065e-05
0.000268431
0.00524174
-0.00512061
0.00364898
0.00027945
0.00343093
0.000400945
-0.00569609
0.00374482
0.000238413
0.00604438
-0.00594624
0.00343655
0.000338429
0.00337158
0.00016213
-0.00633337
0.00370644
0.000525868
-0.00622342
0.00370794
0.000742294
0.00592796
-0.00601683
0.00321099
0.00046383
0.00240769
0.000176677
-0.00573204
0.00308815
0.000395752
-0.00510686
0.00298604
0.000421218
-0.00400927
0.00268757
0.000422322
0.00326393
-0.00323846
0.00226627
0.000280341
0.00197369
7.63449e-05
-0.00276919
0.00249461
0.000191363
-0.00208053
0.0023901
0.000238385
-0.00134778
0.00232494
0.000253165
-0.000630433
0.00222205
0.000239881
0.000352519
-0.00031232
0.00194503
0.000257996
0.00170572
0.000152161
-0.000363263
0.00204422
5.98333e-05
-0.000298714
0.0020445
5.30681e-05
-0.000259498
0.00201417
0.000173967
-0.000213275
0.00194325
0.000205531
-0.000179649
0.00188406
0.000288653
0.000217404
-0.000210203
0.00163099
0.00020172
0.0014783
0.000183505
-5.83574e-05
0.00179895
0.000154791
8.37225e-06
0.0017783
9.38274e-05
2.61724e-06
0.00174437
0.000105337
-4.2965e-05
0.00171649
0.000129596
-7.24193e-05
0.00167641
0.00022517
-0.000112473
0.00162984
0.000228489
0.00010629
-9.82261e-05
0.0014354
0.000170323
0.00126932
7.97049e-05
-9.10087e-05
0.00155582
0.000147146
-0.000103826
0.00153755
0.000101165
-2.82762e-05
0.00152501
0.000158211
2.53647e-05
0.00148808
0.000127728
5.85823e-05
0.00145402
0.000175332
-7.25021e-07
0.00141492
0.00022596
-2.33914e-05
0.00139076
0.000190774
-4.01176e-05
3.21033e-05
0.00123743
0.000137853
0.00107436
5.38928e-05
-0.00012796
0.00134076
7.83917e-05
-0.00013786
0.00130527
9.51103e-05
-0.000150033
0.00128581
8.7493e-05
-0.000142898
0.00126791
0.000119979
-0.000134732
0.00124357
0.000130322
-0.000120787
0.00122087
0.00015159
-7.72207e-05
0.00119562
0.000162217
-4.59623e-05
0.00117609
0.00018347
-3.31054e-05
-2.68302e-05
0.00104266
9.74026e-05
0.000881383
4.97451e-05
2.27438e-05
0.00110576
3.0033e-05
1.55277e-05
0.00109158
5.84698e-05
-2.45456e-05
0.00108467
8.65751e-05
-6.36331e-05
0.00106971
9.70881e-05
-9.02331e-05
0.00104613
0.000106224
-7.11843e-05
0.00102615
0.000125763
-3.61914e-05
0.00100525
9.97717e-05
1.67926e-05
0.000987254
0.000101351
4.89187e-07
0.00096306
9.93516e-05
-2.97049e-05
6.17663e-07
0.000856466
5.6123e-05
0.000705412
6.51295e-05
-9.36591e-05
0.00089384
6.34669e-05
-5.63748e-05
0.00089143
5.07702e-05
-4.52356e-06
0.000882701
8.70344e-05
9.82474e-06
0.000868968
0.000109204
-2.50495e-06
0.000851763
9.63104e-05
-1.76154e-05
0.000831922
9.05275e-05
-7.11186e-06
0.000816072
8.07256e-05
1.09107e-05
0.000801531
7.51488e-05
1.06203e-05
0.000788051
6.66689e-05
1.89477e-05
0.000771955
4.96111e-05
-1.09015e-05
1.85251e-05
0.000685129
3.84941e-05
0.000534144
5.17336e-06
-5.66699e-05
0.000691177
1.99551e-05
-3.85824e-05
0.000687065
4.29441e-05
-2.83395e-05
0.000681867
5.68685e-05
-1.62355e-05
0.000672286
8.19296e-05
-1.47292e-05
0.000660469
8.59477e-05
-5.78544e-06
0.000648795
6.88777e-05
1.03986e-05
0.000633588
5.36885e-05
2.42255e-05
0.000620236
4.90436e-05
2.23044e-05
0.000607977
4.69878e-05
1.54848e-05
0.000596024
4.43794e-05
1.41109e-05
0.000584786
3.83036e-05
-9.79818e-06
6.09908e-06
0.000519214
2.19224e-05
0.00036945
2.30109e-06
3.30403e-05
0.000488295
1.22688e-05
5.06549e-05
0.000484812
1.43034e-05
6.6369e-05
0.000479532
1.52375e-05
6.06136e-05
0.00047219
2.32774e-05
3.1057e-05
0.000462761
3.29275e-05
6.45906e-06
0.000454065
3.78717e-05
5.2198e-06
0.000445974
3.58128e-05
2.2884e-05
0.000438778
3.12069e-05
3.15427e-05
0.000430739
2.81362e-05
3.14757e-05
0.000421894
2.61446e-05
2.84482e-05
0.000413086
2.41999e-05
2.0325e-05
0.000404451
1.87756e-05
-1.73788e-05
1.60715e-05
0.000359767
9.37216e-06
0.000212749
1.02723e-05
-4.14442e-06
0.000285855
1.47808e-05
2.37837e-06
0.000282323
1.829e-05
2.85375e-06
0.000277806
1.84795e-05
4.32451e-06
0.000273025
1.89292e-05
4.46379e-06
0.000267855
1.71656e-05
6.35579e-06
0.000263611
1.61863e-05
4.85003e-06
0.000259055
1.66483e-05
7.19031e-06
0.000254586
1.70576e-05
1.2124e-05
0.000250295
1.59598e-05
1.3176e-05
0.000245787
1.42036e-05
1.41656e-05
0.000241217
1.24122e-05
1.03284e-05
0.000236793
1.04845e-05
8.32436e-06
0.000232921
8.16598e-06
-6.0237e-06
5.11251e-06
0.000207738
3.17301e-06
6.57631e-05
1.16833e-05
-0.000137324
9.30073e-05
1.30996e-05
-0.000116789
9.1114e-05
1.43099e-05
-9.64265e-05
8.87934e-05
1.42915e-05
-7.84816e-05
8.6517e-05
1.38384e-05
-6.57181e-05
8.43341e-05
1.27254e-05
-5.05878e-05
8.26066e-05
1.14443e-05
-3.49615e-05
8.10674e-05
1.04382e-05
-1.787e-05
7.96335e-05
8.89854e-06
-3.70486e-06
7.82828e-05
7.63434e-06
2.82389e-06
7.68605e-05
6.52608e-06
7.33379e-06
7.54958e-05
5.35904e-06
6.63159e-06
7.4235e-05
4.32796e-06
6.94304e-06
7.3154e-05
3.54256e-06
4.34692e-06
7.2108e-05
2.82772e-06
-3.32442e-06
1.667e-06
6.43362e-05
0.000114714
0.00499517
-0.00497843
0.00398915
0.0002032
0.003652
0.000300607
-0.00511128
0.00388538
0.00020524
0.00522731
-0.00520694
0.00366178
0.000281205
0.00343862
0.000157581
-0.00573257
0.00376217
0.000502035
-0.00591084
0.00373326
0.000648811
0.00587368
-0.00590047
0.00355682
0.000509033
0.00322704
0.000108337
-0.00631538
0.00368082
0.000460202
-0.0062809
0.00369947
0.00049389
-0.0059378
0.00355624
0.000629597
0.00554292
-0.00554859
0.00300938
0.000502372
0.00227917
0.000153286
-0.00569753
0.00305505
0.000311677
-0.00506538
0.00292636
0.000554779
-0.00404294
0.00270332
0.000375905
-0.00312388
0.00245025
0.000470078
0.00201643
-0.00210774
0.00212739
0.000306104
0.00191353
0.000224519
-0.00279454
0.00235038
0.000145875
-0.00201216
0.00234021
0.000251608
-0.00143884
0.00228262
0.000279482
-0.000610234
0.00219923
0.000193417
-0.00023422
0.00215606
0.000380201
0.000127978
-0.000137638
0.00186314
0.000290943
0.00163221
0.000271693
-0.000408099
0.00203468
0.000157454
-0.000281608
0.00202445
6.67828e-05
-0.000200484