/*--------------------------------*- C++ -*----------------------------------*\
  =========                 |
  \\      /  F ield         | OpenFOAM: The Open Source CFD Toolbox
   \\    /   O peration     | Website:  https://openfoam.org
    \\  /    A nd           | Version:  7
     \\/     M anipulation  |
\*---------------------------------------------------------------------------*/
FoamFile
{
    version     2.0;
    format      ascii;
    class       volVectorField;
    location    "1";
    object      U;
}
// * * * * * * * * * * * * * * * * * * * * * * * * * * * * * * * * * * * * * //

dimensions      [0 1 -1 0 0 0 0];

internalField   nonuniform List<vector> 
18720
(
(0.138638 -0.0591108 2.01088)
(0.147318 -0.0633225 2.04445)
(0.132068 -0.0593823 2.02897)
(0.145825 -0.0590269 1.99094)
(0.131308 -0.0564669 1.98468)
(0.101958 -0.0443527 2.09563)
(0.131299 -0.0605399 2.06158)
(0.16499 -0.0660456 2.02381)
(0.136668 -0.0567688 2.02917)
(0.125092 -0.0563101 2.00193)
(0.153644 -0.059083 1.96995)
(0.13799 -0.056858 1.96599)
(0.121381 -0.0548941 1.94391)
(0.0974164 -0.0221579 2.11695)
(0.0751873 -0.0409705 2.10855)
(0.131826 -0.0484938 2.07672)
(0.106476 -0.0415072 2.08315)
(0.123219 -0.0540517 2.04486)
(0.180276 -0.0680066 2.001)
(0.152699 -0.0594739 2.01027)
(0.122999 -0.0507233 2.00204)
(0.115803 -0.0544374 1.96037)
(0.162057 -0.0596765 1.9506)
(0.145343 -0.0574068 1.94638)
(0.127631 -0.0555699 1.92662)
(0.110844 -0.0494677 1.90037)
(0.0988697 0.00240647 2.11206)
(0.0730125 -0.0204277 2.12237)
(0.139412 -0.0252858 2.10665)
(0.078806 -0.0254933 2.10285)
(0.0839459 -0.0364105 2.0938)
(0.173697 -0.0520825 2.05458)
(0.131907 -0.0476272 2.06823)
(0.111408 -0.0421381 2.06159)
(0.111514 -0.0483895 2.0161)
(0.185519 -0.0672794 1.97623)
(0.167309 -0.0622726 1.98965)
(0.137799 -0.052931 1.98569)
(0.111658 -0.0432433 1.97041)
(0.106062 -0.0488761 1.91542)
(0.170793 -0.0610413 1.93538)
(0.153454 -0.0584522 1.92821)
(0.134892 -0.0564329 1.90884)
(0.11624 -0.050248 1.88507)
(0.106038 -0.0420474 1.85371)
(0.179531 0.0243025 2.11532)
(0.085303 -0.0102688 2.11449)
(0.144111 0.00604756 2.10966)
(0.0836588 -0.00167566 2.09576)
(0.0646525 -0.02066 2.1063)
(0.199035 -0.0293892 2.09384)
(0.117088 -0.0317938 2.09642)
(0.0663467 -0.0330217 2.07692)
(0.0943262 -0.036339 2.06981)
(0.234664 -0.0587145 2.03086)
(0.166282 -0.0523447 2.05061)
(0.131948 -0.0493556 2.05078)
(0.10619 -0.0383443 2.03475)
(0.101682 -0.0409238 1.98243)
(0.177648 -0.0608567 1.96359)
(0.173246 -0.062424 1.96905)
(0.152025 -0.0555169 1.96799)
(0.12477 -0.0455126 1.95709)
(0.105569 -0.034737 1.93514)
(0.102136 -0.0413143 1.86635)
(0.179896 -0.0637872 1.92568)
(0.161998 -0.0601637 1.91376)
(0.14326 -0.0578044 1.89258)
(0.122699 -0.0511426 1.86985)
(0.110324 -0.0428972 1.84148)
(0.0963255 -0.0348712 1.80916)
(0.209969 0.0558511 2.10806)
(0.194808 0.00303914 2.11536)
(0.166922 0.0257552 2.11204)
(0.140391 0.0377891 2.0848)
(0.0600072 -0.00565279 2.09638)
(0.167471 0.0031439 2.10097)
(0.137491 0.00494541 2.09751)
(0.0814137 -0.00438798 2.06973)
(0.0584812 -0.0271886 2.07929)
(0.213132 -0.0377887 2.08466)
(0.166602 -0.035964 2.08775)
(0.095189 -0.0397167 2.07397)
(0.0723873 -0.0316095 2.04325)
(0.0942674 -0.0332788 2.0407)
(0.235432 -0.0579906 2.02789)
(0.214071 -0.0587185 2.03357)
(0.158406 -0.0555667 2.03804)
(0.122915 -0.0456488 2.02695)
(0.101201 -0.0297981 2.00006)
(0.0968596 -0.0321307 1.94482)
(0.169485 -0.0572805 1.97318)
(0.171233 -0.05912 1.95797)
(0.160157 -0.0560523 1.95163)
(0.137797 -0.0481849 1.94298)
(0.116976 -0.0375292 1.92493)
(0.0975507 -0.0276223 1.89707)
(0.0936604 -0.034232 1.81847)
(0.178514 -0.0642981 1.93269)
(0.170875 -0.0629477 1.9034)
(0.152313 -0.0598375 1.87981)
(0.130327 -0.0524463 1.85646)
(0.115539 -0.0437859 1.82985)
(0.0992825 -0.0355138 1.80058)
(0.083879 -0.0265653 1.77077)
(0.224247 0.10971 2.1388)
(0.23424 0.0532478 2.10355)
(0.170396 0.0503631 2.1097)
(0.192154 0.0483898 2.07895)
(0.164037 0.0231557 2.08913)
(0.180328 0.0168461 2.10562)
(0.163834 0.0428868 2.08534)
(0.136523 0.0395846 2.05547)
(0.0542834 -0.00652768 2.06894)
(0.137297 -0.00365682 2.10036)
(0.165236 -5.90264e-05 2.0934)
(0.141968 0.00284506 2.0737)
(0.0956164 0.000642245 2.03377)
(0.065297 -0.0252101 2.04611)
(0.184188 -0.0515145 2.08504)
(0.176973 -0.0429859 2.08193)
(0.132953 -0.0426812 2.06912)
(0.0910533 -0.0365174 2.04211)
(0.0823512 -0.0257676 2.0032)
(0.0924965 -0.0255053 2.00426)
(0.187999 -0.0471863 2.04554)
(0.208825 -0.0597477 2.03119)
(0.195343 -0.0633058 2.0264)
(0.143095 -0.0519357 2.01801)
(0.114501 -0.0370206 1.99482)
(0.0864244 -0.0226957 1.95822)
(0.0906897 -0.0250341 1.9041)
(0.157657 -0.0559416 1.99542)
(0.16381 -0.0565808 1.96523)
(0.164423 -0.0552795 1.94302)
(0.147291 -0.0495257 1.93045)
(0.128233 -0.0405975 1.91452)
(0.106544 -0.0304817 1.88991)
(0.0862342 -0.0185577 1.86212)
(0.0820288 -0.0259801 1.77659)
(0.17168 -0.0626291 1.9472)
(0.171295 -0.0641308 1.90566)
(0.161551 -0.0626544 1.87084)
(0.138685 -0.0542891 1.84649)
(0.121847 -0.0449605 1.82026)
(0.103081 -0.0361252 1.79286)
(0.0859408 -0.0271618 1.76558)
(0.0745743 -0.0227137 1.73157)
(0.158179 0.172339 2.13654)
(0.200644 0.140125 2.12925)
(0.179225 0.0941845 2.14289)
(0.2052 0.0893576 2.0984)
(0.199189 0.0456459 2.08093)
(0.190753 0.0363288 2.11545)
(0.176763 0.0491219 2.08257)
(0.200727 0.0446094 2.05416)
(0.151567 0.0257659 2.06002)
(0.149894 0.0271096 2.107)
(0.151405 0.034893 2.08323)
(0.152957 0.0545677 2.05918)
(0.133856 0.0476813 2.02863)
(0.067321 0.00106023 2.03249)
(0.103755 -0.00928202 2.10194)
(0.129992 -0.00674966 2.09296)
(0.163707 -0.00370435 2.07327)
(0.144304 0.00386789 2.03762)
(0.106454 0.00243499 1.98847)
(0.0770917 -0.0194537 2.00622)
(0.146271 -0.0564111 2.09345)
(0.152255 -0.056688 2.08193)
(0.137416 -0.0476137 2.06577)
(0.117909 -0.0400831 2.04071)
(0.0942486 -0.0306331 2.00369)
(0.0852632 -0.0193021 1.9586)
(0.0799144 -0.0193876 1.96105)
(0.122662 -0.0290305 2.06834)
(0.174782 -0.0548405 2.04257)
(0.188214 -0.0674344 2.0242)
(0.169907 -0.0604924 2.00998)
(0.130288 -0.0429894 1.98843)
(0.0952598 -0.0288954 1.95546)
(0.0805239 -0.0171875 1.91699)
(0.0813337 -0.0159656 1.86661)
(0.14405 -0.057224 2.01593)
(0.151985 -0.0553562 1.98351)
(0.158939 -0.0537667 1.9489)
(0.153806 -0.0505738 1.92438)
(0.136967 -0.0427649 1.90576)
(0.115024 -0.0336387 1.88286)
(0.0924066 -0.0213709 1.85785)
(0.0707534 -0.0152055 1.82411)
(0.0729047 -0.0220389 1.73485)
(0.163212 -0.0598602 1.96566)
(0.165284 -0.0630403 1.91722)
(0.163063 -0.0641979 1.87039)
(0.146688 -0.0566901 1.83981)
(0.128812 -0.0465643 1.81373)
(0.107731 -0.0369739 1.78686)
(0.0885476 -0.0277727 1.76106)
(0.0763705 -0.023504 1.72864)
(0.0614381 -0.0193407 1.69295)
(0.136667 0.288706 2.13542)
(0.149618 0.209911 2.1506)
(0.132379 0.120826 2.12691)
(0.157753 0.186626 2.10208)
(0.193819 0.108226 2.08604)
(0.155633 0.0635757 2.14168)
(0.212243 0.0644003 2.10495)
(0.188794 0.0529781 2.05861)
(0.202381 0.0471474 2.05996)
(0.222171 0.00850351 2.12275)
(0.171324 0.0488497 2.08449)
(0.186619 0.05069 2.05696)
(0.245105 0.0508504 2.0235)
(0.129613 0.0330339 2.03238)
(0.113474 0.0464547 2.10096)
(0.129691 0.0385715 2.08694)
(0.135775 0.0429084 2.0594)
(0.147712 0.0668433 2.03306)
(0.120604 0.0392297 1.98943)
(0.0812894 0.00714146 1.98868)
(0.117017 -0.0293751 2.10214)
(0.103155 -0.0154181 2.09576)
(0.120882 -0.00845048 2.07091)
(0.153937 -0.00385198 2.0385)
(0.140228 0.00144141 1.99142)
(0.0936666 0.00165305 1.94126)
(0.0837815 -0.0133928 1.96093)
(0.107756 -0.0483345 2.10917)
(0.121768 -0.0609733 2.08661)
(0.115481 -0.0619179 2.06473)
(0.111572 -0.0462632 2.03957)
(0.113348 -0.0353764 2.00408)
(0.0965588 -0.0238401 1.95958)
(0.0848734 -0.0118988 1.91699)
(0.0764894 -0.0137359 1.91903)
(0.0637185 -0.0117875 2.09105)
(0.115371 -0.040411 2.05961)
(0.157963 -0.0662125 2.03011)
(0.163809 -0.0663551 2.00768)
(0.147604 -0.0512054 1.98268)
(0.106388 -0.0332627 1.95112)
(0.0851432 -0.022663 1.91565)
(0.0747869 -0.0180939 1.87343)
(0.0672706 -0.012876 1.8269)
(0.127874 -0.0591604 2.03396)
(0.136721 -0.0561578 2.00178)
(0.148555 -0.0537761 1.96367)
(0.149733 -0.0501396 1.92919)
(0.142161 -0.0451214 1.90194)
(0.121303 -0.0359732 1.87731)
(0.0978715 -0.0246789 1.85365)
(0.0748586 -0.0176848 1.8221)
(0.0595991 -0.0135586 1.783)
(0.0600088 -0.018737 1.69484)
(0.154337 -0.0563873 1.98618)
(0.157698 -0.0609141 1.93269)
(0.156906 -0.0629611 1.87868)
(0.146227 -0.0572932 1.83879)
(0.134078 -0.0484143 1.80951)
(0.112553 -0.0380744 1.78292)
(0.0915028 -0.0285967 1.75752)
(0.078286 -0.0243401 1.72594)
(0.0628842 -0.0201124 1.69114)
(0.0527255 -0.0152765 1.65663)
(-0.0470119 1.45214 2.15251)
(0.104887 0.362654 2.16332)
(0.124081 0.221578 2.103)
(0.152304 0.242678 2.11095)
(0.120931 0.196429 2.11547)
(0.0951803 0.120251 2.13129)
(0.13557 0.128342 2.09158)
(0.12667 0.178556 2.06447)
(0.195064 0.0745398 2.05079)
(0.156827 0.0164605 2.14339)
(0.167922 0.0437675 2.11081)
(0.221248 0.0179257 2.06725)
(0.204874 0.0435224 2.02475)
(0.26155 0.0504885 2.02743)
(0.140735 0.0269454 2.12817)
(0.168047 0.0367977 2.09415)
(0.145637 0.0577328 2.05428)
(0.207945 0.0564881 2.02668)
(0.245455 0.0527753 1.9825)
(0.129632 0.0280574 1.99279)
(0.146956 0.0241093 2.10249)
(0.107042 0.0405192 2.07962)
(0.111455 0.0432333 2.06322)
(0.138889 0.0508455 2.03343)
(0.142147 0.0552875 1.99228)
(0.0974206 0.016784 1.94295)
(0.0777983 0.00710358 1.9424)
(0.167698 -0.0407441 2.10708)
(0.118949 -0.0321778 2.09794)
(0.0983848 -0.0188137 2.07294)
(0.118123 -0.00669493 2.03476)
(0.142598 -0.00622179 1.992)
(0.11568 -0.00432648 1.94403)
(0.103039 -0.00025832 1.90003)
(0.0855881 -0.00634091 1.91849)
(0.0854283 -0.0267644 2.1227)
(0.0878173 -0.0551224 2.09762)
(0.0979145 -0.068094 2.06659)
(0.0971519 -0.0594833 2.03822)
(0.106867 -0.0429649 2.00382)
(0.107904 -0.0287993 1.96023)
(0.0944811 -0.0161258 1.91736)
(0.0788704 -0.0158508 1.87085)
(0.0725589 -0.0141357 1.87491)
(0.0375432 -0.00622334 2.10709)
(0.0558588 -0.0244351 2.07656)
(0.0975728 -0.0522766 2.04093)
(0.130894 -0.0664473 2.00974)
(0.138209 -0.0561118 1.97987)
(0.115131 -0.0396422 1.9471)
(0.0912688 -0.0267155 1.91308)
(0.0774116 -0.0225153 1.8722)
(0.0639554 -0.0178898 1.82796)
(0.0570698 -0.0110004 1.78573)
(0.112764 -0.0601438 2.04919)
(0.119674 -0.0580156 2.01826)
(0.13319 -0.0549871 1.97916)
(0.140889 -0.0519767 1.94087)
(0.13823 -0.0460181 1.9055)
(0.123717 -0.0388214 1.87498)
(0.101392 -0.0271133 1.85037)
(0.0782877 -0.0208098 1.82008)
(0.0616255 -0.015519 1.78222)
(0.0524647 -0.0102814 1.745)
(0.0516481 -0.0146169 1.65794)
(0.145897 -0.0525471 2.00681)
(0.149431 -0.0581361 1.95107)
(0.149465 -0.0607941 1.89138)
(0.140319 -0.0557109 1.8448)
(0.131667 -0.0482294 1.80864)
(0.11477 -0.0390679 1.78008)
(0.0940072 -0.0294608 1.75499)
(0.0801339 -0.0253519 1.72357)
(0.0641577 -0.0209342 1.68923)
(0.0536674 -0.0160707 1.6553)
(0.0460331 -0.012399 1.61804)
(0.416876 2.76947 2.73389)
(-0.132256 1.41909 2.15242)
(0.0946428 1.58967 2.23256)
(-0.00452161 0.826205 2.23867)
(0.171668 0.286088 2.12534)
(0.143624 0.217077 2.10563)
(0.0928448 0.203975 2.10634)
(0.142981 0.185159 2.08978)
(0.076574 0.182949 2.06633)
(0.116872 0.0691808 2.15705)
(0.111067 0.0959191 2.09108)
(0.118032 0.134939 2.06803)
(0.171046 0.135987 2.02042)
(0.2168 0.0756508 2.02226)
(0.16949 -0.0219381 2.1658)
(0.162113 0.00351135 2.10796)
(0.167278 -0.00445192 2.07834)
(0.220947 0.0057205 2.03073)
(0.216877 0.0239552 1.98122)
(0.270277 0.0443438 1.98337)
(0.0918014 0.0432648 2.1335)
(0.0960287 0.0528088 2.08919)
(0.13623 0.0519269 2.05958)
(0.14876 0.062503 2.02032)
(0.205034 0.0569517 1.98333)
(0.193145 0.0358773 1.93939)
(0.141087 0.0176469 1.94597)
(0.169617 -0.00983544 2.10756)
(0.122789 0.0202334 2.07865)
(0.100432 0.0405046 2.06006)
(0.108131 0.0476452 2.03541)
(0.139568 0.0407247 1.99282)
(0.115673 0.0272158 1.94484)
(0.076465 0.00050747 1.89716)
(0.0922414 0.00764484 1.90154)
(0.152496 -0.0337249 2.11142)
(0.163042 -0.0507725 2.10374)
(0.120988 -0.0336784 2.07719)
(0.108851 -0.0202847 2.03332)
(0.120425 -0.0111252 1.98964)
(0.112886 -0.0121846 1.94406)
(0.118299 -0.0106078 1.90187)
(0.096289 -0.00314377 1.85998)
(0.0804672 -0.0105639 1.87168)
(0.0708488 -0.012966 2.12752)
(0.060174 -0.0334741 2.10822)
(0.0940542 -0.0722701 2.07426)
(0.0969089 -0.06879 2.0392)
(0.10341 -0.0544968 2.0028)
(0.107223 -0.0372682 1.95988)
(0.100921 -0.0207183 1.91743)
(0.083257 -0.0190433 1.87029)
(0.0784407 -0.0152269 1.82391)
(0.0630838 -0.0143876 1.82906)
(0.0376593 -0.0141095 2.1152)
(0.0195525 -0.0152821 2.08888)
(0.0407608 -0.0356105 2.05235)
(0.069546 -0.0499081 2.01447)
(0.106285 -0.0551164 1.97904)
(0.103525 -0.0416481 1.94407)
(0.0944055 -0.0319444 1.9105)
(0.0808802 -0.0268385 1.87063)
(0.065492 -0.0212011 1.82689)
(0.0613938 -0.0158917 1.78355)
(0.0507605 -0.00817822 1.74763)
(0.0982893 -0.0594115 2.06278)
(0.104424 -0.0602185 2.03195)
(0.116094 -0.0573407 1.99295)
(0.126702 -0.0544457 1.95293)
(0.13016 -0.0492949 1.91414)
(0.119958 -0.0407483 1.8776)
(0.101843 -0.0301309 1.84882)
(0.0801939 -0.0229194 1.81857)
(0.0635365 -0.0187649 1.78202)
(0.0537952 -0.0125829 1.7445)
(0.044916 -0.00882715 1.70562)
(0.0453366 -0.0116874 1.61908)
(0.138287 -0.0486042 2.02586)
(0.141329 -0.0548635 1.97046)
(0.141603 -0.0581622 1.90758)
(0.133694 -0.0535639 1.85547)
(0.126033 -0.0465213 1.81293)
(0.112026 -0.038536 1.77948)
(0.0942615 -0.0301198 1.75291)
(0.0812729 -0.0262847 1.72166)
(0.0650838 -0.0218554 1.68732)
(0.0542759 -0.0169124 1.65369)
(0.0465098 -0.0132349 1.61704)
(0.0373648 -0.00824664 1.5795)
(0.171727 3.06574 2.8586)
(-0.0789242 2.74764 2.72277)
(0.34129 2.79953 2.78772)
(0.226258 2.42 2.55897)
(-0.0652783 0.839464 2.21099)
(0.209746 1.48285 2.4547)
(0.0427215 0.877686 2.26374)
(0.0770047 0.614162 2.19971)
(0.15783 0.198022 2.09498)
(0.157667 0.192087 2.16039)
(0.0638106 0.185232 2.11354)
(0.0805106 0.149092 2.10648)
(0.164263 0.14735 2.04623)
(0.134091 0.14982 2.01435)
(0.11174 0.0671199 2.17244)
(0.112458 0.04578 2.11602)
(0.0937335 0.079563 2.07139)
(0.151857 0.101947 2.0336)
(0.174322 0.10829 1.97591)
(0.232647 0.0591718 1.98123)
(0.212592 -0.0369489 2.1758)
(0.143283 -0.00933512 2.12829)
(0.138841 -0.02597 2.0735)
(0.168039 -0.0244079 2.0423)
(0.223037 -0.00471859 1.98172)
(0.193115 0.0148059 1.93559)
(0.204979 0.0257065 1.93783)
(0.0763075 0.047904 2.13719)
(0.0655148 0.0557658 2.08711)
(0.0880282 0.0616249 2.05208)
(0.148154 0.0502232 2.02185)
(0.152353 0.0638001 1.97679)
(0.186202 0.0395928 1.9349)
(0.168464 0.0106043 1.89905)
(0.131072 0.00917209 1.90252)
(0.0740042 -0.00226821 2.10786)
(0.139869 -0.0134458 2.08483)
(0.105138 0.0222067 2.05969)
(0.110094 0.0432466 2.03467)
(0.120825 0.0355868 1.99231)
(0.127933 0.0175404 1.94563)
(0.0911737 0.0040609 1.89814)
(0.0659097 -0.0172558 1.84524)
(0.0869529 0.00579303 1.86155)
(0.112981 -0.0330799 2.10758)
(0.155765 -0.042955 2.1048)
(0.162397 -0.0597725 2.08413)
(0.130864 -0.0333365 2.03881)
(0.119188 -0.0234149 1.98513)
(0.104753 -0.0156397 1.9427)
(0.112077 -0.0208603 1.90266)
(0.108869 -0.0151694 1.85973)
(0.0935608 -0.00340903 1.81906)
(0.0792328 -0.0104499 1.82454)
(0.0693794 -0.00794968 2.12765)
(0.0516541 -0.0194564 2.11031)
(0.0805426 -0.0536148 2.08284)
(0.122693 -0.0806044 2.04595)
(0.115635 -0.0666633 2.00362)
(0.112357 -0.0468099 1.95902)
(0.104246 -0.0292383 1.9168)
(0.0858574 -0.0230756 1.8696)
(0.078637 -0.0174535 1.82297)
(0.0754783 -0.010547 1.78143)
(0.0615429 -0.0127064 1.78438)
(0.0329966 -0.0193768 2.11803)
(0.0124922 -0.0202002 2.09549)
(0.00433415 -0.0231688 2.06293)
(0.0244347 -0.0340809 2.02088)
(0.0516139 -0.038052 1.97951)
(0.0731251 -0.0378099 1.94169)
(0.0841999 -0.0332243 1.90798)
(0.0819589 -0.0314903 1.86904)
(0.067177 -0.0250281 1.8258)
(0.061415 -0.0191569 1.78267)
(0.058135 -0.0138187 1.73718)
(0.0437411 -0.00718742 1.70751)
(0.0844892 -0.0581374 2.07438)
(0.0910982 -0.0618173 2.04372)
(0.101287 -0.0604516 2.0043)
(0.110806 -0.0573776 1.96358)
(0.117538 -0.0529433 1.92281)
(0.112312 -0.0445059 1.88377)
(0.0991236 -0.0328816 1.85062)
(0.0801087 -0.0257318 1.81763)
(0.0644801 -0.0207411 1.7816)
(0.0549381 -0.0152018 1.74491)
(0.046019 -0.0109041 1.70512)
(0.0397309 -0.00556189 1.66556)
(0.0370958 -0.00761364 1.58041)
(0.131564 -0.0447015 2.04197)
(0.133812 -0.0513005 1.98931)
(0.134117 -0.0551881 1.92544)
(0.127161 -0.0512233 1.86958)
(0.120263 -0.0445975 1.82151)
(0.107418 -0.0370443 1.7827)
(0.0921039 -0.0298787 1.75267)
(0.0808228 -0.0270461 1.72003)
(0.0653215 -0.0226487 1.68568)
(0.0544514 -0.0177381 1.65198)
(0.0466371 -0.0140572 1.61576)
(0.0374428 -0.0089546 1.57895)
(0.0297418 -0.00590915 1.54614)
(0.318112 2.69379 2.70042)
(-0.123626 3.04962 2.8641)
(0.425385 3.01755 2.89724)
(0.19629 2.98806 2.87537)
(0.00827951 2.44139 2.542)
(0.339386 2.81486 2.75828)
(0.417883 2.447 2.62277)
(0.234434 1.93825 2.45358)
(0.0416692 0.563854 2.1583)
(0.286419 1.38623 2.49679)
(0.121301 1.05952 2.27241)
(0.10035 0.589028 2.25974)
(0.163813 0.346079 2.11134)
(0.155849 0.160021 2.04958)
(0.128344 0.178471 2.1972)
(0.0800546 0.165712 2.14918)
(0.0362065 0.150762 2.11951)
(0.115837 0.105271 2.0644)
(0.174922 0.11926 1.9896)
(0.139516 0.126677 1.96645)
(0.137346 -0.0157394 2.18441)
(0.114133 0.00267705 2.12945)
(0.111923 0.0437866 2.09106)
(0.134034 0.0496773 2.04431)
(0.167271 0.0863066 1.98782)
(0.206519 0.0791051 1.93008)
(0.205552 0.0399658 1.9365)
(0.200453 -0.0245963 2.17285)
(0.157912 -0.0124289 2.13225)
(0.103457 -0.0302313 2.08795)
(0.113555 -0.034133 2.03866)
(0.171313 -0.0292932 1.98645)
(0.20486 0.00594257 1.93324)
(0.188649 0.00482514 1.88677)
(0.164563 0.00116709 1.89631)
(0.0812497 0.0325756 2.13773)
(0.0639969 0.0515934 2.08861)
(0.065259 0.0561363 2.05006)
(0.121274 0.050276 2.0186)
(0.162202 0.0437919 1.97797)
(0.146154 0.0542505 1.93013)
(0.193686 0.0167827 1.89138)
(0.156138 -0.00133438 1.85407)
(0.114058 -0.0132551 1.85221)
(0.0304741 -0.00425359 2.11622)
(0.0717531 -0.0191132 2.08084)
(0.129199 -0.00592656 2.0656)
(0.102249 0.0231988 2.03627)
(0.135837 0.0301966 1.98958)
(0.136567 0.0102125 1.94267)
(0.11543 -0.000260361 1.90134)
(0.084097 -0.0126103 1.84597)
(0.069428 -0.00913343 1.79897)
(0.0858941 0.00473293 1.82008)
(0.0897972 -0.0258068 2.11124)
(0.111731 -0.0413166 2.09761)
(0.154118 -0.0555457 2.08444)
(0.172286 -0.0682852 2.04649)
(0.141225 -0.0328069 1.99033)
(0.107366 -0.0228808 1.93729)
(0.105488 -0.0232559 1.90153)
(0.105924 -0.021403 1.86077)
(0.100126 -0.0153012 1.81718)
(0.0972495 -0.00375426 1.77685)
(0.0752865 -0.0067781 1.78183)
(0.0423548 0.012082 2.12256)
(0.0526061 -0.014312 2.11111)
(0.0625511 -0.0368984 2.08364)
(0.117372 -0.0648263 2.05216)
(0.152987 -0.0782681 2.00916)
(0.132311 -0.0592314 1.96017)
(0.112129 -0.0381001 1.91572)
(0.0887637 -0.0283601 1.86869)
(0.0787146 -0.0216447 1.82198)
(0.0748824 -0.0127554 1.78041)
(0.071936 -0.00793153 1.73747)
(0.0583065 -0.0109844 1.73811)
(0.016363 -0.0203313 2.11893)
(0.0157021 -0.0303043 2.09863)
(-0.00139518 -0.0278903 2.06977)
(-0.00106193 -0.0234644 2.03039)
(0.0214757 -0.0247221 1.98304)
(0.0336929 -0.0225996 1.93936)
(0.0582967 -0.0289771 1.90556)
(0.0755722 -0.0337492 1.86738)
(0.0671924 -0.0288727 1.82474)
(0.0619251 -0.0225025 1.78203)
(0.0566333 -0.0169444 1.73634)
(0.0532515 -0.00937755 1.69134)
(0.0387952 -0.0041055 1.6667)
(0.0707441 -0.0562405 2.08332)
(0.07972 -0.0626759 2.05401)
(0.089321 -0.0633519 2.01393)
(0.0969016 -0.0605056 1.97247)
(0.103354 -0.0559061 1.93064)
(0.101318 -0.0482246 1.88954)
(0.0933126 -0.0367471 1.85482)
(0.0782399 -0.0281775 1.81791)
(0.064282 -0.023493 1.78121)
(0.0553704 -0.0175621 1.74455)
(0.0466861 -0.0129962 1.7052)
(0.0404942 -0.00751933 1.66516)
(0.0335773 -0.00384024 1.62917)
(0.0296868 -0.00537041 1.54703)
(0.125596 -0.0408113 2.05422)
(0.127055 -0.0476143 2.00628)
(0.127298 -0.0520317 1.94347)
(0.121156 -0.0487706 1.88548)
(0.114844 -0.0426284 1.83314)
(0.102896 -0.0355124 1.78913)
(0.088963 -0.0290722 1.7552)
(0.0792032 -0.0273054 1.72002)
(0.064592 -0.0232743 1.68447)
(0.0540894 -0.0184663 1.65043)
(0.0463714 -0.0148328 1.61455)
(0.0372888 -0.00963814 1.57847)
(0.0296335 -0.00641832 1.54628)
(0.0241252 -0.00288935 1.51858)
(0.169117 2.48345 2.62297)
(-0.0567887 2.65572 2.7696)
(0.241846 2.75643 2.64926)
(0.0755812 2.89161 2.63316)
(0.00605355 2.99403 2.87757)
(0.471262 3.03081 2.89649)
(0.452164 2.97695 2.88168)
(0.29362 2.88654 2.86732)
(0.0401384 2.03933 2.38446)
(0.545336 2.73715 2.73706)
(0.52244 2.45989 2.6184)
(0.219069 1.96306 2.44532)
(0.170799 1.58844 2.15619)
(0.159954 0.346159 2.07655)
(0.323572 1.32121 2.4313)
(0.203724 1.02633 2.3411)
(0.133583 0.623868 2.24401)
(0.170894 0.313075 2.15652)
(0.205562 0.169882 2.02991)
(0.162181 0.120564 1.98785)
(0.176128 0.145129 2.18914)
(0.0978488 0.144102 2.17244)
(0.0133825 0.130547 2.13702)
(0.0808001 0.101895 2.08098)
(0.115875 0.0777336 1.99953)
(0.179793 0.11274 1.921)
(0.162793 0.0951627 1.92155)
(0.116394 -0.0145188 2.17373)
(0.111926 -0.0434426 2.14696)
(0.124663 -0.0299491 2.09204)
(0.152742 0.0247156 2.06142)
(0.133917 0.026768 1.99992)
(0.211989 0.0664685 1.93944)
(0.205405 0.0520365 1.88405)
(0.182556 0.0185032 1.88683)
(0.113282 0.0015085 2.15096)
(0.172172 -0.0135676 2.12559)
(0.0929208 -0.0091758 2.08864)
(0.0943848 -0.051124 2.04947)
(0.0952384 -0.0366655 1.98687)
(0.171842 -0.016125 1.92903)
(0.184636 0.00625645 1.88678)
(0.2146 -0.0123721 1.83687)
(0.134296 -0.0168909 1.85245)
(0.0751463 0.032763 2.16322)
(0.0800016 0.0325555 2.09725)
(0.0764296 0.0442336 2.05096)
(0.109175 0.0401123 2.02159)
(0.136188 0.0364501 1.97891)
(0.159139 0.0336546 1.93242)
(0.168695 0.0229893 1.88717)
(0.164782 0.0120797 1.84927)
(0.194425 0.00619346 1.80392)
(0.102038 -0.0144237 1.80546)
(0.0738467 -0.0514984 2.12164)
(0.0276694 -0.0103703 2.08691)
(0.0825476 -0.0250188 2.06224)
(0.132131 6.06944e-05 2.03999)
(0.128983 0.00534493 1.99171)
(0.156142 0.00662283 1.93773)
(0.148248 -0.0119383 1.89904)
(0.115348 -0.0201751 1.85088)
(0.0975042 -5.3603e-05 1.79976)
(0.0708741 -0.00551559 1.75841)
(0.0898691 0.00375737 1.77757)
(0.0695083 -0.00632964 2.11019)
(0.098045 -0.0327149 2.10108)
(0.110877 -0.0583757 2.0785)
(0.153922 -0.0669098 2.04661)
(0.176281 -0.0682616 1.99942)
(0.123499 -0.0270393 1.94134)
(0.103195 -0.0247615 1.89763)
(0.10536 -0.0261608 1.85792)
(0.0996308 -0.0156739 1.81772)
(0.0993642 -0.0157541 1.77503)
(0.0928525 -0.00379393 1.73137)
(0.0720829 -0.00501125 1.73778)
(0.0268382 0.0183065 2.11911)
(0.0375291 0.000958358 2.10644)
(0.0511005 -0.0196247 2.08448)
(0.0810924 -0.0424095 2.05187)
(0.142269 -0.0628721 2.01287)
(0.163394 -0.0679756 1.96474)
(0.132686 -0.0504882 1.9173)
(0.0966593 -0.0352136 1.86722)
(0.0788523 -0.0246362 1.82068)
(0.0744824 -0.0160019 1.77951)
(0.0721325 -0.0105669 1.7365)
(0.0661623 -0.0017195 1.69489)
(0.0536582 -0.00681322 1.69236)
(-0.0024483 -0.0145346 2.11624)
(0.0111594 -0.038327 2.10108)
(0.00607105 -0.0416068 2.07298)
(0.000366807 -0.032193 2.03741)
(0.0120673 -0.0206453 1.99158)
(0.0172708 -0.012076 1.94174)
(0.0314601 -0.0174567 1.9022)
(0.0589708 -0.0320633 1.86589)
(0.0633115 -0.0315721 1.82378)
(0.0614941 -0.0261702 1.78124)
(0.0565521 -0.0197579 1.73646)
(0.0517828 -0.0120333 1.69087)
(0.0455324 -0.00677801 1.65112)
(0.0329196 -0.00252485 1.62997)
(0.0571687 -0.0540735 2.08884)
(0.0687905 -0.062985 2.06246)
(0.0799415 -0.0655494 2.02246)
(0.0858273 -0.0629804 1.98018)
(0.0901937 -0.0580895 1.93751)
(0.0891528 -0.0506869 1.89486)
(0.0843397 -0.0405468 1.85818)
(0.0746884 -0.0315354 1.82012)
(0.0629424 -0.0257684 1.78031)
(0.055279 -0.0200645 1.74446)
(0.0468568 -0.015291 1.70451)
(0.0407933 -0.00929593 1.66484)
(0.0340316 -0.0054735 1.62884)
(0.028046 -0.00176635 1.59712)
(0.0241511 -0.00241353 1.5188)
(0.12032 -0.0369045 2.06259)
(0.121064 -0.043885 2.02039)
(0.121225 -0.0487912 1.96044)
(0.115792 -0.0463061 1.90186)
(0.109895 -0.0406602 1.84649)
(0.0986333 -0.0339545 1.7979)
(0.0858614 -0.0282891 1.75964)
(0.0770344 -0.0271635 1.72216)
(0.0633442 -0.023657 1.68499)
(0.0532453 -0.0190291 1.64999)
(0.0457778 -0.0155216 1.61368)
(0.0368884 -0.0102433 1.57845)
(0.0293756 -0.00694118 1.54725)
(0.0239986 -0.00336309 1.51956)
(0.020518 -0.000493623 1.49195)
(-0.0125803 2.39349 2.68184)
(-0.101989 2.53668 2.6536)
(0.334359 2.44021 2.56031)
(0.0645033 2.49842 2.67927)
(-0.119172 2.94268 2.61607)
(0.283982 2.72627 2.70455)
(0.355643 2.81431 2.68316)
(0.523968 2.77481 2.78898)
(0.183846 2.90861 2.86646)
(0.651039 2.99274 2.8819)
(0.544086 2.99454 2.90663)
(0.482462 2.84478 2.86277)
(0.290186 2.68053 2.69054)
(0.060182 1.58118 2.15442)
(0.740559 2.70359 2.73334)
(0.620118 2.39662 2.57229)
(0.431502 1.92338 2.48162)
(0.217978 1.52103 2.15193)
(0.0900992 0.997155 2.07095)
(0.251028 0.201892 1.99209)
(0.48489 1.31531 2.30073)
(0.239613 0.954376 2.31195)
(0.19476 0.672737 2.20568)
(0.222559 0.280369 2.1463)
(0.211791 0.124156 2.04268)
(0.308488 0.0741771 1.96648)
(0.178635 0.122408 1.91159)
(0.266243 0.0859176 2.19524)
(0.193611 0.0874971 2.16153)
(0.061359 0.10861 2.14357)
(0.0425387 0.0956685 2.09652)
(0.0867945 0.0803912 2.01275)
(0.153828 0.0866543 1.9249)
(0.212473 0.080057 1.84166)
(0.154126 0.0718691 1.87874)
(0.0537144 0.0109366 2.18071)
(0.103677 -0.038988 2.13373)
(0.0953851 -0.0321703 2.1007)
(0.197857 -0.0507914 2.05475)
(0.15065 0.00872344 2.00967)
(0.1644 0.0165685 1.9482)
(0.237189 0.0433404 1.88838)
(0.169629 0.0337678 1.8298)
(0.19213 -0.00305669 1.83745)
(0.0854679 0.00169612 2.15623)
(0.132971 -0.00257082 2.11393)
(0.155217 -0.0450128 2.08146)
(0.0921231 -0.0250467 2.05316)
(0.122581 -0.0663761 1.99314)
(0.123437 -0.0220803 1.93209)
(0.158558 -0.00600305 1.87736)
(0.180439 -0.0172632 1.83979)
(0.229249 0.000999309 1.79846)
(0.169855 -0.0150732 1.80429)
(0.0656541 0.0337744 2.15032)
(0.0776852 0.0448066 2.12278)
(0.088538 0.0461482 2.0619)
(0.118464 0.0300087 2.02322)
(0.138565 0.0279461 1.9856)
(0.12776 0.0295805 1.93294)
(0.174172 0.0089784 1.89129)
(0.132144 0.0132106 1.84588)
(0.15838 0.0194134 1.80526)
(0.200846 0.0133841 1.75841)
(0.0951172 -0.0139311 1.76246)
(0.112788 -0.0978571 2.12988)
(0.0776443 -0.0670451 2.09345)
(0.034427 -0.00400507 2.06431)
(0.0962789 -0.0282898 2.03851)
(0.153723 -0.00657434 1.99539)
(0.171507 -0.0228428 1.93786)
(0.168769 -0.0134859 1.89403)
(0.135377 -0.0291423 1.85136)
(0.124564 -0.0151708 1.80619)
(0.0979104 0.00567582 1.75879)
(0.0678061 -0.00687169 1.71868)
(0.0858399 0.00406674 1.7322)
(0.0464881 0.0372578 2.11791)
(0.0598054 -0.0044439 2.09588)
(0.101893 -0.0570001 2.0816)
(0.112358 -0.0743334 2.04406)
(0.151871 -0.0646108 1.99824)
(0.147123 -0.0470838 1.95105)
(0.1206 -0.0275827 1.89731)
(0.0970539 -0.0244128 1.85641)
(0.100731 -0.0216858 1.81217)
(0.100437 -0.0155626 1.77488)
(0.092523 -0.0143917 1.73071)
(0.0924296 -0.00461554 1.68735)
(0.0662469 0.000362059 1.69523)
(0.0215944 0.017159 2.11967)
(0.0343278 -0.006474 2.10421)
(0.0486155 -0.0123211 2.0813)
(0.0623996 -0.0211953 2.04984)
(0.0968862 -0.0379248 2.01077)
(0.146097 -0.0539057 1.96505)
(0.153221 -0.0574187 1.92083)
(0.110467 -0.0444461 1.86847)
(0.0854328 -0.0303369 1.81934)
(0.0735031 -0.0190125 1.77767)
(0.0717052 -0.0123639 1.73583)
(0.0675214 -0.00449783 1.69422)
(0.05657 0.000122181 1.65597)
(0.0458235 -0.00454321 1.65197)
(-0.0149495 -0.0122467 2.11614)
(-0.00375579 -0.0338778 2.10148)
(0.00738411 -0.0505071 2.07555)
(0.00893779 -0.0468421 2.03988)
(0.0220883 -0.0341114 1.99708)
(0.0216953 -0.0143227 1.9486)
(0.0248241 -0.0110492 1.90407)
(0.0383635 -0.0244059 1.863)
(0.0554389 -0.0320806 1.8227)
(0.0589302 -0.0289356 1.78099)
(0.0560794 -0.0229765 1.7361)
(0.0511278 -0.0144655 1.69135)
(0.0448205 -0.00875044 1.65099)
(0.0398538 -0.00274463 1.61718)
(0.027675 -0.000615384 1.59794)
(0.046772 -0.054017 2.09215)
(0.057245 -0.0625877 2.06729)
(0.0709607 -0.0674566 2.02959)
(0.077179 -0.0650793 1.98686)
(0.0799055 -0.0591743 1.94352)
(0.0776733 -0.0516112 1.89978)
(0.0747992 -0.0424678 1.86161)
(0.0684605 -0.034851 1.82203)
(0.0609198 -0.0286577 1.78109)
(0.0545681 -0.022559 1.74369)
(0.046856 -0.0172798 1.7045)
(0.0409348 -0.0115415 1.66413)
(0.0341343 -0.00694823 1.6285)
(0.0283177 -0.00314187 1.59702)
(0.0257156 0.000399925 1.56719)
(0.0205534 -7.36297e-05 1.49156)
(0.116029 -0.0333064 2.06803)
(0.11585 -0.0401702 2.03116)
(0.115826 -0.0454818 1.97535)
(0.111046 -0.0438445 1.91761)
(0.105425 -0.0387076 1.86047)
(0.0946339 -0.032395 1.80802)
(0.0827477 -0.0273987 1.76551)
(0.0748253 -0.0269706 1.72509)
(0.0617959 -0.0237748 1.68733)
(0.0521525 -0.0194215 1.65155)
(0.0450346 -0.0160611 1.61442)
(0.0364098 -0.0107736 1.57917)
(0.0290865 -0.00739233 1.54857)
(0.0238288 -0.00381849 1.52125)
(0.0204197 -0.000992367 1.49344)
(0.0176253 0.00124517 1.46469)
(-0.0199581 2.20426 2.66575)
(-0.103038 2.35803 2.68979)
(0.12247 2.38277 2.68355)
(0.00184546 2.35359 2.72453)
(-0.0353713 2.5161 2.66158)
(0.383405 2.43412 2.58923)
(0.370187 2.47575 2.60529)
(0.115377 2.44049 2.71341)
(-0.0484001 2.87252 2.75995)
(0.407863 2.74856 2.68036)
(0.572153 2.79909 2.69653)
(0.29973 2.84352 2.70813)
(0.369649 2.76599 2.83887)
(0.268039 2.69628 2.67885)
(0.817017 2.94169 2.89882)
(0.690023 2.9612 2.8948)
(0.76002 2.83188 2.85872)
(0.390611 2.62418 2.70443)
(0.461766 2.24075 2.44378)
(0.0707158 0.977786 2.08206)
(1.05074 2.57899 2.71186)
(0.739284 2.3325 2.55296)
(0.563494 1.88946 2.45679)
(0.314417 1.47425 2.16032)
(0.0634579 1.02085 2.02704)
(0.208429 0.593736 1.92587)
(0.294326 0.0846082 1.9311)
(0.622934 1.18159 2.22942)
(0.338958 0.920196 2.19898)
(0.21885 0.687801 2.16778)
(0.290272 0.265452 2.0957)
(0.187747 0.0799364 2.02711)
(0.313034 0.0583355 1.9768)
(0.170548 0.0863591 1.88919)
(0.204925 0.0986555 1.838)
(0.281596 0.11436 2.21032)
(0.235338 0.0545041 2.15958)
(0.19208 0.0280222 2.12717)
(0.100285 0.0910188 2.1005)
(0.0774406 0.064476 2.01792)
(0.13119 0.0848896 1.93887)
(0.195379 0.0426566 1.84447)
(0.215282 0.0600043 1.79312)
(0.136168 0.0606403 1.82615)
(0.12324 0.0184876 2.1719)
(0.0754088 -0.0557423 2.1527)
(0.104706 -0.019509 2.08735)
(0.164702 -0.0352591 2.05158)
(0.206235 -0.0484899 2.00634)
(0.192351 0.0036542 1.94829)
(0.192094 0.00708296 1.89225)