/*--------------------------------*- C++ -*----------------------------------*\
  =========                 |
  \\      /  F ield         | OpenFOAM: The Open Source CFD Toolbox
   \\    /   O peration     | Website:  https://openfoam.org
    \\  /    A nd           | Version:  7
     \\/     M anipulation  |
\*---------------------------------------------------------------------------*/
FoamFile
{
    version     2.0;
    format      ascii;
    class       volVectorField;
    location    "1";
    object      U_0;
}
// * * * * * * * * * * * * * * * * * * * * * * * * * * * * * * * * * * * * * //

dimensions      [0 1 -1 0 0 0 0];

internalField   nonuniform List<vector> 
18720
(
(0.138358 -0.0590985 2.01123)
(0.146849 -0.063301 2.04505)
(0.131779 -0.0593664 2.0293)
(0.145555 -0.0590203 1.99131)
(0.131055 -0.0564367 1.98497)
(0.101566 -0.0444058 2.09633)
(0.130851 -0.0605203 2.06217)
(0.164503 -0.066027 2.02445)
(0.136281 -0.0567397 2.02978)
(0.124844 -0.0562766 2.0022)
(0.153379 -0.0590838 1.97036)
(0.137734 -0.056831 1.96631)
(0.121118 -0.0548299 1.94422)
(0.0967286 -0.0223646 2.11763)
(0.0748101 -0.041023 2.1092)
(0.131367 -0.0485616 2.07748)
(0.106272 -0.0416046 2.08389)
(0.122847 -0.0540265 2.04544)
(0.179727 -0.0679777 2.0017)
(0.152311 -0.0594394 2.01092)
(0.122633 -0.0506444 2.00265)
(0.115548 -0.0543717 1.96066)
(0.161783 -0.0596814 1.95104)
(0.145089 -0.0573828 1.94675)
(0.127365 -0.0555068 1.92698)
(0.110633 -0.0493685 1.90074)
(0.0981275 0.0021584 2.11272)
(0.0724554 -0.0205933 2.123)
(0.138792 -0.0254982 2.10737)
(0.0783058 -0.0257437 2.10356)
(0.0837949 -0.036502 2.09449)
(0.17324 -0.0521303 2.05541)
(0.131657 -0.0477364 2.06905)
(0.111176 -0.0422063 2.06233)
(0.111157 -0.0483154 2.01667)
(0.185119 -0.0672671 1.97698)
(0.166921 -0.0622356 1.99036)
(0.137433 -0.0528461 1.98635)
(0.111383 -0.043135 1.97106)
(0.105861 -0.0487766 1.91575)
(0.170506 -0.0610437 1.93586)
(0.153207 -0.058431 1.92863)
(0.134629 -0.0563705 1.90925)
(0.116022 -0.0501479 1.88551)
(0.105843 -0.0419401 1.85419)
(0.17833 0.0242299 2.11576)
(0.0843368 -0.0104098 2.11511)
(0.143364 0.00581656 2.11037)
(0.083336 -0.00192741 2.09646)
(0.0642363 -0.0209041 2.10698)
(0.198269 -0.0295991 2.09466)
(0.116568 -0.0320406 2.09719)
(0.0660704 -0.0332169 2.07758)
(0.0941647 -0.0364134 2.0705)
(0.234137 -0.0587825 2.03179)
(0.165995 -0.052466 2.05152)
(0.13167 -0.0494288 2.05159)
(0.105917 -0.0383122 2.03545)
(0.101412 -0.0408148 1.98303)
(0.17731 -0.0608628 1.96442)
(0.172894 -0.0623823 1.96985)
(0.151655 -0.055428 1.96873)
(0.124487 -0.0454074 1.9578)
(0.105345 -0.0346283 1.93582)
(0.101957 -0.0412085 1.86677)
(0.1796 -0.0637807 1.92617)
(0.161759 -0.0601437 1.91425)
(0.143003 -0.0577426 1.89307)
(0.122476 -0.0510407 1.87036)
(0.110115 -0.0427865 1.84204)
(0.0960934 -0.0347594 1.80979)
(0.209358 0.0555089 2.10844)
(0.193879 0.00301867 2.11588)
(0.166218 0.0258008 2.11256)
(0.13996 0.0377181 2.08535)
(0.0596288 -0.00585739 2.09706)
(0.166854 0.00286831 2.10173)
(0.137274 0.0047417 2.09826)
(0.0813721 -0.00453429 2.07039)
(0.0582123 -0.0273961 2.07994)
(0.212155 -0.0379239 2.08557)
(0.165899 -0.036183 2.0886)
(0.0948329 -0.0398794 2.07468)
(0.0723508 -0.0316852 2.04384)
(0.0940496 -0.0332646 2.04136)
(0.234748 -0.0580714 2.02886)
(0.213758 -0.0588601 2.03457)
(0.158064 -0.0556409 2.03894)
(0.122601 -0.0456145 2.02771)
(0.100891 -0.0297333 2.00069)
(0.096648 -0.0320212 1.94544)
(0.169063 -0.0572611 1.97402)
(0.170959 -0.0591024 1.95887)
(0.159821 -0.0559668 1.95247)
(0.137501 -0.0480814 1.94378)
(0.116736 -0.0374255 1.92567)
(0.097308 -0.0275076 1.8978)
(0.0934426 -0.0341227 1.81903)
(0.178222 -0.064291 1.93314)
(0.170638 -0.0629264 1.90394)
(0.152063 -0.0597738 1.88037)
(0.130102 -0.0523419 1.85706)
(0.11532 -0.0436708 1.83049)
(0.0990393 -0.0353978 1.80128)
(0.0836629 -0.0264872 1.77147)
(0.224036 0.109454 2.13919)
(0.233138 0.0526528 2.10403)
(0.170201 0.0502483 2.11014)
(0.192013 0.0481443 2.07962)
(0.163566 0.0230619 2.08976)
(0.179494 0.0169912 2.10621)
(0.163587 0.0429781 2.08595)
(0.136336 0.0394757 2.0562)
(0.0542082 -0.00665713 2.06958)
(0.136871 -0.00389534 2.10112)
(0.165003 -0.000266346 2.09421)
(0.141873 0.00269574 2.07437)
(0.0957004 0.000612333 2.03433)
(0.0652212 -0.0252995 2.04671)
(0.183384 -0.0516023 2.08595)
(0.176064 -0.0431483 2.08285)
(0.132391 -0.042834 2.06989)
(0.09085 -0.0365647 2.04273)
(0.0823135 -0.0257649 2.00376)
(0.0922214 -0.0254561 2.00486)
(0.187578 -0.0473132 2.04642)
(0.208423 -0.0599174 2.03221)
(0.194796 -0.0633936 2.02741)
(0.142731 -0.0518942 2.01884)
(0.114139 -0.036944 1.9955)
(0.0861527 -0.0226493 1.95883)
(0.090467 -0.02492 1.90478)
(0.157133 -0.0558706 1.99621)
(0.163521 -0.0565571 1.96614)
(0.164131 -0.0552241 1.94395)
(0.147007 -0.0494332 1.93133)
(0.127966 -0.0404961 1.91533)
(0.106272 -0.0303689 1.89069)
(0.0859642 -0.0184846 1.86286)
(0.0818171 -0.025904 1.77724)
(0.171394 -0.0626321 1.94759)
(0.17104 -0.0641006 1.90619)
(0.161296 -0.0625892 1.87146)
(0.138456 -0.0541806 1.84717)
(0.121617 -0.0448399 1.82098)
(0.102827 -0.0360052 1.79363)
(0.0857217 -0.0270828 1.76634)
(0.0743635 -0.0226713 1.73229)
(0.15803 0.172799 2.13687)
(0.200134 0.139601 2.12955)
(0.179789 0.0939015 2.14326)
(0.20474 0.0889755 2.09885)
(0.198926 0.0454186 2.08171)
(0.190087 0.0365953 2.11584)
(0.176794 0.0490012 2.08324)
(0.201165 0.0444737 2.05494)
(0.151217 0.0256008 2.06076)
(0.149416 0.0271041 2.10763)
(0.150847 0.0349928 2.08391)
(0.152701 0.0546293 2.05993)
(0.133665 0.0475138 2.02935)
(0.0673427 0.00103493 2.03308)
(0.103513 -0.00951986 2.1027)
(0.12965 -0.00691885 2.09375)
(0.163475 -0.00385941 2.07398)
(0.144186 0.0037886 2.03817)
(0.106321 0.00234812 1.989)
(0.077074 -0.0194677 2.00677)
(0.145444 -0.0564126 2.09431)
(0.151374 -0.0568401 2.08284)
(0.136578 -0.0477141 2.06658)
(0.117601 -0.0401345 2.04138)
(0.0941852 -0.0306187 2.00426)
(0.085172 -0.0192696 1.95917)
(0.0796755 -0.0193448 1.96163)
(0.122296 -0.0291763 2.06912)
(0.174351 -0.0550604 2.04354)
(0.187593 -0.0675587 2.02523)
(0.169344 -0.0604509 2.01088)
(0.129872 -0.0428937 1.98916)
(0.0949292 -0.028834 1.9561)
(0.0803426 -0.0171997 1.91759)
(0.0810823 -0.0158938 1.86731)
(0.143496 -0.0571224 2.01667)
(0.151667 -0.0553217 1.98437)
(0.158633 -0.0537177 1.94983)
(0.153505 -0.0505053 1.92534)
(0.13668 -0.0426736 1.90665)
(0.114713 -0.0335266 1.88371)
(0.0921079 -0.0212974 1.85864)
(0.0705013 -0.0151891 1.8248)
(0.0726962 -0.0219981 1.73553)
(0.162935 -0.0598719 1.966)
(0.165022 -0.0630066 1.91769)
(0.162753 -0.0641099 1.87103)
(0.146425 -0.056573 1.84056)
(0.128565 -0.0464381 1.81453)
(0.10746 -0.036851 1.78769)
(0.0883205 -0.027695 1.76186)
(0.0761564 -0.0234626 1.72939)
(0.06125 -0.0193033 1.69368)
(0.136317 0.288095 2.13618)
(0.149521 0.209852 2.15107)
(0.132132 0.120811 2.12696)
(0.157635 0.186785 2.10271)
(0.19359 0.107662 2.08649)
(0.155586 0.063466 2.14211)
(0.212586 0.06383 2.10548)
(0.188643 0.0526288 2.0592)
(0.202854 0.0469888 2.06075)
(0.221075 0.00888314 2.12326)
(0.170807 0.0489904 2.08509)
(0.186886 0.0505674 2.05773)
(0.245491 0.050764 2.02421)
(0.129478 0.0328778 2.0331)
(0.113035 0.0462769 2.10146)
(0.129177 0.0386288 2.08766)
(0.135537 0.0429486 2.06015)
(0.147556 0.0667624 2.03376)
(0.120304 0.0388878 1.99004)
(0.0812321 0.00707411 1.98923)
(0.11681 -0.0294688 2.10285)
(0.102887 -0.0155657 2.09655)
(0.120604 -0.00855352 2.07159)
(0.153658 -0.0039274 2.03905)
(0.139916 0.00129943 1.99192)
(0.0935503 0.00154424 1.94184)
(0.0837141 -0.0133733 1.9615)
(0.106797 -0.0482427 2.10993)
(0.121074 -0.0611351 2.08744)
(0.114715 -0.0619932 2.06553)
(0.111114 -0.046306 2.04027)
(0.113152 -0.03536 2.00467)
(0.0964669 -0.0237987 1.96015)
(0.0847393 -0.0119365 1.91757)
(0.0763301 -0.0137458 1.91963)
(0.0632649 -0.011947 2.09172)
(0.114922 -0.0406323 2.06046)
(0.157364 -0.0663778 2.03105)
(0.163149 -0.0663164 2.00859)
(0.147013 -0.0510906 1.98346)
(0.105992 -0.0331864 1.9518)
(0.0849256 -0.02266 1.91627)
(0.0745992 -0.018143 1.874)
(0.0670324 -0.0128583 1.82758)
(0.127306 -0.0590492 2.03467)
(0.136367 -0.0561086 2.00259)
(0.148233 -0.053739 1.96455)
(0.149399 -0.0500827 1.93014)
(0.141821 -0.0450446 1.90288)
(0.120952 -0.0358666 1.87821)
(0.097541 -0.0246056 1.85448)
(0.0745788 -0.017665 1.82283)
(0.0594204 -0.0135483 1.78368)
(0.0598252 -0.0186994 1.69555)
(0.154067 -0.0564078 1.98649)
(0.157439 -0.0608809 1.93311)
(0.15658 -0.0628622 1.87928)
(0.145896 -0.0571516 1.83957)
(0.133776 -0.0482756 1.81035)
(0.112252 -0.0379467 1.7838)
(0.0912588 -0.0285215 1.75836)
(0.0780627 -0.0243006 1.72671)
(0.0626893 -0.0200761 1.69188)
(0.0525847 -0.015254 1.65734)
(-0.048129 1.43894 2.15259)
(0.106007 0.361463 2.16371)
(0.123186 0.220936 2.10419)
(0.152297 0.242817 2.11209)
(0.12049 0.196316 2.11595)
(0.0946177 0.12008 2.13125)
(0.13545 0.128775 2.09227)
(0.126651 0.178301 2.06507)
(0.195136 0.0742555 2.05147)
(0.156366 0.0163878 2.14381)
(0.167822 0.0433197 2.11145)
(0.221283 0.017396 2.06786)
(0.204964 0.0433332 2.0254)
(0.262135 0.0503175 2.02809)
(0.139575 0.0272736 2.1285)
(0.167223 0.0370862 2.09474)
(0.145349 0.0577347 2.05497)
(0.208154 0.0563559 2.02735)
(0.245141 0.0525129 1.98314)
(0.12981 0.027812 1.9934)
(0.14609 0.0239155 2.10287)
(0.106673 0.0404575 2.08035)
(0.111129 0.0432447 2.06397)
(0.138773 0.0507765 2.03412)
(0.141815 0.0549296 1.99286)
(0.0970682 0.0163753 1.94352)
(0.077779 0.006999 1.94299)
(0.167365 -0.0408992 2.10775)
(0.118738 -0.0322672 2.09876)
(0.098253 -0.0189127 2.07357)
(0.117964 -0.00675886 2.03531)
(0.142186 -0.00635878 1.9925)
(0.115442 -0.00450896 1.94459)
(0.102952 -0.000377082 1.90066)
(0.0854674 -0.00638412 1.91906)
(0.0842942 -0.026608 2.12334)
(0.0875 -0.0554154 2.09836)
(0.0974492 -0.0682191 2.06735)
(0.0968407 -0.0594956 2.03891)
(0.106682 -0.0429569 2.00441)
(0.107716 -0.0287496 1.96079)
(0.0943113 -0.0161522 1.91792)
(0.0787612 -0.0159284 1.8714)
(0.0723906 -0.0141843 1.87548)
(0.0368693 -0.00629088 2.10764)
(0.0553881 -0.0246227 2.0773)
(0.0969347 -0.0524061 2.04175)
(0.130313 -0.0664224 2.01058)
(0.137551 -0.0559633 1.98066)
(0.114608 -0.0395428 1.94782)
(0.0910014 -0.0267139 1.91372)
(0.0772039 -0.0225494 1.87278)
(0.0638141 -0.0179164 1.82852)
(0.0569006 -0.0109879 1.78641)
(0.112219 -0.0600602 2.04987)
(0.119304 -0.0579613 2.01901)
(0.132852 -0.0549515 1.97998)
(0.140537 -0.0519346 1.94177)
(0.137856 -0.045955 1.90643)
(0.123315 -0.0387207 1.87591)
(0.10103 -0.0270404 1.85124)
(0.0779841 -0.020792 1.82084)
(0.0614268 -0.0155075 1.78291)
(0.0523265 -0.0102803 1.74567)
(0.0515127 -0.0145933 1.65865)
(0.145632 -0.0525758 2.00709)
(0.14918 -0.0581075 1.95144)
(0.14914 -0.0606909 1.89193)
(0.139981 -0.0555619 1.84553)
(0.131332 -0.0480784 1.8095)
(0.114423 -0.0389319 1.78098)
(0.0937368 -0.029385 1.75585)
(0.0798958 -0.0253141 1.72436)
(0.0639525 -0.0208986 1.68998)
(0.0535192 -0.0160491 1.65602)
(0.0459004 -0.0123824 1.61871)
(0.412815 2.76419 2.73069)
(-0.129984 1.40931 2.15413)
(0.091812 1.5813 2.22811)
(-0.00366449 0.821413 2.23961)
(0.171936 0.285866 2.12604)
(0.142748 0.216203 2.10669)
(0.0925897 0.204021 2.10791)
(0.142925 0.184752 2.09042)
(0.0765376 0.182724 2.06674)
(0.116136 0.0690397 2.1572)
(0.110793 0.0959816 2.09173)
(0.117986 0.13507 2.06882)
(0.171379 0.135605 2.02105)
(0.216942 0.0754398 2.02298)
(0.168604 -0.021583 2.16633)
(0.161651 0.0032217 2.10852)
(0.167182 -0.00504142 2.07902)
(0.220926 0.00546503 2.03132)
(0.216762 0.0236824 1.98182)
(0.269926 0.0439983 1.98398)
(0.0909314 0.0433779 2.13367)
(0.0954327 0.0530602 2.08967)
(0.135958 0.0519254 2.06021)
(0.148705 0.062442 2.02097)
(0.205001 0.056599 1.9839)
(0.192541 0.0354369 1.94005)
(0.141103 0.0173748 1.94657)
(0.168627 -0.00996017 2.10795)
(0.122176 0.0202168 2.07935)
(0.100265 0.0405161 2.06086)
(0.1081 0.0475771 2.03606)
(0.139386 0.0404635 1.99339)
(0.115242 0.0267513 1.9454)
(0.0761939 0.0001493 1.89771)
(0.0922047 0.00754351 1.90219)
(0.152144 -0.0336859 2.112)
(0.162833 -0.0509468 2.10456)
(0.120919 -0.0337227 2.07784)
(0.108871 -0.0203406 2.0338)
(0.120214 -0.0112462 1.99015)
(0.112577 -0.0123807 1.94462)
(0.11816 -0.010761 1.90249)
(0.0961717 -0.00324913 1.86062)
(0.0803488 -0.0106473 1.87222)
(0.0698577 -0.0128215 2.12807)
(0.0600151 -0.0337656 2.10889)
(0.0942043 -0.0725659 2.07498)
(0.096917 -0.068827 2.03987)
(0.103395 -0.0544476 2.0034)
(0.107099 -0.037218 1.96044)
(0.100685 -0.0207335 1.91798)
(0.083092 -0.0191043 1.87083)
(0.0783718 -0.0152411 1.82448)
(0.0629555 -0.01442 1.82961)
(0.0368133 -0.0140891 2.1157)
(0.0190336 -0.0154047 2.08955)
(0.0402268 -0.0357086 2.05305)
(0.0689214 -0.0498216 2.01522)
(0.105672 -0.0549428 1.97978)
(0.103 -0.0415216 1.9448)
(0.0940816 -0.0319311 1.91117)
(0.0806431 -0.0268722 1.87122)
(0.065336 -0.0212215 1.82745)
(0.061311 -0.0159082 1.78409)
(0.0506294 -0.00817933 1.7483)
(0.0977831 -0.059374 2.06341)
(0.104066 -0.0601794 2.03266)
(0.115755 -0.0573076 1.99371)
(0.126352 -0.0544171 1.95376)
(0.129769 -0.0492367 1.91502)
(0.119543 -0.0406573 1.87851)
(0.101455 -0.0300592 1.8497)
(0.079871 -0.0228989 1.81935)
(0.0633223 -0.0187519 1.78274)
(0.053649 -0.0125807 1.74518)
(0.0448007 -0.00882931 1.70626)
(0.0452097 -0.0116707 1.61976)
(0.138029 -0.0486415 2.02614)
(0.141092 -0.0548426 1.97079)
(0.141291 -0.0580607 1.90809)
(0.133361 -0.0534125 1.85616)
(0.125704 -0.0463691 1.81375)
(0.111675 -0.0383996 1.78038)
(0.0939692 -0.0300439 1.75379)
(0.0810172 -0.0262467 1.72246)
(0.0648662 -0.0218195 1.68808)
(0.0541189 -0.0168911 1.65441)
(0.0463707 -0.0132183 1.61772)
(0.0372336 -0.00824054 1.58019)
(0.171322 3.06713 2.85741)
(-0.0842335 2.74365 2.71786)
(0.349625 2.79417 2.78551)
(0.217002 2.41568 2.55558)
(-0.0634699 0.834143 2.21181)
(0.207891 1.47982 2.45045)
(0.0425485 0.867345 2.26534)
(0.0780709 0.611778 2.1998)
(0.157791 0.197389 2.09548)
(0.156515 0.192316 2.16105)
(0.0622525 0.185127 2.11513)
(0.0807482 0.148519 2.10737)
(0.164631 0.147125 2.04674)
(0.134555 0.149472 2.01487)
(0.111275 0.06653 2.17282)
(0.112132 0.0460359 2.11663)
(0.0937065 0.0794669 2.0723)
(0.15209 0.101823 2.03431)
(0.174586 0.107892 1.97654)
(0.232515 0.0588352 1.98184)
(0.211709 -0.0367734 2.17631)
(0.142353 -0.00937329 2.12878)
(0.138246 -0.0263242 2.07417)
(0.167997 -0.0246956 2.04289)
(0.222933 -0.0047599 1.98226)
(0.19296 0.0145849 1.93616)
(0.204177 0.025226 1.93845)
(0.0755154 0.0480209 2.13728)
(0.0650287 0.0558633 2.0875)
(0.088123 0.0615125 2.05273)
(0.14822 0.0500477 2.02247)
(0.152285 0.0636407 1.97738)
(0.186189 0.0391412 1.93549)
(0.16823 0.0102331 1.89969)
(0.13088 0.00882163 1.90311)
(0.0727624 -0.00236017 2.10813)
(0.139303 -0.0134098 2.08553)
(0.104751 0.0222451 2.06051)
(0.110213 0.043173 2.03533)
(0.120958 0.0352868 1.99285)
(0.127686 0.0171779 1.9462)
(0.0908775 0.0036917 1.89868)
(0.0658009 -0.0174215 1.84578)
(0.0868704 0.00568807 1.8622)
(0.112456 -0.0329949 2.10808)
(0.155541 -0.0431537 2.10559)
(0.162337 -0.0599446 2.0848)
(0.130865 -0.0333456 2.03929)
(0.11907 -0.0234634 1.9856)
(0.104562 -0.0157775 1.94328)
(0.11195 -0.0209952 1.90328)
(0.108703 -0.0152881 1.86034)
(0.0935312 -0.00348528 1.81968)
(0.0791452 -0.0104758 1.8251)
(0.0687226 -0.00797447 2.12819)
(0.0514064 -0.0196721 2.11095)
(0.0809295 -0.0539378 2.0835)
(0.123143 -0.0807322 2.04661)
(0.11582 -0.0666408 2.00423)
(0.112333 -0.0467342 1.95958)
(0.104039 -0.0292236 1.91734)
(0.0856485 -0.0231322 1.87013)
(0.078541 -0.0174632 1.82353)
(0.0754034 -0.0105433 1.782)
(0.0614647 -0.0127254 1.78492)
(0.0323516 -0.0194207 2.11852)
(0.0119814 -0.0203083 2.09611)
(0.00392731 -0.0232438 2.06359)
(0.0240638 -0.0340094 2.02154)
(0.0511748 -0.037875 1.98018)
(0.0726709 -0.0376661 1.94239)
(0.0839292 -0.0332159 1.90865)
(0.0816974 -0.0315136 1.86965)
(0.0670026 -0.0250426 1.82638)
(0.0613135 -0.0191731 1.78321)
(0.0580626 -0.0138157 1.73769)
(0.0436295 -0.00719141 1.70814)
(0.0840417 -0.0581381 2.07498)
(0.0907748 -0.061806 2.04437)
(0.100968 -0.0604251 2.00501)
(0.110474 -0.0573475 1.96436)
(0.117162 -0.0528912 1.92363)
(0.1119 -0.0444144 1.88464)
(0.0987375 -0.0328093 1.85149)
(0.0797771 -0.0257126 1.81842)
(0.0642568 -0.0207306 1.78233)
(0.0547861 -0.0151968 1.7456)
(0.0458987 -0.0109035 1.70576)
(0.0396282 -0.00556742 1.66619)
(0.0369687 -0.00760841 1.58109)
(0.131317 -0.0447498 2.04226)
(0.133592 -0.0512904 1.98961)
(0.133827 -0.0550945 1.9259)
(0.126843 -0.0510748 1.87022)
(0.119944 -0.0444478 1.82229)
(0.107086 -0.0369142 1.78358)
(0.0918173 -0.029808 1.75355)
(0.0805591 -0.027004 1.72084)
(0.0650923 -0.0226117 1.68645)
(0.0542858 -0.0177159 1.65271)
(0.0464921 -0.0140395 1.61645)
(0.0373078 -0.00894698 1.57964)
(0.0296281 -0.00591563 1.54687)
(0.318384 2.69274 2.70218)
(-0.12577 3.04889 2.8628)
(0.427239 3.01844 2.89582)
(0.194891 2.98666 2.87491)
(0.0126733 2.43727 2.53899)
(0.341559 2.81117 2.75746)
(0.414945 2.4411 2.61972)
(0.230929 1.93604 2.44947)
(0.042842 0.561514 2.15824)
(0.286658 1.38196 2.49726)
(0.119949 1.05247 2.27151)
(0.101091 0.586157 2.25981)
(0.164998 0.343679 2.11144)
(0.156044 0.159715 2.05002)
(0.126615 0.179031 2.19792)
(0.0778954 0.165845 2.15024)
(0.0362627 0.150448 2.12053)
(0.116125 0.105068 2.06484)
(0.17545 0.118985 1.98993)
(0.139706 0.126235 1.96703)
(0.136367 -0.0161607 2.18502)
(0.113861 0.00221536 2.12993)
(0.112063 0.0439499 2.09195)
(0.134142 0.0495763 2.04509)
(0.167713 0.0861953 1.98845)
(0.206642 0.0786687 1.93063)
(0.205186 0.0395876 1.93706)
(0.199732 -0.0244556 2.17331)
(0.156356 -0.0122081 2.13267)
(0.102797 -0.0306575 2.08855)
(0.113035 -0.0342744 2.03928)
(0.171345 -0.0293356 1.98691)
(0.204622 0.00592944 1.93382)
(0.188824 0.0044998 1.88737)
(0.164054 0.000727301 1.89695)
(0.0805027 0.0326561 2.13794)
(0.0637058 0.0515471 2.08894)
(0.0654585 0.0559563 2.05075)
(0.121466 0.0499782 2.01928)
(0.162235 0.0435702 1.97857)
(0.146223 0.053905 1.93075)
(0.193619 0.0165027 1.89203)
(0.156446 -0.00145452 1.85466)
(0.11381 -0.0135399 1.85277)
(0.0296224 -0.00440231 2.11647)
(0.0715412 -0.0192731 2.08152)
(0.128916 -0.00581639 2.06638)
(0.102233 0.0231092 2.03694)
(0.136123 0.0299129 1.99008)
(0.136737 0.00980649 1.94322)
(0.115301 -0.000585895 1.90189)
(0.0841266 -0.0127058 1.84651)
(0.0694454 -0.00914345 1.79958)
(0.0858754 0.00464916 1.82069)
(0.0893919 -0.0255099 2.11174)
(0.111527 -0.0415499 2.09839)
(0.153945 -0.0557979 2.08508)
(0.172247 -0.0683866 2.04699)
(0.141076 -0.0327852 1.99079)
(0.107167 -0.0229335 1.93787)
(0.105467 -0.0233966 1.90215)
(0.105808 -0.0214492 1.86138)
(0.100037 -0.0153718 1.81778)
(0.0972244 -0.00382663 1.77742)
(0.0752009 -0.0067879 1.78239)
(0.0419063 0.0120008 2.12307)
(0.0523095 -0.0144248 2.11175)
(0.0626304 -0.0370951 2.08426)
(0.117766 -0.0649434 2.05278)
(0.153291 -0.0782431 2.00976)
(0.132379 -0.0591623 1.96075)
(0.111947 -0.0380585 1.91626)
(0.088538 -0.0283742 1.86921)
(0.0786004 -0.0216452 1.82254)
(0.0748126 -0.0127565 1.78098)
(0.07185 -0.0079179 1.73802)
(0.0582345 -0.0109823 1.73862)
(0.0159779 -0.0205601 2.11943)
(0.0152984 -0.0304591 2.09925)
(-0.00167413 -0.028012 2.0704)
(-0.00118454 -0.0234522 2.03102)
(0.0212796 -0.0245764 1.98366)
(0.0334642 -0.02249 1.94003)
(0.0581415 -0.028992 1.90625)
(0.0753743 -0.0337837 1.86798)
(0.067007 -0.0288798 1.82532)
(0.0618134 -0.0225112 1.78258)
(0.0565524 -0.0169371 1.73686)
(0.0531501 -0.00937193 1.69188)
(0.0386953 -0.00411221 1.66732)
(0.07036 -0.0562779 2.0839)
(0.0794452 -0.0626923 2.05461)
(0.0890373 -0.063331 2.01458)
(0.0965911 -0.0604662 1.9732)
(0.103007 -0.0558483 1.93141)
(0.100933 -0.0481321 1.89036)
(0.0929476 -0.036668 1.85566)
(0.0779092 -0.0281536 1.81869)
(0.0640568 -0.023483 1.78194)
(0.0552133 -0.0175596 1.74522)
(0.0465615 -0.0129943 1.70584)
(0.0403873 -0.00752303 1.6658)
(0.0334749 -0.00385557 1.62983)
(0.0295764 -0.00537801 1.54775)
(0.125363 -0.0408731 2.05455)
(0.126854 -0.0476176 2.00657)
(0.127033 -0.0519514 1.94389)
(0.120857 -0.0486295 1.88607)
(0.11454 -0.0424832 1.83386)
(0.102582 -0.0353906 1.78997)
(0.0886941 -0.0290097 1.75606)
(0.0789454 -0.0272682 1.72083)
(0.0643589 -0.0232361 1.68525)
(0.0539175 -0.0184439 1.65117)
(0.0462218 -0.0148141 1.61525)
(0.0371508 -0.00962908 1.57918)
(0.0295181 -0.00642381 1.54702)
(0.0240395 -0.00290336 1.51933)
(0.164459 2.48393 2.62665)
(-0.060792 2.65635 2.77125)
(0.246814 2.75845 2.64732)
(0.0705635 2.89396 2.6313)
(0.0138021 2.99357 2.87709)
(0.473964 3.03091 2.89618)
(0.448062 2.97641 2.88053)
(0.291901 2.88656 2.86591)
(0.0412389 2.03397 2.38187)
(0.547019 2.7336 2.73489)
(0.525032 2.45377 2.61741)
(0.217738 1.95685 2.4422)
(0.169486 1.58396 2.15476)
(0.161483 0.344632 2.07659)
(0.320849 1.31498 2.43353)
(0.203153 1.02264 2.33976)
(0.134193 0.619215 2.24441)
(0.171982 0.310344 2.1561)
(0.206913 0.168474 2.03022)
(0.162849 0.120265 1.98805)
(0.174668 0.145007 2.19003)
(0.0959263 0.144274 2.1733)
(0.0126539 0.130401 2.13791)
(0.0810327 0.101662 2.08145)
(0.11655 0.0776666 1.99974)
(0.18038 0.112454 1.92119)
(0.162817 0.0947038 1.92213)
(0.115773 -0.0152692 2.17431)
(0.111075 -0.0433927 2.1475)
(0.125104 -0.0300816 2.09276)
(0.152829 0.0247213 2.06216)
(0.134104 0.0267494 2.00055)
(0.212427 0.0662209 1.93996)
(0.205183 0.0517445 1.88455)
(0.18243 0.0181418 1.88741)
(0.112397 0.00173635 2.15144)
(0.171271 -0.0138529 2.126)
(0.0920427 -0.00934248 2.08923)
(0.0943687 -0.051536 2.05002)
(0.095156 -0.0366431 1.98738)
(0.171811 -0.0161084 1.92951)
(0.184461 0.00601288 1.88741)
(0.214951 -0.0124561 1.8375)
(0.134421 -0.0171313 1.85306)
(0.0746603 0.0328468 2.16351)
(0.079823 0.0326575 2.09765)
(0.076694 0.0440317 2.05162)
(0.109531 0.0398427 2.02235)
(0.136114 0.0361926 1.97954)
(0.159164 0.0332966 1.93305)
(0.168573 0.02263 1.88781)
(0.164645 0.0120167 1.84992)
(0.194861 0.00622124 1.80449)
(0.101885 -0.0145514 1.80605)
(0.0734041 -0.0518614 2.12191)
(0.0274353 -0.0103148 2.08755)
(0.0825083 -0.0250537 2.06306)
(0.132125 7.73581e-05 2.04063)
(0.129397 0.00499576 1.99219)
(0.156354 0.00625559 1.93826)
(0.148197 -0.0122709 1.89963)
(0.115413 -0.0203338 1.85144)
(0.0976017 5.80645e-06 1.80037)
(0.0708573 -0.00555849 1.75904)
(0.089845 0.00368827 1.77814)
(0.0688675 -0.00591274 2.11058)
(0.0979547 -0.0329975 2.10185)
(0.110737 -0.0587084 2.07918)
(0.153785 -0.067033 2.0471)
(0.176003 -0.0681267 1.99989)
(0.123259 -0.0270317 1.94188)
(0.103028 -0.0248272 1.89828)
(0.105325 -0.0262256 1.85849)
(0.0995841 -0.0157087 1.81832)
(0.0992974 -0.0158137 1.7756)
(0.0928185 -0.00386281 1.73191)
(0.071994 -0.00500712 1.73833)
(0.0263919 0.0181374 2.11959)
(0.03742 0.000784668 2.10709)
(0.0510338 -0.0196564 2.08508)
(0.0812494 -0.0424114 2.05245)
(0.142479 -0.0628453 2.01341)
(0.163391 -0.067891 1.96531)
(0.132483 -0.0504337 1.91784)
(0.0964182 -0.0351952 1.86773)
(0.0787183 -0.0246209 1.82123)
(0.074414 -0.0159855 1.78008)
(0.0720629 -0.0105592 1.73705)
(0.0660512 -0.00171752 1.69545)
(0.0535563 -0.00681089 1.6929)
(-0.0027222 -0.0148043 2.11675)
(0.0108765 -0.0385241 2.1017)
(0.00585886 -0.0417544 2.0736)
(0.00041687 -0.0322678 2.03801)
(0.0121267 -0.0205875 1.99218)
(0.0172343 -0.0120136 1.94239)
(0.0314474 -0.0175178 1.90287)
(0.0589233 -0.0321419 1.86652)
(0.0631511 -0.0315822 1.82436)
(0.061379 -0.0261754 1.78179)
(0.0564533 -0.0197491 1.73699)
(0.05169 -0.0120214 1.69142)
(0.0454228 -0.00677984 1.65172)
(0.0328202 -0.00254111 1.63063)
(0.0568362 -0.0541356 2.0894)
(0.0685679 -0.0630262 2.06304)
(0.0796976 -0.065538 2.02306)
(0.0855439 -0.0629284 1.98087)
(0.0898737 -0.0580157 1.93824)
(0.088808 -0.0505856 1.89565)
(0.0840069 -0.0404644 1.85898)
(0.0743797 -0.0314991 1.82087)
(0.0627216 -0.0257601 1.78103)
(0.0551225 -0.0200571 1.74514)
(0.04673 -0.0152879 1.70515)
(0.0406828 -0.00929676 1.66547)
(0.0339265 -0.00548596 1.6295)
(0.0279663 -0.00178458 1.59781)
(0.0240667 -0.00242836 1.51954)
(0.120098 -0.0369773 2.06295)
(0.120881 -0.0439022 2.02069)
(0.120988 -0.0487287 1.96082)
(0.115516 -0.0461764 1.9024)
(0.109605 -0.0405212 1.84715)
(0.098334 -0.0338398 1.79869)
(0.0856074 -0.0282359 1.76048)
(0.0767856 -0.0271366 1.72297)
(0.0631138 -0.0236211 1.68578)
(0.0530744 -0.0190052 1.65073)
(0.045627 -0.0155017 1.6144)
(0.0367498 -0.0102319 1.57917)
(0.0292606 -0.00694487 1.54801)
(0.0239124 -0.00337639 1.52032)
(0.0204453 -0.000519965 1.49269)
(-0.0104816 2.39236 2.68304)
(-0.101108 2.53646 2.65467)
(0.338525 2.43981 2.56151)
(0.0621209 2.49792 2.68133)
(-0.119272 2.94545 2.6144)
(0.287397 2.72711 2.70452)
(0.353672 2.81532 2.68199)
(0.518953 2.77309 2.79167)
(0.183937 2.9097 2.86432)
(0.655031 2.99225 2.88137)
(0.548362 2.99309 2.90561)
(0.48187 2.84254 2.86114)
(0.293027 2.67905 2.68793)
(0.0590801 1.57428 2.15408)
(0.730852 2.70139 2.73171)
(0.621634 2.39167 2.57139)
(0.427214 1.91798 2.47843)
(0.215881 1.51754 2.14997)
(0.0914804 0.990706 2.07096)
(0.252093 0.200391 1.99225)
(0.480353 1.30909 2.30339)
(0.238323 0.950974 2.31298)
(0.19568 0.667454 2.20558)
(0.222259 0.277374 2.14598)
(0.21347 0.123093 2.04286)
(0.308027 0.0743186 1.96654)
(0.179244 0.12223 1.91178)
(0.264495 0.085466 2.19576)
(0.192494 0.087375 2.16242)
(0.0607193 0.108835 2.14441)
(0.0425994 0.0953816 2.09687)
(0.0871692 0.0804826 2.013)
(0.154808 0.0863953 1.92502)
(0.212784 0.0797573 1.84208)
(0.154017 0.071577 1.87928)
(0.0534752 0.0095363 2.1815)
(0.103151 -0.038967 2.13423)
(0.0954769 -0.0319454 2.1013)
(0.198265 -0.050752 2.05548)
(0.150824 0.00885533 2.01017)
(0.164736 0.0165465 1.9487)
(0.237219 0.0430475 1.88882)
(0.16974 0.0335161 1.83029)
(0.192342 -0.0031375 1.83808)
(0.0846504 0.00242874 2.15669)
(0.133106 -0.00302075 2.11453)
(0.154694 -0.0455749 2.08207)
(0.0922494 -0.0253529 2.05377)
(0.123127 -0.0664957 1.9936)
(0.123958 -0.0219949 1.9326)
(0.158327 -0.00612845 1.87795)
(0.180339 -0.0174686 1.84045)
(0.229437 0.000978206 1.79909)
(0.170222 -0.015123 1.80489)
(0.06535 0.0332271 2.15061)
(0.0775055 0.045091 2.12312)
(0.0887304 0.0461574 2.06253)
(0.118755 0.0297478 2.02399)
(0.138653 0.0277807 1.98627)
(0.127728 0.029306 1.93354)
(0.174051 0.00864443 1.89195)
(0.131751 0.0130784 1.84654)
(0.15832 0.0194154 1.80589)
(0.200936 0.0133713 1.75899)
(0.0949806 -0.0140273 1.76306)
(0.111706 -0.0974018 2.13032)
(0.0774656 -0.0671701 2.0941)
(0.0343898 -0.00391478 2.06507)
(0.0964216 -0.0283757 2.03918)
(0.153967 -0.00676914 1.99588)
(0.171882 -0.0232328 1.93837)
(0.168783 -0.0138302 1.89462)
(0.135135 -0.0292547 1.85195)
(0.12458 -0.0151656 1.80681)
(0.097863 0.00564996 1.75941)
(0.0677337 -0.00688355 1.71931)
(0.0858267 0.00401277 1.73275)
(0.0456486 0.0377603 2.11822)
(0.0595232 -0.00459645 2.09663)
(0.101791 -0.0574145 2.08227)
(0.112219 -0.074479 2.04458)
(0.151509 -0.0644707 1.99867)
(0.146761 -0.0468881 1.95156)
(0.120445 -0.0276445 1.89789)
(0.0969943 -0.0244633 1.857)
(0.100661 -0.0217182 1.81273)
(0.10039 -0.0156388 1.77545)
(0.0924609 -0.0144319 1.73126)
(0.0923216 -0.00468212 1.68791)
(0.0661304 0.000357582 1.69579)
(0.0209033 0.0171311 2.12015)
(0.0343917 -0.006784 2.10488)
(0.0486931 -0.0124769 2.08191)
(0.0624446 -0.0211564 2.05037)
(0.0969735 -0.03787 2.01127)
(0.146032 -0.0538517 1.96557)
(0.152944 -0.0573556 1.92136)
(0.110129 -0.0443831 1.86898)
(0.0852774 -0.0303007 1.81989)
(0.073435 -0.0189994 1.77823)
(0.0716528 -0.0123464 1.73639)
(0.0674207 -0.00449761 1.69479)
(0.0564557 0.000103504 1.65655)
(0.0457124 -0.00454839 1.65257)
(-0.0151196 -0.0126487 2.11666)
(-0.00396002 -0.0340683 2.10214)
(0.00723174 -0.0506427 2.07617)
(0.0089924 -0.0469024 2.04046)
(0.0222677 -0.0340981 1.99763)
(0.021817 -0.0143272 1.94921)
(0.0249175 -0.0111618 1.90474)
(0.0384042 -0.0245396 1.86363)
(0.0553516 -0.0321119 1.8233)
(0.0588246 -0.0289352 1.78155)
(0.0559671 -0.0229577 1.73664)
(0.0510319 -0.0144514 1.69189)
(0.0447153 -0.0087466 1.65159)
(0.0397805 -0.00274667 1.61782)
(0.0275976 -0.000633971 1.59863)
(0.0465038 -0.0540848 2.09269)
(0.0570554 -0.0626549 2.06784)
(0.0707536 -0.0674576 2.03015)
(0.0769208 -0.0650211 1.9875)
(0.0796156 -0.0590878 1.94421)
(0.0773672 -0.0515025 1.90053)
(0.0745132 -0.0423792 1.86239)
(0.0681903 -0.0348073 1.82276)
(0.0607117 -0.0286406 1.7818)
(0.0544152 -0.0225565 1.74438)
(0.0467277 -0.0172751 1.70514)
(0.0408239 -0.01154 1.66477)
(0.0340272 -0.00695899 1.62917)
(0.0282363 -0.00315738 1.5977)
(0.0256496 0.000371979 1.56788)
(0.0204814 -0.000100324 1.4923)
(0.115807 -0.0333768 2.06842)
(0.11568 -0.0401987 2.03147)
(0.115616 -0.0454386 1.97571)
(0.110794 -0.0437299 1.9181)
(0.105151 -0.0385761 1.86107)
(0.0943484 -0.0322873 1.80875)
(0.0825071 -0.0273539 1.7663)
(0.0745878 -0.0269479 1.72588)
(0.061572 -0.0237418 1.68812)
(0.0519831 -0.0193988 1.65232)
(0.0448861 -0.0160397 1.61515)
(0.0362732 -0.0107605 1.57991)
(0.0289725 -0.00739507 1.54934)
(0.0237424 -0.00383106 1.52202)
(0.020347 -0.00101531 1.49419)
(0.0175496 0.00121597 1.46542)
(-0.0216273 2.20431 2.66369)
(-0.103725 2.35762 2.6889)
(0.119761 2.38265 2.68487)
(0.00411755 2.35349 2.72431)
(-0.032367 2.51506 2.66162)
(0.386128 2.43248 2.5888)
(0.366321 2.4761 2.60872)
(0.110881 2.44044 2.71311)
(-0.046424 2.87224 2.75981)
(0.410545 2.75047 2.67911)
(0.576672 2.79985 2.69486)
(0.298182 2.84234 2.70935)
(0.371307 2.76544 2.83821)
(0.267646 2.6934 2.67643)
(0.810788 2.94469 2.89703)
(0.690183 2.96109 2.89351)
(0.762683 2.82919 2.85731)
(0.392151 2.62106 2.70145)
(0.463555 2.23531 2.44155)
(0.0719745 0.972777 2.0817)
(1.04934 2.57531 2.71191)
(0.737226 2.32774 2.55099)
(0.56278 1.88297 2.45665)
(0.311313 1.47017 2.15683)
(0.064651 1.01533 2.02731)
(0.209402 0.589231 1.92518)
(0.293609 0.0843475 1.93125)
(0.618768 1.17548 2.23273)
(0.336791 0.91621 2.20058)
(0.21907 0.683576 2.16819)
(0.290292 0.261355 2.09541)
(0.188423 0.0796947 2.0273)
(0.313044 0.058173 1.97709)
(0.168998 0.0866886 1.88911)
(0.205168 0.0983188 1.83852)
(0.280763 0.114213 2.21088)
(0.233552 0.0549586 2.16034)
(0.191821 0.0280334 2.12797)
(0.100321 0.090815 2.10102)
(0.0778526 0.064309 2.01803)
(0.132032 0.0846674 1.93899)
(0.195521 0.0420073 1.84488)
(0.215272 0.0600573 1.79389)
(0.136478 0.0604314 1.82665)
(0.123205 0.0177199 2.17261)
(0.0755166 -0.0566923 2.15331)
(0.105004 -0.019301 2.08794)
(0.165027 -0.0352554 2.05218)
(0.206303 -0.0481857 2.00697)
(0.192921 0.00371556 1.94871)
(0.192052 0.00697205 1.89265)
(0.202184 0.0267872 1.83263)