/*--------------------------------*- C++ -*----------------------------------*\
  =========                 |
  \\      /  F ield         | OpenFOAM: The Open Source CFD Toolbox
   \\    /   O peration     | Website:  https://openfoam.org
    \\  /    A nd           | Version:  7
     \\/     M anipulation  |
\*---------------------------------------------------------------------------*/
FoamFile
{
    version     2.0;
    format      ascii;
    class       volScalarField;
    location    "9.5";
    object      nut;
}
// * * * * * * * * * * * * * * * * * * * * * * * * * * * * * * * * * * * * * //

dimensions      [0 2 -1 0 0 0 0];

internalField   nonuniform List<scalar> 
18750
(
0.000329743
0.000545466
0.000211626
0.000303218
0.00118334
0.000937554
0.000586263
0.000249742
0.000202239
0.000374337
0.00163184
0.00198329
0.00115383
0.000588753
0.00106129
0.000613521
9.94464e-05
0.000154021
0.000235146
0.000272281
0.00220037
0.00103895
0.00109848
0.0016067
0.00188774
0.000831354
0.00042779
0.000638048
0.00102483
0.000592355
0.000135764
0.000131066
0.000131426
0.000239975
0.000281725
0.00258637
0.000406705
0.00226789
0.000854877
0.000993833
0.00218318
0.00199163
0.00125951
0.00153062
0.000674942
0.000403999
0.000417839
0.000858237
0.000869102
0.000461272
0.000222944
0.000111715
0.000188147
0.000172236
0.000258561
0.000523388
0.00235657
0.000505166
0.00256318
0.000388468
0.000508394
0.00214384
0.00199192
0.000787485
0.000549455
0.00287212
0.0014948
0.0021036
0.00174911
0.00138803
0.000834344
0.000411097
0.000486299
0.000488749
0.000755923
0.00072636
0.000373397
0.000178608
0.000187936
0.000116217
0.000170091
0.000161081
0.000239031
0.00021206
0.00247586
0.000441037
0.00251011
0.000324213
0.00029569
0.00281707
0.000288655
0.000852143
0.000365776
0.00196201
0.00121129
0.00141605
0.000854823
0.000431353
0.0040116
0.000839628
0.00127897
0.00181408
0.00272531
0.00100047
0.00106951
0.000300406
0.000425786
0.00045954
0.000554525
0.000684874
0.00048061
0.000454872
0.000156738
0.000175421
0.00019322
0.000135725
0.000110408
0.000202969
0.000383465
0.000233679
0.00235562
0.000657605
0.00248046
0.000497953
0.000696215
0.00246283
0.000593412
0.000509623
0.00056892
0.00281378
0.000483104
0.000344983
0.000571262
0.000478333
0.00209933
0.00171171
0.00129825
0.00110834
0.000351219
0.000631683
0.00205785
0.000500491
0.0010474
0.00139095
0.00149106
0.00273179
0.000923534
0.00176253
0.000202602
0.000338295
0.000488669
0.000454399
0.000622957
0.000627095
0.000459838
0.0006282
6.78199e-05
0.000137346
0.000140333
0.000292273
0.000340026
0.000139353
0.000127027
0.000305935
0.000622233
0.00234891
0.00061817
0.00251017
0.00045282
0.000829589
0.00235875
0.000464344
0.000527744
0.000915755
0.00252767
0.000525934
0.000625382
0.000576948
0.000511711
0.00276037
0.00115017
0.000429538
0.000393424
0.000363667
0.000436722
0.00238307
0.00081489
0.00257413
0.00172895
0.00055631
0.000231138
0.000875257
0.00183072
0.000198945
0.000565745
0.00149692
0.00131106
0.000706414
0.0019603
0.000898116
0.00150517
0.000262309
0.000214097
0.000229896
0.000592001
0.000502083
0.000681584
0.000527333
0.0005758
0.000708025
0.000235486
6.88454e-05
0.000137793
0.000264446
0.000354948
0.00040504
0.000133881
0.000142338
0.000278482
0.000260955
0.0024873
0.000718405
0.00239826
0.000489081
0.000583242
0.00238652
0.000805108
0.000920124
0.000760768
0.00233517
0.000727869
0.000682065
0.000380456
0.000569319
0.00230891
0.000190074
0.000510561
0.00057965
0.00136035
0.000915711
0.0026987
0.00270174
0.00112154
0.000769342
0.000478062
0.000553687
0.000593099
0.00227729
0.000752424
0.000933279
0.00186212
0.000745517
0.000595442
0.000396155
0.00108791
0.00306004
0.000255278
0.000500329
0.00103994
0.00183408
0.00140661
0.000737304
0.00145076
0.000562377
0.00112442
0.000253914
0.000297557
0.000261146
0.000223429
0.000480144
0.000569854
0.000692842
0.000497951
0.000609308
0.0006833
0.000465589
0.000250377
8.09576e-05
0.000156477
0.000341316
0.000396668
0.000430139
0.000105563
9.77646e-05
0.000230634
0.000330909
0.00234833
0.000684231
0.0024852
0.000442651
0.000604945
0.00234543
0.00052882
0.000716367
0.000729288
0.00231004
0.000885564
0.00111547
0.000810452
0.000781634
0.00230127
0.00067755
0.000549489
0.000537789
0.000501666
0.00114817
0.00230507
0.00151416
0.000643848
0.000219683
0.000558807
0.000807553
0.000897113
0.00262833
0.00164931
0.00157838
0.000741498
0.000729133
0.000711249
0.000538611
0.000412228
0.00240318
0.000818682
0.000669323
0.00116953
0.000893056
0.000528303
0.000436915
0.000341513
0.00103071
0.00312174
0.000340295
0.000297015
0.000711182
0.00151185
0.00297693
0.00105214
0.00116023
0.000915173
0.000547852
0.00168542
0.000300479
0.000172871
0.000275605
0.000379595
0.000413999
0.00067085
0.000646617
0.000632079
0.000487892
0.000601657
0.000757508
0.000277341
0.000417223
0.000127802
7.04562e-05
0.000127989
0.000284291
0.000413392
0.000412895
9.32049e-05
6.40792e-05
0.000268136
0.000618301
0.00246287
0.000541005
0.00246992
0.000243466
0.000751498
0.00248693
0.00044591
0.000368895
0.000413017
0.00243073
0.000704485
0.000781909
0.00103505
0.000701578
0.00232774
0.000533643
0.000605519
0.000774643
0.000597161
0.000865025
0.00225114
0.000498685
0.000614334
0.000556988
0.000446688
0.000810797
0.000998563
0.00234722
0.00118011
0.00127526
0.000677316
0.000638507
0.00078997
0.000758764
0.000877686
0.00261301
0.00170788
0.00130962
0.000894794
0.00106048
0.00120616
0.000901902
0.000468413
0.0010939
0.00271675
0.00100232
0.000801743
0.000831349
0.00147169
0.00145174
0.00104067
0.000434083
0.000517825
0.000610982
0.00259115
0.000474658
0.000374366
0.000363692
0.000908237
0.00125007
0.00284493
0.000672629
0.000951806
0.000516433
0.000579961
0.00171777
0.000222925
0.000181969
0.000126289
0.000317804
0.00053021
0.000513528
0.00107895
0.000695981
0.000601589
0.000526498
0.000673596
0.000587022
0.000627278
0.000332995
0.000325657
0.000215914
8.12072e-05
0.000214963
0.000187546
0.000382389
0.000302345
0.000221294
7.97186e-05
0.000250286
0.000237518
0.00222974
0.000492228
0.00217134
0.000456877
0.000542831
0.00245249
0.000402278
0.000518751
0.000725485
0.00237212
0.000586928
0.000449773
0.000524655
0.000545868
0.00242841
0.000595689
0.000852645
0.00106658
0.000515709
0.000696945
0.00234129
0.000807873
0.000711635
0.000681642
0.000417326
0.000571533
0.00108195
0.00228048
0.0010238
0.000265035
0.000805492
0.000583436
0.000910027
0.00056476
0.000533578
0.00239708
0.00219668
0.000996365
0.000521596
0.0004243
0.000578051
0.000611261
0.000437015
0.000885794
0.00241886
0.00125985
0.00170102
0.000748613
0.000790931
0.00078775
0.00109409
0.000656724
0.000605678
0.0013904
0.00275183
0.000704745
0.000972587
0.000966957
0.00146221
0.00171889
0.00149803
0.000611172
0.000436359
0.000479183
0.00153833
0.00284808
0.000316344
0.000605486
0.000474122
0.000471393
0.00101313
0.00151681
0.00124798
0.000888144
0.000727998
0.000510821
0.000985351
0.00185933
0.000298225
0.00023328
0.000312849
0.000169345
0.000371971
0.000583899
0.000410649
0.000941015
0.000679206
0.000592954
0.000575447
0.000776579
0.000520179
0.000324785
0.000404119
0.000312321
0.000249702
0.000123289
6.87808e-05
0.000148562
0.00011386
0.000344869
0.000254351
0.000101223
0.000118455
0.000285538
0.000318858
0.00198138
0.000503218
0.00199215
0.000581126
0.000668263
0.00235704
0.000399172
0.000390202
0.000369196
0.00230129
0.000489296
0.000460384
0.000574121
0.000745972
0.00243461
0.0007916
0.000652224
0.000835408
0.000672589
0.000706088
0.00223635
0.00113482
0.00072753
0.000853068
0.000624836
0.00039837
0.000548708
0.00227168
0.00117224
0.000335922
0.000585527
0.000675271
0.000320245
0.000624308
0.000854322
0.00237813
0.000644659
0.000901788
0.000613882
0.000654004
0.000641253
0.00113879
0.000543336
0.000879311
0.00232458
0.00190735
0.00105802
0.000317091
0.000914055
0.000619073
0.000673021
0.000915091
0.00104382
0.00200477
0.00267699
0.00108192
0.0014524
0.00128794
0.00101382
0.000635332
0.000340052
0.000612108
0.00098335
0.00118215
0.000921018
0.00266741
0.000462437
0.00072333
0.000969139
0.00151747
0.00208496
0.00131711
0.000939242
0.000620513
0.000526451
0.000691881
0.00124288
0.00320074
0.000456127
0.00036992
0.000649109
0.000488335
0.000758657
0.00140078
0.0015021
0.000831403
0.000793925
0.00050428
0.000729077
0.00116645
0.00188765
0.000463031
0.000229044
0.000254956
0.000367391
0.000186672
0.000362828
0.000413614
0.000311718
0.000802152
0.000666869
0.000578811
0.000623677
0.000881229
0.000485023
0.000207553
0.000339204
0.000249171
0.000290408
0.00017528
0.000116743
9.55482e-05
0.000169387
0.000144478
0.000319662
0.000228551
7.92908e-05
0.000182887
0.000416619
0.000635135
0.00194962
0.000533704
0.00192785
0.000383649
0.000465627
0.00210401
0.000656961
0.000583143
0.000354891
0.0021517
0.000537226
0.000512126
0.000410818
0.000611776
0.00226959
0.000527474
0.000468452
0.000178526
0.000504574
0.000610668
0.00236725
0.000455965
0.000809049
0.000748934
0.000615
0.000546525
0.000806101
0.00215111
0.000793806
0.000338359
0.000577054
0.00100217
0.00069278
0.000543555
0.000533326
0.00224314
0.00102189
0.000796142
0.000662189
0.000371659
0.000444051
0.000995569
0.000537079
0.000742927
0.00239977
0.00030177
0.000544127
0.000240031
0.000961374
0.000687523
0.000558647
0.000594714
0.000644381
0.00107617
0.00217239
0.00110839
0.00116918
0.00091005
0.000403767
0.000481253
0.00082024
0.000729289
0.00033043
0.00146321
0.00201186
0.00280038
0.000926068
0.001675
0.00163527
0.000785506
0.00085206
0.000705223
0.000584204
0.000501378
0.000683102
0.00236181
0.00240247
0.00308747
0.000686399
0.000472807
0.00102818
0.00128346
0.00206321
0.00125509
0.00113735
0.000523801
0.000965123
0.000518387
0.00109482
0.00107599
0.00340985
0.000278744
0.000524354
0.000538353
0.000725643
0.000480019
0.00101705
0.00167273
0.000937207
0.000753435
0.000709125
0.000458316
0.00108707
0.000432503
0.00200977
0.0004276
0.000490027
0.000233126
0.000327142
0.000384022
0.000180961
0.000677744
0.000257283
0.000269901
0.000640678
0.000631611
0.000579543
0.000718377
0.000945932
0.000444572
0.000225183
0.000273227
0.000335266
0.00023218
0.00025432
0.000122411
0.000125685
0.000118604
0.000254557
0.000149387
0.000305143
0.00015959
8.81614e-05
0.000150753
0.000301205
0.000415458
0.00197991
0.000478039
0.00193176
0.00043609
0.000519679
0.00196313
0.000623362
0.000391279
0.000465464
0.00204221
0.000470575
0.000403354
0.000515049
0.000467465
0.00229799
0.000520959
0.000318042
0.000708482
0.000565265
0.000494461
0.00208218
0.000835554
0.000669512
0.000797441
0.000707151
0.000557459
0.000722465
0.00231828
0.000526218
0.00112689
0.000508366
0.000778778
0.000255218
0.000478041
0.000729273
0.00223431
0.000697976
0.000876976
0.000647199
0.000727361
0.000781197
0.000734019
0.000677099
0.000570472
0.00215808
0.000723279
0.000921558
0.000851147
0.000619954
0.000351931
0.000564135
0.000727304
0.000539882
0.000775641
0.00232791
0.000488659
0.000795415
0.000430542
0.000496488
0.000513536
0.000666724
0.000732197
0.000241421
0.00100153
0.00121308
0.002278
0.000752303
0.000882385
0.000804238
0.000825125
0.000556713
0.000884704
0.00052356
0.000928675
0.00126059
0.00125966
0.000911823
0.00273794
0.000769611
0.0010111
0.00151276
0.000846137
0.00132086
0.000715355
0.000664331
0.000756227
0.00121655
0.0008599
0.00195671
0.00312124
0.00283977
0.000728956
0.00040203
0.000701224
0.00109984
0.00166571
0.00127307
0.00140128
0.0010751
0.000830376
0.00089344
0.000877642
0.00105942
0.00135324
0.00294105
0.000340419
0.000538132
0.000618756
0.000624497
0.000751649
0.000578379
0.00106167
0.00134224
0.000563687
0.000661232
0.00055853
0.000618998
0.00108648
0.000499958
0.00197097
0.000455773
0.000336368
0.000446394
0.000252811
0.000365826
0.000410916
0.000236591
0.000377215
0.000276231
0.000283819
0.000504811
0.000593969
0.000582391
0.000818133
0.000895243
0.000530911
0.000237776
0.000241419
0.000334743
0.000510997
0.000196384
0.000190269
0.000192645
0.000170619
7.18915e-05
0.000226708
0.00014085
0.000282513
0.000307406
0.000129496
0.000336326
0.000233375
0.000380798
0.00211517
0.000346189
0.00210557
0.000310375
0.000399105
0.00199571
0.00037979
0.000432329
0.000380353
0.00205615
0.000921002
0.000660615
0.000409688
0.000308279
0.00203407
0.00077644
0.00045591
0.000602043
0.000463664
0.000760627
0.00212609
0.00091163
0.0005655
0.000733183
0.000534825
0.000775158
0.000517753
0.00215351
0.000601481
0.000673025
0.0008052
0.000736356
0.000470864
0.000599533
0.000685977
0.00227052
0.000748955
0.000812523
0.000412129
0.000345817
0.000329121
0.000559798
0.000444204
0.000644451
0.00221187
0.000703042
0.000676232
0.000948959
0.000609636
0.000541612
0.000425647
0.000713323
0.000572028
0.000738269
0.00217017
0.00121338
0.00082372
0.000922436
0.000391841
0.000872582
0.000357095
0.00054218
0.000647078
0.000907046
0.00080801
0.00230811
0.000436954
0.00050023
0.000683981
0.000457354
0.000753765
0.000436706
0.00161713
0.000808714
0.0005088
0.000647672
0.00138863
0.00251812
0.00100198
0.000662924
0.00082882
0.000741657
0.000629958
0.000619606
0.000822152
0.000827507
0.000269025
0.00102483
0.0012816
0.000748225
0.00251862
0.00119193
0.000580343
0.00151326
0.00156802
0.00123064
0.000917527
0.000446874
0.0010299
0.00102253
0.0013777
0.00151133
0.000744804
0.00149929
0.0026484
0.000728486
0.00121186
0.000552616
0.000869313
0.00124929
0.00178141
0.000844051
0.00150722
0.000907231
0.00082381
0.000802068
0.000936799
0.000957826
0.00107222
0.00279875
0.000137059
0.000445247
0.000462007
0.000587622
0.000620458
0.000756062
0.000687832
0.00104028
0.000997491
0.000496398
0.000767879
0.000659976
0.000692866
0.00117585
0.000734455
0.00201279
0.000330391
0.000459612
0.000489314
0.000254535
0.000318952
0.000347192
0.000420258
0.000306757
0.000502728
0.000392437
0.000277781
0.000413758
0.000575561
0.000583567
0.000829526
0.000820886
0.00069377
0.000104495
0.000119556
0.000347657
0.00046899
0.000737889
0.000201017
0.000160701
0.000118369
0.000108017
7.79316e-05
0.000266599
0.000145109
0.000250063
0.000432082
0.000185647
0.000310222
0.000315169
0.000461155
0.00227156
0.000301625
0.00219533
0.000217365
0.000375434
0.00200532
0.000245208
0.000321667
0.000374045
0.00197013
0.000575945
0.000488599
0.000516746
0.0004875
0.0019611
0.000664214
0.000572413
0.000526466
0.000398903
0.000354912
0.00204981
0.000778646
0.000574274
0.000462394
0.000545629
0.000693355
0.000688136
0.00204588
0.00100615
0.000480939
0.000473064
0.000557249
0.000384767
0.000416716
0.000562443
0.00217986
0.000730996
0.000628384
0.00041183
0.000454606
0.000405149
0.000355549
0.000681716
0.000718002
0.00223309
0.000559116
0.000840329
0.000640132
0.000665913
0.000831352
0.000612222
0.000603261
0.000259619
0.000496822
0.00215705
0.00102468
0.000665939
0.00120752
0.000217648
0.000735802
0.000117775
0.000481584
0.000390047
0.000609929
0.000758742
0.00223095
0.000852822
0.000604502
0.00101622
0.000347962
0.000810475
0.000212304
0.00157407
0.0008696
0.000789514
0.000827066
0.000403336
0.00235666
0.000286032
0.000516054
0.000578791
0.000653939
0.000434779
0.00094575
0.00102376
0.000341594
0.000338431
0.000711927
0.000662335
0.00104185
0.00257879
0.00108751
0.000908666
0.00108313
0.000740465
0.000459407
0.000655128
0.000709301
0.000403175
0.0004867
0.000526951
0.000853944
0.000843506
0.00147255
0.00242193
0.00137373
0.00111694
0.000981779
0.00150388
0.00118606
0.00147981
0.000680101
0.000735649
0.00086558
0.000750218
0.000963045
0.000628052
0.00108378
0.00221773
0.00276328
0.000266188
0.000835859
0.000919469
0.00076084
0.000897272
0.00134881
0.00107725
0.00119357
0.00134286
0.000795555
0.000674025
0.00150446
0.000702965
0.001018
0.00122207
0.00317373
0.000308351
0.000409313
0.000425625
0.000511633
0.000569093
0.000641026
0.000788392
0.000728797
0.00106507
0.000814993
0.000546489
0.000921596
0.000741472
0.000902239
0.00125805
0.000840948
0.00181292
0.000297875
0.000284137
0.000328521
0.00079064
0.000279659
0.000272445
0.000467856
0.000387166
0.000303978
0.00041053
0.000436423
0.000320766
0.00033398
0.000552028
0.000593284
0.000776171
0.000731285
0.000863822
9.56057e-05
8.67719e-05
0.000101348
0.000382515
0.000618596
0.000864432
0.000164291
0.000182965
0.000160148
0.0001104
0.000198679
0.000267717
0.00016205
0.000242336
0.000327284
0.000108399
0.000256567
0.000339582
0.000433383
0.00207925
0.000259153
0.00219116
0.000200998
0.000359469
0.00223086
0.000224277
0.00021149
0.00028543
0.002125
0.000274435
0.000251162
0.000418554
0.000292169
0.00200475
0.000322494
0.000581665
0.000527642
0.000431282
0.000427784
0.00199715
0.000667631
0.000740872
0.000612536
0.000597844
0.000378844
0.000446458
0.00196677
0.000640069
0.000613723
0.000436259
0.000743464
0.000493226
0.000433825
0.000486616
0.00205011
0.000773328
0.000683495
0.000789601
0.000477355
0.000746881
0.000491466
0.000907399
0.00043902
0.00211042
0.000624643
0.000656027
0.000767623
0.000512484
0.000532432
0.000229612
0.000440879
0.000729677
0.000892818
0.00214527
0.000851513
0.000755408
0.000512396
0.00086637
0.000512491
0.000119805
0.000702729
0.000450811
0.000394294
0.000676261
0.00225841
0.000539121
0.000749322
0.00100284
0.000812704
0.000606164
0.000276184
0.000945839
0.000298497
0.000527824
0.000437439
0.000490314
0.00228597
0.00135885
0.000870373
0.000737709
0.000715914
0.000720218
0.00056615
0.000977995
0.000606219
0.000994032
0.000591719
0.000674953
0.000306233
0.00232878
0.000381207
0.000468872
0.000177108
0.000504238
0.000576904
0.000501719
0.000448412
0.000719632
0.000731616
0.000367047
0.000702783
0.000464292
0.000545405
0.00267595
0.000434017
0.000383171
0.000749429
0.000804746
0.000883855
0.000536599
0.000457655
0.000661037
0.000536891
0.000472629
0.000595234
0.00120179
0.00082047
0.00155518
0.00264961
0.00129946
0.00139474
0.00080153
0.00130231
0.00103977
0.000729294
0.000568331
0.00117336
0.00133536
0.000470415
0.000554482
0.000804534
0.000509152
0.00113988
0.00182459
0.00219356
0.000317669
0.000213131
0.000821795
0.000941197
0.000800995
0.000967915
0.00111067
0.000402608
0.00117816
0.000886651
0.000577032
0.000652687
0.00112742
0.0006871
0.00123884
0.0011244
0.00353828
0.000327739
0.000258361
0.000583374
0.000598719
0.000647275
0.000696008
0.000778754
0.000771933
0.000677316
0.000988574
0.000845349
0.000612225
0.000719841
0.000733825
0.00120336
0.00121142
0.00112221
0.00168451
0.000195149
0.000271889
0.000268522
0.000363904
0.000384966
0.000345393
0.000320704
0.000531419
0.000397849
0.000367503
0.000362003
0.000429361
0.000347175
0.000285341
0.000500432
0.000594283
0.000750918
0.000631651
0.001109
0.000183397
0.000134929
9.65424e-05
0.000170041
0.000319671
0.000752772
0.000875141
9.28592e-05
0.000109653
0.000143058
0.000111818
0.000143845
0.000244343
0.000174128
0.000250648
0.000239677
0.000162261
0.000220545
0.000350711
0.000385797
0.00196726
0.000343825
0.00211279
0.000355423
0.000293749
0.00222428
0.000298411
0.000176567
0.000305595
0.00212481
0.000217201
0.000231907
0.00043245
0.00035327
0.00207597
0.000255163
0.000280718
0.000239401
0.000325724
0.00046042
0.00205295
0.00032266
0.00061269
0.000647337
0.000521486
0.000393608
0.00039212
0.00214415
0.000741837
0.000833366
0.00044397
0.00045868
0.000337551
0.000621206
0.000524588
0.00193798
0.000690088
0.000579522
0.000631267
0.000275935
0.000616249
0.000438882
0.000534383
0.00044531
0.00206991
0.000932395
0.00064699
0.000612195
0.000482066
0.000483548
0.00034454
0.000791634
0.000550879
0.000651335
0.00210284
0.000480024
0.0005754
0.000801454
0.000539675
0.000539745
0.000643349
0.000425767
0.00044107
0.000489799
0.00075531
0.0021956
0.000813316
0.000670045
0.000837088
0.00121487
0.000244288
0.000580868
0.000483376
0.000478004
0.000535454
0.000545855
0.00043817
0.00226504
0.00120237
0.000643592
0.00072879
0.00119196
0.000539184
0.000585223
0.000202011
0.000917986
0.000586367
0.000378473
0.0002612
0.000491275
0.0022881
0.000585328
0.000547139
0.000544509
0.000896032
0.000438545
0.000589957
0.000666094
0.0010228
0.00147578
0.000568683
0.000586228
0.000520607
0.000422505
0.00231358
0.00048992
0.000494036
0.000481074
0.000787673
0.000403377
0.000257763
0.00101738
0.000723892
0.000790733
0.000199338
0.000431
0.000620044
0.000607525
0.000896268
0.00291387
0.000254942
0.000709273
0.000607181
0.00105832
0.00131663
0.000380116
0.000455136
0.000426706
0.000469134
0.000376843
0.000615145
0.00088739
0.000741719
0.00108153
0.00149996
0.00253733
0.000551108
0.00132181
0.00106931
0.00170012
0.00145526
0.0016509
0.00128771
0.000842746
0.000947462
0.000413471
0.00047654
0.000561186
0.000989348
0.000965552
0.00150619
0.00154728
0.00168402
0.000315519
0.000228417
0.000338144
0.00050658
0.00110329
0.00103405
0.00116156
0.00108871
0.000639983
0.00115106
0.000703357
0.00048333
0.000696922
0.00136726
0.000565345
0.000664959
0.00141944
0.00246673
0.000439849
0.000389589
0.000154718
0.000704938
0.000535134
0.000511159
0.000796181
0.000875773
0.000723143
0.000661181
0.000937983
0.000728837
0.000663118
0.000910515
0.000902836
0.00155199
0.00118153
0.00132226
0.00205419
0.000332405
0.000165956
0.00027976
0.000301851
0.000576214
0.000414018
0.0004259
0.000358206
0.000397547
0.000454984
0.000402341
0.000308762
0.000347562
0.000299661
0.00032564
0.000495218
0.000577719
0.000702746
0.000568749
0.00118384
0.000122202
0.000125637
5.49449e-05
0.000152674
0.000140526
0.000308169
0.000798299
0.000826481
0.000103237
0.000203865
0.000125708
0.000132041
0.000116907
0.000229318
0.000152925
0.000245044
0.000180859
0.000165221
0.000329645
0.0005044
0.000299605
0.00204183
0.000352791
0.00200987
0.00051753
0.0003009
0.00202396
0.000387623
0.000238676
0.000450214
0.00213846
0.000383758
0.000226989
0.000297623
0.000449877
0.00219691
0.000308607
0.000199171
0.000256787
0.000410614
0.000469983
0.00210219
0.000490869
0.000223377
0.00029669
0.000377659
0.000361037
0.000407141
0.00206805
0.000352889
0.000633103
0.000425429
0.000515135
0.000420349
0.000263727
0.000319859
0.0019415
0.000475586
0.00056216
0.00043297
0.000434692
0.00025778
0.000379736
0.000465116
0.000589248
0.00203081
0.000747413
0.000681645
0.000675627
0.000682607
0.000528168
0.000331445
0.000482563
0.000660341
0.000569263
0.00199405
0.000408581
0.000456305
0.000406557
0.000506008
0.000490134
0.000323012
0.000815306
0.00029422
0.000485831
0.000731691
0.0020436
0.000773288
0.000683428
0.000611029
0.000722524
0.000427377
0.000521688
0.000240982
0.00046445
0.0005065
0.00059111
0.000324632
0.00217072
0.000860107
0.000573965
0.000580928
0.0010764
0.00074478
0.000705885
0.000329223
0.00126613
0.000340157
0.000722615
0.00050628
0.000528237
0.0023322
0.00087726
0.000497675
0.000669427
0.00114404
0.000537433
0.000654055
0.000492196
0.000746471
0.000182666
0.000341841
0.00029387
0.000516166
0.000659823
0.00234391
0.000790878
0.000501311
0.00142046
0.000909369
0.000509936
0.000394921
0.000500084
0.00080906
0.000873038
0.00118462
0.000545877
0.00069794
0.000356057
0.000527994
0.00223
0.000640914
0.000765397
0.000377714
0.000118357
0.000498669
0.00021023
0.000580792
0.000450065
0.000771919
0.000649862
0.000528774
0.000422604
0.000496188
0.00078303
0.0010276
0.00254331
0.00115449
0.000721697
0.00045354
0.000815187
0.00118735
0.000989041
0.000432117
0.000435976
0.000798995
0.00056236
0.000291008
0.000402365
0.000841573
0.00118481
0.00141475
0.00206847
0.00239748
0.000459722
0.000560431
0.00102333
0.000925418
0.00166477
0.00122712
0.00135032
0.00156813
0.00122949
0.000481862
0.000339228
0.000488851
0.000949746
0.00106765
0.000655751
0.00134359
0.00108403
0.00183284
0.000503306
0.000293108
0.000373096
0.00052249
0.000680645
0.0010589
0.00107199
0.00123038
0.000990424
0.00107623
0.00115455
0.000874232
0.000482295
0.000477084
0.00134894
0.000905471
0.00115816
0.00155901
0.00151736
0.000721252
0.000360631
0.000368812
8.45385e-05
0.000617214
0.00045634
0.000533686
0.000785998
0.00101643
0.000748821
0.000721544
0.000907602
0.000505257
0.000673401
0.00105408
0.00122722
0.000865317
0.00114571
0.00174252
0.0019599
0.000411681
0.000311898
0.000157524
0.000258709
0.000322901
0.000519756
0.000751823
0.000421486
0.00034411
0.000542874
0.000534072
0.000440877
0.000276349
0.000255144
0.000364568
0.000289501
0.000478179
0.000556476
0.000629653
0.000607451
0.00120161
0.000102979
0.000118763
8.98159e-05
9.90596e-05
0.000100868
0.000116903
0.000325213
0.000752149
0.000697032
0.000152035
0.000351942
9.69085e-05
0.000158768
0.000214142
0.000184303
0.000123645
0.00024057
0.00015053
0.000132116
0.000271266
0.000180239
0.000269173
0.00213922
0.000388115
0.0020859
0.00046698
0.000344532
0.0020456
0.000262667
0.000335952
0.000409889
0.0020982
0.000409755
0.000452744
0.00033893
0.000381088
0.0021858
0.000221538
0.000265676
0.00026559
0.000349248
0.000411797
0.00215252
0.000334093
0.000224603
0.000177123
0.000197063
0.000313313
0.000432934
0.00207534
0.000340761
0.000260867
0.000295164
0.000363543
0.000478721
0.000334891
0.000463607
0.00210566
0.0002351
0.000460015
0.000441581
0.000452786
0.000394398
0.00026142
0.00036431
0.000570533
0.00200925
0.000280516
0.000428807
0.00071179
0.000645662
0.000396197
0.0006782
0.00042795
0.000548344
0.000459063
0.00205889
0.000549248
0.000597283
0.000715464
0.000468184
0.000543559
0.00040379
0.000435255
0.000776354
0.000416736
0.000478918
0.0020923
0.0005035
0.000383689
0.000475897
0.000573778
0.000456749
0.000464925
0.000359012
0.00023618
0.000311655
0.000482447
0.000391144
0.00210723
0.000847566
0.000587507
0.000555282
0.000734531
0.000562977
0.000487353
0.00024471
0.000399967
0.000334756
0.000420123
0.000413063
0.000487389
0.00218837
0.000789479
0.000899006
0.000594454
0.000819818
0.000999396
0.00073703
0.000315603
0.000488689
0.000183442
0.000633327
0.00031345
0.000589669
0.000466101
0.00237895
0.00105067
0.000516116
0.000523419
0.000645149
0.000915889
0.000581799
0.000362514
0.00101697
0.000636586
0.0014343
0.000274538
0.00102463
0.000670429
0.000751845
0.00236327
0.00115654
0.000528533
0.000970607
0.000498767
0.000871396
0.000394473
0.000534039
0.000628903
0.000471656
0.00113125
0.000604271
0.000414679
0.000279525
0.000747006
0.000635149
0.00235658
0.000811768
0.000638587
0.000286033
0.000456739
0.000756929
0.00049208
0.000427159
0.000609665
0.000703884
0.000829404
0.000457795
0.000450655
0.000691233
0.000636141
0.000404593
0.000979501
0.0022013
0.00104317
0.00141767
0.00185528
0.00115736
0.000914307
0.00142538
0.000319371
0.000178238
0.000881166
0.000374191
0.000162818
0.000462082
0.000486416
0.000955516
0.0011227
0.00177011
0.00169555
0.00222174
0.000618379
0.00026001
0.000416721
0.000358479
0.00094808
0.00135947
0.00113375
0.00152518
0.000655407
0.000549395
0.000693548
0.000405326
0.000463292
0.00137283
0.000683288
0.000660652
0.00115552
0.000905594
0.00232934
0.000279166
0.000431276
0.000374352
0.000354899
0.000717456
0.000768689
0.00112702
0.00111232
0.000876096
0.000818935
0.00113838
0.0017532
0.000815062
0.00050514
0.000322853
0.000880906
0.000873286
0.00134491
0.00146563
0.00175202
0.000956335
0.0004108
0.000430294
0.000445222
0.000262125
0.000412315
0.000492739
0.000643542
0.00097928
0.000893006
0.000726658
0.000660459
0.000834093
0.000354917
0.000551676
0.000637628
0.000936976
0.000607282
0.00120206
0.00265605
0.00165834
0.00025952
0.000372813
0.00026878
0.000142121
0.000176654
0.00034538
0.000442877
0.000486013
0.000408035
0.000315427
0.000565971
0.00055708
0.000492694
0.000286336
0.000211213
0.000429573
0.000269599
0.000436434
0.00057009
0.000607425
0.000753801
0.00128055
0.000274916
0.000100217
0.000120784
0.000106895
0.000109026
7.74208e-05
3.44891e-05
0.000133671
0.000359732
0.000627493
0.000476935
0.000259459
0.00010055
0.000144517
0.000107399
0.000132257
0.000127222
0.00013379
0.000236806
0.000148169
0.000104092
0.000217659
0.000197457
0.000228828
0.00210047
0.000375584
0.00202883
0.000206704
0.000230824
0.00205139
0.000509744
0.000403947
0.000245506
0.0020173
0.000260228
0.000213777
0.000375139
0.000506904
0.00211181
0.000528246
0.000555398
0.000372205
0.000414057
0.000504114
0.0021373
0.000388247
0.00025895
0.000286651
0.000333905
0.000230883
0.000368893
0.00220384
0.000388666
0.000299425
0.00019166
0.000154837
0.000309062
0.000324704
0.000309283
0.00211673
0.00022084
0.000359758
0.000210817
0.000249779
0.000365303
0.000285591
0.000255038
0.000414265
0.00211015
0.000447956
0.000225177
0.000374814
0.000446748
0.000538936
0.00026671
0.000271878
0.000362887
0.000376768
0.00199712
0.000569324
0.000632434
0.000547591
0.000535011
0.000514971
0.000441333
0.000281667
0.000333375
0.000373926
0.000339802
0.00205593
0.000593084
0.000296934
0.000310911
0.000443955
0.000255925
0.000519763
0.00035858
0.000743291
0.000434026
0.000447556
0.00067471
0.00202087
0.000415707
0.000724406
0.000570975
0.000589568
0.000558607
0.000224697
0.000326531
0.000351816
0.000329693
0.000523157
0.0005933
0.00043933
0.00214888
0.000561104
0.000509646
0.000588309
0.000529583
0.000709473
0.000538016
0.000738532
0.000386617
0.000340953
0.000413423
0.0004578
0.000483227
0.000542884
0.0022585
0.000636748
0.000676427
0.000698166
0.000847988
0.000824063
0.000715165
0.00070242
0.000326763
0.000349619
0.000745135
0.000274
0.000237953
0.000462339
0.000500019
0.00229526
0.000680534
0.000622394
0.000633233
0.00147158
0.00076536
0.000645406
0.000490211
0.000485712
0.000791738
0.000947962
0.000546684
0.000567642
0.000666074
0.000386483
0.000664673
0.00246831
0.00100073
0.00102569
0.000506187
0.0011003
0.000948196
0.000404528
0.000575716
0.000819019
0.00070098
0.000774525
0.000892201
0.000960981
0.000472606
0.000698046
0.000652892
0.000837681
0.00226974
0.000642889
0.000835255
0.000644001
0.000353899
0.000767693
0.000486999
0.000287121
0.000423682
0.00060824
0.000740604
0.000591133
0.00084363
0.000684997
0.000987719
0.000660168
0.00108718
0.00109435
0.00224244
0.00100143
0.000838803
0.000630939
0.000670704
0.000912947
0.00140164
0.000474036
0.00023752
0.000544332
0.000722096
0.000403087
0.000299796
0.000466645
0.00111624
0.000827095
0.000973721
0.00136105
0.00105901
0.00210301
0.000728268
0.000267676
0.000443877
0.000613975
0.00110354
0.00113595
0.000881074
0.000834328
0.00103952
0.000800577
0.000457016
0.000493281
0.000256635
0.000473687
0.000279038
0.0005844
0.000411891
0.000852855
0.0011296
0.00248508
0.00149337
0.000567731