/*--------------------------------*- C++ -*----------------------------------*\
  =========                 |
  \\      /  F ield         | OpenFOAM: The Open Source CFD Toolbox
   \\    /   O peration     | Website:  https://openfoam.org
    \\  /    A nd           | Version:  7
     \\/     M anipulation  |
\*---------------------------------------------------------------------------*/
FoamFile
{
    version     2.0;
    format      ascii;
    class       surfaceScalarField;
    location    "9.5";
    object      phi;
}
// * * * * * * * * * * * * * * * * * * * * * * * * * * * * * * * * * * * * * //

dimensions      [0 3 -1 0 0 0 0];

internalField   nonuniform List<scalar> 
54125
(
-3.07901e-05
-2.45981e-05
0.0008795
-2.95106e-05
-0.000138894
-0.000947681
-8.98541e-05
-4.82578e-05
0.000352354
-2.57594e-05
-2.45039e-05
0.000929763
6.97445e-05
3.09433e-05
-0.00291813
-2.32701e-05
-0.00010228
0.000355683
-2.50761e-05
-0.000143474
-0.00080489
-0.000149739
-4.60972e-05
0.000440905
-9.92689e-05
-4.71771e-05
0.000474296
-2.51486e-05
-2.57323e-05
0.000980644
0.000282839
0.000163624
-0.00514345
0.000233331
1.35813e-05
-0.00335367
0.000116366
7.43817e-05
-0.00313395
-0.000258365
-0.000112345
0.000276099
-8.79286e-05
-8.90246e-05
0.000289894
6.80553e-06
-0.000141098
-0.000695746
-0.000127917
-5.07087e-05
1.06145e-05
-0.000153749
-4.47683e-05
0.000592246
-0.00010566
-4.70516e-05
0.000601275
-2.78902e-05
-2.70662e-05
0.0010356
-4.49738e-05
0.000179524
-0.00574946
0.000151029
0.000466282
-0.00684291
0.000482777
0.000325497
-0.00583536
-5.13394e-05
-8.64719e-05
-0.00243485
7.133e-05
-2.64428e-05
-0.00341211
0.000113003
0.000110293
-0.00335044
-0.000313837
-0.000168327
0.00017737
-0.000185139
-0.000103029
0.000321493
-0.000145455
-7.73425e-05
0.000265933
1.59184e-05
-0.000135568
-0.000603986
-0.000129303
-4.31379e-05
-0.000791097
-0.000125576
-5.0106e-05
0.000141529
-0.000153057
-4.33237e-05
0.000741575
-0.000108682
-4.74952e-05
0.000730386
-2.50208e-05
-2.76717e-05
0.00108829
-0.000300381
0.000344275
-0.00644652
-1.1036e-05
0.000301451
-0.00650115
8.53706e-06
0.00019818
-0.0054734
0.000137733
0.000508233
-0.00681383
-1.41397e-05
0.000588868
-0.00702082
0.000469259
0.000497113
-0.00668873
-0.000143104
0.000108001
-0.00171004
0.000125951
-9.87937e-05
-0.00267359
-2.884e-05
9.28218e-05
-0.00351125
2.32643e-06
0.000175066
-0.00351192
-0.000369495
-0.000150594
-0.000347454
-0.000307653
-0.000161534
0.000417951
-0.000138964
-9.68644e-05
0.000326923
-0.000195396
-7.3434e-05
0.000290513
2.53235e-05
-0.000126899
-0.000527432
-0.000146121
-1.09725e-05
-0.00125631
-0.000130521
-4.27758e-05
-0.000667907
-0.000121133
-4.96458e-05
0.000268983
-0.000149181
-4.30036e-05
0.000886264
-0.000108698
-4.7344e-05
0.000858756
-2.22153e-05
-2.91672e-05
0.00113968
-0.000578325
0.000274602
-0.00501924
-1.33108e-06
0.000424563
-0.00622825
-0.000451669
0.000424939
-0.00641125
0.000196078
0.000331123
-0.00639758
-0.000256679
0.000330091
-0.00639052
7.26084e-06
0.000263334
-0.00527473
0.0003818
0.000653137
-0.00611087
0.000157994
0.000450113
-0.00670712
-0.000150381
0.000547649
-0.00694981
0.000200971
0.000591826
-0.0074792
-3.32575e-05
-2.41132e-06
-0.00281034
-0.000220536
0.000229493
-0.00212545
0.000124074
6.24049e-05
-0.00290621
-9.17893e-05
0.000217389
-0.00365718
4.79036e-05
0.000213698
-0.0037482
-0.000304438
-5.15058e-05
-0.00129992
-0.000374164
-0.000147877
-0.000117467
-0.000278119
-0.000153288
0.000631361
-0.000121455
-9.51157e-05
0.000320878
-0.000224317
-7.21227e-05
0.000351356
9.44148e-05
-0.000119213
-0.000524849
-8.14827e-05
1.23737e-05
-0.0011985
-0.000154842
-9.93436e-06
-0.0011343
-0.000132856
-4.16173e-05
-0.00054308
-0.000116501
-4.92478e-05
0.000391729
-0.000147896
-4.23453e-05
0.00102916
-0.00010427
-5.00212e-05
0.00098388
-1.82712e-05
-2.76184e-05
0.00118557
-0.000914504
0.000289855
-0.00415022
-0.000201737
0.000419461
-0.00537799
-0.000668713
0.000218954
-0.00502115
0.000253252
0.000530214
-0.0065142
-0.000280333
0.000431821
-0.00621148
-0.000650041
0.000423371
-0.00617732
0.000382654
0.000421888
-0.00593856
7.97934e-05
0.000309325
-0.00629861
-0.000332648
0.000438658
-0.00638358
-3.26344e-05
0.000308207
-0.00534934
0.000640313
0.00046189
-0.00460628
0.000178238
0.000444879
-0.00650441
7.31253e-05
0.000581061
-0.00668958
-0.000175428
0.000547352
-0.0068217
0.000199739
0.000415434
-0.00804647
-0.000262965
-0.000222083
-0.00164455
-9.50168e-05
1.76839e-05
-0.00287768
-0.000178645
0.000360244
-0.00252276
0.000102948
0.00024243
-0.00315566
-0.000179436
0.00038603
-0.00387439
0.000250551
0.000337108
-0.00424144
-0.00016868
1.10005e-05
-0.0022729
-0.000326398
-4.19808e-05
-0.00123426
-0.000358456
-0.000144011
9.88565e-05
-0.000198714
-0.000143295
0.000761753
-0.000143629
-9.49824e-05
0.000339471
-0.000221792
-7.02284e-05
0.000419894
0.000128981
-0.000112541
-0.000559561
-6.90583e-05
9.16e-06
-0.00147909
-8.63161e-05
1.29612e-05
-0.00113508
-0.000163155
-9.31749e-06
-0.00100345
-0.000134627
-3.83086e-05
-0.000419392
-0.000112657
-4.97054e-05
0.000511746
-0.000140355
-4.40644e-05
0.00116356
-0.000101211
-4.89105e-05
0.00110638
-1.13851e-05
-2.606e-05
0.00122301
-0.00125488
0.000445458
-0.00357919
-0.000302327
0.000371115
-0.00520644
-0.000917512
0.000189306
-0.00409073
7.32623e-05
0.000714619
-0.00555313
-0.000203771
0.000439463
-0.00567506
-0.00078893
0.000180785
-0.00506304
0.000299459
0.000579698
-0.00577734
0.000100048
0.000500598
-0.00660323
-0.000249498
0.000377127
-0.00624838
-0.000696505
0.000396472
-0.00590993
0.000671689
0.000677904
-0.00534687
0.000321369
0.000383344
-0.00615571
9.52867e-05
0.000343457
-0.00622557
-0.000438704
0.000463494
-0.00627559
-0.000139977
0.000322245
-0.00533186
0.000201466
5.16336e-05
-0.00239496
0.000563418
0.00048913
-0.00530896
7.54941e-05
0.00053593
-0.00671341
-4.78683e-05
0.000599874
-0.00659128
-0.000259163
0.000531427
-0.00685796
0.000323696
0.00022453
-0.00834414
-8.53189e-05
-0.000253041
-0.00208026
-0.000164554
-0.000188268
-0.00160044
-0.000158154
5.46307e-05
-0.00277237
-9.07768e-05
0.000477409
-0.00286568
3.60681e-05
0.000452782
-0.00340211
-0.000174724
0.000456674
-0.00404103
0.000159061
0.000362767
-0.00463429
-8.47871e-05
-3.99732e-05
-0.00219388
-0.000195936
1.4068e-05
-0.00221933
-0.00036662
-3.57081e-05
-0.0011391
-0.000325729
-0.000134286
0.000280951
-0.000121961
-0.000130901
0.000806976
-0.000189739
-9.39158e-05
0.000412542
-0.00020315
-6.921e-05
0.000478502
0.000187355
-0.000101036
-0.000657265
-3.96171e-05
-7.7603e-06
-0.00177943
-7.85883e-05
8.90728e-06
-0.00139644
-9.24835e-05
1.38567e-05
-0.00106577
-0.000171275
-5.80232e-06
-0.000864681
-0.000135225
-3.7594e-05
-0.000296279
-0.000108015
-5.06954e-05
0.000626392
-0.000130062
-4.52633e-05
0.00128997
-9.73713e-05
-4.84497e-05
0.00122614
-1.31005e-05
-2.48497e-05
0.00126096
-0.0013443
0.000114842
-0.0036281
-0.000225622
0.000391762
-0.0047698
-0.00128342
0.000403022
-0.0036163
-0.000114778
0.000581511
-0.00557459
-0.000309653
0.000305311
-0.00521657
-0.000882233
0.000149165
-0.00414659
0.000107812
0.000846382
-0.00570397
1.50682e-05
0.000504647
-0.00553333
-0.000174303
0.000439624
-0.0060091
-0.000864044
0.00014857
-0.00504407
0.00069569
0.000752219
-0.00547737
0.000336356
0.000579034
-0.00587076
-2.30989e-05
0.000434546
-0.00654226
-0.000341104
0.000395134
-0.00634465
-0.000796202
0.000418462
-0.00567216
0.000832654
0.000721072
-0.00427793
0.000559634
0.00058868
-0.00554843
0.000217912
0.000323739
-0.00627841
-1.39691e-05
0.000359421
-0.00615539
-0.000426931
0.000468044
-0.00625362
-0.000272743
0.000348807
-0.00508423
-0.000106837
-0.00012245
-0.0013811
0.000354146
0.000180669
-0.0026052
0.000338927
0.000565552
-0.00583567
-1.93035e-06
0.000469203
-0.00667159
-0.00010152
0.000566855
-0.00648912
-0.000241954
0.000494822
-0.00706103
2.92807e-05
0.000536149
-0.00875051
-4.98949e-05
-0.00025375
-0.0017718
-0.000136733
-0.000204863
-0.00212286
-5.19948e-05
-0.000167557
-0.00169288
-0.000185397
0.000151638
-0.00258693
-1.17765e-05
0.000532752
-0.00305583
-0.000100582
0.000514668
-0.00354926
-0.000168667
0.000502188
-0.00421493
0.000117552
0.000365553
-0.00493004
-2.27735e-05
-0.000118545
-0.00159448
-0.000105318
-4.6319e-05
-0.00210676
-0.00022015
2.32607e-05
-0.00215064
-0.000404656
-2.36555e-05
-0.00101635
-0.000306237
-0.000111202
0.000432264
-9.83695e-05
-0.000113764
0.000817178
-0.000217347
-9.02344e-05
0.000520852
-0.000187704
-6.12974e-05
0.000529095
0.000203459
-8.37718e-05
-0.000790053
3.34431e-05
-3.22502e-05
-0.00141568
-4.84437e-05
-8.02301e-06
-0.00171406
-8.62758e-05
9.66899e-06
-0.00130598
-9.4947e-05
1.5554e-05
-0.000992184
-0.000173915
-4.19776e-06
-0.000724162
-0.000131516
-3.81397e-05
-0.000177319
-0.000104092
-5.22697e-05
0.000737491
-0.000120463
-4.49289e-05
0.00140692
-9.18404e-05
-4.7628e-05
0.00134076
-1.2069e-05
-2.40138e-05
0.00129704
-0.00143972
8.6985e-05
-0.00355681
-0.000508939
0.000315113
-0.00472423
-0.00142859
0.000111074
-0.00359401
-0.000138311
0.000488583
-0.00501169
-0.000346752
0.000376157
-0.00470583
-0.00104529
0.000317288
-0.00377053
-0.000121992
0.000835736
-0.00592997
-0.000208125
0.000514651
-0.00556074
-0.000311998
0.000256617
-0.00518632
-0.000869557
0.000106967
-0.00424804
0.000538478
0.00090828
-0.0057869
0.000270722
0.000622386
-0.00575607
6.99388e-05
0.000462878
-0.00564963
-0.000332559
0.000397269
-0.00626634
-0.00088841
9.55812e-05
-0.00504745
0.000927702
0.000755047
-0.00500445
0.000527305
0.00067552
-0.00554153
0.000275789
0.000612072
-0.00610616
-8.46204e-05
0.000393065
-0.00646954
-0.000278511
0.000429898
-0.0065045
-0.00088251
0.000398931
-0.00546133
0.00033511
0.000611847
-0.00306817
0.000771899
0.000829764
-0.00493677
0.000380842
0.000531301
-0.0057979
0.000138671
0.000285959
-0.00634555
0.000197484
0.000376502
-0.00636286
-0.000439688
0.000540872
-0.00624795
-0.000422708
0.000339907
-0.00497215
-0.000162322
-0.000193105
-0.00131738
8.0033e-05
-6.74221e-05
-0.00134977
0.000552582
0.000357882
-0.0030021
0.000111097
0.000471128
-0.00613409
-7.85171e-05
0.000385313
-0.00642331
-0.000142712
0.000517476
-0.00646965
-0.000248715
0.000528903
-0.00697373
-0.000284816
0.000605655
-0.0089538
-8.04623e-05
-0.000284173
-0.000998214
-6.26806e-05
-0.00024927
-0.00177003
-0.000154454
-0.000155094
-0.00220102
-1.66699e-05
-4.28302e-05
-0.0018864
-6.19411e-05
0.000271611
-0.00257009
-2.03887e-06
0.000613588
-0.00325108
-0.000226556
0.000523053
-0.00356091
-0.00020158
0.00053877
-0.00437427
0.000123707
0.000395239
-0.00524552
4.75713e-05
-0.00014247
-0.00114522
-3.496e-05
-0.000110288
-0.001544
-0.000138283
-3.71804e-05
-0.00199432
-0.000254111
3.32877e-05
-0.00204842
-0.000415495
-3.08633e-07
-0.00088566
-0.000234982
-8.89973e-05
0.000510963
-0.000119809
-0.000100941
0.000843603
-0.0002276
-8.68222e-05
0.000653513
-0.000154657
-5.23708e-05
0.000560511
0.000180995
-6.73496e-05
-0.000915768
0.000124702
-5.8849e-05
-0.00107718
2.61357e-05
-3.02162e-05
-0.00141962
-5.42629e-05
-1.00125e-05
-0.00164012
-9.37584e-05
1.05103e-05
-0.00120718
-9.11049e-05
1.71225e-05
-0.000922399
-0.000171781
-4.01439e-06
-0.000586507
-0.000127058
-3.81541e-05
-6.43758e-05
-0.000103773
-5.27933e-05
0.000849128
-0.00011217
-4.65306e-05
0.00151799
-8.53027e-05
-4.65848e-05
0.00144864
-7.98793e-06
-2.3293e-05
0.00132832
-0.00123302
-8.6214e-05
-0.00334858
-0.000801449
0.000273174
-0.00439896
-0.00151276
9.68995e-05
-0.00356953
-0.000316206
0.000514167
-0.00461954
-0.000587649
0.000309966
-0.00468222
-0.00109698
0.000112834
-0.00365515
-0.000247196
0.000709997
-0.00533099
-0.000240788
0.000439492
-0.00504236
-0.000495122
0.000356404
-0.00456183
-0.00111849
0.000290507
-0.00381211
0.000169816
0.00104035
-0.00583655
3.50276e-06
0.000669275
-0.00581738
0.000143318
0.000432001
-0.0058095
-0.000420759
0.000217714
-0.00520887
-0.000913143
7.75998e-05
-0.00430091
0.000803532
0.00116197
-0.00563369
0.00050239
0.000931722
-0.00607132
0.00028054
0.000573659
-0.0058716
-2.02594e-05
0.000391079
-0.0057078
-0.000343633
0.000227478
-0.00633311
-0.000944776
-2.5123e-05
-0.00496006
0.0010293
0.000827752
-0.00496599
0.000779093
0.000934123
-0.00527024
0.000449088
0.000687287
-0.00568499
0.000198877
0.000501316
-0.00627462
0.000253064
0.000307416
-0.00640264
-0.000162924
0.000461503
-0.00684384
-0.000928101
0.000311992
-0.00526793
0.000165684
0.00061611
-0.00337259
0.000449474
0.000946874
-0.00355473
0.00059683
0.000834583
-0.0052843
0.000269004
0.000455584
-0.00612544
0.000119679
0.000177655
-0.0063449
-5.8358e-06
0.000438015
-0.00639688
-0.000451298
0.0005846
-0.00629006
-0.000612445
0.000342527
-0.00498705
-0.000226221
-0.000201277
-0.00183085
-1.39329e-05
-0.000119954
-0.00131359
0.000183746
-1.56741e-05
-0.00131441
0.000566931
0.00036992
-0.0034845
0.000217497
0.000294929
-0.00632314
-7.54164e-05
0.000401832
-0.00623428
-0.000287109
0.000476145
-0.00635634
-0.000329675
0.000606257
-0.00684624
-0.000569234
0.000442287
-0.00870314
-3.08734e-05
-0.000269767
-0.000917263
-8.92016e-05
-0.000290845
-0.000902398
-0.000106637
-0.000225211
-0.00173156
-0.000174141
-3.44726e-05
-0.00228935
-3.32101e-05
0.00012119
-0.00211826
-3.85884e-05
0.000549835
-0.00270273
-9.94856e-05
0.000609371
-0.00335772
-0.000288501
0.000513161
-0.0034744
-0.000240759
0.000538813
-0.00443174
4.16924e-05
0.000504182
-0.0056104
0.000158397
-0.000129481
-0.00134734
4.5202e-05
-0.000131077
-0.0011435
-2.97375e-05
-0.000102178
-0.00150352
-0.000177972
-3.08071e-05
-0.00184601
-0.000256576
5.14253e-05
-0.00193468
-0.000371555
2.41713e-05
-0.000799054
-0.000213236
-5.39989e-05
0.000550199
-0.000141404
-8.57589e-05
0.000880171
-0.000213934
-8.27578e-05
0.000785665
-8.81703e-05
-4.43552e-05
0.000540385
0.000145931
-5.03802e-05
-0.00101931
0.000115577
-6.45517e-05
-0.00095723
0.000117523
-5.38602e-05
-0.00117106
1.72621e-05
-3.0706e-05
-0.00141619
-6.37316e-05
-7.92026e-06
-0.00155795
-0.000100363
1.20535e-05
-0.00110175
-8.19946e-05
1.58699e-05
-0.000860289
-0.000163156
-3.43013e-06
-0.000458075
-0.000120366
-3.81809e-05
4.13782e-05
-9.61223e-05
-5.466e-05
0.000953379
-0.000103586
-4.52786e-05
0.00162027
-7.78729e-05
-4.61335e-05
0.00154935
-9.85585e-06
-2.12302e-05
0.00135941
-0.00110711
-0.000119474
-0.00305106
-0.000838232
-0.000104308
-0.00392914
-0.00151734
-5.42199e-05
-0.00328979
-0.000448475
0.000401728
-0.0046246
-0.000853854
0.000258678
-0.00429453
-0.00120645
3.73359e-05
-0.0034974
-0.000305052
0.000580899
-0.004747
-0.000385177
0.000493652
-0.00465884
-0.000701936
0.000280781
-0.00464335
-0.00132337
8.7585e-05
-0.00353786
-0.000135472
0.000873717
-0.00574283
-0.000320414
0.000718502
-0.00528609
-3.1022e-05
0.000413657
-0.00492527
-0.000517285
0.000302198
-0.00447699
-0.00119878
0.000262826
-0.0037893
0.000596303
0.00126084
-0.00567956
0.000269254
0.000949631
-0.00588377
0.000117887
0.000578874
-0.0058016
2.85903e-05
0.000322531
-0.00596317
-0.000389886
0.000199989
-0.00528501
-0.00101443
8.59765e-05
-0.00431723
0.000909701
0.00153398
-0.00519879
0.000636461
0.00126649
-0.00582583
0.000414172
0.000750382
-0.00621313
0.000282831
0.000446453
-0.00601093
-7.14822e-06
0.000285578
-0.00550569
-0.000188235
9.17384e-05
-0.00642466
-0.00097546
3.66463e-05
-0.00494935
0.000777899
0.00112399
-0.00493574
0.000626393
0.00108274
-0.00529152
0.000664417
0.000946832
-0.00559737
0.000470034
0.000598779
-0.00598348
0.000191766
0.000351776
-0.00639107
1.1687e-05
0.000210353
-0.00616901
-0.000288328
0.000419645
-0.00711446
-0.00100183
0.000238212
-0.00511675
4.66612e-05
0.000594483
-0.00321491
0.000387619
0.000922653
-0.00374992
0.000525843
0.00102745
-0.00408969
0.000399005
0.000736291
-0.00539708
0.000243421
0.000221658
-0.00619536
0.000221031
0.000313494
-0.00651682
-0.00021089
0.000509662
-0.00639816
-0.000456315
0.000626285
-0.00644718
-0.0009625
0.00022815
-0.00482193
-0.000185491
-0.000250275
-0.00193813
-0.000165365
-0.000138837
-0.0017358
7.18656e-05
-0.000122687
-0.00138508
0.000215168
3.54699e-05
-0.00136927
0.000475225
0.000378954
-0.00407696
0.00022562
0.000252798
-0.00643832
-0.00013361
0.000400538
-0.00612455
-0.000420683
0.000501129
-0.00611903
-0.000354964
0.000596717
-0.00688646
-0.000833314
0.000543372
-0.00837151
0.000123453
-0.000193162
-0.00158623
-5.52251e-05
-0.000268749
-0.000838932
-8.59827e-05
-0.000289644
-0.000781719
-0.000164083
-0.000193102
-0.00158682
-8.57227e-05
6.98092e-05
-0.00240882
-4.22761e-05
0.000379473
-0.00227718
-5.07113e-05
0.000624348
-0.00288023
-0.000185788
0.000579391
-0.00337957
-0.000309077
0.000499926
-0.00334037
-0.000102648
0.000524902
-0.00443799
-0.000113966
0.000543647
-0.00589415
0.000179861
-0.000136424
-0.00170933
0.000128045
-0.000122708
-0.00136623
2.9476e-05
-0.000130022
-0.00112787
-4.22411e-05
-0.000101379
-0.00145444
-0.000202554
-1.18264e-05
-0.00168056
-0.000242407
8.06024e-05
-0.0018307
-0.000321286
5.54075e-05
-0.00075033
-0.000221877
-1.51452e-05
0.000581096
-0.000145369
-7.03083e-05
0.000916967
-0.000186638
-7.87792e-05
0.000903141
-4.87011e-05
-3.75416e-05
0.000498374
0.000161484
-3.81489e-05
-0.0011525
0.00011364
-1.22484e-05
-0.00060214
0.000111608
-6.58752e-05
-0.00105682
0.000111118
-4.98133e-05
-0.00126307
1.56394e-05
-2.75242e-05
-0.00141223
-6.76041e-05
-8.0293e-06
-0.00147027
-0.000106748
1.10622e-05
-0.00099019
-7.5349e-05
1.56019e-05
-0.000803972
-0.000154039
-2.31074e-06
-0.000339905
-0.00011428
-3.83717e-05
0.00013937
-9.46956e-05
-5.38987e-05
0.0010567
-9.42872e-05
-4.4315e-05
0.00171274
-7.32186e-05
-4.44947e-05
0.00164583
-7.30874e-06
-2.1025e-05
0.00138774
-0.00126971
-0.000124325
-0.00264107
-0.000982299
-5.46584e-05
-0.00352796
-0.00147165
-0.000139582
-0.00295717
-0.000611362
3.04334e-05
-0.00427228
-0.000833547
-0.000125075
-0.00387859
-0.0012434
-4.75341e-05
-0.00320531
-0.00036338
0.000448039
-0.00453683
-0.000546937
0.000355307
-0.00455947
-0.000923725
0.000182415
-0.00421782
-0.00136077
-5.33107e-05
-0.00340668
-0.00016701
0.00068975
-0.00516778
-0.000331439
0.000532779
-0.00477511
-0.000306157
0.00047109
-0.00457401
-0.000747786
0.000249767
-0.00457503
-0.00126713
3.79535e-05
-0.00350747
0.000321623
0.00114743
-0.00569878
-9.5268e-05
0.000938293
-0.0055981
-0.000318323
0.00065973
-0.00509595
-4.70411e-05
0.000359102
-0.00490655
-0.000432598
0.000249038
-0.00442049
-0.00129227
0.000237536
-0.00374899
0.000713038
0.00147921
-0.00515705
0.000420917
0.00123044
-0.00574483
0.000218351
0.000766208
-0.00587528
0.000177774
0.000471107
-0.00584512
-0.000105303
0.000297717
-0.00596274
-0.000421025
0.000183102
-0.00514934
-0.0011277
0.000120495
-0.00428549
0.000749678
0.00163451
-0.00530045
0.000637253
0.00134768
-0.00529083
0.000788229
0.00108522
-0.00628448
0.000426563
0.00053325
-0.00625645
3.27559e-05
0.000384219
-0.00595056
2.23982e-06
0.000141451
-0.00554595
-0.000391
0.000206092
-0.00649144
-0.000959426
-4.58384e-05
-0.00494591
0.00056067
0.00130501
-0.00431079
0.000873161
0.00104581
-0.00538435
0.000601708
0.0011295
-0.00555006
0.00035928
0.000774613
-0.00573348
0.00042796
0.000466498
-0.00628274
0.000409062
0.000204174
-0.00657292
-7.62294e-05
0.000289173
-0.0061732
-0.00030531
0.00035587
-0.00738312
-0.00104456
0.000124595
-0.00515929
-0.000122343
0.000442093
-0.00309576
0.000352597
0.000850112
-0.00366033
0.000443109
0.00101968
-0.0041134
0.000505157
0.000890463
-0.00453385
0.000350438
0.000611198
-0.00566183
0.000478706
0.000257024
-0.00639198
0.000127751
0.000412718
-0.00668124
-0.000391952
0.000587644
-0.00638825
-0.000293194
0.000476383
-0.00675718
-0.00124463
8.18504e-05
-0.00449247
-8.80577e-06
-0.000250489
-0.0018619
-0.000242013
-0.000194429
-0.00169575
2.96741e-05
-0.00012701
-0.00184714
4.54666e-05
-5.14947e-05
-0.00150766
0.000310298
0.000384158
-0.0017705
0.000330151
0.00029847
-0.00449505
1.39791e-05
0.00024684
-0.00634931
-0.000223968
0.000376898
-0.00596214
-0.000473426
0.000539015
-0.00589698
-0.000528206
0.00065145
-0.00656898
-0.00104375
0.000613372
-0.00805509
0.000185391
-0.000138715
-0.00235595
6.03076e-05
-0.000189312
-0.00159793
-9.52966e-05
-0.000260937
-0.000742866
-0.000108442
-0.000289003
-0.000619618
-0.000121006
-0.000150299
-0.00144826
2.28796e-05
0.000146391
-0.00244103
-4.82406e-05
0.000512282
-0.00243816
-0.000119187
0.000624733
-0.00302826
-0.000205527
0.00054763
-0.00336711
-0.000269869
0.000487176
-0.00321942
4.18358e-06
0.000527724
-0.00447495
-0.000165344
0.000509779
-0.0060771
0.000178917
-8.18969e-05
-0.00209374
0.000155262
-0.000138109
-0.00173758
0.000102115
-0.000122015
-0.00136523
9.28437e-06
-0.000131193
-0.0010917
-4.50263e-05
-9.64473e-05
-0.0013924
-0.000219843
1.46908e-06
-0.00148834
-0.000195155
9.55346e-05
-0.00175102
-0.000292608
8.42533e-05
-0.00071116
-0.000219425
1.95849e-05
0.000596349
-0.000143451
-5.57121e-05
0.000942655
-0.000127694
-7.452e-05
0.000973527
4.02124e-05
-3.35843e-05
0.000380379
0.000159945
-2.90753e-05
-0.00129068
0.000149801
2.63635e-05
0.000862312
0.000110906
-1.56567e-05
-0.000763265
0.000107643
-6.51068e-05
-0.00114917
0.000106215
-4.70329e-05
-0.00134978
5.94516e-06
-2.76866e-05
-0.00139852
-7.1978e-05
-7.35775e-06
-0.00137987
-0.000113882
1.16325e-05
-0.000872339
-7.2872e-05
1.3431e-05
-0.000746842
-0.000145283
-1.64447e-06
-0.00023135
-0.000108277
-3.82238e-05
0.000231971
-9.2046e-05
-5.3416e-05
0.00115784
-8.36352e-05
-4.37066e-05
0.00179558
-6.65751e-05
-4.40756e-05
0.00173546
3.84831e-06
-1.89122e-05
0.00140281
-0.00156152
0.000123073
-0.00201634
-0.00115019
-0.0001369
-0.00314282
-0.00144866
-7.19147e-05
-0.00259215
-0.000885982
3.96934e-05
-0.0037071
-0.000967897
-6.51773e-05
-0.00346801
-0.00127993
-9.39728e-05
-0.00282667
-0.000566361
0.000188374
-0.00431343
-0.000670234
-1.53014e-05
-0.00425875
-0.000968308
-0.000103251
-0.00377829
-0.00141282
-6.10101e-06
-0.00314716
-0.000177389
0.000478862
-0.00458289
-0.000406706
0.000398338
-0.00450459
-0.000511005
0.000353896
-0.00452611
-0.000999035
0.000122565
-0.00414245
-0.00115085
-7.96134e-05
-0.00344334
0.000102531
0.000897452
-0.00528858
-0.00024192
0.000636769
-0.00512512
-0.000368047
0.000516152
-0.00477044
-0.000305097
0.000432465
-0.00449865
-0.000759678
0.000290745
-0.00450075
-0.00133479
2.14417e-05
-0.00348639
0.000533042
0.00129097
-0.00548743
0.000267396
0.000979564
-0.00558653
-2.56402e-05
0.000815719
-0.0055101
2.26134e-05
0.000573776
-0.00515546
-0.000153
0.000281169
-0.00489098
-0.000415646
0.000222543
-0.00441088
-0.00141274
0.000214449
-0.0036784
0.000586083
0.00162598
-0.0051408
0.000956731
0.00131569
-0.00556178
0.000683085
0.0010031
-0.00587658
0.000290478
0.000690182
-0.00595827
-0.000113426
0.000443295
-0.00584451
-0.00022267
0.000323891
-0.00587862
-0.000495682
0.000193829
-0.00511799
-0.00113824
0.000158898
-0.00426557
0.000612291
0.00167651
-0.00543017
0.000907269
0.00139106
-0.00537794
0.000699014
0.00133298
-0.0056359
0.000405593
0.000788257
-0.0065858
0.000396732
0.000396734
-0.00623774
0.000186223
0.000242097
-0.00582837
3.94722e-05
0.000205132
-0.00566069
-0.000500494
3.30493e-05
-0.00637514
-0.000954295
-6.87519e-05
-0.00496742
0.000195638
0.00137825
-0.00382413
0.000896539
0.00124941
-0.00505834
0.000774043
0.001058
-0.00564379
0.000564909
0.000941998
-0.00577719
0.000457136
0.000651269
-0.00602495
0.000483291
0.000301453
-0.00638461
0.00029762
0.000302818
-0.00675644
-0.000120584
0.000443212
-0.00653191
-0.000251519
0.000264453
-0.00756466
-0.00104707
-0.000224012
-0.00513283
5.0627e-06
0.000316275
-0.00256856
0.000209778
0.000603343
-0.00330078
0.000494741
0.000892801
-0.00399851
0.000420235
0.000968461
-0.00456617
0.000404289
0.000808387
-0.00482503
0.000349383
0.000434972
-0.00585901
0.00031162
0.000339692
-0.00661659
-9.81817e-05
0.000440105
-0.00665949
-0.000355042
0.000705432
-0.00673568
-0.000596933
0.000390046
-0.00699665
-0.00133684
0.000142672
-0.00434205
3.77287e-05
-0.00014984
-0.00248368
-6.43048e-05
-0.00020179
-0.00172992
-0.000125585
-0.000149848
-0.00164263
4.72191e-05
-4.09808e-05
-0.00201331
7.42624e-05
0.000374338
-0.00169311
0.000478332
0.000492784
-0.00242026
0.000190768
0.000223541
-0.00471076
-5.40351e-05
0.000198738
-0.0062363
-9.81241e-05
0.000421962
-0.00595249
-0.000310504
0.00059892
-0.00580381
-0.000436349
0.000739453
-0.00625453
-0.00114253
0.000612264
-0.00769017
0.000124855
-3.97771e-05
-0.0027616
0.000141863
-0.000130632
-0.00240123
-2.46624e-05
-0.000185794
-0.00154629
-0.000150172
-0.000255489
-0.000616923
-0.000108937
-0.000274572
-0.000431435
-1.73309e-05
-9.67935e-05
-0.00140759
0.000116804
0.000279902
-0.00252061
-5.37033e-05
0.000565583
-0.00261791
-0.00015556
0.000594747
-0.00313924
-0.000181009
0.000525945
-0.00336833
-0.00012282
0.000481994
-0.00317856
0.000147152
0.000499842
-0.00457195
-0.000196339
0.000486407
-0.00620723
0.00031479
2.53544e-06
-0.00148626
0.000157975
-8.8975e-05
-0.00218994
0.000129058
-0.000135847
-0.00174516
8.50941e-05
-0.00012111
-0.00135419
-9.78427e-06
-0.000133063
-0.00103936
-5.97763e-05
-9.85561e-05
-0.00130458
-0.000247279
2.76605e-05
-0.00128706
-0.00015503
9.9271e-05
-0.00168388
-0.000282932
0.000105291
-0.000659217
-0.000225197
4.90394e-05
0.000608518
-0.000127853
-4.3834e-05
0.000947777
-7.97137e-05
-7.21258e-05
0.00100815
9.43829e-05
-3.3696e-05
0.000224041
0.000137751
-1.60663e-05
-0.00140851
0.000132577
8.93136e-06
0.0011528
0.000144908
2.47427e-05
0.000677005
0.000108063
-1.63566e-05
-0.000920077
0.000103977
-6.26227e-05
-0.00123756
9.85866e-05
-4.52755e-05
-0.00143078
2.23046e-07
-2.72303e-05
-0.00137887
-8.09602e-05
-7.20477e-06
-0.00128007
-0.000119277
1.08648e-05
-0.000750496
-7.5052e-05
1.42327e-05
-0.000687667
-0.000137393
-6.79734e-07
-0.000131501
-0.000102554
-3.77418e-05
0.000318851
-8.58912e-05
-5.32765e-05
0.0012533
-7.90675e-05
-4.3719e-05
0.00187429
-6.49188e-05
-4.28025e-05
0.00182427
5.10099e-06
-1.77784e-05
0.00141549
-0.00167053
0.000161767
-0.00174728
-0.00127027
0.000161302
-0.00256619
-0.00158284
0.000106295
-0.00198845
-0.000988834
-0.000110336
-0.0033528
-0.00124195
-3.79288e-05
-0.00290275
-0.00140439
-4.3312e-05
-0.00242438
-0.000776654
0.000174176
-0.00391328
-0.000914862
8.6877e-05
-0.00361452
-0.0012048
-3.64532e-05
-0.00328903
-0.00150704
4.09226e-05
-0.00277336
-6.81125e-05
0.000244075
-0.00431515
-0.000635481
0.000197623
-0.00429758
-0.000764223
-7.92019e-06
-0.00410087
-0.00124718
-8.60875e-07
-0.00353538
-0.00129691
-8.52196e-06
-0.00299259
-3.81121e-05
0.000616996
-0.00475416
-0.000283478
0.000461217
-0.00460421
-0.000320559
0.000370214
-0.0045684
-0.000610186
0.000357065
-0.00445552
-0.00103351
8.96204e-05
-0.00403785
-0.00124363
-0.000138944
-0.00339555
0.00045183
0.00105331
-0.00530542
0.000121006
0.000776319
-0.00528174
-0.000117771
0.000567986
-0.00508482
-0.000113566
0.000498968
-0.00470077
-0.00031393
0.000401521
-0.0044485
-0.000792917
0.000309573
-0.00441161
-0.00139086
1.39413e-05
-0.00352222
0.000403857
0.00137661
-0.00553195
0.000856841
0.00106945
-0.00547742
0.000559468
0.000981563
-0.00562875
0.00011939
0.000713716
-0.00547895
-0.000262328
0.000459582
-0.00518497
-0.000265968
0.000255431
-0.00488057
-0.000462255
0.00020228
-0.00443213
-0.00139811
0.000172185
-0.00359072
0.000483504
0.00177554
-0.00536185
0.000790852
0.00155937
-0.00526806
0.000471503
0.00127823
-0.0056094
0.000401561
0.000933384
-0.00611575
0.00035477
0.000634282
-0.0061073
-0.000103297
0.000468582
-0.00569968
-0.000223883
0.000308856
-0.00573029
-0.000666275
0.000197388
-0.0049907
-0.00113986
0.000141449
-0.00422145
0.000333191
0.00179196
-0.00568377
0.000748153
0.00162432
-0.00551504
0.00101042
0.00138724
-0.00566857
0.000603045
0.00118608
-0.00607186
0.000296707
0.000602826
-0.00663146
0.000379164
0.000372111
-0.00626363
0.000278469
0.00020326
-0.00580734
-0.000102267
0.000119173
-0.00576513
-0.00062771
9.36236e-05
-0.00616133
-0.00101383
-3.22806e-06
-0.00499743
0.000314154
0.00137807
-0.00380427
0.000675043
0.00144931
-0.00448929
0.000688269
0.00118187
-0.00537573
0.000407995
0.00100597
-0.00569552
0.000437225
0.000789256
-0.00594812
0.000444434
0.000530641
-0.00634919
0.000553782
0.000320794
-0.00664475
4.80334e-05
0.00060474
-0.00706418
5.08075e-05
0.000343149
-0.00701646
-0.000247542
-4.32507e-05
-0.00809481
-0.00100171
-0.000286542
-0.00518142
-0.00011485
0.000397812
-0.00259527
0.000121757
0.000402212
-0.00255349
0.000368176
0.000832705
-0.00373445
0.000462526
0.000941999
-0.00438735
0.000260454
0.000937403
-0.00488138
0.00045498
0.000619321
-0.00498603
0.000404912
0.000421065
-0.00615453
0.00017969
0.000295706
-0.00670592
4.8056e-05
0.00065702
-0.00675726
-0.000219396
0.00068677
-0.00712351
-0.000515685
0.000721857
-0.0074965
-0.00137677
0.000225927
-0.00433374
1.09219e-05
-9.53011e-05
-0.00361449
2.4928e-05
-0.000115912
-0.00245262
-0.000166655
-0.000147173
-0.0015906
-3.71982e-05
-5.606e-05
-0.00174052
-7.1552e-05
0.000239103
-0.00191546
0.000334752
0.000634898
-0.00218731
0.0004834
0.000399777
-0.0029631
0.000155438
9.246e-05
-0.00481363
-8.39093e-05
0.000231981
-0.00611797
-0.000179744
0.000550673
-0.00590551
-1.10672e-05
0.000639085
-0.0058152
-8.83753e-05
0.000743269
-0.00615001
-0.00119633
0.000602601
-0.00729278
0.000402477
5.12828e-05
-0.00243813
8.08196e-05
-5.797e-05
-0.00275711
6.69212e-05
-0.000135549
-0.00238934
-0.000110289
-0.000189785
-0.00141661
-0.000183922
-0.000253706
-0.000463651
-6.53037e-05
-0.000243989
-0.000278713
2.87709e-05
2.53934e-07
-0.00140399
9.58007e-05
0.000364041
-0.0025699
-7.35229e-05
0.000561466
-0.00279404
-0.00020115
0.000556296
-0.00319364
-0.000141372
0.000502319
-0.00337513
4.78517e-05
0.000446893
-0.00325318
0.000306445
0.00044657
-0.00474418
-0.000307133
0.000451828
-0.00621417
0.000269881
1.516e-05
-0.000592374
0.000297193
-1.15223e-05
-0.001716
0.000133994
-0.00010121
-0.00225051
9.91954e-05
-0.000133171
-0.00172832
5.98803e-05
-0.000120863
-0.00132769
-7.57527e-06
-0.000138716
-0.000991398
-9.02653e-05
-8.65014e-05
-0.00118111
-0.000260086
5.14352e-05
-0.00109842
-0.000149046
9.65794e-05
-0.00160117
-0.000273533
0.000124139
-0.000598175
-0.000220452
6.98181e-05
0.000612764
-0.000107357
-3.43527e-05
0.000931469
4.41323e-06
-7.27702e-05
0.00096374
0.000108727
-3.32055e-05
6.75352e-05
0.000116173
-6.69453e-06
-0.00151289
0.000103555
-2.19811e-05
0.00123261
0.000134112