/*--------------------------------*- C++ -*----------------------------------*\
  =========                 |
  \\      /  F ield         | OpenFOAM: The Open Source CFD Toolbox
   \\    /   O peration     | Website:  https://openfoam.org
    \\  /    A nd           | Version:  7
     \\/     M anipulation  |
\*---------------------------------------------------------------------------*/
FoamFile
{
    version     2.0;
    format      ascii;
    class       surfaceScalarField;
    location    "9.5";
    object      phi_0;
}
// * * * * * * * * * * * * * * * * * * * * * * * * * * * * * * * * * * * * * //

dimensions      [0 3 -1 0 0 0 0];

internalField   nonuniform List<scalar> 
54125
(
-3.11726e-05
-2.45457e-05
0.000877593
-2.6999e-05
-0.000138959
-0.000968206
-8.9863e-05
-4.83334e-05
0.00034262
-2.63688e-05
-2.43577e-05
0.00092832
6.09428e-05
2.39105e-05
-0.00291404
-1.92695e-05
-0.000102044
0.000352216
-2.69279e-05
-0.000143738
-0.000823909
-0.00014997
-4.61823e-05
0.000434977
-9.92501e-05
-4.71338e-05
0.000464646
-2.57381e-05
-2.56938e-05
0.000979752
0.000257463
0.000139303
-0.00509058
0.00024431
1.1117e-05
-0.00335866
0.000113109
7.14379e-05
-0.00312552
-0.000264107
-0.000111865
0.000268757
-8.33485e-05
-8.97211e-05
0.000282298
3.53876e-06
-0.00014174
-0.000711446
-0.000127959
-5.08351e-05
3.28142e-06
-0.000153748
-4.48073e-05
0.000586399
-0.000105679
-4.71553e-05
0.000591786
-2.84349e-05
-2.70089e-05
0.0010352
-4.47765e-05
0.000180115
-0.00577815
0.000154918
0.000440947
-0.0068224
0.000467366
0.000308384
-0.00575322
-6.6128e-05
-8.71821e-05
-0.00242331
8.32527e-05
-3.28714e-05
-0.00342095
0.000121634
0.000103191
-0.0033468
-0.000312581
-0.000168268
0.00015488
-0.000189053
-0.000102893
0.000317235
-0.000141851
-7.79928e-05
0.000254722
1.6285e-05
-0.000136607
-0.000619559
-0.000128814
-4.31956e-05
-0.000799813
-0.000125679
-5.01652e-05
0.000134318
-0.000152865
-4.34542e-05
0.000735562
-0.000108875
-4.75948e-05
0.000721248
-2.54167e-05
-2.76472e-05
0.00108826
-0.000292525
0.00033978
-0.00644468
-4.76399e-07
0.000299922
-0.00650747
-5.78865e-06
0.000192992
-0.00549799
0.000129154
0.000505482
-0.00681923
1.73306e-06
0.000586156
-0.00701865
0.00048789
0.000474131
-0.00659361
-0.000134786
9.82163e-05
-0.00166853
0.000123953
-0.0001083
-0.00266089
-2.25235e-05
7.60453e-05
-0.00351314
6.07264e-06
0.000173902
-0.00351049
-0.000367737
-0.000151024
-0.000363215
-0.000308724
-0.000162137
0.000397169
-0.000143644
-9.67787e-05
0.0003268
-0.000192743
-7.43288e-05
0.000276311
1.9867e-05
-0.000128265
-0.000536577
-0.000145049
-1.10525e-05
-0.00126479
-0.000130145
-4.27667e-05
-0.000677066
-0.000121208
-4.97552e-05
0.000261828
-0.000148877
-4.30691e-05
0.000879914
-0.000108972
-4.74079e-05
0.00084998
-2.27141e-05
-2.92609e-05
0.00114023
-0.000573478
0.00027392
-0.00502519
2.40013e-05
0.000422606
-0.00623019
-0.000441485
0.00042048
-0.00642946
0.000206714
0.00033329
-0.0064056
-0.000244916
0.000323279
-0.0063911
7.89331e-06
0.000254946
-0.00527294
0.000398175
0.000669052
-0.00606037
0.000166274
0.000446088
-0.00672149
-0.000148133
0.000549051
-0.00696796
0.000211441
0.000601091
-0.00740007
-3.09304e-05
-6.67948e-06
-0.00278244
-0.000218562
0.000217515
-0.00208451
0.000122104
4.04412e-05
-0.00289103
-8.72945e-05
0.000205951
-0.00365063
2.15915e-05
0.00020458
-0.0037168
-0.000303086
-5.2118e-05
-0.00129696
-0.000374048
-0.000148454
-0.000132994
-0.000282641
-0.000154069
0.000615891
-0.000119442
-9.5607e-05
0.000318643
-0.000223589
-7.31639e-05
0.000335827
8.76738e-05
-0.000120652
-0.000526312
-8.07334e-05
1.21674e-05
-0.00120256
-0.000154011
-9.97581e-06
-0.00114357
-0.000132528
-4.17391e-05
-0.000552554
-0.000116726
-4.93058e-05
0.00038479
-0.000147688
-4.23694e-05
0.00102256
-0.000104079
-5.022e-05
0.000975018
-1.88132e-05
-2.75624e-05
0.00118661
-0.000911653
0.000290514
-0.00415852
-0.000192374
0.000418996
-0.00536853
-0.000660993
0.000219732
-0.00502542
0.000267008
0.000533286
-0.00650608
-0.000274507
0.000432327
-0.00621244
-0.000642985
0.000424396
-0.00620298
0.000391009
0.000427223
-0.00592634
8.45482e-05
0.000308678
-0.00630927
-0.000327373
0.000428611
-0.00638553
-2.67323e-05
0.000303788
-0.00533855
0.000641104
0.000464613
-0.00454398
0.000192546
0.000452883
-0.00647827
8.11197e-05
0.000570739
-0.00670219
-0.000175344
0.000547921
-0.00682674
0.000177696
0.000447943
-0.00800411
-0.000264957
-0.000224654
-0.00165004
-8.59011e-05
1.49642e-05
-0.00286804
-0.00018468
0.000346957
-0.00248898
0.000107432
0.000226599
-0.00313856
-0.000179095
0.000374144
-0.00386469
0.000236769
0.000329088
-0.00419498
-0.000166852
1.10286e-05
-0.00227269
-0.000324004
-4.24457e-05
-0.00123298
-0.000360942
-0.000144745
8.60958e-05
-0.000207439
-0.000144439
0.000755436
-0.000138592
-9.58336e-05
0.000332218
-0.000223129
-7.18737e-05
0.000406098
0.000119321
-0.000114035
-0.000550412
-6.80374e-05
9.14204e-06
-0.00147929
-8.59016e-05
1.2864e-05
-0.00113949
-0.00016234
-9.40192e-06
-0.00101356
-0.000134509
-3.85838e-05
-0.000428767
-0.000113001
-4.96523e-05
0.000505074
-0.000140431
-4.42262e-05
0.001157
-0.000101615
-4.89684e-05
0.00109804
-1.17988e-05
-2.60918e-05
0.0012245
-0.00125307
0.000445815
-0.00357947
-0.000298162
0.000373421
-0.00520638
-0.000915201
0.00019164
-0.00409595
7.9789e-05
0.000718515
-0.00555069
-0.000209672
0.000437345
-0.00565098
-0.000783109
0.000181363
-0.00506666
0.000305572
0.000583725
-0.00577111
0.000108977
0.000503667
-0.00660185
-0.000249804
0.0003752
-0.00624082
-0.000692307
0.000397586
-0.00593499
0.000680446
0.000683938
-0.00533757
0.000331617
0.000385405
-0.00614214
9.46399e-05
0.000337903
-0.00623208
-0.000435144
0.000460735
-0.00628267
-0.000129832
0.000319108
-0.00535013
0.000195481
4.70894e-05
-0.00239026
0.000580877
0.00048732
-0.0052452
8.20998e-05
0.000531529
-0.00670584
-4.08544e-05
0.000600499
-0.00660648
-0.000260388
0.00053478
-0.00683229
0.000324959
0.000216348
-0.00830865
-8.34539e-05
-0.000254925
-0.00207821
-0.000175378
-0.0001899
-0.0015938
-0.000156069
4.72073e-05
-0.00277316
-0.000101274
0.000467914
-0.00283646
4.50857e-05
0.00043963
-0.00338772
-0.000181776
0.000449397
-0.00402635
0.000166983
0.000362543
-0.00460518
-8.37114e-05
-3.96013e-05
-0.00219948
-0.00019471
1.39847e-05
-0.00222031
-0.000364072
-3.61673e-05
-0.00113982
-0.000329332
-0.000135674
0.000272154
-0.00012661
-0.000132321
0.000805532
-0.000185087
-9.523e-05
0.00040023
-0.000205099
-7.11278e-05
0.000466675
0.000179068
-0.000102908
-0.000638371
-3.91885e-05
-7.66821e-06
-0.00178496
-7.77213e-05
8.94313e-06
-0.00139765
-9.19898e-05
1.37494e-05
-0.00107066
-0.000170764
-6.20304e-06
-0.000875181
-0.000135483
-3.75726e-05
-0.000305364
-0.000108411
-5.0659e-05
0.000619918
-0.000130247
-4.54178e-05
0.0012837
-9.79374e-05
-4.87838e-05
0.00121867
-1.31031e-05
-2.50513e-05
0.00126266
-0.00134446
0.000117517
-0.00362553
-0.000225257
0.000393825
-0.00476643
-0.00128506
0.000405697
-0.00361531
-0.000109743
0.000584303
-0.00557508
-0.000315105
0.000307366
-0.00521668
-0.000881167
0.000149204
-0.0041471
0.000109258
0.000849291
-0.00570949
1.71656e-05
0.000508623
-0.00553016
-0.000171646
0.000440452
-0.00598823
-0.000861648
0.000152161
-0.00504948
0.000706046
0.000757463
-0.00547486
0.000342307
0.000575097
-0.00585323
-2.07149e-05
0.000437477
-0.00654877
-0.000341556
0.00039181
-0.00632863
-0.000788821
0.000417042
-0.00569304
0.000828891
0.000705947
-0.00423706
0.000567386
0.000593307
-0.00553198
0.00022445
0.000327153
-0.00627374
-4.77157e-06
0.000354776
-0.00616221
-0.000432673
0.000462581
-0.00625386
-0.000259587
0.00034755
-0.00511313
-0.000113675
-0.000127084
-0.00138894
0.000338323
0.00016678
-0.00258342
0.000359163
0.000569486
-0.00579839
2.31954e-06
0.00047843
-0.00668736
-0.000100952
0.000572057
-0.00649772
-0.00025179
0.000492817
-0.00703874
7.29492e-05
0.00049763
-0.00871225
-4.92548e-05
-0.000253887
-0.00177126
-0.000135039
-0.000208181
-0.0021196
-5.67602e-05
-0.000171472
-0.00168243
-0.000192467
0.000139267
-0.00258138
-1.6192e-05
0.000525878
-0.00303313
-8.91076e-05
0.000511199
-0.0035455
-0.000171826
0.000494836
-0.00419192
0.000109039
0.000365323
-0.00490048
-2.15663e-05
-0.000119176
-0.00159932
-0.000104089
-4.60887e-05
-0.00211304
-0.000218992
2.27934e-05
-0.00215227
-0.000403543
-2.45612e-05
-0.00101816
-0.000312115
-0.000113533
0.000429997
-9.84185e-05
-0.000115539
0.000815848
-0.000214604
-9.18623e-05
0.000505321
-0.000192081
-6.34622e-05
0.000521372
0.000200347
-8.55722e-05
-0.000766248
3.38791e-05
-3.23984e-05
-0.00141673
-4.82261e-05
-7.95919e-06
-0.00171984
-8.56243e-05
9.65579e-06
-0.00130793
-9.53095e-05
1.52644e-05
-0.000996813
-0.000173892
-4.23901e-06
-0.000734623
-0.00013202
-3.81571e-05
-0.000185845
-0.00010469
-5.22049e-05
0.000731395
-0.000120545
-4.56282e-05
0.00140109
-9.25328e-05
-4.79477e-05
0.0013341
-1.21258e-05
-2.41535e-05
0.00129893
-0.00144128
8.78292e-05
-0.00355534
-0.000507821
0.000316139
-0.00472517
-0.0014305
0.000112238
-0.00359232
-0.000135473
0.000492971
-0.00500986
-0.000342216
0.00037618
-0.00470981
-0.00104595
0.000319184
-0.00376971
-0.000120822
0.000841041
-0.00593479
-0.000210009
0.000516987
-0.00555752
-0.000309985
0.000257761
-0.0051869
-0.000867084
0.000106971
-0.00424863
0.000541596
0.00090538
-0.00578018
0.000265698
0.000629678
-0.00575393
6.82394e-05
0.000467483
-0.00564614
-0.00033145
0.000404049
-0.00625022
-0.00088533
0.000101094
-0.00505406
0.000937008
0.000748188
-0.0049974
0.000533121
0.000676198
-0.0055417
0.000279197
0.00061567
-0.00608617
-7.96663e-05
0.000396045
-0.00647811
-0.000290925
0.0004231
-0.00647643
-0.000878827
0.000404597
-0.0054784
0.000334137
0.000583172
-0.00305309
0.000782185
0.000827782
-0.00491539
0.000393748
0.000535783
-0.0057752
0.000139975
0.000290966
-0.00634758
0.000183966
0.000372664
-0.00635721
-0.000443782
0.000533145
-0.00624747
-0.000407753
0.000337746
-0.00497018
-0.00016637
-0.000198648
-0.00132749
7.17441e-05
-7.06903e-05
-0.00135825
0.000548096
0.000352848
-0.00297164
0.000116354
0.000483119
-0.0061119
-7.1801e-05
0.000390233
-0.00644993
-0.000134779
0.000519598
-0.00647883
-0.00025238
0.000522064
-0.00698262
-0.000256935
0.000618625
-0.0089649
-7.88096e-05
-0.000284078
-0.00100444
-6.15546e-05
-0.000250533
-0.00177144
-0.000154693
-0.000159091
-0.00219628
-1.70855e-05
-5.56629e-05
-0.00187396
-7.1707e-05
0.000255858
-0.00255177
8.9064e-07
0.00061178
-0.00323302
-0.000218251
0.000522631
-0.00356965
-0.000200437
0.000534519
-0.00435276
0.00011782
0.000384771
-0.00520272
4.83503e-05
-0.000143619
-0.00114436
-3.48662e-05
-0.000110951
-0.00154782
-0.000136488
-3.74696e-05
-0.00200192
-0.000252949
3.3238e-05
-0.00205243
-0.000417585
-3.07599e-06
-0.00088492
-0.000239232
-9.17278e-05
0.000513397
-0.00011757
-0.00010312
0.000839986
-0.000227418
-8.82157e-05
0.000636948
-0.000161489
-5.3995e-05
0.000558751
0.000185324
-6.89406e-05
-0.000894758
0.000125033
-5.93297e-05
-0.00107291
2.65207e-05
-3.03389e-05
-0.00142087
-5.40238e-05
-9.93561e-06
-0.00164622
-9.31388e-05
1.04213e-05
-0.00120995
-9.21062e-05
1.71599e-05
-0.000926106
-0.000172053
-4.06606e-06
-0.000596661
-0.000127666
-3.8246e-05
-7.21385e-05
-0.000104097
-5.29334e-05
0.000842797
-0.000112654
-4.69676e-05
0.00151276
-8.61664e-05
-4.6769e-05
0.00144288
-8.04681e-06
-2.32964e-05
0.00133028
-0.0012375
-8.54493e-05
-0.00334803
-0.000799941
0.000274241
-0.00440286
-0.0015153
9.82031e-05
-0.00356875
-0.000312876
0.000514308
-0.00461786
-0.000583683
0.000310666
-0.00468213
-0.00109769
0.000114923
-0.0036555
-0.000243814
0.000709731
-0.00532851
-0.000240805
0.00044127
-0.00504416
-0.000491717
0.000357342
-0.00456623
-0.00111455
0.000290868
-0.00381311
0.000168446
0.00104259
-0.00583949
-7.21532e-06
0.000676469
-0.00582136
0.000132022
0.000437959
-0.0058015
-0.000419513
0.000216822
-0.00520869
-0.000909462
7.64188e-05
-0.00430092
0.00081604
0.00116044
-0.00562755
0.000504031
0.000940924
-0.00606234
0.000276869
0.000579131
-0.00586325
-1.79851e-05
0.00039604
-0.00569982
-0.000347889
0.000235815
-0.00632798
-0.000944765
-2.43857e-05
-0.00496374
0.00104434
0.000821926
-0.00494113
0.000786954
0.000929171
-0.00525514
0.000452819
0.00068954
-0.00567464
0.000204241
0.000510812
-0.0062652
0.000231187
0.000308584
-0.00641082
-0.000165413
0.0004602
-0.00681041
-0.000921063
0.000319574
-0.00528466
0.00015435
0.000596556
-0.00335908
0.000444929
0.000935214
-0.00353371
0.000606758
0.000837867
-0.00527614
0.000274438
0.000471812
-0.00611413
0.000124513
0.000178542
-0.00634978
1.15615e-05
0.000427713
-0.00639812
-0.000457485
0.000577643
-0.00628226
-0.000584443
0.000349822
-0.00499249
-0.000224681
-0.000205931
-0.00184265
-2.15188e-05
-0.000122433
-0.00131578
0.000179284
-1.88173e-05
-0.00132056
0.000571977
0.000370014
-0.00344759
0.000209479
0.000305631
-0.00630848
-7.81005e-05
0.000401404
-0.00625275
-0.000273798
0.000478125
-0.00637934
-0.000316604
0.000599181
-0.00684701
-0.000545417
0.000451339
-0.008753
-2.83421e-05
-0.000269986
-0.000921282
-8.86695e-05
-0.000291192
-0.000909973
-0.000104449
-0.000227057
-0.00173551
-0.000175964
-4.20418e-05
-0.00228689
-3.18692e-05
0.000107076
-0.0021109
-3.8957e-05
0.000538421
-0.00267868
-9.06053e-05
0.000611715
-0.00334907
-0.000285789
0.000513137
-0.0034899
-0.000247833
0.000537148
-0.00441879
5.30645e-05
0.000491026
-0.00556149
0.000159372
-0.000130088
-0.00134668
4.59375e-05
-0.00013156
-0.00114316
-2.91319e-05
-0.000102502
-0.00150768
-0.000176717
-3.11279e-05
-0.00185397
-0.000257911
4.90168e-05
-0.00193872
-0.000375452
2.17518e-05
-0.000795
-0.000214056
-5.82683e-05
0.000554936
-0.000140745
-8.76416e-05
0.00087606
-0.00021628
-8.40498e-05
0.000770628
-0.000100141
-4.56466e-05
0.000549432
0.000146209
-5.19591e-05
-0.000997054
0.000116048
-6.47761e-05
-0.000952535
0.000117941
-5.43075e-05
-0.00116689
1.75295e-05
-3.07271e-05
-0.00141761
-6.35099e-05
-7.99551e-06
-0.00156429
-9.9797e-05
1.21112e-05
-0.0011051
-8.29756e-05
1.58986e-05
-0.000863095
-0.000163806
-3.56091e-06
-0.00046754
-0.000121027
-3.82575e-05
3.42122e-05
-9.64647e-05
-5.47756e-05
0.00094707
-0.000103857
-4.52353e-05
0.00161508
-7.93029e-05
-4.62572e-05
0.00154514
-9.76798e-06
-2.13838e-05
0.00136143
-0.00110965
-0.000119042
-0.0030524
-0.000837738
-0.000103384
-0.00393099
-0.00151746
-5.43515e-05
-0.00329152
-0.000444789
0.000403072
-0.00462513
-0.000852221
0.000261071
-0.00429719
-0.00120844
3.99064e-05
-0.00349791
-0.000305004
0.000582394
-0.00474595
-0.000385367
0.00049422
-0.00465685
-0.000698361
0.00028373
-0.0046443
-0.00132101
8.91063e-05
-0.00353815
-0.000134888
0.000872574
-0.00574943
-0.000321059
0.000718382
-0.00529178
-4.14376e-05
0.000415451
-0.00492881
-0.000519094
0.00030417
-0.00447995
-0.00119568
0.000264098
-0.00379099
0.000602906
0.00126314
-0.00567219
0.00026606
0.000957638
-0.00588269
0.000110499
0.000582872
-0.0057999
3.16991e-05
0.000323814
-0.00595818
-0.000390462
0.000199098
-0.00528879
-0.00100994
8.34395e-05
-0.00431919
0.000915875
0.00153502
-0.00518731
0.000632968
0.00127157
-0.00580421
0.0004195
0.000758757
-0.00620865
0.0002934
0.000452738
-0.00600911
-1.00126e-05
0.000291059
-0.00551386
-0.000189207
9.14335e-05
-0.00642
-0.000972885
3.54996e-05
-0.00494741
0.000756826
0.00112902
-0.00489563
0.000640477
0.00107231
-0.00527982
0.000673165
0.000955872
-0.00558788
0.000465471
0.000605412
-0.00596027
0.000186581
0.000358921
-0.0063776
2.64185e-05
0.000214365
-0.00617984
-0.000287163
0.000423769
-0.00708492
-0.000998684
0.00024309
-0.00511351
2.67532e-05
0.000578195
-0.0031982
0.000382119
0.000910566
-0.00373807
0.000524488
0.00103153
-0.00407258
0.000410579
0.000747678
-0.00539061
0.000229993
0.000227484
-0.00618359
0.000207876
0.000298294
-0.00650633
-0.000191502
0.000499776
-0.00640255
-0.000454751
0.000630156
-0.00642444
-0.000926509
0.000245859
-0.00485726
-0.000179872
-0.000253512
-0.00195316
-0.000173253
-0.000141471
-0.00173902
7.13413e-05
-0.000124435
-0.00138595
0.00021279
2.61711e-05
-0.00136548
0.000486335
0.000386397
-0.00404656
0.000235663
0.000254319
-0.00643602
-0.00012674
0.000402284
-0.00614077
-0.000413605
0.00049577
-0.00614812
-0.00034692
0.000595611
-0.0068922
-0.000813826
0.000531616
-0.00841773
0.000126811
-0.000193851
-0.00158281
-5.25267e-05
-0.000269179
-0.00084483
-8.42292e-05
-0.000290052
-0.000791881
-0.000163663
-0.000195378
-0.00159523
-9.06783e-05
6.40286e-05
-0.00241107
-4.29255e-05
0.000365867
-0.00227087
-4.72596e-05
0.000621991
-0.00285576
-0.000181349
0.000583325
-0.00337865
-0.00031124
0.000499483
-0.00335727
-0.000133545
0.000524561
-0.00441892
-9.8897e-05
0.000541092
-0.00585747
0.000181375
-0.000136053
-0.00170937
0.000129431
-0.00012279
-0.00136694
3.0388e-05
-0.000130119
-0.00112841
-4.17301e-05
-0.000101662
-0.00145892
-0.000201832
-1.31917e-05
-0.00168973
-0.000245804
7.86075e-05
-0.00183275
-0.000324456
5.22853e-05
-0.000744904
-0.000221785
-1.88831e-05
0.000586935
-0.000146009
-7.18889e-05
0.000913443
-0.000192619
-7.98402e-05
0.000893584
-5.62696e-05
-3.86652e-05
0.000513104
0.000161041
-3.88893e-05
-0.00112897
0.000113955
-1.2347e-05
-0.000594116
0.000111874
-6.61481e-05
-0.00105257
0.000111475
-5.0156e-05
-0.00125893
1.58053e-05
-2.75991e-05
-0.00141381
-6.75922e-05
-8.09615e-06
-0.00147649
-0.000106125
1.10629e-05
-0.000994139
-7.59553e-05
1.57038e-05
-0.000806404
-0.000154594
-2.49785e-06
-0.000348705
-0.000114878
-3.84663e-05
0.000132781
-9.54202e-05
-5.38012e-05
0.00105106
-9.41921e-05
-4.45529e-05
0.00170757
-7.42779e-05
-4.46921e-05
0.00164273
-7.6947e-06
-2.09246e-05
0.00139005
-0.00126644
-0.000127949
-0.00264715
-0.000982271
-5.46712e-05
-0.00353055
-0.00147019
-0.000139503
-0.00296016
-0.00060949
3.16362e-05
-0.00427296
-0.000831777
-0.000124402
-0.00388139
-0.00124474
-4.78039e-05
-0.00320741
-0.000364112
0.000448476
-0.00453606
-0.000546835
0.000357384
-0.00455997
-0.000921873
0.000185568
-0.00421934
-0.00136135
-5.11529e-05
-0.00340641
-0.0001675
0.000693478
-0.00516629
-0.000333079
0.000533526
-0.00477324
-0.00030991
0.000472601
-0.00457725
-0.000747202
0.000249974
-0.00457705
-0.00126683
3.98885e-05
-0.00350689
0.000324717
0.0011492
-0.00569927
-9.767e-05
0.000935568
-0.00560289
-0.000323118
0.000661256
-0.00510396
-4.49483e-05
0.000361243
-0.00490923
-0.000435042
0.000249455
-0.00442073
-0.00128745
0.000239
-0.00375248
0.00071576
0.00148288
-0.00515171
0.000423153
0.00123468
-0.00573942
0.000220233
0.000770186
-0.00587073
0.000183544
0.000474757
-0.00584099
-0.000101302
0.000297138
-0.00596493
-0.000419991
0.000182146
-0.00515671
-0.00112367
0.000117552
-0.00428595
0.000726422
0.0016375
-0.00529115
0.000646369
0.0013504
-0.00527204
0.000794135
0.00109466
-0.00626107
0.000420602
0.000549946
-0.00626098
3.311e-05
0.000389789
-0.00595437
-1.05875e-06
0.000144046
-0.005539
-0.000382461
0.000205958
-0.00649516
-0.00096214
-4.10871e-05
-0.00494287
0.00052994
0.00130331
-0.00426472
0.000880053
0.00104583
-0.00536709
0.000605165
0.00113546
-0.00554008
0.000370196
0.000781407
-0.0057235
0.000423035
0.000477003
-0.0062714
0.00039466
0.000209662
-0.00655968
-7.04416e-05
0.000275206
-0.00615234
-0.000305122
0.000360282
-0.00735175
-0.00104261
0.000147489
-0.0051449
-0.000138432
0.000437683
-0.00309014
0.000343745
0.000840054
-0.00364469
0.000445684
0.00101823
-0.00409911
0.000510207
0.000898675
-0.00452099
0.000349819
0.000619061
-0.00564567
0.000474952
0.00025299
-0.00637757
0.000142618
0.000406664
-0.00668258
-0.000384656
0.00057699
-0.00637833
-0.000296884
0.000496431
-0.00672505
-0.00123373
8.74764e-05
-0.00452483
-4.18329e-06
-0.000253383
-0.00187251
-0.000241731
-0.000197231
-0.00170819
2.49868e-05
-0.000128933
-0.00184374
4.85858e-05
-6.29414e-05
-0.00150909
0.000304189
0.000373683
-0.00174763
0.000338232
0.00030382
-0.00447722
2.56419e-05
0.000251862
-0.0063585
-0.000225773
0.000376635
-0.00597721
-0.000472808
0.000531817
-0.00592275
-0.000537254
0.000638995
-0.00659587
-0.00102353
0.000610148
-0.00810325
0.000187838
-0.000139705
-0.0023517
6.48281e-05
-0.00018985
-0.00159754
-9.26699e-05
-0.000261454
-0.00075037
-0.000106686
-0.000289648
-0.000632655
-0.000126347
-0.000152791
-0.0014539
1.75988e-05
0.000139375
-0.00244798
-4.71713e-05
0.000503548
-0.00242971
-0.00011504
0.00062776
-0.00300694
-0.000208203
0.000551155
-0.00336813
-0.000287659
0.000486644
-0.00322432
-1.29862e-05
0.000526846
-0.00444796
-0.000162371
0.000512568
-0.00604663
0.000180493
-8.18297e-05
-0.00209018
0.000156605
-0.000137919
-0.00173897
0.000102718
-0.000121891
-0.00136641
1.02425e-05
-0.00013123
-0.00109328
-4.48306e-05
-9.65601e-05
-0.00139832
-0.000218906
2.44908e-07
-0.00149859
-0.000198461
9.49598e-05
-0.00175292
-0.000294359
8.17912e-05
-0.000705813
-0.000219438
1.70037e-05
0.000602603
-0.000145392
-5.70748e-05
0.000940649
-0.000136174
-7.52377e-05
0.000972138
2.47698e-05
-3.44497e-05
0.000409617
0.000163024
-3.05348e-05
-0.00126916
0.000150035
2.58495e-05
0.000871631
0.000110895
-1.58018e-05
-0.000755358
0.000107928
-6.54383e-05
-0.00114521
0.000106741
-4.7244e-05
-0.00134603
6.15541e-06
-2.77109e-05
-0.00140035
-7.1899e-05
-7.39532e-06
-0.00138614
-0.000113236
1.16153e-05
-0.000876815
-7.30303e-05
1.3414e-05
-0.000749286
-0.000145672
-1.88038e-06
-0.00023962
-0.000108855
-3.83494e-05
0.000226185
-9.28322e-05
-5.33504e-05
0.00115269
-8.47064e-05
-4.41311e-05
0.00179172
-6.79732e-05
-4.3985e-05
0.00173376
3.35486e-06
-1.90399e-05
0.00140573
-0.00155969
0.00012259
-0.0020202
-0.00114866
-0.0001398
-0.00314892
-0.00144724
-7.33402e-05
-0.00259676
-0.000884805
3.90452e-05
-0.00371133
-0.000964325
-6.54595e-05
-0.00347204
-0.00127963
-9.54612e-05
-0.00282982
-0.0005663
0.000187864
-0.00431438
-0.000667775
-1.46329e-05
-0.00426178
-0.000964279
-0.000104202
-0.00378258
-0.00141172
-6.61052e-06
-0.00315043
-0.000178654
0.000478983
-0.00458263
-0.000407793
0.000399651
-0.00450362
-0.000511157
0.00035405
-0.00452721
-0.000996826
0.000125049
-0.00414592
-0.00115181
-7.79649e-05
-0.00344347
0.000105936
0.000901784
-0.00528926
-0.000241174
0.000639364
-0.00512863
-0.000367702
0.000516271
-0.00477232
-0.000305424
0.000433872
-0.00450068
-0.00075909
0.000289728
-0.00450285
-0.00133269
2.3368e-05
-0.00348501
0.000532852
0.00129347
-0.00549059
0.000268804
0.000980995
-0.00559035
-2.96281e-05
0.000820581
-0.00551235
1.84871e-05
0.000577436
-0.0051551
-0.000151215
0.000281068
-0.00489093
-0.000414427
0.000224365
-0.00441166
-0.00141096
0.000216326
-0.00368152
0.000577557
0.00162721
-0.00514246
0.000956999
0.00131818
-0.00554583
0.000680991
0.0010082
-0.00586429
0.000285625
0.000693241
-0.00595424
-0.000105055
0.000442305
-0.00584799
-0.000221463
0.0003224
-0.00588478
-0.000490287
0.000192186
-0.00512352
-0.00113758
0.000156686
-0.00426719
0.000598187
0.00167855
-0.00542836
0.000908051
0.00139812
-0.00536686
0.000701139
0.0013354
-0.00560875
0.000419295
0.00081128
-0.00657151
0.000394196
0.000398895
-0.00624125
0.000174756
0.000248017
-0.00583844
4.16421e-05
0.000205065
-0.00565019
-0.000497421
3.91808e-05
-0.00638313
-0.000954789
-6.99358e-05
-0.00496075
0.000176873
0.00136832
-0.0037891
0.00089721
0.00125532
-0.00502767
0.000785188
0.0010585
-0.00562965
0.000571078
0.000951381
-0.00577092
0.000449887
0.000662432
-0.00600899
0.000478705
0.000308169
-0.00637366
0.000314514
0.000279694
-0.00673607
-0.000128315
0.000440481
-0.00648888
-0.000265292
0.000286164
-0.00752201
-0.00105739
-0.000200534
-0.00512071
-5.57497e-07
0.000316802
-0.00257093
0.00019845
0.000589607
-0.00327987
0.000496033
0.000889872
-0.00398738
0.00042837
0.000971445
-0.00455166
0.000407629
0.000818412
-0.00482378
0.000341075
0.000444926
-0.00584045
0.000320957
0.000339072
-0.00660529
-9.39877e-05
0.000428078
-0.00666545
-0.000356436
0.000699663
-0.00669793
-0.000595755
0.000376326
-0.0069554
-0.00133414
0.000142578
-0.00435679
4.00452e-05
-0.000151632
-0.00248748
-5.83744e-05
-0.000204596
-0.00174194
-0.00013341
-0.00015239
-0.001644
4.99276e-05
-4.99956e-05
-0.0020133
6.53403e-05
0.000356298
-0.00168339
0.00047632
0.000494856
-0.00239739
0.000198928
0.000232191
-0.00470365
-4.84394e-05
0.000200649
-0.00624911
-0.000106485
0.000407664
-0.00595477
-0.000355702
0.000590283
-0.005806
-0.000450992
0.00073241
-0.00628012
-0.00113776
0.000615081
-0.00774294
0.000127187
-3.91462e-05
-0.00275728
0.000145379
-0.000130705
-0.00239962
-2.08586e-05
-0.000185974
-0.00154944
-0.000146933
-0.000255688
-0.000627155
-0.000110281
-0.000275456
-0.00044454
-2.30784e-05
-0.000100376
-0.00140997
0.000116557
0.000271653
-0.0025311
-5.38906e-05
0.000563927
-0.00260634
-0.00015359
0.000598858
-0.00312049
-0.000189696
0.000528687
-0.00336587
-0.000150983
0.000483786
-0.00316645
0.00012247
0.00050412
-0.00453721
-0.000187566
0.000489893
-0.00618593
0.000316005
2.084e-06
-0.00148262
0.000159034
-8.89592e-05
-0.00218727
0.000130638
-0.000135751
-0.00174782
8.57493e-05
-0.000121058
-0.00135559
-9.03738e-06
-0.000133103
-0.00104154
-5.93282e-05
-9.88504e-05
-0.00131179
-0.000246446
2.6669e-05
-0.00129708
-0.000156787
9.89075e-05
-0.00168628
-0.000283114
0.000103544
-0.000654911
-0.000225545
4.64221e-05
0.000615795
-0.000131088
-4.50027e-05
0.00094867
-8.8045e-05
-7.26348e-05
0.00101366
8.80058e-05
-3.43591e-05
0.000257462
0.000143406
-1.73818e-05
-0.00139183
0.000132917
8.51558e-06
0.00115363
0.000145346
2.44501e-05
0.000686033
0.000107993
-1.65546e-05
-0.000912235
0.000104269
-6.29464e-05
-0.00123378
9.91214e-05
-4.54118e-05
-0.00142745
2.04079e-07
-2.72455e-05
-0.00138071
-8.08648e-05
-7.30848e-06
-0.00128635
-0.000119118
1.08036e-05
-0.000755087
-7.49785e-05
1.41712e-05
-0.000690359
-0.000137831
-9.33895e-07
-0.000139204
-0.000103164
-3.78431e-05
0.000313842
-8.64216e-05
-5.33766e-05
0.00124835
-8.02276e-05
-4.40039e-05
0.00187196
-6.53213e-05
-4.27436e-05
0.00182279
5.10821e-06
-1.76873e-05
0.00141831
-0.00167018
0.000162569
-0.0017455
-0.00126855
0.000160905
-0.00257003
-0.00158197
0.000105284
-0.00199076
-0.000988271
-0.000112009
-0.00335604
-0.00123792
-3.9187e-05
-0.00290947
-0.00140281
-4.47529e-05
-0.00242883
-0.000776884
0.000174109
-0.00391644
-0.000913624
8.66702e-05
-0.00361761
-0.00119922
-3.76835e-05
-0.00329488
-0.00150481
3.95802e-05
-0.00277631
-6.66615e-05
0.00024154
-0.00431367
-0.0006338
0.000197501
-0.0043005
-0.000761195
-9.49223e-06
-0.00410646
-0.001242
-2.65566e-06
-0.00354136
-0.00129626
-8.63577e-06
-0.00299734
-3.35022e-05
0.0006178
-0.00475354
-0.000280206
0.000461495
-0.00460544
-0.000318329
0.000370003
-0.00456894
-0.000607763
0.000357391
-0.00445721
-0.00103076
9.11377e-05
-0.00404335
-0.0012408
-0.000137448
-0.00339792
0.000451963
0.00105404
-0.005305
0.000116458
0.00078246
-0.00528001
-0.000121659
0.000568826
-0.00508915
-0.000116119
0.000499544
-0.00470339
-0.000314587
0.000402001
-0.00444958
-0.000790803
0.00031153
-0.00441463
-0.00139129
1.51591e-05
-0.00351983
0.00040545
0.00137671
-0.00554188
0.000854246
0.00107301
-0.00547985
0.000555204
0.000987228
-0.00563121
0.000115279
0.000717156
-0.00548173
-0.000259782
0.000463015
-0.00518232
-0.000262687
0.000257283
-0.00488263
-0.000456523
0.000202439
-0.00443154
-0.00139798
0.000173417
-0.00359454
0.000473323
0.00177349
-0.00536303
0.000785448
0.00156211
-0.00526379
0.000471314
0.00128176
-0.00558957
0.000410284
0.000939409
-0.00610144
0.00035206
0.000636425
-0.00610622
-0.000109019
0.000466438
-0.00570825
-0.00022308
0.000307971
-0.00573584
-0.000660824
0.000196343
-0.00499977
-0.00113718
0.000140959
-0.00422577
0.000343571
0.00179273
-0.00568869
0.000742032
0.00163013
-0.0055052
0.00101923
0.0013903
-0.00565581
0.000607428
0.00120347
-0.00603729
0.000300232
0.00061012
-0.00663308
0.000380057
0.000374418
-0.00626901
0.000277125
0.00020714
-0.00580312
-0.00010246
0.000116108
-0.00575297
-0.00062523
9.12241e-05
-0.00618435
-0.0010128
-1.2565e-05
-0.00499278
0.000299656
0.00136875
-0.00378259
0.000657533
0.00145496
-0.00444783
0.000703932
0.00118649
-0.00536356
0.000425364
0.0010109
-0.00568616
0.00044403
0.000799975
-0.00594487
0.000430741
0.00053966
-0.00633015
0.00055225
0.00030501
-0.00663027
6.40583e-05
0.000590507
-0.00704414
4.15191e-05
0.000348114
-0.00694878
-0.000255616
-1.98558e-05
-0.00804283
-0.00100679
-0.000295756
-0.00515231
-0.000119872
0.000396973
-0.00259525
0.000111651
0.000389367
-0.00254071
0.000360956
0.000825813
-0.00371018
0.000470034
0.000940803
-0.00437685
0.000263102
0.000943841
-0.00487485
0.000443101
0.000629267
-0.0049749
0.000403915
0.000421903
-0.00612826
0.000188301
0.000292269
-0.00670622
3.81181e-05
0.000634746
-0.00674514
-0.000267688
0.000663005
-0.00707263
-0.000520012
0.000709594
-0.0074534
-0.00137888
0.00019912
-0.0043148
1.27466e-05
-9.21381e-05
-0.00361523
2.85101e-05
-0.000117633
-0.00245758
-0.00016287
-0.000150235
-0.00160209
-4.07949e-05
-6.21647e-05
-0.00173797
-6.46085e-05
0.000222073
-0.00192475
0.000317368
0.000630706
-0.00215969
0.000493479
0.000409605
-0.00295172
0.000156824
9.62295e-05
-0.00480995
-9.19508e-05
0.000222604
-0.00612569
-0.000189892
0.00054158
-0.00590588
-5.11555e-05
0.000634847
-0.00580826
-0.000146813
0.000743539
-0.0061393
-0.00118802
0.00060955
-0.00735203
0.000399132
5.24495e-05
-0.00243047
8.39804e-05
-5.81214e-05
-0.00275481
7.24169e-05
-0.000134957
-0.00239241
-0.000106162
-0.000189673
-0.00142354
-0.000181664
-0.000253772
-0.000476212
-6.9117e-05
-0.000245274
-0.000289852
2.61957e-05
-3.08323e-06
-0.00140788
0.000100169
0.000359727
-0.00258386
-6.89465e-05
0.000562734
-0.00278439
-0.000201731
0.000560895
-0.00317651
-0.000153302
0.000506615
-0.00336648
2.97488e-05
0.000452323
-0.00323244
0.00028876
0.000454209
-0.00470228
-0.00028935
0.000454273
-0.00620745
0.000270651
1.54601e-05
-0.000589855
0.000298619
-1.16178e-05
-0.00171323
0.000135004
-0.000100718
-0.00224932
0.000100822
-0.000133366
-0.00173206
6.07211e-05
-0.000120712
-0.00132958
-7.37096e-06
-0.000138341
-0.000994475
-8.9815e-05
-8.7189e-05
-0.00118898
-0.000260289
5.15492e-05
-0.00110855
-0.000148781
9.66121e-05
-0.00160554
-0.00027414
0.000122285
-0.000594465
-0.000221307
6.76783e-05
0.000621256
-0.000110927
-3.52961e-05
0.000935837
-1.43544e-06
-7.3014e-05
0.000973525
0.000107193
-3.38781e-05
0.000101444
0.000121572
-8.062e-06
-0.00150023
0.000103122
-2.21623e-05
0.00123672
0.000134359
6.1701e-06