/*--------------------------------*- C++ -*----------------------------------*\
  =========                 |
  \\      /  F ield         | OpenFOAM: The Open Source CFD Toolbox
   \\    /   O peration     | Website:  https://openfoam.org
    \\  /    A nd           | Version:  7
     \\/     M anipulation  |
\*---------------------------------------------------------------------------*/
FoamFile
{
    version     2.0;
    format      ascii;
    class       volVectorField;
    location    "9.5";
    object      U;
}
// * * * * * * * * * * * * * * * * * * * * * * * * * * * * * * * * * * * * * //

dimensions      [0 1 -1 0 0 0 0];

internalField   nonuniform List<vector> 
18750
(
(-0.545058 0.68783 0.037867)
(0.67521 -0.214452 -1.1392)
(-0.127442 0.950122 -1.05073)
(-0.537656 0.717767 0.0397291)
(1.97887 0.374779 -0.676992)
(-0.167503 1.06244 -0.789103)
(0.549163 -0.364436 -1.23133)
(-0.12065 1.49248 -0.97532)
(-0.134101 1.00757 -1.05333)
(-0.530755 0.749927 0.0329915)
(3.23561 -1.55274 -0.382427)
(2.09754 -1.17711 0.94362)
(2.15863 0.326755 -0.907191)
(0.0911652 1.81645 -0.604538)
(-0.0221094 1.27254 -0.749461)
(0.443896 -0.372577 -1.27997)
(0.156757 1.22706 -1.01692)
(-0.116535 1.50624 -0.936981)
(-0.167919 1.01488 -1.10307)
(-0.490966 0.788404 0.0165191)
(3.973 -0.536853 0.0374676)
(4.41991 -1.19417 1.35476)
(3.35486 -2.31507 0.260824)
(1.65556 0.545731 -0.821463)
(2.19147 -0.81145 1.56053)
(2.22314 -0.254734 -0.973114)
(0.117444 1.54428 -1.02186)
(0.0738564 1.99318 -0.486144)
(0.147784 1.48849 -0.661306)
(0.361649 -0.301178 -1.30319)
(0.661468 1.05645 -1.05237)
(0.147924 1.2114 -1.0079)
(-0.148598 1.52143 -0.892651)
(-0.19396 1.0231 -1.14839)
(-0.530573 0.802775 0.0283134)
(4.33942 -0.116924 0.411634)
(4.39837 -0.400953 0.758913)
(3.66513 -1.26092 0.114018)
(4.54891 -0.868616 1.41682)
(4.64551 -0.874789 1.6825)
(3.76542 -2.1722 1.3288)
(1.16181 1.66519 0.0590447)
(1.67402 -0.603388 -1.76303)
(2.25868 -0.547165 1.93302)
(2.28468 -0.607161 -0.562725)
(0.463294 1.71014 -1.26004)
(0.0531755 1.5689 -1.00929)
(0.233313 2.04655 -0.423709)
(0.290591 1.61187 -0.565708)
(0.304427 -0.307293 -1.31215)
(0.986686 1.32185 -0.762567)
(0.646737 1.03547 -1.04945)
(0.115133 1.17362 -1.01676)
(-0.156043 1.52945 -0.877529)
(-0.220293 1.03329 -1.18653)
(-0.480181 0.841982 0.0112624)
(3.43561 0.470296 0.227792)
(4.15612 -0.407035 0.807297)
(4.43477 -0.0785518 0.561997)
(4.26156 -0.755292 0.652881)
(4.30304 -0.516218 0.773075)
(3.23866 -1.86095 0.196122)
(3.66997 -1.36428 1.55286)
(4.38257 -1.29784 1.77564)
(4.70232 -0.892527 1.63446)
(4.65046 -1.5474 1.91786)
(2.03155 1.88857 0.826277)
(1.56968 1.43872 0.889421)
(1.63924 -1.31062 -1.13563)
(2.42537 -0.283631 2.06262)
(2.28028 -0.884835 -0.221064)
(1.0484 1.63676 -0.851763)
(0.443548 1.74238 -1.1901)
(-0.0111472 1.5916 -0.995727)
(0.382012 2.01088 -0.464885)
(0.39523 1.66083 -0.448336)
(0.194609 -0.386185 -1.33958)
(0.848867 0.52067 0.314103)
(1.02135 1.33874 -0.759383)
(0.640496 1.04888 -1.02562)
(0.0921792 1.13772 -1.03713)
(-0.153166 1.55335 -0.827264)
(-0.273917 1.03489 -1.24652)
(-0.425151 0.854672 0.00116455)
(2.85744 0.567662 0.362266)
(3.53843 -0.324694 0.571751)
(3.49449 0.441733 -0.000861437)
(4.26707 -0.919558 0.799085)
(4.24024 0.159936 0.957325)
(4.38264 0.115572 0.415197)
(3.82412 -1.33546 0.814477)
(4.21666 -0.989411 0.763512)
(4.34698 -0.370146 0.987792)
(3.17179 -1.89351 0.241911)
(2.66131 -2.40303 2.2455)
(4.28589 -1.03638 0.882129)
(4.44703 -0.926344 1.57688)
(4.44975 -1.2279 1.6317)
(4.85991 -2.1964 1.00002)
(1.26596 1.13112 -0.831885)
(2.26642 1.78279 1.00438)
(1.85818 0.941618 1.65022)
(1.62868 -1.60832 -0.179002)
(2.65709 -0.211003 2.02328)
(2.21369 -1.74282 0.618299)
(1.63312 1.11397 0.125438)
(1.12462 1.6904 -0.888788)
(0.428178 1.79124 -1.10621)
(-0.0263464 1.59025 -0.940265)
(0.480591 1.9367 -0.542085)
(0.454853 1.63155 -0.335198)
(0.165264 -0.505596 -1.32675)
(1.0596 0.522821 0.210841)
(0.855578 0.516923 0.350063)
(1.03124 1.34841 -0.743686)
(0.636045 1.06798 -0.999373)
(0.0880323 1.13274 -1.04888)
(-0.153196 1.5058 -0.885609)
(-0.245728 1.10738 -1.18072)
(-0.512579 0.87189 0.0152543)
(2.50968 1.35664 0.345006)
(3.49994 0.186491 0.37755)
(2.85821 0.44721 0.206101)
(3.60237 -0.725688 0.782587)
(3.60094 -0.446321 0.639928)
(3.58187 0.448818 -0.113189)
(3.81535 -0.981582 1.14305)
(4.31143 -0.771711 0.686835)
(4.24791 -0.257056 1.08942)
(4.21841 -0.146835 0.359596)
(3.41564 -1.50975 1.15908)
(3.86727 -1.26424 0.616715)
(3.94251 -1.50335 1.06321)
(4.33582 -0.401395 1.15505)
(3.16221 -1.92945 0.233069)
(1.6026 0.331332 0.545827)
(2.98702 -2.26222 1.72285)
(4.28462 -1.21678 1.84827)
(4.40327 -0.861871 1.58311)
(4.43871 -1.25973 1.50601)
(4.50889 -3.43617 -0.090878)
(1.38373 0.160047 -1.06758)
(1.27446 1.17583 -0.841692)
(2.28533 1.44188 1.35606)
(1.92018 -0.0900639 2.13253)
(1.82288 -1.44401 1.3504)
(2.76666 -0.405657 2.16611)
(2.24568 -2.29828 0.47316)
(1.55731 0.652731 0.040636)
(1.70121 1.07455 0.290428)
(1.21429 1.77061 -0.902765)
(0.409689 1.8384 -1.04318)
(0.000982978 1.55222 -0.873155)
(0.534348 1.81127 -0.60413)
(0.438947 1.50043 -0.295247)
(0.109308 -0.570451 -1.31363)
(1.26172 0.393799 0.175407)
(1.04665 0.570022 0.201952)
(0.859513 0.519143 0.358484)
(1.03046 1.35529 -0.640901)
(0.624391 1.03962 -1.02055)
(0.0473804 1.14398 -1.05457)
(-0.188365 1.49975 -0.913059)
(-0.261623 1.17461 -1.12779)
(-0.429741 0.914399 -0.00385499)
(2.56457 1.06756 0.00742837)
(3.18484 -0.0121347 0.648912)
(2.59403 1.1423 0.286115)
(3.6865 -0.223181 0.630921)
(3.50728 -0.170016 0.274317)
(2.91013 0.373703 0.138675)
(3.70935 -0.819558 1.42086)
(3.59642 -0.86488 0.773857)
(3.89743 -0.725848 0.644824)
(3.67187 0.404826 -0.200451)
(3.40155 -1.87761 1.04487)
(3.67472 -1.34183 1.14702)
(4.32789 -0.826818 0.374174)
(4.30308 -0.346641 1.04948)
(4.12912 -0.114883 0.234193)
(2.34657 -1.82915 1.95508)
(3.32075 -1.74126 1.19187)
(4.01417 -1.17414 0.464026)
(3.86386 -1.44687 1.02767)
(4.30377 -0.472697 1.21703)
(3.06041 -1.77671 0.154608)
(1.01237 0.168606 -0.241165)
(1.59256 -0.603705 1.21553)
(3.34558 -1.86668 1.40009)
(4.38628 -1.18367 1.94404)
(4.28931 -1.04407 1.62898)
(4.46884 -1.70413 1.41439)
(5.04489 -2.9317 1.46218)
(1.16087 -0.17514 -1.04472)
(1.475 0.275589 -0.771442)
(1.42064 1.38121 -0.871105)
(2.16459 0.904405 1.88929)
(1.76506 -1.01474 2.34442)
(2.14248 -0.962199 1.86474)
(2.86477 -0.67865 2.46658)
(1.96912 -3.07912 0.164334)
(1.09931 0.081698 -0.611063)
(1.56553 0.651878 -0.0776176)
(1.74366 1.07379 0.383488)
(1.32511 1.88417 -0.811223)
(0.440173 1.89955 -0.955125)
(0.0548323 1.50181 -0.806111)
(0.533972 1.66113 -0.621225)
(0.452434 1.41128 -0.183004)
(0.177951 -0.645695 -1.19395)
(0.898762 -0.426165 -0.515518)
(1.24666 0.399997 0.177064)
(1.05193 0.576157 0.23588)
(0.830045 0.474021 0.404438)
(1.03232 1.29179 -0.59407)
(0.603881 0.969174 -1.0694)
(0.0580847 1.12826 -1.08706)
(-0.210642 1.49635 -0.946522)
(-0.270864 1.2315 -1.07489)
(-0.361536 0.921665 -0.00710024)
(2.50718 1.22002 -0.0398126)
(3.14516 -0.123887 0.222639)
(2.5315 1.04478 0.0321804)
(3.31969 -0.160854 0.324054)
(3.18313 -0.0668774 0.620112)
(2.72709 0.73867 0.206013)
(3.93209 -0.242719 0.938281)
(3.61646 -0.375554 0.586399)
(3.4493 -0.49914 0.249814)
(2.99285 0.201205 0.0461088)
(3.6603 -1.23753 1.25558)
(3.6556 -1.05931 0.820688)
(3.62577 -0.942514 0.752619)
(4.08251 -0.912618 0.634423)
(3.72123 0.239 -0.189014)
(3.04283 -2.10764 1.75365)
(3.42791 -1.67427 1.05018)
(3.71917 -1.56252 1.20352)
(4.31494 -0.94483 0.490387)
(4.24198 -0.87811 1.26647)
(4.06318 -0.0987593 0.107802)
(2.00573 0.140179 1.24754)
(2.85035 -2.0174 1.52734)
(3.51894 -1.55021 1.08697)
(4.0429 -1.37977 0.569172)
(3.91507 -1.53714 0.99231)
(4.30504 -0.739169 1.3948)
(3.02817 -1.50365 0.0583364)
(0.951558 0.369203 -0.535556)
(0.923638 0.261561 -0.131309)
(1.5015 -1.86675 1.96014)
(3.85653 -1.55744 0.946844)
(4.26226 -1.12258 1.70452)
(4.27739 -1.13569 1.5335)
(4.29512 -1.98416 1.77216)
(5.63384 -2.50511 1.60566)
(0.697914 -0.0507794 -1.0965)
(1.16137 -0.160658 -0.939732)
(1.51836 0.31368 -0.565539)
(1.69356 1.4802 -0.574069)
(2.03901 0.527088 2.14152)
(1.7393 -1.33034 2.35836)
(2.38881 -0.645885 1.99292)
(2.84336 -0.95829 2.78517)
(1.80504 -3.4526 0.408897)
(0.724405 -0.415992 -1.09356)
(1.06098 0.132716 -0.5827)
(1.56579 0.6836 -0.0366602)
(1.79104 1.07529 0.460263)
(1.43445 1.94544 -0.574397)
(0.48777 1.89835 -0.801297)
(0.125433 1.45858 -0.736927)
(0.497454 1.55453 -0.624054)
(0.446012 1.29014 -0.0856671)
(0.151949 -0.71189 -1.06301)
(0.547538 -1.60812 -0.837457)
(0.941485 -0.408621 -0.535031)
(1.25116 0.398571 0.178174)
(1.04123 0.591185 0.269058)
(0.80134 0.375318 0.422302)
(1.00439 1.20039 -0.571603)
(0.557294 0.908835 -1.1217)
(0.0676386 1.19185 -1.04849)
(-0.20441 1.48392 -0.967821)
(-0.257838 1.25333 -1.04533)
(-0.408954 0.959753 -0.0113128)
(2.32188 0.971211 -0.046055)
(3.00387 0.564278 0.213478)
(2.51487 1.12409 -0.00714689)
(3.03611 -0.14123 0.459556)
(3.11434 -0.192915 0.189439)
(2.68657 0.518113 0.0676848)
(3.50035 -0.187732 0.801139)
(3.34117 -0.196197 0.307913)
(3.12779 -0.141062 0.508774)
(2.80813 0.478289 0.152822)
(3.80537 -1.05187 1.29436)
(3.78921 -0.961138 0.77149)
(3.63835 -0.991054 0.460613)
(3.48093 -0.398266 0.238715)
(3.06747 -0.00204011 0.0688225)
(3.54956 -1.71234 1.55361)
(3.7873 -1.35235 1.11835)
(3.67477 -1.14916 0.740132)
(3.6116 -1.14723 0.651405)
(3.98708 -1.14788 0.471918)
(3.70761 0.0665185 -0.0683758)
(2.8606 -2.1405 0.996289)
(3.04641 -2.1715 1.45075)
(3.41501 -1.66742 1.13572)
(3.86484 -1.63544 0.948255)
(3.78404 -2.27879 0.417293)
(4.39362 -1.18714 1.32)
(4.01007 -0.13502 0.0197929)
(2.15811 0.174706 1.51334)
(2.00851 -1.17428 2.15979)
(3.03729 -2.11997 1.37312)
(3.73975 -1.39116 0.811352)
(3.90432 -1.56599 0.705125)
(3.92091 -1.8109 1.18038)
(4.31033 -0.938256 1.46345)
(3.22159 -1.19843 -0.0640567)
(1.30871 0.463647 -0.560577)
(0.940192 0.321216 -0.314969)
(0.966022 0.200847 0.199596)
(1.43698 -2.54247 1.88489)
(3.58499 -2.35498 0.669217)
(4.0932 -1.21834 1.52338)
(4.32611 -1.12565 1.35485)
(4.28478 -1.93097 2.07915)
(5.50331 -2.69435 0.68914)
(0.617247 -0.208116 -1.26912)
(0.613617 -0.0951127 -1.192)
(1.19367 -0.0259438 -0.726738)
(1.69439 0.423649 0.196584)
(1.88454 1.30379 0.215647)
(1.77122 -0.361678 2.80869)
(1.8961 -1.18717 2.32004)
(2.50217 -0.511667 2.01608)
(2.70933 -1.38782 2.7839)
(1.93568 -3.4495 1.49636)
(0.80052 -0.86822 -0.8495)
(0.705097 -0.426071 -1.0109)
(1.07668 0.0941783 -0.497202)
(1.55428 0.721174 0.0347483)
(1.7884 0.994284 0.564154)
(1.46798 1.96705 -0.413889)
(0.568032 1.87224 -0.712686)
(0.179346 1.41461 -0.680062)
(0.449433 1.47938 -0.601362)
(0.448948 1.15304 0.0057267)
(0.167013 -0.82028 -0.885591)
(0.495037 -1.32724 -1.61707)
(0.516453 -1.57447 -0.730493)
(0.89325 -0.34718 -0.628833)
(1.23693 0.409462 0.18165)
(1.01205 0.626119 0.324659)
(0.76581 0.291307 0.405263)
(0.962108 1.10553 -0.524513)
(0.514847 0.834626 -1.19025)
(0.0226858 1.1548 -1.09769)
(-0.2182 1.4951 -0.961292)
(-0.272443 1.28126 -1.02014)
(-0.300238 1.0117 -0.0012025)
(2.29101 0.649826 -0.180958)
(2.62233 0.394271 -0.103144)
(2.31498 0.901815 -0.00329564)
(3.07299 0.195845 0.297976)
(2.95425 0.413003 0.194509)
(2.6451 0.554097 0.0486799)
(3.113 0.119539 0.611013)
(3.05603 -0.297189 0.483214)
(3.12526 -0.170448 0.164838)
(2.64402 0.643959 0.0167092)
(3.82622 -0.136778 0.858666)
(3.50781 -0.247398 0.73409)
(3.16883 -0.97241 0.379042)
(3.01386 -0.363684 0.505701)
(2.83214 0.400937 0.0891352)
(3.60113 -1.35489 1.47726)
(3.68983 -1.37473 1.03072)
(3.60113 -1.38742 0.677625)
(3.80867 -1.04421 0.336161)
(3.52354 -0.608013 0.149867)
(3.15304 -0.0738422 0.104835)
(3.11971 -1.85965 2.04865)
(3.50814 -1.59777 1.78954)
(3.83664 -1.59498 1.02865)
(3.7691 -1.38131 0.593813)
(3.47844 -1.37746 0.276741)
(3.82934 -1.91957 -0.0164636)
(3.68011 -0.169611 0.037622)
(2.79974 -1.44238 2.09256)
(3.19636 -1.66265 2.00558)
(3.25688 -1.87671 1.42089)
(3.44811 -1.94042 0.970791)
(3.8075 -1.88611 0.707909)
(3.81064 -1.65973 0.494471)
(4.50209 -1.63063 1.09451)
(4.01256 -0.122186 -0.0643531)
(2.02885 0.32045 1.35298)
(2.26542 -0.811976 2.18283)
(2.15689 -1.90572 2.32836)
(3.11093 -1.86967 1.34519)
(3.80457 -1.65938 0.160829)
(3.78384 -1.9666 0.803477)
(3.98525 -1.66293 1.34088)
(4.2051 -1.09399 1.59247)
(3.90605 -0.227569 -0.288931)
(1.38052 0.269595 -0.628582)
(1.25835 0.486591 -0.361236)
(0.98068 0.359992 -0.31725)
(0.913335 0.0596482 0.331435)
(1.68367 -2.6257 1.18588)
(3.85376 -1.94383 0.908858)
(4.05758 -1.15937 1.49005)
(4.17633 -1.2599 1.52344)
(4.52161 -1.77172 1.94818)
(5.29478 -2.65077 0.962701)
(0.93772 -0.963697 -0.917239)
(0.542482 -0.257534 -1.24064)
(0.526399 -0.220298 -1.21891)
(1.20618 0.189942 -0.468519)
(1.77943 0.308907 0.791847)
(1.92975 0.563099 1.95725)
(1.74022 -0.701509 2.82668)
(2.0259 -1.03648 2.22965)
(2.4164 -0.602825 2.04444)
(2.20689 -2.07051 2.63005)
(2.20996 -3.42022 1.90778)
(1.01118 -1.09752 -0.929598)
(0.772842 -0.867222 -0.784289)
(0.678087 -0.437385 -0.987335)
(1.05629 0.165835 -0.484354)
(1.53534 0.740415 0.197002)
(1.71242 0.763438 0.750236)
(1.53049 1.79108 -0.010981)
(0.65615 1.80803 -0.568825)
(0.219598 1.37122 -0.637925)
(0.388639 1.41902 -0.584432)
(0.45033 1.02745 0.0753552)
(0.13636 -0.923287 -0.749879)
(0.244497 -1.18461 -1.10218)
(0.475095 -1.35711 -1.52807)
(0.494904 -1.52384 -0.653274)
(0.858893 -0.403938 -0.537428)
(1.22633 0.412506 0.18979)
(1.04767 0.618306 0.285334)
(0.735076 0.231012 0.382641)
(0.923736 1.01913 -0.464148)
(0.473091 0.786316 -1.22829)
(0.0514338 1.19388 -1.05171)
(-0.236525 1.4928 -0.966979)
(-0.261663 1.34019 -0.946236)
(-0.23846 1.01767 0.00279112)
(1.90298 0.710723 -0.113217)
(2.38484 0.525245 -0.0148351)
(2.02531 1.03058 -0.132911)
(2.79592 0.0602667 -0.0699725)
(2.65933 0.289406 -0.0971511)
(2.38067 0.577809 -0.0060137)
(2.96459 -0.0964876 0.455538)
(3.06918 0.0956899 0.295878)
(2.94136 0.240869 0.0220572)
(2.49237 0.654444 0.00307388)
(3.3566 -0.251392 0.578571)
(3.17487 -0.0812814 0.543512)
(3.05036 -0.382931 0.443742)
(3.10876 -0.264083 0.180058)
(2.71307 0.58407 -0.156771)
(3.6373 -0.901016 1.18937)
(3.67233 -0.543005 0.936907)
(3.36959 -0.553424 0.626563)
(3.05814 -1.12347 0.250225)
(2.8939 -0.662771 0.507488)
(2.91571 0.304455 0.023834)
(3.17672 -1.47381 1.93646)
(3.55962 -1.46259 1.53047)
(3.59685 -1.42707 0.926061)
(3.49374 -1.72754 0.542753)
(3.78054 -1.31137 0.364429)
(3.47034 -0.7622 0.145617)
(3.15921 -0.172241 0.121893)
(3.02551 -1.66159 2.69545)
(3.25227 -1.49928 2.16536)
(3.59685 -2.07748 1.34176)
(3.72782 -1.93013 0.804779)
(3.64508 -1.59052 0.608882)
(3.31871 -1.58376 0.293214)
(4.02174 -1.7586 0.0709211)
(3.66465 -0.373661 0.0768112)
(2.49403 -1.01429 2.1803)
(3.21947 -1.79753 2.01723)
(3.26343 -1.68262 2.10471)
(3.41093 -1.8416 1.2728)
(3.60669 -2.18244 0.634148)
(3.58231 -2.42128 0.268688)
(3.84111 -1.50084 0.570966)
(4.44729 -2.02129 0.916167)
(4.0442 -0.277793 -0.15)
(2.09979 0.270346 1.34776)
(2.26248 -0.286117 2.08478)
(2.29536 -1.58735 2.42001)
(2.36724 -2.21551 1.91155)
(3.27679 -1.81085 0.920761)
(3.32968 -2.70252 0.696517)
(3.88034 -2.32263 0.963599)
(4.15221 -1.3386 1.44124)
(4.1604 -1.95322 1.25375)
(4.51683 0.582952 -0.41024)
(1.28103 0.0242198 -0.799788)
(1.25459 0.413841 -0.444203)
(1.30957 0.50344 -0.382022)
(1.09747 0.401737 -0.133806)
(0.836118 -0.678705 1.02996)
(2.16309 -2.23334 0.687759)
(3.83143 -1.89044 0.937716)
(4.02309 -1.16141 1.49452)
(3.9868 -1.32415 1.67253)
(4.1201 -2.18907 2.23764)
(5.41641 -2.33733 0.937118)
(1.42842 -1.00963 -0.706348)
(0.927768 -0.770269 -0.935996)
(0.498667 -0.144098 -1.21627)
(0.427725 -0.248141 -1.22598)
(1.16973 0.297456 -0.187809)
(1.86085 0.214866 1.23697)
(1.79041 0.0495194 2.58735)
(1.88016 -0.712769 2.66979)
(2.03571 -1.06395 2.1224)
(2.21176 -0.823235 2.07061)
(1.84706 -2.48412 2.54726)
(2.02932 -3.76695 1.80211)
(1.23964 -1.23645 -1.01083)
(0.967755 -1.0798 -0.908583)
(0.718344 -0.916527 -0.801438)
(0.64537 -0.418165 -0.997906)
(1.0783 0.105871 -0.379409)
(1.50032 0.781221 0.432502)
(1.64093 0.566118 0.788139)
(1.56226 1.60239 0.378935)
(0.728345 1.73191 -0.397237)
(0.258526 1.3284 -0.59235)
(0.368306 1.35335 -0.565022)
(0.479494 0.880429 0.120761)
(0.0773266 -1.03628 -0.6291)
(-0.727853 -1.4065 0.593609)
(0.277143 -1.20031 -1.25787)
(0.453484 -1.36961 -1.44496)
(0.486858 -1.46145 -0.620177)
(0.861384 -0.394222 -0.549527)
(1.22434 0.411193 0.189111)
(1.04135 0.628607 0.29941)
(0.719987 0.207899 0.370484)
(0.878703 0.938459 -0.441841)
(0.426489 0.755343 -1.25624)
(0.0764288 1.22426 -1.01977)
(-0.281441 1.47713 -0.972147)
(-0.270195 1.35819 -0.94728)
(-0.283372 1.04083 -0.00113411)
(1.44532 0.820187 0.0998648)
(2.19146 0.591279 -0.0750665)
(1.83448 0.699788 -0.0787696)
(2.5232 0.440139 -0.0646799)
(2.3745 0.307648 -0.0860068)
(2.17674 0.565251 -0.0680485)
(2.85854 0.199947 0.121736)
(2.84235 -0.0481729 -0.106912)
(2.66235 0.248206 -0.0850264)
(2.31676 0.546255 0.0170956)
(3.0075 -0.0478348 0.388843)
(2.96315 -0.266246 0.374865)
(2.99793 -0.368491 0.320066)
(2.91312 0.0826692 -0.102588)
(2.53519 0.226166 0.0027893)
(3.42554 -0.495453 0.891857)
(3.36621 -0.388303 0.567619)
(3.17235 -0.177817 0.536895)
(2.95434 -0.564298 0.337135)
(3.03275 -0.492316 0.246709)
(2.79701 0.512985 -0.189786)
(3.54586 -0.951325 1.4867)
(3.61026 -0.822942 1.26658)
(3.52539 -0.784 0.902771)
(3.29539 -0.782749 0.593983)
(3.0835 -0.984202 0.120279)
(2.84563 -0.811516 0.519128)
(2.99486 0.34549 -0.027311)
(3.25535 -1.24196 2.0816)
(3.3603 -1.49105 1.72559)
(3.44376 -1.95184 1.10543)
(3.59562 -1.6243 0.761175)
(3.66752 -1.26573 0.486893)
(3.61228 -1.54488 0.320799)
(3.41679 -0.876455 0.210564)
(3.07733 -0.432869 0.205913)
(3.4136 -1.39368 2.50306)
(3.27812 -2.18413 2.01553)
(3.18764 -1.8721 2.05772)
(3.95062 -1.70992 0.889001)
(3.6198 -2.14959 0.625383)
(3.29768 -2.19593 0.182836)
(3.20623 -1.93884 0.576346)
(3.90442 -1.87626 -0.225001)
(3.67326 -0.589458 0.101096)
(2.33361 -0.172829 2.55289)
(2.82961 -2.10475 1.94943)
(3.36119 -1.67465 2.07128)
(3.33547 -1.80299 1.60999)
(3.24713 -2.24524 1.15815)
(3.48839 -2.51832 0.524284)
(3.78159 -2.41415 0.497483)
(3.84448 -1.7056 0.515377)
(4.25473 -2.58637 0.601543)
(3.9837 -0.562363 -0.184208)
(1.64499 -0.293067 0.692479)
(1.98198 0.211241 1.82407)
(2.24625 -1.57934 2.31092)
(2.3977 -1.80475 2.26081)
(2.47349 -2.24777 1.77781)
(3.23816 -2.07271 0.563248)
(3.79116 -2.27407 1.00107)
(3.86722 -2.37949 1.20669)
(4.28607 -1.54304 1.12054)
(4.92788 -1.23168 0.726217)
(4.78948 0.831905 -0.576386)
(1.59719 -0.412353 -0.746508)
(1.19128 0.105466 -0.668142)
(1.21809 0.502888 -0.349927)
(1.50209 0.576525 -0.150047)
(1.06457 -0.177734 1.21762)
(0.751451 -1.69375 1.05229)
(2.44843 -2.01405 0.612624)
(3.79659 -1.84908 0.807151)
(3.95466 -1.40578 1.54963)
(3.75179 -1.61397 1.76362)
(3.55529 -2.46504 2.63627)
(5.39632 -2.11321 0.816934)
(1.71424 -0.860109 -0.430382)
(1.42293 -0.950788 -0.660344)
(0.937822 -0.54807 -0.906056)
(0.464632 0.00324229 -1.21374)
(0.268191 -0.201353 -1.14958)
(1.17439 0.337494 0.0330011)
(1.76535 -0.240909 1.75447)
(1.84162 -0.272812 2.75715)
(1.96475 -0.837037 2.50063)
(2.00406 -1.14613 2.03672)
(1.70718 -1.35204 2.18016)
(0.985764 -3.32751 2.36069)
(1.93306 -3.87694 1.81267)
(0.735669 -1.66623 -0.0775858)
(1.21914 -1.2873 -1.05662)
(0.930436 -1.09599 -0.887792)
(0.619659 -1.02381 -0.81565)
(0.625136 -0.305948 -1.03194)
(1.02082 0.0820417 -0.414212)
(1.48562 0.859505 0.616777)
(1.60671 0.420694 0.813342)
(1.57596 1.44095 0.68818)
(0.790679 1.64043 -0.231317)
(0.298483 1.27687 -0.543338)
(0.356364 1.28729 -0.561507)
(0.529808 0.727988 0.137346)
(-0.0800461 -1.23186 -0.443197)
(-0.891515 -1.30572 0.49439)
(-0.697558 -1.36958 0.606994)
(0.304349 -1.23767 -1.32154)
(0.431706 -1.36535 -1.36819)
(0.482579 -1.40918 -0.616061)
(0.851446 -0.392457 -0.526146)
(1.20357 0.414414 0.200617)
(0.991398 0.669918 0.225164)
(0.722291 0.218968 0.377578)
(0.844201 0.872291 -0.414837)
(0.39492 0.733635 -1.27481)
(0.0422511 1.24529 -1.00047)
(-0.229417 1.4834 -0.959369)
(-0.233926 1.4203 -0.865242)
(-0.172544 1.06287 0.018408)
(1.20634 1.06061 0.0357915)
(1.76252 0.681532 0.0642666)
(1.44879 0.888134 0.0847812)
(2.26921 0.502652 -0.117044)
(2.08831 0.510729 -0.0207965)
(1.82051 0.598181 -0.0533565)
(2.61306 0.204935 0.12335)
(2.47295 0.319184 -0.0128674)
(2.37884 0.273261 -0.0935569)
(2.0678 0.69294 -0.0114125)
(2.76753 -0.18532 0.191602)
(2.86924 0.0847364 0.0787125)
(2.83022 -0.0289927 -0.0779643)
(2.55656 0.210164 -0.029528)
(2.32804 0.297226 -0.0182754)
(3.07432 -0.347397 0.501195)
(3.00387 -0.173542 0.371341)
(2.94204 -0.487463 0.33925)
(2.90109 -0.54167 0.324222)
(2.87104 -0.0279175 -0.147832)
(2.52973 0.0981181 -0.041988)
(3.33022 -0.948542 1.00351)
(3.35329 -0.923785 0.725403)
(3.2285 -0.726624 0.563932)
(2.91165 -1.16619 0.585548)
(2.81761 -0.82991 0.36263)
(2.90343 -0.741055 0.243932)
(2.80956 0.384084 -0.120789)
(3.58736 -0.852604 1.59706)
(3.18217 -2.08509 1.06047)
(3.4407 -1.44928 1.00568)
(3.40978 -1.25474 0.762932)
(3.26933 -0.999841 0.528605)
(3.12681 -0.86176 0.0461655)
(2.85717 -0.91402 0.518998)
(3.03965 0.327089 -0.0467773)
(3.40938 -1.13144 2.24293)
(3.16972 -1.64311 1.91619)
(3.31966 -1.76754 1.60573)
(3.52469 -1.81341 1.07341)
(3.56955 -1.81667 0.696042)
(3.51144 -1.48685 0.617075)
(3.44375 -1.73021 0.304627)
(3.4405 -0.873899 0.211419)
(3.02157 -0.666019 0.198776)
(3.6363 -1.10007 2.70313)
(3.29275 -1.87112 2.3918)
(3.05607 -2.45077 2.07258)
(3.35969 -2.1654 1.58199)
(3.90025 -2.14669 0.651435)
(3.41917 -2.45519 0.575979)
(3.11041 -2.37049 0.0940729)
(3.18888 -2.10145 0.321295)
(3.74386 -1.95721 -0.313337)
(3.67151 -0.767491 0.193368)
(2.40041 -0.110494 2.60881)
(2.46884 -1.81893 2.62207)
(3.11659 -1.79461 1.95885)
(3.31489 -1.81638 1.87452)
(3.49117 -1.87555 1.23338)
(3.37425 -2.53649 0.652854)
(3.21003 -2.99092 0.677541)
(4.13093 -2.07859 1.12633)
(3.81241 -2.44372 0.442943)
(4.23152 -3.12424 -0.677132)
(3.82177 -0.972081 -0.278233)
(1.69026 -0.134624 0.760981)
(1.66142 -0.304734 0.943322)
(2.28492 -0.775046 1.81881)
(2.21837 -2.0988 2.25603)
(2.70607 -1.70868 2.04775)
(2.47623 -2.42138 1.34511)
(3.29895 -2.20479 0.655312)
(3.69644 -2.46495 0.906551)
(3.0468 -3.07067 2.06642)
(3.92148 -2.60712 1.25165)
(4.87171 -1.78943 1.15645)
(4.93777 0.700121 -0.753347)
(2.33491 -0.314121 -0.0869932)
(1.56742 -0.388768 -0.589638)
(1.17865 0.302416 -0.499181)
(1.34521 0.640947 -0.0792121)
(1.58407 0.447147 1.03117)
(0.851897 -1.17278 1.8541)
(0.882179 -2.18075 0.70887)
(2.51155 -2.03944 0.430497)
(3.72088 -1.90151 1.06843)
(3.65652 -1.79919 1.86567)
(3.36098 -2.17333 1.9431)
(3.31617 -2.63194 2.69564)
(5.24315 -2.28307 0.55234)
(1.37887 -1.62431 0.106783)
(1.68336 -0.797923 -0.421133)
(1.42809 -0.834997 -0.661041)
(0.923776 -0.323168 -0.872886)
(0.411222 0.0407256 -1.18809)
(0.231996 -0.0432448 -0.915567)
(1.2707 0.426152 0.677193)
(1.59895 -0.664782 2.06184)
(1.91374 -0.405527 2.70454)
(2.04922 -0.838018 2.39226)
(1.84841 -1.34428 1.94286)
(1.28632 -1.79252 2.15492)
(0.472144 -3.75929 2.16748)
(2.1043 -3.73677 1.74003)
(0.227017 -1.20534 0.103075)
(0.801108 -1.6337 -0.132512)
(1.20691 -1.31762 -1.05664)
(0.884578 -1.14593 -0.870792)
(0.583964 -1.05979 -0.817598)
(0.621156 -0.276445 -1.0266)
(1.04738 0.151839 -0.241078)
(1.49091 0.90475 0.646952)
(1.58518 0.358589 0.814378)
(1.58064 1.28463 0.948327)
(0.835661 1.52845 -0.104602)
(0.334209 1.21428 -0.503954)
(0.371262 1.21282 -0.588215)
(0.587875 0.564314 0.160343)
(-0.20998 -1.35084 -0.319747)
(-0.896543 -0.895469 -0.102443)
(-0.921562 -1.32007 0.414737)
(-0.675067 -1.31968 0.641451)
(0.319548 -1.29854 -1.30695)
(0.425105 -1.35059 -1.30425)
(0.463772 -1.37747 -0.617085)
(0.821848 -0.392743 -0.536491)
(1.18371 0.413733 0.238232)
(0.983382 0.582725 0.254169)
(0.730717 0.233528 0.392295)
(0.814538 0.817866 -0.382976)
(0.371079 0.720814 -1.29448)
(0.0476999 1.24319 -1.01123)
(-0.238566 1.5227 -0.980728)
(-0.188168 1.4327 -0.835169)
(-0.101814 1.05535 0.0258216)
(1.37674 0.817335 -0.00494258)
(1.56286 0.742794 0.158516)
(1.33965 0.8659 0.0376548)
(1.96905 0.502419 0.147309)
(1.76683 0.678637 0.0575227)
(1.50617 0.753471 0.166422)
(2.28088 0.542934 -0.0443966)
(2.21959 0.371101 -0.0366453)
(1.98876 0.667327 -0.0167684)
(1.82378 0.634051 -0.0627209)
(2.54373 -0.23417 0.15507)
(2.56384 0.090093 0.146737)
(2.43414 0.151972 0.0437359)
(2.30701 0.566517 0.0729793)
(2.09586 0.419359 0.0167978)
(2.58196 -0.139256 0.23236)
(2.80386 -0.247882 0.25681)
(2.7761 -0.236795 0.0604569)
(2.69863 0.022152 0.0299387)
(2.46557 0.125256 0.00217329)
(2.24887 0.38227 -0.0370735)
(2.97138 -0.589648 0.68869)
(3.06402 -0.382702 0.502084)
(2.90158 -0.467331 0.386475)
(2.91312 -0.35318 0.393071)
(2.86353 -0.605208 0.311084)
(2.8263 -0.0327012 -0.211498)
(2.5393 0.0429094 -0.0615395)
(3.39819 -0.715118 1.16787)
(3.18631 -0.966893 0.984271)
(3.15413 -1.38185 0.623497)
(3.11817 -1.01875 0.489365)
(2.98801 -0.693819 0.505412)
(2.73677 -1.07721 0.397107)
(2.79132 -0.894389 0.156057)
(2.7684 -0.0043905 -0.0243332)
(3.63362 -0.764414 1.65369)
(3.41311 -1.39414 1.47453)
(3.43621 -1.04512 1.34784)
(3.33928 -1.35452 0.925667)
(3.22027 -1.7118 0.581471)
(3.18521 -1.20997 0.545015)
(3.1154 -1.05894 -0.00732996)
(2.89969 -0.888786 0.443279)
(3.06568 0.20069 0.00976897)
(3.51512 -0.618397 2.56341)
(3.26152 -1.48641 2.24422)
(2.98393 -2.07914 1.91098)
(3.32947 -1.76597 1.51202)
(3.73493 -1.6707 1.0186)
(3.51831 -1.92186 0.630488)
(3.21605 -1.95756 0.581563)
(3.40969 -1.61031 0.340241)
(3.4328 -0.779794 0.167922)
(3.01408 -0.723707 0.171883)
(3.41593 -1.56758 2.78448)
(3.45154 -1.46919 2.69726)
(3.26115 -2.00191 2.34278)
(3.46613 -1.61978 2.12546)
(3.60303 -2.32185 1.2128)
(3.70956 -2.39293 0.644859)
(3.25381 -2.62284 0.5612)
(3.02732 -2.52298 0.0630655)
(2.92073 -2.55485 0.597635)
(3.58561 -2.03004 -0.196993)
(3.63921 -0.987922 0.363507)
(2.3341 0.288162 2.5076)
(2.45975 -0.83263 2.81282)
(2.73522 -1.9015 2.40072)
(3.20843 -1.56197 1.96092)
(3.33526 -1.7853 1.73017)
(3.2609 -2.31495 1.29279)
(3.19529 -3.14266 0.550261)
(3.49114 -2.9049 1.21409)
(4.16964 -2.23746 0.883529)
(4.13944 -2.74045 0.517439)
(4.17292 -3.78438 -0.835096)
(3.7884 -1.27713 -0.318312)
(1.96469 -0.178177 1.0018)
(1.70503 -0.316525 0.887322)
(1.68063 -0.195042 2.00894)
(2.20025 -1.64285 2.08099)
(2.47542 -1.69243 2.36567)
(2.61378 -2.34597 1.58213)
(2.53128 -2.40741 1.22804)
(3.33784 -2.5774 0.52597)
(3.476 -2.71255 1.10804)
(3.5987 -2.94443 1.86436)
(3.14697 -3.85435 2.43477)
(3.74213 -3.87973 1.71136)
(5.27658 0.494514 -1.44524)
(2.25484 -1.41844 -0.467054)
(2.3856 -0.346426 -0.0542072)
(1.58039 -0.223444 -0.434462)
(1.21665 0.578294 -0.223326)
(1.52025 0.726423 0.404585)
(1.32595 -0.0744794 1.98354)
(0.840658 -1.88154 1.65264)
(1.27155 -1.9364 0.133187)
(2.41456 -2.10949 0.368957)
(3.58665 -1.98847 1.55361)
(3.40596 -2.14781 1.97201)
(2.74575 -2.90202 1.99006)
(2.58288 -3.34474 2.86743)
(5.13436 -2.167 0.22976)
(1.01131 -1.596 0.296099)
(1.33709 -1.66956 -0.0443885)
(1.66006 -0.732308 -0.47223)
(1.42092 -0.619341 -0.716861)
(0.887798 -0.0912931 -0.898166)
(0.249148 -0.03003 -1.17038)
(0.247349 0.154703 -0.688281)
(1.34362 0.389795 1.10558)
(1.52404 -0.813053 2.0929)
(1.99364 -0.573298 2.52804)
(2.07274 -0.932551 2.27083)
(1.66938 -1.60439 1.72082)
(0.457311 -2.59011 1.89978)
(0.240362 -3.91297 1.94628)
(2.15385 -3.61547 1.68613)
(-0.0491044 -1.07327 0.129844)
(0.243147 -1.18481 -0.053231)
(0.864683 -1.59021 -0.299409)
(1.13632 -1.33454 -1.04484)
(0.732184 -1.22561 -0.869698)
(0.448164 -1.03158 -0.912285)
(0.584857 -0.294411 -1.04245)
(1.00684 0.304265 0.0706309)
(1.48709 0.940959 0.611563)
(1.56627 0.299614 0.83735)
(1.56496 1.1588 1.11975)
(0.860133 1.40614 -0.00207954)
(0.373118 1.13464 -0.475995)
(0.430231 1.12215 -0.612236)
(0.634222 0.400101 0.19099)
(-0.319012 -1.42231 -0.164246)
(-0.6162 -0.646328 -0.827725)
(-0.91492 -0.872634 -0.134018)
(-0.946783 -1.3207 0.343612)
(-0.643521 -1.2609 0.575418)
(0.331659 -1.32553 -1.2967)
(0.417226 -1.33877 -1.25052)
(0.455508 -1.39278 -0.604243)
(0.823995 -0.402851 -0.532319)
(1.18553 0.392168 0.22694)
(0.933438 0.578623 0.208935)
(0.737935 0.241013 0.402004)
(0.790904 0.771183 -0.346418)
(0.376404 0.730926 -1.26097)
(0.0441617 1.27171 -0.981094)
(-0.21785 1.56759 -0.922203)
(-0.186701 1.47898 -0.815659)
(-0.071884 1.0684 0.0293838)
(1.32697 0.990881 -0.0181531)
(1.61481 0.616673 0.0350942)
(1.38418 0.771739 0.0371918)
(1.78043 0.568742 0.192486)
(1.62308 0.676766 0.125571)
(1.40077 0.76962 0.0102607)
(1.96218 0.646765 0.201815)
(1.98141 0.473365 0.103238)
(1.75079 0.66306 0.0704764)
(1.58453 0.628665 0.124018)
(2.26527 0.25551 0.223003)
(2.20024 0.337136 0.0261659)
(2.17891 0.292042 0.0055116)
(2.00188 0.677231 -0.0620391)
(1.8506 0.597616 -0.0366664)
(2.4407 0.030244 0.300739)
(2.47404 0.100563 0.129895)
(2.54746 0.0979464 0.0655037)
(2.38122 0.044921 0.16664)
(2.25414 0.325861 0.0474313)
(2.00554 0.348829 -0.0782244)
(2.74175 -0.219217 0.412507)
(2.64469 -0.365775 0.314375)
(2.77904 -0.124496 0.313164)
(2.69781 -0.451367 0.154355)
(2.6364 -0.162051 0.0369586)
(2.41917 0.0794658 -0.000681422)
(2.23002 0.398386 0.035103)
(2.93016 -0.963348 0.780001)
(2.88378 -0.799549 0.732754)
(2.9069 -0.753246 0.485176)
(2.86284 -0.695834 0.433104)
(2.80202 -0.712668 0.353446)
(2.83211 -0.67577 0.340925)
(2.79733 -0.155154 -0.250738)
(2.54186 0.115788 -0.0481585)
(3.41743 -0.664652 1.24836)
(3.29929 -0.990167 1.05789)
(3.2639 -1.07634 0.79545)
(3.20764 -0.954588 0.639164)
(3.11943 -1.10712 0.437384)
(2.97715 -0.87481 0.443353)
(2.59843 -1.33012 0.31281)
(2.78825 -0.760163 0.0256568)
(2.70697 -0.250579 -0.00167135)
(3.70533 -0.606797 1.74411)
(3.60869 -0.923748 1.61157)
(3.23797 -1.43719 1.57936)
(3.23699 -1.71768 1.18233)
(3.33015 -1.70324 0.73343)
(3.12121 -1.71337 0.479429)
(3.08579 -1.5068 0.503581)
(3.05474 -1.22109 0.0455959)
(2.85282 -1.0532 0.419878)
(3.06857 0.15121 0.0568574)
(3.75908 -1.45308 2.49254)
(3.46201 -0.906046 2.59474)
(3.09895 -1.84953 2.16432)
(3.26991 -1.76855 1.9037)
(3.45846 -1.99646 1.02176)
(3.66698 -1.73755 0.831256)
(3.4435 -2.0274 0.665242)
(3.13209 -1.9168 0.553274)
(3.2461 -1.73245 0.342893)
(3.34749 -0.972843 0.128344)