/*--------------------------------*- C++ -*----------------------------------*\
  =========                 |
  \\      /  F ield         | OpenFOAM: The Open Source CFD Toolbox
   \\    /   O peration     | Website:  https://openfoam.org
    \\  /    A nd           | Version:  7
     \\/     M anipulation  |
\*---------------------------------------------------------------------------*/
FoamFile
{
    version     2.0;
    format      ascii;
    class       volScalarField;
    location    "4";
    object      p;
}
// * * * * * * * * * * * * * * * * * * * * * * * * * * * * * * * * * * * * * //

dimensions      [0 2 -2 0 0 0 0];

internalField   nonuniform List<scalar> 
18750
(
-85.3076
-88.7574
-83.7525
-85.1013
-85.8685
-89.6897
-88.0465
-83.2687
-83.6782
-84.9463
-73.7942
-85.1937
-84.3718
-84.8356
-88.6868
-87.3074
-83.099
-83.1824
-83.5525
-84.7575
-67.9775
-75.366
-73.2347
-81.3807
-84.1142
-83.0364
-84.0497
-84.3092
-87.7932
-86.5977
-82.0791
-83.0292
-83.1078
-83.4723
-84.5358
-62.9863
-70.6205
-67.8546
-75.5651
-74.6814
-73.0622
-81.2118
-80.6218
-82.9449
-81.8977
-83.0013
-83.7569
-83.8322
-86.8895
-85.918
-81.3558
-82.0286
-82.9728
-83.0278
-83.4653
-84.2895
-60.0856
-63.8134
-63.5505
-70.7135
-71.0478
-68.1205
-76.6973
-75.3479
-74.1464
-72.6988
-82.1674
-80.4197
-80.1072
-81.8324
-80.6536
-81.7397
-82.7567
-83.4932
-83.4731
-85.8893
-85.2362
-81.3115
-81.338
-81.9674
-82.9093
-82.9438
-83.4294
-84.0784
-58.5801
-60.7223
-60.347
-64.2987
-64.0397
-63.9121
-71.383
-70.605
-70.8217
-68.3726
-77.3776
-76.2062
-75.0778
-73.8668
-72.0743
-80.6804
-81.8303
-79.789
-79.6398
-81.0542
-79.6949
-81.1246
-81.6002
-82.4625
-83.2344
-83.1797
-85.0949
-84.6541
-81.1521
-81.3209
-81.3222
-81.9002
-82.8448
-82.8539
-83.3718
-83.907
-57.4205
-58.5642
-58.2169
-61.0319
-60.5194
-60.5691
-64.057
-64.2017
-64.4068
-63.8666
-71.0054
-71.207
-70.5539
-70.7743
-68.6212
-77.7034
-77.3891
-76.0387
-74.8126
-73.7568
-71.8557
-80.0038
-80.5175
-81.4174
-79.418
-78.9977
-80.3976
-79.0986
-80.9393
-81.0757
-81.4889
-82.0917
-82.947
-82.7526
-84.5681
-84.2951
-81.5523
-81.1647
-81.3353
-81.3058
-81.8298
-82.7847
-82.7504
-83.2983
-83.6998
-56.3031
-57.467
-57.3137
-58.711
-58.5343
-58.5841
-61.2701
-60.9787
-60.2206
-60.7187
-64.9782
-64.6177
-63.9646
-64.426
-63.7692
-71.1294
-71.0532
-71.3761
-70.4211
-70.1772
-68.723
-77.2138
-77.6148
-77.2702
-75.7289
-74.6397
-73.6836
-71.6883
-79.5869
-79.9925
-80.322
-80.8045
-78.9875
-78.3034
-79.3679
-78.5368
-81.2977
-80.9774
-81.0514
-81.4318
-81.7701
-82.6501
-82.2283
-83.9548
-84.0126
-81.7241
-81.5691
-81.1781
-81.3516
-81.2905
-81.7526
-82.7222
-82.6381
-83.2697
-83.4602
-55.2906
-56.3569
-56.2055
-57.2998
-57.4324
-57.3556
-59.2898
-58.4781
-58.7048
-58.5948
-61.53
-61.2544
-60.9855
-60.1566
-60.4556
-64.9391
-65.1348
-64.6966
-64.3335
-64.5672
-63.7743
-71.145
-71.3553
-71.0947
-71.1484
-70.155
-69.8968
-68.9416
-77.2665
-77.48
-77.5018
-77.3042
-75.5917
-74.4056
-73.595
-71.6635
-78.8935
-79.7345
-80.0735
-80.2556
-79.8839
-78.5777
-77.7434
-78.6178
-78.4704
-81.6322
-81.4015
-80.992
-81.0471
-81.3668
-81.4639
-82.3559
-81.8454
-83.4027
-83.7356
-81.4484
-81.729
-81.5871
-81.192
-81.3682
-81.2736
-81.6706
-82.6526
-82.5191
-83.2925
-83.2024
-55.0013
-55.3824
-55.274
-56.3946
-56.452
-56.3098
-57.5166
-57.2796
-57.4393
-57.3192
-59.3672
-59.3919
-59.3544
-58.7213
-58.4297
-62.4485
-61.5935
-61.4422
-61.3861
-60.5798
-60.3183
-65.6808
-65.3919
-65.4362
-64.8082
-64.8144
-64.96
-64.202
-71.6708
-71.5118
-71.5295
-70.9762
-71.1807
-70.1414
-69.9842
-69.4808
-76.9598
-77.44
-77.9084
-77.4276
-77.148
-75.5304
-74.3916
-73.3659
-71.7053
-78.8381
-78.9882
-79.8745
-80.2376
-80.3014
-79.5163
-78.0859
-77.3828
-78.461
-78.5859
-81.61
-81.7011
-81.4687
-80.9808
-81.0752
-81.3059
-81.2022
-82.1192
-81.5843
-82.9025
-83.4019
-80.7523
-81.444
-81.7351
-81.607
-81.2095
-81.3826
-81.2558
-81.5925
-82.597
-82.3835
-83.2326
-82.9365
-54.5095
-54.9669
-54.9175
-55.3635
-55.3584
-55.3095
-56.5866
-56.4957
-56.3778
-56.3755
-57.6909
-57.6568
-57.5744
-57.5301
-57.3912
-59.5651
-59.5923
-59.498
-59.5493
-58.7123
-58.4277
-62.3802
-62.4685
-61.6559
-61.6025
-61.5576
-60.7871
-60.2694
-65.6862
-66.2231
-65.8601
-65.3707
-65.0229
-65.1949
-64.9525
-64.5154
-72.543
-72.0385
-71.5945
-71.8587
-71.2865
-70.9189
-70.4265
-70.2416
-69.5909
-76.0154
-76.9735
-77.5975
-78.3447
-77.8298
-76.7997
-75.4247
-74.5304
-72.8742
-71.8401
-79.1947
-78.8013
-79.0572
-80.082
-80.492
-80.3568
-79.3572
-77.7239
-77.0611
-78.2295
-78.2838
-81.0732
-81.6018
-81.7489
-81.5044
-80.9431
-81.1389
-81.2689
-80.9459
-81.8955
-81.2745
-82.3809
-83.0171
-80.2158
-80.7445
-81.4379
-81.7399
-81.6302
-81.2361
-81.3896
-81.2399
-81.513
-82.5621
-82.2232
-83.0407
-82.6694
-54.1361
-54.5418
-54.4782
-55.0762
-54.8835
-54.9595
-55.6392
-55.4759
-55.357
-55.3769
-56.6803
-56.5557
-56.5248
-56.3952
-56.4108
-57.8055
-57.7549
-57.6864
-57.6477
-57.4707
-57.5212
-59.9311
-59.8676
-59.6397
-59.5905
-59.4085
-58.7569
-58.8619
-62.9411
-62.5103
-62.429
-62.0964
-61.8889
-61.5885
-60.899
-60.373
-67.0116
-66.5073
-66.6389
-66.2057
-65.4625
-65.4934
-65.035
-65.0006
-64.7141
-72.2443
-72.389
-72.5481
-72.0803
-71.9003
-71.2998
-70.976
-70.8427
-70.2106
-69.6727
-75.6031
-76.1627
-76.9592
-77.6862
-78.434
-78.5885
-76.6276
-75.1629
-74.7007
-72.7729
-72.1266
-79.1834
-79.2123
-78.9664
-79.2678
-80.2518
-80.7385
-80.4229
-78.9813
-77.6235
-76.8468
-77.5952
-78.1228
-80.4157
-81.0345
-81.5413
-81.8269
-81.5139
-80.927
-81.2041
-81.2148
-80.6787
-81.5033
-80.9958
-81.9483
-82.702
-80.0098
-80.2094
-80.7375
-81.4295
-81.7381
-81.6575
-81.2676
-81.3926
-81.2288
-81.4281
-82.4993
-82.0531
-82.7927
-82.5013
-53.8257
-54.1869
-54.1383
-54.6114
-54.5577
-54.4672
-55.1117
-55.0641
-54.9811
-54.9289
-55.7067
-55.6219
-55.5575
-55.4722
-55.4041
-56.563
-56.5391
-56.5585
-56.4795
-56.4089
-56.4071
-58.0436
-57.9223
-57.8976
-57.7907
-57.705
-57.5243
-57.5367
-60.0584
-59.8963
-60.169
-59.5811
-59.7448
-59.502
-59.0167
-58.9768
-63.4078
-63.009
-62.8998
-62.3554
-62.2641
-61.9543
-61.7249
-61.1783
-60.2515
-67.1125
-66.8701
-66.82
-66.441
-66.5054
-65.7601
-65.7793
-65.2606
-65.1064
-64.8352
-72.2416
-72.1842
-72.3347
-72.7392
-72.699
-72.2275
-71.4134
-71.2169
-71.3396
-70.1953
-69.6449
-75.2271
-75.7364
-76.2478
-77.083
-77.8185
-78.5562
-78.545
-76.6704
-75.532
-74.6513
-72.9571
-72.4352
-79.0541
-79.3005
-79.3766
-79.2151
-79.5467
-80.4561
-81.0424
-80.2705
-78.7483
-77.4426
-76.863
-77.2568
-77.969
-80.1318
-80.441
-81.0342
-81.5492
-81.8055
-81.5092
-80.94
-81.2586
-81.1344
-80.4787
-81.2099
-80.7292
-81.6203
-82.3363
-79.8336
-80.0201
-80.2012
-80.7327
-81.4207
-81.7239
-81.6844
-81.2919
-81.3946
-81.2248
-81.3415
-82.4102
-81.8953
-82.5396
-82.3896
-53.4927
-53.8119
-53.7767
-54.1938
-54.123
-54.0942
-54.5993
-54.5401
-54.5254
-54.4201
-55.1351
-55.1144
-55.0961
-54.9822
-54.8494
-55.8042
-55.7269
-55.6783
-55.6009
-55.4447
-55.3911
-56.7224
-56.7629
-56.6857
-56.6456
-56.554
-56.4348
-56.282
-58.0728
-58.1082
-58.1024
-57.9579
-57.9032
-57.8119
-57.6715
-57.4335
-59.4585
-59.8164
-60.0433
-59.8363
-59.9587
-59.639
-59.6987
-58.9795
-58.7799
-63.658
-63.5398
-63.375
-62.6874
-62.6261
-62.3834
-62.0613
-61.9631
-61.4321
-60.253
-67.1829
-66.6969
-66.9615
-67.0447
-66.7295
-67.5651
-66.0941
-66.0332
-65.3058
-65.5196
-65.0451
-71.4259
-72.0583
-72.2239
-72.357
-72.9682
-73.1193
-72.768
-71.8236
-71.4144
-71.6564
-70.406
-69.4813
-75.5481
-75.4494
-75.7777
-76.5035
-77.3277
-78.0194
-78.742
-78.4494
-76.7562
-75.7578
-74.8125
-73.1038
-72.6836
-78.8661
-79.1463
-79.4741
-79.5577
-79.4186
-79.889
-80.6922
-81.347
-80.0711
-78.4806
-77.5016
-76.8302
-77.4425
-77.7787
-79.5514
-80.1139
-80.4626
-81.0653
-81.6441
-81.6958
-81.5342
-80.998
-81.3472
-81.0772
-80.2977
-81.089
-80.4148
-81.3421
-81.9052
-79.3415
-79.8569
-80.0242
-80.193
-80.7264
-81.4096
-81.7082
-81.7132
-81.3052
-81.3955
-81.2271
-81.258
-82.2993
-81.7632
-82.3225
-82.2239
-53.2802
-53.5088
-53.5015
-53.7362
-53.8185
-53.7596
-54.2159
-54.1549
-54.1194
-54.0743
-54.6316
-54.62
-54.5382
-54.5296
-54.4297
-55.2565
-55.0962
-55.1011
-55.0406
-54.9151
-54.8611
-55.9373
-55.8445
-55.7535
-55.7327
-55.5832
-55.4377
-55.4523
-56.9177
-56.9589
-56.7966
-56.7204
-56.6936
-56.5459
-56.4812
-56.3195
-58.2523
-58.1348
-58.0962
-58.119
-57.9801
-57.9335
-57.9714
-57.4191
-57.4309
-59.4384
-59.9467
-60.0243
-59.9239
-59.9024
-59.9213
-59.6142
-59.7835
-59.1024
-58.755
-63.2421
-63.7995
-63.1165
-63.2558
-62.9496
-63.417
-62.6678
-62.2023
-61.8025
-61.7949
-60.5444
-68.1998
-67.6141
-67.0032
-67.5454
-67.4083
-67.1449
-66.7932
-66.0352
-66.401
-65.1225
-66.127
-65.3233
-71.514
-71.3171
-72.1811
-72.2253
-72.8869
-72.9762
-73.545
-72.3173
-72.4419
-72.0447
-71.6677
-70.6162
-69.4038
-75.8257
-75.541
-75.7283
-75.8563
-76.8986
-77.7034
-78.4888
-78.7493
-78.8943
-76.9201
-75.9279
-74.8938
-73.6306
-72.7977
-78.7088
-78.8678
-79.3262
-79.7012
-79.792
-79.6313
-80.2454
-80.9438
-81.611
-80.0323
-78.3212
-77.5764
-76.8273
-77.3408
-77.582
-78.6199
-79.5083
-80.1303
-80.5118
-81.0636
-81.6035
-81.6622
-81.5635
-81.1178
-81.4497
-81.05
-80.1526
-80.9054
-80.1901
-80.9517
-81.5826
-79.3855
-79.3371
-79.8716
-80.0211
-80.1853
-80.7155
-81.394
-81.6929
-81.7449
-81.3159
-81.396
-81.233
-81.1878
-82.182
-81.6654
-82.1341
-82.0511
-53.0452
-53.2881
-53.2689
-53.5151
-53.5378
-53.4745
-53.8491
-53.8158
-53.8143
-53.7247
-54.2006
-54.2097
-54.1659
-54.0995
-54.0581
-54.6896
-54.6118
-54.5788
-54.5267
-54.4809
-54.4138
-55.3733
-55.2422
-55.0907
-55.0922
-55.0127
-54.9149
-54.8862
-56.0668
-55.9195
-55.8873
-55.7957
-55.7264
-55.672
-55.5105
-55.4821
-57.0407
-56.954
-56.8466
-56.8164
-56.7076
-56.5869
-56.4672
-56.4508
-56.4294
-58.2568
-58.178
-58.1147
-58.04
-58.0544
-57.9489
-57.8627
-57.557
-57.52
-57.4591
-60.1451
-60.4522
-60.2613
-59.8853
-59.9863
-59.5215
-59.9313
-59.8285
-59.2346
-59.1481
-58.8168
-63.8472
-63.8184
-63.264
-63.322
-63.4658
-63.3563
-63.5662
-62.5497
-62.0202
-62.0232
-61.8814
-60.9121
-67.5291
-67.667
-67.2414
-67.5419
-68.202
-68.0938
-67.3774
-67.4042
-66.6923
-66.6066
-65.4892
-66.444
-65.55
-71.3467
-71.6038
-71.6204
-72.1852
-72.581
-72.9551
-73.0674
-74.1018
-72.9063
-73.2446
-72.2353
-71.9063
-70.6416
-69.0391
-75.9482
-75.8089
-75.6195
-75.8987
-76.1564
-77.3214
-78.1529
-78.9842
-79.0654
-78.8612
-77.0533
-76.2755
-75.0745
-74.0716
-72.8891
-78.2535
-78.6828
-79.0104
-79.5998
-79.8929
-79.9083
-79.8468
-80.565
-81.2778
-81.8592
-80.1576
-78.3832
-77.6527
-77.0633
-77.2871
-77.434
-78.5847
-78.5945
-79.4529
-80.1406
-80.56
-81.0167
-81.5047
-81.6547
-81.57
-81.2555
-81.5122
-81.0265
-80.0384
-80.7317
-80.0436
-80.5723
-81.2905
-79.6819
-79.3879
-79.3307
-79.8845
-80.0148
-80.1775
-80.7016
-81.3736
-81.679
-81.7746
-81.3284
-81.3972
-81.2395
-81.1426
-82.0776
-81.5981
-81.9744
-81.8738
-52.873
-53.0806
-53.0322
-53.4584
-53.2616
-53.1995
-53.5621
-53.5933
-53.4697
-53.4218
-53.8936
-53.817
-53.7882
-53.7526
-53.7531
-54.2631
-54.1828
-54.1413
-54.0714
-54.071
-54.0389
-54.801
-54.6762
-54.6067
-54.5685
-54.4712
-54.4291
-54.3936
-55.4481
-55.2794
-55.1711
-55.1254
-55.0151
-55.0633
-54.9313
-54.8621
-56.0977
-56.0717
-55.9423
-55.8386
-55.7797
-55.6616
-55.7165
-55.5112
-55.5295
-57.1807
-57.0683
-56.7406
-57.0291
-56.8886
-56.7972
-56.7431
-56.115
-56.433
-56.4191
-58.5428
-58.2732
-58.2921
-58.1994
-58.1858
-58.0997
-57.9827
-57.8861
-57.6931
-57.6337
-57.5001
-60.2533
-60.0216
-60.6167
-60.1758
-60.0138
-60.194
-60.3639
-59.9975
-59.7167
-59.1861
-59.1298
-58.9299
-63.5604
-64.3452
-63.7134
-63.5071
-63.9877
-63.6389
-63.1326
-62.7345
-62.4621
-62.2928
-62.0844
-62.0176
-61.1739
-67.3467
-67.8846
-67.8219
-67.3757
-68.3863
-67.6308
-67.5587
-68.6199
-68.1393
-67.1409
-66.7376
-66.0738
-66.8763
-65.8291
-71.7109
-71.5705
-71.3193
-71.7495
-72.3817
-72.8823
-73.691
-74.1273
-73.9062
-74.1443
-73.9022
-72.7262
-72.0514
-70.9362
-68.5307
-76.8018
-76.0759
-75.9036
-75.8821
-76.1018
-76.5475
-77.7913
-78.5452
-79.554
-79.5955
-79.1677
-77.5742
-76.9241
-75.5262
-74.541
-72.452
-78.3196
-78.0862
-78.727
-79.2558
-79.8364
-79.978
-79.969
-80.0254
-80.7928
-81.6621
-82.0505
-80.3548
-78.6792
-77.9143
-77.4915
-77.4181
-77.1183
-78.841
-78.5885
-78.5768
-79.4333
-80.15
-80.5306
-80.9733
-81.4373
-81.6101
-81.6443
-81.4276
-81.5567
-81.0086
-79.9302
-80.6005
-79.9333
-80.3021
-81.0597
-79.4143
-79.6965
-79.3916
-79.3223
-79.8953
-80.0091
-80.1669
-80.6854
-81.3517
-81.6676
-81.7914
-81.3362
-81.3974
-81.2471
-81.1259
-82.0032
-81.5725
-81.8207
-81.6881
-52.7218
-52.8944
-52.8801
-53.0264
-53.0458
-52.9742
-53.2927
-53.2838
-53.1892
-53.2117
-53.5349
-53.541
-53.4362
-53.417
-53.4314
-53.8911
-53.7796
-53.8113
-53.7453
-53.7279
-53.7098
-54.3153
-54.1838
-54.1538
-54.0881
-54.0855
-54.0258
-53.9915
-54.8564
-54.7332
-54.6455
-54.6062
-54.4947
-54.4803
-54.4126
-54.3636
-55.4827
-55.4034
-55.219
-55.099
-55.1328
-55.0733
-54.9493
-54.8285
-54.9245
-56.2073
-56.2323
-56.0506
-56.0414
-55.8925
-55.829
-55.7705
-55.5591
-55.5916
-55.5387
-57.3465
-57.2416
-57.115
-57.1901
-57.0915
-56.8921
-56.7796
-56.7303
-57.0305
-56.4124
-56.3449
-58.7148
-58.5945
-58.5239
-58.3501
-58.2257
-58.2399
-58.0443
-57.9025
-58.0286
-57.9588
-57.6147
-57.5185
-60.9523
-60.3106
-60.8214
-60.5255
-59.804
-60.0426
-59.9948
-60.2435
-59.8534
-59.6071
-59.2393
-59.1531
-59.0739
-63.9364
-63.8377
-63.9798
-63.7303
-63.9814
-64.207
-63.6394
-62.8926
-63.7545
-62.4721
-62.9553
-62.1264
-62.0346
-61.5187
-68.1849
-67.5839
-67.8053
-67.3136
-67.552
-67.9315
-67.6754
-68.1141
-69.2199
-67.9842
-67.386
-66.9339
-66.6382
-67.0165
-65.9913
-71.7194
-71.7506
-71.694
-71.5046
-71.8295
-72.7741
-73.5498
-74.5555
-75.0307
-74.4415
-74.5086
-74.8814
-73.8491
-72.5854
-71.2976
-68.1933
-76.9144
-76.597
-76.254
-76.1068
-76.3473
-76.3753
-76.8745
-78.0938
-79.1335
-80.1932
-80.2943
-79.9751
-78.4519
-77.9126
-76.1881
-75.2493
-72.4686
-78.54
-78.1802
-77.9784
-78.8589
-79.509
-79.8599
-80.0101
-80.0832
-80.1934
-80.9781
-81.9036
-82.1492
-80.6477
-79.2034
-78.2972
-77.9276
-77.6809
-76.8623
-79.1005
-78.8509
-78.5976
-78.5544
-79.4255
-80.1768
-80.5004
-80.9237
-81.381
-81.5825
-81.7287
-81.6307
-81.6047
-80.984
-79.8794
-80.5166
-79.8578
-80.1052
-80.8794
-78.9199
-79.4328
-79.7166
-79.3954
-79.3109
-79.9021
-80.002
-80.1532
-80.6685
-81.3308
-81.6576
-81.7919
-81.3372
-81.3949
-81.2536
-81.1266
-81.9678
-81.5531
-81.6774
-81.5208
-52.605
-52.7516
-52.7114
-52.9051
-52.9067
-52.8345
-53.0996
-53.032
-52.9889
-53.013
-53.3388
-53.3247
-53.2574
-53.2074
-53.203
-53.57
-53.5374
-53.5509
-53.4389
-53.4301
-53.3944
-53.9808
-53.8517
-53.7644
-53.7813
-53.7867
-53.6965
-53.669
-54.4099
-54.3241
-54.2085
-54.1406
-54.145
-54.1405
-54.007
-53.9886
-54.912
-54.8497
-54.7364
-54.643
-54.5615
-54.509
-54.3954
-54.3692
-54.3871
-55.6248
-55.4982
-55.3996
-55.2908
-55.1736
-55.1136
-54.9944
-54.9339
-54.9176
-54.9742
-56.444
-56.3857
-56.2318
-56.1333
-56.0575
-55.8132
-55.8487
-55.7585
-55.5933
-55.5692
-55.5921
-57.5707
-57.4429
-57.3282
-57.1729
-57.2344
-56.9791
-56.8732
-56.7757
-56.6784
-56.7261
-56.4705
-56.5164
-58.9697
-58.8111
-58.7164
-58.5287
-58.4029
-58.1904
-58.2856
-57.9384
-58.1637
-58.0262
-58.0458
-57.6411
-57.7209
-61.2269
-60.9952
-59.984
-60.8242
-60.4144
-60.692
-60.6936
-60.3457
-60.0182
-59.7714
-59.9591
-59.6131
-59.0706
-59.2931
-63.9856
-63.9619
-64.0862
-63.9562
-63.7036
-64.1849
-63.397
-63.3607
-64.7175
-64.0084
-63.2702
-62.9963
-62.2693
-61.6043
-61.7549
-67.9064
-67.2013
-67.7601
-67.805
-68.4166
-68.3794
-67.8374
-69.3806
-68.4196
-67.6162
-67.8146
-68.2968
-67.9937
-67.3082
-67.3182
-65.823
-71.7103
-71.6989
-71.8661
-71.8298
-71.6759
-72.1951
-72.9585
-74.2034
-74.6515
-75.8086
-75.7861
-75.6217
-75.4481
-74.4887
-73.6225
-72.1283
-67.7182
-76.6646
-77.0808
-76.6531
-76.3728
-76.334
-76.648
-76.4693
-77.1744
-78.4348
-79.6986
-80.6089
-80.985
-81.0143
-79.5914
-78.9796
-76.9548
-76.1157
-72.9502
-78.0365
-78.4188
-78.0688
-77.9555
-79.0849
-79.7987
-79.8987
-80.0658
-80.0709
-80.3129
-81.1907
-82.1496
-82.3419
-80.9908
-79.706
-78.838
-78.4332
-77.8655
-76.6458
-78.7993
-79.0771
-78.8608
-78.6151
-78.5266
-79.3796
-80.1925
-80.4545
-80.8561
-81.3184
-81.595
-81.7965
-81.7982
-81.6483
-80.9579
-79.9115
-80.4208
-79.8427
-80.0028
-80.7285
-78.6054
-78.9392
-79.4489
-79.7393
-79.3986
-79.2975
-79.9045
-79.9937
-80.1411
-80.6518
-81.3104
-81.6463
-81.7825
-81.337
-81.3906
-81.258
-81.1368
-81.9638
-81.549
-81.5521
-81.4243
-52.5224
-52.6143
-52.6087
-52.7413
-52.7542
-52.6847
-52.9591
-52.9057
-52.8354
-52.8463
-53.1526
-53.0953
-53.0181
-53.0206
-52.9832
-53.373
-53.3
-53.3037
-53.2738
-53.201
-53.1483
-53.6968
-53.5867
-53.5159
-53.4501
-53.4717
-53.3897
-53.3704
-54.0357
-53.9663
-53.8849
-53.7879
-53.8265
-53.7743
-53.6589
-53.6602
-54.5045
-54.3955
-54.3001
-54.2139
-54.1163
-54.1857
-54.072
-54.0081
-53.9537
-55.1441
-54.9091
-54.8064
-54.7677
-54.6532
-54.5467
-54.41
-54.4928
-54.3899
-54.3806
-55.8183
-55.6498
-55.5073
-55.4052
-55.2547
-55.2009
-55.1115
-54.9931
-54.8501
-54.9882
-54.9404
-56.6349
-56.5394
-56.3815
-56.2224
-56.1652
-56.0195
-56.0455
-55.7678
-55.6102
-55.6158
-55.6421
-55.5948
-57.8182
-57.6031
-57.4794
-57.2933
-57.2739
-57.123
-57.1303
-56.8108
-56.7589
-56.7051
-56.6418
-56.6656
-56.5756
-59.2808
-59.1516
-58.8074
-58.7755
-58.4258
-58.5551
-58.3866
-58.3041
-58.1408
-58.2247
-58.1323
-58.1013
-57.6643
-57.9118
-61.5512
-61.2999
-60.9914
-61.2621
-60.6919
-60.9503
-60.8882
-60.8858
-60.2056
-60.45
-59.8691
-60.0168
-59.5302
-58.9613
-59.4863
-64.1162
-64.0858
-64.1767
-64.0752
-64.2267
-64.2183
-63.8178
-63.4372
-63.799
-64.7096
-63.0355
-63.2456
-62.9014
-62.2967
-61.4111
-62.0131
-67.7641
-67.648
-67.1244
-67.8112
-68.1387
-67.7987
-68.7251
-69.0462
-69.5765
-68.6871
-68.0892
-69.2089
-69.2957
-68.5142
-68.4705
-67.6587
-65.4144
-71.7533
-71.9859
-71.9083
-72.0132
-72.022
-72.0576
-72.5468
-73.0939
-74.3605
-75.0155
-76.581
-76.6177
-76.4973
-76.4326
-75.751
-73.8169
-72.8377
-66.7673
-75.938
-76.5739
-77.0117
-76.5712
-76.5634
-76.5878
-76.6472
-76.6438
-77.4429
-78.8026
-80.2464
-80.8471
-81.6149
-82.1428
-80.6106
-79.6684
-77.8382
-75.9057
-72.8022
-77.1492
-77.8991
-78.2419
-77.9649
-78.0268
-79.0901
-79.9564
-79.9634
-80.1062
-80.1239
-80.3972
-81.3296
-82.4402
-82.5715
-81.109
-79.9101
-79.2839
-78.9191
-78.2093
-76.6314
-78.172
-78.8155
-79.0518
-78.8746
-78.6378
-78.5163
-79.3023
-80.1533
-80.3953
-80.7754
-81.2412
-81.6204
-81.8664
-81.9194
-81.6563
-80.9218
-79.9721
-80.3782
-79.8987
-79.9562
-80.5895
-78.224
-78.6145
-78.9555
-79.4696
-79.7589
-79.4007
-79.2833
-79.9024
-79.9851
-80.1287
-80.6351
-81.2867
-81.6308
-81.7647
-81.3388
-81.3872
-81.2602
-81.1487
-81.9681
-81.5535
-81.4408
-81.3754
-52.4193
-52.5432
-52.4897
-52.6126
-52.5981
-52.574
-52.7879
-52.7314
-52.6995
-52.6911
-52.9438
-52.8997
-52.9167
-52.8662
-52.8084
-53.1981
-53.0985
-53.0365
-53.0707
-52.9703
-52.9363
-53.4121
-53.3678
-53.3186
-53.2224
-53.2432
-53.124
-53.1258
-53.7469
-53.6533
-53.5675
-53.5197
-53.4489
-53.3876
-53.3737
-53.3481
-54.1148
-54.0405
-53.9236
-53.8205
-53.7953
-53.7481
-53.7025
-53.6554
-53.588
-54.5972
-54.4912
-54.3319
-54.2859
-54.201
-54.1254
-54.138
-54.0044
-53.9815
-53.936
-55.2665
-55.0328
-54.945
-54.8109
-54.7254
-54.6287
-54.5206
-54.407
-54.4239
-54.403
-54.3936
-55.9242
-55.8168
-55.5897
-55.4953
-55.3209
-55.2274
-55.2339
-55.0714
-54.9801
-55.1353
-54.9211
-54.8933
-56.8118
-56.7355
-56.5363
-56.3178
-56.2557
-56.151
-56.1115
-56.0109
-55.8283
-55.7626
-55.7255
-55.6388
-55.5052
-58.0112
-57.8532
-57.622
-57.5687
-57.3595
-57.2908
-57.211
-56.8564
-56.9357
-56.8801
-56.7355
-56.6944
-56.582
-56.5553
-59.6276
-59.4336
-59.1543
-59.0011
-58.8991
-58.9051
-58.6187
-58.4833
-58.2602
-58.0054
-58.2498
-57.7799
-57.9911
-57.584
-57.8937
-61.6574
-61.5151
-61.4021
-61.3477
-60.5911
-60.9559
-60.9725
-60.8978
-60.7055
-61.2123
-60.5514
-60.2632
-60.3244
-59.3956
-59.2139
-59.3557
-64.0072
-64.3793
-64.0469
-64.2671
-64.2022
-64.3468
-64.6467
-63.8786
-64.3212
-64.1436
-63.6396
-63.315
-64.1101
-63.6071
-62.7234
-61.2892
-61.3957
-67.6494
-68.0429
-67.6987
-67.7
-68.1923
-68.1458
-68.0804
-68.4138
-69.6847
-68.7599
-69.2496
-69.629
-69.5338
-68.4651
-69.2459
-68.7428
-67.47
-65.4572
-71.5217
-71.8409
-72.0544
-72.0384
-72.1331
-71.8453
-72.3347
-72.8054
-73.5094
-74.824
-75.8837
-77.3047
-76.8261
-77.9484
-77.5644
-76.5945
-74.822
-73.191
-66.6137
-75.0761
-75.8064
-76.5193
-76.747
-76.4911
-76.8956
-76.8898
-76.7924
-76.9444
-77.7186
-79.1914
-80.424
-80.8431
-82.2695
-82.6886
-81.2681
-80.19
-78.321
-76.4719
-72.9698
-76.3436
-77.024
-77.7214
-78.0506
-77.8589
-78.1524
-79.0819
-80.0069
-79.9455
-80.0187
-80.2008
-80.4582
-81.414
-82.6051
-82.5864
-81.057
-79.9894
-79.6923
-79.303
-78.6364
-76.9106
-77.5606
-78.2241
-78.8343
-79.039
-78.8981
-78.657
-78.5121
-79.2441
-80.1181
-80.3193
-80.6723
-81.1637
-81.6295
-81.9141
-82.0332
-81.6228
-80.8941
-80.0831
-80.4119
-80.0138
-79.9557
-80.5081
-77.9001
-78.2331
-78.627
-78.9762
-79.4984
-79.7768
-79.4022
-79.2656
-79.8963
-79.976
-80.1139
-80.62
-81.2586
-81.6113
-81.7453
-81.3417
-81.3833
-81.2615
-81.1585
-81.9735
-81.5615
-81.3613
-81.3118
-52.3203
-52.4693
-52.4016
-52.5221
-52.5013
-52.4721
-52.6178
-52.6276
-52.5289
-52.5888
-52.8022
-52.7876
-52.7275
-52.6374
-52.6497
-53.0304
-52.9169
-52.8939
-52.8863
-52.8141
-52.7755
-53.1744
-53.1554
-53.15
-53.0628
-52.9912
-52.9153
-52.9104
-53.4902
-53.3677
-53.3159
-53.3123
-53.2442
-53.1442
-53.1311
-53.068
-53.8179
-53.7471
-53.632
-53.5382
-53.5078
-53.4057
-53.3607
-53.3458
-53.2831
-54.1952
-54.1125
-54.0149
-53.9466
-53.8369
-53.7716
-53.6929
-53.6517
-53.5769
-53.5769
-54.6957
-54.5794
-54.4981
-54.3311
-54.2085
-54.1793
-54.089
-53.9457
-54.0142
-53.947
-53.9353
-55.3842
-55.1551
-55.02
-54.9066
-54.7647
-54.668
-54.6284
-54.5435
-54.4463
-54.4488
-54.3381
-54.3461
-56.1116
-55.9948
-55.7937
-55.6385
-55.4429
-55.3223
-55.2142
-55.1769
-55.163
-55.1362
-55.0606
-54.9238
-54.7996
-57.2054
-56.8534
-56.789
-56.5221
-56.3653
-56.2182
-56.1722
-56.0712
-55.9402
-55.8532
-55.7777
-55.6405
-55.6487
-55.5352
-58.3326
-58.1667
-57.8736
-57.7144
-57.6906
-57.56
-57.3569
-57.1685
-57.0252
-56.9033
-56.8853
-56.661
-56.623
-56.5214
-56.6011
-59.9604
-59.7135
-59.5086
-59.245
-59.0966
-59.0039
-58.9661
-58.4735
-58.4208
-58.4608
-58.3721
-58.0632
-58.0825
-58.0515
-57.54
-57.8601
-61.6953
-61.7622
-61.5172
-61.5486
-61.3948
-61.4707
-61.2059
-61.092
-61.0341
-60.9651
-60.999
-60.4233
-60.4698
-60.2491
-59.3322
-59.1641
-59.2963
-64.4075
-64.3132
-64.2789
-64.0688
-64.3096
-64.3619
-64.3535
-64.5818
-64.7074
-64.5159
-64.357
-63.7147
-64.3475
-64.0266
-63.7379
-63.5094
-61.7085
-61.3237
-67.5096
-67.6236
-67.8251
-68.001
-68.0577
-68.4611
-68.3261
-68.4892
-68.8421
-69.3743
-68.7908
-69.7194
-69.9361
-68.8252
-69.0018
-69.99
-68.4782
-68.5968
-65.739
-71.1747
-71.6817
-71.916
-72.1639
-72.2127
-72.2586
-72.2392
-72.7259
-73.0837
-73.8049
-75.3495
-76.6032
-77.1371
-77.3265
-79.0684
-78.8082
-77.6281
-75.1652
-73.3693
-66.8606
-75.0144
-74.9384
-75.6944
-76.4423
-76.7478
-76.6157
-76.9882
-77.1476
-77.018
-77.2486
-77.9647
-79.3486
-80.5247
-80.9778
-82.6005
-82.8879
-81.6804
-80.4928
-78.7413
-77.009
-73.3637
-75.819
-76.2969
-76.9433
-77.5636
-77.8782
-77.8374
-78.2613
-79.1123
-79.9828
-79.8752
-79.9661
-80.18
-80.4177
-81.4045
-82.7152
-82.4446
-80.9884
-80.071
-80.0224
-79.5694
-78.8841
-77.2928
-77.1396
-77.5987
-78.2905
-78.8836
-79.0848
-78.9287
-78.6845
-78.5038
-79.1968
-80.0694
-80.2244
-80.5583
-81.0729
-81.6148
-81.9446
-82.1235
-81.5922
-80.8897
-80.2206
-80.4375
-80.1549
-80.0306
-80.5916
-77.8498
-77.9102
-78.238
-78.6426
-78.9957
-79.5263
-79.7924
-79.4023
-79.2467
-79.8855
-79.9666
-80.0984
-80.5978
-81.2271
-81.5872
-81.7323
-81.344
-81.378
-81.2626
-81.1659
-81.9939
-81.5815
-81.3277
-81.2438
-52.2203
-52.3374
-52.3536
-52.4188
-52.4154
-52.3711
-52.5698
-52.5103
-52.4695
-52.4672
-52.6867
-52.7124
-52.6284
-52.5506
-52.5609
-52.8375
-52.7397
-52.7641
-52.6914
-52.643
-52.5951
-53.0464
-53.0466
-52.9334
-52.9237
-52.7987
-52.7606
-52.749
-53.2303
-53.1397
-53.1528
-53.1136
-53.0423
-52.9492
-52.9051
-52.8635
-53.5501
-53.437
-53.411
-53.3293
-53.2821
-53.2431
-53.1336
-53.0742
-53.0308
-53.9028
-53.8155
-53.6803
-53.5957
-53.5385
-53.4595
-53.3291
-53.3398
-53.2748
-53.2349
-54.3172
-54.195
-54.0862
-53.9883
-53.8642
-53.8181
-53.6975
-53.6064
-53.6227
-53.5278
-53.5256
-54.7963
-54.705
-54.5868
-54.4141
-54.3364
-54.1858
-54.135
-54.0404
-53.9731
-53.9313
-53.8681
-53.8393
-55.5409
-55.3679
-55.1623
-55.0123
-54.8538
-54.8157
-54.7066
-54.6204
-54.4657
-54.341
-54.3926
-54.3178
-54.2897
-56.3997
-56.1384
-55.9808
-55.8112
-55.6368
-55.5288
-55.2824
-55.2528
-55.1953
-55.1568
-54.9836
-54.9608
-54.946
-54.776
-57.364
-57.2379
-56.9882
-56.8104
-56.5676
-56.4178
-56.3232
-56.1982
-56.0621
-55.8904
-55.8329
-55.7096
-55.6889
-55.6045
-55.4758
-58.4818
-58.3466
-58.1436
-57.9188
-57.7607
-57.6728
-57.5089
-57.272
-57.2145
-57.1606
-56.9654
-56.7648
-56.622
-56.7061
-56.5614
-56.5265
-60.0245
-59.8447
-59.7627
-59.6179
-59.3031
-59.2432
-59.3461
-59.0443
-58.6222
-58.6597
-58.5187
-58.3547
-58.0071
-57.9408
-57.8402
-57.5179
-57.7878
-61.8192
-61.9349
-61.707
-61.9028
-61.5173
-61.4348
-61.898
-61.3685
-61.204
-61.2608
-60.9639
-60.7997
-60.577
-60.6621
-60.0778
-59.2427
-59.2929
-59.2331
-64.4423
-64.4243
-64.2846
-64.3939
-64.768
-64.5456
-64.1613
-64.4729
-64.6698
-64.8438
-64.489
-64.2121
-64.8768
-64.5878
-63.538
-64.1745
-64.3602
-61.9916
-61.2788
-67.6028
-67.6115
-67.8573
-68.0644
-68.3101
-68.1323
-68.2993
-68.662
-69.0113
-69.2781
-69.3088
-69.3731
-70.3393
-69.6066
-69.4985
-70.2071
-70.0696
-68.8963
-68.4105
-65.5428
-70.9237
-71.4342
-71.6462
-72.1526
-72.3671
-72.5621
-72.325
-72.5984
-73.0097
-73.423
-74.1143
-75.6624
-76.1853
-76.9946
-77.8764
-78.3751
-79.1945
-78.0523
-75.4084
-73.4262
-66.5845
-74.3215
-75.1026
-75.022
-75.7124
-76.4042
-76.8535
-76.7596
-77.2579
-77.2377
-77.2765
-77.4919
-78.1927
-79.4243
-80.5232
-81.1277
-82.6669
-82.7621
-81.8777
-80.518
-79.082
-76.8036
-73.9221
-75.5978
-75.7741
-76.2816
-76.8858
-77.4634
-77.7583
-77.9035
-78.3446
-79.1445
-79.7784
-79.6683
-79.9144
-80.0527
-80.3066
-81.3608
-82.7689
-82.243
-80.888
-80.1169
-80.2966
-79.7038
-79.0225
-77.8606
-76.8822
-77.1724
-77.6233
-78.3541
-78.9455
-79.1177
-78.965
-78.7108
-78.5061
-79.1652
-80.0141
-80.1126
-80.4367
-80.9778
-81.6029
-81.9849
-82.1702
-81.5424
-80.9066
-80.3615
-80.449
-80.305
-80.1056
-80.698
-77.5141
-77.8497
-77.9211
-78.2436
-78.6597
-79.0168
-79.5558
-79.8071
-79.4012
-79.2317
-79.8729
-79.9561
-80.0835
-80.5692
-81.191
-81.5605
-81.718
-81.3441
-81.3721
-81.2632
-81.1789
-82.0239
-81.6059
-81.3009
-81.1683
-52.1675
-52.1981
-52.3524
-52.3298
-52.3281
-52.4374
-52.3534
-52.3481
-52.3617
-52.5236
-52.5449
-52.4426
-52.5299
-52.4178
-52.7239
-52.7464
-52.5761
-52.6121
-52.6184
-52.5454
-52.8655
-52.8034
-52.775
-52.7045
-52.6908
-52.6065
-52.5837
-53.0931
-53.0545
-53.0178
-52.9516
-52.8452
-52.8015
-52.7542
-52.7167
-53.3499
-53.2295
-53.2311
-53.1062
-53.04
-52.9876
-52.928
-52.8797
-52.8369
-53.6826
-53.5434
-53.4254
-53.4284
-53.2825
-53.2315
-53.1504
-53.0659
-53.0322
-52.9783
-53.9982
-53.8832
-53.7732
-53.6455
-53.5783
-53.4858
-53.4256
-53.3894
-53.2723
-53.2433
-53.2076
-54.2869
-54.3751
-54.1405
-54.0439
-53.9551
-53.8649
-53.7128
-53.6782
-53.5801
-53.5536
-53.5116
-53.4597
-54.9347
-54.8422
-54.7112
-54.5094
-54.3773
-54.2422
-54.1524
-54.1132
-54.0487
-53.7943
-53.9294
-53.852
-53.8346
-55.7139
-55.4693
-55.3475
-55.2397
-54.975
-54.9459
-54.8082
-54.6916
-54.5205
-54.4854
-54.2643
-54.3818
-54.3167
-54.3536
-56.4913
-56.4781
-56.1966
-55.9624
-55.8279
-55.4882
-55.435
-55.3151
-55.2834
-55.2211
-55.1344
-54.9506
-54.977
-54.9232
-54.869
-57.5236
-57.3754
-57.264
-57.019
-56.6887
-56.5641
-56.4725
-56.3008
-56.0903
-55.9685
-55.9249
-55.8406
-55.6927
-55.6945
-55.5599
-55.3907
-58.6104
-58.4754
-58.3634
-58.2302
-58.0325
-57.7894
-57.809
-57.5065
-57.3934
-57.2934
-57.2357
-56.8609
-56.6433
-56.7858
-56.6072
-56.4663
-56.5424
-60.1376
-60.1443
-59.8502
-60.0816
-59.6724
-59.2347
-59.3964
-59.3327
-59.1277
-58.8756
-58.574
-58.6367
-58.304
-58.4608
-57.7889
-57.9298
-57.4684
-57.5856
-62.0618
-62.0363
-61.9199
-61.8102
-62.0199
-61.4808
-61.5733
-61.5994
-61.2915
-61.3137
-61.2919
-61.1371
-61.0501
-61.0092
-60.3174
-60.2021
-59.4367
-59.1806
-59.0377
-64.5209
-64.514
-64.583
-64.3858
-64.6424
-64.8613
-64.5915
-64.3987
-64.4971
-64.9157
-64.8769
-64.6647
-65.0111
-64.917
-64.1953
-63.8028
-64.6393
-65.2354
-61.8553
-61.6216
-67.4541
-67.7564
-67.7638
-68.0832
-68.2735
-68.1161
-68.448
-68.4436
-69.0964
-69.24
-69.6399
-69.727
-69.7945
-69.8738
-69.8897
-69.8983
-70.5701
-70.3888
-68.921
-67.7523
-65.1626
-70.9339
-71.0988
-71.7787
-71.8591
-72.2281
-72.7224
-72.7847
-72.9977
-72.9803
-73.1928
-73.7327
-74.2567
-75.6669
-76.2392
-77.1886
-78.0596
-78.3034
-79.6003
-77.8534
-75.3832
-72.7372
-66.7295
-73.9707
-74.6118
-75.2102
-75.3229
-75.7334
-76.4882
-77.0045
-76.9879
-77.5833
-77.6007
-77.5349
-77.7805
-78.4661
-79.3902
-80.4182
-80.9622
-82.4371
-82.5199
-81.6108
-80.4928
-79.116
-76.4212
-74.2467
-75.1431
-75.5405
-75.7891
-76.3193
-76.8823
-77.4181
-77.6891
-78.0443
-78.3552
-79.2131
-79.6044
-79.4534
-79.7541
-79.9325
-80.1932
-81.3034
-82.5664
-82.0069
-80.7675
-80.1072
-80.4884
-79.7633
-79.0348
-78.1769
-76.4533
-76.8671
-77.2081
-77.6683
-78.4284
-79.0077
-79.1259
-79.0153
-78.7201
-78.5094
-79.1455
-79.9615
-80.0033
-80.3219
-80.8858
-81.5647
-82.0092
-82.1657
-81.4933
-80.9278
-80.4858
-80.4474
-80.4479
-80.2406
-80.8439
-77.5128
-76.9083
-77.8517
-77.9322
-78.2539
-78.6767
-79.0378
-79.5829
-79.8257
-79.4
-79.2245
-79.8646
-79.9445
-80.0697
-80.5367
-81.1507
-81.5297
-81.6947
-81.3411
-81.3652
-81.2642
-81.1949
-82.0163
-81.6288
-81.2664
-52.2218
-52.1805
-52.1942
-52.3607
-52.4101
-52.3387
-52.3133
-52.4399
-52.4582
-52.4164
-52.3412
-52.2994
-52.6343
-52.561
-52.5057
-52.518
-52.4543
-52.3652
-52.7985
-52.6955
-52.5661
-52.537