/*--------------------------------*- C++ -*----------------------------------*\
  =========                 |
  \\      /  F ield         | OpenFOAM: The Open Source CFD Toolbox
   \\    /   O peration     | Website:  https://openfoam.org
    \\  /    A nd           | Version:  7
     \\/     M anipulation  |
\*---------------------------------------------------------------------------*/
FoamFile
{
    version     2.0;
    format      ascii;
    class       volVectorField;
    location    "4";
    object      U;
}
// * * * * * * * * * * * * * * * * * * * * * * * * * * * * * * * * * * * * * //

dimensions      [0 1 -1 0 0 0 0];

internalField   nonuniform List<vector> 
18750
(
(1.49288 -0.703745 -0.381283)
(-0.922755 -0.299985 -0.0961923)
(1.75989 -1.0685 -0.829025)
(1.49106 -0.711854 -0.377782)
(-4.80736 -1.62288 0.8806)
(-1.21316 -2.12631 0.622736)
(-0.974616 -0.464735 -0.0840237)
(1.15769 -0.643108 -1.36646)
(1.68946 -1.13011 -0.788664)
(1.53838 -0.739888 -0.39867)
(-6.44891 -1.79275 0.532556)
(-4.44442 -1.61552 2.20752)
(-4.66944 -2.06443 1.09194)
(-2.30516 -1.71405 1.00687)
(-1.2295 -2.15882 0.629366)
(-1.01309 -0.549683 -0.162252)
(0.569809 -0.326463 -0.387873)
(1.14044 -0.670389 -1.3535)
(1.70288 -1.09224 -0.851888)
(1.53461 -0.727206 -0.398064)
(-4.83072 -2.18008 -0.0832299)
(-5.25384 -1.72475 2.11013)
(-6.05502 -2.24251 0.644429)
(-4.38342 -1.32729 1.89024)
(-4.4009 -1.85509 2.02929)
(-4.53903 -2.36667 1.24357)
(-2.32087 -1.04669 1.26748)
(-2.29216 -1.75931 0.942107)
(-1.21982 -2.19917 0.663147)
(-1.05169 -0.617357 -0.271325)
(0.0156759 0.0427149 0.26154)
(0.58333 -0.401202 -0.509185)
(1.14026 -0.693891 -1.33295)
(1.69843 -1.23915 -0.724183)
(1.48911 -0.688823 -0.393775)
(-4.61828 -1.83822 0.125937)
(-5.42789 -0.947131 1.32471)
(-4.52751 -2.38 -0.0793619)
(-5.077 -0.755797 1.78991)
(-5.11549 -2.26571 1.58761)
(-5.8083 -2.34896 0.75824)
(-3.95061 -1.07385 1.49113)
(-4.4435 -0.999545 1.84589)
(-4.42847 -1.95951 1.77295)
(-4.4158 -2.35108 0.915515)
(-1.51428 -0.958054 0.887433)
(-2.36309 -0.850851 1.47579)
(-2.25084 -1.6578 1.21966)
(-1.14817 -2.25808 0.747343)
(-1.07933 -0.69483 -0.383584)
(-0.0979394 0.236945 -0.566956)
(-0.00327362 0.0232674 0.280312)
(0.609181 -0.458188 -0.608318)
(1.13708 -0.710618 -1.3218)
(1.67441 -1.24928 -0.703193)
(1.48114 -0.67317 -0.388797)
(-4.15728 -0.393453 0.0932031)
(-5.5774 -0.180359 -0.460993)
(-4.35278 -2.4243 0.0502033)
(-5.30655 -0.303607 1.02401)
(-5.28062 -1.52777 1.42588)
(-4.51874 -1.86773 0.280012)
(-5.34274 -0.867663 1.39208)
(-5.0158 -0.97925 1.69396)
(-4.92578 -2.42919 1.61204)
(-5.49713 -2.14341 0.460513)
(-3.25483 0.0508894 1.30379)
(-3.96907 -1.15586 1.36948)
(-4.30522 -1.37827 1.76086)
(-4.32512 -2.29218 2.11886)
(-4.1573 -2.46592 0.626132)
(-0.658377 -0.248838 1.84886)
(-1.49346 -0.968694 0.918239)
(-2.44055 -0.756794 1.65075)
(-2.15949 -1.92561 0.809935)
(-1.21496 -2.24234 0.70984)
(-1.12153 -0.706898 -0.520199)
(-0.179982 -0.184499 0.133862)
(-0.108489 0.141461 -0.604503)
(-0.0186295 -0.0133956 0.315577)
(0.639055 -0.493196 -0.693394)
(1.12167 -0.717607 -1.31445)
(1.64916 -1.3061 -0.638649)
(1.4673 -0.633931 -0.36617)
(-3.17894 -1.65909 0.421619)
(-4.34174 -0.968234 0.151521)
(-3.24508 -2.44423 0.120426)
(-5.29143 -0.278484 0.368661)
(-5.47197 0.430069 0.779834)
(-4.30485 -2.58939 0.0611663)
(-6.15404 0.0727541 0.758867)
(-5.35029 -0.794048 0.895745)
(-4.50926 -2.8207 1.20144)
(-4.40021 -1.57374 0.96677)
(-5.40022 0.352055 1.68807)
(-5.11241 -1.02338 1.69609)
(-4.98679 -1.10775 1.74504)
(-4.91821 -2.35323 1.74892)
(-5.06863 -2.03259 0.359777)
(-2.26291 0.356608 1.08942)
(-3.19505 -0.0184216 1.45912)
(-3.96464 -1.18241 1.55465)
(-4.19277 -1.64483 1.80316)
(-4.20212 -2.58521 2.33417)
(-3.84547 -2.77225 0.68106)
(-0.627023 0.579851 1.88898)
(-0.595847 -0.0141463 1.8871)
(-1.45693 -1.09312 0.947948)
(-2.45709 -1.05293 1.5723)
(-2.09877 -2.06401 0.597518)
(-1.01673 -2.31236 0.618503)
(-1.18482 -0.627904 -0.688331)
(-0.400138 0.342899 -0.110154)
(-0.151002 -0.199426 -0.0638033)
(-0.108082 0.0559998 -0.630926)
(-0.0285145 -0.0677916 0.360888)
(0.669445 -0.505781 -0.765209)
(1.11216 -0.727863 -1.3002)
(1.66689 -1.31093 -0.626782)
(1.46714 -0.631738 -0.34784)
(-2.8212 -1.73746 -0.17257)
(-3.61055 -0.711889 0.30477)
(-3.03623 -2.04668 0.427269)
(-4.24785 -0.364569 0.588773)
(-4.38786 -1.25807 0.251078)
(-3.51241 -2.41142 0.0681576)
(-5.68051 0.19259 0.352029)
(-5.01533 -0.944074 0.154569)
(-5.34347 -0.471358 0.586923)
(-4.26193 -2.75054 0.162978)
(-6.02682 0.3388 0.905477)
(-5.89561 -0.644561 1.29946)
(-5.30592 -1.48661 0.975045)
(-4.33876 -3.1307 1.15556)
(-4.29837 -1.32316 1.27241)
(-4.88436 1.18232 1.06301)
(-5.45529 -0.0567513 1.947)
(-5.03755 -1.07926 1.90396)
(-4.92694 -1.26981 1.84183)
(-4.87465 -2.19739 1.97463)
(-4.58149 -2.16472 0.446292)
(-2.27339 0.272082 1.45038)
(-2.19915 0.247159 1.2697)
(-3.19747 -0.414323 1.14667)
(-3.98076 -1.46147 1.67627)
(-4.13397 -1.80386 1.64405)
(-4.40937 -1.09444 2.52984)
(-3.73509 -2.43517 0.373444)
(-1.09311 0.83092 1.0417)
(-0.660784 0.770192 1.56056)
(-0.58369 0.178598 1.8295)
(-1.39128 -1.16733 1.07795)
(-2.44459 -1.12472 1.50981)
(-2.0032 -2.19903 0.382907)
(-0.941264 -2.37778 0.614884)
(-1.19133 -0.613884 -0.763364)
(-0.534745 0.626858 -0.575846)
(-0.396745 0.404635 -0.2004)
(-0.122133 -0.194863 -0.228642)
(-0.102102 -0.00766317 -0.65432)
(-0.0307005 -0.131887 0.406731)
(0.699191 -0.5004 -0.821295)
(1.10472 -0.730642 -1.28977)
(1.65974 -1.36502 -0.556122)
(1.49911 -0.64329 -0.305606)
(-2.78193 -1.06581 -0.120481)
(-3.38528 -0.714979 0.306325)
(-2.62719 -2.14643 -0.131327)
(-3.93085 -0.561375 0.366445)
(-3.59938 -0.89955 0.359571)
(-3.03822 -2.16452 0.199499)
(-4.21276 -0.496994 0.605161)
(-4.36713 0.287207 0.943276)
(-4.43355 -1.4128 0.216907)
(-3.35724 -2.45876 0.0048234)
(-5.72015 0.631188 0.669281)
(-5.73881 -0.0688842 0.590225)
(-4.90028 -0.891501 0.371933)
(-5.12597 -0.300901 0.900595)
(-4.25463 -2.71173 0.20881)
(-5.84865 0.759049 1.07769)
(-5.94446 -0.24779 1.40436)
(-5.81741 -0.896881 1.532)
(-5.21172 -1.8078 1.01694)
(-4.26171 -3.06239 1.16088)
(-4.11383 -1.36983 1.12287)
(-4.38848 1.57956 2.05782)
(-4.84315 0.396543 1.30593)
(-5.47348 0.178133 1.54915)
(-5.09595 -1.01965 1.89426)
(-4.88033 -1.3858 1.78698)
(-4.82913 -1.99622 2.20785)
(-4.11998 -2.1489 0.777577)
(-1.87314 0.281675 2.04804)
(-2.10196 0.239162 1.74866)
(-2.08165 0.0763764 1.67055)
(-2.95599 -0.443019 1.34126)
(-3.97336 -1.32961 1.83046)
(-4.10658 -1.48345 1.52516)
(-4.09943 -1.86607 2.22027)
(-3.92853 -1.37153 0.148682)
(-1.78644 0.82566 1.17653)
(-1.13198 0.859763 0.799944)
(-0.726054 1.04482 0.931679)
(-0.619136 0.300888 1.62572)
(-1.37226 -1.22135 1.23063)
(-2.39235 -1.15341 1.51219)
(-1.88509 -2.32148 0.207897)
(-0.812047 -2.42418 0.588132)
(-0.917944 -0.988207 -0.504383)
(0.0979733 -0.468206 0.22045)
(-0.523655 0.687724 -0.634837)
(-0.396212 0.462951 -0.316)
(-0.0903621 -0.164752 -0.405005)
(-0.0992633 -0.018481 -0.683631)
(-0.0313859 -0.184196 0.445952)
(0.723603 -0.484473 -0.86219)
(1.09111 -0.730113 -1.27888)
(1.67264 -1.38704 -0.483127)
(1.52676 -0.631427 -0.285433)
(-2.30827 -1.16588 -0.00167242)
(-3.16274 -0.366033 -0.164357)
(-2.67906 -1.45031 -0.0780193)
(-3.41352 -0.567395 0.133461)
(-3.22005 -1.01566 0.389276)
(-2.37233 -2.5493 -0.0333424)
(-3.96817 -0.0601465 0.802224)
(-3.96766 -0.859706 0.451353)
(-3.52539 -1.11571 0.413828)
(-2.61933 -2.51498 0.201866)
(-4.41874 0.0439546 0.840367)
(-4.27408 -0.304851 0.611908)
(-4.05896 -1.77331 0.580347)
(-4.38419 -1.63519 0.240562)
(-3.19526 -2.54597 -0.085361)
(-5.16787 0.721208 1.26102)
(-5.53965 0.10124 0.77676)
(-5.53727 -0.615002 0.883255)
(-4.8612 -1.11341 0.139572)
(-4.66522 -1.54143 1.05932)
(-4.16078 -2.86533 0.218462)
(-5.41756 1.18672 1.72677)
(-5.74584 0.352122 1.35071)
(-5.98686 0.240582 0.759449)
(-5.75819 -1.34387 1.27497)
(-5.18434 -1.64565 0.540006)
(-4.23218 -3.09786 1.04286)
(-3.64469 -1.99265 1.48281)
(-3.7432 2.08605 1.1704)
(-4.27508 1.67238 2.11992)
(-4.81171 0.260425 1.49426)
(-5.47565 0.0111486 0.810476)
(-5.20913 -0.779008 1.88676)
(-4.91534 -1.49637 1.65979)
(-4.77625 -2.54769 1.80623)
(-3.71091 -2.34433 1.0226)
(-2.08435 0.333023 2.16709)
(-1.7257 0.406057 2.26307)
(-1.91535 0.257532 2.19786)
(-1.91441 -0.0212436 2.15625)
(-2.82357 -0.303434 1.5809)
(-3.88358 -1.24579 1.84824)
(-4.03808 -1.31134 1.5639)
(-3.95062 -1.64515 2.63471)
(-3.89843 -1.05927 0.716481)
(-2.05555 0.923031 0.698106)
(-1.83161 0.743759 1.01868)
(-1.15595 0.802926 0.419519)
(-0.793295 1.25136 0.456945)
(-0.698744 0.496593 1.34813)
(-1.30561 -1.32843 1.4016)
(-2.30437 -1.22929 1.5216)
(-1.63782 -2.49811 -0.0739301)
(-0.609579 -2.48487 0.425238)
(-0.749687 -1.18797 -0.320753)
(0.442589 -0.332196 -0.00540973)
(0.141859 -0.510129 0.286314)
(-0.515936 0.751388 -0.691498)
(-0.400217 0.499578 -0.463181)
(-0.0615179 -0.105179 -0.572691)
(-0.110523 0.0229725 -0.704831)
(-0.036148 -0.21101 0.478858)
(0.745302 -0.460284 -0.887281)
(1.07129 -0.725395 -1.26603)
(1.69423 -1.38547 -0.440029)
(1.51609 -0.637199 -0.247956)
(-1.85444 -1.54634 0.167909)
(-2.65814 -1.08858 0.207429)
(-2.22782 -1.48648 0.0251066)
(-3.13606 -0.505698 0.0745753)
(-3.13399 -0.932405 -0.292909)
(-2.60941 -1.75413 -0.132928)
(-3.54196 -0.411257 0.298187)
(-3.385 -0.640772 0.138635)
(-3.1745 -1.14353 0.389644)
(-2.15921 -2.57254 0.0821247)
(-3.90154 0.265497 0.680771)
(-3.90476 -0.373499 0.643345)
(-3.97744 -1.09232 0.551652)
(-3.3823 -1.27994 0.35661)
(-3.42132 -1.34029 0.0805875)
(-4.35464 -0.425775 1.3025)
(-4.27129 -0.130879 0.933698)
(-4.25117 -0.20727 0.636675)
(-4.23212 -1.24974 0.69688)
(-4.19942 -2.1719 0.245901)
(-2.87379 -2.92232 -0.00500518)
(-4.96299 0.879763 1.64048)
(-5.18753 0.445471 1.31221)
(-5.38313 0.247923 0.861566)
(-5.27729 -0.522133 0.758693)
(-4.69695 -1.52543 0.221795)
(-4.52847 -2.03251 1.07919)
(-4.24336 -2.97471 0.256163)
(-5.39308 1.52416 1.40606)
(-5.53467 1.0667 1.12945)
(-5.79973 0.178935 1.30536)
(-5.85801 -0.390382 1.31157)
(-5.52623 -1.83543 1.14326)
(-5.14466 -2.13793 0.378165)
(-4.39977 -3.38393 1.00761)
(-3.44243 -2.24977 1.51877)
(-3.30156 0.166551 2.16293)
(-3.65809 1.49294 1.44778)
(-4.23011 1.65387 1.78224)
(-4.71741 0.271353 2.06777)
(-5.20771 -0.823559 1.15208)
(-5.35796 -0.557827 1.9949)
(-4.92449 -1.32163 2.33499)
(-4.60297 -2.95865 1.50084)
(-3.91931 -1.61977 0.881413)
(-2.74639 0.617525 1.95196)
(-2.12056 0.540728 2.08235)
(-1.70149 0.568531 2.45442)
(-1.78936 0.339458 2.64504)
(-1.68976 -0.00894012 2.61736)
(-2.75422 -0.15068 1.70998)
(-3.66765 -1.65643 1.39362)
(-4.0391 -0.990833 1.51886)
(-4.03305 -1.314 2.64905)
(-3.41386 -1.41316 1.09761)
(-1.67984 0.568578 0.0424884)
(-2.08323 0.858064 0.46272)
(-1.8477 0.64689 0.811959)
(-1.10528 0.609873 0.213543)
(-0.876454 1.50224 0.063899)
(-0.763186 0.578061 1.28957)
(-1.19449 -1.4208 1.50431)
(-2.15108 -1.48996 1.38773)
(-1.44343 -2.62011 -0.317816)
(-0.447008 -2.54268 0.306207)
(-0.584933 -1.3418 -0.154258)
(0.287371 -0.225403 -0.307781)
(0.454226 -0.337155 -0.00493535)
(0.188206 -0.525875 0.316035)
(-0.514024 0.794024 -0.75653)
(-0.400229 0.491656 -0.633887)
(-0.0421525 -0.00938087 -0.719796)
(-0.133884 0.0914526 -0.709323)
(-0.0367924 -0.236461 0.508979)
(0.772286 -0.429244 -0.887792)
(1.04375 -0.719052 -1.2514)
(1.67167 -1.39481 -0.383215)
(1.49476 -0.649435 -0.239923)
(-1.88874 -1.32804 -0.0167226)
(-2.33947 -1.12901 0.199463)
(-1.92087 -1.52334 0.126727)
(-2.79387 -0.828479 0.318881)
(-2.83214 -0.897044 0.202508)
(-2.18426 -1.64033 0.0253736)
(-3.12784 -0.395058 0.204839)
(-3.08184 -0.894536 0.174961)
(-3.11693 -1.31312 -0.15433)
(-2.44796 -1.94148 -0.15343)
(-3.57147 0.217375 0.581418)
(-3.52444 -0.307025 0.345925)
(-3.4719 -0.672537 0.29007)
(-3.14036 -1.48389 0.175617)
(-2.06402 -2.62702 0.17997)
(-4.17182 -0.181679 0.684795)
(-3.94543 -0.114597 0.704922)
(-3.9394 -0.429954 0.418912)
(-3.74307 -1.22496 0.539203)
(-3.29369 -1.55663 0.291517)
(-2.39001 -2.7613 0.402915)
(-4.19921 0.39773 1.49459)
(-4.36147 -0.672172 1.12604)
(-4.2085 -0.279102 1.04386)
(-4.10004 -0.754043 0.720046)
(-4.23484 -0.95782 0.78431)
(-4.0619 -2.41842 0.214781)
(-2.78973 -3.19598 -0.0955731)
(-4.73714 1.18161 1.69986)
(-4.9365 1.0396 1.8769)
(-5.32078 0.322897 1.51697)
(-5.30453 -0.0234485 1.21588)
(-5.06212 -0.397836 0.947942)
(-4.5817 -1.34537 0.343378)
(-4.35645 -2.38414 0.841018)
(-4.20105 -3.23792 0.280797)
(-5.36716 1.05503 2.08764)
(-5.52054 1.10579 1.46554)
(-5.48077 0.866578 1.08212)
(-5.80197 0.116258 1.10045)
(-5.73945 -0.811883 1.60962)
(-5.47113 -0.805948 1.05441)
(-5.56805 -0.376494 0.487876)
(-4.53296 -3.58998 0.814779)
(-2.98443 -2.76316 1.3801)
(-3.37067 -0.0420968 2.14746)
(-3.25985 -0.081344 2.27035)
(-3.50639 0.596306 1.93178)
(-4.13684 1.36233 1.51226)
(-4.60841 0.763251 2.59354)
(-5.12351 -0.985735 1.48702)
(-5.30636 -0.481157 2.02642)
(-4.87181 -0.980429 2.92317)
(-4.52774 -2.8015 1.52765)
(-3.77471 -1.7612 0.946122)
(-2.92499 0.470167 2.05808)
(-2.66389 0.491483 2.10598)
(-2.17666 0.68239 2.02167)
(-1.75688 0.682432 2.65922)
(-1.7562 0.46782 2.8436)
(-1.46601 -0.0377639 2.86298)
(-2.58524 0.00256604 1.97077)
(-3.32186 -1.37301 1.8796)
(-4.05124 -0.6046 1.20847)
(-3.95425 -1.41275 1.64801)
(-2.52803 -2.25325 0.859163)
(-1.34704 -0.269746 0.833669)
(-1.65725 0.15674 0.312427)
(-2.04935 0.772684 0.102363)
(-1.84563 0.515928 0.39019)
(-1.06067 0.514899 0.185277)
(-0.940082 1.64748 0.286164)
(-0.82958 0.669552 1.31936)
(-1.14025 -1.42534 1.53762)
(-2.19063 -1.13932 1.29387)
(-1.16041 -2.74561 -0.695241)
(-0.195537 -2.73049 0.244677)
(-0.432427 -1.47002 -0.0702082)
(-0.00895058 0.152203 -0.94672)
(0.27207 -0.240655 -0.28664)
(0.463599 -0.33989 -0.0072957)
(0.235742 -0.523098 0.322021)
(-0.492427 0.755149 -0.84849)
(-0.383015 0.4316 -0.807756)
(-0.0422617 0.120065 -0.822566)
(-0.16047 0.153827 -0.691912)
(-0.0362205 -0.267115 0.514614)
(0.810507 -0.381635 -0.857342)
(1.00526 -0.707863 -1.22718)
(1.65298 -1.38446 -0.36178)
(1.5343 -0.638084 -0.231441)
(-1.59733 -1.50877 -0.0397137)
(-2.23847 -1.18993 0.0481778)
(-1.86972 -1.32931 -0.00333387)
(-2.52797 -1.08819 0.458532)
(-2.26421 -1.37406 0.160403)
(-1.54301 -1.9319 0.0510281)
(-2.89359 -0.519641 0.367662)
(-2.85766 -1.05477 0.379056)
(-2.64756 -1.4094 0.102339)
(-2.18903 -1.67055 0.0182947)
(-3.19609 -0.27225 0.325599)
(-3.13776 -0.595615 0.205659)
(-3.14045 -0.978069 0.180541)
(-3.12683 -1.33207 -0.0242051)
(-2.18672 -2.15562 -0.116907)
(-3.55697 -0.247933 0.651389)
(-3.53245 -0.532768 0.385632)
(-3.52929 -0.54655 0.394911)
(-3.35689 -1.0297 0.380199)
(-2.99575 -1.9389 0.185313)
(-2.12576 -2.64692 0.0864389)
(-4.13148 0.078486 0.998751)
(-3.91452 0.038729 0.862622)
(-3.95773 -0.362756 0.856143)
(-3.82987 -1.01791 0.596032)
(-3.7177 -1.32332 0.494988)
(-2.93945 -2.32984 0.408091)
(-2.22618 -3.04463 0.261662)
(-4.61783 -1.38159 1.37654)
(-4.35705 0.00195671 1.54119)
(-4.52488 -0.489612 0.952869)
(-4.38174 0.377541 1.10828)
(-4.25961 -0.579256 0.789187)
(-3.95994 -1.51853 0.795853)
(-4.0141 -2.51597 0.403907)
(-2.70352 -3.4784 -0.0397673)
(-4.88314 0.885074 2.31147)
(-4.97932 0.497695 2.0438)
(-5.15372 0.0463271 1.76435)
(-5.16113 0.259964 1.722)
(-5.01784 -0.020028 1.44932)
(-4.81245 -0.407583 1.02978)
(-4.57027 -1.55464 0.579979)
(-3.93099 -2.8256 0.819964)
(-4.12516 -3.52935 0.250413)
(-4.68175 0.830217 2.43631)
(-5.15639 0.363765 2.04584)
(-5.44277 0.60454 1.73279)
(-5.57541 0.764195 1.22214)
(-5.65323 -0.382757 1.21269)
(-5.75842 -0.499131 1.2689)
(-5.66656 -0.180755 0.846519)
(-5.73543 -0.826971 1.21363)
(-4.50022 -3.79791 0.699925)
(-2.63011 -3.38539 1.07515)
(-3.54515 -0.129366 2.31946)
(-3.38814 0.152168 2.09572)
(-3.20961 -0.123128 2.34924)
(-3.44748 0.324923 2.10962)
(-3.99843 0.792545 1.57634)
(-4.7805 0.624562 2.45171)
(-4.94078 -1.12062 2.01091)
(-5.00301 -0.342282 2.44282)
(-4.67565 -0.958108 2.80236)
(-4.45092 -3.01828 1.57611)
(-3.57606 -1.95559 0.935463)
(-2.9635 0.562548 1.7887)
(-2.89871 0.344544 2.20024)
(-2.70796 0.465729 2.08112)
(-2.2633 0.892218 1.98345)
(-1.80101 0.717998 2.74047)
(-1.77417 0.412967 2.83616)
(-1.21176 -0.484061 2.7615)
(-2.31279 -0.13497 2.2076)
(-3.28881 -1.23603 2.05095)
(-3.8832 -0.401245 1.28412)
(-3.58335 -1.55259 1.07458)
(-2.30254 -2.193 0.785342)
(-1.13989 0.24727 0.768052)
(-1.29018 -0.382562 0.983146)
(-1.59654 -0.0244127 0.473972)
(-2.01168 0.615887 -0.00802925)
(-1.77673 0.308584 0.0238)
(-1.06719 0.666337 0.221884)
(-0.945086 1.56929 0.597422)
(-0.964868 0.674586 1.2886)
(-1.04457 -1.42516 1.6)
(-2.10128 -1.01238 1.32209)
(-0.798913 -2.86324 -1.16904)
(0.178761 -3.08881 0.304707)
(-0.263078 -1.61747 -0.114286)
(-0.21556 0.73102 -1.75676)
(-0.0282749 0.118151 -0.873277)
(0.261944 -0.258254 -0.26419)
(0.465487 -0.339925 -0.0030783)
(0.276243 -0.513629 0.315422)
(-0.453282 0.651669 -0.830538)
(-0.336278 0.331752 -0.967103)
(-0.065434 0.264827 -0.857088)
(-0.194108 0.219503 -0.644952)
(-0.0442435 -0.271228 0.499639)
(0.828863 -0.336198 -0.832372)
(0.953785 -0.685219 -1.18346)
(1.58796 -1.36411 -0.370782)
(1.51231 -0.622729 -0.197271)
(-1.66028 -1.18813 2.66062e-05)
(-2.06474 -1.17631 0.0819211)
(-1.56306 -1.53914 -0.0561774)
(-2.43816 -0.784731 0.254499)
(-2.22053 -1.16969 0.0776989)
(-1.77747 -1.41056 -0.0263717)
(-2.71263 -0.684386 0.406937)
(-2.50709 -1.12436 0.486024)
(-2.23321 -1.42649 0.130704)
(-1.7114 -1.81432 0.0427204)
(-2.88195 -0.518558 0.475023)
(-2.92653 -0.712844 0.388345)
(-2.8005 -1.31272 0.284241)
(-2.57793 -1.58005 0.0598399)
(-2.04185 -1.81519 0.0093064)
(-3.29175 -0.460646 0.564435)
(-3.24629 -0.485465 0.440873)
(-3.21894 -0.732177 0.315151)
(-3.16971 -1.30819 0.119651)
(-3.08039 -1.40431 0.038097)
(-2.00405 -2.33077 -0.0859294)
(-3.56288 0.150785 0.82691)
(-3.52017 -0.543616 0.712144)
(-3.56403 -0.882764 0.395459)
(-3.4755 -0.970942 0.455205)
(-3.25611 -1.4604 0.318717)
(-2.68022 -2.44663 0.340443)
(-1.9605 -2.75258 0.046809)
(-4.31413 -0.0142436 1.16502)
(-4.08071 0.00809461 0.997727)
(-3.88404 0.415536 1.0198)
(-3.98699 -0.691493 0.916371)
(-3.87528 -1.0448 0.83761)
(-3.68494 -1.76835 0.451435)
(-3.48286 -1.94188 0.600015)
(-2.20063 -3.00068 0.249474)
(-4.29992 1.53015 2.15678)
(-4.02866 1.75243 1.8334)
(-4.36691 0.0683652 1.60551)
(-4.36133 0.181656 1.59954)
(-4.28755 -0.751881 1.45911)
(-4.07438 -1.10856 0.954403)
(-3.85987 -1.97262 0.741169)
(-3.34238 -3.1727 0.371413)
(-2.6647 -3.65354 -0.0303609)
(-4.92513 0.163119 2.75058)
(-4.70947 1.12863 2.6548)
(-4.8556 0.712999 2.37963)
(-4.84163 0.128937 2.0045)
(-4.95398 -0.29801 1.72419)
(-4.84917 -0.179405 1.31033)
(-4.77382 -0.63685 1.24762)
(-4.60615 -2.33907 0.50374)
(-4.09443 -2.67123 0.877331)
(-3.75984 -4.07315 0.190192)
(-4.16007 0.478197 2.82274)
(-4.58155 0.100541 2.55986)
(-4.55122 0.155682 2.33487)
(-5.04752 -0.154802 2.21359)
(-5.57431 0.0765604 1.71522)
(-5.77661 -0.330561 1.28209)
(-5.76006 -0.155775 1.10682)
(-5.56353 -0.688301 1.59119)
(-5.64748 -1.23918 1.46377)
(-4.13916 -4.31364 0.904627)
(-2.38229 -3.93831 0.756593)
(-3.72107 0.477738 2.06351)
(-3.59338 0.220255 2.48384)
(-3.403 0.208689 2.27866)
(-3.26578 0.00311509 2.32997)
(-3.32426 0.253789 2.40208)
(-3.89239 0.411626 1.76983)
(-4.38824 -0.00997576 2.74472)
(-4.69784 -0.933177 2.56517)
(-4.99265 -0.45599 2.55705)
(-4.53448 -1.11362 2.6738)
(-4.685 -2.77042 1.59641)
(-3.36159 -2.092 0.647323)
(-2.71914 0.704801 1.34515)
(-2.95049 0.70695 1.72448)
(-3.00773 0.673247 2.03924)
(-2.73477 0.618481 1.84938)
(-2.40802 1.09393 1.89237)
(-1.89024 0.662266 2.44921)
(-1.76452 0.0985934 2.64903)
(-0.841209 -1.1788 2.43391)
(-1.91796 -0.605581 2.05926)
(-3.15662 -0.970198 2.33431)
(-3.24042 -0.837144 1.88191)
(-3.55436 -1.07776 1.48834)
(-2.36239 -1.64233 0.878028)
(-0.813103 0.386588 0.433587)
(-1.12303 0.0541323 1.05061)
(-1.14576 -0.386572 1.16554)
(-1.38224 -0.206105 0.878933)
(-1.83424 0.276404 0.375747)
(-1.67263 0.136731 0.119059)
(-1.1326 0.980684 0.286334)
(-0.881635 1.24951 0.980202)
(-1.06452 0.679747 1.24216)
(-1.00568 -1.4631 1.56695)
(-1.49938 -1.61783 1.47547)
(-0.677974 -2.80075 -1.27871)
(0.566553 -3.31528 0.360213)
(0.00590546 -1.73972 -0.227975)
(-0.592943 0.94362 -0.900396)
(-0.221312 0.608197 -1.67911)
(-0.0463866 0.0878192 -0.809103)
(0.258042 -0.277205 -0.241111)
(0.467924 -0.335873 -0.00795555)
(0.315218 -0.496262 0.29523)
(-0.391447 0.501536 -0.736133)
(-0.268674 0.228484 -1.09328)
(-0.103379 0.382662 -0.81803)
(-0.224472 0.273202 -0.574835)
(-0.0610661 -0.261043 0.46226)
(0.830626 -0.288714 -0.813162)
(0.899425 -0.656796 -1.13376)
(1.47993 -1.33156 -0.393437)
(1.47496 -0.613631 -0.163811)
(-1.50035 -1.2171 0.00800355)
(-1.94702 -1.08739 -0.0866096)
(-1.60742 -1.22726 -0.0040294)
(-2.23273 -1.05469 -0.0212219)
(-2.01927 -1.20437 0.151838)
(-1.44529 -1.63678 -0.0489424)
(-2.46157 -0.62534 0.0729692)
(-2.42914 -0.799134 0.228194)
(-2.0099 -1.38685 0.0289435)
(-1.67607 -1.52445 -0.0191225)
(-2.70269 -0.610199 0.506807)
(-2.75248 -0.77239 0.296214)
(-2.33951 -1.33061 0.328873)
(-2.13196 -1.51791 0.0989011)
(-1.47665 -2.0131 0.0330609)
(-2.91668 -0.549661 0.549986)
(-2.90108 -0.775524 0.433778)
(-2.95038 -0.845205 0.328654)
(-2.84258 -1.24744 0.34431)
(-2.5879 -1.64224 0.0901372)
(-2.07244 -1.87909 0.0248543)
(-3.27034 -0.377786 0.698678)
(-3.28163 -0.635711 0.57501)
(-3.2371 -0.605894 0.43149)
(-3.20795 -0.848249 0.328154)
(-3.07059 -1.50633 0.140037)
(-2.72031 -1.95494 0.0272625)
(-1.72429 -2.58142 -0.00458407)
(-3.56502 -0.0222544 1.03376)
(-3.53729 -0.360423 0.839564)
(-3.59948 -0.464726 0.671586)
(-3.52081 -0.91193 0.50091)
(-3.43709 -1.01366 0.471775)
(-3.3839 -1.47685 0.412435)
(-2.51156 -2.66955 0.213884)
(-1.82396 -2.80501 0.102261)
(-4.14621 0.148261 1.29506)
(-4.05876 0.121358 1.21914)
(-4.06274 0.0100836 1.05602)
(-4.08759 -0.263177 1.03225)
(-4.06884 -0.972123 0.921623)
(-3.84761 -1.23815 0.771517)
(-3.55694 -1.92497 0.474339)
(-2.8067 -2.74732 0.0583003)
(-1.88181 -3.13879 0.321807)
(-4.30037 1.95242 2.36095)
(-4.71108 0.275994 2.10239)
(-4.59779 -0.0513602 1.81317)
(-4.19495 -0.0347423 1.67631)
(-4.17491 -1.05425 1.41516)
(-4.24179 -1.05025 1.32596)
(-4.15501 -1.30031 1.05957)
(-3.83485 -1.92837 0.814451)
(-3.263 -3.32698 0.527188)
(-2.21578 -4.01688 0.177345)
(-4.78638 0.200388 3.09342)
(-4.53225 0.662209 3.17117)
(-4.43576 0.433553 2.72124)
(-4.44979 -0.498406 2.60975)
(-4.9214 -0.426951 2.03338)
(-5.14758 0.229054 1.59817)
(-5.06783 0.0629365 1.53871)
(-4.92747 -0.850782 1.62722)
(-4.74122 -2.21967 0.21879)
(-4.05425 -2.92181 1.05451)
(-3.40556 -4.50663 0.0401595)
(-4.03375 0.113834 2.93424)
(-4.15666 0.0691621 2.97176)
(-4.34824 -0.110018 2.68321)
(-4.49648 -0.0893974 2.40693)
(-5.01732 -0.368257 2.35648)
(-5.41058 -0.0105026 1.78403)
(-5.79693 0.0784149 1.25365)
(-5.62692 0.463372 1.38885)
(-5.46279 -0.620429 1.88347)
(-5.07826 -2.27176 1.68187)
(-4.14719 -4.22649 0.661286)
(-2.16146 -4.34027 0.788112)
(-3.93435 0.467992 2.039)
(-3.82603 0.923555 1.838)
(-3.7167 -0.0339935 2.43799)
(-3.45185 -0.120984 2.65895)
(-3.27861 0.164026 2.40116)
(-3.36987 0.384925 2.5567)
(-3.74834 0.145339 2.1771)
(-4.09716 -0.330185 3.1073)
(-4.56262 -0.596358 2.99875)
(-4.73164 -0.616425 2.81949)
(-4.53725 -1.1397 2.69716)
(-4.78143 -2.64594 1.65596)
(-3.29153 -2.20291 0.502248)
(-2.41657 0.317456 1.1834)
(-2.71083 0.622679 1.43999)
(-2.90345 0.904832 1.63765)
(-3.02575 0.731615 1.91387)
(-2.77736 0.584169 1.64583)
(-2.41867 0.998033 1.90783)
(-1.78662 0.393195 2.19529)
(-1.67558 -0.304032 2.39848)
(-0.621815 -1.4419 2.1087)
(-1.44209 -1.11293 1.57653)
(-2.84812 -1.17955 2.23614)
(-2.48262 -1.23119 1.90224)
(-3.37352 -0.921227 1.66438)
(-1.90915 -1.72616 0.628434)
(-0.266168 -0.168639 0.965141)
(-0.815734 0.291644 0.741826)
(-1.06134 -0.0909346 1.3121)
(-1.06313 -0.372757 1.26412)
(-1.28165 -0.241795 1.0508)
(-1.62343 -0.0737956 0.851094)
(-1.53405 -0.00785078 0.539103)
(-1.20659 1.23317 0.511404)
(-0.711808 0.817985 1.2697)
(-1.18347 0.711466 1.17694)
(-0.998618 -1.4957 1.49432)
(-1.16606 -1.86416 1.45094)
(-0.697439 -2.55557 -1.19708)
(0.531514 -3.11975 0.397505)
(0.215321 -1.84906 -0.293482)
(-0.331278 0.0267413 -0.567805)
(-0.598959 0.86851 -0.986026)
(-0.220289 0.49858 -1.59471)
(-0.0621773 0.0596618 -0.753148)
(0.256831 -0.302309 -0.213331)
(0.4742 -0.338199 -0.0141628)
(0.341228 -0.472623 0.271581)
(-0.308057 0.338928 -0.595873)
(-0.190416 0.149662 -1.17448)
(-0.149565 0.467739 -0.719365)
(-0.243764 0.309857 -0.487229)
(-0.0808323 -0.250258 0.387003)
(0.817738 -0.243836 -0.806421)
(0.850972 -0.629214 -1.083)
(1.3866 -1.27847 -0.432858)
(1.44849 -0.588347 -0.127918)
(-1.46634 -1.01774 -0.0243784)
(-1.8618 -0.991498 -0.048562)
(-1.38453 -1.31387 -0.0272336)
(-2.16506 -0.640554 -0.0212348)
(-1.93608 -1.0926 -0.123259)
(-1.51745 -1.32608 -0.00347713)
(-2.22166 -0.827499 0.120294)
(-2.26229 -1.01109 -0.0542677)
(-1.9212 -1.31644 0.137502)
(-1.44271 -1.66201 -0.0570617)
(-2.53345 -0.646059 0.293658)
(-2.49165 -0.562582 0.0671176)
(-2.22549 -1.10649 0.14604)
(-1.95387 -1.46631 0.0310914)
(-1.59335 -1.64061 -0.0101628)
(-2.74479 -0.588666 0.431084)
(-2.70457 -0.70283 0.371562)
(-2.70761 -0.826936 0.273426)
(-2.31312 -1.37913 0.263555)
(-2.08167 -1.56422 0.0416966)
(-1.48405 -2.06805 0.0280174)
(-2.89504 -0.404126 0.626642)
(-2.91853 -0.595232 0.488785)
(-2.95769 -0.903134 0.33448)
(-2.96884 -0.962934 0.26128)
(-2.80816 -1.38627 0.246783)
(-2.52015 -1.75095 0.10094)
(-1.73426 -2.2418 0.0415198)
(-3.25941 -0.298243 0.832118)
(-3.25968 -0.501462 0.687767)
(-3.24381 -0.485712 0.582217)
(-3.14681 -0.699379 0.364201)
(-3.10049 -1.0145 0.285702)
(-2.93745 -1.75733 0.155715)
(-2.46749 -2.19554 0.0880017)
(-1.39123 -2.86549 -0.0831268)
(-3.58475 0.0306985 1.10024)
(-3.55602 -0.38445 0.902413)
(-3.69588 -0.227043 0.878582)
(-3.66487 -0.728082 0.652354)
(-3.53565 -0.707433 0.539994)
(-3.40882 -1.15023 0.495135)
(-2.89482 -2.23555 0.443602)
(-2.63617 -2.57674 0.316386)
(-1.68269 -2.91957 0.105537)
(-4.1086 0.187263 1.53362)
(-4.21295 -0.0396897 1.38848)
(-4.27237 0.0120992 1.25967)
(-4.18086 -0.368143 1.14682)
(-4.04663 -0.637985 1.01205)
(-4.00377 -1.14753 0.811445)
(-3.68867 -1.51642 0.742721)
(-3.62513 -1.93883 0.649027)
(-2.50656 -3.34089 0.0566572)
(-1.67972 -3.39609 0.321121)
(-4.61801 -0.26618 1.85942)
(-4.9209 -0.270423 1.99125)
(-4.73072 0.00525925 2.02834)
(-4.58671 -0.319877 1.67629)
(-4.18527 -0.387993 1.66957)
(-4.48636 0.980528 1.68043)
(-4.35267 -1.06271 1.43544)
(-4.19188 -1.63669 1.02222)
(-3.79851 -1.7875 0.981909)
(-3.3303 -3.54334 0.609249)
(-1.84536 -4.2863 0.239423)
(-4.9298 -0.063337 3.14915)
(-4.59812 0.355337 3.35696)
(-4.60332 -0.430889 2.71059)
(-4.29762 -0.0130979 2.82872)
(-4.41057 0.403767 2.80488)
(-4.83658 -0.0370926 2.60911)
(-4.66286 -1.24893 2.25844)
(-4.82868 -0.821581 1.86133)
(-4.57624 -1.35829 1.83601)
(-4.35773 -2.48608 0.5671)
(-3.4719 -3.53652 1.13041)
(-3.16974 -4.74359 0.169619)
(-4.04931 0.0253578 3.3345)
(-4.00457 0.0429614 3.02009)
(-4.14346 -0.071121 3.06969)
(-4.32044 -0.0383463 2.74721)
(-4.52775 -0.171199 2.67762)
(-4.84358 -0.88203 2.4168)
(-5.11105 -0.0743224 2.03891)
(-5.4109 -1.08488 1.84518)
(-5.48347 -0.356323 2.00061)
(-5.80586 -0.719489 1.29613)
(-5.04688 -2.56289 1.86214)
(-4.25486 -4.20583 0.377018)
(-2.08396 -4.7311 0.763447)
(-4.0448 0.311213 2.14902)
(-3.9333 0.684793 1.9274)
(-3.96122 0.60171 1.86611)
(-3.64708 -0.124579 2.61649)
(-3.47868 0.0244178 2.69484)
(-3.36248 0.164073 2.45363)
(-3.38078 0.321324 2.58596)
(-3.60588 0.0898745 2.55804)
(-3.86472 -0.460416 3.30883)
(-4.38041 -0.365513 3.2689)
(-4.48102 -0.466012 2.97955)
(-4.47741 -1.01353 2.69131)
(-4.7586 -2.57544 2.04543)
(-2.8639 -2.70979 0.330593)
(-2.08321 0.603544 0.994425)
(-2.3912 0.415548 1.1785)
(-2.72483 1.02012 0.927904)
(-2.92628 0.609526 1.61821)
(-3.00122 0.673559 1.82009)
(-2.59606 0.146565 1.92542)
(-2.32811 0.681202 1.83804)
(-1.81255 0.206641 1.83784)
(-1.74313 -0.316779 2.12889)
(-0.570107 -1.2582 1.72955)
(-1.0974 -1.25067 1.09554)
(-2.36385 -1.64796 1.56688)
(-1.90685 -1.63101 0.859367)
(-2.7256 -1.25774 1.31189)
(-1.09821 -2.20978 0.196092)
(-0.293019 -0.104565 0.494155)
(-0.269257 -0.154164 1.15299)
(-0.811691 0.225113 1.04648)
(-0.967896 -0.141753 1.5117)
(-0.960596 -0.394247 1.44409)
(-1.14012 -0.319543 1.32841)
(-1.48899 -0.180386 1.04996)
(-1.49093 0.0319352 0.661848)
(-1.18069 1.1558 0.978793)
(-0.491215 0.368513 1.45377)
(-1.27836 0.692476 1.14205)
(-1.04862 -1.44818 1.44259)
(-0.840521 -2.01928 1.31401)
(-0.738346 -2.33201 -1.13503)
(0.371226 -2.78474 0.272256)
(0.340797 -1.95534 -0.259531)
(-0.574638 0.358145 -0.2329)
(-0.320262 -0.0582411 -0.541768)
(-0.598055 0.765946 -1.02666)
(-0.214962 0.401882 -1.50183)
(-0.0748693 0.0328011 -0.704265)
(0.257044 -0.319593 -0.200706)
(0.479347 -0.338644 -0.0302612)
(0.363619 -0.445761 0.247854)
(-0.204385 0.182679 -0.42658)
(-0.14505 0.147038 -1.17242)
(-0.187402 0.501574 -0.608876)
(-0.246861 0.324318 -0.392389)
(-0.0958707 -0.236344 0.271341)
(0.791796 -0.202766 -0.806083)
(0.81102 -0.607852 -1.03258)
(1.30989 -1.20987 -0.471408)
(1.40438 -0.569377 -0.0922592)
(-1.3128 -1.00148 0.0136721)
(-1.76711 -0.895685 0.00237446)
(-1.34979 -1.12297 -0.0410188)
(-1.81084 -1.27093 -0.0341372)
(-1.79526 -1.04542 0.0928404)
(-1.33726 -1.36843 -0.0470384)
(-2.16462 -0.858093 0.00316151)
(-2.07317 -0.738828 0.00498647)
(-1.80809 -1.28392 -0.0699266)
(-1.46271 -1.41688 -0.00599318)
(-2.29504 -0.756978 0.203049)
(-2.24584 -0.944873 0.102676)
(-2.11501 -1.19094 0.0132923)
(-1.84621 -1.42458 0.115526)
(-1.29625 -1.78665 -0.01034)
(-2.59632 -0.477362 0.287369)
(-2.47854 -0.870872 0.363557)
(-2.48775 -0.662554 0.136946)
(-2.25519 -1.11478 0.137846)
(-1.90983 -1.54062 0.0493896)
(-1.48481 -1.78709 -0.0214915)
(-2.71443 -0.52518 0.516362)
(-2.64308 -1.04503 0.429514)
(-2.65596 -0.95185 0.340647)
(-2.6344 -0.944838 0.258529)
(-2.20469 -1.63153 0.147376)
(-2.01989 -1.70286 0.0267163)
(-1.41285 -2.21241 0.0396437)
(-2.95556 -0.422457 0.707892)
(-2.89131 -0.437068 0.644353)
(-2.97655 -0.658166 0.486641)
(-2.98118 -1.05028 0.342627)
(-2.99225 -1.05594 0.289863)
(-2.74629 -1.60023 0.200853)
(-2.32737 -1.96998 0.11443)
(-1.58949 -2.39737 0.018527)
(-3.21577 -0.145045 0.960501)
(-3.24886 -0.411298 0.81679)
(-3.29544 -0.482522 0.623171)