/*--------------------------------*- C++ -*----------------------------------*\
  =========                 |
  \\      /  F ield         | OpenFOAM: The Open Source CFD Toolbox
   \\    /   O peration     | Website:  https://openfoam.org
    \\  /    A nd           | Version:  7
     \\/     M anipulation  |
\*---------------------------------------------------------------------------*/
FoamFile
{
    version     2.0;
    format      ascii;
    class       volVectorField;
    location    "4";
    object      U_0;
}
// * * * * * * * * * * * * * * * * * * * * * * * * * * * * * * * * * * * * * //

dimensions      [0 1 -1 0 0 0 0];

internalField   nonuniform List<vector> 
18750
(
(1.48304 -0.731976 -0.382604)
(-0.971166 -0.307055 -0.106256)
(1.74388 -1.07787 -0.839643)
(1.47825 -0.74398 -0.37448)
(-4.82294 -1.62144 0.911916)
(-1.23741 -2.12516 0.603544)
(-1.02548 -0.459614 -0.100209)
(1.15527 -0.646699 -1.37102)
(1.66023 -1.16849 -0.767663)
(1.51412 -0.760145 -0.391762)
(-6.39932 -1.81086 0.543556)
(-4.47002 -1.6218 2.19834)
(-4.67288 -2.09524 1.15771)
(-2.31697 -1.68891 1.03838)
(-1.25281 -2.1504 0.616624)
(-1.06542 -0.535716 -0.187599)
(0.560346 -0.320959 -0.3675)
(1.13929 -0.67185 -1.35929)
(1.69061 -1.08549 -0.850055)
(1.5023 -0.760531 -0.391827)
(-4.81281 -2.14473 -0.0615434)
(-5.22567 -1.7641 2.04568)
(-6.00347 -2.24103 0.677199)
(-4.39265 -1.28217 1.90222)
(-4.42723 -1.83931 1.96399)
(-4.55498 -2.32651 1.22685)
(-2.33948 -0.993974 1.31439)
(-2.28808 -1.73631 0.984398)
(-1.23921 -2.19205 0.65988)
(-1.10471 -0.604471 -0.29626)
(0.00130482 0.0375603 0.272613)
(0.575687 -0.399826 -0.491849)
(1.138 -0.695702 -1.33988)
(1.66854 -1.26379 -0.722164)
(1.45589 -0.717317 -0.387748)
(-4.59081 -1.91266 0.10651)
(-5.39715 -0.990971 1.32848)
(-4.5139 -2.31584 -0.0584982)
(-5.05935 -0.748939 1.77209)
(-5.09487 -2.26728 1.5536)
(-5.76194 -2.27516 0.738798)
(-3.9714 -1.06166 1.45571)
(-4.45341 -0.966196 1.83388)
(-4.45787 -1.92946 1.81445)
(-4.41471 -2.30351 0.82961)
(-1.52019 -0.952416 0.920166)
(-2.38504 -0.787038 1.52904)
(-2.25345 -1.6493 1.19853)
(-1.16589 -2.24709 0.72769)
(-1.13449 -0.678421 -0.408462)
(-0.102995 0.230791 -0.563666)
(-0.0188973 0.0188216 0.291359)
(0.602304 -0.460591 -0.594323)
(1.13513 -0.711644 -1.32752)
(1.65873 -1.2693 -0.704084)
(1.45171 -0.706223 -0.38635)
(-4.18633 -0.317681 0.0831754)
(-5.55733 -0.0792295 -0.359042)
(-4.3561 -2.40524 0.0485792)
(-5.31717 -0.338025 1.00231)
(-5.21505 -1.6244 1.40967)
(-4.50833 -1.746 0.376033)
(-5.32764 -0.848468 1.40159)
(-5.01546 -0.941521 1.69)
(-4.92578 -2.36947 1.61995)
(-5.43712 -2.04926 0.395136)
(-3.25954 0.0711689 1.3329)
(-3.98895 -1.12313 1.37715)
(-4.31624 -1.37606 1.76943)
(-4.33043 -2.32103 2.21981)
(-4.13239 -2.47765 0.617428)
(-0.662052 -0.228546 1.86701)
(-1.51057 -0.977305 0.93581)
(-2.45837 -0.780884 1.65682)
(-2.1585 -1.92832 0.759398)
(-1.22185 -2.23014 0.675628)
(-1.17925 -0.677939 -0.550641)
(-0.18274 -0.185378 0.13529)
(-0.112752 0.134801 -0.601175)
(-0.0355784 -0.0167986 0.326912)
(0.633423 -0.497578 -0.683064)
(1.12068 -0.718839 -1.31869)
(1.6272 -1.32722 -0.628897)
(1.45114 -0.667993 -0.370184)
(-3.18648 -1.65234 0.43253)
(-4.35105 -0.974466 0.150153)
(-3.19325 -2.59128 0.115171)
(-5.26867 -0.28839 0.344516)
(-5.45282 0.447713 0.829459)
(-4.31443 -2.57351 0.0682201)
(-6.12979 0.0140394 0.789067)
(-5.35743 -0.846432 0.892016)
(-4.45624 -2.89408 1.16711)
(-4.38311 -1.49683 1.03485)
(-5.41858 0.321888 1.74786)
(-5.10326 -0.990211 1.71928)
(-4.97771 -1.09862 1.76647)
(-4.92467 -2.25321 1.80843)
(-4.99335 -1.99386 0.365694)
(-2.2682 0.347571 1.13774)
(-3.19222 -0.0282187 1.46233)
(-3.98836 -1.1746 1.58475)
(-4.19285 -1.6716 1.80781)
(-4.24359 -2.42368 2.37996)
(-3.85866 -2.6882 0.676021)
(-0.639188 0.603694 1.88308)
(-0.594409 0.027097 1.91161)
(-1.46602 -1.09684 0.97658)
(-2.47052 -1.05787 1.56507)
(-2.10105 -2.0599 0.554212)
(-1.01801 -2.31318 0.59354)
(-1.23429 -0.598647 -0.714341)
(-0.400252 0.350022 -0.110327)
(-0.153226 -0.199558 -0.0624523)
(-0.111633 0.0495283 -0.626914)
(-0.0458212 -0.0703418 0.37255)
(0.66435 -0.511817 -0.757803)
(1.11086 -0.727411 -1.30489)
(1.64291 -1.3195 -0.620594)
(1.44961 -0.658647 -0.351602)
(-2.81712 -1.74643 -0.169009)
(-3.61076 -0.712728 0.30781)
(-3.03798 -2.05063 0.420221)
(-4.24224 -0.352388 0.602156)
(-4.40691 -1.26139 0.249383)
(-3.53101 -2.38672 0.0640984)
(-5.6718 0.205224 0.37802)
(-4.9947 -0.955083 0.15103)
(-5.30142 -0.522161 0.598351)
(-4.28328 -2.71823 0.17168)
(-6.02122 0.394978 0.904416)
(-5.87797 -0.648999 1.35693)
(-5.3124 -1.4953 0.990834)
(-4.33581 -3.12172 1.14497)
(-4.2808 -1.27558 1.28934)
(-4.87452 1.1463 1.0999)
(-5.46816 -0.0167968 1.92938)
(-5.04055 -1.03376 1.93228)
(-4.92544 -1.24293 1.84583)
(-4.87726 -2.08947 2.0404)
(-4.50551 -2.13699 0.498849)
(-2.25982 0.279443 1.50457)
(-2.20154 0.24433 1.32331)
(-3.19427 -0.428878 1.12869)
(-4.00274 -1.45401 1.68014)
(-4.15732 -1.73954 1.60382)
(-4.4543 -0.898283 2.51717)
(-3.80173 -2.17684 0.309882)
(-1.10272 0.843579 1.01993)
(-0.67395 0.793321 1.54511)
(-0.593128 0.19983 1.83078)
(-1.40393 -1.16189 1.11147)
(-2.45436 -1.12374 1.49956)
(-1.9826 -2.22674 0.308024)
(-0.941655 -2.37421 0.596354)
(-1.22411 -0.605812 -0.761038)
(-0.536028 0.635359 -0.580869)
(-0.396892 0.412443 -0.201765)
(-0.12387 -0.194463 -0.227053)
(-0.105226 -0.013381 -0.650132)
(-0.0482011 -0.135147 0.417836)
(0.694267 -0.507312 -0.81669)
(1.10148 -0.72887 -1.29432)
(1.63459 -1.3678 -0.56544)
(1.48301 -0.669078 -0.311318)
(-2.78465 -1.06702 -0.119659)
(-3.38174 -0.716902 0.315765)
(-2.61948 -2.1662 -0.124316)
(-3.93354 -0.561266 0.371035)
(-3.60293 -0.896858 0.359637)
(-3.03752 -2.15816 0.194673)
(-4.21685 -0.500383 0.60509)
(-4.34829 0.168361 0.932007)
(-4.44622 -1.41255 0.215895)
(-3.35373 -2.44618 -0.0012692)
(-5.69128 0.592869 0.687875)
(-5.72484 -0.0765099 0.626792)
(-4.89631 -0.875331 0.351596)
(-5.07782 -0.34319 0.93652)
(-4.27638 -2.67487 0.212718)
(-5.83481 0.775272 1.09188)
(-5.93122 -0.267611 1.46094)
(-5.80729 -0.920767 1.5626)
(-5.21192 -1.80079 0.994461)
(-4.29191 -3.00896 1.15452)
(-4.05447 -1.4117 1.15295)
(-4.37426 1.61575 2.07214)
(-4.84369 0.380113 1.32839)
(-5.48503 0.258068 1.37813)
(-5.12989 -0.942952 1.87742)
(-4.88683 -1.35561 1.76643)
(-4.8431 -1.98028 2.18106)
(-4.0579 -2.13121 0.83609)
(-1.85477 0.31274 2.08301)
(-2.08479 0.259594 1.81343)
(-2.07831 0.0769557 1.73854)
(-2.93171 -0.388176 1.40499)
(-3.9858 -1.23757 1.862)
(-4.12782 -1.38129 1.50996)
(-4.06292 -1.87877 2.27447)
(-3.97882 -1.15309 0.246244)
(-1.79638 0.830779 1.15349)
(-1.1417 0.866781 0.771853)
(-0.742533 1.07723 0.88339)
(-0.629234 0.323104 1.61516)
(-1.38446 -1.21825 1.26367)
(-2.39284 -1.15254 1.51353)
(-1.85953 -2.3403 0.151196)
(-0.797874 -2.42438 0.553176)
(-0.912094 -1.02485 -0.463037)
(0.096332 -0.469994 0.221456)
(-0.524978 0.697396 -0.639342)
(-0.396687 0.470604 -0.318988)
(-0.0917395 -0.163469 -0.403453)
(-0.102426 -0.0216528 -0.678747)
(-0.0496238 -0.186687 0.455128)
(0.7184 -0.492165 -0.860764)
(1.08689 -0.727287 -1.28297)
(1.65286 -1.40101 -0.486808)
(1.50542 -0.658444 -0.289721)
(-2.31524 -1.15975 -0.00342332)
(-3.16708 -0.364408 -0.171014)
(-2.67793 -1.46224 -0.0801413)
(-3.40968 -0.570032 0.136847)
(-3.21799 -1.01421 0.394845)
(-2.36776 -2.55371 -0.0268764)
(-3.96364 -0.0702836 0.793716)
(-3.96753 -0.870449 0.458578)
(-3.5213 -1.12115 0.414075)
(-2.61658 -2.51326 0.201512)
(-4.41005 0.0732439 0.847305)
(-4.27557 -0.274463 0.608505)
(-4.05872 -1.75026 0.575465)
(-4.38071 -1.6446 0.239825)
(-3.20435 -2.54061 -0.0877454)
(-5.13541 0.7412 1.28654)
(-5.50705 0.11555 0.796515)
(-5.50466 -0.619711 0.902691)
(-4.84872 -1.09842 0.139785)
(-4.64075 -1.56949 1.07076)
(-4.17832 -2.84662 0.217157)
(-5.4172 1.22783 1.70671)
(-5.7299 0.380669 1.37679)
(-6.00284 0.367312 0.679001)
(-5.74714 -1.3735 1.23012)
(-5.20088 -1.59779 0.479378)
(-4.27101 -3.0857 1.0165)
(-3.61727 -1.98911 1.49889)
(-3.72959 2.05636 1.19811)
(-4.25587 1.7343 2.09556)
(-4.80251 0.296812 1.5795)
(-5.45038 -0.0737347 0.772058)
(-5.25163 -0.677939 1.88462)
(-4.93872 -1.44314 1.69245)
(-4.77004 -2.61738 1.70928)
(-3.7241 -2.26781 1.02201)
(-2.09489 0.391969 2.16905)
(-1.71786 0.44268 2.29509)
(-1.89975 0.290284 2.27272)
(-1.90754 -0.00742401 2.22079)
(-2.81276 -0.253276 1.60735)
(-3.87564 -1.2459 1.79382)
(-4.06155 -1.2306 1.55428)
(-3.97913 -1.56402 2.64307)
(-3.87633 -1.02033 0.816131)
(-2.05744 0.931111 0.669295)
(-1.83908 0.741666 0.98837)
(-1.16293 0.796524 0.389712)
(-0.804445 1.26893 0.443953)
(-0.708856 0.518088 1.34507)
(-1.30581 -1.3314 1.4303)
(-2.29603 -1.24575 1.51073)
(-1.62518 -2.50062 -0.115295)
(-0.607233 -2.48254 0.397462)
(-0.77375 -1.19181 -0.30599)
(0.442394 -0.333717 -0.000705299)
(0.140677 -0.512517 0.287265)
(-0.517595 0.760785 -0.69595)
(-0.401109 0.505596 -0.468217)
(-0.0627906 -0.102695 -0.571005)
(-0.113852 0.0214815 -0.698618)
(-0.0548164 -0.211407 0.486702)
(0.741723 -0.467718 -0.888558)
(1.0657 -0.721917 -1.26971)
(1.67802 -1.40195 -0.4285)
(1.4964 -0.665006 -0.26004)
(-1.85665 -1.54439 0.168288)
(-2.66662 -1.07786 0.207927)
(-2.23076 -1.48981 0.0239814)
(-3.13624 -0.518004 0.0768567)
(-3.1338 -0.945366 -0.29238)
(-2.6087 -1.75943 -0.135322)
(-3.54023 -0.395722 0.300234)
(-3.38727 -0.632268 0.141647)
(-3.1742 -1.14581 0.384827)
(-2.15422 -2.56883 0.0911578)
(-3.89935 0.273514 0.678674)
(-3.90079 -0.368867 0.632098)
(-3.96445 -1.09035 0.551888)
(-3.38189 -1.27876 0.349437)
(-3.45827 -1.29334 0.0815948)
(-4.35085 -0.531358 1.28873)
(-4.25862 -0.12924 0.946378)
(-4.24164 -0.191717 0.640372)
(-4.245 -1.16533 0.704595)
(-4.19604 -2.17342 0.244358)
(-2.87534 -2.93962 -0.00715707)
(-4.94693 0.891503 1.65659)
(-5.17487 0.450899 1.33867)
(-5.36142 0.278596 0.899953)
(-5.24174 -0.454346 0.762782)
(-4.67532 -1.50886 0.230938)
(-4.5099 -2.05789 1.07311)
(-4.26449 -2.95647 0.261403)
(-5.39984 1.55589 1.38789)
(-5.54848 1.08407 1.03809)
(-5.79934 0.204305 1.28201)
(-5.83579 -0.474465 1.43373)
(-5.51575 -1.74338 1.12589)
(-5.20366 -1.95245 0.372796)
(-4.43894 -3.39831 0.984235)
(-3.39863 -2.265 1.51579)
(-3.28371 0.140833 2.19454)
(-3.63564 1.36285 1.52561)
(-4.21396 1.66899 1.71467)
(-4.70107 0.367719 2.18102)
(-5.20233 -0.828783 1.18942)
(-5.38688 -0.478723 2.00047)
(-4.92552 -1.18548 2.50467)
(-4.60713 -2.91958 1.48621)
(-3.94455 -1.54106 0.874018)
(-2.74704 0.634077 1.96753)
(-2.13155 0.5693 2.08408)
(-1.71237 0.602962 2.48)
(-1.78446 0.381616 2.69892)
(-1.67827 0.0158182 2.6651)
(-2.76217 -0.115735 1.71508)
(-3.63489 -1.64414 1.3915)
(-4.06274 -0.877607 1.47826)
(-4.07253 -1.22768 2.55509)
(-3.30225 -1.49494 1.13302)
(-1.67309 0.517148 0.0821952)
(-2.08029 0.8561 0.403612)
(-1.85502 0.642301 0.765163)
(-1.10877 0.59656 0.208211)
(-0.888265 1.52874 0.052893)
(-0.775275 0.600462 1.2943)
(-1.20736 -1.40996 1.51729)
(-2.15679 -1.4665 1.37034)
(-1.41287 -2.62752 -0.387706)
(-0.432844 -2.55254 0.286976)
(-0.603484 -1.35268 -0.135287)
(0.285761 -0.227347 -0.302555)
(0.452836 -0.338568 0.000512949)
(0.186977 -0.528779 0.317247)
(-0.514837 0.798464 -0.766247)
(-0.40112 0.495172 -0.640264)
(-0.0435741 -0.00524809 -0.717692)
(-0.137198 0.0913647 -0.701479)
(-0.0551394 -0.237491 0.515866)
(0.770327 -0.435177 -0.889585)
(1.03573 -0.71486 -1.25382)
(1.65027 -1.40786 -0.382672)
(1.4752 -0.680087 -0.249182)
(-1.89055 -1.32463 -0.0157162)
(-2.33976 -1.13091 0.200062)
(-1.91899 -1.52719 0.125693)
(-2.79952 -0.826416 0.318549)
(-2.8341 -0.901205 0.196978)
(-2.19165 -1.63574 0.0239401)
(-3.12773 -0.395531 0.203721)
(-3.08314 -0.892134 0.175089)
(-3.12065 -1.31294 -0.142511)
(-2.436 -1.95196 -0.153094)
(-3.57434 0.245668 0.587083)
(-3.52451 -0.296165 0.346634)
(-3.47504 -0.659516 0.295765)
(-3.13765 -1.49657 0.168344)
(-2.07242 -2.61612 0.181603)
(-4.16312 -0.204396 0.686642)
(-3.94598 -0.12138 0.712842)
(-3.93961 -0.437837 0.406529)
(-3.73642 -1.21456 0.53624)
(-3.28559 -1.58554 0.289118)
(-2.36145 -2.80563 0.408983)
(-4.203 0.387067 1.49683)
(-4.36529 -0.636333 1.11889)
(-4.20865 -0.235136 1.04799)
(-4.09442 -0.753556 0.725802)
(-4.22695 -0.934743 0.785459)
(-4.0579 -2.41796 0.216982)
(-2.80788 -3.2006 -0.102921)
(-4.72972 1.18743 1.71802)
(-4.93129 1.00565 1.88971)
(-5.31151 0.35221 1.5416)
(-5.28029 0.0101886 1.24016)
(-5.02638 -0.339321 0.969379)
(-4.58331 -1.2942 0.353811)
(-4.3324 -2.39992 0.816752)
(-4.21551 -3.23111 0.283875)
(-5.33391 1.00279 2.11069)
(-5.51937 1.06775 1.49853)
(-5.48456 0.894559 1.08324)
(-5.79271 0.116869 1.07964)
(-5.72527 -0.769273 1.61081)
(-5.48616 -0.633753 1.03172)
(-5.61977 -0.219369 0.531438)
(-4.56478 -3.57365 0.78634)
(-2.95138 -2.78783 1.36481)
(-3.37221 -0.00272739 2.15071)
(-3.25599 -0.0922609 2.30099)
(-3.49847 0.562351 1.97085)
(-4.12084 1.32434 1.48543)
(-4.61789 0.83618 2.60087)
(-5.10916 -0.969792 1.61089)
(-5.29764 -0.411219 2.0412)
(-4.86966 -0.917592 2.93147)
(-4.55396 -2.76208 1.52458)
(-3.76861 -1.75704 0.950751)
(-2.92628 0.488697 2.06823)
(-2.67189 0.504607 2.1191)
(-2.18876 0.723438 2.0245)
(-1.77037 0.710416 2.68292)
(-1.76066 0.491533 2.86599)
(-1.44866 -0.0270459 2.88818)
(-2.54846 0.0279485 2.03006)
(-3.30741 -1.30348 1.93146)
(-4.0526 -0.520915 1.18878)
(-3.94469 -1.4234 1.43101)
(-2.45865 -2.29159 0.826815)
(-1.33834 -0.283002 0.862876)
(-1.64944 0.120261 0.355261)
(-2.03955 0.762143 0.0590418)
(-1.84877 0.499284 0.320099)
(-1.06886 0.516246 0.195128)
(-0.947955 1.66141 0.315939)
(-0.840606 0.690255 1.32743)
(-1.14283 -1.40836 1.55549)
(-2.21942 -1.05755 1.29562)
(-1.11793 -2.75296 -0.788015)
(-0.178433 -2.7643 0.251039)
(-0.450618 -1.4831 -0.0646724)
(-0.00805728 0.143905 -0.930615)
(0.270644 -0.242348 -0.281871)
(0.461957 -0.341128 -0.00224554)
(0.23448 -0.526263 0.323314)
(-0.493268 0.755997 -0.855271)
(-0.383272 0.432672 -0.81457)
(-0.0440898 0.125599 -0.818936)
(-0.164141 0.155622 -0.682552)
(-0.0546428 -0.267486 0.519877)
(0.806164 -0.386582 -0.859768)
(0.995463 -0.701213 -1.22617)
(1.62826 -1.39676 -0.365504)
(1.52748 -0.658281 -0.239999)
(-1.59843 -1.50769 -0.0402207)
(-2.23926 -1.18756 0.0490446)
(-1.87105 -1.32652 -0.00272522)
(-2.52979 -1.08654 0.459578)
(-2.26524 -1.37446 0.159578)
(-1.54411 -1.93301 0.0506722)
(-2.89638 -0.519284 0.36617)
(-2.85859 -1.06054 0.374825)
(-2.64946 -1.41038 0.0985336)
(-2.19388 -1.66585 0.0166846)
(-3.19977 -0.267407 0.331261)
(-3.14176 -0.595332 0.208316)
(-3.14541 -0.977461 0.178619)
(-3.13025 -1.32337 -0.0231795)
(-2.18284 -2.15892 -0.114745)
(-3.55787 -0.292242 0.663115)
(-3.52907 -0.576489 0.373207)
(-3.52938 -0.558589 0.397788)
(-3.34931 -1.04704 0.385307)
(-2.98609 -1.95844 0.190096)
(-2.13145 -2.64304 0.087602)
(-4.1306 0.0824179 0.99881)
(-3.8991 0.0722724 0.87146)
(-3.96257 -0.368047 0.865628)
(-3.82875 -1.02349 0.61346)
(-3.72471 -1.32645 0.487477)
(-2.95057 -2.33215 0.4128)
(-2.22846 -3.04363 0.255957)
(-4.63605 -1.44686 1.35939)
(-4.35484 0.0211109 1.55116)
(-4.51411 -0.387579 0.996304)
(-4.37516 0.352933 1.14395)
(-4.2721 -0.541988 0.792744)
(-3.95039 -1.53396 0.792367)
(-3.99866 -2.51977 0.409309)
(-2.72231 -3.48287 -0.0407659)
(-4.86398 0.915201 2.34719)
(-4.97017 0.482348 2.08155)
(-5.13905 0.0373519 1.78346)
(-5.12553 0.261501 1.7488)
(-4.97967 0.00664884 1.45616)
(-4.7961 -0.3599 1.04115)
(-4.58008 -1.58346 0.598484)
(-3.92883 -2.80894 0.823123)
(-4.12152 -3.54669 0.247599)
(-4.64658 0.819753 2.48705)
(-5.09634 0.31863 2.07676)
(-5.39996 0.530948 1.81146)
(-5.56894 0.717017 1.3097)
(-5.65794 -0.363176 1.21638)
(-5.76384 -0.357887 1.20442)
(-5.69014 -0.0915242 0.892244)
(-5.75088 -0.831633 1.29404)
(-4.49697 -3.82459 0.703151)
(-2.59942 -3.4345 1.0357)
(-3.54571 -0.099971 2.3524)
(-3.3928 0.199953 2.10938)
(-3.21709 -0.0829326 2.3585)
(-3.43952 0.304755 2.1687)
(-3.97468 0.718542 1.60443)
(-4.76968 0.600124 2.43636)
(-4.93437 -1.08046 2.07636)
(-4.99153 -0.294939 2.46276)
(-4.65809 -0.917039 2.78044)
(-4.49424 -2.98652 1.5803)
(-3.55856 -1.94572 0.914074)
(-2.96587 0.604266 1.76998)
(-2.90521 0.390231 2.19968)
(-2.71922 0.496637 2.07039)
(-2.28167 0.942453 1.97933)
(-1.81583 0.742628 2.73831)
(-1.78422 0.410902 2.83413)
(-1.2006 -0.522099 2.74062)
(-2.27493 -0.165984 2.21657)
(-3.28483 -1.14946 2.10427)
(-3.81852 -0.399363 1.37153)
(-3.56891 -1.46483 1.10242)
(-2.33156 -2.09203 0.794136)
(-1.13905 0.232873 0.806786)
(-1.2739 -0.380055 1.0147)
(-1.56894 -0.0478626 0.541973)
(-2.00196 0.592427 0.0148755)
(-1.77293 0.289493 0.00812362)
(-1.07682 0.682573 0.237277)
(-0.950447 1.57606 0.61832)
(-0.980908 0.691022 1.28947)
(-1.05665 -1.41366 1.60216)
(-2.00374 -1.10681 1.35723)
(-0.778968 -2.85447 -1.23275)
(0.217335 -3.13599 0.321748)
(-0.2711 -1.63507 -0.122009)
(-0.210705 0.714845 -1.74742)
(-0.027413 0.110448 -0.858309)
(0.261143 -0.259926 -0.25977)
(0.464521 -0.342749 0.00332758)
(0.27393 -0.516994 0.316605)
(-0.453619 0.647794 -0.83457)
(-0.335501 0.331355 -0.973397)
(-0.0679787 0.271068 -0.850757)
(-0.197967 0.222564 -0.634745)
(-0.0635429 -0.270494 0.504032)
(0.821836 -0.339653 -0.838912)
(0.942202 -0.676931 -1.17974)
(1.55709 -1.37433 -0.376506)
(1.48262 -0.655294 -0.203775)
(-1.65968 -1.18826 -7.5611e-05)
(-2.06452 -1.17503 0.0844058)
(-1.56397 -1.53821 -0.0563189)
(-2.43897 -0.78233 0.254653)
(-2.21942 -1.16875 0.0776737)
(-1.77542 -1.41211 -0.0262039)
(-2.71621 -0.683802 0.404691)
(-2.50696 -1.12445 0.484856)
(-2.235 -1.42402 0.130269)
(-1.71192 -1.81523 0.0425297)
(-2.88341 -0.519106 0.47438)
(-2.92875 -0.712075 0.386154)
(-2.80541 -1.30509 0.283205)
(-2.58301 -1.57706 0.0584374)
(-2.0445 -1.81414 0.00809422)
(-3.29538 -0.464341 0.566855)
(-3.2493 -0.481537 0.443833)
(-3.22148 -0.731965 0.318221)
(-3.17391 -1.30689 0.117276)
(-3.07512 -1.41037 0.0407202)
(-1.9962 -2.33988 -0.0831129)
(-3.56314 0.140354 0.825899)
(-3.52051 -0.536995 0.713098)
(-3.56629 -0.882925 0.396639)
(-3.47465 -0.970088 0.456694)
(-3.25871 -1.46448 0.317649)
(-2.67082 -2.4574 0.34096)
(-1.95815 -2.75203 0.04833)
(-4.30666 -0.0164397 1.16877)
(-4.07882 0.024596 0.998819)
(-3.88522 0.451111 1.03234)
(-3.99373 -0.695714 0.919535)
(-3.87864 -1.04227 0.841768)
(-3.68837 -1.77123 0.446148)
(-3.51894 -1.90691 0.605305)
(-2.20027 -2.99748 0.252251)
(-4.30625 1.54737 2.15932)
(-3.99377 1.95646 1.85588)
(-4.35938 0.0961814 1.60475)
(-4.35445 0.178572 1.59939)
(-4.28657 -0.744548 1.46551)
(-4.06504 -1.14276 0.974913)
(-3.85745 -1.9783 0.734381)
(-3.31241 -3.19288 0.370446)
(-2.6769 -3.66364 -0.0260569)
(-4.89741 0.20735 2.77987)
(-4.66264 1.16728 2.71398)
(-4.8037 0.724226 2.44296)
(-4.80278 0.147236 2.0493)
(-4.92785 -0.280477 1.72311)
(-4.84623 -0.133777 1.30621)
(-4.78072 -0.628719 1.29973)
(-4.63258 -2.3407 0.469232)
(-4.12563 -2.62158 0.89595)
(-3.7407 -4.10304 0.174315)
(-4.13119 0.466806 2.87329)
(-4.54784 0.0565029 2.59599)
(-4.49803 0.157846 2.38043)
(-5.00729 -0.178405 2.27129)
(-5.56082 0.0870096 1.75198)
(-5.79055 -0.25686 1.28266)
(-5.7564 -0.0412991 1.12367)
(-5.56271 -0.66779 1.64655)
(-5.59917 -1.33788 1.52142)
(-4.12885 -4.34011 0.902512)
(-2.36885 -3.96337 0.74209)
(-3.73108 0.58149 2.03327)
(-3.60538 0.25845 2.50218)
(-3.41037 0.225506 2.33011)
(-3.27908 0.0536551 2.34323)
(-3.32962 0.28616 2.44108)
(-3.88925 0.429535 1.79005)
(-4.32912 -0.0656469 2.80169)
(-4.68022 -0.830316 2.64892)
(-4.9798 -0.444853 2.57726)
(-4.54504 -1.07369 2.67531)
(-4.74433 -2.69854 1.60204)
(-3.36157 -2.07291 0.60642)
(-2.72487 0.710834 1.35088)
(-2.941 0.777423 1.70151)
(-3.01663 0.736908 2.01705)
(-2.74493 0.650777 1.81651)
(-2.41821 1.1301 1.89472)
(-1.89914 0.666363 2.42799)
(-1.77072 0.0829886 2.62869)
(-0.827993 -1.21869 2.40116)
(-1.85722 -0.667739 2.01807)
(-3.13396 -0.933031 2.3516)
(-3.11602 -0.902486 1.95898)
(-3.54598 -1.0469 1.50825)
(-2.37973 -1.55645 0.876761)
(-0.81507 0.382916 0.468089)
(-1.11957 0.0429843 1.08826)
(-1.13393 -0.377564 1.18479)
(-1.37091 -0.199542 0.898636)
(-1.79337 0.196416 0.495629)
(-1.65794 0.11674 0.183741)
(-1.14294 1.00547 0.304321)
(-0.880781 1.24208 1.00829)
(-1.0791 0.700251 1.2396)
(-1.02194 -1.45473 1.56142)
(-1.47426 -1.6364 1.4759)
(-0.695243 -2.75054 -1.27362)
(0.558307 -3.31604 0.378831)
(0.00540695 -1.75172 -0.236481)
(-0.586982 0.932682 -0.922697)
(-0.216642 0.593077 -1.66832)
(-0.0454617 0.0807016 -0.795342)
(0.257357 -0.280031 -0.235795)
(0.467086 -0.338716 -0.00214531)
(0.311451 -0.499315 0.296242)
(-0.391066 0.495416 -0.738096)
(-0.267291 0.227595 -1.09826)
(-0.106595 0.388707 -0.809023)
(-0.228412 0.277629 -0.564104)
(-0.0809815 -0.259781 0.466198)
(0.821576 -0.290972 -0.823071)
(0.888838 -0.64772 -1.12956)
(1.44748 -1.34096 -0.401944)
(1.45643 -0.637682 -0.168347)
(-1.49984 -1.21768 0.00824631)
(-1.94694 -1.08717 -0.0867121)
(-1.60742 -1.22716 -0.00428581)
(-2.23435 -1.05264 -0.022219)
(-2.01999 -1.20266 0.153198)
(-1.44635 -1.63596 -0.0491391)
(-2.46373 -0.618351 0.073072)
(-2.4282 -0.799286 0.227959)
(-2.0091 -1.3866 0.0278363)
(-1.67748 -1.52264 -0.0191279)
(-2.70427 -0.608936 0.502602)
(-2.75462 -0.769112 0.295696)
(-2.33869 -1.33233 0.323927)
(-2.1329 -1.51712 0.097126)
(-1.48032 -2.01197 0.0328688)
(-2.9184 -0.541853 0.548304)
(-2.90403 -0.777801 0.430111)
(-2.95269 -0.842336 0.32533)
(-2.84747 -1.24239 0.341041)
(-2.59276 -1.64061 0.090861)
(-2.07197 -1.88266 0.0247466)
(-3.27295 -0.371815 0.698252)
(-3.28057 -0.626163 0.573815)
(-3.23436 -0.603236 0.429407)
(-3.20694 -0.841096 0.326861)
(-3.06697 -1.51125 0.140573)
(-2.70614 -1.97173 0.0293756)
(-1.71918 -2.58753 -0.0048905)
(-3.56494 -0.0304712 1.03328)
(-3.54167 -0.342795 0.840372)
(-3.60408 -0.455758 0.668803)
(-3.52133 -0.894712 0.50831)
(-3.43713 -1.00245 0.473291)
(-3.39387 -1.46156 0.415264)
(-2.52399 -2.65863 0.216665)
(-1.83242 -2.79742 0.106855)
(-4.14385 0.162441 1.292)
(-4.0598 0.136232 1.22252)
(-4.06834 0.0168469 1.06647)
(-4.10262 -0.277037 1.03043)
(-4.07367 -0.965247 0.920995)
(-3.85206 -1.22548 0.770903)
(-3.55589 -1.91997 0.480211)
(-2.75556 -2.8146 0.0132053)
(-1.88549 -3.14459 0.322132)
(-4.31995 1.90577 2.34433)
(-4.72398 0.253585 2.08642)
(-4.63472 -0.183296 1.80594)
(-4.1893 -0.0203961 1.67365)
(-4.17155 -1.04386 1.41147)
(-4.24691 -1.04619 1.31563)
(-4.16903 -1.2958 1.06278)
(-3.84108 -1.88664 0.825404)
(-3.27777 -3.31306 0.54253)
(-2.2157 -4.03049 0.181558)
(-4.76996 0.186965 3.09818)
(-4.50936 0.670336 3.19047)
(-4.41018 0.355541 2.74411)
(-4.42139 -0.538656 2.62923)
(-4.9065 -0.410602 2.08151)
(-5.14663 0.332822 1.60525)
(-5.08143 0.111624 1.57156)
(-4.93261 -0.834624 1.65661)
(-4.74892 -2.18637 0.212545)
(-4.05807 -2.89073 1.07043)
(-3.39494 -4.51962 0.0349091)
(-4.02725 0.135855 2.95481)
(-4.14863 0.0646277 3.001)
(-4.32722 -0.075401 2.71073)
(-4.48439 -0.0551599 2.43389)
(-4.99497 -0.373767 2.39441)
(-5.37808 0.0168169 1.81823)
(-5.78673 0.133025 1.28427)
(-5.61177 0.510238 1.44295)
(-5.46498 -0.554544 1.89626)
(-5.05661 -2.32972 1.71184)
(-4.18611 -4.16407 0.624273)
(-2.15989 -4.35549 0.792593)
(-3.9458 0.528691 2.02183)
(-3.84883 0.990725 1.80959)
(-3.7308 -0.0312942 2.45298)
(-3.45939 -0.105501 2.70776)
(-3.28941 0.200595 2.42031)
(-3.3808 0.426706 2.57633)
(-3.73535 0.153523 2.25078)
(-4.07893 -0.306038 3.1201)
(-4.5578 -0.511456 3.0444)
(-4.70468 -0.583941 2.84102)
(-4.55112 -1.08537 2.7075)
(-4.80849 -2.60658 1.69328)
(-3.29589 -2.2007 0.487868)
(-2.42398 0.316876 1.17933)
(-2.70696 0.666465 1.41444)
(-2.89753 0.928516 1.62212)
(-3.02468 0.759326 1.89426)
(-2.76778 0.5571 1.66598)
(-2.41562 0.990983 1.91683)
(-1.78563 0.386805 2.17473)
(-1.69324 -0.291262 2.36966)
(-0.628552 -1.44223 2.07468)
(-1.39349 -1.14866 1.50949)
(-2.79239 -1.21412 2.17064)
(-2.37113 -1.29022 1.82168)
(-3.3174 -0.921985 1.66353)
(-1.81106 -1.76254 0.561032)
(-0.269941 -0.165828 0.981464)
(-0.817997 0.291016 0.776108)
(-1.05333 -0.0927119 1.34392)
(-1.05008 -0.366088 1.28702)
(-1.26313 -0.23995 1.08877)
(-1.60807 -0.0872372 0.890914)
(-1.53673 -0.00932027 0.562505)
(-1.21373 1.24712 0.542589)
(-0.704797 0.80249 1.29166)
(-1.19746 0.727157 1.17376)
(-1.02338 -1.47877 1.48744)
(-1.1283 -1.88478 1.44089)
(-0.725651 -2.50016 -1.19173)
(0.471315 -3.07007 0.406715)
(0.199835 -1.86275 -0.291152)
(-0.333433 0.0275683 -0.564831)
(-0.591908 0.86775 -0.989811)
(-0.215885 0.484916 -1.58318)
(-0.0610034 0.0529023 -0.740458)
(0.256285 -0.303975 -0.210252)
(0.471986 -0.34053 -0.00860659)
(0.337526 -0.475866 0.272606)
(-0.307041 0.332026 -0.595946)
(-0.188875 0.148774 -1.17631)
(-0.152681 0.471996 -0.708956)
(-0.247757 0.315151 -0.476427)
(-0.100012 -0.249348 0.390532)
(0.806171 -0.245252 -0.819095)
(0.841912 -0.620724 -1.07876)
(1.35799 -1.28544 -0.44306)
(1.42875 -0.613661 -0.130721)
(-1.46623 -1.01817 -0.0246486)
(-1.8622 -0.990277 -0.0484264)
(-1.38517 -1.31337 -0.027489)
(-2.16504 -0.635311 -0.019974)
(-1.93605 -1.09235 -0.123386)
(-1.51792 -1.32596 -0.00369469)
(-2.22217 -0.827802 0.119553)
(-2.26291 -1.00978 -0.0530268)
(-1.92166 -1.3151 0.137575)
(-1.44263 -1.66214 -0.0565551)
(-2.53384 -0.647674 0.296667)
(-2.49362 -0.558368 0.0681212)
(-2.22328 -1.10802 0.145485)
(-1.95414 -1.46547 0.0307641)
(-1.59321 -1.64138 -0.010307)
(-2.74437 -0.593978 0.429731)
(-2.7054 -0.702212 0.3701)
(-2.70758 -0.82568 0.273444)
(-2.3155 -1.37821 0.262429)
(-2.08517 -1.56268 0.0405577)
(-1.48777 -2.06817 0.0282259)
(-2.89548 -0.395152 0.626819)
(-2.92095 -0.588588 0.486365)
(-2.96101 -0.901028 0.332045)
(-2.97174 -0.960454 0.259783)
(-2.81163 -1.38483 0.2428)
(-2.52308 -1.74854 0.1)
(-1.73139 -2.24607 0.0408811)
(-3.2633 -0.296794 0.83054)
(-3.26051 -0.497193 0.686285)
(-3.24477 -0.471806 0.582566)
(-3.14666 -0.695246 0.361855)
(-3.10077 -1.01144 0.284959)
(-2.93651 -1.75889 0.157011)
(-2.45624 -2.20327 0.0912631)
(-1.38723 -2.87035 -0.083915)
(-3.58652 0.0280779 1.10096)
(-3.56091 -0.372515 0.904329)
(-3.69889 -0.244947 0.883628)
(-3.66825 -0.733311 0.652106)
(-3.53586 -0.7 0.543107)
(-3.40275 -1.16627 0.499008)
(-2.88681 -2.25559 0.445219)
(-2.65088 -2.56542 0.31845)
(-1.68315 -2.91914 0.105279)
(-4.11182 0.193288 1.5353)
(-4.22046 -0.0437203 1.39575)
(-4.28835 -0.0129133 1.26649)
(-4.19217 -0.396157 1.15519)
(-4.05277 -0.653618 1.01468)
(-4.00486 -1.13879 0.80626)
(-3.69166 -1.51397 0.743763)
(-3.61918 -1.9501 0.658632)
(-2.5018 -3.36028 0.0553995)
(-1.66842 -3.41603 0.314173)
(-4.61724 -0.271717 1.84743)
(-4.92225 -0.249525 1.98503)
(-4.74398 -0.0237396 2.00817)
(-4.58417 -0.365529 1.666)
(-4.18827 -0.387236 1.68591)
(-4.48324 0.963665 1.72736)
(-4.36822 -1.05365 1.44191)
(-4.20685 -1.62418 1.01963)
(-3.81452 -1.75315 0.989385)
(-3.35511 -3.53049 0.615784)
(-1.85932 -4.28849 0.233572)
(-4.91362 -0.0108878 3.16807)
(-4.57292 0.404251 3.3871)
(-4.59997 -0.453607 2.70926)
(-4.28481 0.0279687 2.85699)
(-4.37732 0.555478 2.86264)
(-4.80308 0.00581075 2.67124)
(-4.64264 -1.28071 2.32377)
(-4.79879 -0.918642 1.92479)
(-4.55831 -1.33842 1.85731)
(-4.33617 -2.45675 0.655013)
(-3.44453 -3.50831 1.13276)
(-3.16275 -4.7453 0.172477)
(-4.07007 0.0294506 3.32005)
(-4.01451 0.0805698 3.03484)
(-4.14016 -0.0427965 3.08375)
(-4.31116 0.0115471 2.75888)
(-4.52118 -0.127609 2.71341)
(-4.82089 -0.819774 2.45013)
(-5.07849 -0.0732891 2.06091)
(-5.37938 -0.936329 1.89921)
(-5.47088 -0.384977 2.08724)
(-5.86055 -0.658103 1.22625)
(-5.03572 -2.57153 1.9398)
(-4.33216 -4.09358 0.350191)
(-2.08629 -4.75474 0.738797)
(-4.04676 0.355113 2.14506)
(-3.9452 0.731412 1.89562)
(-3.98583 0.595685 1.86475)
(-3.67307 -0.0911396 2.61441)
(-3.48951 0.0695054 2.69012)
(-3.36989 0.1455 2.46843)
(-3.38767 0.356151 2.57465)
(-3.60915 0.120834 2.56487)
(-3.85888 -0.385877 3.26768)
(-4.37019 -0.270647 3.28123)
(-4.4746 -0.400158 2.98733)
(-4.48357 -0.93242 2.68422)
(-4.77266 -2.53031 2.0998)
(-2.85279 -2.72258 0.328317)
(-2.08857 0.627572 0.995171)
(-2.38977 0.464099 1.16811)
(-2.72542 1.09275 0.850722)
(-2.91745 0.559027 1.60995)
(-2.99017 0.630214 1.82711)
(-2.57652 0.120712 1.96107)
(-2.31341 0.652024 1.83416)
(-1.82234 0.234743 1.79829)
(-1.76629 -0.279317 2.10019)
(-0.583523 -1.22807 1.68935)
(-1.07913 -1.2293 1.04259)
(-2.2921 -1.68396 1.42999)
(-1.87987 -1.59099 0.648101)
(-2.6188 -1.32827 1.1979)
(-1.09597 -2.20104 0.178303)
(-0.296164 -0.0990585 0.499088)
(-0.271051 -0.153461 1.17199)
(-0.810866 0.226041 1.08015)
(-0.95883 -0.13551 1.53304)
(-0.950472 -0.395049 1.47451)
(-1.12708 -0.327281 1.37247)
(-1.4846 -0.175702 1.06827)
(-1.49294 0.0465027 0.688877)
(-1.17929 1.15457 1.01403)
(-0.479921 0.353129 1.46777)
(-1.285 0.705172 1.14098)
(-1.08335 -1.41515 1.43865)
(-0.822088 -2.02146 1.28447)
(-0.766074 -2.28266 -1.1114)
(0.326389 -2.74854 0.255124)
(0.322584 -1.96579 -0.243333)
(-0.574592 0.35579 -0.241652)
(-0.322157 -0.0581653 -0.538527)
(-0.591257 0.753693 -1.03281)
(-0.210316 0.39028 -1.49344)
(-0.0733728 0.026114 -0.692426)
(0.256396 -0.32167 -0.19826)
(0.477227 -0.341188 -0.0253895)
(0.360388 -0.449573 0.249006)
(-0.202502 0.175981 -0.425138)
(-0.143872 0.14674 -1.17044)
(-0.190028 0.503872 -0.598246)
(-0.250642 0.329488 -0.381896)
(-0.112667 -0.235539 0.27445)
(0.778999 -0.203533 -0.818781)
(0.803791 -0.600341 -1.02939)
(1.28363 -1.21451 -0.480696)
(1.38335 -0.595889 -0.0939031)
(-1.3132 -1.00116 0.0133294)
(-1.7673 -0.895399 0.00208453)
(-1.34981 -1.12353 -0.0412811)
(-1.81039 -1.27184 -0.0335067)
(-1.79616 -1.04382 0.0939037)
(-1.33631 -1.36953 -0.0469286)
(-2.16332 -0.856464 0.00394263)
(-2.07584 -0.73286 0.00563423)
(-1.80725 -1.2856 -0.0689983)
(-1.46375 -1.41671 -0.00643938)
(-2.29611 -0.755687 0.203128)
(-2.24747 -0.943293 0.100744)
(-2.11381 -1.19223 0.0145675)
(-1.84652 -1.42427 0.115261)
(-1.29772 -1.78555 -0.0100621)
(-2.59868 -0.473925 0.287868)
(-2.47946 -0.871708 0.365008)
(-2.48898 -0.663555 0.137624)
(-2.25428 -1.11731 0.137215)
(-1.91044 -1.54029 0.0486868)
(-1.4859 -1.788 -0.021705)
(-2.71328 -0.527505 0.515201)
(-2.6445 -1.04529 0.429043)
(-2.65748 -0.951063 0.338886)
(-2.63712 -0.941842 0.258673)
(-2.20889 -1.63049 0.146507)
(-2.02285 -1.70369 0.0257724)
(-1.41263 -2.21553 0.0396896)
(-2.95673 -0.415838 0.707903)
(-2.89475 -0.431737 0.645063)
(-2.98099 -0.657151 0.486945)
(-2.98386 -1.0487 0.342892)
(-2.99247 -1.06041 0.291044)
(-2.74869 -1.59878 0.198756)
(-2.32299 -1.97556 0.113665)
(-1.58523 -2.40133 0.0174276)
(-3.21719 -0.152982 0.957027)
(-3.25106 -0.410758 0.817456)
(-3.29403 -0.488131 0.626436)
(-3.2489 -0.639101 0.562241)