/*--------------------------------*- C++ -*----------------------------------*\
  =========                 |
  \\      /  F ield         | OpenFOAM: The Open Source CFD Toolbox
   \\    /   O peration     | Website:  https://openfoam.org
    \\  /    A nd           | Version:  7
     \\/     M anipulation  |
\*---------------------------------------------------------------------------*/
FoamFile
{
    version     2.0;
    format      ascii;
    class       volScalarField;
    location    "3";
    object      nut;
}
// * * * * * * * * * * * * * * * * * * * * * * * * * * * * * * * * * * * * * //

dimensions      [0 2 -1 0 0 0 0];

internalField   nonuniform List<scalar> 
18750
(
0.000169138
0.000372505
0.00017124
0.000192692
0.00065071
0.00016461
0.000377073
0.000221967
0.000165433
0.000307394
0.00181787
0.000732894
0.000556313
0.000322729
0.000188625
0.000402034
0.000305319
0.000195247
0.000162096
0.000235791
0.00213491
0.000687939
0.00160433
0.000586861
0.000620198
0.00057839
0.000435524
0.000377588
0.000184832
0.000426423
0.000725068
0.000243301
0.000187712
0.00016918
0.000265786
0.00269372
0.00117155
0.00221234
0.000380187
0.000488665
0.00163257
0.000445936
0.000521626
0.000583833
0.000667868
0.00049864
0.000382881
0.000327351
0.000162813
0.000463878
0.000263763
0.000602695
0.000188343
0.000179241
0.000170582
0.000174595
0.00237772
0.000739837
0.00267663
0.000736766
0.00119898
0.00221814
0.000812391
0.000791796
0.000678887
0.00155246
0.000522777
0.000463627
0.00029404
0.000566218
0.000789006
0.000181643
0.000426504
0.000367428
0.00030419
0.000146089
0.000459414
7.86205e-05
0.000194404
0.000500328
0.000158283
0.000164496
0.000163423
0.000338971
0.00273716
0.000452771
0.00200251
0.000542549
0.00104946
0.00279655
0.000724
0.000708009
0.00186523
0.00260665
0.000684178
0.000973895
0.00119043
0.000829198
0.00166216
0.000489885
0.000534744
0.000727149
0.00038831
0.000578799
0.00100368
0.000234729
0.000367864
0.000359017
0.000369327
0.000324892
0.000154747
0.00048826
8.04208e-05
5.64352e-05
0.000178039
0.000409198
0.000117105
0.000150597
0.000152436
0.000152446
0.00244477
0.000710465
0.0022353
0.00081835
0.001135
0.00213447
0.000460793
0.000446412
0.00074801
0.00282229
0.000990878
0.000666106
0.00091135
0.00110093
0.00318395
0.000546894
0.000550727
0.00103499
0.000565602
0.000716511
0.00215137
0.000453855
0.000519149
0.000481341
0.000979658
0.00070422
0.000693642
0.0012565
0.000456247
0.000108721
0.000425132
0.000298456
0.000342697
0.000343366
0.000139626
0.0004506
0.000283995
6.56194e-05
7.6982e-05
9.71237e-05
0.000290337
9.66329e-05
0.000133755
0.000155472
0.000176163
0.002701
0.00100032
0.00262104
0.000892182
0.00116367
0.00220614
0.000508017
0.00046983
0.000923843
0.00221408
0.000327873
0.000341102
0.00050273
0.000497686
0.00251436
0.00119306
0.000766755
0.000643581
0.00103341
0.000795801
0.00340424
0.000818402
0.000774107
0.00062241
0.000619559
0.000557213
0.000829148
0.0023856
0.000499191
0.00066817
0.000652082
0.000684803
0.00140889
0.000719638
0.000788642
0.000936276
0.0004718
0.000351318
0.00011219
0.000241315
0.00030876
0.000322821
0.000365866
0.000181551
0.000513326
0.000168844
0.000233356
7.86378e-05
5.44146e-05
0.000110129
0.000255678
9.42304e-05
0.00011838
0.000145572
0.000270224
0.0025821
0.00099276
0.00245031
0.000768525
0.000804855
0.00265296
0.000543005
0.000551033
0.000574457
0.00205301
0.000562694
0.000725991
0.000714809
0.00048855
0.00221398
0.000367436
0.000347233
0.000247618
0.000458568
0.000861545
0.00261301
0.000803239
0.000929876
0.000990247
0.000627535
0.000460403
0.000899271
0.00268131
0.000651394
0.000730866
0.0011165
0.000826542
0.000743185
0.000895058
0.000951663
0.00221698
0.000677726
0.000492087
0.000609678
0.000727949
0.000944599
0.00173902
0.000923577
0.000802482
0.00101072
0.000546974
0.000432603
0.000387057
0.00014842
0.000396443
0.000352832
0.000303629
0.000348663
0.000155545
0.000555214
0.000423433
0.000109536
0.000228714
0.00010322
7.82734e-05
0.000171527
0.000176893
9.33259e-05
0.000100288
0.000145806
0.000145226
0.00262476
0.000839456
0.00260027
0.000657832
0.000720517
0.00254845
0.00073947
0.000521793
0.000526414
0.00248574
0.00061781
0.000598309
0.000586518
0.000839817
0.00231929
0.000519803
0.000699527
0.000413222
0.000798188
0.000729022
0.00234284
0.000813773
0.0004185
0.000355085
0.000365779
0.000310668
0.00112137
0.00247686
0.00127634
0.00138618
0.00122454
0.00073842
0.000578749
0.000518274
0.000877124
0.00232744
0.000340818
0.000492234
0.000543587
0.000949159
0.00086417
0.00109186
0.000843837
0.000833775
0.00216266
0.000692845
0.000613327
0.000895241
0.000472152
0.000359934
0.0010324
0.0015383
0.00120018
0.000847178
0.00149825
0.000416677
0.000525496
0.00057684
0.00040705
0.0001456
0.000419415
0.000428067
0.000290883
0.000338102
0.000129635
0.000522677
0.000349025
3.28733e-05
9.32306e-05
0.000253803
0.000142128
7.50904e-05
0.000176851
0.000136574
7.33984e-05
8.77649e-05
0.000138178
0.00021572
0.00264647
0.000704365
0.00273179
0.00048927
0.00101929
0.00254451
0.000588481
0.000406945
0.000548428
0.00258046
0.000443617
0.000610366
0.000478779
0.000741036
0.00221376
0.00048015
0.000288657
0.000366024
0.000737253
0.000892501
0.00207553
0.000349269
0.000363239
0.000461641
0.000740158
0.000402999
0.000741962
0.0021847
0.00193073
0.000697743
0.000399299
0.000249341
0.00044234
0.000640676
0.00106192
0.00235659
0.00102717
0.00131322
0.00136915
0.000981072
0.000790572
0.000440576
0.000619651
0.000781044
0.00201471
0.00144739
0.000340836
0.000401134
0.000604446
0.000765141
0.000879723
0.000643471
0.00101786
0.000893146
0.00239225
0.00034215
0.000468899
0.0007726
0.000800239
0.000438742
0.000661495
0.000948359
0.00145925
0.00116238
0.000846304
0.00134016
0.000209303
5.97992e-05
0.000425617
0.000272825
0.000375647
0.000212056
0.00045739
0.000392555
0.00026366
0.000325652
0.000118873
0.000508234
0.000177783
0.000272699
0.000315904
0.000393254
0.00019587
0.000147257
4.68525e-05
0.000193369
9.48412e-05
0.000130467
8.49137e-05
0.000142633
0.00021185
0.0024438
0.000799354
0.00247118
0.00049456
0.000566018
0.00273952
0.000491793
0.000462347
0.000562432
0.00259113
0.00035057
0.000443074
0.000329836
0.000593941
0.00240495
0.000296789
0.000423755
0.000332569
0.000465262
0.000870454
0.00222178
0.000757919
0.000372936
0.000315397
0.0004629
0.000810651
0.00078757
0.00210864
0.000691655
0.000609911
0.000438654
0.000257152
0.000600212
0.000847563
0.00119105
0.00224376
0.000746347
0.000765595
0.00056357
0.00060386
0.000429929
0.000313331
0.000551129
0.00110197
0.00223013
0.000692383
0.000837354
0.000810184
0.00059478
0.000994466
0.00104882
0.000925627
0.000794886
0.000796947
0.00208858
0.000548308
0.000937235
0.000470632
0.000455522
0.000664823
0.000782493
0.000590429
0.00110585
0.00212643
0.00121503
0.00181244
0.000870901
0.000475752
0.00063097
0.000809486
0.000468336
0.000396599
0.000799267
0.00155989
0.00155434
0.00114488
0.000797634
0.000952664
0.000645251
0.000182373
0.000216606
0.000238299
0.000812666
0.00040757
0.000278643
0.000509575
0.000280478
0.000226035
0.000241635
0.00014653
0.000543383
0.000217109
0.000180708
0.000209098
0.00017071
0.000248419
0.000148402
0.000196717
4.25557e-05
0.000180869
0.000130464
0.000117704
8.63143e-05
0.000135663
0.00015318
0.00224522
0.000638502
0.00246953
0.000746801
0.00060884
0.00225825
0.000483857
0.000470888
0.000530915
0.00270426
0.000547518
0.000543885
0.000423331
0.000588639
0.00249817
0.000549243
0.000440185
0.0003492
0.000439712
0.000727301
0.00258341
0.000408445
0.000395905
0.000317213
0.000310335
0.000477299
0.000813963
0.00231278
0.000350145
0.000472677
0.00053568
0.000326948
0.00043134
0.000523015
0.00090571
0.00202102
0.000431011
0.000571559
0.000563724
0.00039176
0.000507118
0.000618273
0.000862012
0.000980759
0.00219373
0.000791903
0.00107187
0.00136271
0.000787716
0.000698392
0.000493637
0.000515425
0.00105528
0.00113445
0.00222398
0.0012773
0.000945655
0.000745541
0.000878887
0.000871027
0.00177227
0.00112785
0.00102599
0.000677157
0.000571153
0.00227208
0.000411574
0.000546999
0.000523218
0.000838109
0.000444885
0.000884409
0.00117611
0.00116721
0.00166313
0.00142882
0.00133849
0.00197042
0.00122826
0.00025551
0.000475176
0.000752986
0.000536795
0.000726886
0.000400736
0.000965801
0.00209881
0.00146315
0.00110242
0.000768632
0.000971723
0.000297339
0.000344669
0.000277174
0.000289004
0.000214372
0.000309312
0.000469495
0.000314186
0.000223458
0.00030778
0.000211251
0.000179169
0.000131443
0.000536102
9.23573e-05
0.000103093
0.000275662
0.000129952
6.50625e-05
0.000203367
0.000206967
0.000287862
3.61813e-05
0.000157255
0.000113743
7.69706e-05
7.76946e-05
0.000129237
0.000180326
0.00231599
0.000644469
0.00209972
0.000424937
0.00065495
0.00248365
0.000777464
0.000479433
0.000615083
0.00196379
0.000537845
0.000639359
0.000493299
0.000317877
0.00239992
0.000465525
0.000559198
0.000457612
0.000431689
0.000664033
0.00248288
0.000375595
0.000623257
0.000491194
0.000255014
0.000209352
0.000643755
0.00239018
0.000377219
0.000319371
0.000672586
0.000473952
0.000438819
0.000497806
0.000913076
0.00192325
0.000731094
0.000457219
0.000517566
0.0007003
0.000611093
0.000732098
0.00130709
0.000785036
0.00202552
0.00108842
0.000621581
0.000334046
0.000463856
0.00072792
0.000202925
0.000559718
0.00180484
0.00095975
0.00202526
0.000524015
0.000726894
0.00102905
0.000981709
0.0015156
0.000715734
0.000283028
0.000409097
0.00102178
0.00122066
0.0021832
0.00090736
0.000826227
0.00104204
0.000785353
0.000935775
0.0015006
0.00143304
0.000942978
0.000567715
0.000849102
0.00055576
0.00195836
0.000775923
0.000391356
0.000546724
0.00034922
0.000832039
0.000511111
0.000897197
0.00147893
0.0014278
0.00106695
0.00168997
0.00157291
0.00130114
0.000396978
0.00102988
0.000300577
0.000448865
0.000645858
0.000426962
0.000468632
0.000504085
0.00138641
0.00195133
0.00130309
0.00105121
0.000732748
0.000741197
0.000491422
0.000342873
0.000404852
0.000235615
0.000367836
0.000321235
0.000477448
0.000398409
0.00030587
0.000324107
0.000353005
0.000227977
0.000149412
0.000148146
0.000545249
0.000189098
0.000208411
9.85852e-05
0.00024535
9.60249e-05
0.000162706
0.000246214
0.000249104
0.000261519
6.77484e-05
0.00018521
9.17689e-05
8.45319e-05
7.92553e-05
0.000150663
0.00019865
0.00237808
0.000447816
0.00214842
0.000267622
0.000579903
0.00204966
0.000440449
0.000373856
0.000790317
0.00257398
0.000406051
0.00065139
0.00049731
0.000457594
0.00235555
0.000237811
0.000479493
0.000460593
0.000492136
0.000449424
0.00296993
0.000355177
0.000520485
0.000451966
0.000333405
0.000217926
0.000407428
0.00257297
0.00025857
0.000530571
0.00055253
0.00036134
0.000417422
0.000193906
0.000912699
0.00217643
0.000570688
0.000510126
0.000435844
0.000437647
0.000491831
0.000516749
0.000725825
0.000731668
0.00217763
0.000924643
0.000855821
0.000827246
0.000470397
0.00061958
0.000646358
0.000773133
0.000828943
0.00104807
0.00216633
0.000744359
0.000741684
0.000962841
0.000730401
0.000600473
0.00105586
0.000595361
0.000944771
0.000956189
0.00144176
0.00219106
0.000593919
0.000449205
0.000521666
0.000869929
0.00115661
0.000973179
0.000832976
0.000476954
0.000673298
0.00077724
0.00121947
0.00246739
0.000796162
0.000934744
0.000397386
0.000629985
0.000684015
0.00110164
0.00147056
0.000417341
0.00107378
0.000569398
0.000469219
0.000952574
0.00202551
0.000531098
0.000616589
0.000482103
0.000370737
0.000269394
0.000682488
0.000741231
0.000896655
0.000832701
0.00186597
0.00141306
0.00142077
0.00202622
0.00198715
0.000509126
0.000437444
0.000658472
0.000360152
0.000469613
0.00040953
0.000582429
0.000930106
0.000662596
0.00113548
0.00215367
0.00124806
0.00108431
0.000600747
0.000725637
0.00032487
0.000449498
0.000404775
0.000477896
0.000129301
0.000158602
0.000321824
0.000268931
0.000321795
0.000351107
0.000400237
0.000380234
0.000232699
0.000109137
0.000136202
0.000546225
0.000375367
0.000101019
0.000270546
0.000214773
0.000251064
0.00011723
0.000129227
0.000163091
0.000103003
0.000241581
8.76258e-05
0.00012475
8.83267e-05
9.80245e-05
0.000123928
0.000129435
0.000148658
0.00223625
0.000360089
0.00207003
0.000476972
0.000425749
0.00210103
0.000405289
0.000340173
0.000476882
0.00212404
0.000398278
0.000334591
0.000469206
0.000799346
0.00262418
0.000314271
0.000374812
0.000447087
0.00047598
0.000518525
0.00256442
0.000471752
0.000375303
0.000393785
0.000470443
0.000421091
0.000341852
0.00273464
0.00039934
0.000336142
0.000538491
0.000313321
0.000315421
0.000333366
0.000823826
0.00239667
0.000622991
0.000695678
0.000417817
0.000431211
0.000416924
0.000240776
0.000611679
0.000667472
0.00225465
0.000758768
0.000631746
0.000808488
0.000685018
0.00038491
0.000517257
0.000532502
0.000802583
0.000898608
0.00219718
0.000750314
0.000547307
0.000566404
0.000986284
0.000793914
0.00058022
0.000892292
0.000828526
0.000790311
0.00121413
0.00218614
0.000334172
0.000290441
0.000375701
0.000905367
0.000783528
0.000976766
0.000813031
0.000973441
0.00143788
0.000959287
0.00158339
0.00236487
0.000629004
0.000452415
0.000461097
0.000775415
0.0005248
0.000532865
0.00141252
0.000584093
0.000672675
0.00137896
0.000962634
0.00149505
0.0025405
0.000556371
0.000653569
0.000740211
0.000464345
0.000649686
0.00132253
0.000932777
0.000953355
0.0013965
0.000830449
0.000231278
0.000628496
0.000252678
0.00237251
0.000475467
0.000427266
0.000563805
0.000439989
0.000436652
0.000322961
0.000608935
0.000693441
0.000904273
0.00159444
0.00142172
0.00116343
0.00130927
0.00194879
0.00200729
0.000550994
0.000649231
0.000494143
0.000605755
0.00020828
0.000314272
0.000425101
0.000526737
0.000455626
0.000479187
0.000968191
0.00164469
0.00116328
0.000962498
0.000508189
0.000875657
0.000878037
0.000300778
0.000646429
0.000191614
0.00044852
0.000153727
0.0003396
0.000254687
0.000263626
0.000269926
0.000409598
0.00037724
0.000475544
0.000222905
0.00011256
9.70062e-05
0.000565611
0.000303156
0.000195297
7.41968e-05
0.000223784
0.000165672
0.000211283
0.000144425
0.000120334
0.00021479
9.84199e-05
0.000290066
0.000108347
0.000103991
0.000100157
0.000101389
0.000103689
0.000124569
0.00013776
0.00208478
0.000379484
0.00212103
0.000271346
0.000439052
0.00213184
0.00032479
0.000365593
0.000516498
0.00211286
0.000529974
0.000393178
0.000477379
0.000381537
0.00208562
0.000396727
0.000519002
0.000301978
0.000483016
0.00071933
0.00239364
0.000477983
0.000349864
0.000473695
0.000477084
0.000366151
0.000579271
0.00232236
0.000554234
0.000518373
0.000425396
0.000440705
0.000426649
0.000558152
0.000987767
0.00226459
0.000437402
0.000505421
0.000740333
0.000576802
0.000496182
0.000300098
0.000487224
0.00107574
0.00250041
0.00053485
0.00032837
0.000472529
0.000680296
0.000610156
0.000505295
0.000514792
0.000536588
0.000777742
0.00239777
0.000423887
0.000540718
0.00043485
0.000687182
0.000635577
0.000664731
0.000642649
0.000828781
0.00079495
0.000719979
0.00203208
0.000968346
0.000529986
0.000491645
0.000518096
0.000751675
0.000869972
0.000671709
0.000953535
0.00124541
0.00150853
0.000838953
0.00237104
0.000728616
0.00044209
0.000355572
0.000567653
0.000373755
0.000461341
0.000598096
0.000685235
0.00104214
0.0010231
0.00142856
0.00152666
0.00239378
0.000780293
0.000803401
0.000574168
0.000674602
0.000709198
0.000526547
0.000786359
0.00110386
0.000894725
0.00130229
0.000610446
0.000824817
0.00203981
0.00259058
0.00105623
0.000431479
0.000725297
0.000675088
0.000469667
0.000632086
0.000976668
0.000916766
0.000590984
0.000662782
0.000613207
0.000348506
0.000758432
0.00125254
0.00232429
0.000652875
0.000480305
0.000383095
0.000389754
0.000372491
0.000510278
0.000358718
0.000842955
0.00100436
0.000800201
0.00174675
0.00112859
0.000859027
0.00183831
0.00178403
0.00176043
0.00034311
0.000691128
0.000527451
0.000326047
0.000491786
0.000363551
0.000359638
0.000526622
0.000526235
0.000259888
0.00053847
0.00118839
0.00119544
0.000977356
0.000812887
0.000366393
0.000799335
0.000267187
0.000478508
0.000297138
0.000813764
0.000270588
0.000517768
0.00025591
0.000679155
0.000309118
0.000254439
0.000187171
0.000219118
0.0001556
0.000545461
0.000239343
0.000109359
0.000128501
0.00056886
0.000419724
0.000273021
0.000214953
6.65292e-05
0.000282369
0.000158003
7.77754e-05
0.000216888
7.29847e-05
3.72947e-05
0.000199546
0.000183343
0.000160386
0.000132873
0.000117486
0.00011678
8.61772e-05
0.000133051
0.000158661
0.00204949
0.000365991
0.00203023
0.000284149
0.000398719
0.00213404
0.000272872
0.00020581
0.000421264
0.00211014
0.000328175
0.000550189
0.000417542
0.000440605
0.00222334
0.000599672
0.00025358
0.000295047
0.000150828
0.000524985
0.0022126
0.000688772
0.000585624
0.000522161
0.000426058
0.00066803
0.000381347
0.00258015
0.000589392
0.00034663
0.000430978
0.000497149
0.000460006
0.000708811
0.000697724
0.00256975
0.000543629
0.000633765
0.000500921
0.000230694
0.000552754
0.000599415
0.000587661
0.000895888
0.00242586
0.000470816
0.00029913
0.00068824
0.000283877
0.000333084
0.000389177
0.0005551
0.000610486
0.000911256
0.00247174
0.0005571
0.000395174
0.000408551
0.000606487
0.000337155
0.000519512
0.000577385
0.000448083
0.000422452
0.000831583
0.00234423
0.000537366
0.000475466
0.00066013
0.000560626
0.000482954
0.000395312
0.000626682
0.000710907
0.000648844
0.001102
0.000693169
0.00232709
0.000450995
0.000381895
0.000610532
0.000695832
0.000444299
0.000546367
0.000518289
0.000614526
0.000926479
0.000581646
0.00138454
0.00131865
0.00224841
0.000416128
0.000249824
0.000342605
0.000389811
0.000245313
0.000325447
0.000504245
0.000364718
0.000922291
0.00121296
0.000642051
0.00103358
0.00211079
0.00263758
0.00146933
0.000988141
0.000952074
0.000732497
0.000360783
0.000552133
0.000632981
0.000856399
0.000495645
0.000861557
0.00105922
0.00103239
0.000979822
0.00171116
0.00274748
0.000832176
0.000421352
0.000241458
0.000515049
0.000598079
0.000501373
0.000860868
0.0010654
0.000791926
0.00106013
0.0013234
0.000370954
0.000641653
0.000346581
0.000837177
0.00223098
0.000780897
0.000705197
0.000669342
0.000327956
0.000437651
0.000287399
0.000563886
0.000432675
0.000566763
0.000758018
0.000432109
0.00174047
0.00148082
0.00262856
0.00279576
0.001695
0.00177019
0.000259713
0.000348789
0.000649814
0.000200839
0.000448847
0.000372393
0.000230702
0.000332599
0.000344839
0.000459957
7.80907e-05
0.000549046
0.000791417
0.00104099
0.00058795
0.000707539
0.000563205
0.000968781
0.000523474
0.000216273
0.000580574
0.000316628
0.000861729
0.000310968
0.000377072
0.000233094
7.92631e-05
0.000326115
0.000246506
8.06764e-05
0.000364019
0.000375894
0.000379079
0.000307781
0.000190409
0.000130814
0.000572228
0.000564627
0.000388369
0.000252107
0.000210556
0.000141742
0.000140831
0.000127853
6.59133e-05
0.00020418
4.28512e-05
2.30166e-05
0.000243751
0.000162845
0.000177327
0.000102226
0.000122783
0.000116764
9.52646e-05
0.000133289
0.000175901
0.00209412
0.00034154
0.00190199
0.000438558
0.000324713
0.00204618
0.000469745
0.000334813
0.000439874
0.00217788
0.000450437
0.000255533
0.000216615
0.000482754
0.00206512
0.0003851
0.00077371
0.000354793
0.000372478
0.000477131
0.0022065
0.000598031
0.000208547
0.000709787
0.000482227
0.000472835
0.00042013
0.00219133
0.000416432
0.000668991
0.000240031
0.000571515
0.000283586
0.000651794
0.000511927
0.00256826
0.000253191
0.000544507
0.000368432
0.000258178
0.000506896
0.000365931
0.000386252
0.000641647
0.00278938
0.00061143
0.000686641
0.000684941
0.000527209
0.000429586
0.000528489
0.000362888
0.000531118
0.00114527
0.00259933
0.000538839
0.000733991
0.00082065
0.000747686
0.000651846
0.000482827
0.000563624
0.000448309
0.000563519
0.000685842
0.00241598
0.000590552
0.000655714
0.000556726
0.000521192
0.000605658
0.000461586
0.000444217
0.000841555
0.000618263
0.000577604
0.000655335
0.00218216
0.000368707
0.000571318
0.000578991
0.00048304
0.000467927
0.00059891
0.000298161
0.000439545
0.000900709
0.000952222
0.000718763
0.000684613
0.00231329
0.000756699
0.000681641
0.000269906
0.000406027
0.000542893
0.000582659
0.000710989
0.000632841
0.000561695
0.000948946
0.00152659
0.0014392
0.0011723
0.00245314
0.00109894
0.000401165
0.000288534
0.000651999
0.000299381
0.000241164
0.000536992
0.000740527
0.00087509
0.00086463
0.00133907
0.00140949
0.00170502
0.00128838
0.00282065
0.00061137
0.00170964
0.000753843
0.000793948
0.00080691
0.00059868
0.000561286
0.000440017
0.00075089
0.000700678
0.000920095
0.000859992
0.000960304
0.00115996
0.000961967
0.00255448
0.000730667
0.000593265
0.000771286
0.000398075
0.000510014
0.000625862
0.000630948
0.000533419
0.000669988
0.000847511
0.00105575
0.000756132
0.00051055
0.000268588
0.000838636
0.000741478
0.00229737
0.00147024
0.000709888
0.000810647
0.000704763
0.000326984
0.000430323
0.000453261
0.000591745
0.000365513
0.000352878
0.000395691
0.000188298
0.00196721
0.00190714
0.00284932
0.00238752
0.00121296
0.00178974
0.00071399
0.000932786
0.000921583
0.00066757
0.000232172
0.000428301
0.00027883
0.000640632
0.000369217
0.000229221
0.0005181
0.000190702
0.000293135
0.000443913
0.00090732
0.00037716
0.000704688
0.000388433
0.000931948
0.000439031
0.000445129
0.000511758
0.000706962
0.000426818
0.000619892
6.47546e-05
0.00025138
0.000185365
0.000512257
0.000135721
0.000346851
0.0002015
0.000380466
0.000329982
0.000203215
0.000357952
0.000216378
0.000139477
0.000570167
0.000213701
0.000614894
0.000391385
0.000244303
0.00013059
0.000182737
0.000194055
6.37191e-05
0.000175784
7.1139e-05
0.000128924
0.000168703
0.000175059
0.000160485
0.000218479
0.000103955
0.000119119
9.84857e-05
9.3178e-05
0.000144086
0.00013504
0.00219145
0.00045372
0.00200992
0.000285601
0.000372347
0.00192766
0.000372727
0.000340533
0.000264097
0.00208123
8.93909e-05
0.000345174
0.000412456
0.00037751
0.00219651
0.000263996
0.00048228
0.000516914
0.000133637
0.000669013
0.0020346
0.000192343
0.000443134
0.000885094
0.000517547
0.000604032
0.000548502
0.00219757
0.000477724
0.000287754
0.000461901
0.000352463
0.000403389
0.000631896
0.0003592
0.00228386
0.000534478
0.000471748
0.000547722
0.000621341
0.000438597
0.000342842
0.000378512
0.000599843
0.00246962
0.000594345
0.000506243
0.000402923
0.000276326
0.000760273
0.000553335
0.000497283
0.000370256
0.000642233
0.00250724
0.000636199
0.000623081
0.000545314
0.000486574
0.000646214
0.000472593
0.000494649
0.000501157
0.000473843
0.000993865
0.0025026
0.000498952
0.000585
0.000692089
0.000332001
0.000564074
0.000594773
0.000694738
0.000464303
0.000674213
0.000680595
0.000533957
0.0023572
0.000594298
0.000549253
0.000571706
0.000607515
0.000386167
0.000567169
0.00045804
0.000632451
0.000659134
0.000711466
0.000492563
0.00067087
0.00235247
0.000568555
0.000295944
0.000467392
0.000392193
0.000434013
0.000567063
0.000615273
0.000716692
0.000737512
0.000941615
0.00106084
0.000760132
0.000390455
0.00239454
0.000586676
0.00039321
0.000872299
0.000238387
0.000417421
0.00045168
0.000627988
0.000553027
0.000892817
0.00060442
0.000825309
0.00102685
0.00125012
0.000972898
0.00259592
0.000562149
0.00101223
0.000665749
0.000494377
0.000380184
0.000541708
0.000200616
0.000487322
0.000809995
0.000634658
0.000240481
0.000820962
0.00115496
0.000800697
0.0018245
0.00295445
0.00189295
0.00172105
0.00132028
0.00038287
0.00047128
0.000664595
0.000541923
0.000722747
0.000836484
0.000705186
0.00113719
0.000617776
0.000666715
0.00102643
0.000806213
0.00119398
0.00247296
0.00124277
0.00108747
0.00081463
0.000894741
0.000414524
0.000509916
0.000745684
0.000877357
0.000942102
0.00067873
0.000748484
0.00103018
0.00116759
0.000522212
0.000719039
0.00176103
0.000819707
0.00247187
0.000874742
0.00195659
0.00132478
0.000828233
0.000708391
0.000355563
0.000473535
0.000416662
0.000470293
0.000470712
0.000245125
0.000497466
0.000470738
0.00155603
0.00237467
0.00178639
0.00182075
0.00126152
0.00196116
0.000729278
0.000796557
0.00108475
0.0014222
0.000488487
0.000525214
0.000311439
0.000705127
0.00058249
0.000295364
0.000376984
0.000393956
0.000370737
0.000203215
0.000357243
0.000600559
0.000370087
0.000596173
0.000322496
0.00098051
0.00025317
0.00033715
0.000410374
0.000449314
0.000714083
0.000585819
0.000467754
0.000183858
0.000284267
0.000282445
0.000541715
0.00024005
0.000308385
0.000140897
0.000169858
0.000473051
0.000261894
0.000357552
0.000153689
0.000144849
0.000537534
0.000500215
0.000185468
0.000644094
0.000395423
0.000196543
0.000211921
8.60355e-05
0.000180547
0.000186985
8.43059e-05
4.65473e-05
4.68945e-05
9.26216e-05
0.000183412
0.000246198
0.000220255
0.000167271
0.000123841
6.17387e-05
8.78724e-05
0.000158412
0.000182775
0.00216101
0.000347216
0.00198648
0.000516071
0.000365935
0.00196527
0.000411431
0.000175756
0.000428611
0.00199784
0.000311991
0.000244585
0.000468843
0.000395842
0.00199862
0.000582222
0.000418188
0.000189465
0.000396472
0.000341246
0.00222427
0.000354884
0.000138099
4.75926e-05
0.000255569
0.000252765
0.000559659
0.00208029
0.00074302
0.000451954
0.000495891
0.000668751
0.000386401
0.000315116
0.000676416
0.00222757
0.000589623
0.000422672
0.000303529
0.000705171
0.000766411
0.000665244
0.000420531
0.000649047
0.00232838
0.000671173
0.000629982
0.000422696
0.000575052
0.000621588
0.000381399
0.000724689
0.000665302
0.000583548
0.00248722
0.000645054
0.000499312
0.000409835
0.000390644
0.000578327
0.0006202
0.000551459
0.000544713
0.00034227
0.0004846
0.00252038
0.000643416
0.00060143
0.000362763
0.000170491
0.000438799
0.000512285
0.000856498
0.000704799
0.000650076
0.000659561
0.0006029
0.00238344
0.000719177
0.00068441
0.000475557
0.000377991
0.000855675
0.000594304
0.000627716
0.000681175
0.000567812
0.000585234
0.000652534
0.000654085
0.00236964
0.000652805
0.000690743
0.000452404
0.000493383
0.000637086
0.000619973
0.000687491
0.000786529
0.000769686
0.000670584
0.000492299
0.000648292
0.000567469
0.00244519
0.000869901
0.000486465
0.000881756
0.000321925
0.000327807
0.000487434
0.000337094
0.00059197
0.000586817
0.000891355
0.000862389
0.000608031
0.0006177
0.00058986
0.00227721
0.0018901
0.000424544
0.000343536
0.000238501
0.000622707
0.000555972
0.000466632
0.000571001
0.000525203
0.000523986
0.000885681
0.000775209
0.00101632
0.000694782
0.00105813
0.00258865
0.000864405
0.00198548
0.000766403
0.000695825
0.000662799
0.000414119
0.000284549
0.00038169
0.00043296
0.000322304
0.000406194
0.000562594
0.000572824
0.000971587
0.000910602
0.00127605
0.00314073
0.00113835
0.000631232
0.000728694
0.00160029
0.00029892
0.000458775
0.000769423
0.000581601
0.000589459
0.000863747
0.000548708
0.00156134
0.00106399
0.000775307
0.00102187
0.00114882
0.000762944
0.00281263
0.000725031
0.000732201
0.000806829
0.000916624
0.000830722
0.000534273
0.000639718
0.000777297
0.000904523
0.000727466
0.000654766
0.00071289
0.00087694
0.00139048
0.000755846
0.000866848
0.00135342
0.000829146
0.00282984
0.000513681
0.000319071
0.00100528
0.0014782
0.000923821
0.000615034
0.000409419
0.000390419
0.00030541
0.000686498
0.000745403
0.000184985
0.000422384
0.000597977
0.00154482
0.00273935
0.00198464
0.00149096
0.0012012
0.00205955
0.000325191
0.000256767
0.000815475
0.000411837
0.000546746
0.000346985
0.000646935
0.000302875
0.000681486
0.000505504
0.000298452
0.000293739
0.000491498
0.00047373
0.000256873
0.000496086
0.000446021
0.000543138
0.000532655
0.000457167
0.00105148
0.000236086
0.000240052
0.000321946
0.00044544
0.000409712
0.000433817
0.000534734
0.000376004
0.000157965
0.000255909
0.000356773
0.000141649
0.000206251
0.000202058
4.33741e-05
0.000321978
0.000342252
0.000282383
0.000300982
0.00018526
0.000168323
0.00051069
0.000178188
0.000489596
0.000283303
0.000632752
0.000398962
0.000220538
0.000239182
8.30328e-05
0.000312163
0.00016047
6.52103e-05
4.7418e-05
6.80769e-05
6.70108e-05
0.000114733
0.000211305
0.00020468
0.000146794
0.000136908
7.04062e-05
7.21903e-05
0.000152613
0.00015835
0.00197472
0.000544694
0.00203737
0.000335476
0.00037105
0.00202468
0.000354838
0.000445581
0.000298053
0.00203336
0.000325949
0.000326961
0.000312955
0.000412424
0.00196519
0.000473438
0.000542292
0.000460657
0.00055079
0.00035094
0.00205328
0.000518169
0.000533471
0.000345164
0.000583771
0.000663305
0.00043036
0.00220701
0.000521173
0.000272067
0.00022919
0.000224916
0.00027184
0.000413752
0.000500342
0.00215213
0.000627
0.000436156
0.000371187
0.00041671
0.000809526
0.000396882
0.00019049
0.000611517
0.00230851
0.00066518
0.000641045
0.000356442
0.000621095
0.000179453
0.000751793
0.000729068
0.000227004
0.000630133
0.00234149
0.000669221
0.000588351
0.000390057
0.000548429
0.000843503
0.000435813
0.000493949
0.000556213
0.000419333
0.000671931
0.00261078
0.000573983
0.000497366
0.000568696
0.00125386
0.000611003
0.00080815
0.000585347
0.000606113
0.00043565
0.000396086
0.000547079
0.00254202
0.000374273
0.000662283
0.00059344
0.000846693
0.000955679
0.000620666
0.000771758
0.000471441
0.000645691
0.000408391
0.000527644
0.000588887
0.00233694
0.000681146
0.000560864
0.000556023
0.000741137
0.000524882
0.000543049
0.000707224
0.000836015
0.000555066
0.000479477
0.00070614
0.000721811
0.000569683
0.00242747
0.000857512
0.000679282
0.000577047
0.000583551
0.000646747
0.000606076
0.000374982
0.000711429
0.000527798
0.000524066
0.000489526
0.000519773
0.000767841
0.000612825
0.0022754
0.000446373
0.0008041
0.000662568
0.000885833
0.000746643
0.000596046
0.000474407
0.000567529
0.000606398
0.000390092
0.000742719
0.000642545
0.00102838
0.000992669
0.00068909
0.00232892
0.000324295
0.000559843
0.000161188
0.000428454
0.0006083
0.000482481
0.000245989
0.00057813
0.000182677
0.000546091
0.000679009
0.000834185
0.000603678
0.00133794
0.00156403
0.000673802
0.00259108
0.00179483
0.00179665
0.00117929
0.000396896
0.000711726
0.000528703
0.000543857
0.000521432
0.000787068
0.000334877
0.000519949
0.000320458
0.000438735
0.000605779
0.000680013
0.0012644
0.00119507
0.00301211
0.000221531
0.00105225
0.00135741
0.00100396
0.000750721
0.000685195
0.000371098
0.000586177
0.000841151
0.000612971
0.000678576
0.000639681
0.00113554
0.00121254
0.000772156
0.000693043
0.00105296
0.000921859
0.0028501
0.000370606
0.000505283
0.000959054
0.00116227
0.000543903
0.000772459
0.000665032
0.000600724
0.000844034
0.000775107
0.00058918
0.000454711
0.000719771
0.000766507
0.00187227