/*--------------------------------*- C++ -*----------------------------------*\
  =========                 |
  \\      /  F ield         | OpenFOAM: The Open Source CFD Toolbox
   \\    /   O peration     | Website:  https://openfoam.org
    \\  /    A nd           | Version:  7
     \\/     M anipulation  |
\*---------------------------------------------------------------------------*/
FoamFile
{
    version     2.0;
    format      ascii;
    class       surfaceScalarField;
    location    "3";
    object      phi;
}
// * * * * * * * * * * * * * * * * * * * * * * * * * * * * * * * * * * * * * //

dimensions      [0 3 -1 0 0 0 0];

internalField   nonuniform List<scalar> 
54125
(
3.5115e-05
-4.04023e-05
-0.00124815
7.86617e-05
-6.76311e-05
-0.000652232
7.51639e-06
-6.79672e-05
-0.00051487
2.96312e-05
-3.5486e-05
-0.0012423
-4.89374e-05
-3.07993e-05
0.00112546
7.81911e-05
-0.000121143
-0.000105974
5.2094e-05
-6.2226e-05
-0.000612469
-9.72961e-06
-8.04498e-05
-0.000454897
4.46234e-06
-6.06494e-05
-0.000494169
2.46449e-05
-3.5592e-05
-0.00123135
-0.000353792
0.000240994
0.00566515
2.98204e-05
1.29901e-06
0.000631152
-5.25633e-05
-2.10403e-05
0.00125116
-3.4951e-05
-0.000122787
-0.000404917
6.94555e-05
-0.00011769
-0.000115503
3.37691e-05
-6.32268e-05
-0.000558366
2.69223e-05
-7.48525e-05
-0.000731429
-1.05386e-05
-7.13957e-05
-0.000433612
3.79841e-06
-5.96319e-05
-0.000473927
2.69811e-05
-3.44913e-05
-0.00122384
-0.000795349
0.000348077
0.00615634
-9.09628e-05
0.000351579
0.00613939
-0.00019979
0.000216559
0.00559582
-8.82442e-05
0.00013207
0.00103205
3.39246e-05
-1.52085e-05
0.000660851
-9.41119e-05
-1.35079e-05
0.00139255
-8.34908e-06
-0.000108525
-0.00038691
-3.88991e-05
-0.000115569
-0.000378677
6.3639e-05
-0.000122034
-0.000116537
1.67414e-05
-6.30113e-05
-0.000485115
4.69973e-05
-5.75128e-05
-0.000484994
1.44781e-05
-6.65334e-05
-0.00075077
-1.45475e-05
-7.00651e-05
-0.000408631
2.04556e-06
-5.86092e-05
-0.000451855
1.85915e-05
-3.47205e-05
-0.00120771
-0.00138939
0.000433218
0.0045116
-0.000600058
0.000666476
0.00666144
-0.000694828
0.000299235
0.00635215
-0.000200288
0.000237539
0.00676602
4.93838e-05
0.000330526
0.00600996
-0.000173211
0.000223624
0.0054513
-0.000156052
0.000227184
0.00172594
-0.000110218
8.73569e-05
0.00100081
2.40824e-05
-3.25046e-05
0.000719405
-0.000172069
-5.24481e-06
0.0015866
-5.49972e-06
-9.01993e-05
-9.3775e-05
-3.78356e-05
-9.57519e-05
-0.000354413
-6.66109e-05
-0.000117698
-0.000330949
5.9098e-05
-0.000126918
-0.000109683
-8.51735e-06
-6.38106e-05
-0.000394196
2.63863e-05
-4.25768e-05
-9.77494e-05
2.38755e-05
-5.10829e-05
-0.00052432
7.98625e-06
-6.51448e-05
-0.000763676
-1.76625e-05
-6.89411e-05
-0.000380637
-1.14356e-06
-5.75106e-05
-0.000427921
1.15527e-05
-3.45304e-05
-0.00118473
-0.00170785
0.000302378
0.0039086
-0.00116813
0.000825448
0.00504859
-0.00136958
0.000424177
0.00476218
-0.000539449
0.000778846
0.00678057
-0.000358964
0.000597325
0.00677169
-0.000580392
0.000266722
0.00649261
-0.000227721
-3.58405e-05
0.00629389
-0.00019124
0.000245742
0.00693183
-7.87296e-05
0.000272215
0.00606418
-0.000313275
0.000219119
0.00537338
-6.92252e-05
0.000127378
0.00248166
-0.000151801
0.000191459
0.0017358
-6.7425e-05
4.38487e-05
0.000925267
3.12751e-05
-4.58953e-05
0.000787878
-0.000247357
4.684e-06
0.00182076
3.64519e-05
-6.63477e-05
0.000873537
-1.65848e-05
-8.27072e-05
-6.63593e-05
-6.64795e-05
-9.22504e-05
-0.000305395
-9.65104e-05
-0.000121624
-0.000257395
4.62385e-05
-0.000126629
-9.42471e-05
-1.2364e-05
-6.56687e-05
-0.000304611
-7.62477e-07
-4.39471e-05
0.00101747
2.17927e-05
-3.81678e-05
-0.000132457
6.73679e-06
-4.99005e-05
-0.000546301
2.53419e-06
-6.39801e-05
-0.000771171
-2.26595e-05
-6.79867e-05
-0.000347501
-5.04508e-06
-5.64143e-05
-0.000400992
7.44179e-06
-3.41073e-05
-0.00115807
-0.00176194
0.000337887
0.00363504
-0.000931208
0.000299311
0.00531663
-0.00156317
0.000222189
0.00388
-0.000865417
0.00077943
0.00610034
-0.000935502
0.000774937
0.00527437
-0.00131065
0.000445608
0.00504682
-0.000393879
0.000699134
0.00664492
-0.000390723
0.000676558
0.00690082
-0.000525816
0.000566016
0.00691949
-0.000619989
0.000270332
0.00652899
-0.000142176
-0.000304745
0.0052493
-0.000167974
5.9871e-05
0.00649594
-2.03873e-05
0.000156078
0.00700093
-0.000102039
0.000260849
0.00615577
-0.000504888
0.000207103
0.00542381
-4.17271e-05
7.66581e-05
0.00167028
-5.19282e-05
0.000104522
0.00260394
-0.000123
0.000169434
0.00166674
-7.53527e-05
-1.25085e-05
0.000870722
3.7064e-05
-8.2024e-05
0.00088376
-0.000316143
9.29318e-06
0.00211524
3.42783e-05
-4.02895e-05
0.00107887
2.70752e-05
-6.45167e-05
0.000850064
-3.12676e-05
-8.55217e-05
-3.50835e-05
-9.02402e-05
-9.12469e-05
-0.000242998
-0.000126221
-0.000120902
-0.000159561
3.14614e-05
-0.000126329
-7.00931e-05
-1.68406e-05
-6.78006e-05
-0.000212528
-1.71655e-05
-3.64714e-05
0.00104052
1.15698e-06
-4.04504e-05
0.00101859
1.26921e-05
-3.77869e-05
-0.000157263
-6.20656e-06
-4.90741e-05
-0.000555
-1.79957e-06
-6.33345e-05
-0.000774024
-2.70861e-05
-6.71435e-05
-0.000309686
-8.67371e-06
-5.54271e-05
-0.000370999
1.26053e-05
-3.25394e-05
-0.00113813
-0.00188403
0.000172603
0.00399156
-0.000928865
0.000390032
0.00469444
-0.0016397
0.000154131
0.00355743
-0.000808829
0.000295183
0.00570514
-0.000850827
0.000275339
0.0051788
-0.00155528
0.000259231
0.0038654
-0.000654248
0.000745746
0.00659502
-0.000661819
0.000726001
0.00642037
-0.00102375
0.00073943
0.00547849
-0.00129093
0.000446611
0.00527116
-0.00022757
0.000462371
0.00646854
-0.000243914
0.000549585
0.00684783
-0.00030674
0.000665769
0.00708742
-0.000500835
0.000578888
0.00700973
-0.00076348
0.000308625
0.00647896
-1.105e-05
-0.00020198
0.0028047
-0.000104376
-0.000136877
0.00549849
-4.97987e-05
-1.75519e-05
0.00659637
-5.79497e-06
0.00018544
0.00700678
-2.63513e-05
0.000301848
0.00612444
-0.000759778
0.000223781
0.00564366
5.58159e-05
7.24483e-05
0.00131148
-3.89844e-05
4.84495e-05
0.00179242
-3.13469e-05
8.91575e-05
0.00268429
-0.000115151
0.000127068
0.00155207
-0.000138293
-8.95858e-05
0.000890356
8.21988e-06
-0.00012291
0.0010392
-0.00035269
1.00163e-05
0.00244108
1.26274e-05
-2.04121e-05
0.00127749
2.10172e-05
-3.86111e-05
0.00103311
-2.50602e-08
-7.11581e-05
0.000848418
-4.21483e-05
-8.67733e-05
-3.61541e-06
-0.000102123
-9.21128e-05
-0.000171464
-0.000147114
-0.000121241
-4.46215e-05
2.04297e-05
-0.000125152
-4.18456e-05
6.29845e-06
-6.80271e-05
-0.000138194
-0.000101873
-8.08642e-06
0.000658434
-1.72448e-05
-3.29706e-05
0.00105029
3.9194e-06
-4.07008e-05
0.00101759
8.99376e-06
-3.85051e-05
-0.000176825
-1.72208e-05
-4.94163e-05
-0.000551697
-6.8487e-06
-6.29882e-05
-0.000771331
-2.9925e-05
-6.64939e-05
-0.000268694
-1.00457e-05
-5.45386e-05
-0.000338954
8.57267e-07
-3.32291e-05
-0.00110576
-0.00193345
0.000127114
0.0035499
-0.000892359
0.000279071
0.00473543
-0.00164191
0.000119454
0.00387432
-0.000779922
0.000455314
0.00542284
-0.00108827
0.000335405
0.0047506
-0.00172298
0.000144878
0.00358026
-0.000595031
0.00026704
0.00587032
-0.000708071
0.000391735
0.005635
-0.000948675
0.000336798
0.00502616
-0.00153806
0.000263313
0.00384921
-0.000323275
0.000693599
0.00670511
-0.000341806
0.000738127
0.00668078
-0.000581233
0.000782965
0.00665133
-0.000883619
0.000686378
0.0056215
-0.00126979
0.000384479
0.00539299
4.27565e-05
0.000354514
0.00621752
-0.000142972
0.000439348
0.00661737
-0.000169267
0.000610243
0.00702283
-0.000219996
0.00066514
0.00721537
-0.000386701
0.000605774
0.00707293
-0.000937857
0.000367124
0.00628991
6.34267e-05
-0.000137555
0.000279499
7.34397e-05
-0.000175525
0.00273092
-5.92215e-05
-0.000191394
0.00570021
1.21183e-05
0.000116952
0.00653759
-0.000102956
0.000289765
0.00698352
7.57993e-06
0.000286423
0.00606243
-0.000943039
0.000290697
0.00594332
2.23421e-05
3.26054e-06
0.00111865
-8.3932e-06
5.19183e-05
0.00133742
-2.83263e-05
7.84393e-06
0.00190203
7.11454e-06
6.92463e-05
0.00269285
-0.000126461
8.11316e-05
0.00140569
-0.000131474
-0.000183497
0.000935304
-1.75899e-05
-0.000151845
0.00123909
-0.00024376
5.85551e-06
0.00268528
-0.0001884
-1.00665e-07
0.000902171
3.26568e-06
-3.14888e-05
0.00124986
1.14754e-05
-4.13722e-05
0.000995765
-1.11482e-05
-7.60223e-05
0.000857809
-3.55898e-05
-8.81722e-05
1.0813e-05
-0.000104748
-9.72315e-05
-9.75743e-05
-0.000158902
-0.000122404
8.16087e-05
1.89099e-05
-0.000120312
-1.85166e-05
-1.64401e-05
-6.85759e-05
-5.23203e-05
-0.000132166
5.89992e-06
0.000844325
-9.7938e-05
-7.80452e-06
0.000731206
-1.88296e-05
-3.30883e-05
0.00106151
5.97486e-06
-4.18143e-05
0.00101492
2.44489e-06
-3.94305e-05
-0.000189256
-2.37157e-05
-5.0585e-05
-0.000540385
-1.04256e-05
-6.31359e-05
-0.000764263
-3.24494e-05
-6.60106e-05
-0.000224772
-1.1398e-05
-5.37818e-05
-0.000307003
4.36464e-06
-3.22791e-05
-0.00107785
-0.00178267
-5.13294e-05
0.00329812
-0.000806763
0.000184989
0.00473429
-0.00176389
8.89517e-05
0.00358292
-0.000642086
0.000313095
0.00488288
-0.00104147
0.000255052
0.00455303
-0.00166582
0.000195704
0.00362146
-0.000452502
0.000586686
0.00547374
-0.000674847
0.000414023
0.00531099
-0.00110182
0.00036151
0.00468711
-0.00171623
9.34412e-05
0.00366499
-0.000270271
0.00047896
0.00600492
-0.000342568
0.000504014
0.0057588
-0.000602362
0.000513773
0.00547915
-0.000877838
0.000368624
0.00491507
-0.00142168
0.000244995
0.0037561
-2.83571e-05
0.000787676
0.00676363
-0.000128315
0.000672304
0.00675628
-0.000194795
0.000807932
0.00668134
-0.000422361
0.000751689
0.00678838
-0.000785754
0.000585752
0.00581928
-0.00132487
0.00032604
0.00545396
0.000234825
0.000242753
0.00490597
0.000214884
0.000485455
0.00602996
-6.60138e-05
0.000484963
0.00674944
-8.48526e-05
0.000652638
0.0071323
-0.000280319
0.000701906
0.0072966
-0.000346914
0.000560606
0.00723394
-0.0011641
0.000435919
0.00607505
-0.000185737
-0.000154092
0.00145986
5.70376e-05
-0.000248731
0.000287274
0.000120784
-0.000227374
0.00261779
1.13947e-05
-0.000119188
0.00593207
5.9296e-06
0.000239693
0.00645527
4.46963e-05
0.000275485
0.00681829
6.06625e-05
0.00024752
0.00602736
-0.000759169
0.000378985
0.00607974
-0.000227401
-9.72511e-05
0.0013682
-8.43869e-06
-2.44626e-05
0.00120673
-4.1529e-05
1.76144e-05
0.00138065
-1.41149e-05
-2.66844e-05
0.00200093
7.67133e-05
4.5376e-05
0.00261631
-8.20767e-05
4.42305e-05
0.00115529
-0.00010877
-0.000241274
0.000974601
-1.09242e-05
-0.000192216
0.00146699
-0.000279176
1.03456e-05
0.00293767
-0.0002584
2.90804e-07
0.0013188
-0.000195264
-2.88807e-05
0.000996889
-1.45711e-05
-3.89811e-05
0.00124321
6.8917e-06
-4.6328e-05
0.000965154
-2.34839e-05
-8.02162e-05
0.000875782
-3.08959e-05
-8.6066e-05
6.82764e-06
-9.01149e-05
-0.000107052
-3.3237e-05
-0.000154074
-0.000122327
0.000205249
1.423e-05
-0.00011639
3.66935e-06
1.26882e-05
-7.30187e-05
1.23751e-05
-8.86897e-05
6.04883e-07
0.00137327
-0.000120463
7.27299e-06
0.00094971
-0.000103339
-6.60048e-06
0.000808057
-2.23836e-05
-3.27098e-05
0.00107478
9.02954e-06
-4.24452e-05
0.00100891
-8.60738e-06
-4.12951e-05
-0.000189939
-3.3596e-05
-5.18331e-05
-0.000518092
-1.31538e-05
-6.38807e-05
-0.000753239
-3.4848e-05
-6.5321e-05
-0.000178385
-1.31648e-05
-5.32028e-05
-0.000272914
2.26636e-06
-3.21678e-05
-0.00104795
-0.0013224
-0.000379852
0.00393445
-0.000896911
0.000145608
0.00432522
-0.00158735
-0.000139044
0.00326063
-0.000612714
0.000205326
0.00465438
-0.00109612
0.000155813
0.00472208
-0.00170676
0.000117387
0.00350648
-0.000408611
0.000486637
0.00514184
-0.000631672
0.000329664
0.00476509
-0.00107872
0.000269915
0.00445572
-0.00174403
0.000245662
0.0034036
-0.000140026
0.000691623
0.00543141
-0.000378319
0.000532879
0.00539063
-0.000548498
0.000482372
0.00513627
-0.00100408
0.00035087
0.00455592
-0.00158056
0.000130692
0.00369319
-0.000103818
0.000647185
0.00629465
4.59714e-05
0.000557553
0.00577709
-0.000230375
0.000659928
0.00564823
-0.000530753
0.000593768
0.0053624
-0.00088098
0.000360444
0.00489484
-0.00153257
0.000188906
0.00377489
0.000405625
0.000564058
0.0066451
9.36394e-05
0.000755687
0.00680149
3.41173e-05
0.000700101
0.00676398
2.78727e-05
0.000776579
0.00654373
-0.000346063
0.00067537
0.00676451
-0.000773233
0.000528732
0.00604291
-0.00140678
0.000272846
0.00542379
0.000239138
0.00020742
0.0029105
0.000348348
0.000351897
0.00474822
0.000321483
0.000250849
0.00606338
1.16626e-05
0.000503966
0.00689784
-2.48335e-05
0.000664271
0.0072007
-1.1159e-05
0.00067105
0.00724201
-0.000227323
0.000566296
0.00739155
-0.00107568
0.00043872
0.00595284
-0.000244771
-0.000269053
0.00216309
-0.000156009
-0.00022461
0.00158331
7.27219e-05
-0.000333372
0.000279022
0.00016798
-0.000260135
0.00257664
0.000107618
-3.63636e-05
0.00617722
9.19639e-05
0.000182418
0.00637429
0.000180908
0.000196193
0.00657994
0.00010983
0.000323179
0.00596241
-0.00067774
0.000420943
0.00605736
-0.000240274
-0.000176106
0.00160784
-0.000237438
-0.000129074
0.00151499
-2.83961e-05
-7.12958e-05
0.00130947
-4.35993e-05
-3.99112e-05
0.00144437
-7.16255e-06
-6.106e-05
0.00209104
0.000134251
9.76922e-05
0.0023977
-2.85144e-05
4.61803e-05
0.000806237
-0.000148833
-0.000267233
0.00104438
-3.2398e-05
-0.000213533
0.0017375
-0.000232408
3.97123e-06
0.0031788
-0.000197418
1.50169e-05
0.0022215
-0.00022853
-2.13179e-05
0.0014193
-0.000201123
-5.08881e-05
0.00110658
-5.78623e-05
-1.20256e-05
0.00124439
7.90365e-07
-5.4068e-05
0.000947245
-6.06505e-05
-7.77795e-05
0.000919538
-6.9577e-05
-9.08485e-05
2.66048e-05
-8.17676e-05
-0.00011892
3.19701e-05
-0.000144236
-0.000120769
0.000319016
7.75808e-06
-0.000113912
2.36401e-05
5.98902e-05
-7.63702e-05
3.11216e-05
-0.000118488
-4.03361e-06
0.00091563
-7.54663e-05
3.47322e-06
0.00145254
-0.000118266
5.52976e-06
0.00105585
-0.000110072
-7.95575e-06
0.000893375
-2.53686e-05
-3.22651e-05
0.00108997
8.4138e-06
-4.37063e-05
0.00100291
-1.5114e-05
-4.25491e-05
-0.000184109
-3.7118e-05
-5.32954e-05
-0.000491559
-1.59125e-05
-6.40636e-05
-0.000738584
-3.5889e-05
-6.52201e-05
-0.000130479
-1.608e-05
-5.27233e-05
-0.000236279
-1.78835e-07
-3.20474e-05
-0.00101572
-0.00156041
-6.24439e-06
0.00370774
-0.00128497
-0.00013867
0.00429687
-0.00110111
-0.000318185
0.0037664
-0.000703011
0.000205447
0.00441954
-0.00122811
7.79071e-06
0.00431037
-0.00163697
-5.83235e-05
0.00324915
-0.000328164
0.000259765
0.00477419
-0.000654356
0.000219506
0.00461337
-0.00114041
0.000191039
0.00471012
-0.00174157
0.000123903
0.00338011
-4.14222e-05
0.000627622
0.0049559
-0.000335073
0.000479561
0.0049487
-0.000529677
0.000393639
0.00462254
-0.000980126
0.00026262
0.00441481
-0.00180921
0.000231979
0.00340027
2.1539e-05
0.000720343
0.0054421
6.12249e-05
0.000606929
0.0053421
-0.000275087
0.00058161
0.00533611
-0.000452925
0.000491694
0.00491762
-0.0008947
0.00035945
0.00434088
-0.00145642
9.26495e-05
0.0035244
0.000429197
0.000768443
0.00663025
0.000186073
0.000633398
0.00612637
0.000167322
0.000613049
0.00569076
-6.43287e-05
0.000787332
0.00554687
-0.00045533
0.000583349
0.00524876
-0.000877137
0.000355354
0.0048323
-0.00155688
0.000111302
0.0038137
0.000639104
0.000579777
0.0059814
0.000461583
0.00044377
0.00684378
0.000265618
0.000761644
0.00679581
0.000121738
0.000704015
0.00672647
1.6835e-05
0.000685329
0.0064921
-8.8314e-05
0.000674708
0.00669568
-0.000742106
0.000507769
0.00632277
-0.00139897
0.000237244
0.00550984
-2.11755e-06
0.000238092
0.00308643
0.000258142
0.000184422
0.00266383
0.000411233
0.000132659
0.0045279
0.000455291
0.000257625
0.00602241
0.000236362
0.000462036
0.00697134
0.00013381
0.000651538
0.00717836
0.000268201
0.000636761
0.00708425
-7.48077e-05
0.000499774
0.00751513
-0.00102842
0.000391325
0.00591219
-0.000135455
-0.000283164
0.00182831
-0.000242204
-0.000295361
0.0022386
-0.000142258
-0.000289777
0.00165358
-4.2182e-05
-0.000400519
0.000417988
0.000185286
-0.000253305
0.00260114
0.000214311
1.53147e-05
0.00626426
0.000203896
0.000149353
0.00618872
0.000176917
0.000325137
0.00625223
0.000101664
0.00026829
0.005981
-0.000571742
0.000437617
0.00595908
-0.00019929
-0.000136073
0.00151385
-0.00014405
-0.000165209
0.0015595
-0.00021981
-0.000159624
0.001622
-6.87354e-05
-0.000162779
0.00144321
-4.6769e-05
-5.46019e-05
0.00148547
-1.80218e-05
-4.71012e-05
0.00219321
0.000107162
0.000179857
0.00208728
-3.18441e-05
3.29767e-05
0.000456104
-6.87482e-05
-0.000292957
0.00104831
-3.42879e-05
-0.000222073
0.00200559
-0.000153802
-1.96047e-05
0.00341209
-0.000179199
1.04099e-05
0.00187765
-0.000161134
6.65525e-06
0.0022792
-0.000218735
-3.69e-05
0.00150578
-0.000205653
-3.08883e-05
0.00122102
-6.29832e-05
-6.07729e-05
0.00128871
-6.46291e-06
-6.45675e-05
0.00094891
-7.86641e-05
-8.06893e-05
0.000972929
-0.000115768
-8.8558e-05
7.48923e-05
-6.86676e-05
-0.000127137
9.10934e-05
-0.000121106
-0.000119921
0.000410242
7.2094e-07
-0.00011252
4.29889e-05
8.36894e-05
-8.1044e-05
2.82973e-05
-0.000137922
-1.09425e-05
0.000921685
-0.000105419
-3.75745e-06
0.00102828
-7.02946e-05
3.16702e-06
0.0015252
-0.000115067
1.97176e-06
0.00116098
-0.000108899
-1.05107e-05
0.000980519
-2.84711e-05
-3.32903e-05
0.00110803
1.08144e-05
-4.4723e-05
0.000994266
-2.58549e-05
-4.41955e-05
-0.000167354
-4.01153e-05
-5.45515e-05
-0.000460956
-2.11169e-05
-6.54246e-05
-0.000717263
-3.48999e-05
-6.55245e-05
-8.27778e-05
-1.85855e-05
-5.22872e-05
-0.000197454
8.76237e-07
-3.15322e-05
-0.000985064
-0.00185029
0.000275657
0.00226017
-0.00121176
-8.3091e-05
0.0037231
-0.00129762
0.000108955
0.00379529
-0.000929898
6.26693e-05
0.00433307
-0.00131147
-0.000113139
0.00417518
-0.00115845
-0.000294609
0.00358249
-0.000455326
0.000290047
0.00447689
-0.000744794
0.000136907
0.00438086
-0.00128094
4.27542e-05
0.00434983
-0.0016404
-1.48774e-05
0.00316286
-0.000162118
0.000409721
0.00492052
-0.000259702
0.000266171
0.00465216
-0.000576707
0.000269021
0.00458242
-0.000999706
0.000166427
0.00468717
-0.00185636
0.000150576
0.00327668
9.05084e-05
0.000714002
0.00491377
-2.07523e-05
0.000585405
0.00493203
-0.000257954
0.000500438
0.00482477
-0.000517958
0.00039503
0.00455517
-0.000817385
0.000330051
0.00423943
-0.00155883
0.000238543
0.00326414
0.000282388
0.000846576
0.00568806
0.000349897
0.000722644
0.00516256
0.000100407
0.000711181
0.00527945
-0.000155717
0.000594048
0.00532514
-0.00046229
0.00048823
0.0047958
-0.000934996
0.000280869
0.00421052
-0.00153717
4.00046e-06
0.00350068
0.000445998
0.000951183
0.00660122
0.000441159
0.000751774
0.0065323
0.000355442
0.000677582
0.00597202
0.000290985
0.000637701
0.00567115
-0.000164544
0.000750226
0.00556137
-0.000393734
0.000556796
0.00535274
-0.000839748
0.000342468
0.00469877
-0.00158593
6.22502e-05
0.0039384
0.000396127
0.000731832
0.00554375
0.000642583
0.00049039
0.00555034
0.000475046
0.000631382
0.00691023
0.000492549
0.00072089
0.00674168
0.000399604
0.000537458
0.0067111
0.000387403
0.000598575
0.00631464
0.000471545
0.000682517
0.00631759
-0.00059388
0.000461274
0.00661781
-0.00138854
0.0002018
0.00566816
-5.73615e-06
0.000172387
0.00371892
-3.35715e-05
0.000180449
0.00288177
0.000101413
0.00011058
0.00244224
0.000216584
0.000217969
0.00430879
0.000592305
0.000285803
0.00579162
0.000390561
0.000419843
0.00702678
0.000315526
0.000545676
0.00715782
0.000389247
0.000457285
0.00691441
7.81057e-05
0.000453358
0.00747666
-0.000877568
0.000377793
0.00584022
-9.81813e-05
-0.000291292
0.000618577
-5.06564e-05
-0.000260076
0.00169963
-0.000242299
-0.000303084
0.0022744
-0.000112276
-0.000353306
0.00164991
-5.92978e-05
-0.000423832
0.000601044
0.000248812
-0.000131223
0.00248084
0.000312882
9.81473e-05
0.00610975
0.000294381
0.000216111
0.00597153
0.000348342
0.000264007
0.00583943
0.000106785
0.000165752
0.00611179
-0.000544663
0.000554749
0.00579519
-0.000159752
-8.48774e-05
0.00183262
-0.000154436
-0.000132343
0.00147428
-0.000112471
-0.000137622
0.00143123
-0.000158132
-0.000199127
0.00161083
-4.35879e-05
-0.000198778
0.00156799
-4.38818e-05
-6.79929e-05
0.00154378
-1.05411e-05
-2.86269e-05
0.00233357
4.83946e-05
0.000191936
0.00176416
4.35706e-05
-0.000110848
0.000161757
6.10142e-05
-0.00032331
0.00096743
-1.36787e-05
-0.000232453
0.00223284
-4.4647e-06
-5.69846e-05
0.00355723
-0.000193535
-2.72082e-05
0.00155716
-0.000154122
2.89586e-06
0.00193011
-0.000146536
3.0004e-06
0.00231554
-0.000196433
-4.17344e-05
0.00159799
-0.000187684
-7.85326e-05
0.00131757
-6.82496e-05
-6.8927e-05
0.00133285
-8.27354e-06
-7.51981e-05
0.000962506
-0.000114182
-7.34083e-05
0.00104611
-0.000180191
-9.0647e-05
0.000178478
-4.76321e-05
-0.000134609
0.000132297
-9.52292e-05
-0.000119289
0.00047734
-1.10134e-05
-0.000111148
6.55206e-05
0.000100559
-8.53247e-05
1.39387e-05
-0.000113415
6.43206e-06
0.000256473
-0.000117882
-1.00429e-05
0.00104585
-9.87907e-05
-1.22199e-06
0.00113146
-6.84155e-05
2.45834e-06
0.00159312
-0.000109356
-1.62636e-06
0.00126146
-0.00010872
-1.13575e-05
0.00106731
-3.19431e-05
-3.36673e-05
0.00112892
9.72614e-06
-4.5746e-05
0.00098609
-3.4605e-05
-4.58303e-05
-0.00014147
-4.23642e-05
-5.59739e-05
-0.000428042
-2.58803e-05
-6.71691e-05
-0.000689738
-3.66634e-05
-6.55243e-05
-3.28772e-05
-2.11931e-05
-5.19768e-05
-0.000155816
-2.50901e-06
-3.15732e-05
-0.000950982
-0.00150232
-0.000151027
0.0023119
-0.00115227
0.000283317
0.00331627
-0.00170401
0.000261764
0.0024048
-0.0012281
0.000154037
0.00408734
-0.001127
-9.38315e-05
0.00374142
-0.00126787
6.55114e-05
0.00383921
-0.000733897
0.000331449
0.00431826
-0.000946376
4.78174e-05
0.0043737
-0.00136166
-0.000169007
0.0041303
-0.00120871
-0.00031193
0.00346274
-0.000324814
0.00049777
0.0045729
-0.000487531
0.0002944
0.00454722
-0.000696759
9.50583e-05
0.00444861
-0.00118336
5.98093e-05
0.0044588
-0.00183217
5.97064e-05
0.00307896
-0.000176177
0.000684826
0.00498259
-0.000147018
0.000393571
0.00491939
-0.000320181
0.000313564
0.00466984
-0.000601355
0.00023899
0.00459325
-0.000789365
0.000242435
0.0045673
-0.00162977
0.000199321
0.0031483
0.000115963
0.000887457
0.00504708
0.000262482
0.000652864
0.00493373
-4.62838e-06
0.000643384
0.00489412
-0.000160383
0.000538591
0.00468587
-0.000521269
0.000427325
0.00451687
-0.000897691
0.000345033
0.00409563
-0.00173638
0.000237826
0.00322552
0.000339077
0.00103044
0.00573602
0.000477664
0.00085126
0.00552293
0.000353425
0.000817348
0.00505841
0.000254572
0.000745824
0.00516408
-2.53349e-05
0.000592456
0.00508171
-0.000466375
0.000452198
0.00469711
-0.000988299
0.000222853
0.00414022
-0.00157506
4.60847e-05
0.00344372
0.000500768
0.00107317
0.00644886
0.000593914
0.000851213
0.00655045
0.000502488
0.000747316
0.00643513
0.00050937
0.000670339
0.00592256
0.00054673
0.000544624
0.00572962
0.000271499
0.000684361
0.00554971
0.000179737
0.000536009
0.00545101
-0.000851367
0.000324116
0.0046944
-0.00149884
1.46913e-05
0.00403401
0.000244946
0.000543508
0.00520459
0.00036312
0.000674025
0.00496342
0.000468567
0.000624183
0.00519038
0.00052654
0.000798784
0.00652238
0.000721186
0.000535046
0.00661521
0.000601643
0.00043737
0.00666122
0.000587812
0.000493824
0.00623105
0.000207189
0.000624732
0.00633619
-0.00038888
0.000489427
0.00679717
-0.00135799
0.000205085
0.0059435
0.000103164
1.78578e-05
0.00349279
3.10458e-05
0.00012794
0.00368973
-7.71213e-05
-5.97764e-07
0.00282777
1.38084e-05
0.000161436
0.00237269
0.000302039
0.000311257
0.003922
0.000688566
0.000387998
0.00538372
0.000581246
0.000219981
0.00708411
0.000549004
0.000388512
0.00697197
0.000495917
0.00033662
0.00688357
0.000179165
0.000477614
0.00730445
-0.000851003
0.000339752
0.00580681
-0.000127441
-0.000274152
0.000684425
-3.38394e-05
-0.00023932
0.000477225
-2.23157e-05
-0.000241849
0.00154824
-0.000153501
-0.000282544
0.00219901
-7.43065e-05
-0.000407808
0.0016646
-3.38929e-05
-0.000397374
0.000857206
0.000349107
-2.01712e-05
0.00223951
0.000407857
0.000218714
0.00574768
0.000517387
0.000136919
0.0056248
0.000516218
0.000157754
0.00539222
0.000198129
0.000377958
0.00607678
-0.000374826
0.000523713
0.00564184
-0.000113089
-5.58413e-05
0.00176601
-0.000148202
-0.000156098
0.00185045
-0.000129112
-0.00010885
0.00142809
-8.59031e-05
-0.000134162
0.00125574
-9.40504e-05
-0.000231072
0.00154949
-3.27314e-05
-0.000209558
0.00167404
-2.09673e-05
-7.77019e-05
0.00160555
2.74673e-05
-2.90599e-05
0.00241291
-3.68966e-05
1.67747e-05
0.00149324
0.000157331
-0.000246474
-0.000120042
2.56903e-05
-0.000340627
0.000954684
-5.10526e-06
-0.000246888
0.00241683
0.000123123
-7.97133e-05
0.00361438
-0.00017924
1.16569e-05
0.000869247
-0.000137889
-3.52791e-05
0.00161535
-0.000142288
-4.84869e-06
0.00198146
-0.000138354
2.45522e-06
0.00234129
-0.000160384
-4.75426e-05
0.00161803
-0.00017686
-8.30386e-05
0.00139982
-2.87418e-05
-8.79145e-05
0.00134236
-8.46101e-06
-8.87332e-05
0.000996018
-0.00014962
-7.47004e-05
0.00114517
-0.000201073
-0.000105171
0.000307748
-2.54451e-05
-0.000143643
0.000156215
-8.62482e-05
-0.000119154
0.000534932
-1.95868e-05
-0.000113756
9.23452e-05
0.000132567
-8.7873e-05
-3.32642e-05
-0.000112493
1.76704e-05
0.00166884
-9.87358e-05
4.84361e-06
0.000340322
-0.000111109
-9.81579e-06
0.00116555
-9.24902e-05
-8.09602e-07
0.00122722
-6.50703e-05
1.97918e-06
0.00165459
-0.000103272
-9.89449e-07
0.00135436
-0.000106277
-1.35641e-05
0.00115348
-3.79719e-05
-3.61595e-05
0.0011573
9.63641e-06
-4.62143e-05
0.000976838
-3.83435e-05
-4.74812e-05
-0.000111619
-4.1701e-05
-5.69805e-05
-0.00039653
-2.61645e-05
-6.80698e-05
-0.000661028
-3.65637e-05
-6.50794e-05
1.67891e-05
-2.47306e-05
-5.1705e-05
-0.000110954
-3.26522e-06
-3.13469e-05
-0.000916369
-0.00150094
-4.69689e-05
0.00262912
-0.00150997
0.000132806
0.00310151
-0.00150252
-0.000139269
0.00224968
-0.00122032
0.000211503
0.00348359
-0.00102338
0.000231397
0.00324302
-0.00165989
0.000234043
0.00256277
-0.00109632
0.000415924
0.00407912
-0.00110761
3.24095e-05
0.00412233
-0.00122277
-8.84634e-05
0.0037565
-0.00117765
-8.3937e-05
0.00389209
-0.000607257
0.000575557
0.00431068
-0.000779369
0.000275131
0.00438278
-0.00086969
4.17758e-05
0.00433585
-0.00129017
-0.00019856
0.00412374
-0.00118804
-0.000405146
0.00322376
-0.000410952
0.000757052
0.00456393
-0.000304054
0.000475274
0.00454906
-0.000581199
0.000293002
0.0046103
-0.000753683
0.000122327
0.00453842
-0.00092582
0.000164947
0.00449002
-0.00162838
8.47871e-05
0.00299278
-2.7828e-05
0.000856446
0.00493675
-3.18507e-05
0.000682743
0.00498775
-0.000174759
0.000472299
0.00493079
-0.000268885
0.000365697
0.00465164
-0.000584922
0.000259297
0.00464004
-0.000823788
0.000294409
0.0043983
-0.00182052
0.000166864
0.00306558
0.000193551
0.00101241
0.00526689
0.000405914
0.000765343
0.00500635
0.000175804
0.000801692
0.00495304
6.76721e-05
0.00073495
0.00488466
-4.83644e-07
0.000550906
0.00453744
-0.000393311
0.000461221
0.00432762
-0.000924352
0.000338924
0.00393059
-0.00170254
0.000161156
0.00319185
0.000403634
0.00121079
0.00562668
0.00061103
0.00096832
0.00560184
0.000498239
0.000905878
0.00543865
0.000281975
0.000855378
0.00517625
0.000393883
0.000796431
0.00511296
6.19613e-05
0.000651421
0.00509202
-0.000355056
0.000532591
0.00492216
-0.00111344
0.000262281
0.0041861
-0.00150454
-1.52924e-05
0.00346472
0.000446204
0.00119869
0.00584248
0.000524684
0.000940675
0.00619783
0.000640381
0.000791473
0.00633448
0.000675663
0.00083172
0.00612462
0.000626879
0.000640715
0.00592077
0.000696033
0.00066526
0.00565433
0.000419034
0.000638247
0.00561625
-0.000297156
0.000540511
0.00573896
-0.000732306
0.000277991
0.00477452
-0.00153425
1.81336e-05
0.00419213
0.000230242
0.000610783
0.00540179
0.000142927
0.000511926
0.00525481
0.000301405
0.000551855
0.00465722
0.000395403
0.00075985
0.00484772
0.000749995
0.000803059
0.00580641
0.000752078
0.000515408
0.00647366
0.000840844
0.00048875
0.0064067
0.000673947
0.000484675
0.00624616
0.000233769
0.000589608
0.00649816
-0.000259703
0.000548509
0.00689262
-0.00126707
0.000147185
0.00621238
-0.000122689
1.00255e-05
0.00296835
8.92338e-05
-2.24214e-05
0.00352008
9.63936e-05
-2.81712e-05
0.00359859
1.8408e-05
-4.14545e-05
0.00285875
0.000142006
0.000166707
0.00230092
0.000447479
0.00048172
0.0033469
0.000717835
0.000275279
0.00495969
0.000695326
0.00017773
0.00700742
0.000796137
0.000256216
0.00677362
0.000516372
0.000369934
0.0069911
0.000457474
0.000455491
0.00692937
-0.000830872
0.000262369
0.00600049
3.28201e-05
-0.000131369
0.00142556
-9.88324e-05
-0.000220712
0.000616446
-2.70116e-05
-0.000215991
0.000349267
-9.42355e-06
-0.000217056
0.00140628
-6.32916e-05
-0.000261219
0.00202166
-4.10383e-05
-0.0004197
0.00169523
4.90388e-05
-0.000333525
0.00110055
0.000429569
0.000119581
0.00193654
0.000525928
0.000194699
0.00512708
0.000696434
0.000209512
0.00503394
0.000468914
0.00044965
0.0048773
0.000315736
0.000625318
0.00565433
-0.000175544
0.000411516
0.00552899
-0.000118238
-1.9118e-05
0.00110801
-1.60727e-05
-0.00011481
0.00160291
-0.000122645
-0.000178138
0.0019001
-0.000106514
-9.58142e-05
0.0013579
-6.117e-05
-0.000174736
0.00110019
-6.23687e-05
-0.000232231
0.00145767
8.45392e-05
-0.000209496
0.00169255
-4.3572e-06
-0.000133048
0.00170544
4.27986e-05
-8.63155e-05
0.00232359
-5.78643e-05
-0.000149408
0.00125297
0.000156241
-0.00039631
-0.000246046
2.46073e-05
-0.000347875
0.000944816
4.54217e-05
-0.000259307
0.00253142
0.000189747
-9.6165e-05
0.00365337
-0.000149025
8.51144e-05
0.00206661
-0.000131649
2.14557e-06
0.000864735
-0.000120537
-3.97434e-05
0.00165967
-0.000135602
-1.84217e-05
0.00204544
-0.000107863
8.36052e-07
0.0023357
-0.00013688
-5.53318e-05
0.00162393
-0.000155382
-9.56352e-05
0.00145665
-7.66892e-05
-0.000104973
0.00139732
1.01477e-05
-0.00010484
0.00102565
-0.000152092
-9.08524e-05
0.0012446
-0.000183392
-0.000118493
0.000424289
-1.42845e-06
-0.000149334
0.000161658
-7.17938e-05
-0.000122179
0.000578585
-2.78837e-05
-0.000114381
0.000122006
0.000128983
-9.06327e-05
-7.48796e-05
-7.13303e-05
7.48765e-06
0.00208154
-8.97979e-05
1.43234e-05
0.00174916
-9.32618e-05
5.54689e-06
0.000418221
-0.000104021
-1.03509e-05
0.00127912
-8.5278e-05
-2.90697e-06
0.00131738
-6.54885e-05
2.60194e-06
0.00171649
-9.64278e-05
-2.10435e-06
0.00143933
-0.000100626
-1.67173e-05
0.00123466
-3.92682e-05
-3.71429e-05
0.0011875
9.60985e-06
-4.68645e-05
0.000966611
-4.17392e-05
-4.8506e-05
-7.83544e-05
-4.13579e-05
-5.76836e-05
-0.000365558
-2.71262e-05
-6.88343e-05
-0.000630147
-3.60715e-05