/*--------------------------------*- C++ -*----------------------------------*\
  =========                 |
  \\      /  F ield         | OpenFOAM: The Open Source CFD Toolbox
   \\    /   O peration     | Website:  https://openfoam.org
    \\  /    A nd           | Version:  7
     \\/     M anipulation  |
\*---------------------------------------------------------------------------*/
FoamFile
{
    version     2.0;
    format      ascii;
    class       surfaceScalarField;
    location    "3";
    object      phi_0;
}
// * * * * * * * * * * * * * * * * * * * * * * * * * * * * * * * * * * * * * //

dimensions      [0 3 -1 0 0 0 0];

internalField   nonuniform List<scalar> 
54125
(
3.52902e-05
-4.04014e-05
-0.00125602
7.76734e-05
-6.80982e-05
-0.000652537
7.73267e-06
-6.80233e-05
-0.000523514
2.97053e-05
-3.53754e-05
-0.00125035
-5.1371e-05
-3.04558e-05
0.00111778
7.81719e-05
-0.000122036
-0.000111502
5.07449e-05
-6.2672e-05
-0.000610905
-9.70081e-06
-8.0691e-05
-0.000450355
4.62268e-06
-6.07267e-05
-0.000502786
2.37695e-05
-3.55514e-05
-0.00123857
-0.000335047
0.00023899
0.00564321
3.11728e-05
-9.1041e-07
0.000624539
-5.5135e-05
-2.06157e-05
0.00124427
-3.66711e-05
-0.000123582
-0.00040733
6.93874e-05
-0.000118355
-0.000120583
3.22546e-05
-6.36694e-05
-0.00055572
2.76692e-05
-7.51325e-05
-0.000731657
-1.04042e-05
-7.16425e-05
-0.000429034
3.94954e-06
-5.97273e-05
-0.000482559
2.64612e-05
-3.44454e-05
-0.00123058
-0.000775829
0.000343368
0.00618869
-7.02491e-05
0.000347928
0.00611363
-0.000183989
0.000216676
0.00555539
-9.55518e-05
0.000128258
0.00102086
2.92499e-05
-1.74693e-05
0.00066153
-0.000114041
-1.28679e-05
0.00140344
-9.10413e-06
-0.000109092
-0.000386911
-4.0427e-05
-0.000116378
-0.000379284
6.38454e-05
-0.00012283
-0.000121319
1.53974e-05
-6.34729e-05
-0.000481183
4.74148e-05
-5.76575e-05
-0.000482695
1.50142e-05
-6.68121e-05
-0.000751502
-1.43002e-05
-7.03321e-05
-0.000404129
2.25147e-06
-5.87237e-05
-0.000460532
1.92113e-05
-3.45916e-05
-0.0012152
-0.0013882
0.000439555
0.00455751
-0.000576024
0.000665861
0.00670199
-0.000677251
0.000296445
0.00638551
-0.000207208
0.000235946
0.00678158
4.43522e-05
0.000325695
0.00598951
-0.000196709
0.000222139
0.00541592
-0.000161719
0.00022651
0.00171894
-0.000108383
8.29726e-05
0.000988375
2.54225e-05
-3.40891e-05
0.000721174
-0.000177239
-4.71256e-06
0.00160079
-5.55413e-06
-9.04945e-05
-9.68061e-05
-3.92067e-05
-9.63956e-05
-0.000352672
-6.83469e-05
-0.000118627
-0.00032944
5.90859e-05
-0.000127426
-0.0001142
-9.32871e-06
-6.43277e-05
-0.000388316
2.67091e-05
-4.26395e-05
-9.5167e-05
2.42276e-05
-5.12457e-05
-0.000522489
8.48044e-06
-6.54416e-05
-0.000764873
-1.74841e-05
-6.92166e-05
-0.000376152
-1.00296e-06
-5.764e-05
-0.000436481
1.25312e-05
-3.44213e-05
-0.00119331
-0.00170165
0.000305538
0.00390704
-0.00116255
0.000836659
0.00508572
-0.00136748
0.000429964
0.00481777
-0.00052348
0.000771898
0.00680716
-0.000350265
0.000593685
0.00679936
-0.00057025
0.000261964
0.00649709
-0.000240042
-2.99385e-05
0.00633438
-0.000186873
0.000237285
0.00694848
-9.86158e-05
0.000260841
0.00607484
-0.000330615
0.000215522
0.00535377
-7.17433e-05
0.000127794
0.00249542
-0.000147468
0.000189801
0.00172038
-5.52213e-05
3.87441e-05
0.000902416
3.18408e-05
-4.87385e-05
0.000792445
-0.000259909
5.34186e-06
0.00184602
3.70636e-05
-6.64113e-05
0.000875355
-1.65128e-05
-8.30178e-05
-6.94435e-05
-6.78051e-05
-9.29552e-05
-0.000302059
-9.83139e-05
-0.000122298
-0.000253738
4.62314e-05
-0.000127174
-9.85885e-05
-1.14528e-05
-6.63248e-05
-0.000298007
-5.24985e-07
-4.39193e-05
0.00101961
2.18085e-05
-3.82212e-05
-0.00013
7.12454e-06
-5.0075e-05
-0.00054498
3.01687e-06
-6.42827e-05
-0.000772823
-2.24454e-05
-6.82607e-05
-0.000343086
-4.9223e-06
-5.65497e-05
-0.00040943
6.62086e-06
-3.43136e-05
-0.00116562
-0.00176387
0.000340768
0.00361475
-0.000918044
0.000302613
0.00528942
-0.00156224
0.000222379
0.00387942
-0.000857936
0.000787636
0.00615498
-0.000929298
0.000773846
0.00532087
-0.00129913
0.000448295
0.00509836
-0.000389573
0.000685139
0.0066773
-0.000381527
0.000672298
0.0069232
-0.00054391
0.000561925
0.0069447
-0.000629713
0.000273945
0.00652224
-0.000153266
-0.000292326
0.0052986
-0.000153431
5.87351e-05
0.00651889
-2.48993e-06
0.000147007
0.00700958
-0.00010689
0.000264646
0.00616445
-0.000545907
0.000205619
0.00543415
-4.33558e-05
7.65494e-05
0.00168647
-5.13981e-05
0.000104467
0.00261564
-0.00012014
0.000166562
0.00164489
-8.19441e-05
-1.95825e-05
0.00085689
3.56801e-05
-8.60376e-05
0.000894375
-0.000326003
9.23735e-06
0.00215134
3.40458e-05
-4.02163e-05
0.00108118
2.68067e-05
-6.43323e-05
0.000851671
-3.14819e-05
-8.58844e-05
-3.79078e-05
-9.07053e-05
-9.19865e-05
-0.000238648
-0.000127368
-0.000121567
-0.000154422
3.17244e-05
-0.000126933
-7.46267e-05
-1.43808e-05
-6.85857e-05
-0.00020842
-1.71931e-05
-3.64697e-05
0.0010446
1.54503e-06
-4.04135e-05
0.00102026
1.25201e-05
-3.78702e-05
-0.000154725
-5.86044e-06
-4.92407e-05
-0.000554162
-1.44953e-06
-6.36242e-05
-0.00077601
-2.68548e-05
-6.74545e-05
-0.000305327
-8.54398e-06
-5.55748e-05
-0.000379624
1.22141e-05
-3.26786e-05
-0.00114516
-0.00188642
0.000170094
0.00397771
-0.000926582
0.00039074
0.00469153
-0.00164389
0.000151526
0.00354488
-0.000815237
0.000301208
0.00569838
-0.000855009
0.00028056
0.00515695
-0.00155025
0.000260667
0.00386987
-0.000627569
0.000753771
0.0066178
-0.000647573
0.000733496
0.00646138
-0.00101286
0.000732672
0.00550544
-0.00128057
0.000440532
0.00530869
-0.000235317
0.000460452
0.00650039
-0.000231774
0.000549421
0.00687852
-0.00029762
0.00066292
0.00711734
-0.000494767
0.000584004
0.00702251
-0.000789677
0.000317505
0.00644851
-3.92921e-06
-0.000199905
0.00281785
-0.000103326
-0.000130969
0.00554023
-4.46497e-05
-1.01666e-05
0.00660058
-3.22923e-05
0.000203999
0.00702058
-2.05485e-05
0.000305601
0.0061207
-0.000804367
0.000229126
0.00568339
5.57623e-05
7.23526e-05
0.001319
-3.69198e-05
4.75884e-05
0.00180707
-2.8484e-05
8.85768e-05
0.00269063
-0.000117912
0.000123064
0.00152945
-0.000144138
-9.76241e-05
0.000885246
-8.63221e-07
-0.000126499
0.0010627
-0.000341812
9.04204e-06
0.00246973
1.26925e-05
-2.07325e-05
0.00127781
2.07144e-05
-3.85699e-05
0.00103625
-1.10023e-06
-7.08314e-05
0.000850239
-4.14167e-05
-8.70918e-05
-7.24618e-06
-0.000102066
-9.28328e-05
-0.000166765
-0.000147645
-0.000121878
-3.86882e-05
2.09862e-05
-0.00012574
-4.70026e-05
8.3163e-06
-6.88746e-05
-0.000135647
-0.000102221
-8.15964e-06
0.000663182
-1.75442e-05
-3.29938e-05
0.00105473
4.46096e-06
-4.07084e-05
0.00101864
8.83312e-06
-3.85867e-05
-0.000174212
-1.68394e-05
-4.95512e-05
-0.000551395
-6.57228e-06
-6.33319e-05
-0.00077356
-2.96493e-05
-6.68426e-05
-0.00026441
-9.88483e-06
-5.46905e-05
-0.000347728
1.74464e-06
-3.31922e-05
-0.00111371
-0.00194001
0.000128893
0.00354695
-0.000906441
0.000282167
0.00471953
-0.0016423
0.000119651
0.00385647
-0.00078491
0.000451005
0.00540871
-0.00108982
0.000335102
0.00474277
-0.00172305
0.000143259
0.00357442
-0.000582065
0.000278532
0.00586549
-0.000699834
0.000403195
0.005628
-0.000948377
0.000341125
0.00501201
-0.00152947
0.000265015
0.00385375
-0.000306549
0.000695997
0.00672144
-0.0003167
0.000746266
0.00668996
-0.000562955
0.000782056
0.00667733
-0.000868213
0.000674665
0.00564476
-0.00126868
0.000378486
0.00540921
6.41687e-05
0.000366417
0.00621709
-0.00013444
0.000441917
0.00663901
-0.000167299
0.000613516
0.00705057
-0.000233174
0.000667807
0.00723442
-0.000370476
0.000605923
0.00708402
-0.000974771
0.000378754
0.00624016
6.53093e-05
-0.000140262
0.000277898
8.18593e-05
-0.000173743
0.00274185
-5.13489e-05
-0.000186223
0.00573916
-5.45097e-07
0.000144094
0.00654311
-0.000105447
0.000299771
0.00698772
5.14079e-06
0.000280821
0.006063
-0.000932197
0.000304561
0.00596921
2.1004e-05
1.48651e-06
0.00112539
-9.3977e-06
5.14684e-05
0.00134523
-2.55921e-05
6.23907e-06
0.0019139
1.45632e-05
6.7891e-05
0.00268982
-0.000126786
7.70449e-05
0.0013795
-0.000129494
-0.00019066
0.000931257
-1.38604e-05
-0.000155696
0.00126228
-0.000236656
4.3411e-06
0.00271036
-0.000190064
-1.45025e-06
0.000908527
2.69486e-06
-3.22629e-05
0.00125126
1.13233e-05
-4.13541e-05
0.000999913
-1.18345e-05
-7.5662e-05
0.000859477
-3.4867e-05
-8.82091e-05
6.15763e-06
-0.000103235
-9.79845e-05
-9.39954e-05
-0.000158626
-0.000122955
8.7504e-05
1.95813e-05
-0.000120826
-2.45176e-05
-1.72896e-05
-6.94498e-05
-4.71631e-05
-0.000132672
6.70376e-06
0.000848942
-9.81567e-05
-7.7087e-06
0.000736053
-1.90854e-05
-3.30834e-05
0.00106619
6.62809e-06
-4.18403e-05
0.00101526
1.92157e-06
-3.9498e-05
-0.000186187
-2.33831e-05
-5.07346e-05
-0.000540609
-1.00981e-05
-6.35703e-05
-0.000766735
-3.21609e-05
-6.62682e-05
-0.000220671
-1.12789e-05
-5.39359e-05
-0.000315705
4.51906e-06
-3.2417e-05
-0.00108581
-0.00179103
-4.50338e-05
0.00328604
-0.000814374
0.000185172
0.00471818
-0.00176697
9.09446e-05
0.00358068
-0.000648121
0.000315247
0.00486958
-0.00104459
0.000255497
0.00453845
-0.00166681
0.000197004
0.00360323
-0.000451696
0.000585724
0.00545429
-0.000667498
0.000414652
0.00529683
-0.00110133
0.000362524
0.00467646
-0.0017132
9.24961e-05
0.00366566
-0.000242867
0.000486048
0.00597881
-0.000322039
0.000524051
0.00574997
-0.000592873
0.000528596
0.00547045
-0.000874472
0.000371984
0.0049113
-0.00142038
0.000243385
0.00376206
-1.18742e-05
0.000791134
0.00677602
-0.000105817
0.00067405
0.00676503
-0.000176367
0.00080471
0.00667637
-0.000410868
0.000739905
0.00678978
-0.000773466
0.00057807
0.00584816
-0.00132823
0.000313748
0.00544892
0.000247404
0.0002509
0.00489881
0.000230857
0.000483708
0.0060263
-5.85359e-05
0.000484439
0.00677527
-8.55571e-05
0.000654687
0.0071487
-0.000271947
0.000700376
0.00730646
-0.00033481
0.000553967
0.00724876
-0.00117147
0.000441111
0.00603832
-0.000183424
-0.000155362
0.00146438
6.25328e-05
-0.000251624
0.000283848
0.000128061
-0.000226706
0.00262868
2.08675e-05
-0.00010385
0.00598079
8.05601e-06
0.000244842
0.0064632
6.4931e-05
0.000262382
0.00681173
7.79269e-05
0.000248279
0.00602749
-0.000732656
0.000387005
0.00607821
-0.000229957
-0.000100229
0.00137632
-8.94359e-06
-2.59406e-05
0.00121444
-4.16661e-05
1.65219e-05
0.00138794
-1.19175e-05
-2.87808e-05
0.00201066
8.33035e-05
4.71742e-05
0.00260152
-7.80062e-05
4.35319e-05
0.00112008
-0.00011459
-0.000245142
0.000976668
-1.19767e-05
-0.000194901
0.00149308
-0.000283461
8.27546e-06
0.00296825
-0.000259071
-1.3452e-06
0.00132572
-0.000196077
-3.06812e-05
0.00100487
-1.56459e-05
-3.84345e-05
0.0012449
6.57584e-06
-4.63872e-05
0.000970691
-2.63313e-05
-7.94972e-05
0.000879018
-3.23694e-05
-8.62424e-05
3.40168e-06
-8.82052e-05
-0.00010801
-3.08336e-05
-0.000153362
-0.000122721
0.0002106
1.46904e-05
-0.000116883
-3.05356e-06
2.11905e-05
-7.40332e-05
1.01988e-05
-8.89605e-05
1.45499e-06
0.00137674
-0.000120685
7.32677e-06
0.000954592
-0.000103655
-6.5654e-06
0.000813191
-2.26136e-05
-3.27682e-05
0.00107973
9.29802e-06
-4.24975e-05
0.00100896
-8.51904e-06
-4.13769e-05
-0.000187025
-3.34996e-05
-5.20494e-05
-0.000518631
-1.26783e-05
-6.4287e-05
-0.000756038
-3.45667e-05
-6.55658e-05
-0.000174474
-1.30433e-05
-5.33533e-05
-0.000281725
3.01661e-06
-3.22393e-05
-0.00105659
-0.00132586
-0.000385169
0.00392192
-0.000886649
0.000149936
0.00431491
-0.00159372
-0.000138955
0.00325175
-0.000616156
0.000204907
0.00464569
-0.00111181
0.000157872
0.00471847
-0.00170583
0.00011938
0.00350033
-0.00040706
0.000491331
0.00512424
-0.000629073
0.000332809
0.00475385
-0.00108001
0.000269948
0.00444418
-0.00174875
0.000246564
0.00339221
-0.000128538
0.000694167
0.00541615
-0.000370515
0.000532579
0.00538484
-0.000537707
0.000485007
0.00511918
-0.00099587
0.000350553
0.0045398
-0.0015707
0.000130727
0.00368526
-8.37334e-05
0.000650719
0.00628187
7.10821e-05
0.000564919
0.00576104
-0.000212372
0.000674982
0.00563959
-0.000521645
0.000598869
0.00535434
-0.000879386
0.000360332
0.00490027
-0.00153963
0.000184546
0.00378891
0.00042501
0.000521117
0.00667905
0.000111197
0.000755767
0.00681397
4.72294e-05
0.00069886
0.00676512
4.43314e-05
0.000762065
0.00652433
-0.000326098
0.000666885
0.00675512
-0.000771704
0.000517827
0.00608098
-0.0014118
0.000269107
0.00542014
0.000251736
0.000207075
0.00287137
0.000360023
0.000348732
0.00473629
0.000340099
0.00022837
0.00607033
3.24223e-05
0.000494331
0.00692407
-3.81983e-06
0.000659332
0.00720162
4.26164e-05
0.000660562
0.00722218
-0.000206232
0.000562033
0.007412
-0.00105559
0.000435075
0.00592618
-0.000246825
-0.000271719
0.00216705
-0.000152623
-0.000228081
0.00158452
6.99069e-05
-0.000334987
0.000280556
0.000172969
-0.00025898
0.00259892
0.000121185
-2.94333e-05
0.00621719
0.000101827
0.000167631
0.00637812
0.000182844
0.000202307
0.00656027
0.000113888
0.000326225
0.00596241
-0.000660392
0.000424765
0.00603037
-0.000237499
-0.000177111
0.00160887
-0.000238055
-0.000129978
0.00152234
-2.84559e-05
-7.40859e-05
0.00131786
-4.39908e-05
-4.16672e-05
0.00145139
-7.04403e-06
-6.07754e-05
0.00209932
0.000135931
0.000104556
0.00237219
-2.93601e-05
4.62538e-05
0.000769842
-0.000150696
-0.000269601
0.0010487
-3.4244e-05
-0.00021505
0.00176534
-0.000223607
2.96969e-07
0.00321275
-0.000197656
1.35375e-05
0.0022311
-0.00022906
-2.2742e-05
0.00142616
-0.000201192
-5.15194e-05
0.00111549
-5.96347e-05
-1.41272e-05
0.00124967
6.78947e-07
-5.43474e-05
0.00095416
-6.19651e-05
-7.73975e-05
0.000923619
-7.32758e-05
-9.08212e-05
2.59891e-05
-7.97258e-05
-0.000120008
3.35011e-05
-0.000142291
-0.000120998
0.000322439
7.61688e-06
-0.000114483
1.67357e-05
6.71697e-05
-7.72715e-05
2.33173e-05
-0.000118217
-4.08949e-06
0.000922709
-7.54537e-05
3.76441e-06
0.00145576
-0.000118301
5.01103e-06
0.00106132
-0.000110129
-8.43732e-06
0.000898988
-2.55363e-05
-3.22007e-05
0.00109497
8.85875e-06
-4.37898e-05
0.00100252
-1.51438e-05
-4.26511e-05
-0.00018128
-3.70486e-05
-5.36264e-05
-0.000492243
-1.55071e-05
-6.44463e-05
-0.00074165
-3.55095e-05
-6.53973e-05
-0.000126921
-1.60647e-05
-5.28586e-05
-0.000245042
-1.02748e-07
-3.21838e-05
-0.0010243
-0.00155542
-1.01657e-05
0.00372021
-0.0012835
-0.000137776
0.00430096
-0.00109991
-0.000319531
0.00374764
-0.000701741
0.000205486
0.00441681
-0.00124511
4.8723e-06
0.00430439
-0.00164066
-5.55604e-05
0.00324213
-0.000326432
0.000260046
0.00476335
-0.000654415
0.000222612
0.00460629
-0.0011378
0.000191768
0.00470388
-0.00174519
0.000125816
0.00337096
-3.48032e-05
0.000630797
0.00494548
-0.00033237
0.000481458
0.00493745
-0.00052445
0.000395852
0.00461469
-0.000972561
0.000263899
0.00440354
-0.00180363
0.000229943
0.00339519
4.24444e-05
0.000724369
0.00542339
7.50789e-05
0.000608773
0.00533596
-0.000260866
0.000584126
0.00533421
-0.000448572
0.000490716
0.00490594
-0.000891343
0.000355757
0.00432672
-0.00145418
8.41649e-05
0.00351565
0.000443981
0.000773322
0.0066237
0.00021084
0.000633847
0.0061133
0.000179957
0.000612726
0.00569057
-5.642e-05
0.000791176
0.00554804
-0.000441579
0.00058077
0.00524938
-0.000871779
0.000353424
0.00483147
-0.00155883
0.000107105
0.00382884
0.000655256
0.00054698
0.0059382
0.000471105
0.00045671
0.00686703
0.000293965
0.000757451
0.00680151
0.000142859
0.000692796
0.00672395
3.99577e-05
0.000669983
0.00647745
-3.93995e-05
0.000674394
0.00668057
-0.000729512
0.000501889
0.00637148
-0.00139762
0.000235677
0.0055265
-6.35512e-06
0.000241764
0.00306644
0.000243837
0.000177996
0.00264565
0.000404693
0.000117662
0.00451221
0.00046797
0.000247716
0.00602194
0.000263534
0.00045097
0.00699009
0.000153389
0.000637902
0.00717272
0.000295799
0.000612897
0.00705836
-4.42547e-05
0.000485232
0.00751999
-0.00100528
0.00038891
0.00588215
-0.000135632
-0.000285099
0.00183008
-0.000243607
-0.000297759
0.00224228
-0.000138691
-0.000291706
0.00165148
-4.75374e-05
-0.000401849
0.000426972
0.000193285
-0.000246992
0.00261615
0.000232134
1.7616e-05
0.006271
0.000212868
0.000154217
0.00618398
0.000184175
0.000330505
0.00622112
9.49486e-05
0.000246077
0.0060119
-0.000565153
0.000446665
0.00592525
-0.000198186
-0.000136969
0.00151751
-0.000142049
-0.000163504
0.00155539
-0.000217716
-0.000161075
0.00162585
-6.95281e-05
-0.000165806
0.00145189
-4.69124e-05
-5.39774e-05
0.00149219
-1.74078e-05
-4.48793e-05
0.0022042
0.000103382
0.000185242
0.00205655
-2.86888e-05
2.57349e-05
0.00042347
-4.92901e-05
-0.000294956
0.00103561
-3.15557e-05
-0.00022332
0.00202813
-0.000136354
-2.61307e-05
0.00344241
-0.000178655
8.04713e-06
0.00188495
-0.000160459
6.14448e-06
0.00228722
-0.000218574
-3.75669e-05
0.00151248
-0.000205252
-3.29358e-05
0.00122942
-6.27029e-05
-6.1358e-05
0.00129384
-6.15287e-06
-6.50131e-05
0.000956787
-8.13989e-05
-8.0053e-05
0.000979106
-0.000121176
-8.8301e-05
7.84099e-05
-6.64641e-05
-0.000127846
9.13062e-05
-0.000117955
-0.000120117
0.00041052
6.13111e-07
-0.000113078
3.58646e-05
8.65921e-05
-8.19605e-05
1.8583e-05
-0.000137093
-1.11161e-05
0.000933403
-0.000105165
-3.4522e-06
0.00103509
-7.04622e-05
2.85169e-06
0.00152838
-0.000114949
1.18445e-06
0.00116664
-0.000109065
-1.05967e-05
0.000986449
-2.85529e-05
-3.33757e-05
0.00111311
1.13002e-05
-4.47504e-05
0.000993316
-2.59604e-05
-4.43438e-05
-0.000164602
-3.99155e-05
-5.49487e-05
-0.000461825
-2.0562e-05
-6.56561e-05
-0.000720829
-3.45664e-05
-6.56231e-05
-7.95897e-05
-1.86861e-05
-5.2411e-05
-0.000206128
1.04988e-06
-3.16522e-05
-0.000993698
-0.00185245
0.000277817
0.00226728
-0.00121343
-8.64889e-05
0.00372412
-0.00128991
0.000107973
0.00380223
-0.000931151
6.31533e-05
0.00433296
-0.00131658
-0.000114415
0.00416732
-0.00116323
-0.000293615
0.00356382
-0.000454169
0.000290884
0.00447775
-0.000746461
0.00013526
0.00437847
-0.00128174
4.32884e-05
0.00434947
-0.00164743
-1.09173e-05
0.00315529
-0.000156784
0.000409399
0.00491911
-0.000260072
0.000267916
0.00464575
-0.000573596
0.000268869
0.00457833
-0.000988883
0.000167155
0.00467886
-0.00185639
0.00015336
0.00327036
9.95628e-05
0.000717635
0.00491002
-1.49141e-05
0.000585732
0.0049312
-0.000246525
0.000502236
0.00481672
-0.000514892
0.000396226
0.00454868
-0.000813723
0.000331916
0.00422395
-0.00155577
0.000237697
0.00325908
0.000296172
0.00085039
0.00568472
0.000368946
0.000729062
0.00514499
0.000108762
0.000717073
0.00527421
-0.000144489
0.000594588
0.00531841
-0.00045929
0.000485647
0.00479376
-0.000940973
0.000272609
0.00420747
-0.00153891
2.48368e-06
0.00349324
0.000463411
0.000951987
0.00660721
0.000451628
0.000755205
0.00652181
0.000376797
0.000676619
0.00596657
0.000314582
0.000632855
0.00567717
-0.000143696
0.000742438
0.00557002
-0.000362751
0.000554117
0.00537204
-0.000829338
0.000339004
0.0046994
-0.00158254
5.94957e-05
0.00395426
0.000392316
0.000739737
0.0054758
0.000628503
0.0005045
0.00550574
0.000481117
0.00066031
0.00688774
0.000517293
0.000704522
0.00674046
0.000431493
0.00051162
0.00671435
0.000425544
0.000579863
0.00629983
0.000483269
0.000675109
0.00631988
-0.000562186
0.000460889
0.00666419
-0.00138346
0.000205139
0.00569954
-6.13334e-06
0.000172852
0.00371078
-3.72968e-05
0.00016873
0.0028694
8.28812e-05
0.000109084
0.00243265
0.000208724
0.000221903
0.00428177
0.000608371
0.000291319
0.00576651
0.000415495
0.000396415
0.00704821
0.000342218
0.000512852
0.00714342
0.000408933
0.000421937
0.0068969
9.05681e-05
0.000454619
0.00745866
-0.000860728
0.000375861
0.00580186
-9.3404e-05
-0.00029027
0.000610722
-4.78178e-05
-0.000260584
0.00169867
-0.000239403
-0.000302086
0.00227434
-0.000107581
-0.000358035
0.00164571
-6.13673e-05
-0.000422196
0.000616631
0.00026
-0.000120853
0.00247721
0.000327681
0.000110622
0.0060903
0.000319002
0.000215176
0.00595162
0.000384066
0.000238585
0.00579525
0.000111545
0.000175676
0.00613979
-0.00052767
0.000570522
0.00574605
-0.000157915
-9.19253e-05
0.00183751
-0.000153195
-0.000131663
0.00147841
-0.000112064
-0.000135919
0.00142372
-0.00015397
-0.00020088
0.00160964
-4.21861e-05
-0.000198646
0.00157604
-4.29867e-05
-6.70479e-05
0.00155119
-9.03926e-06
-2.61752e-05
0.00234326
4.1006e-05
0.000186807
0.00173329
5.79565e-05
-0.000122668
0.000126761
6.23686e-05
-0.000323728
0.000955693
-8.25708e-06
-0.000234271
0.00224514
2.56827e-05
-6.24685e-05
0.00356579
-0.00019014
-2.973e-05
0.00156035
-0.000154085
2.64088e-06
0.00193737
-0.00014635
3.57477e-06
0.00232196
-0.00019507
-4.14043e-05
0.00160107
-0.000187484
-7.90345e-05
0.00132551
-6.67543e-05
-6.91932e-05
0.00133622
-7.63234e-06
-7.57647e-05
0.000971431
-0.000118238
-7.23045e-05
0.00105539
-0.00018419
-9.08571e-05
0.000185696
-4.52977e-05
-0.000135284
0.000131208
-9.36391e-05
-0.000119379
0.000475894
-1.17288e-05
-0.000111668
5.86146e-05
0.000103652
-8.62012e-05
2.18172e-06
-0.000112794
6.02525e-06
0.000261958
-0.00011675
-1.01081e-05
0.00105681
-9.85284e-05
-1.02673e-06
0.0011375
-6.91946e-05
2.23842e-06
0.00159652
-0.000109095
-1.6618e-06
0.0012668
-0.00010885
-1.1426e-05
0.00107335
-3.24721e-05
-3.38231e-05
0.00113465
1.00288e-05
-4.57601e-05
0.000984704
-3.44399e-05
-4.60619e-05
-0.000139049
-4.21228e-05
-5.61251e-05
-0.000429233
-2.56273e-05
-6.73697e-05
-0.000693455
-3.63498e-05
-6.56596e-05
-2.99913e-05
-2.13978e-05
-5.20887e-05
-0.000164294
-2.18491e-06
-3.16706e-05
-0.000959842
-0.00150541
-0.000150493
0.00230404
-0.00114886
0.000281585
0.0033155
-0.00170176
0.000263324
0.0024158
-0.00122956
0.000150787
0.00409042
-0.00113276
-9.70358e-05
0.0037453
-0.00126522
5.89405e-05
0.00384529
-0.000732609
0.00033094
0.00431819
-0.000945823
4.73963e-05
0.00437051
-0.00136419
-0.000170092
0.00412624
-0.00121444
-0.000312863
0.00344369
-0.000319191
0.000499312
0.00456981
-0.000489657
0.000294897
0.0045477
-0.000694948
9.46081e-05
0.0044485
-0.00117344
6.3918e-05
0.0044592
-0.0018368
6.34295e-05
0.00307227
-0.00017303
0.000687176
0.00498342
-0.000142934
0.000396618
0.00491843
-0.000316443
0.000316004
0.00466853
-0.000600028
0.00023936
0.00459127
-0.000784119
0.000248349
0.00455427
-0.00162717
0.000200078
0.00314168
0.000124168
0.000890242
0.0050486
0.000271103
0.000654523
0.00493907
2.25153e-07
0.000649994
0.00489198
-0.000149345
0.000539911
0.00467789
-0.000515465
0.000428907
0.00450786
-0.000905424
0.000344004
0.00408209
-0.00173447
0.000231544
0.00322308
0.000360964
0.00103522
0.00572472
0.000496341
0.000856665
0.0055124
0.000350731
0.000822423
0.00506571
0.000271648
0.000751247
0.00516048
-1.091e-05
0.000594187
0.00507708
-0.000459483
0.000450581
0.00471252
-0.000984323
0.000225231
0.00413971
-0.00157423
4.60929e-05
0.00343884
0.000502138
0.00107468
0.00641759
0.000607217
0.000848253
0.00653545
0.000515305
0.000749673
0.00641457
0.000523584
0.000667177
0.00592596
0.000572162
0.000542789
0.00573615
0.000310167
0.000678597
0.00556092
0.000176826
0.000535119
0.00548237
-0.00083981
0.000321622
0.00471489
-0.00149449
1.15649e-05
0.00405373
0.000237257
0.000546814
0.0052086
0.000359865
0.000666424
0.00491671
0.000447689
0.000644182
0.00515706
0.000540334
0.000794095
0.00646656
0.000738671
0.000515036
0.00660675
0.000624123
0.000429236
0.00665635
0.000610868
0.000477314
0.00622897
0.000218001
0.000611811
0.00635989
-0.000361734
0.000495762
0.00682587
-0.00134997
0.000204928
0.00598385
0.000106064
1.20394e-05
0.00348649
3.73395e-05
0.000118447
0.00367591
-7.22915e-05
-1.63197e-05
0.00282769
2.53097e-05
0.000161704
0.00235996
0.0003145
0.000327064
0.00387015
0.000695368
0.000382728
0.00534483
0.000604829
0.000193136
0.00709078
0.000587801
0.000359137
0.00693742
0.000503004
0.00032903
0.00690355
0.000201913
0.000479944
0.0072642
-0.00084044
0.000328386
0.00578625
-0.000123773
-0.000273864
0.000676093
-3.17579e-05
-0.000238258
0.000466958
-2.12684e-05
-0.000240876
0.00154667
-0.000145788
-0.000282663
0.00219079
-7.05555e-05
-0.000411019
0.00166291
-2.73188e-05
-0.000393603
0.000873713
0.000358963
-6.19546e-06
0.00222603
0.000422026
0.000220221
0.00570423
0.000545613
0.000133182
0.00556937
0.000514176
0.00017913
0.00533999
0.000216689
0.000427142
0.00605822
-0.000328437
0.000484781
0.00561539
-0.000106212
-6.18569e-05
0.00176128
-0.000146781
-0.00015794
0.00185649
-0.000128137
-0.000107132
0.00143141
-8.49218e-05
-0.000135422
0.00124812
-9.1164e-05
-0.000232227
0.0015469
-2.92067e-05
-0.000208751
0.00168019
-1.95122e-05
-7.85383e-05
0.00161543
2.86967e-05
-3.0671e-05
0.0024138
-4.12062e-05
-1.71386e-06
0.00146935
0.000163664
-0.000259092
-0.000146837
1.54343e-05
-0.00033932
0.000951668
-2.71645e-06
-0.000248552
0.00242222
0.000130905
-8.28896e-05
0.00362142
-0.000177793
1.01805e-05
0.00086847
-0.0001371
-3.60459e-05
0.00161939
-0.000141758
-5.60838e-06
0.00198978
-0.00013815
3.09757e-06
0.00234642
-0.00015881
-4.8062e-05
0.00161981
-0.000176665
-8.30506e-05
0.00140719
-2.77545e-05
-8.94914e-05
0.00134523
-6.82858e-06
-8.95838e-05
0.00100557
-0.000152434
-7.44587e-05
0.00115698
-0.000202624
-0.000106103
0.000317017
-2.48431e-05
-0.000144101
0.000155146
-8.50886e-05
-0.000119266
0.00053223
-2.05583e-05
-0.000114187
8.57606e-05
0.000133301
-8.85765e-05
-4.4728e-05
-0.000110558
1.71442e-05
0.00167941
-9.80795e-05
4.61008e-06
0.000345319
-0.000110286
-9.82047e-06
0.00117589
-9.22011e-05
-1.16895e-06
0.00123311
-6.57024e-05
2.06193e-06
0.0016585
-0.000103068
-4.07897e-07
0.00135885
-0.000105834
-1.3966e-05
0.00115933
-3.84484e-05
-3.64035e-05
0.00116374
9.98804e-06
-4.62036e-05
0.000974857
-3.83234e-05
-4.7593e-05
-0.000109257
-4.12057e-05
-5.70842e-05
-0.000398313
-2.58819e-05
-6.83107e-05
-0.000664922
-3.62622e-05
-6.51807e-05
1.93629e-05
-2.50586e-05
-5.18087e-05
-0.000119097
-3.16355e-06
-3.14594e-05
-0.000925219
-0.00149871
-4.97228e-05
0.00263016
-0.0015068
0.000132617
0.00310398
-0.00150493
-0.000137177
0.00224439
-0.00121997
0.000209619
0.00348509
-0.00102417
0.000228999
0.00324123
-0.00165715
0.00023484
0.00257289
-0.00109686
0.000414772
0.00408157
-0.00110522
2.90461e-05
0.00412373
-0.0012266
-9.16852e-05
0.00375834
-0.00117124
-9.39033e-05
0.00389599
-0.000602028
0.000575065
0.00430951
-0.000779721
0.000273608
0.00438204
-0.000867514
4.17312e-05
0.00433125
-0.0012836
-0.000200509
0.00412404
-0.00119283
-0.000404569
0.00320429
-0.000404366
0.00075675
0.00456427
-0.000302857
0.000476111
0.00454852
-0.000578718
0.000294997
0.00460958
-0.000751638
0.000124487
0.00453954
-0.000915989
0.000167469
0.00448703
-0.00163039
8.58408e-05
0.00298965
-2.19068e-05
0.000859607
0.00493938
-2.47105e-05
0.000685143
0.00499071
-0.000174359
0.000478434
0.00493058
-0.000261258
0.000368795
0.00465101
-0.000577572
0.000263781
0.00463794
-0.000825195
0.00029208
0.00438203
-0.00181841
0.000164839
0.00306079
0.00021132
0.00101944
0.00526702
0.000427736
0.00077098
0.00500075
0.000166916
0.000814237
0.00495864
7.41218e-05
0.00073786
0.00489156
6.41642e-06
0.000552814
0.00453666
-0.000387306
0.000462972
0.00431672
-0.000928463
0.00033858
0.00391919
-0.0016993
0.000158203
0.00318996
0.000394044
0.00121749
0.00562936
0.000615039
0.000975634
0.00559793
0.000501397
0.000913902
0.00543483
0.000294568
0.000859369
0.00518661
0.000404724
0.000804527
0.00511758
7.52281e-05
0.000655913
0.00510669
-0.000353649
0.000534865
0.00493337
-0.00111123
0.000263289
0.00419393
-0.00150292
-2.21031e-05
0.00346937
0.000424531
0.00120093
0.00581724
0.000521707
0.00093709
0.00616691
0.000644302
0.000792884
0.00629562
0.000693524
0.000841183
0.00608738
0.00063346
0.000652391
0.00592157
0.000709873
0.000682757
0.00564624
0.000431503
0.00063663
0.00563878
-0.000291462
0.00054007
0.00577338
-0.000725724
0.000279487
0.00481096
-0.00153253
1.87306e-05
0.00421756
0.00021155
0.000623659
0.0053833
0.000145035
0.00050817
0.00525916
0.000292985
0.000537524
0.0046581
0.000403593
0.000759209
0.00481366
0.000772282
0.000805484
0.00571833
0.000745618
0.000527979
0.00645775
0.000862442
0.000496432
0.00637962
0.000691644
0.000478838
0.0062581
0.000239933
0.000590315
0.00652841
-0.000225583
0.000549011
0.00690929
-0.00125781
0.000145791
0.00625543
-0.000133185
8.96482e-06
0.00295932
8.85263e-05
-2.53252e-05
0.00350998
0.000101992
-4.2617e-05
0.00357895
2.71203e-05
-4.28822e-05
0.00285937
0.000157373
0.000167279
0.00229182
0.000456743
0.000489684
0.00327914
0.000710569
0.000261518
0.00492484
0.000711505
0.000174886
0.00698555
0.000803849
0.000235132
0.00677308
0.000511371
0.00037748
0.00700882
0.000475219
0.000441395
0.00689267
-0.000820475
0.000255641
0.00602265
3.75744e-05
-0.000131946
0.00140873
-9.58523e-05
-0.00021984
0.000606747
-2.75807e-05
-0.000215235
0.00034076
-8.24081e-06
-0.000215693
0.00140302
-5.83077e-05
-0.000262091
0.00200901
-3.72961e-05
-0.000420573
0.00169796
5.71033e-05
-0.000328386
0.00111929
0.000431325
0.000130063
0.00191356
0.000541173
0.00019771
0.00505732
0.000702486
0.000247183
0.00496249
0.000454194
0.000509062
0.00481931
0.00033917
0.000646778
0.00555434
-0.000166153
0.00041266
0.00549978
-0.000115461
-2.0948e-05
0.00110225
-1.40302e-05
-0.000116534
0.00159681
-0.000121247
-0.000179601
0.00190844
-0.000104632
-9.5444e-05
0.00135791
-6.03509e-05
-0.000176432
0.00109386
-6.04786e-05
-0.000232436
0.0014544
8.82304e-05
-0.00020979
0.00169546
-9.92678e-07
-0.000135271
0.0017142
4.0639e-05
-9.14124e-05
0.00231043
-6.19693e-05
-0.000161997
0.0012316
0.000146397
-0.000404566
-0.000252831
2.80761e-05
-0.000346137
0.000936089
5.65739e-05
-0.000259986
0.00252218
0.000194287
-9.81863e-05
0.00365862
-0.000145005
8.45705e-05
0.00206151
-0.000130214
1.26292e-06
0.000863295
-0.000118879
-4.06949e-05
0.00166307
-0.000135403
-1.87547e-05
0.00205484
-0.000107689
8.51177e-07
0.00233949
-0.000136003
-5.56494e-05
0.00162534
-0.000154254
-9.67174e-05
0.00146283
-7.98795e-05
-0.000105914
0.00140299
1.29346e-05
-0.000105741
0.0010339
-0.000152112
-9.13053e-05
0.00125597
-0.000180111
-0.00011931
0.000431131
1.62765e-06
-0.000149499
0.00015787
-7.05004e-05
-0.000122368
0.00057465
-2.72747e-05
-0.000114717
0.000114117
0.000129567
-9.13179e-05
-8.6141e-05
-7.15136e-05
7.07163e-06
0.00209934
-8.80482e-05
1.37463e-05
0.00175833
-9.26042e-05
5.58537e-06
0.000422518
-0.000102499
-1.07932e-05
0.00128801
-8.47727e-05
-3.26458e-06
0.0013232
-6.57762e-05
3.12935e-06
0.00172074
-9.62307e-05
-2.13596e-06
0.00144325
-9.99663e-05
-1.72238e-05
0.00124011
-3.95383e-05
-3.70675e-05
0.00119414
1.00107e-05
-4.6823e-05
0.000964076
-4.12877e-05
-4.86303e-05
-7.64236e-05
-4.0789e-05
-5.78129e-05
-0.000368022
-2.69167e-05
-6.90511e-05