/*--------------------------------*- C++ -*----------------------------------*\
  =========                 |
  \\      /  F ield         | OpenFOAM: The Open Source CFD Toolbox
   \\    /   O peration     | Website:  https://openfoam.org
    \\  /    A nd           | Version:  7
     \\/     M anipulation  |
\*---------------------------------------------------------------------------*/
FoamFile
{
    version     2.0;
    format      ascii;
    class       volVectorField;
    location    "3";
    object      U;
}
// * * * * * * * * * * * * * * * * * * * * * * * * * * * * * * * * * * * * * //

dimensions      [0 1 -1 0 0 0 0];

internalField   nonuniform List<vector> 
18750
(
(0.845739 0.193799 -0.460055)
(0.480996 0.679477 -0.287145)
(0.334018 -0.13404 -1.21472)
(0.829159 0.255748 -0.427776)
(-0.729657 -0.0046275 0.14248)
(0.0696203 0.387219 -0.720421)
(0.412346 0.621789 -0.26613)
(0.297399 -0.0967744 -1.66436)
(0.329135 -0.161798 -1.191)
(0.808543 0.249895 -0.447334)
(-3.83503 -0.276526 0.339695)
(-0.415626 0.490012 -0.363625)
(-0.799425 -0.183683 0.209878)
(0.260193 -0.119961 -0.896995)
(0.0664811 0.404578 -0.757029)
(0.352098 0.574579 -0.281437)
(0.475954 0.136248 -1.69757)
(0.292592 -0.145726 -1.63386)
(0.32786 -0.169217 -1.16813)
(0.777142 0.389122 -0.412047)
(-4.13412 -1.12764 0.192607)
(-4.19732 -0.242455 1.03036)
(-3.84124 -0.4401 0.408519)
(-0.735686 -0.28405 0.367545)
(-0.44215 0.430376 -0.373628)
(-0.872056 -0.37748 0.280761)
(0.275822 0.471032 -0.801485)
(0.274404 -0.0387794 -0.971593)
(0.0403698 0.4319 -0.759443)
(0.282712 0.510546 -0.285262)
(0.316015 0.666533 -1.42422)
(0.489518 0.0824332 -1.64603)
(0.288814 -0.188601 -1.60003)
(0.328513 -0.186841 -1.14546)
(0.771225 0.323381 -0.441119)
(-3.08126 -2.09245 -0.159457)
(-4.39775 0.158864 1.34257)
(-4.19794 -0.804409 0.138393)
(-4.48288 -0.248567 0.961408)
(-4.1047 -0.419888 0.933885)
(-3.71898 -0.870049 0.451753)
(-1.17743 -0.658199 0.789428)
(-0.672524 -0.490888 0.202751)
(-0.502319 0.290846 -0.382173)
(-0.953607 -0.546113 0.361913)
(0.0803012 0.145706 -0.750438)
(0.2451 0.326833 -0.797314)
(0.244536 -0.0398773 -1.01748)
(0.00547953 0.442949 -0.752648)
(0.212001 0.443467 -0.297248)
(0.0649226 0.131514 -1.00029)
(0.317959 0.470315 -1.40872)
(0.499984 0.0454851 -1.60382)
(0.292013 -0.228833 -1.56526)
(0.331641 -0.200802 -1.12074)
(0.776641 0.270572 -0.454218)
(-2.73446 -2.58247 0.520041)
(-3.46579 -2.62301 1.6713)
(-2.97971 -2.75435 -0.129198)
(-4.51371 -0.327335 1.67969)
(-4.59511 0.532037 1.29883)
(-4.31637 -0.65662 0.0757763)
(-4.17869 -0.301199 0.523907)
(-4.58986 -0.604866 1.12168)
(-4.03015 -0.617456 0.930936)
(-3.45204 -1.58681 0.402262)
(-1.61481 -0.210685 0.970363)
(-1.15486 -0.933276 0.646604)
(-0.558012 -0.853621 0.0423274)
(-0.538129 0.182219 -0.399264)
(-1.00893 -0.843444 0.481109)
(-0.578018 0.487151 -0.522085)
(0.0555866 -0.0543143 -0.709957)
(0.204374 0.253922 -0.784547)
(0.219963 -0.0259123 -1.0787)
(-0.011294 0.405697 -0.75222)
(0.142955 0.375734 -0.31854)
(-0.660268 -0.0453598 -0.766519)
(0.080232 0.130027 -0.958055)
(0.32558 0.311651 -1.37781)
(0.51281 0.0178587 -1.57219)
(0.296668 -0.263109 -1.52954)
(0.335629 -0.21219 -1.09542)
(0.742638 0.248945 -0.455002)
(-2.55976 -2.33958 0.193901)
(-3.74742 -1.17629 0.348231)
(-2.51115 -2.69001 0.340503)
(-3.97983 -1.77618 1.47012)
(-3.43977 -2.64184 1.78416)
(-3.12461 -2.81225 0.133031)
(-4.42552 -0.441536 1.88719)
(-4.58563 -0.594886 1.71359)
(-4.60169 -0.476212 1.19152)
(-4.3099 -1.15467 0.0259671)
(-3.3973 -0.0961227 -0.753885)
(-4.33823 -0.428807 0.580839)
(-4.70723 -0.146177 0.75603)
(-4.06222 -0.732616 0.928367)
(-3.31485 -2.14429 0.357686)
(-1.05838 -0.0917933 0.166461)
(-1.70473 -0.229863 0.975989)
(-1.06616 -1.25001 0.397326)
(-0.453932 -1.22787 -0.0594928)
(-0.587148 0.0195767 -0.443598)
(-1.14745 -0.923627 0.578913)
(-0.733232 0.122963 -0.339087)
(-0.593374 0.393523 -0.57539)
(0.0531861 -0.267377 -0.665425)
(0.157315 0.195894 -0.782152)
(0.168912 -0.102421 -1.06074)
(-0.0365223 0.319004 -0.759165)
(0.0763359 0.317214 -0.340821)
(-0.677022 -0.141841 -1.00005)
(-0.653168 -0.0751474 -0.780156)
(0.0905211 0.134664 -0.924665)
(0.338414 0.18584 -1.34722)
(0.528762 -0.00142637 -1.54972)
(0.301952 -0.292481 -1.49473)
(0.337252 -0.216485 -1.07281)
(0.681249 0.400818 -0.404791)
(-2.75963 -2.06104 0.0299064)
(-3.3407 -1.23615 0.665563)
(-2.29897 -2.59777 0.0276333)
(-3.8059 -0.981588 0.618568)
(-3.55226 -1.15977 0.36561)
(-2.38262 -2.74668 0.244556)
(-4.30892 -1.00866 1.3274)
(-4.17349 -1.58458 1.37236)
(-3.27034 -2.8224 1.60431)
(-3.07112 -2.90315 0.384814)
(-4.22942 -0.284577 1.31215)
(-4.49605 -0.672998 1.6913)
(-4.64447 -0.816161 1.66989)
(-4.56958 -1.03731 1.24526)
(-4.08194 -2.12738 0.0875833)
(-1.83397 -0.140635 -0.961716)
(-3.61885 -0.337746 -0.244832)
(-4.42534 -0.169891 0.344676)
(-4.77991 -0.139689 0.712214)
(-4.1117 -0.820824 0.866576)
(-3.08986 -2.8953 0.417326)
(-0.847164 0.333236 0.457945)
(-1.16122 -0.16746 0.059694)
(-1.7745 -0.27664 1.01508)
(-0.88251 -1.49466 -0.0138454)
(-0.305327 -1.47195 -0.290272)
(-0.643027 -0.125867 -0.512051)
(-1.27624 -1.05168 0.661089)
(-0.870013 -0.182276 -0.248573)
(-0.702597 0.120277 -0.345202)
(-0.57787 0.0907582 -0.65712)
(0.0709398 -0.403191 -0.647002)
(0.115352 0.159663 -0.78773)
(0.119778 -0.18101 -1.03711)
(-0.0458191 0.231366 -0.769039)
(0.0290805 0.280447 -0.371161)
(-0.434751 -1.03706 -0.523787)
(-0.671722 -0.163084 -1.01196)
(-0.66178 -0.086681 -0.791458)
(0.102452 0.139888 -0.90941)
(0.362048 0.0877845 -1.33089)
(0.536494 -0.0106011 -1.53152)
(0.308071 -0.317834 -1.46188)
(0.340909 -0.231023 -1.05177)
(0.722786 0.234592 -0.453863)
(-2.41592 -1.97665 0.0818563)
(-3.31973 -0.994036 0.36708)
(-2.62085 -2.1434 -0.00729118)
(-3.6418 -1.04787 0.404799)
(-3.02413 -1.71337 0.449257)
(-2.12749 -2.76338 0.0361119)
(-3.95467 -0.892296 0.288635)
(-3.73442 -1.20332 0.555373)
(-3.16265 -1.68578 0.592508)
(-2.16359 -2.86662 0.206289)
(-4.45952 -0.475914 1.43471)
(-4.45474 -0.788735 1.52062)
(-4.24211 -1.49993 1.36173)
(-3.38768 -2.60064 1.34979)
(-3.0372 -2.98429 0.545392)
(-4.1213 0.306577 0.853593)
(-4.44728 -0.404747 1.07354)
(-4.55671 -0.886757 1.63992)
(-4.68036 -1.30465 1.69534)
(-4.6412 -1.1566 1.33279)
(-3.64681 -3.21183 0.393323)
(-0.206598 0.0011619 -0.307763)
(-1.83931 -0.25592 -0.56928)
(-3.70602 -0.471143 -0.465408)
(-4.45283 -0.149188 0.597546)
(-4.70319 -0.692752 1.08924)
(-3.97585 -1.12272 0.866064)
(-2.97044 -3.37094 0.782462)
(-0.715654 0.447774 0.145174)
(-0.887258 0.0978435 0.369523)
(-1.22402 -0.276465 -0.122999)
(-1.78061 -0.356663 1.05335)
(-0.723056 -1.61473 -0.43843)
(-0.188404 -1.62538 -0.544347)
(-0.737415 -0.243459 -0.593287)
(-1.5064 -0.896214 0.711039)
(-0.587497 -1.00648 -0.0436214)
(-0.830022 -0.309033 -0.272123)
(-0.691918 0.123658 -0.361307)
(-0.564324 -0.0492167 -0.688108)
(0.097399 -0.518934 -0.653969)
(0.0702642 0.0631189 -0.812733)
(0.0685114 -0.225973 -0.999916)
(-0.0708591 0.229317 -0.738991)
(-0.0587976 0.21911 -0.384623)
(-0.53715 -1.26824 0.197619)
(-0.415096 -1.09025 -0.500245)
(-0.676269 -0.174924 -1.02091)
(-0.64058 -0.0827504 -0.830928)
(0.114354 0.116642 -0.929791)
(0.377364 0.0383324 -1.32536)
(0.550993 -0.025145 -1.52259)
(0.313786 -0.338014 -1.4316)
(0.346327 -0.235566 -1.03224)
(0.670772 0.337862 -0.425792)
(-2.27112 -1.93699 -0.299775)
(-3.21397 -0.844064 0.159359)
(-2.30287 -2.13945 0.0138916)
(-3.27674 -0.773895 0.296639)
(-2.91706 -1.60444 0.30097)
(-2.23486 -2.46203 0.178334)
(-3.75015 -0.561177 0.759463)
(-3.49814 -1.21593 0.499627)
(-2.98138 -1.89088 0.37631)
(-2.00539 -2.80907 -0.0677424)
(-4.09486 -0.252463 0.584942)
(-3.80031 -0.699074 0.79132)
(-3.66032 -1.4294 0.556376)
(-3.1256 -1.80095 0.630379)
(-2.0284 -2.98366 0.151819)
(-4.47907 0.098864 1.18621)
(-4.46165 -0.583046 1.50957)
(-4.41696 -0.75739 1.79707)
(-4.36417 -1.16586 1.39266)
(-3.43108 -2.44097 0.982738)
(-2.98293 -3.03289 0.621312)
(-3.31033 0.469385 0.64441)
(-4.09594 0.592763 1.13254)
(-4.36793 -0.524575 1.43215)
(-4.66771 -1.18682 1.59901)
(-4.59192 -1.80266 1.77897)
(-4.63748 -1.19668 1.29178)
(-2.94995 -4.12884 0.582575)
(-0.929864 -0.318294 -0.439387)
(-0.166974 -0.241116 -0.663014)
(-1.72643 -0.229286 -0.689367)
(-3.81483 -0.44826 0.0472452)
(-4.418 -0.408425 0.885873)
(-4.65972 -0.742489 1.0221)
(-3.80319 -1.52368 0.876334)
(-3.20179 -3.13758 1.1358)
(-0.897999 -0.763775 -0.123459)
(-0.767877 0.372959 0.0952112)
(-0.893891 -0.136224 0.190908)
(-1.25609 -0.345084 -0.354494)
(-1.78114 -0.227446 1.08475)
(-0.476985 -1.53573 -1.0278)
(-0.110405 -1.73463 -0.68073)
(-0.845923 -0.366499 -0.67778)
(-1.56663 -1.32696 0.78734)
(-0.884449 -1.37559 0.0480929)
(-0.588252 -1.16191 -0.220144)
(-0.788299 -0.438745 -0.295623)
(-0.670288 0.0826522 -0.39896)
(-0.546796 -0.211183 -0.694134)
(0.159519 -0.569799 -0.706671)
(0.0377007 0.0314256 -0.862613)
(0.0119527 -0.282444 -0.950719)
(-0.0963872 0.207223 -0.733189)
(-0.0982895 0.19471 -0.438816)
(-0.884654 -0.794573 0.0239818)
(-0.524473 -1.30435 0.153948)
(-0.393189 -1.14179 -0.487294)
(-0.674147 -0.207873 -1.02987)
(-0.663431 -0.0724703 -0.842619)
(0.124956 0.0685665 -0.977372)
(0.400318 -0.056336 -1.33103)
(0.561958 -0.0256408 -1.52149)
(0.31964 -0.353971 -1.40487)
(0.351941 -0.246311 -1.01606)
(0.654033 0.308745 -0.433915)
(-2.6638 -1.208 -0.352966)
(-3.02325 -0.577299 0.215798)
(-2.14193 -1.99737 -0.284045)
(-3.10468 -0.480124 0.248548)
(-3.04473 -1.21644 0.167596)
(-2.22003 -2.14948 -0.0043883)
(-3.50645 -0.373014 0.411373)
(-3.1663 -0.924203 0.346032)
(-2.85609 -1.75998 0.296795)
(-2.00362 -2.64997 0.307008)
(-3.61843 -0.285085 0.864554)
(-3.55427 -0.604233 0.724859)
(-3.43055 -1.10325 0.68346)
(-2.9043 -1.89024 0.329183)
(-2.09875 -2.53482 -0.0363824)
(-4.13441 0.0981835 0.878038)
(-3.87142 -0.10113 0.971981)
(-3.75506 -0.689148 1.1768)
(-3.38063 -1.59465 0.666997)
(-2.92803 -2.00599 0.624276)
(-1.63237 -3.36596 -0.0315352)
(-4.23728 0.807512 1.69498)
(-4.4698 0.0406709 1.26731)
(-4.44687 -0.618937 1.49675)
(-4.37316 -0.604903 1.65409)
(-4.33709 -1.48238 1.30999)
(-3.34259 -2.70466 0.686731)
(-2.70443 -3.32775 0.661757)
(-2.08347 -0.570948 0.51538)
(-3.20912 0.528486 1.18833)
(-4.04841 0.489827 0.957723)
(-4.46201 -0.700545 1.663)
(-4.606 -1.51016 1.66376)
(-4.69096 -1.52426 1.59538)
(-4.82539 -0.955036 1.39913)
(-2.84715 -3.87963 0.675248)
(-1.41859 -0.752964 -0.503153)
(-1.00015 -0.564607 -0.850675)
(-0.138189 -0.344015 -0.880118)
(-1.69995 -0.223109 -0.764944)
(-3.99713 -0.479273 0.513532)
(-4.32752 -0.369025 0.867864)
(-4.5714 -0.713772 0.797077)
(-3.71986 -1.66442 1.0566)
(-2.98612 -3.28803 1.18766)
(-1.08418 -1.10812 -0.653516)
(-0.912564 -0.960826 -0.338628)
(-0.868685 0.215476 -0.0374791)
(-0.904383 -0.254554 0.0990972)
(-1.30453 -0.415571 -0.615852)
(-1.72338 -0.180081 1.35791)
(-0.248634 -1.30237 -1.4668)
(-0.0636208 -1.65406 -0.921461)
(-0.950188 -0.535862 -0.722119)
(-1.68913 -1.12695 0.789783)
(-1.40366 -0.903932 -0.0497089)
(-0.865167 -1.42468 -0.190301)
(-0.564936 -1.30892 -0.308062)
(-0.74145 -0.594726 -0.333332)
(-0.655584 0.0516483 -0.442991)
(-0.489795 -0.485277 -0.59222)
(0.207271 -0.641138 -0.798906)
(-0.00272831 0.00542871 -0.907626)
(-0.0407815 -0.340948 -0.885684)
(-0.115625 0.179414 -0.747295)
(-0.15764 0.201322 -0.468351)
(-0.596566 -1.2773 0.00870842)
(-0.876365 -0.809524 0.157875)
(-0.516261 -1.32164 0.198033)
(-0.375097 -1.18994 -0.453377)
(-0.678923 -0.232028 -1.03961)
(-0.633817 -0.123109 -0.880677)
(0.140062 0.0226141 -1.02059)
(0.408698 -0.0408453 -1.34886)
(0.57436 -0.0318484 -1.50869)
(0.323401 -0.366126 -1.38373)
(0.362784 -0.257724 -1.00025)
(0.6363 0.288771 -0.437847)
(-2.39213 -0.806213 0.149664)
(-2.83837 -0.923409 -0.25938)
(-2.5638 -1.3964 -0.393126)
(-2.92535 -0.556004 0.0370792)
(-2.73795 -1.36631 0.0142453)
(-1.93802 -2.07139 -0.27681)
(-3.19708 -0.30751 0.182293)
(-3.00261 -0.851404 0.206222)
(-2.99662 -1.5061 0.245522)
(-1.93155 -2.35974 -0.0363228)
(-3.29733 0.152492 0.733465)
(-3.26743 -0.68808 0.513737)
(-3.02678 -1.03918 0.4199)
(-2.72125 -1.83412 0.30405)
(-1.59568 -2.8494 0.2366)
(-3.61513 -0.154581 0.964515)
(-3.50214 0.0352052 0.857879)
(-3.47269 -0.676464 0.727657)
(-3.21551 -1.10881 0.698352)
(-2.61103 -1.95602 0.402439)
(-1.69049 -2.61973 0.0252632)
(-4.34983 0.893365 1.11476)
(-4.14073 0.0894322 0.929328)
(-3.75034 0.0580451 1.09996)
(-3.71021 -0.487394 1.31072)
(-3.2736 -1.41988 0.636998)
(-2.80496 -2.08072 0.621216)
(-1.4572 -3.58732 -0.164786)
(-4.04546 1.84046 0.355178)
(-4.43628 0.839854 1.73298)
(-4.52773 0.108113 1.3688)
(-4.43404 -0.636344 1.48983)
(-4.29472 -0.486158 1.44119)
(-4.39633 -1.10603 1.38284)
(-3.39083 -3.00581 0.453888)
(-2.55359 -3.57259 0.52456)
(-2.13585 -0.348258 0.464297)
(-1.78855 -0.408301 0.626342)
(-3.1819 0.54635 0.231353)
(-4.09986 0.398282 0.783492)
(-4.65395 -0.644211 1.60496)
(-4.55832 -1.51511 1.65693)
(-4.684 -1.27473 1.54847)
(-5.03351 -1.188 1.29988)
(-2.61078 -3.61081 0.373551)
(-1.21574 -0.370992 -1.00878)
(-1.42892 -0.936551 -0.641838)
(-1.04019 -0.685676 -1.14963)
(-0.192328 -0.306562 -0.988795)
(-1.70934 -0.292592 -0.712214)
(-4.2305 -0.514814 0.15938)
(-4.33546 -0.403832 0.568607)
(-4.18502 -1.31227 1.11894)
(-3.50618 -1.99304 1.25522)
(-2.72448 -3.46374 1.40053)
(-1.02608 -0.928276 -0.783382)
(-1.02986 -1.10829 -0.815941)
(-0.98406 -0.951586 -0.625858)
(-0.881414 -0.215079 -0.477133)
(-0.915754 -0.411247 0.0476562)
(-1.31194 -0.65132 -0.385159)
(-1.37573 -0.589491 1.81233)
(0.00721105 -1.12609 -1.50203)
(-0.0150092 -1.54236 -1.04684)
(-1.04109 -0.747943 -0.766723)
(-2.0801 -0.92512 0.652073)
(-1.24016 -0.895167 0.262362)
(-1.4456 -0.917116 -0.159994)
(-0.832078 -1.42566 -0.429839)
(-0.558207 -1.50836 0.145653)
(-0.693657 -0.751924 -0.407055)
(-0.662501 0.0212279 -0.506732)
(-0.450983 -0.613891 -0.556895)
(0.27247 -0.712369 -0.929425)
(-0.0445213 -0.00614855 -0.951215)
(-0.0859739 -0.356319 -0.823672)
(-0.110092 0.128572 -0.763866)
(-0.165915 0.185894 -0.511383)
(-0.560103 -1.43825 -0.163953)
(-0.534205 -1.26063 0.0109957)
(-0.887611 -0.823723 0.0371891)
(-0.510581 -1.34489 0.103137)
(-0.348114 -1.23831 -0.416489)
(-0.671232 -0.285617 -1.05183)
(-0.651387 -0.0889048 -0.893495)
(0.154761 -0.0397742 -1.06015)
(0.405844 -0.0466245 -1.35237)
(0.592462 -0.0635858 -1.51845)
(0.328992 -0.377039 -1.36653)
(0.368777 -0.26833 -0.987565)
(0.607992 0.340458 -0.425312)
(-1.49346 -1.52829 0.0061699)
(-2.40536 -1.04822 -0.163853)
(-2.47036 -0.805599 0.304965)
(-2.86049 -0.591995 0.000365391)
(-2.74076 -1.36484 -0.217821)
(-2.24939 -1.65784 -0.25239)
(-2.93102 -0.17511 0.344723)
(-2.84823 -0.772465 -2.94347e-05)
(-2.7151 -1.52535 0.150857)
(-1.88016 -2.13448 -0.215706)
(-3.22679 -0.0301991 0.350955)
(-3.04598 -0.320814 0.309613)
(-2.98429 -0.851105 0.218146)
(-2.93842 -1.53897 0.286268)
(-1.69658 -2.47608 -0.0525831)
(-3.20824 0.42867 0.747703)
(-3.23055 -0.0895801 0.72918)
(-3.14924 -0.713162 0.580697)
(-2.90442 -1.11952 0.371974)
(-2.58916 -1.77218 0.361987)
(-1.75879 -2.60443 0.277876)
(-3.66137 0.592099 0.960584)
(-3.50695 0.2908 0.943379)
(-3.51591 -0.178472 0.964914)
(-3.47404 -0.804534 0.728192)
(-2.97882 -1.37774 0.635211)
(-2.33544 -2.14285 0.239785)
(-1.59403 -2.68282 -0.0277302)
(-4.28225 0.682509 1.29803)
(-4.35702 0.680267 1.21723)
(-4.00932 0.180764 1.01813)
(-3.80041 -0.0773815 1.32269)
(-3.51809 -1.11048 1.33073)
(-3.26142 -1.37961 0.611449)
(-2.66462 -2.08464 0.505674)
(-1.34405 -3.56759 -0.140485)
(-3.85431 0.561016 1.79807)
(-3.79773 1.45005 0.0892783)
(-4.66592 0.575136 1.62084)
(-4.5818 0.307713 1.3708)
(-4.47058 -0.337888 1.31961)
(-4.34529 -0.402573 1.31542)
(-4.38999 -0.710288 1.52974)
(-3.53964 -2.79395 0.456606)
(-2.2541 -3.86865 0.229012)
(-2.43416 -0.22587 0.659489)
(-1.93085 -0.499232 0.345216)
(-1.64912 -0.363327 0.465536)
(-2.85614 -0.335582 0.463085)
(-4.16025 0.207285 0.619706)
(-4.6601 -0.565671 1.55344)
(-4.57828 -1.35811 1.47975)
(-4.61445 -1.10463 1.31203)
(-4.96321 -1.40621 1.36114)
(-2.7401 -3.27726 0.160522)
(-0.449994 -0.353194 -0.72896)
(-1.14772 0.0437101 -1.2092)
(-1.41856 -0.954112 -0.754511)
(-1.02096 -0.656106 -1.48571)
(-0.277182 -0.252285 -0.976702)
(-1.67005 -0.325421 -0.0298752)
(-4.27118 -0.526938 0.231884)
(-4.17709 -0.756831 0.953024)
(-4.0775 -0.919554 0.580231)
(-3.46239 -2.16635 1.14251)
(-2.50797 -3.54313 1.83044)
(-1.20243 -0.837814 -0.384667)
(-0.952554 -0.873075 -0.6748)
(-0.909315 -1.08985 -0.808477)
(-0.969907 -0.85221 -0.982441)
(-0.988528 -0.224306 -0.55964)
(-0.895878 -0.565153 -0.0525218)
(-1.28791 -0.847944 -0.0875793)
(-1.00602 -1.05159 1.75692)
(0.21419 -0.898398 -1.62808)
(-0.0135688 -1.33814 -1.06284)
(-1.10409 -0.945668 -0.875817)
(-2.31831 -0.940038 0.407896)
(-1.01395 -1.11198 -0.105446)
(-1.20725 -0.955516 0.268371)
(-1.45482 -0.908414 -0.160778)
(-0.813593 -1.40468 -0.581746)
(-0.537816 -1.45547 -0.507152)
(-0.669847 -0.866951 -0.501784)
(-0.650615 -0.0719645 -0.587217)
(-0.376837 -0.831723 -0.373806)
(0.290432 -0.767921 -1.00498)
(-0.0648064 -0.0473096 -1.00066)
(-0.157065 -0.329432 -0.776522)
(-0.10924 0.081855 -0.785313)
(-0.186855 0.183397 -0.535384)
(-0.175512 -1.12605 -0.306837)
(-0.577096 -1.39336 -0.17151)
(-0.57108 -1.22412 0.113964)
(-0.877006 -0.846523 -0.0214613)
(-0.512601 -1.35258 -0.0490297)
(-0.327666 -1.25862 -0.443085)
(-0.674781 -0.299405 -1.07696)
(-0.636355 -0.109694 -0.92333)
(0.169757 -0.0850502 -1.11097)
(0.402377 -0.0597958 -1.37596)
(0.624619 -0.0922251 -1.54245)
(0.333381 -0.384554 -1.34888)
(0.385374 -0.277087 -0.975296)
(0.602041 0.317411 -0.432418)
(-1.6283 -1.11814 -0.118209)
(-2.20101 -0.735056 0.373497)
(-1.47618 -1.52818 0.038835)
(-2.65843 -0.752347 0.0309601)
(-2.41431 -1.18453 -0.114591)
(-2.41954 -0.95699 0.213081)
(-2.82585 -0.471154 0.120719)
(-2.80962 -0.938455 0.00530403)
(-2.58931 -1.61584 -0.316411)
(-2.06817 -1.86185 -0.2485)
(-3.01868 -0.0880514 0.214667)
(-2.93636 -0.452826 0.290829)
(-2.81412 -0.935122 -0.0578938)
(-2.71378 -1.52014 0.183915)
(-1.50583 -2.37581 -0.214988)
(-3.26187 -0.00728688 0.513022)
(-3.21383 -0.153351 0.288669)
(-2.99596 -0.485114 0.384635)
(-2.89026 -1.08664 0.125212)
(-2.83071 -1.50973 0.368843)
(-1.65347 -2.40346 0.102851)
(-3.23912 0.311501 0.936498)
(-3.18474 0.438632 0.773202)
(-3.2259 -0.15638 0.715374)
(-3.08827 -0.631572 0.628804)
(-2.80365 -1.21615 0.45829)
(-2.30776 -1.92458 0.335032)
(-1.18016 -2.83218 0.293008)
(-3.73898 0.808772 1.27169)
(-3.70072 0.442594 1.16253)
(-3.36336 0.271088 1.15363)
(-3.4986 -0.0588734 0.990288)
(-3.35539 -0.883086 0.77299)
(-2.79955 -1.58601 0.550256)
(-2.1633 -2.3041 0.037883)
(-1.25389 -2.92007 0.048675)
(-4.2481 1.14094 1.63102)
(-4.33206 0.79949 1.35757)
(-4.3347 0.463646 1.24924)
(-3.95948 0.324365 0.913454)
(-3.92809 0.149301 1.14796)
(-3.65628 -0.257515 1.2455)
(-3.7298 -0.202973 0.675338)
(-2.44226 -2.16068 0.327195)
(-1.26821 -3.47567 -0.1418)
(-3.39033 0.415714 0.972058)
(-3.44877 0.189977 1.92783)
(-3.63483 0.386985 1.0038)
(-4.60584 0.197535 1.44554)
(-4.63158 0.584455 0.837238)
(-4.53581 -0.315211 1.09718)
(-4.32697 -0.302713 1.19167)
(-4.22808 -0.758607 1.38383)
(-3.80729 -2.48973 0.618476)
(-2.21213 -3.99878 0.0739377)
(-2.27518 -0.0777978 0.0637452)
(-2.40119 -0.477201 0.575281)
(-1.80442 -0.673503 0.12857)
(-1.52384 -0.377701 0.624288)
(-2.72376 -0.692221 0.779516)
(-3.98214 0.326526 0.460591)
(-4.77156 -0.581572 1.20501)
(-4.72753 -1.04413 0.812418)
(-4.60599 -0.98892 1.01148)
(-4.75648 -1.71439 1.48674)
(-2.48002 -3.35458 0.211227)
(-0.48656 -0.0920064 -0.928157)
(-0.34085 -0.310915 -0.543263)
(-1.09102 0.137255 -1.15558)
(-1.41334 -0.726615 -0.806158)
(-0.986105 -0.569539 -1.6868)
(-0.44713 -0.175497 -0.835932)
(-1.63653 -0.223985 0.469308)
(-4.11989 -0.614087 0.28217)
(-4.07943 -0.476893 1.02678)
(-4.11074 -0.361757 0.0467658)
(-3.54142 -2.21385 1.39609)
(-2.65652 -2.85388 0.791272)
(-1.2339 -0.72228 -0.261198)
(-1.15422 -0.822348 -0.569037)
(-0.88502 -0.867356 -0.435895)
(-0.746244 -0.931332 -0.81891)
(-0.870803 -0.814391 -1.20882)
(-1.04112 -0.291765 -0.583331)
(-0.903761 -0.591952 -0.180773)
(-1.26556 -1.16954 0.0556356)
(-0.390208 -1.65059 0.566805)
(0.323797 -0.528828 -1.90441)
(-0.0285067 -1.14904 -1.03363)
(-1.12224 -1.1703 -0.985813)
(-2.37363 -0.963209 0.329349)
(-0.587803 -1.03507 -0.299844)
(-1.00339 -1.10517 -0.217107)
(-1.20139 -0.957051 0.213007)
(-1.38492 -0.977745 -0.0796412)
(-0.81025 -1.34931 -0.639644)
(-0.531042 -1.48685 -0.526272)
(-0.580625 -1.04561 -0.57795)
(-0.630377 -0.169175 -0.663987)
(-0.321147 -1.01547 -0.309476)
(0.272522 -0.813388 -1.05548)
(-0.0725875 -0.0766195 -1.03892)
(-0.158675 -0.376276 -0.734897)
(-0.104864 0.0431648 -0.817703)
(-0.170785 0.190919 -0.547622)
(-1.04832 -1.20449 0.573659)
(-0.121988 -1.13069 -0.306439)
(-0.588109 -1.333 -0.162813)
(-0.570395 -1.20889 0.14358)
(-0.865842 -0.864168 -0.0356838)
(-0.500739 -1.3503 -0.053199)
(-0.308491 -1.28927 -0.425137)
(-0.654187 -0.38232 -1.08624)
(-0.654771 -0.109689 -0.935828)
(0.176935 -0.125555 -1.15232)
(0.392806 -0.0535008 -1.41128)
(0.631914 -0.0869092 -1.54997)
(0.33475 -0.387575 -1.33427)
(0.389893 -0.286082 -0.96673)
(0.580001 0.323344 -0.431837)
(-1.76377 -0.739531 0.0073795)
(-2.02579 -0.782261 -0.0672893)
(-1.41395 -1.3504 -0.145623)
(-2.28029 -0.988723 0.0499487)
(-2.13349 -0.910953 0.358791)
(-1.46732 -1.53094 0.0909545)
(-2.6433 -0.583098 0.21761)
(-2.65312 -0.956464 -0.0525336)
(-2.35372 -1.3159 -0.0920144)
(-2.34138 -1.10417 -0.0720701)
(-2.78684 -0.332031 0.432789)
(-2.82032 -0.690102 0.0950277)
(-2.79411 -1.02034 0.00995116)
(-2.44757 -1.73491 -0.334188)
(-1.70886 -2.20065 -0.304266)
(-2.98287 -0.150454 0.70188)
(-2.93998 -0.352906 0.33144)
(-2.93601 -0.761953 0.249207)
(-2.81931 -1.0989 -0.0515316)
(-2.71781 -1.4188 0.328677)
(-1.54891 -2.27286 -0.147706)
(-3.223 0.148976 0.910592)
(-3.22728 0.0338783 0.630589)
(-3.18504 -0.439905 0.339659)
(-3.00812 -0.702354 0.396967)
(-2.80755 -1.32707 0.193366)
(-2.55442 -1.79356 0.315204)
(-1.18501 -2.6074 0.144425)
(-3.35331 0.280843 1.1399)
(-3.27955 0.640438 0.920308)
(-3.2845 0.0649711 0.926816)
(-3.20744 -0.276728 0.767086)
(-3.00497 -0.543741 0.646222)
(-2.68409 -1.32339 0.505989)
(-2.09267 -2.14356 0.286619)
(-1.1335 -2.85836 0.124657)
(-3.68466 0.550379 1.52809)
(-3.731 0.806549 1.32617)
(-3.63985 0.405796 1.22853)
(-3.36926 0.162025 1.21513)
(-3.45685 0.0861369 0.95683)
(-3.23409 -0.740395 0.789672)
(-2.89006 -1.46997 0.623774)
(-1.88358 -2.48868 0.0900541)
(-1.18947 -2.94387 -0.0935789)
(-3.88206 0.69255 1.75503)
(-4.14694 1.03841 1.534)
(-4.35095 0.735577 1.29655)
(-4.24636 0.533953 1.29347)
(-4.07779 0.359126 0.773883)
(-3.97987 0.352283 1.04792)
(-3.91427 -0.215923 1.11644)
(-3.38363 -1.63724 0.748982)
(-2.43775 -2.26643 0.183442)
(-1.10954 -3.57013 -0.116436)
(-3.53476 0.703853 0.961248)
(-3.38502 0.468716 0.860636)
(-3.07841 -0.112907 1.55623)
(-3.28059 -0.250692 1.84446)
(-4.30852 0.615562 1.2458)
(-4.6123 0.376248 0.638416)
(-4.61597 -0.0671652 0.790454)
(-4.36963 -0.137309 1.03452)
(-4.24342 -0.928777 1.33494)
(-4.01097 -2.26422 0.78911)
(-2.18853 -4.16286 -0.106738)
(-1.93377 -0.514023 0.027431)
(-2.26525 0.0420972 0.0167297)
(-2.30735 -0.614044 -0.144032)
(-1.7636 -0.613008 0.23105)
(-1.48187 -0.400623 0.753172)
(-2.31143 -0.772672 1.4404)
(-3.70026 0.544047 -0.175351)
(-4.88222 -0.528297 1.1156)
(-4.80115 -0.588524 0.516317)
(-4.65992 -1.2373 1.01454)
(-4.64531 -1.74864 1.27589)
(-2.30126 -3.52758 0.207682)
(-0.969181 0.0988043 -0.661145)
(-0.388406 -0.2472 -0.939405)
(-0.245265 -0.193628 -0.471003)
(-0.968415 0.0750511 -0.978939)
(-1.33853 -0.367595 -0.933075)
(-0.986709 -0.547519 -1.69325)
(-0.650939 -0.109367 -0.603916)
(-1.61377 0.24831 1.19485)
(-3.88316 -0.551318 -0.223482)
(-4.08291 -0.0898643 0.829761)
(-3.56505 -0.844942 1.15252)
(-3.39453 -2.21929 2.24916)
(-2.97027 -2.31434 -0.340419)
(-0.74234 -0.640617 -0.238312)
(-1.06781 -0.405861 -0.788083)
(-1.16533 -0.841089 -0.589332)
(-0.805663 -0.827179 -0.394475)
(-0.639959 -0.649976 -0.87879)
(-0.834635 -0.768735 -1.26758)
(-1.24858 0.242482 -0.550317)
(-0.937584 -0.607886 -0.329279)
(-1.08774 -1.48208 -0.406943)
(-0.0820892 -1.79606 -0.293752)
(0.288854 -0.195288 -2.09155)
(-0.0134056 -1.04302 -1.03797)
(-1.06303 -1.36763 -1.1093)
(-2.57945 -0.873708 0.235784)
(-1.36244 -0.776504 0.458668)
(-0.544433 -0.936585 -0.34938)
(-0.976062 -1.11057 -0.274604)
(-1.18081 -0.954169 0.121578)
(-1.36286 -1.02803 -0.104517)
(-0.753368 -1.27829 -0.686798)
(-0.496573 -1.43928 -0.726353)
(-0.488172 -1.17383 -0.696717)
(-0.606816 -0.291418 -0.745227)
(-0.308837 -1.07284 -0.459117)
(0.22883 -0.810529 -1.13208)
(-0.0993947 -0.0537758 -1.07033)
(-0.164841 -0.380009 -0.73729)
(-0.0806573 -0.0329 -0.831506)
(-0.185976 0.200023 -0.558467)
(-1.26144 -0.655988 0.106029)
(-1.04848 -1.17816 0.529226)
(-0.148972 -1.1041 -0.307311)
(-0.545484 -1.31447 -0.171118)
(-0.567294 -1.18297 0.138283)
(-0.866124 -0.898832 0.00380098)
(-0.499442 -1.33544 -0.171637)
(-0.28635 -1.2702 -0.517838)
(-0.638064 -0.454887 -1.09118)
(-0.655127 -0.114844 -0.956743)
(0.206705 -0.18951 -1.1594)
(0.401018 -0.0821791 -1.43669)
(0.644456 -0.093548 -1.53842)
(0.333917 -0.392668 -1.32059)
(0.411135 -0.309262 -0.952812)
(0.571332 0.326787 -0.429993)
(-1.35596 -1.10446 0.179334)
(-1.75294 -1.12807 -0.0700333)
(-1.6493 -0.911612 0.00577162)
(-2.16656 -0.668385 0.23002)
(-1.99278 -0.848812 -0.0442215)
(-1.33415 -1.4555 -0.142705)
(-2.34427 -0.960889 0.242545)
(-2.23396 -1.07754 0.0203115)
(-1.96736 -1.18375 0.261844)
(-1.56838 -1.45766 0.253806)
(-2.66373 -0.526389 0.419174)
(-2.62176 -0.943976 0.108571)
(-2.61267 -1.05627 -0.0704388)
(-2.27043 -1.32888 -0.0516141)
(-2.55712 -0.867276 -0.262266)
(-2.81328 -0.404247 0.538788)
(-2.78016 -0.449716 0.402284)
(-2.78142 -0.922771 0.0747138)
(-2.63086 -1.29628 -0.0310006)
(-2.45046 -1.64426 -0.413633)
(-1.7962 -2.01324 -0.423146)
(-3.11294 0.000413301 0.7218)
(-2.95611 -0.2988 0.637724)
(-2.93017 -0.496778 0.361069)
(-2.93609 -0.791581 0.289632)
(-2.81054 -1.16308 0.0175739)
(-2.63661 -1.49174 0.304779)
(-1.21592 -2.41437 -0.034328)
(-3.34155 0.346253 0.871469)
(-3.21191 0.151373 0.928909)
(-3.23861 -0.206379 0.744195)
(-3.18041 -0.536702 0.455403)
(-2.98391 -0.745963 0.402736)
(-2.8473 -1.2355 0.365719)
(-2.43448 -1.86861 0.202981)
(-1.1103 -2.64897 0.143655)
(-3.49819 0.666471 1.21824)
(-3.43304 0.650154 1.07119)
(-3.27819 0.296877 1.12289)
(-3.23296 -0.425952 1.09834)
(-3.19082 -0.450929 0.761381)
(-2.84493 -0.796988 0.704862)
(-2.47172 -1.4935 0.554415)
(-1.7343 -2.42645 0.27826)
(-1.02999 -2.83558 0.0880026)
(-3.74788 0.866162 1.68614)
(-3.67267 0.401796 1.57926)
(-3.70025 0.575392 1.41781)
(-3.59692 0.436593 1.26569)
(-3.51714 -0.0204188 1.35565)
(-3.43446 -0.12465 1.06146)
(-3.27113 -0.828752 0.898943)
(-2.72656 -1.86449 0.640395)
(-2.03453 -2.4615 0.0642961)
(-0.92305 -3.04694 -0.112392)
(-3.70564 0.335369 1.9321)
(-3.70301 -0.13319 1.73358)
(-4.04265 0.685188 1.41664)
(-4.14224 0.698905 1.53619)
(-4.09849 0.490205 1.3115)
(-4.09167 0.170822 1.24684)
(-4.05697 0.421002 1.03886)
(-3.8845 -0.566698 1.08737)
(-3.4066 -1.88033 0.74013)
(-2.34342 -2.53066 0.186474)
(-1.25698 -3.51721 -0.246527)
(-3.13856 0.170591 1.35041)
(-3.48948 0.185335 1.15345)
(-3.47512 0.545883 0.663656)
(-3.05093 -0.0217912 1.27142)
(-3.12136 0.132494 1.99946)
(-3.95063 1.12045 1.34938)
(-4.43144 -0.0568368 1.12524)
(-4.46929 -0.108624 0.941041)
(-4.55742 -0.0948318 0.906561)
(-4.36403 -1.28407 1.35162)
(-4.46622 -1.60741 0.729941)
(-2.13543 -4.32062 -0.217355)
(-1.82732 0.137455 0.0216655)
(-1.94182 -0.392579 -0.101955)
(-2.26442 -0.198362 -0.0369591)
(-2.25098 -0.650827 -0.46112)
(-1.79276 -0.682608 0.125006)
(-1.45936 -0.380266 0.922424)
(-1.91197 -0.505972 1.5216)
(-3.54231 0.164928 -0.312023)
(-4.91896 -0.47285 0.772794)
(-4.84594 -0.537224 0.65357)
(-4.70599 -1.38522 1.10217)
(-4.58661 -1.54982 0.916982)
(-2.4017 -3.65312 0.0331777)
(-0.883799 -0.028465 -0.140357)
(-0.88504 0.267499 -0.4719)
(-0.365514 -0.139172 -0.857487)
(-0.172719 -0.115976 -0.474127)
(-0.887362 -0.126638 -0.728873)
(-1.23097 -0.272213 -0.994751)
(-1.07273 -0.437644 -1.52574)
(-0.811284 -0.130649 -0.422884)
(-1.56097 0.632954 1.5)
(-3.38453 -0.414979 0.536663)
(-3.55071 -0.438308 1.51946)
(-3.19888 -1.02704 1.83403)
(-3.20609 -1.77648 2.67745)
(-2.90922 -2.39185 -0.266842)
(-1.29188 -0.575684 0.0901143)
(-0.700363 -0.466555 -0.302585)
(-0.965426 -0.313593 -0.96257)
(-1.14115 -0.913362 -0.508316)
(-0.737554 -0.554919 -0.693572)
(-0.540913 -0.525524 -0.830719)
(-0.769069 -0.6428 -1.26982)
(-1.13863 -0.276725 -0.904197)
(-1.08068 -0.410166 -0.383913)
(-0.859169 -1.5055 -0.932328)
(0.0978046 -1.52447 -1.37133)
(0.171202 0.0705333 -2.13765)
(-0.0300177 -0.931198 -1.01551)
(-0.97544 -1.48673 -1.15759)
(-2.52589 -1.16208 0.150358)
(-1.59101 -0.512468 0.741515)
(-1.29099 -0.672446 0.382913)
(-0.48055 -0.873021 -0.359328)
(-0.944797 -1.03254 -0.380671)
(-1.17992 -0.954455 0.119598)
(-1.24666 -1.14988 -0.175488)
(-0.700978 -1.23234 -0.671501)
(-0.475036 -1.38871 -0.859028)
(-0.461292 -1.20795 -0.842107)
(-0.576395 -0.390631 -0.836375)
(-0.317381 -1.08061 -0.570395)
(0.17402 -0.749775 -1.16758)
(-0.121518 -0.0202035 -1.10719)
(-0.19336 -0.397768 -0.726017)
(-0.0687877 -0.0549265 -0.850549)
(-0.132919 0.195182 -0.581857)
(-0.70959 -0.51411 0.240205)
(-1.27435 -0.725502 0.0854341)
(-1.012 -1.12756 0.565745)
(-0.126516 -1.06788 -0.325819)
(-0.626333 -1.2391 -0.259273)
(-0.584764 -1.17436 0.127144)
(-0.869855 -0.889865 0.0621202)
(-0.503205 -1.33006 -0.21897)
(-0.287308 -1.26685 -0.548262)
(-0.612245 -0.520649 -1.09782)
(-0.653121 -0.140741 -0.983283)
(0.240724 -0.247518 -1.16044)
(0.406709 -0.0910572 -1.46459)
(0.669375 -0.103286 -1.5385)
(0.356466 -0.417897 -1.30536)
(0.431261 -0.316162 -0.949951)
(0.556633 0.339782 -0.428397)
(-1.38263 -0.845755 -0.106421)
(-1.76631 -0.794555 0.0871286)
(-1.26212 -1.25672 0.184769)
(-1.99605 -0.828307 0.195968)
(-1.70927 -1.18283 -0.0372159)
(-1.59138 -1.01311 -0.0102138)
(-2.18406 -0.777825 0.00775669)
(-2.06941 -0.775401 0.181017)
(-1.96455 -0.902032 0.00711302)
(-1.22566 -1.57921 -0.168112)
(-2.43961 -0.5162 0.217595)
(-2.29975 -1.06367 0.216797)
(-2.2198 -1.00397 0.114151)
(-1.76687 -1.55742 0.144231)