/*--------------------------------*- C++ -*----------------------------------*\
  =========                 |
  \\      /  F ield         | OpenFOAM: The Open Source CFD Toolbox
   \\    /   O peration     | Website:  https://openfoam.org
    \\  /    A nd           | Version:  7
     \\/     M anipulation  |
\*---------------------------------------------------------------------------*/
FoamFile
{
    version     2.0;
    format      ascii;
    class       surfaceScalarField;
    location    "4";
    object      phi;
}
// * * * * * * * * * * * * * * * * * * * * * * * * * * * * * * * * * * * * * //

dimensions      [0 3 -1 0 0 0 0];

internalField   nonuniform List<scalar> 
54095
(
0.000288186
-0.000561009
-7.17901e-05
0.000243837
0.0028514
-1.03106e-05
0.00025788
-0.000754517
-6.4372e-05
0.00027419
-0.00117768
-0.000103773
-4.7027e-05
0.00557333
0.000119752
0.000222287
0.00288487
2.12292e-06
0.000224538
0.00312661
1.95494e-05
0.000221659
-0.000918186
-5.79901e-05
0.000245414
-0.00138877
-9.86968e-05
0.00016878
-0.000521865
-6.96546e-05
-0.000752459
0.00853878
0.000692452
-0.000109818
0.00574492
0.000160512
0.000294805
0.00624074
0.000628236
0.000171598
0.0029206
1.43351e-05
0.000233683
0.003103
3.7468e-05
0.000115637
0.00257476
8.61933e-05
0.000187876
-0.00105488
-5.11797e-05
0.000225315
-0.00157796
-9.4108e-05
0.000137561
-0.000693902
-6.42211e-05
0.000111394
0.000725182
-2.47582e-05
-0.00131683
0.0062559
0.000310722
-0.000790039
0.00846514
0.000753856
-0.000102289
0.00933201
0.000820544
-0.000172056
0.00586078
0.000227792
0.00029849
0.0057337
0.000602744
-0.000175031
0.00767749
0.000686452
0.000148412
0.00295298
7.08547e-06
0.000262385
0.00303984
4.04265e-05
9.98719e-05
0.0025602
8.97153e-05
-9.91815e-05
0.00318381
0.000179985
0.000158615
-0.001166
-4.74958e-05
0.000216113
-0.0017551
-9.016e-05
0.000119305
-0.000849416
-5.7899e-05
0.000120746
0.000559798
-1.95829e-05
7.00797e-06
0.000292339
-9.39507e-06
-0.00138561
0.00455485
0.000111046
-0.0013617
0.00648079
0.000346773
-0.000674151
0.00792552
0.000460068
-0.000797633
0.00829595
0.000794766
2.09378e-05
0.00947374
0.000889673
-0.000471887
0.00940213
0.000802416
-0.000270507
0.00599548
0.000284223
0.000220805
0.00542738
0.00057569
-9.37907e-05
0.00785402
0.000619879
-0.000154875
0.00712556
0.000520142
0.000172175
0.00294324
-3.81688e-06
0.000294923
0.00294009
2.80218e-05
0.000113182
0.00251317
9.35773e-05
-6.44833e-05
0.00328291
0.000175847
-7.89289e-05
0.00290224
0.000193268
0.000142826
-0.001263
-4.5827e-05
0.000220741
-0.0019364
-8.69304e-05
0.000108615
-0.000995928
-5.22621e-05
0.000120652
0.000394831
-1.35838e-05
1.30369e-05
0.000267348
-7.62839e-06
-1.90083e-05
0.00106984
7.4193e-06
-0.00158733
0.0035664
0.000192192
-0.00144001
0.00447945
0.000153717
-0.000815747
0.00531757
0.000269719
-0.00131053
0.00667945
0.00031424
-0.000645512
0.00843717
0.000501569
-0.000539567
0.0079162
0.000414184
-0.000904384
0.00814318
0.000786644
-3.66192e-05
0.00958686
0.000939071
-0.000277958
0.00951233
0.00096364
-0.000332367
0.00881459
0.000764602
-0.000298381
0.00614244
0.000323597
0.000198678
0.00529654
0.000511305
8.02269e-06
0.00795008
0.000584789
-4.66453e-05
0.00726824
0.000459353
-0.000115442
0.00558415
0.000311282
0.000183118
0.002935
-3.206e-05
0.000343238
0.00282122
-7.43904e-06
0.00011081
0.00245423
8.47648e-05
-6.14785e-05
0.00337921
0.000179409
-5.65804e-05
0.00295183
0.000195871
6.07838e-05
0.0018171
0.000127012
0.000140697
-0.00135973
-4.39686e-05
0.000228574
-0.00212649
-8.43093e-05
0.000102395
-0.00113901
-4.62475e-05
0.000110936
0.000238987
-7.35383e-06
1.67899e-05
0.000245107
-8.13301e-06
-1.30863e-05
0.0010665
8.79696e-06
1.72468e-05
0.000768961
9.0066e-07
-0.00158265
0.00371329
7.13026e-05
-0.00156785
0.00354957
0.000144673
-0.000856527
0.00430515
0.000213377
-0.00147624
0.00461802
2.71369e-05
-0.000812152
0.00525906
0.000378867
-0.000477432
0.00559221
0.000416024
-0.00126944
0.00673402
0.000310489
-0.000749189
0.00893562
0.000528362
-0.000290421
0.00800341
0.00042682
-0.000293327
0.00790053
0.000497775
-0.00108483
0.00815127
0.000778368
0.000188442
0.00943831
0.000945435
-0.000191437
0.00979835
0.000852509
-0.000174772
0.00907095
0.000835405
-0.000266416
0.00792937
0.000745542
-0.000351288
0.00633521
0.000341633
0.000279367
0.00521652
0.000467489
0.000144942
0.0078649
0.000562351
-3.02236e-05
0.00732688
0.000494901
-1.96444e-05
0.00577716
0.000229405
7.28351e-05
0.00468532
0.000155083
0.000167486
0.00293383
-2.56158e-05
0.000395439
0.00266187
-3.95798e-05
0.000131819
0.00235041
6.69551e-05
-3.42708e-05
0.00343539
0.00017379
-2.42206e-05
0.00297774
0.000194512
7.03298e-05
0.00180274
0.000126819
7.18557e-05
0.00118574
8.23637e-05
0.000145371
-0.00146132
-4.37806e-05
0.000229444
-0.00231922
-8.06869e-05
9.88893e-05
-0.00128221
-3.99978e-05
0.000102829
9.12776e-05
-1.36695e-06
2.1338e-05
0.000225501
-9.08531e-06
-1.0543e-05
0.00106062
8.29478e-06
2.36644e-05
0.000752605
1.48844e-06
-1.0253e-05
0.000455727
-7.38521e-06
-0.0013333
0.00354729
-0.000122329
-0.00158691
0.00373138
9.76097e-07
-0.00063483
0.00465615
0.000130735
-0.00162559
0.0035213
0.000177619
-0.000918388
0.00437346
0.000182598
-0.000648433
0.00511607
0.000358061
-0.00142357
0.00474593
2.62113e-05
-0.00103679
0.00525727
0.000316526
-0.000261383
0.00542031
0.000521735
-2.79331e-05
0.00615575
0.000712783
-0.00131145
0.00671325
0.000247393
-0.000302745
0.00922056
0.000516733
-0.000527831
0.00840556
0.000462604
-9.15288e-05
0.00773361
0.000510496
1.07869e-05
0.00795438
0.00061484
-0.00120563
0.00832292
0.000682693
0.000442957
0.00918488
0.000868208
0.000292503
0.00978206
0.000814164
-0.000156272
0.00935929
0.000690211
-0.000293295
0.00832469
0.000713739
-8.50482e-05
0.00755634
0.000779009
-0.000492435
0.0066789
0.000316229
0.000340958
0.00520167
0.000410962
0.000172674
0.00777098
0.000520552
5.87659e-05
0.00732145
0.000474743
0.000104732
0.00592105
0.000222056
0.00012402
0.00474708
0.000113955
-3.16461e-05
0.00548936
8.65565e-05
0.000141215
0.00296436
-2.63734e-05
0.000435109
0.00248593
-5.53353e-05
0.000145808
0.00221247
5.1443e-05
2.14839e-06
0.00343508
0.000167946
3.38178e-06
0.00298204
0.000187438
7.52948e-05
0.00178109
0.000130321
7.88291e-05
0.00117825
7.91476e-05
-1.29851e-05
0.00155116
8.37673e-05
0.0001485
-0.00156741
-4.24061e-05
0.000234835
-0.00251794
-7.98974e-05
9.06067e-05
-0.00141918
-3.43204e-05
9.42892e-05
-4.63593e-05
3.34992e-06
2.68608e-05
0.000204308
-7.0353e-06
-7.30763e-06
0.00105177
7.07467e-06
1.99234e-05
0.000738425
2.5515e-06
-9.94485e-06
0.000474081
-6.91999e-06
-1.45617e-05
0.000699864
-1.72183e-05
-0.0013286
0.00386245
4.67082e-05
-0.00135109
0.00352997
-0.000218504
-0.000830004
0.00489547
0.000119376
-0.00160084
0.0037324
-2.57785e-05
-0.000866193
0.00453737
6.75685e-05
-0.00063697
0.00497559
0.000187118
-0.00158799
0.00356222
0.000123497
-0.000947009
0.00424592
0.000215377
-0.000491052
0.00515782
0.000370516
-0.000301969
0.00525005
0.000566085
-0.00137255
0.00481162
-4.58194e-06
-0.000932988
0.00563303
0.000280694
-0.000725053
0.00539384
0.000540218
3.63025e-06
0.00579928
0.000783048
9.8909e-05
0.00637094
0.00088999
-0.00141986
0.00661763
0.000309844
3.93192e-05
0.00924496
0.000626637
0.000329247
0.00826499
0.000620562
-0.00024192
0.00765956
0.000622295
-0.000143393
0.00765091
0.000664066
-0.000123979
0.00778419
0.00084495
-0.00108811
0.00831216
0.000606429
0.000546718
0.00884893
0.000812876
5.46144e-05
0.0100433
0.000725053
0.000120824
0.00944755
0.000663849
0.000151032
0.00826767
0.000700924
-7.37542e-06
0.00761868
0.000782786
-0.000172803
0.007191
0.000749262
-0.000550284
0.00705113
0.000319274
0.000396175
0.00521931
0.000337525
0.000174883
0.00766594
0.000486929
0.000105968
0.00729572
0.000442465
0.000204393
0.00604631
0.000148476
0.000134693
0.00492374
-1.40106e-05
-3.75863e-05
0.00562854
9.11861e-05
-5.78091e-05
0.00537597
4.16968e-05
0.000201146
0.00299677
-8.50602e-05
0.000479832
0.0023156
-0.000101043
0.000171009
0.0020381
3.86315e-05
2.81024e-05
0.00339064
0.000162069
2.88923e-05
0.00296821
0.000179753
4.44072e-05
0.0017906
0.000126216
1.03647e-05
0.00123454
8.35863e-05
-1.32943e-06
0.00153998
8.17093e-05
-1.11023e-06
0.00227113
6.49459e-05
0.00015542
-0.00168065
-4.21872e-05
0.000237497
-0.00272048
-7.73613e-05
6.55735e-05
-0.001535
-2.96498e-05
8.63673e-05
-0.000174471
7.42365e-06
3.1723e-05
0.00018545
-9.51463e-06
-2.1643e-06
0.00103778
9.11516e-06
1.82712e-05
0.000723915
3.31335e-06
-8.89618e-06
0.000492027
-6.49826e-06
-1.31271e-05
0.000724018
-1.79462e-05
1.25806e-06
0.000333515
-4.30983e-05
-0.00149202
0.00273139
0.000242197
-0.001368
0.00378985
8.95093e-05
-0.00114019
0.00435432
0.000206662
-0.00138931
0.00346303
-0.000144578
-0.000857698
0.00466171
6.75755e-06
-0.000755884
0.0047573
0.000253415
-0.00159033
0.00374681
-1.20675e-05
-0.000970848
0.0044828
5.26266e-05
-0.000733011
0.00510592
0.000179205
-0.000509709
0.00526388
0.000303419
-0.00155012
0.00364753
9.2259e-05
-0.00100235
0.00422382
0.000214953
-0.00063877
0.00487763
0.000409288
-0.000381422
0.00541229
0.000593326
-0.00023701
0.00545926
0.000742623
-0.00135042
0.00480172
-5.95427e-05
-0.00070596
0.00603318
0.000340554
-9.93656e-05
0.00562099
0.000482151
-0.000251338
0.00564017
0.000708752
7.39011e-05
0.00603879
0.000897909
-0.000143469
0.00648884
0.000994939
-0.00108463
0.00651566
9.84999e-05
4.73982e-05
0.00906471
0.000989415
3.4144e-05
0.00820846
0.000703641
0.000106872
0.00754719
0.000746888
0.000176883
0.00743838
0.000808976
-0.00012128
0.00766736
0.000894795
-0.000148318
0.00728245
0.00103506
-0.00116867
0.00839135
0.000539192
0.000710952
0.00829235
0.000848236
0.00074831
0.00959427
0.000688457
0.000234367
0.0094307
0.000613502
0.000111244
0.00831658
0.000708093
6.64191e-05
0.00761035
0.00077753
-0.00026533
0.00746895
0.000732585
-9.97467e-05
0.00720901
0.000561925
-0.000450696
0.00744017
0.000262801
0.000440138
0.0052787
0.000299584
0.00030613
0.00741157
0.000456775
0.000226902
0.0072144
0.000369442
0.000308348
0.00611153
9.77873e-05
0.000107485
0.00504821
-3.90642e-05
-7.82633e-05
0.00570775
-4.5955e-06
1.08176e-05
0.0054442
1.0802e-05
5.20606e-05
0.00484674
4.16263e-05
0.000251309
0.0029742
-7.33108e-05
0.000524368
0.00207997
-0.000136303
0.000112104
0.00188247
8.06366e-06
5.89026e-05
0.00329998
0.00015676
4.68336e-05
0.00294475
0.000170414
5.6372e-05
0.00179471
0.000117102
4.7632e-05
0.00124483
8.6573e-05
-3.30304e-05
0.00156535
8.23466e-05
-4.9942e-05
0.00232301
6.66476e-05
-4.63019e-05
0.00225244
5.03034e-05
0.00013992
-0.00178104
-3.95294e-05
0.000210127
-0.00289692
-7.58776e-05
5.71265e-05
-0.0016433
-2.6192e-05
7.46947e-05
-0.000289347
1.05315e-05
3.85177e-05
0.000165359
-1.10036e-05
1.87046e-06
0.00101955
6.84957e-06
1.68804e-05
0.000712052
4.09759e-06
-7.59833e-06
0.000509097
-6.15832e-06
-1.32882e-05
0.000749582
-1.87745e-05
5.55794e-06
0.000353828
-4.38174e-05
9.73425e-06
-0.00024667
-4.74091e-05
-0.00124076
0.00334374
-0.000102789
-0.00349221
-0.0015554
0.00281763
0.000101169
-0.00101454
0.00350719
0.000134531
-0.00137951
0.00366111
0.000118931
-0.00110335
0.00443146
0.000258029
-0.000891415
0.00446652
0.000294246
-0.0014607
0.00342027
-8.68661e-05
-0.000988501
0.00455326
-1.84717e-05
-0.000859321
0.0046851
0.000205275
-0.00068244
0.00482667
0.000414153
-0.00162504
0.00379286
2.88649e-05
-0.000929658
0.00433436
6.36809e-05
-0.000740629
0.00508861
0.000171793
-0.00055197
0.00532901
0.000284627
-0.000402304
0.00534712
0.000408647
-0.00147948
0.00366838
0.000108205
-0.00107873
0.00446091
0.000227949
-0.000614706
0.00513117
0.000476755
-0.000353238
0.00533355
0.000589925
-0.000234129
0.00563276
0.000727852
-0.000316677
0.00568051
0.000801682
-0.00132159
0.00517701
-0.000138331
-0.000737672
0.0064676
0.000291102
-0.000139574
0.00553736
0.000597909
-0.000165358
0.00565293
0.000741613
-9.7121e-05
0.00613338
0.000888164
-0.000160803
0.00646697
0.000959294
-0.000223845
0.00680461
0.00105869
-0.00122972
0.00630481
0.000271899
0.000273395
0.00869217
0.000908596
0.000822877
0.0081909
0.000932405
0.000493307
0.00717738
0.000814514
7.96355e-05
0.00735839
0.000858485
6.85603e-05
0.00751883
0.000955363
-0.000312204
0.00714
0.00108411
-0.000168403
0.00672401
0.0011294
-0.00112844
0.00862187
0.000447227
0.000890406
0.00769739
0.000683885
0.000652365
0.00939426
0.000702011
0.000503058
0.00918634
0.000656658
0.00031881
0.00825676
0.000662859
9.08281e-05
0.00762271
0.00071239
-1.78723e-05
0.00747575
0.000710339
-3.95615e-05
0.00745346
0.000538517
9.38822e-05
0.00713641
0.000413666
-0.000363504
0.00780575
0.000249233
0.000589132
0.00519235
0.000284381
0.000358081
0.00705161
0.00041356
0.000340467
0.00702309
0.000366524
0.000372958
0.00615761
-2.76088e-06
0.000126572
0.00511328
-3.74832e-05
1.57303e-05
0.00568445
1.61407e-05
-2.13998e-05
0.00543611
-8.13459e-06
-5.70303e-05
0.00484717
1.74628e-05
-4.54734e-05
0.00450875
7.23764e-05
0.000331211
0.00289588
-0.000112975
0.000484219
0.00187264
-0.000140074
7.53336e-05
0.00174074
-1.27836e-05
7.65041e-05
0.0031572
0.000149029
9.30335e-05
0.00288075
0.000166242
5.91117e-05
0.00179978
0.000108101
7.41372e-05
0.00122185
8.28172e-05
1.64083e-05
0.00154364
8.42817e-05
-2.74902e-05
0.00234744
7.21144e-05
-3.41537e-05
0.00230419
5.4613e-05
-3.51399e-05
0.00183537
5.25946e-05
0.000138712
-0.00188079
-3.89648e-05
0.000173046
-0.00303572
-7.37753e-05
4.00146e-05
-0.00173573
-2.34569e-05
5.77398e-05
-0.000385784
1.25052e-05
4.41816e-05
0.000143861
-1.21521e-05
6.71836e-06
0.000995573
6.25157e-06
1.84061e-05
0.000695403
5.09274e-06
-8.5976e-06
0.000527647
-5.85465e-06
-1.35715e-05
0.000776638
-1.96431e-05
6.01854e-06
0.000373153
-4.41184e-05
1.10359e-05
-0.000254758
-4.6766e-05
9.64005e-06
-0.000766346
-4.08355e-05
-0.0011908
0.00319071
-4.17482e-05
-0.00319892
-0.00139512
0.00321516
-3.17114e-05
-0.000791656
0.0038976
-7.34867e-05
-0.00414979
-0.00133861
-0.000130314
-0.00155432
0.0028931
9.9339e-05
-0.00119141
0.00350322
0.000193201
-0.000828005
0.00415939
0.000112475
-0.00144465
0.0035335
0.000111569
-0.00121805
0.00449383
0.000286101
-0.00088056
0.00442197
0.000323818
-0.00076799
0.00469644
0.000355756
-0.001589
0.00341393
-2.97046e-05
-0.000840758
0.00438174
-4.24515e-06
-0.000838136
0.00463298
0.00013115
-0.000718706
0.00478078
0.000417893
-0.000495884
0.00477072
0.000553817
-0.00150696
0.00380527
1.50831e-05
-0.00111691
0.00429267
0.000108742
-0.000652221
0.00503181
0.000157995
-0.000413839
0.00529146
0.000269942
-0.000354151
0.00534443
0.00040734
-0.000390393
0.00548559
0.000535292
-0.00142984
0.00372535
5.12886e-05
-0.00108198
0.00463524
0.000278176
-0.000552165
0.00525669
0.000515018
-0.000316339
0.00534825
0.000613042
-0.00018364
0.00562852
0.000680684
-0.000330584
0.00579496
0.000783183
-0.000309336
0.00601375
0.000818541
-0.00129891
0.00529465
-4.84584e-05
-0.000594972
0.0068869
0.000310734
-0.000147869
0.00619348
0.00060572
0.000169411
0.00569191
0.000882832
3.67347e-05
0.00601202
0.000905872
-8.24834e-05
0.00652329
0.00098289
-0.000214541
0.00665187
0.00101436
-0.000257798
0.0071562
0.00106549
-0.00130381
0.00613673
0.000343447
0.000617532
0.00840165
0.000835293
0.000856325
0.0080396
0.000855941
0.000538296
0.00711861
0.000955935
0.000292282
0.00723281
0.000966624
1.79164e-05
0.00744362
0.00100661
-9.03127e-05
0.00707245
0.00109536
-0.000247816
0.00683142
0.00118495
-9.54321e-05
0.00712423
0.00113659
-0.00102818
0.00880605
0.00048049
0.000839627
0.00740811
0.000486014
0.00072932
0.00907754
0.000629369
0.000624003
0.00890901
0.000695806
0.000517162
0.00809106
0.000678155
0.000156349
0.00767951
0.00057628
0.0001192
0.00747673
0.000607943
5.42312e-05
0.00757117
0.000516995
7.19177e-05
0.00712747
0.000418511
0.000150631
0.00676013
0.000359574
-8.10583e-05
0.00803997
0.000178046
0.000559296
0.00512146
0.000245049
0.000391716
0.00659865
0.000420964
0.000414939
0.00685456
0.000243653
0.000442527
0.00619721
-2.25728e-05
0.000144754
0.00513319
-0.000108313
0.000128697
0.00555329
3.91224e-05
0.000104803
0.00535566
8.19471e-06
-2.63056e-05
0.00483469
3.16429e-06
-0.000110981
0.00453673
6.63095e-05
-3.31876e-05
0.00438413
9.34864e-05
0.000397004
0.00272844
-9.08496e-05
0.000420517
0.00163217
-0.000119975
4.66865e-05
0.00161862
-2.46306e-05
8.73915e-05
0.00297909
0.00013568
0.00010353
0.00281329
0.000157143
6.52003e-05
0.00180247
0.000105075
9.0097e-06
0.00125831
8.10393e-05
-2.66142e-05
0.00156144
8.30342e-05
-1.04273e-05
0.00235384
7.47382e-05
-1.5631e-05
0.00233818
5.97692e-05
-7.15605e-05
0.00191944
5.3134e-05
-4.8075e-05
0.00150605
4.81505e-05
0.000133208
-0.00197403
-3.99599e-05
0.000135465
-0.00313776
-7.23842e-05
2.86428e-05
-0.00181737
-2.0778e-05
4.1251e-05
-0.000464415
1.39237e-05
5.04231e-05
0.000119068
-1.31243e-05
1.07654e-05
0.000965906
6.74948e-06
2.04928e-05
0.000674332
6.82978e-06
-7.15329e-06
0.000545582
-5.68975e-06
-1.12409e-05
0.000802605
-2.05805e-05
7.4075e-06
0.000389886
-4.37832e-05
1.50437e-05
-0.000268009
-4.59108e-05
9.85302e-06
-0.000781726
-4.12387e-05
-4.06313e-05
-0.000367519
-3.75279e-05
-0.00128957
0.002664
8.32146e-05
-0.00264845
-0.0013606
0.00322718
-7.09821e-05
-0.000823021
0.00383029
1.75688e-05
-0.00385824
-0.00133209
-7.13595e-06
-0.00151967
0.0031976
-1.70872e-05
-0.00102529
0.00379421
-9.44385e-05
-0.000817123
0.00417718
-5.93705e-05
-0.00420218
-0.000836726
-0.000264565
-0.00148911
0.00278084
0.000156726
-0.00132562
0.00352546
0.000184665
-0.000807896
0.0041043
0.000175628
-0.000831476
0.00437639
0.000157088
-0.00159614
0.00347393
6.67116e-05
-0.000998164
0.00454313
0.000219676
-0.000897606
0.00442991
0.000337637
-0.000687206
0.00461128
0.000377476
-0.000638256
0.00463804
0.000491312
-0.00138462
0.00332054
-2.89533e-05
-0.00102428
0.00424603
1.33745e-05
-0.00082396
0.00469009
0.00011038
-0.000696127
0.00484649
0.00034773
-0.000453666
0.00473856
0.000549574
-0.000455617
0.00478878
0.000667579
-0.00154356
0.00391032
8.66875e-06
-0.00114676
0.00428254
8.99982e-05
-0.000535608
0.00497255
0.000151442
-0.000362108
0.00523848
0.000256747
-0.000257129
0.00528449
0.000403373
-0.000447247
0.00547621
0.00053338
-0.000270345
0.00555093
0.000628999
-0.00139354
0.0038168
3.17554e-06
-0.00100566
0.00491018
0.00018704
-0.000375639
0.00520273
0.000559904
-0.000177272
0.00554171
0.000668241
-0.000128056
0.00573857
0.000667787
-0.0002894
0.00595562
0.000726949
-0.000316549
0.00606781
0.00083113
-0.000377657
0.0063403
0.000840142
-0.00134474
0.00548699
-0.000151403
-0.000380745
0.0074605
0.000376227
0.000194749
0.00652973
0.000636064
-4.34813e-05
0.00605811
0.000821292
0.00011346
0.00610736
0.000966309
-8.36521e-05
0.00655599
0.000974741
-0.000215252
0.00674271
0.00101699
-0.000257299
0.00713207
0.00104797
-0.000261839
0.0074031
0.00110715
-0.00129704
0.00606477
0.000340821
0.000284089
0.00844738
0.000853255
0.000765237
0.00799127
0.000847698
0.000497444
0.00708053
0.00102058
0.000403003
0.0073194
0.000983503
9.00136e-05
0.00737754
0.00109904
5.86559e-05
0.00703413
0.00110548
-0.000182445
0.00697311
0.00119034
-0.000104024
0.00728275
0.00120237
-2.11041e-05
0.00729247
0.00111368
-0.000951691
0.00911774
0.000558946
0.000837465
0.00709112
0.00051931
0.000900649
0.00847114
0.000583476
0.000757115
0.00845039
0.000745816
0.000617279
0.00795595
0.000656162
0.000175781
0.00778869
0.000537949
0.000205305
0.00752064
0.000455752
0.000175772
0.00765688
0.000451263
-2.21315e-06
0.00718089
0.000439488
-9.16952e-06
0.00670412
0.000372714
-8.80887e-05
0.00655334
0.000389482
4.51989e-05
0.00817839
0.000213386
0.000395638
0.00517948
0.000144906
0.000395111
0.00609328
0.000401991
0.000538125
0.00669002
0.000134777
0.000463887
0.00619987
-0.000119364
0.000166307
0.00518166
-0.000172154
8.04083e-05
0.00538627
-1.26972e-05
8.34345e-05
0.00528547
-7.28094e-07
1.25592e-05
0.00479327
2.66279e-05
-6.79704e-05
0.00453328
5.89531e-05
-9.67111e-05
0.00438749
8.81015e-05
-8.95851e-05
0.00401371
0.000126084
0.000398827
0.00255108
-8.82621e-05
0.00029075
0.00146619
-8.01584e-05
6.68163e-05
0.00148435
-2.38718e-05
0.000100853
0.00276937
0.000125481
0.000113152
0.00274118
0.000145057
5.05904e-05
0.00182038
9.94036e-05
-2.27463e-05
0.00132588
8.07469e-05
-3.96942e-05
0.00159251
8.2507e-05
-1.27663e-05
0.00236297
7.54342e-05
-2.76923e-05
0.00238502
6.29973e-05
-8.54836e-05
0.00202483
5.49135e-05
-5.4018e-05
0.00157524
4.7813e-05
-8.51905e-05
0.00123951
5.11905e-05
0.000127721
-0.00206425
-3.7506e-05
8.40776e-05
-0.00318987
-7.19308e-05
1.84676e-05
-0.00189024
-1.79858e-05
2.94184e-05
-0.000530064
1.54517e-05
5.73279e-05
8.89488e-05
-1.32853e-05
1.53459e-05
0.000930695
6.74126e-06
1.98563e-05
0.000652281
8.94468e-06
-6.31457e-06
0.000563773
-5.04646e-06
-8.47734e-06
0.000826908
-2.15148e-05
1.08854e-05
0.000401097
-4.26775e-05
2.00081e-05
-0.000287298
-4.45023e-05
1.01075e-05
-0.000796061
-4.16836e-05
-4.26642e-05
-0.000329167
-3.69267e-05
-4.22557e-05
0.00101135
-2.89393e-05
-0.00140645
0.00224249
5.91228e-05
-0.00218474
-0.00153025
0.00271455
0.000119097
-0.000972701
0.00337958
9.84567e-05
-0.00324514
-0.00152944
9.69451e-05
-0.00141446
0.00318794
-6.59651e-05
-0.000860044
0.00364208
-4.80225e-05
-0.000868387
0.00383325
2.21233e-05
-0.00378654
-0.00109249
0.00013971
-0.00140555
0.00311171
2.31864e-06
-0.00122538
0.00375234
-7.54504e-05
-0.00075407
0.00409835
-6.94293e-05
-0.0010036
0.00410927
0.000108361
-0.00410488
-0.00107723
-0.000291617
-0.00166196
0.00272008
0.000126573
-0.00123374
0.0036665
0.000251267
-0.00084785
0.00399462
0.000244592
-0.000655791
0.00438603
0.000134568
-0.000856432
0.00439668
0.000368823
-0.00141596
0.00346959
3.568e-05
-0.00104425
0.00442651
0.000203301
-0.000953791
0.00446509
0.000314326
-0.00074551
0.00460619
0.000392102
-0.00054887
0.00462878
0.000481939
-0.00059846
0.0046472
0.000610494
-0.00152319
0.00328589
1.42741e-05
-0.00113631
0.00417628
3.03432e-05
-0.000699053
0.00473441
0.000132505
-0.000621425
0.00483222
0.000383973
-0.000475129
0.00474459
0.000559696
-0.00048111
0.00473589
0.000636319
-0.000331738
0.00480601
0.00073582
-0.00153065
0.00401558
3.18492e-05
-0.00122033
0.00438424
0.000121639
-0.000449965
0.00495542
0.000181459
-0.000311537
0.00528606
0.000238123
-0.000333977
0.00534323
0.000403928
-0.00036121
0.00542553
0.000525869
-0.000370285
0.0055004
0.00063765
-0.000396518
0.00569514
0.000710305
-0.00145124
0.00388894
3.43648e-05
-0.000989093
0.00521901
0.000302686
-0.000505939
0.00559821
0.000492252
-0.000226042
0.00563371
0.000650458
-1.50383e-05
0.00584709
0.000688219
-0.000210027
0.00603593
0.000713845
-0.000271454
0.00602996
0.000821003
-0.000202698
0.00624387
0.000872958
-0.000319661
0.00639184
0.000928432
-0.00137333
0.00579874
-0.000235462
-0.000480235
0.00779784
0.000275578
0.000364819
0.00673573
0.000570645
-5.01327e-05
0.00636395
0.000877805
3.61173e-05
0.00638206
0.000913481
-4.87442e-05
0.00670533
0.000955728
-0.000178577
0.00694578
0.00100891
-0.00022016
0.00715093
0.00103585
-0.00018012
0.00740877
0.00111839
-0.000182958
0.00734422
0.00120057
-0.00139597
0.00611352
0.000395532
0.000278178
0.00858925
0.000758232
0.000854838
0.00798201
0.000908328
0.000643858
0.00712027
0.000921213
0.000560462
0.00725686
0.00113994
3.32353e-05
0.007406
0.0010976
3.81518e-05
0.00714712
0.0011532
-6.41045e-05
0.00711661
0.00120185
-0.000154287
0.00741783
0.00120734
-0.000103759
0.00743714
0.00115229
-0.000131289
0.00730833
0.00115209
-0.000904859
0.00946658
0.000601214
0.000281366
0.00717158
0.000592756
0.000666425
0.0080352
0.000683936
0.000887695
0.00792908
0.000755219
0.000485238
0.00801119
0.000669224
0.000478099
0.00765506
0.000478001
0.000151923
0.00755917
0.000427911
0.000221476
0.00758698
0.000387617
4.02382e-05
0.0072074
0.000397066
-9.43918e-05
0.00677217
0.000397858
-0.000121373
0.00656584
0.000384875
-0.000151409
0.0063244
0.000374797
0.000133389
0.00819723
0.000246599
0.000254869
0.00531693
0.000111818
0.000392737
0.00577126
0.000141009
0.00062545
0.00651233
5.50824e-05
0.000425379
0.00622297
-0.000200549
0.000142992
0.00517984
-0.000209941
3.09609e-05
0.00520634
-4.5925e-05
5.65336e-05
0.00520385
-2.73118e-05
2.30765e-05
0.00472183
3.48694e-05
-7.43654e-05
0.00452337
8.322e-05
-0.000104403
0.00436604
9.93203e-05
-5.46781e-05
0.00397493
0.000127548
-2.97984e-05
0.00418662
0.000107065
0.0004187
0.00235011
-9.00055e-05
0.000105256
0.00139698
-4.02272e-05
6.70466e-05
0.00136621
-1.06032e-05
9.19157e-05
0.00256515
0.000117853
0.000138556
0.00264829
0.000137142
1.562e-05
0.00187124
9.39254e-05
-1.01208e-05
0.00137624
7.90225e-05
-2.14063e-05
0.00160503
8.33206e-05
1.85727e-06
0.00235926
7.58772e-05
-2.18999e-05
0.00242842
6.48272e-05
-6.18125e-05
0.00211418
5.54602e-05
-6.69299e-05
0.0016601
4.70903e-05
-8.17698e-05
0.00127862
4.78105e-05
-8.47692e-05
0.000692157
-4.27469e-05
0.000116159
-0.00214242
-3.7991e-05
6.54092e-05
-0.00322488
-6.79039e-05
7.45361e-06
-0.00195443
-1.51889e-05
2.09509e-05
-0.000586274
1.72742e-05
6.38992e-05
5.4105e-05
-1.36037e-05
1.89567e-05
0.000891523
6.93047e-06
1.98076e-05
0.000628877
1.03372e-05
-6.52373e-06
0.000583672
-4.43093e-06
-7.47177e-06
0.000851716
-2.23835e-05
1.52466e-05
0.000405112
-4.07762e-05
2.43747e-05
-0.000312027
-4.23233e-05
1.09371e-05
-0.000808717
-4.27833e-05
-4.16673e-05
-0.000292123
-3.70606e-05
-4.4272e-05
0.00104675
-2.8057e-05
-1.67898e-06
0.00146597
-2.59542e-05
-0.00147991
0.00221518
1.44426e-05
-0.00215615
-0.00151961
0.00217601
5.58501e-05
-0.00119929
0.00273399
0.000213771
-0.00266204
-0.00157031
6.34718e-05
-0.00220734
-0.00155017
0.00284586
4.39809e-06
-0.000934212
0.00342226
0.00015058
-0.00084559
0.00343703
8.85109e-05
-0.00344988
-0.00120316
8.42204e-05
-0.00133341
0.00318454
-6.87341e-05
-0.00127726
0.0036481
-2.01083e-05
-0.000754077
0.00381973
-3.44944e-05
-0.00110553
0.00375036
0.000178649
-0.00380496
-0.00113692
0.000160069
-0.00158612
0.0029496
8.62695e-05
-0.00116189
0.00372836
-4.55503e-05
-0.0007633
0.00399397
-5.56236e-05
-0.000935232
0.00412756
0.000191724
-0.00100405
0.00407943
0.000276976
-0.00410043
-0.00119592
4.04441e-05
-0.0016208
0.00277172
0.000153203
-0.00122748
0.00368476
0.000291541
-0.000961515
0.00398574
0.000267875
-0.000708988
0.00437027
0.000223833
-0.000770141
0.00440026
0.000352259
-0.000733547
0.00435568
0.000527504
-0.00148166
0.00330835
0.000119708
-0.00120006
0.00433862
0.000187314
-0.000858275
0.00447089
0.00035672
-0.000767648
0.00464506
0.000421687
-0.000597501
0.00467226
0.000470992
-0.000584722
0.00464832
0.000584429
-0.000541706
0.00466254
0.000753308
-0.00158008
0.00328825
4.70768e-05
-0.00124747
0.00418632
3.13812e-05
-0.000725533
0.00488712
0.000153198
-0.000554586
0.00484296
0.000364807
-0.000624412
0.00479275
0.000626249
-0.000487358
0.00474245
0.000679289
-0.00043211
0.00479277
0.000711378
-0.000393626
0.00479645
0.000754796
-0.00158484
0.00410569
4.3494e-05
-0.00124602
0.00450795
0.000165066
-0.000513556
0.00484244
0.000242236
-0.000283413
0.00525024
0.000274651
-0.000216667
0.00539101
0.000391966
-0.000313506
0.00539113
0.000541803
-0.000344568
0.0054641
0.00063528
-0.000279184
0.00568678
0.000722499
-0.000507523
0.00574113
0.000864746
-0.00149257
0.00391414
9.40334e-05
-0.000941996
0.00550165
0.00021349
-2.24016e-05
0.00560772
0.000680392
-0.000192784
0.00563562
0.000632997
-1.18652e-05
0.00585528
0.000690246
-0.00017739
0.00613379
0.000719005
-0.000261326
0.00603742
0.000789133
-0.000134134
0.00612186
0.00085699
-0.00019269
0.0063041
0.00097327
-0.000159416
0.0062782
0.00106103
-0.00141776
0.00615758
-0.000337054
-0.000670538
0.00835151
0.000159579
-4.69467e-05
0.00726134
0.000651756
0.000120546
0.00671253
0.000745372
0.000160723
0.00674884
0.00091076
-3.92335e-05
0.00676954
0.000921742
-0.000202475
0.00717457
0.000967564
-0.000254669
0.00729417
0.00105623
-0.000206043
0.00738852
0.00110785
-0.000151828
0.00729803
0.00121265
-9.2841e-05
0.00696224
0.00121528
-0.00144963
0.00616652
0.000491775
-0.000158419
0.00866703
0.000757546
0.000397167
0.00824021
0.00076929
0.000699129
0.00719809
0.00101907
0.000184419
0.0074653
0.00101359
0.00030362
0.00751471
0.0012057
-0.000142615
0.00737796
0.0011613
-9.54785e-05
0.00736917
0.00121759
-8.13018e-05
0.00753536
0.00120586
-0.000155509
0.00753345
0.00117215
-0.000129377
0.0072689
0.00119973
-0.000114002
0.0068812
0.00124827
-0.000748
0.00963905
0.000708927
1.70706e-05
0.00753097
0.000479625
0.00074024
0.00765247
0.000627982
0.000899465
0.00758456
0.000754438
0.000868852
0.00765198
0.00067096
0.000280959
0.00766904
0.000517284
0.000490503
0.00715467
0.000422954
0.000205266
0.00742568
0.000440476
9.19031e-05
0.00710558
0.000420611
-4.78143e-05
0.00674883
0.000393852
-8.90101e-05
0.00652844
0.000419861
-7.36123e-05
0.00635529
0.000372917
-2.67475e-05
0.00606063
0.000397052
0.000239471
0.0081315
0.000244957
7.11765e-05
0.00551828
7.93313e-05
0.000389997
0.00563748
-7.73594e-05
0.000632047
0.00622814
-0.000114942
0.00051469
0.00617828
-0.000276359
0.000105405
0.00511896
-0.000229459
0.000112195
0.0049484
-7.43203e-05
0.000108214
0.00503175
-3.44332e-06
5.91926e-05
0.00461853
1.86509e-05
-7.44643e-05
0.00453481
7.59849e-05
-6.36816e-05
0.00432994
0.000121195
-0.00012156
0.00398833
0.000140541
-5.53903e-05
0.00417679
0.000110995
-4.88381e-05
0.0040733
0.000113097
0.00039218
0.00216268
-8.85978e-05
8.44599e-05
0.00130183
-1.3907e-05
4.03153e-05
0.00129025
2.87885e-06
9.17403e-05
0.00237069
0.000113068
0.000176173
0.00252943
0.000124441
3.88276e-05
0.00189487
9.36437e-05
-9.68359e-06
0.0014207
7.89511e-05
-2.72314e-05
0.00162483
7.9931e-05
-2.99687e-05
0.00238969
7.53916e-05
-1.25192e-05
0.0024655
6.65585e-05
-7.9141e-05
0.00222583
5.66985e-05
-6.99528e-05
0.00175175
4.46951e-05
-6.26165e-05
0.0013064
4.02627e-05
-6.89392e-05
0.000818232
-5.35972e-05
8.45015e-05
0.00128957
-0.000179592
0.000102458
-0.00220599
-3.88877e-05
4.33754e-05
-0.00323902
-6.72226e-05
-4.87217e-06
-0.00200458
-1.28851e-05
1.55622e-05
-0.000636315
1.92899e-05
6.48343e-05
1.98832e-05
-1.33383e-05
3.0244e-05
0.000841096
6.57829e-06
2.16517e-05
0.000602931
1.12251e-05
-5.262e-06
0.000603077
-3.80573e-06
-5.62224e-06
0.00087623
-2.33227e-05
1.95541e-05
0.000401428
-3.82538e-05
2.77847e-05
-0.000341262
-3.93252e-05
1.11385e-05
-0.000818134
-4.40445e-05
-4.04877e-05
-0.000256251
-3.81673e-05
-4.16886e-05
0.00107954