/*--------------------------------*- C++ -*----------------------------------*\
  =========                 |
  \\      /  F ield         | OpenFOAM: The Open Source CFD Toolbox
   \\    /   O peration     | Website:  https://openfoam.org
    \\  /    A nd           | Version:  7
     \\/     M anipulation  |
\*---------------------------------------------------------------------------*/
FoamFile
{
    version     2.0;
    format      ascii;
    class       volVectorField;
    location    "4";
    object      U;
}
// * * * * * * * * * * * * * * * * * * * * * * * * * * * * * * * * * * * * * //

dimensions      [0 1 -1 0 0 0 0];

internalField   nonuniform List<vector> 
18750
(
(3.85188 -0.130669 -1.07353)
(2.2897 2.02292 0.10514)
(3.31882 -0.0671267 -0.932672)
(3.63774 -0.534011 -2.24534)
(0.271566 3.77106 -0.109301)
(2.122 2.14381 0.150551)
(2.1173 2.26678 -0.251468)
(2.7947 -0.0888445 -0.828397)
(3.08917 -0.509431 -2.039)
(2.03538 -0.179978 -2.53513)
(-0.942992 5.84379 0.790778)
(-0.184868 3.90269 0.151605)
(0.452602 4.82525 1.37994)
(1.7671 2.3481 0.275728)
(2.08843 2.37798 -0.115027)
(1.49939 1.83202 0.4409)
(2.2919 -0.10428 -0.716179)
(2.67742 -0.538104 -1.84567)
(1.6793 -0.212694 -2.48211)
(2.16294 0.640741 -0.664561)
(-3.90415 4.05001 -0.181949)
(-1.54182 5.62467 1.09775)
(1.16132 6.32349 3.26071)
(-0.818028 3.89723 0.466036)
(0.157462 3.87738 1.4691)
(-0.458289 5.08017 3.86991)
(1.47737 2.39187 0.231748)
(2.13287 2.46063 -0.0702732)
(1.04078 1.891 0.558322)
(-0.476969 2.09774 1.01178)
(1.898 -0.182335 -0.671736)
(2.45634 -0.486541 -1.64177)
(1.48212 -0.245617 -2.43345)
(2.24741 0.662374 -0.457433)
(0.568643 0.232249 -0.452605)
(-2.20748 3.19484 0.00443301)
(-4.02729 4.00527 -0.0949815)
(-2.12847 5.26481 1.56238)
(-1.95464 5.50429 1.3039)
(0.960252 6.40927 3.41755)
(-1.12993 6.21791 2.3803)
(-1.16553 3.87439 0.843913)
(-0.0722069 3.6453 1.53465)
(-0.587797 5.22577 3.55186)
(-0.768901 4.71016 2.71724)
(1.14936 2.47965 0.318549)
(2.12242 2.55808 -0.136861)
(0.722424 1.87483 0.572142)
(-0.531052 2.15061 0.942353)
(-0.863186 1.91565 1.73343)
(1.65422 -0.215884 -0.669712)
(2.39897 -0.547541 -1.51457)
(1.43015 -0.268318 -2.42463)
(2.18759 0.687011 -0.213044)
(0.61778 0.25615 -0.420689)
(-0.393184 0.705692 0.0334888)
(-3.0893 2.20408 0.375228)
(-2.6876 2.6287 0.0162494)
(-1.25895 3.70006 0.411393)
(-4.19556 3.87097 -0.389718)
(-2.01802 5.4334 1.61471)
(-1.988 5.25528 0.818664)
(-2.88509 5.05272 1.19201)
(0.114425 6.49637 3.48259)
(-1.09359 6.2894 2.68744)
(-0.700723 5.87795 2.72044)
(-0.94138 4.05912 1.04539)
(-0.208124 3.77158 1.54453)
(-0.536802 5.24096 3.37831)
(-0.731606 4.79311 2.40184)
(-0.0523034 3.7658 2.02748)
(0.986027 2.49795 0.0896675)
(2.26426 2.67483 -0.406156)
(0.412372 1.85085 0.48494)
(-0.657671 2.20315 0.988378)
(-0.922956 1.90429 1.72965)
(-0.0400184 1.23967 1.25783)
(1.60198 -0.234826 -0.68899)
(2.35089 -0.496111 -1.44652)
(1.38021 -0.312007 -2.38466)
(2.06262 0.684027 0.0381623)
(0.656964 0.284712 -0.388304)
(-0.379743 0.678088 0.0838029)
(0.114711 0.521899 0.280493)
(-2.32998 2.41148 0.0481307)
(-3.12265 2.24531 0.257328)
(-2.02037 2.65523 0.282989)
(-2.767 2.70468 -0.108483)
(-1.77011 3.27573 0.583462)
(-0.672097 3.81763 0.616827)
(-4.38572 3.78016 -0.243508)
(-2.17751 5.3725 1.77323)
(-1.56682 5.19186 0.996629)
(-1.52317 5.32595 1.22413)
(-3.89324 4.67567 1.25782)
(-0.448329 6.53862 3.49174)
(-1.11528 6.47768 2.87943)
(-0.572543 5.76316 3.33829)
(-1.17687 5.21608 2.24388)
(-1.12461 4.14184 1.25408)
(-0.245936 3.65823 1.61921)
(-0.771092 5.33433 3.00728)
(-0.989162 4.87921 2.2784)
(-0.0773475 3.86328 1.77487)
(0.597517 3.13302 0.721487)
(0.913403 2.54062 0.238711)
(2.41302 2.85889 -0.649382)
(0.289628 1.79715 0.256243)
(-0.918739 2.18322 0.912736)
(-1.02871 1.87889 1.72634)
(-0.0168623 1.21408 1.28445)
(0.244511 0.799769 0.614612)
(1.59789 -0.212712 -0.678236)
(2.37282 -0.566001 -1.33834)
(1.36984 -0.348752 -2.31114)
(1.9035 0.664163 0.27665)
(0.688215 0.320396 -0.357321)
(-0.362847 0.66603 0.0281269)
(0.101284 0.519783 0.289858)
(-0.180771 0.291707 -0.228853)
(-2.2193 2.29876 -0.431233)
(-2.47242 2.27242 0.0470697)
(-1.01763 3.23322 0.157485)
(-3.43212 1.79695 0.370752)
(-1.91072 2.8351 0.237397)
(-1.33366 3.30093 0.40855)
(-2.81901 2.63961 -0.120274)
(-2.60553 3.0908 0.218164)
(-0.543078 3.67344 0.872667)
(0.0821588 4.30843 1.18492)
(-4.91945 3.36453 -1.08827)
(-1.12826 6.05695 1.58955)
(-1.78744 5.17698 0.987674)
(-1.3607 5.09649 1.11286)
(-0.535245 5.54027 1.3319)
(-4.65376 4.49243 0.716849)
(-0.276679 6.51967 3.27738)
(-0.437226 6.62165 2.90998)
(-0.920577 6.2577 2.37227)
(-0.959335 5.40846 2.12319)
(-0.27554 4.98849 2.41969)
(-1.71143 4.07626 1.39301)
(-0.303547 3.69587 1.48783)
(-0.840809 5.31342 2.614)
(-0.86155 4.90282 2.36621)
(0.0527294 3.82349 2.07925)
(0.408406 3.26968 0.229132)
(0.352483 3.55094 0.672956)
(0.858363 2.7429 0.443366)
(2.40966 2.96891 -0.693735)
(0.214917 1.72641 0.0637026)
(-1.05087 2.13921 0.838851)
(-1.09589 1.83313 1.70326)
(-0.106483 1.19955 1.26072)
(0.357875 0.807311 0.580415)
(-0.0929127 1.03322 0.657765)
(1.57581 -0.202995 -0.65665)
(2.40401 -0.513859 -1.34213)
(1.39367 -0.367296 -2.23543)
(1.73743 0.627962 0.491092)
(0.715478 0.360611 -0.333343)
(-0.350324 0.643298 -0.0451578)
(0.0456174 0.510736 0.320133)
(-0.192936 0.291742 -0.207647)
(-0.237888 0.440661 -0.137335)
(-1.23596 2.5412 -0.0255885)
(-2.332 2.20624 -0.539845)
(-0.977353 3.25659 0.0949334)
(-2.56566 2.152 0.00763141)
(-1.62282 2.85666 -0.0432888)
(-1.00341 3.29167 0.215285)
(-3.46147 1.71715 0.276555)
(-2.18761 2.61133 0.237069)
(-1.06251 3.44066 0.363772)
(-0.470788 3.44375 0.829729)
(-2.77212 2.57792 -0.201147)
(-2.33002 3.31716 0.231256)
(-1.94558 3.29504 1.01397)
(0.192041 4.0311 1.33262)
(0.343647 4.32626 1.68134)
(-5.37298 2.74935 -1.85929)
(-0.826134 6.4285 2.09053)
(-0.641285 5.67692 1.17218)
(-1.62459 4.89217 1.26164)
(-1.58267 4.98587 1.46984)
(-0.482049 5.20842 1.7339)
(-5.55949 3.75897 -0.0104885)
(-0.230704 6.39523 3.13756)
(-0.912147 6.63075 2.63862)
(-1.05319 6.28118 2.11173)
(-0.69575 5.53268 2.12566)
(-0.201501 5.05087 2.33359)
(-0.845606 4.65834 2.77274)
(-2.53431 3.98123 1.64437)
(-0.254609 3.6866 1.12063)
(-1.00194 5.20201 2.31048)
(-0.752694 4.89571 2.28423)
(0.0277533 4.18478 1.77059)
(0.292121 3.28626 -0.150674)
(0.0170374 3.73025 0.796548)
(-0.224257 3.52846 0.168819)
(0.843568 2.85699 -0.189838)
(2.45839 3.087 -0.931616)
(-0.0305794 1.58497 -0.0879306)
(-1.17414 2.06158 0.77999)
(-1.12635 1.76821 1.68164)
(-0.161023 1.20231 1.17152)
(0.230003 0.874906 0.646614)
(-0.153854 1.01901 0.640703)
(-0.143835 1.49134 0.602969)
(1.53553 -0.251172 -0.660249)
(2.5425 -0.555168 -1.28857)
(1.41144 -0.381521 -2.16853)
(1.57301 0.5837 0.674224)
(0.736862 0.404695 -0.319613)
(-0.338484 0.627651 0.0277007)
(-0.00122719 0.497524 0.335987)
(-0.211358 0.291037 -0.185775)
(-0.264098 0.440983 -0.135993)
(-0.0102688 0.210875 -0.648736)
(-1.93841 1.72105 0.439766)
(-1.50713 2.43185 -0.0453031)
(-1.22435 2.80305 0.139054)
(-2.51383 1.95203 -0.369201)
(-1.39131 3.0967 -0.0579593)
(-0.941097 3.16126 0.226702)
(-2.6515 1.99734 0.0208791)
(-1.76851 2.78528 -0.079624)
(-1.1886 3.2302 0.224566)
(-0.714475 3.41906 0.361608)
(-3.52255 1.52874 0.234611)
(-2.52405 2.28599 0.137997)
(-1.6712 3.15443 0.466308)
(-0.904245 3.50077 0.888753)
(-0.292718 3.52511 1.15515)
(-2.92619 2.41481 -0.266251)
(-1.77784 3.59804 0.205734)
(0.0916071 3.69776 0.833092)
(-0.761401 3.64528 1.2259)
(0.197993 4.13402 1.81621)
(-0.3201 4.30909 1.93995)
(-4.21913 3.35518 -2.45602)
(-1.02512 6.06525 3.19101)
(-2.21494 5.55539 1.32302)
(-0.601481 5.10747 1.78959)
(0.0878671 4.96675 1.86951)
(-0.761324 5.02181 1.81855)
(-0.400787 4.88291 2.42791)
(-5.65914 3.53436 -0.0315929)
(-0.369863 6.13456 3.45688)
(-1.47258 6.6056 2.4063)
(-1.49195 6.20173 1.79242)
(-0.515293 5.55231 2.15038)
(-0.532575 5.05711 2.27463)
(-1.01636 4.74845 2.8053)
(-0.400276 4.74151 2.0918)
(-2.54248 4.34129 1.57403)
(-0.283588 3.82879 0.875734)
(-0.795177 5.18191 2.01764)
(-0.699958 4.92763 2.27694)
(-0.0196492 4.30739 1.59369)
(-0.319661 3.32489 -0.487646)
(-0.92132 3.73907 0.00118868)
(-0.28395 3.57483 0.0833258)
(-0.00878848 3.26809 0.187418)
(1.00824 3.03578 -0.111359)
(2.44126 3.06611 -1.23093)
(-0.642115 1.15015 -0.501175)
(-1.24639 1.95285 0.72427)
(-1.17039 1.71431 1.63849)
(-0.147519 1.19931 1.06593)
(0.157331 0.879988 0.668171)
(-0.177931 1.01767 0.634845)
(-0.188015 1.5123 0.585304)
(-0.00978701 1.45713 0.391265)
(1.51469 -0.254026 -0.649288)
(2.56025 -0.596291 -1.26434)
(1.43884 -0.396826 -2.10508)
(1.40672 0.527737 0.817316)
(0.752352 0.451663 -0.316242)
(-0.368527 0.59113 -0.0970074)
(-0.0360797 0.48606 0.347755)
(-0.221777 0.291426 -0.165191)
(-0.290777 0.440843 -0.136083)
(0.00215462 0.227165 -0.682065)
(0.355902 -0.156834 -1.33572)
(-1.2499 2.28165 -0.206508)
(-1.94882 1.70305 0.236604)
(-1.55497 2.27068 0.0595235)
(-1.66837 2.27658 -0.0580745)
(-1.2226 2.82004 0.254507)
(-1.11327 2.88641 0.334194)
(-2.62893 1.81181 -0.255361)
(-1.83678 2.75072 -0.0262729)
(-1.38306 2.97386 0.0788981)
(-0.909348 3.12587 0.424635)
(-2.71535 1.84618 0.0575545)
(-1.86371 2.65251 -0.0533567)
(-1.4467 3.22036 0.222987)
(-0.987691 3.39603 0.316963)
(-0.6937 3.48358 0.528981)
(-3.51399 1.40297 0.256614)
(-2.75056 2.2533 0.0830251)
(-1.93732 2.91782 0.586307)
(-1.25838 3.45042 0.910914)
(-0.675791 3.67817 1.16939)
(-0.521151 3.68864 1.35577)
(-3.15298 2.31861 -0.300884)
(-2.07553 3.58224 0.0795155)
(-0.319048 3.93712 1.04172)
(-0.792128 3.69709 1.17508)
(-0.661843 3.95494 1.63722)
(-0.613481 4.23354 1.83058)
(-0.495845 4.43957 2.0901)
(-4.75432 2.31416 -1.67179)
(-0.659481 6.22797 2.86895)
(1.64709 5.44659 1.97764)
(-0.19234 5.20733 1.9275)
(-1.07934 4.98122 1.94428)
(-0.548787 4.98756 2.11111)
(-1.33635 4.63504 2.57323)
(-0.45368 4.45451 2.75767)
(-5.61886 3.42972 0.166642)
(-0.483662 5.76242 3.06807)
(-1.24436 6.45704 2.30495)
(-1.2697 6.16808 1.86036)
(-0.354976 5.64468 2.04661)
(-0.613746 5.07318 2.28087)
(-0.880405 4.92565 2.80121)
(-0.346275 4.76766 1.95013)
(0.207878 4.75435 1.47928)
(-2.81152 4.40553 1.62361)
(-0.179572 4.08818 0.450611)
(-0.973219 5.0254 1.92625)
(-0.672747 4.94127 2.28613)
(-0.142147 4.29293 0.941251)
(-0.547055 3.43873 -0.758534)
(-0.710534 3.71899 0.129432)
(-0.971959 3.52571 -0.0193067)
(-0.900021 3.1003 0.00309076)
(-0.754296 2.93906 0.216396)
(0.429321 3.0297 -1.04808)
(1.76762 2.79748 -1.15195)
(-0.843782 0.988686 -0.683462)
(-1.37716 1.78705 0.651287)
(-1.1452 1.6695 1.59546)
(-0.118077 1.24102 0.952157)
(0.0767402 0.87105 0.628215)
(-0.214726 1.00691 0.654361)
(-0.290287 1.52351 0.597129)
(-0.0285185 1.50721 0.424824)
(-0.359307 1.17914 0.370166)
(1.53282 -0.295804 -0.638656)
(2.53186 -0.611224 -1.17278)
(1.45894 -0.397098 -2.0463)
(1.24183 0.454384 0.910251)
(0.75962 0.499973 -0.319092)
(-0.370224 0.578521 -0.167555)
(-0.0428493 0.47904 0.374623)
(-0.233032 0.292303 -0.142403)
(-0.314268 0.440924 -0.137473)
(0.0206842 0.246872 -0.718267)
(0.413021 -0.13639 -1.3263)
(0.271526 -0.502399 -0.845245)
(-1.16659 2.07175 -0.144364)
(-1.61206 1.99019 -0.0856332)
(-0.673591 2.64808 0.00639685)
(-1.15711 2.31476 -0.235915)
(-2.00742 1.58887 0.211844)
(-1.72447 2.16903 -0.0217478)
(-1.09815 2.72619 0.211865)
(-1.94386 2.01602 -0.0419393)
(-1.4246 2.73221 0.328512)
(-1.30684 2.82667 0.334104)
(-1.00807 3.02187 0.325802)
(-2.82725 1.49823 -0.148295)
(-1.96675 2.68199 0.0110758)
(-1.51103 2.89872 -0.0111901)
(-1.12438 3.06467 0.427135)
(-0.645426 3.14764 0.630451)
(-2.73937 1.76542 0.0641657)
(-2.16067 2.32371 0.0359501)
(-1.45213 3.15518 0.220392)
(-0.970706 3.44371 0.292437)
(-0.743798 3.47283 0.529187)
(-0.717755 3.60221 0.670846)
(-3.45134 1.24387 0.136309)
(-2.98337 2.2054 0.117715)
(-2.14038 2.99463 0.653352)
(-1.33498 3.30246 0.990416)
(-0.876863 3.66284 1.12207)
(-0.753665 3.75071 1.28777)
(-0.645199 3.93347 1.36376)
(-3.33141 2.32655 -0.348645)
(-2.16721 3.94268 -0.179201)
(-0.980118 3.75669 1.02424)
(-0.0528215 3.95001 1.46336)
(-0.476081 4.03639 1.77096)
(-0.541569 4.25194 1.92519)
(-0.780076 4.43326 2.03468)
(-0.51997 4.63738 2.18446)
(-5.07532 1.90991 -1.01351)
(-0.101917 6.41319 2.78155)
(-0.300443 6.16754 1.768)
(0.480046 4.97822 2.41498)
(-0.601765 4.77881 2.15357)
(-0.941782 4.94055 2.29913)
(-0.637315 4.62833 2.57309)
(-0.727681 4.34106 2.8463)
(0.0538789 4.64445 2.8542)
(-5.45731 3.51867 0.564404)
(-0.0466819 5.73087 2.20484)
(-1.27398 6.3156 1.60412)
(-1.07729 6.15502 1.99243)
(-0.373926 5.7056 2.22183)
(-0.789695 5.07565 2.09437)
(-0.96657 4.97457 2.38881)
(-0.388188 4.98093 1.76304)
(-0.0967982 4.73771 1.45632)
(0.323921 4.53267 1.21073)
(-2.1326 5.05378 1.12454)
(-0.100266 4.07886 0.289401)
(-1.3237 4.57709 2.23081)
(-0.6994 4.88232 1.97205)
(-0.0747892 4.41092 0.871504)
(-0.837111 3.33287 -0.999865)
(-0.574269 3.74939 0.430266)
(-0.606466 3.56452 0.0422034)
(-0.785403 3.11513 -0.0617366)
(-0.849379 2.90495 0.166841)
(-0.166887 2.93263 0.412082)
(0.479463 2.9445 -1.10817)
(0.928798 2.21238 -0.831601)
(-1.18215 0.606041 -0.773445)
(-1.58032 1.51718 0.52493)
(-1.12861 1.59441 1.53508)
(-0.126768 1.25537 0.91942)
(0.0319779 0.886004 0.605486)
(-0.317535 0.989033 0.635287)
(-0.396841 1.51092 0.605232)
(-0.169537 1.52915 0.487469)
(-0.478196 1.19665 0.405649)
(-0.199462 0.956254 0.434181)
(1.50073 -0.26999 -0.625315)
(2.55266 -0.670288 -1.15601)
(1.47072 -0.404756 -1.98279)
(1.08438 0.372981 0.972516)
(0.758955 0.545488 -0.325462)
(-0.347503 0.565313 -0.211757)
(-0.0459688 0.473332 0.420457)
(-0.244054 0.291484 -0.125047)
(-0.333855 0.442038 -0.142281)
(0.0416632 0.26874 -0.755136)
(0.489529 -0.107384 -1.29465)
(0.298109 -0.495989 -0.817646)
(-0.329439 -0.275006 -1.02659)
(-0.995168 1.77473 0.0495326)
(-1.31073 2.01243 -0.18209)
(-0.944469 2.51632 0.0666143)
(-0.928123 2.15455 -0.111415)
(-1.76806 1.82545 -0.0409112)
(-1.14974 2.39563 0.0202595)
(-0.756717 2.72959 -0.143836)
(-0.293536 2.76513 0.0160645)
(-2.07767 1.49538 0.210051)
(-2.03572 1.98936 -0.0173525)
(-1.17039 2.62751 0.404729)
(-0.885459 2.81046 0.0293177)
(-2.21386 1.72042 -0.0726663)
(-1.28884 2.85367 0.291734)
(-1.45109 2.73301 0.329413)
(-1.23695 2.99317 0.393601)
(-0.763895 2.98657 0.50895)
(-2.74879 1.53561 -0.117277)
(-2.3708 2.27269 0.0586503)
(-1.61017 2.78752 -0.0170395)
(-1.14302 3.02694 0.334923)
(-0.84105 3.0391 0.660296)
(-0.597146 3.13804 0.803122)
(-2.80223 1.60599 0.0679408)
(-2.27624 2.24269 -0.0166186)
(-1.43705 3.00994 0.254218)
(-1.1613 3.31588 0.258154)
(-0.814451 3.42493 0.519394)
(-0.984593 3.51164 0.655576)
(-0.554884 3.67866 0.909129)
(-3.47482 1.12075 0.0860306)
(-2.92152 2.24305 0.0477561)
(-2.01206 3.1318 0.799695)
(-1.33454 3.35658 1.09967)
(-1.02158 3.58045 1.12016)
(-1.01567 3.75921 1.15931)
(-0.824407 3.92648 1.36929)
(-0.731867 4.10082 1.42619)
(-3.57154 2.1424 -0.427001)
(-2.0625 4.48394 0.209225)
(0.180968 4.40705 1.30278)
(-0.996503 3.82748 1.38534)
(-0.54857 4.05302 2.0023)
(-0.945596 4.18587 1.8645)
(-1.11374 4.25171 2.0634)
(-1.1352 4.65754 2.05636)
(-0.754463 4.76418 2.15548)
(-5.1813 1.60217 -0.956876)
(-1.32188 5.74366 2.46531)
(-0.356059 6.05893 1.59947)
(0.0904558 5.23252 2.36386)
(-0.135019 4.98558 2.25532)
(-0.981398 4.8237 2.60752)
(-0.375816 4.67975 2.58727)
(-0.753594 4.48949 2.83931)
(-0.358793 4.77115 3.01575)
(0.257093 4.75429 2.8668)
(-5.26394 3.64344 0.908633)
(-0.86814 5.33806 1.94813)
(-1.03347 6.1453 1.21289)
(-1.06019 6.01393 2.20097)
(-0.508319 5.59766 2.35084)
(-0.887515 5.09442 2.01464)
(-0.735959 4.90163 1.66761)
(-0.313235 5.10005 1.44314)
(-0.528653 4.65777 1.51056)
(-0.53841 4.36125 1.24634)
(-0.261563 4.26103 1.12292)
(-2.16685 5.4717 0.940678)
(-0.0789971 4.24867 0.188247)
(-1.29812 4.29377 2.01958)
(-0.673629 4.85227 1.69075)
(-0.431181 4.49149 0.0803437)
(-1.0539 3.2856 -1.10008)
(-1.47168 3.35849 0.0452214)
(-1.25385 3.27 -0.0586349)
(-0.735609 3.10248 0.0219262)
(-0.741109 2.92986 0.0998445)
(-0.729847 2.80321 0.416105)
(-0.501829 2.60431 0.445912)
(0.293434 2.8321 -1.41553)
(0.148605 1.59151 -0.42935)
(-1.32431 0.326461 -0.780548)
(-1.7198 1.21574 0.435988)
(-1.08904 1.54211 1.4466)
(-0.193472 1.26772 0.836741)
(-0.0174168 0.930243 0.591599)
(-0.347609 0.984143 0.624694)
(-0.432158 1.50042 0.600112)
(-0.294782 1.53409 0.514045)
(-0.559998 1.22479 0.421229)
(-0.249593 0.989358 0.394237)
(-0.710481 0.762807 0.305355)
(1.56562 -0.273756 -0.587992)
(2.40879 -0.748975 -1.2124)
(1.47935 -0.409228 -1.91063)
(0.94438 0.289958 1.02743)
(0.752032 0.586937 -0.32732)
(-0.321872 0.547195 -0.242731)
(-0.106397 0.437025 0.482504)
(-0.267326 0.285714 -0.0895131)
(-0.346855 0.444487 -0.148434)
(0.0647727 0.293239 -0.791677)
(0.558549 -0.0737265 -1.23333)
(0.324183 -0.488336 -0.80296)
(-0.316328 -0.284012 -1.06186)
(-0.371037 0.641081 -0.675036)
(-1.17794 1.42411 0.0131982)
(-1.36309 1.57136 0.0336985)
(-0.598574 2.14113 0.0818632)
(-1.02934 1.69389 0.0703461)
(-1.59164 1.86375 -0.121374)
(-1.18146 2.37136 0.0514995)
(-0.895944 2.47585 -0.037891)
(-0.929315 2.49089 0.105278)
(-1.75135 1.82672 0.0115724)
(-1.36747 2.28297 0.00607628)
(-0.97549 2.63578 -0.200915)
(-0.963898 2.63024 0.0371815)
(-0.653788 2.72441 -0.470824)
(-2.22951 1.27232 0.204017)
(-2.02045 2.0271 0.11808)
(-1.38653 2.46807 0.392099)
(-0.808804 2.82999 -0.0331186)
(-0.848471 2.81121 0.294833)
(-2.03266 1.87047 -0.10062)
(-1.56253 2.64472 0.232544)
(-1.65032 2.61798 0.214483)
(-1.5048 2.81929 0.431396)
(-0.827847 2.97475 0.491374)
(-0.726232 2.9843 0.608165)
(-2.86131 1.13199 0.106505)
(-2.55295 2.08985 0.0324068)
(-1.65745 2.7749 -0.0144445)
(-1.17983 3.01784 0.282299)
(-0.866529 3.02265 0.572487)
(-0.868269 3.0347 0.745688)
(-0.419452 3.12646 0.913472)
(-2.90451 1.53935 0.110321)
(-2.44824 2.11571 -0.0378817)
(-1.44258 3.02054 0.262212)
(-1.14065 3.28389 0.211758)
(-0.903109 3.35131 0.499749)
(-1.03626 3.46764 0.643274)
(-0.858647 3.52565 0.91078)
(-0.712971 3.71633 0.924167)
(-3.6453 0.942925 0.0217916)
(-2.97916 2.2832 -0.0687427)
(-2.37807 2.7184 0.585537)
(-1.69187 3.38447 1.04672)
(-1.14755 3.64398 1.16363)
(-1.10316 3.8087 1.10294)
(-0.962449 3.88046 1.30604)
(-0.629837 4.11182 1.43909)
(-0.498362 4.17743 1.44331)
(-3.73375 2.08453 -0.445068)
(-2.92016 4.33861 -0.079199)
(-1.31711 4.61729 1.15402)
(-1.42838 3.79647 1.35808)
(-1.11152 3.90005 1.84986)
(-1.17016 4.27667 1.88805)
(-1.26904 4.24313 2.03059)
(-1.39685 4.52361 2.0014)
(-0.939158 4.81144 2.17795)
(-0.62905 4.73151 2.3546)
(-5.3799 1.11581 -0.781961)
(-1.17505 5.91366 2.38361)
(-0.0690771 5.78197 1.99745)
(0.152164 5.42178 2.28747)
(-0.197432 5.27988 2.61264)
(-1.39889 4.70498 2.57818)
(-0.735207 4.67496 2.74495)
(-0.767483 4.61617 2.87)
(-0.914759 4.73966 3.04334)
(-0.292111 4.85233 2.9769)
(-0.448525 4.75491 2.74814)
(-5.27794 3.7617 0.987587)
(-2.47982 4.22797 2.12209)
(-1.33567 5.68721 1.70962)
(-0.646169 5.88569 2.27392)
(-0.628555 5.53598 2.40678)
(-1.08299 5.19336 1.72657)
(-0.642933 5.03088 1.46263)
(-0.300898 5.16897 1.16246)
(-0.78925 4.68773 1.41015)
(-0.805207 4.31789 1.30479)
(-0.545424 4.23071 1.15329)
(-0.28916 4.05381 1.38921)
(-2.49798 5.46985 0.859326)
(-0.809179 4.0414 0.574997)
(-0.986257 4.20699 1.21967)
(-0.676439 4.91468 1.65344)
(-0.726324 4.37887 -0.583181)
(-1.45832 3.17923 -1.13896)
(-2.04993 2.98787 -0.416009)
(-1.6473 3.13408 -0.137803)
(-1.0075 2.98136 0.0487122)
(-1.01301 2.82481 0.236184)
(-1.04646 2.73675 0.408748)
(-0.741321 2.5663 0.381859)
(-0.336075 2.71657 0.682837)
(0.144774 2.6933 -1.52064)
(-0.624517 0.791251 -0.0856437)
(-1.39997 0.0766343 -0.612559)
(-1.72791 0.969109 0.448355)
(-1.01743 1.50674 1.36754)
(-0.247495 1.28713 0.744062)
(-0.0435975 0.980411 0.586634)
(-0.388635 0.989524 0.62974)
(-0.475546 1.49166 0.595038)
(-0.37227 1.54547 0.525824)
(-0.613728 1.26216 0.438415)
(-0.303535 1.02254 0.396825)
(-0.798718 0.75234 0.34524)
(-0.742284 0.3743 0.489763)
(1.59176 -0.330728 -0.599519)
(2.44602 -0.721566 -1.11508)
(1.48322 -0.418099 -1.83151)
(0.831258 0.210499 1.08069)
(0.740458 0.622087 -0.317601)
(-0.347178 0.521612 -0.242758)
(-0.15523 0.401308 0.510669)
(-0.291089 0.277618 -0.0534577)
(-0.356656 0.448258 -0.153519)
(0.0906539 0.318508 -0.82633)
(0.613174 -0.0389659 -1.13763)
(0.352814 -0.478273 -0.793365)
(-0.287173 -0.260803 -1.08601)
(-0.470913 0.633847 -0.610171)
(-0.563091 0.927472 -0.666555)
(-1.01284 1.38749 -0.0217259)
(-1.35777 1.3209 0.0214887)
(-1.05951 1.70627 0.0786954)
(-1.11742 1.45149 0.0139923)
(-1.40203 1.62917 -0.0537938)
(-0.673451 2.21908 0.163822)
(-0.750741 2.21619 0.0654258)
(-0.654075 2.08766 0.0680414)
(-1.68787 1.80082 -0.113567)
(-1.55038 2.13723 0.0160278)
(-0.843544 2.43033 -0.126129)
(-1.04162 2.4055 0.0797251)
(-0.972664 2.46047 0.0970773)
(-2.07621 1.41709 0.150096)
(-1.47535 2.22483 -0.00867686)
(-1.10876 2.53861 -0.138994)
(-1.01596 2.59657 0.0800438)
(-1.03929 2.6139 0.163056)
(-0.931791 2.7497 -0.0403821)
(-2.29938 1.1074 0.236154)
(-2.09788 1.93968 0.0657005)
(-1.60132 2.32165 0.379782)
(-1.01301 2.73273 0.116928)
(-0.93692 2.7996 0.305207)
(-0.775448 2.81498 0.46821)
(-2.2702 1.44236 -0.0100801)
(-1.93393 2.38375 0.178796)
(-1.64278 2.63356 0.224861)
(-1.62934 2.73283 0.488559)
(-1.23366 2.87787 0.476537)
(-0.879575 2.95857 0.592802)
(-0.600546 2.97336 0.795269)
(-2.92043 0.993843 0.215954)
(-2.79427 1.80932 -0.0783703)
(-1.80515 2.73843 0.0558735)
(-1.44673 2.91354 0.334919)
(-1.35717 2.87813 0.710078)
(-0.95533 2.97488 0.843706)
(-0.789391 3.06 0.886489)
(-0.599163 3.10589 0.990914)
(-3.12546 1.31729 -0.0282117)
(-2.71215 1.92741 -0.0060101)
(-1.76026 2.79982 0.367014)
(-1.3912 3.21431 0.281958)
(-0.875005 3.4182 0.45536)
(-1.15461 3.38592 0.675437)
(-1.02314 3.47189 0.886749)
(-0.710223 3.65499 0.953531)
(-0.772482 3.69656 1.16493)
(-3.84275 0.568503 -0.0169155)
(-3.12801 2.38069 0.116263)
(-1.15746 3.7084 1.07194)
(-1.75161 3.33183 1.00036)
(-1.35857 3.67683 1.16488)
(-1.28002 3.8051 1.13692)
(-1.16565 3.78224 1.3167)
(-0.731236 3.96608 1.453)
(-0.544639 4.11286 1.5396)
(-0.329039 4.12301 1.71342)
(-4.14249 1.89926 -0.532742)
(-3.75149 3.91345 -0.378061)
(-1.54429 4.4727 1.12386)
(-1.60107 4.08722 1.22588)
(-1.11556 4.28774 2.01539)
(-1.52872 4.18393 1.83019)
(-1.6609 4.45566 1.90097)
(-1.45239 4.48344 2.02449)
(-1.16261 4.70426 2.16146)
(-1.00035 4.75655 2.36734)
(-0.381464 4.52426 2.51146)
(-5.58858 0.665199 -0.45912)
(-2.87735 5.33118 2.4059)
(-1.68142 5.41036 1.56986)
(-0.121873 5.36934 2.17144)
(-1.4222 4.92193 2.28522)
(-0.125879 5.09169 2.8918)
(-1.75855 4.42802 2.75078)
(-1.14228 4.59778 2.9358)
(-0.990374 4.77992 3.03179)
(-1.05905 4.77891 2.93885)
(-0.887348 4.69338 2.78534)
(-0.750971 4.52881 3.03513)
(-5.19017 4.07799 1.37104)
(-3.22023 3.71072 2.31934)
(-1.99786 5.14432 1.93521)
(-0.610549 5.77308 2.38595)
(-1.23125 5.48113 2.32718)
(-1.30725 5.0618 1.791)
(-0.859866 5.06219 1.37554)
(-0.600666 5.08683 1.22915)
(-0.878827 4.68823 1.29576)
(-1.03067 4.37224 1.13207)
(-0.704847 4.24747 1.24377)
(-0.176652 4.16021 1.32478)
(-0.0300171 3.97124 1.04953)
(-2.53412 5.42054 0.845164)
(-1.83266 3.39211 0.962471)
(-0.985528 4.12722 0.571963)
(-0.938764 4.65821 0.0612737)
(-0.929548 4.36901 -1.1862)
(-2.00992 2.83528 -1.17435)
(-2.05031 2.74553 -0.704383)
(-1.63485 3.06792 0.0249193)
(-1.0473 2.94024 -0.105078)
(-1.13286 2.77436 0.27599)
(-0.965119 2.74752 0.489134)
(-1.05519 2.47328 0.498823)
(-0.394855 2.69222 0.752436)
(-0.207403 2.6442 0.324528)
(-0.000405205 2.49721 -1.50199)
(-0.87106 0.43827 0.0164302)
(-1.45045 -0.148745 -0.402856)
(-1.66651 0.771811 0.465073)
(-0.950653 1.49079 1.2222)
(-0.260853 1.33658 0.705716)
(-0.0735372 1.03197 0.591544)
(-0.457525 0.976542 0.604306)
(-0.579646 1.46087 0.593293)
(-0.436561 1.55892 0.53234)
(-0.671353 1.29975 0.448326)
(-0.354579 1.07017 0.382804)
(-0.833833 0.717695 0.332045)
(-0.711982 0.424258 0.396978)
(0.801986 0.841709 -1.1145)
(1.52006 -0.364248 -0.608965)
(2.37386 -0.781403 -1.09726)
(1.47745 -0.436743 -1.76122)
(0.752071 0.144818 1.1272)
(0.717776 0.648695 -0.29333)
(-0.221719 0.561181 -0.268193)
(-0.172501 0.37419 0.518176)
(-0.316661 0.267105 -0.0203053)
(-0.367588 0.452642 -0.160522)
(0.119559 0.343002 -0.858423)
(0.643821 -0.00723824 -1.00852)
(0.381703 -0.465583 -0.783705)
(-0.257683 -0.254266 -1.13557)
(-0.498565 0.627556 -0.591814)
(-0.59125 0.88748 -0.680051)
(-0.835516 -0.286709 -0.545718)
(-1.14698 1.25182 -0.0261461)
(-1.14895 1.33487 -0.0799218)
(-0.852052 1.62955 0.0394429)
(-0.911421 1.43934 0.0172145)
(-1.50623 1.19319 0.0584963)
(-1.19316 1.71052 0.0695699)
(-0.719359 2.01121 0.222003)
(-0.944926 1.76447 0.0745248)
(-1.04653 1.55127 -0.0472603)
(-1.37391 1.67872 -0.0690786)
(-1.28265 2.00155 0.0610017)
(-0.881733 2.15981 0.0603849)
(-1.01033 2.1609 0.0789512)
(-0.671217 2.28036 0.0438458)
(-1.78734 1.66128 -0.355309)
(-1.61152 2.10932 -0.00631382)
(-1.03614 2.34846 -0.0540722)
(-1.17164 2.33188 0.061563)
(-0.957989 2.41404 0.223588)
(-0.871561 2.52239 0.159434)
(-2.06085 1.37704 0.017801)
(-1.61979 2.05733 0.00459093)
(-1.35368 2.32852 -0.0716827)
(-1.24033 2.52689 0.0290514)
(-1.08926 2.56449 0.273949)
(-0.882052 2.67569 0.347682)
(-0.854499 2.70012 0.120037)
(-2.32054 1.01672 0.147975)
(-2.26951 1.73169 0.0687406)
(-1.71221 2.23651 0.504294)
(-1.26736 2.63086 0.167105)
(-0.970206 2.76697 0.344672)
(-0.920358 2.75917 0.431524)
(-0.769165 2.84789 0.621148)
(-2.49655 1.1469 -0.0313811)
(-2.16834 2.14393 0.260387)
(-1.85903 2.44779 0.259326)
(-1.56748 2.75735 0.565306)
(-1.44772 2.82369 0.477517)
(-1.16786 2.90998 0.579815)
(-0.841055 2.98914 0.745708)
(-0.560818 2.92298 0.949378)
(-2.97271 0.8876 0.113563)
(-2.86067 1.69489 -0.107241)
(-1.97693 2.70889 0.170031)
(-1.49699 2.86859 0.322411)
(-1.4921 2.92489 0.591738)
(-1.08419 2.97655 0.901076)
(-0.936645 3.02735 0.892734)
(-0.683759 3.03738 0.957507)
(-0.844413 3.22972 0.947871)
(-3.18799 1.28401 -0.119662)
(-2.89016 1.93168 0.17554)
(-2.09046 2.64074 0.465017)
(-1.62562 3.08939 0.348537)
(-1.14607 3.42051 0.482879)
(-1.30611 3.28746 0.704002)
(-1.22978 3.37313 0.88855)
(-0.83183 3.60457 0.972887)
(-0.781796 3.68839 1.15973)
(-0.403581 3.65584 1.39047)
(-3.87696 0.409321 -0.00797613)
(-3.42153 2.23395 0.354205)
(-2.82417 2.80542 0.616753)
(-1.61275 3.38203 1.13961)
(-1.53347 3.5867 1.16203)
(-1.40526 3.8105 1.12735)
(-1.42491 3.72003 1.2717)
(-1.32527 3.78485 1.33132)
(-0.942121 3.97164 1.4555)
(-0.361255 4.02012 1.76017)
(-0.214351 3.97237 1.9427)
(-4.48148 1.88052 -0.463315)
(-4.5619 3.67388 -0.699257)
(-2.53055 4.18489 0.959541)
(-1.80252 4.31323 1.432)
(-2.14439 4.11561 1.63678)
(-2.25147 4.03027 1.67096)
(-1.89476 4.37305 1.82001)
(-1.79863 4.52425 1.97555)
(-1.36877 4.62461 2.18347)
(-0.998731 4.61993 2.33549)
(-0.477019 4.45218 2.51396)
(-0.0024704 4.22805 2.43793)
(-5.54248 0.509803 -0.211799)
(-3.77452 4.65399 2.5756)
(-1.26535 5.82678 1.58854)
(-0.754697 5.30973 1.98509)
(0.673927 5.49168 2.68636)
(-1.80663 5.00193 2.54527)
(-0.352851 5.14589 2.99142)
(-1.57388 4.68716 2.91605)
(-1.22864 4.85569 3.01718)
(-1.16753 4.80712 2.94499)
(-1.08743 4.57836 2.91037)
(-0.972492 4.33803 3.21295)
(-0.354183 4.37557 3.1863)
(-5.1287 4.17039 2.03058)
(-3.96618 3.46538 2.51526)
(-2.44301 4.76858 0.94761)
(-0.822819 5.70363 1.84798)
(-0.870159 5.51206 2.27272)
(-1.43169 5.0024 1.90247)
(-0.560498 4.93269 1.53667)
(-0.661414 4.94262 1.31102)
(-1.00123 4.53655 1.53576)
(-1.33521 4.19038 1.39235)
(-0.93199 4.15403 1.3816)
(-0.734629 4.08275 1.46108)
(-0.567025 3.87155 1.09459)
(-0.29269 3.59682 1.48432)
(-3.0403 5.09755 1.07628)
(-1.95653 3.43992 0.957728)
(-1.33134 3.9907 -0.144502)
(-1.15247 4.40129 -1.16299)
(-0.973324 4.39224 -1.15885)
(-2.0483 2.72461 -1.20266)
(-2.19673 2.46908 -0.827044)
(-1.80866 2.74401 0.0569054)
(-1.5538 2.61265 -0.0517086)
(-1.24191 2.73343 0.280118)
(-1.323 2.55143 0.396814)
(-1.26055 2.41952 0.621357)
(-0.344126 2.71412 0.731238)
(-0.248355 2.63759 0.287012)
(-0.0589478 2.5436 0.71537)
(-0.170834 2.24237 -1.37339)
(-0.945586 0.160883 0.0391868)
(-1.55578 -0.413395 -0.167715)
(-1.57713 0.621001 0.459501)
(-0.962075 1.35456 1.11519)
(-0.313595 1.36901 0.667208)
(-0.106003 1.08478 0.61836)
(-0.479912 0.980054 0.596358)
(-0.66968 1.45341 0.562704)
(-0.515038 1.57124 0.517783)
(-0.72488 1.33727 0.457778)
(-0.429542 1.10563 0.38729)
(-0.866997 0.695774 0.30996)
(-0.67712 0.476642 0.294824)
(0.877416 0.924858 -1.20396)
(-0.0134215 1.10948 -1.74543)
(1.53021 -0.447544 -0.553799)
(2.31366 -0.752022 -1.10619)
(1.45168 -0.442912 -1.70953)
(0.703939 0.0945124 1.16318)
(0.682931 0.663387 -0.252291)
(-0.178237 0.577028 -0.280137)
(-0.188744 0.344349 0.532034)
(-0.335817 0.258574 0.00994412)
(-0.381385 0.459614 -0.164502)
(0.148062 0.36969 -0.890967)
(0.647017 0.0132393 -0.855357)
(0.415862 -0.447409 -0.770637)
(-0.22527 -0.239208 -1.19124)
(-0.535192 0.610849 -0.590219)
(-0.622133 0.848305 -0.693941)
(-0.843396 -0.305604 -0.534164)
(-0.796009 0.235689 -0.56518)
(-1.01041 1.28844 0.0699847)
(-1.21261 1.1951 -0.0328735)
(-1.15933 1.46817 0.102136)
(-1.06807 1.30435 0.0304367)
(-1.22899 1.26675 -0.080006)
(-1.02587 1.56177 0.104733)
(-0.973917 1.70312 0.198339)
(-0.863944 1.64354 0.0765366)
(-0.815833 1.49988 0.0296194)
(-1.53546 1.15209 0.0767124)
(-1.2924 1.70081 -0.045053)
(-0.781996 2.02855 0.284492)
(-0.915936 2.00461 0.279413)
(-0.823057 1.99123 0.226181)
(-0.946558 1.7757 0.0385152)
(-1.44956 1.62029 0.0356652)
(-1.48923 1.84415 0.0252536)
(-1.02056 2.14416 0.0874194)
(-1.18369 2.04385 0.178948)
(-1.16495 2.13667 0.239997)
(-0.925389 2.18083 0.0753496)
(-1.98926 1.43088 -0.21548)
(-1.59364 2.11419 0.01887)
(-1.26478 2.24457 -0.0391236)
(-1.26084 2.28786 0.0951569)
(-1.08832 2.34799 0.235148)
(-0.877648 2.45495 0.396708)
(-0.768003 2.5011 0.215219)
(-2.11309 1.18479 -0.0126224)
(-1.69809 1.99052 -0.00719162)
(-1.50632 2.21826 -0.0577525)
(-1.26848 2.50315 -0.0338598)
(-1.21915 2.51123 0.31308)
(-1.11742 2.599 0.351614)
(-0.84042 2.73266 0.536844)
(-0.668075 2.73882 0.351067)
(-2.36053 0.936464 0.056477)
(-2.28544 1.65578 0.141849)
(-1.68077 2.25265 0.502265)
(-1.41235 2.53322 0.216418)
(-1.14974 2.63394 0.386903)
(-1.09294 2.73171 0.348253)
(-1.04293 2.8162 0.57371)
(-0.695429 2.84816 0.718866)
(-2.57846 1.01958 -0.122783)
(-2.00758 2.23652 0.341037)