/*--------------------------------*- C++ -*----------------------------------*\
  =========                 |
  \\      /  F ield         | OpenFOAM: The Open Source CFD Toolbox
   \\    /   O peration     | Website:  https://openfoam.org
    \\  /    A nd           | Version:  7
     \\/     M anipulation  |
\*---------------------------------------------------------------------------*/
FoamFile
{
    version     2.0;
    format      ascii;
    class       volVectorField;
    location    "4";
    object      U_0;
}
// * * * * * * * * * * * * * * * * * * * * * * * * * * * * * * * * * * * * * //

dimensions      [0 1 -1 0 0 0 0];

internalField   nonuniform List<vector> 
18750
(
(3.83958 -0.131214 -1.05529)
(2.25821 2.01829 0.11564)
(3.30683 -0.0696149 -0.915704)
(3.57723 -0.553312 -2.23109)
(0.233228 3.79842 -0.0704064)
(2.07078 2.15296 0.161667)
(2.13527 2.27167 -0.211899)
(2.78179 -0.0869635 -0.810455)
(3.03769 -0.529591 -2.02721)
(1.96023 -0.210127 -2.50113)
(-0.885009 5.84198 0.861008)
(-0.255976 3.91711 0.179506)
(0.44689 4.82779 1.40679)
(1.7201 2.34751 0.281229)
(2.12028 2.36667 -0.110028)
(1.39908 1.84474 0.488647)
(2.28098 -0.106498 -0.70514)
(2.64384 -0.55792 -1.84174)
(1.60891 -0.240015 -2.44435)
(2.16655 0.623329 -0.610024)
(-3.87389 4.07835 -0.174244)
(-1.57463 5.57891 1.15655)
(1.30348 6.35926 3.25639)
(-0.877237 3.8999 0.508261)
(0.119049 3.83092 1.49868)
(-0.434503 5.13636 3.92914)
(1.43692 2.39938 0.232299)
(2.11323 2.46354 -0.0698671)
(0.98017 1.89448 0.581754)
(-0.499855 2.10359 1.02507)
(1.88579 -0.182033 -0.663102)
(2.44574 -0.508589 -1.64801)
(1.44363 -0.275835 -2.40418)
(2.20036 0.649399 -0.417527)
(0.564538 0.225891 -0.43715)
(-2.21136 3.18389 -0.0107978)
(-3.99071 4.04143 -0.0898269)
(-2.07512 5.32431 1.56963)
(-1.98202 5.46195 1.32827)
(0.850479 6.42891 3.43389)
(-1.03588 6.25853 2.33575)
(-1.11921 3.89716 0.876034)
(-0.055629 3.61367 1.53969)
(-0.550706 5.27117 3.50265)
(-0.73969 4.72072 2.62279)
(1.13858 2.48383 0.303281)
(2.10898 2.55489 -0.153922)
(0.67265 1.87546 0.579521)
(-0.550764 2.15451 0.971501)
(-0.865087 1.91 1.75636)
(1.63653 -0.209447 -0.662167)
(2.39687 -0.565558 -1.53449)
(1.42803 -0.298237 -2.41218)
(2.13854 0.670639 -0.168302)
(0.611436 0.250409 -0.403177)
(-0.389055 0.701866 0.0431953)
(-3.08524 2.2006 0.372334)
(-2.68962 2.62029 0.00438716)
(-1.20607 3.70794 0.437901)
(-4.16749 3.90182 -0.371856)
(-1.99589 5.4628 1.62546)
(-1.89576 5.26422 0.846484)
(-3.02455 4.95797 1.16651)
(0.0202724 6.49747 3.47968)
(-1.04433 6.3066 2.77539)
(-0.644946 5.89251 2.72045)
(-0.848155 4.11032 1.05327)
(-0.187324 3.81997 1.53401)
(-0.509537 5.26092 3.32231)
(-0.689791 4.80154 2.3623)
(0.00278442 3.78611 2.00013)
(0.989701 2.50686 0.0500093)
(2.27524 2.67215 -0.447646)
(0.374087 1.84878 0.474039)
(-0.714228 2.19753 1.0119)
(-0.921105 1.89651 1.75711)
(-0.0110562 1.22961 1.25764)
(1.59327 -0.235928 -0.682882)
(2.31631 -0.489293 -1.46462)
(1.36859 -0.334082 -2.38048)
(2.01124 0.667377 0.0758914)
(0.649566 0.27917 -0.369563)
(-0.376366 0.673892 0.0850064)
(0.114127 0.521489 0.285417)
(-2.32889 2.40378 0.0525917)
(-3.12807 2.23063 0.26033)
(-1.99934 2.65574 0.279931)
(-2.73793 2.73103 -0.134565)
(-1.78679 3.26022 0.579876)
(-0.632464 3.79526 0.634414)
(-4.38761 3.80329 -0.2555)
(-2.03983 5.42527 1.76568)
(-1.47543 5.2046 1.01584)
(-1.60601 5.32359 1.1628)
(-3.99143 4.64223 1.21071)
(-0.403352 6.54526 3.46567)
(-0.932375 6.52799 2.85564)
(-0.564882 5.82782 3.24085)
(-1.18763 5.25767 2.21235)
(-1.1308 4.16879 1.26757)
(-0.22062 3.69635 1.61462)
(-0.750987 5.35323 2.9368)
(-0.973653 4.88606 2.29237)
(-0.0241058 3.88221 1.72598)
(0.661905 3.15567 0.719993)
(0.921643 2.56282 0.266758)
(2.40167 2.86001 -0.64585)
(0.274444 1.79121 0.240237)
(-0.946614 2.17569 0.937929)
(-1.0267 1.86973 1.74645)
(-0.000706654 1.20262 1.27948)
(0.246941 0.798983 0.614796)
(1.59037 -0.210327 -0.673382)
(2.38664 -0.598194 -1.34955)
(1.34585 -0.376066 -2.30564)
(1.85388 0.648078 0.307784)
(0.679614 0.31527 -0.337482)
(-0.360949 0.662491 0.0179356)
(0.0917908 0.518351 0.297626)
(-0.182105 0.291224 -0.227017)
(-2.22267 2.29468 -0.431416)
(-2.4735 2.26385 0.0513617)
(-1.04274 3.20761 0.148684)
(-3.43829 1.77879 0.37819)
(-1.88591 2.84176 0.23721)
(-1.31729 3.2921 0.412925)
(-2.80305 2.64287 -0.131175)
(-2.62616 3.08682 0.195851)
(-0.538209 3.65342 0.89143)
(0.120636 4.27669 1.21315)
(-4.97197 3.31216 -1.19443)
(-0.899464 6.13992 1.60043)
(-1.66573 5.2242 1)
(-1.33064 5.06591 1.13053)
(-0.536603 5.50104 1.33956)
(-4.71808 4.45839 0.576521)
(-0.161739 6.53016 3.22001)
(-0.521104 6.62353 2.78497)
(-0.893521 6.28615 2.28167)
(-0.855159 5.44061 2.09901)
(-0.212207 5.01003 2.40746)
(-1.76356 4.08589 1.41967)
(-0.251923 3.72949 1.40373)
(-0.811494 5.32893 2.54092)
(-0.777077 4.90982 2.4003)
(0.128964 3.82409 2.08478)
(0.391335 3.29501 0.0916664)
(0.373016 3.57815 0.693432)
(0.884514 2.77678 0.407443)
(2.44657 2.96515 -0.727643)
(0.193528 1.7174 0.063837)
(-1.08264 2.12324 0.862709)
(-1.08779 1.82145 1.71802)
(-0.0986019 1.19093 1.25085)
(0.368129 0.810774 0.580205)
(-0.0947507 1.03266 0.659538)
(1.5855 -0.200317 -0.656371)
(2.39147 -0.572416 -1.35127)
(1.36644 -0.39764 -2.23413)
(1.69447 0.612999 0.515788)
(0.705898 0.355539 -0.312927)
(-0.34923 0.63909 -0.0438409)
(0.0415914 0.510491 0.323429)
(-0.195462 0.291578 -0.204807)
(-0.240398 0.442294 -0.13837)
(-1.2435 2.53932 -0.0293347)
(-2.33657 2.19918 -0.539289)
(-0.989733 3.24618 0.086237)
(-2.56545 2.14449 0.0119772)
(-1.628 2.84705 -0.04826)
(-1.00009 3.28447 0.217246)
(-3.44912 1.72152 0.26729)
(-2.2002 2.5908 0.232813)
(-1.02398 3.45012 0.363631)
(-0.473604 3.44876 0.835653)
(-2.74122 2.60643 -0.222649)
(-2.22164 3.38455 0.232306)
(-1.95726 3.28641 1.03168)
(0.188591 3.98368 1.34679)
(0.360331 4.2938 1.69027)
(-5.31324 2.77135 -1.87135)
(-0.784477 6.4073 2.29349)
(-0.594585 5.7092 1.20648)
(-1.52093 4.91093 1.29806)
(-1.44344 4.95484 1.5366)
(-0.418869 5.17047 1.77716)
(-5.56055 3.75983 -0.064134)
(-0.215797 6.36121 3.14599)
(-0.931832 6.63943 2.58733)
(-1.08754 6.28239 2.01822)
(-0.581821 5.55022 2.12833)
(-0.167863 5.05603 2.3303)
(-0.831093 4.68279 2.78001)
(-2.54423 4.02815 1.66366)
(-0.223082 3.71503 1.06757)
(-0.936795 5.21904 2.25772)
(-0.662253 4.9059 2.31977)
(0.0679203 4.21672 1.67073)
(0.262551 3.3031 -0.251451)
(-0.153794 3.74395 0.665628)
(-0.21137 3.53377 0.130532)
(0.872274 2.87674 -0.262552)
(2.50416 3.09893 -1.00277)
(-0.0875028 1.54826 -0.0980701)
(-1.18644 2.04112 0.800966)
(-1.11548 1.75687 1.692)
(-0.148574 1.19622 1.15707)
(0.222618 0.88223 0.652058)
(-0.154525 1.01932 0.642188)
(-0.146885 1.49577 0.602357)
(1.55066 -0.251665 -0.661198)
(2.46175 -0.566049 -1.30041)
(1.3832 -0.412707 -2.17277)
(1.53974 0.571423 0.692562)
(0.726859 0.399408 -0.299297)
(-0.342599 0.621783 0.0208279)
(-0.0100218 0.495957 0.340185)
(-0.21251 0.290906 -0.184541)
(-0.266978 0.442478 -0.137562)
(-0.0120784 0.214219 -0.643337)
(-1.93804 1.7188 0.432987)
(-1.50974 2.4323 -0.0514913)
(-1.21171 2.80986 0.143318)
(-2.51695 1.94559 -0.364798)
(-1.39049 3.09021 -0.0600681)
(-0.946829 3.15541 0.221064)
(-2.64864 1.99067 0.0253064)
(-1.76557 2.77959 -0.0807505)
(-1.1891 3.23029 0.22806)
(-0.71133 3.41857 0.363556)
(-3.51769 1.52302 0.236522)
(-2.52441 2.28285 0.132908)
(-1.69814 3.13283 0.481479)
(-0.92601 3.50323 0.896998)
(-0.286149 3.53738 1.16812)
(-2.93978 2.40418 -0.279954)
(-1.71225 3.65193 0.194924)
(0.297374 3.73122 0.829702)
(-0.776715 3.623 1.23013)
(0.167082 4.11128 1.81673)
(-0.320052 4.29568 1.93341)
(-4.14244 3.3637 -2.46616)
(-0.942446 6.05512 3.22415)
(-1.77829 5.59602 1.42823)
(-0.400014 5.13595 1.87348)
(0.192721 4.96567 1.90337)
(-0.707077 5.02601 1.8348)
(-0.298107 4.865 2.44719)
(-5.64233 3.542 -0.0373851)
(-0.316083 6.10791 3.43502)
(-1.41722 6.59898 2.37015)
(-1.44816 6.20154 1.75987)
(-0.437864 5.55986 2.14194)
(-0.523378 5.05586 2.27525)
(-0.97271 4.76295 2.81498)
(-0.335932 4.76719 2.03387)
(-2.45777 4.42781 1.54374)
(-0.23312 3.88076 0.796814)
(-0.731225 5.18573 2.00857)
(-0.613921 4.93375 2.32403)
(0.0172161 4.31008 1.52104)
(-0.3883 3.3355 -0.56713)
(-0.909615 3.7389 -0.0304086)
(-0.326175 3.57235 0.0656625)
(-0.0709659 3.24756 0.189895)
(0.984745 3.04374 -0.2469)
(2.46633 3.03329 -1.26153)
(-0.686247 1.11639 -0.502074)
(-1.25701 1.92546 0.743409)
(-1.15275 1.70632 1.64803)
(-0.12936 1.19946 1.04579)
(0.156883 0.882084 0.667735)
(-0.178438 1.0181 0.638334)
(-0.190072 1.51879 0.58552)
(-0.00981843 1.46658 0.395483)
(1.48875 -0.249229 -0.662775)
(2.5178 -0.656472 -1.28765)
(1.41313 -0.429047 -2.11237)
(1.38293 0.519449 0.829768)
(0.742301 0.446179 -0.296094)
(-0.372401 0.585277 -0.103117)
(-0.0375493 0.486255 0.350313)
(-0.224008 0.291646 -0.162097)
(-0.293378 0.442429 -0.137862)
(0.000560073 0.230493 -0.676885)
(0.350485 -0.151817 -1.3343)
(-1.25921 2.27247 -0.19709)
(-1.94259 1.70743 0.231709)
(-1.55322 2.27164 0.0595565)
(-1.67489 2.27122 -0.0622446)
(-1.22139 2.82131 0.260346)
(-1.11868 2.88477 0.332415)
(-2.62886 1.80898 -0.251422)
(-1.84169 2.73936 -0.028527)
(-1.38076 2.97178 0.0735583)
(-0.916348 3.12336 0.423688)
(-2.71072 1.84062 0.060836)
(-1.86432 2.64001 -0.0509794)
(-1.44149 3.22118 0.226294)
(-0.982369 3.39762 0.316292)
(-0.689992 3.4846 0.529525)
(-3.49213 1.41794 0.245641)
(-2.75052 2.26833 0.0827262)
(-1.92787 2.92472 0.596402)
(-1.24461 3.45148 0.918958)
(-0.687683 3.68645 1.16802)
(-0.525366 3.69604 1.35841)
(-3.14868 2.34746 -0.321089)
(-2.05498 3.6236 0.0609455)
(-0.314033 3.98158 1.0607)
(-0.730318 3.71393 1.19585)
(-0.675158 3.954 1.63703)
(-0.603658 4.2331 1.82844)
(-0.504625 4.43841 2.08509)
(-4.82998 2.23488 -1.52928)
(-0.468968 6.26624 2.78634)
(1.72177 5.43939 1.95846)
(-0.0281073 5.18476 2.00624)
(-1.15023 4.97856 1.96694)
(-0.495736 4.97594 2.17106)
(-1.41077 4.60018 2.60696)
(-0.38056 4.45122 2.76138)
(-5.55353 3.4902 0.237547)
(-0.293403 5.78289 2.93533)
(-1.15722 6.47015 2.18594)
(-1.12407 6.16816 1.9027)
(-0.26908 5.65963 2.054)
(-0.585851 5.07669 2.27265)
(-0.815744 4.93819 2.77815)
(-0.274609 4.79982 1.88778)
(0.205528 4.76241 1.45616)
(-2.65915 4.54691 1.52547)
(-0.119844 4.14229 0.392983)
(-0.975832 4.97984 1.99476)
(-0.60089 4.9363 2.28756)
(-0.112524 4.30611 0.822723)
(-0.587813 3.43352 -0.845893)
(-0.637815 3.7287 0.1603)
(-0.990701 3.5112 -0.0202887)
(-0.915017 3.09168 -0.0170834)
(-0.733897 2.93612 0.209203)
(0.454674 3.02386 -1.08371)
(1.69686 2.72469 -1.13234)
(-0.881504 0.956849 -0.68172)
(-1.39636 1.74884 0.663266)
(-1.12197 1.66189 1.60392)
(-0.100509 1.24248 0.935814)
(0.0730407 0.87284 0.625751)
(-0.221143 1.00728 0.65692)
(-0.302204 1.52754 0.599704)
(-0.0304789 1.51593 0.433262)
(-0.364392 1.18598 0.376541)
(1.50994 -0.3098 -0.655595)
(2.47956 -0.680646 -1.19228)
(1.43625 -0.426919 -2.05554)
(1.22518 0.449991 0.917238)
(0.749394 0.49417 -0.299034)
(-0.371835 0.572412 -0.175863)
(-0.0457394 0.478236 0.382425)
(-0.234743 0.292308 -0.141319)
(-0.316634 0.442661 -0.139226)
(0.0190792 0.250376 -0.713504)
(0.408561 -0.130841 -1.326)
(0.271408 -0.498527 -0.844877)
(-1.16777 2.07309 -0.147098)
(-1.62134 1.97882 -0.0787201)
(-0.685213 2.64001 0.0067862)
(-1.16513 2.30648 -0.227642)
(-2.00446 1.58959 0.210467)
(-1.73067 2.16652 -0.0227897)
(-1.09569 2.72448 0.22203)
(-1.94854 2.0123 -0.0463207)
(-1.41282 2.73966 0.32775)
(-1.30589 2.82571 0.33108)
(-1.01781 3.02108 0.330266)
(-2.82788 1.49189 -0.143016)
(-1.97026 2.67276 0.0114283)
(-1.50473 2.89751 -0.0141816)
(-1.12221 3.06248 0.425732)
(-0.637976 3.14638 0.631358)
(-2.735 1.76219 0.0668752)
(-2.15633 2.31955 0.0373751)
(-1.43672 3.15085 0.224224)
(-0.959576 3.44229 0.293404)
(-0.732098 3.47339 0.529559)
(-0.720833 3.59864 0.671959)
(-3.4361 1.24806 0.127899)
(-2.97875 2.22609 0.120647)
(-2.10936 3.02708 0.674989)
(-1.31567 3.30664 1.00437)
(-0.86225 3.6676 1.12338)
(-0.756579 3.75848 1.27881)
(-0.660517 3.93815 1.36261)
(-3.33669 2.33989 -0.36848)
(-2.11244 4.01544 -0.17511)
(-1.00783 3.79409 1.03153)
(0.0183437 3.98332 1.49268)
(-0.427707 4.04998 1.80568)
(-0.509335 4.25809 1.93814)
(-0.775528 4.43488 2.03472)
(-0.522783 4.64276 2.18381)
(-5.06264 1.91714 -0.984273)
(-0.0303112 6.42069 2.73766)
(-0.413192 6.18051 1.73935)
(0.494507 4.97757 2.40591)
(-0.471146 4.78349 2.19236)
(-0.925364 4.93375 2.34981)
(-0.497988 4.63475 2.57606)
(-0.716326 4.34297 2.8631)
(0.102435 4.67467 2.87358)
(-5.37972 3.602 0.637488)
(0.0286351 5.74369 2.12184)
(-1.19844 6.32764 1.46191)
(-1.00913 6.14795 2.01522)
(-0.316447 5.70529 2.25561)
(-0.750711 5.07981 2.07774)
(-0.899355 4.99683 2.25689)
(-0.33434 4.99534 1.72322)
(-0.19081 4.72008 1.45011)
(0.278645 4.50824 1.21697)
(-1.92489 5.22796 0.988832)
(-0.0169937 4.12153 0.226457)
(-1.28791 4.53044 2.28236)
(-0.633247 4.87941 1.88909)
(-0.0328258 4.43334 0.804532)
(-0.825017 3.33828 -1.01994)
(-0.586359 3.73851 0.472724)
(-0.573808 3.54831 0.0520169)
(-0.736825 3.11688 -0.0558931)
(-0.812949 2.90677 0.15231)
(-0.164703 2.92962 0.408928)
(0.490628 2.9348 -1.16946)
(0.859413 2.10971 -0.79407)
(-1.20542 0.559063 -0.758922)
(-1.59905 1.47131 0.535584)
(-1.10969 1.58567 1.5373)
(-0.116016 1.2541 0.910732)
(0.0315004 0.890151 0.607044)
(-0.3208 0.989199 0.637538)
(-0.395583 1.51455 0.605626)
(-0.179746 1.5344 0.49469)
(-0.482575 1.20372 0.41123)
(-0.196992 0.963643 0.433423)
(1.47749 -0.294376 -0.645475)
(2.52583 -0.703108 -1.12482)
(1.45067 -0.433725 -1.99388)
(1.07191 0.371362 0.97608)
(0.748753 0.53915 -0.305495)
(-0.34456 0.562335 -0.214167)
(-0.0503917 0.472153 0.430165)
(-0.248674 0.290618 -0.120263)
(-0.335687 0.443788 -0.144008)
(0.0402482 0.272431 -0.751251)
(0.483031 -0.102336 -1.29691)
(0.297858 -0.49245 -0.814839)
(-0.327798 -0.281983 -1.03122)
(-0.995354 1.77749 0.0482741)
(-1.31324 2.01284 -0.18352)
(-0.941474 2.51649 0.0643086)
(-0.928825 2.15681 -0.111997)
(-1.7673 1.82145 -0.0372781)
(-1.15528 2.39111 0.0197712)
(-0.755237 2.72866 -0.143005)
(-0.30674 2.75797 0.018805)
(-2.07615 1.49448 0.209694)
(-2.03627 1.99028 -0.011043)
(-1.17046 2.62446 0.409728)
(-0.883411 2.8108 0.0281599)
(-2.214 1.72058 -0.0765915)
(-1.27879 2.85997 0.289268)
(-1.45542 2.72967 0.322382)
(-1.23592 2.99207 0.396974)
(-0.758346 2.98583 0.509328)
(-2.74494 1.53388 -0.111815)
(-2.3793 2.25921 0.0585191)
(-1.59929 2.78947 -0.016227)
(-1.13023 3.02801 0.331964)
(-0.83781 3.03614 0.658084)
(-0.595168 3.13609 0.801576)
(-2.7979 1.60702 0.0695571)
(-2.27382 2.24161 -0.0199998)
(-1.42285 3.01267 0.257847)
(-1.15412 3.31393 0.258243)
(-0.805997 3.42304 0.520876)
(-0.981664 3.50943 0.656303)
(-0.54686 3.67323 0.911657)
(-3.46648 1.1331 0.0834008)
(-2.90712 2.27302 0.0435323)
(-2.00571 3.1451 0.800582)
(-1.33108 3.37884 1.1067)
(-1.01493 3.58991 1.12423)
(-1.0087 3.77046 1.15348)
(-0.805456 3.93104 1.3685)
(-0.71521 4.10509 1.42672)
(-3.57413 2.15632 -0.435742)
(-2.0848 4.5359 0.195569)
(0.192743 4.45551 1.30986)
(-1.09645 3.83767 1.37841)
(-0.540314 4.06352 2.0165)
(-0.97389 4.18866 1.8611)
(-1.11427 4.24758 2.06365)
(-1.15013 4.66214 2.0478)
(-0.764738 4.77442 2.15734)
(-5.16951 1.59857 -0.931859)
(-1.39944 5.69824 2.43972)
(-0.287514 6.03955 1.64334)
(0.126417 5.24551 2.36369)
(-0.0463001 5.02933 2.29177)
(-0.933706 4.83303 2.63336)
(-0.30573 4.6943 2.60337)
(-0.716644 4.5152 2.84666)
(-0.41053 4.78635 3.02898)
(0.194711 4.78349 2.88431)
(-5.20846 3.73642 0.91743)
(-1.01902 5.23199 1.95185)
(-0.957818 6.10257 1.25271)
(-0.946671 5.99579 2.2518)
(-0.515029 5.57188 2.38135)
(-0.863568 5.10635 1.97897)
(-0.648841 4.9171 1.59744)
(-0.243267 5.12496 1.33369)
(-0.508389 4.65845 1.49803)
(-0.592272 4.34421 1.24426)
(-0.284786 4.24568 1.13866)
(-2.167 5.52748 0.879608)
(-0.0509947 4.27283 0.179424)
(-1.18869 4.28956 1.93639)
(-0.605665 4.86724 1.6921)
(-0.470692 4.49363 -0.121018)
(-1.09839 3.27768 -1.11577)
(-1.67476 3.2431 -0.107523)
(-1.29765 3.23556 -0.0609264)
(-0.726747 3.09215 0.0354117)
(-0.739212 2.9259 0.112684)
(-0.767686 2.79518 0.416145)
(-0.509728 2.60427 0.440545)
(0.321247 2.825 -1.43737)
(0.0724751 1.49333 -0.387659)
(-1.32971 0.294992 -0.75013)
(-1.71982 1.17656 0.459102)
(-1.0669 1.53699 1.44653)
(-0.193103 1.26887 0.822351)
(-0.02039 0.9404 0.594285)
(-0.351662 0.987278 0.628164)
(-0.42863 1.50468 0.600459)
(-0.299002 1.54002 0.517593)
(-0.560045 1.23425 0.425948)
(-0.245518 0.997649 0.395602)
(-0.715437 0.770587 0.310739)
(1.53898 -0.286507 -0.603179)
(2.41552 -0.76176 -1.20249)
(1.46028 -0.437959 -1.92452)
(0.933759 0.289496 1.02938)
(0.741992 0.579848 -0.3071)
(-0.322649 0.542266 -0.240701)
(-0.116878 0.432016 0.491259)
(-0.272532 0.284666 -0.0835582)
(-0.34822 0.446332 -0.149649)
(0.0636429 0.297169 -0.788664)
(0.553614 -0.068496 -1.23741)
(0.324081 -0.484744 -0.798742)
(-0.315693 -0.287053 -1.05986)
(-0.386327 0.636865 -0.67182)
(-1.17851 1.42491 0.0137337)
(-1.36427 1.57368 0.0322788)
(-0.594787 2.1461 0.0819809)
(-1.02738 1.69708 0.0682374)
(-1.59679 1.86048 -0.120021)
(-1.19372 2.36282 0.0488924)
(-0.889364 2.47746 -0.043572)
(-0.923203 2.49203 0.102954)
(-1.75268 1.81981 0.014879)
(-1.37386 2.27778 0.00479098)
(-0.978089 2.63292 -0.198112)
(-0.960605 2.62907 0.0396075)
(-0.651386 2.72439 -0.463812)
(-2.2282 1.27196 0.203105)
(-2.01859 2.02911 0.117917)
(-1.39255 2.46241 0.393039)
(-0.803097 2.83031 -0.0318916)
(-0.842434 2.81167 0.295502)
(-2.02685 1.87577 -0.102467)
(-1.56919 2.63916 0.229808)
(-1.64634 2.62045 0.210665)
(-1.50633 2.81644 0.433802)
(-0.829007 2.97381 0.491431)
(-0.72193 2.98411 0.608713)
(-2.85858 1.1306 0.111038)
(-2.55901 2.08096 0.0274207)
(-1.65 2.77901 -0.0111155)
(-1.17568 3.01838 0.282404)
(-0.864817 3.02247 0.574369)
(-0.870546 3.02996 0.749458)
(-0.419624 3.12515 0.912483)
(-2.90571 1.53941 0.108524)
(-2.44613 2.11983 -0.0375784)
(-1.43637 3.02344 0.267282)
(-1.13136 3.28963 0.21437)
(-0.8915 3.35466 0.499612)
(-1.02832 3.46728 0.645249)
(-0.867216 3.51965 0.907966)
(-0.701665 3.71445 0.926285)
(-3.64548 0.946337 0.0178298)
(-2.97141 2.31488 -0.0620186)
(-2.35554 2.74096 0.590657)
(-1.69126 3.40251 1.04852)
(-1.14624 3.66158 1.16557)
(-1.09732 3.82078 1.10307)
(-0.957707 3.88198 1.30395)
(-0.599025 4.11164 1.44298)
(-0.488262 4.17368 1.44343)
(-3.74037 2.11013 -0.451108)
(-3.0031 4.34248 -0.122641)
(-1.3456 4.64092 1.1539)
(-1.44981 3.81792 1.3474)
(-1.14658 3.91694 1.84233)
(-1.16319 4.30251 1.89022)
(-1.2737 4.26537 2.02133)
(-1.38633 4.52862 1.99732)
(-0.921059 4.81807 2.18377)
(-0.646995 4.74117 2.36611)
(-5.38872 1.0977 -0.730011)
(-1.29095 5.87775 2.38935)
(-0.0919033 5.77462 1.98676)
(0.19338 5.4283 2.28402)
(-0.19532 5.30816 2.64279)
(-1.35848 4.71331 2.59258)
(-0.814634 4.66486 2.76085)
(-0.764202 4.63578 2.88372)
(-0.897323 4.7549 3.04484)
(-0.40894 4.85291 2.97225)
(-0.582522 4.74587 2.76723)
(-5.21916 3.89279 1.01003)
(-2.55545 4.187 2.13778)
(-1.34831 5.61398 1.81111)
(-0.526835 5.86988 2.29249)
(-0.671226 5.52126 2.39673)
(-1.05722 5.2023 1.71075)
(-0.559474 5.05102 1.43633)
(-0.2761 5.16496 1.1595)
(-0.788087 4.68729 1.38474)
(-0.821784 4.31518 1.29534)
(-0.555145 4.23193 1.16302)
(-0.263918 4.06327 1.38887)
(-2.43953 5.49074 0.841865)
(-0.966383 3.94056 0.663746)
(-0.897756 4.21295 1.05602)
(-0.623049 4.93113 1.56563)
(-0.73187 4.37815 -0.705797)
(-1.49512 3.16166 -1.13892)
(-2.02035 2.97847 -0.451205)
(-1.69209 3.09635 -0.130867)
(-1.00928 2.96929 0.0371319)
(-1.0031 2.82532 0.248545)
(-1.05575 2.73289 0.412035)
(-0.761036 2.56351 0.381254)
(-0.315309 2.71777 0.692042)
(0.145761 2.67741 -1.54349)
(-0.678375 0.694638 -0.0637093)
(-1.40431 0.031735 -0.559453)
(-1.71267 0.940507 0.477691)
(-0.993089 1.50353 1.36311)
(-0.242248 1.28795 0.743419)
(-0.0439351 0.98898 0.590157)
(-0.396339 0.993205 0.62976)
(-0.481344 1.49441 0.594882)
(-0.373229 1.55194 0.528728)
(-0.612587 1.27188 0.443326)
(-0.300978 1.03208 0.400008)
(-0.79875 0.758286 0.345957)
(-0.737807 0.388955 0.491433)
(1.58143 -0.339632 -0.612397)
(2.4209 -0.721518 -1.14273)
(1.4669 -0.441993 -1.8454)
(0.820873 0.209954 1.08246)
(0.729997 0.613889 -0.297038)
(-0.342634 0.520643 -0.238525)
(-0.157507 0.401829 0.512589)
(-0.296019 0.27676 -0.0481291)
(-0.358315 0.450142 -0.154354)
(0.0899093 0.322665 -0.824105)
(0.609651 -0.0335248 -1.14377)
(0.35253 -0.47473 -0.7885)
(-0.283902 -0.267221 -1.09127)
(-0.481991 0.628611 -0.610207)
(-0.567974 0.93185 -0.668636)
(-1.01323 1.38742 -0.0224051)
(-1.36037 1.31991 0.0230929)
(-1.0593 1.70831 0.0788734)
(-1.11723 1.45176 0.0148217)
(-1.39969 1.63399 -0.0563658)
(-0.679855 2.21968 0.162701)
(-0.752688 2.21554 0.0645079)
(-0.650998 2.09105 0.0672745)
(-1.68648 1.80135 -0.11256)
(-1.54681 2.13878 0.0149334)
(-0.843918 2.42943 -0.126796)
(-1.04378 2.40351 0.0777535)
(-0.971501 2.46074 0.0910237)
(-2.07763 1.40994 0.151597)
(-1.47513 2.22192 -0.008479)
(-1.11122 2.53481 -0.134989)
(-1.01258 2.59704 0.0793065)
(-1.03801 2.61253 0.165636)
(-0.930773 2.74681 -0.038378)
(-2.29739 1.10709 0.236278)
(-2.09305 1.94463 0.067442)
(-1.59852 2.32277 0.383055)
(-1.01337 2.73151 0.121755)
(-0.932341 2.79974 0.306605)
(-0.771664 2.81444 0.468137)
(-2.27403 1.43705 -0.00912725)
(-1.94213 2.3761 0.178989)
(-1.63838 2.63622 0.222986)
(-1.62596 2.73352 0.492117)
(-1.24141 2.87619 0.476779)
(-0.882073 2.9574 0.593142)
(-0.601471 2.97351 0.793981)
(-2.91805 0.996018 0.219181)
(-2.79534 1.80629 -0.0838413)
(-1.80137 2.74505 0.0621779)
(-1.44441 2.91503 0.33715)
(-1.3669 2.87784 0.712473)
(-0.948346 2.97686 0.845676)
(-0.789237 3.05957 0.885786)
(-0.591856 3.10467 0.989834)
(-3.12897 1.3169 -0.0348058)
(-2.72028 1.9313 4.64455e-05)
(-1.7714 2.79334 0.376504)
(-1.39224 3.218 0.288396)
(-0.870358 3.42422 0.455804)
(-1.15223 3.38481 0.678197)
(-1.01306 3.47402 0.887)
(-0.699467 3.65678 0.955138)
(-0.767444 3.69781 1.16548)
(-3.84027 0.568022 -0.0159921)
(-3.13523 2.40151 0.138987)
(-1.06486 3.78197 1.10273)
(-1.7351 3.34362 1.00364)
(-1.3502 3.69512 1.16411)
(-1.27727 3.81519 1.13679)
(-1.16265 3.78355 1.31584)
(-0.752903 3.95335 1.44582)
(-0.536502 4.10774 1.54087)
(-0.323626 4.11129 1.71827)
(-4.16808 1.91404 -0.538143)
(-3.82407 3.90561 -0.426321)
(-1.60643 4.48178 1.11296)
(-1.60618 4.12846 1.22704)
(-1.21712 4.30264 1.98018)
(-1.58617 4.19126 1.81213)
(-1.66132 4.48269 1.89186)
(-1.44329 4.50033 2.02417)
(-1.17334 4.69453 2.16362)
(-0.972562 4.75198 2.36784)
(-0.348397 4.52091 2.51364)
(-5.57794 0.683046 -0.405)
(-2.95815 5.28097 2.42498)
(-1.7735 5.37869 1.53633)
(-0.167394 5.36876 2.12985)
(-1.45891 4.91273 2.25837)
(-0.200395 5.10289 2.87297)
(-1.69969 4.46918 2.76693)
(-1.16493 4.62187 2.94308)
(-0.971396 4.80137 3.03264)
(-1.02857 4.7884 2.93409)
(-0.927396 4.66985 2.81489)
(-0.731863 4.51293 3.05685)
(-5.11111 4.2032 1.49505)
(-3.33255 3.68239 2.34495)
(-2.00966 5.10868 1.86747)
(-0.551925 5.77152 2.34888)
(-1.15028 5.50139 2.33085)
(-1.28752 5.06301 1.81185)
(-0.80724 5.03581 1.39794)
(-0.599135 5.06431 1.25125)
(-0.863726 4.66965 1.30903)
(-1.02271 4.37011 1.12113)
(-0.676376 4.24965 1.25465)
(-0.182835 4.16261 1.33058)
(-0.0452736 3.96897 1.0599)
(-2.61239 5.35003 0.905889)
(-1.8594 3.35455 0.977908)
(-0.981057 4.1152 0.458637)
(-0.953811 4.58473 -0.393287)
(-0.899975 4.39244 -1.2495)
(-2.06735 2.78572 -1.17516)
(-2.03965 2.70413 -0.74957)
(-1.62051 3.05009 0.0572532)
(-1.06372 2.92105 -0.104246)
(-1.12631 2.77437 0.287516)
(-0.957622 2.74351 0.491735)
(-1.07289 2.47032 0.519639)
(-0.371951 2.69708 0.769986)
(-0.230523 2.64583 0.328671)
(-0.00299754 2.47309 -1.50223)
(-0.864999 0.393109 0.0143521)
(-1.453 -0.180974 -0.358981)
(-1.64611 0.751577 0.490138)
(-0.932782 1.48018 1.21267)
(-0.260811 1.3425 0.704679)
(-0.0735649 1.04087 0.596947)
(-0.459216 0.984114 0.60559)
(-0.591781 1.46308 0.592254)
(-0.437326 1.56547 0.533591)
(-0.669455 1.30937 0.453263)
(-0.351811 1.08103 0.385436)
(-0.833175 0.723408 0.333933)
(-0.70722 0.440239 0.398106)
(0.817709 0.859785 -1.12587)
(1.52064 -0.366319 -0.62563)
(2.36893 -0.779885 -1.08774)
(1.46218 -0.457502 -1.77216)
(0.739298 0.141836 1.12899)
(0.706244 0.639392 -0.272961)
(-0.212363 0.563817 -0.261681)
(-0.176625 0.371402 0.522101)
(-0.320807 0.266644 -0.015637)
(-0.369777 0.454698 -0.16094)
(0.119207 0.347227 -0.856783)
(0.642029 -0.0014564 -1.01606)
(0.381396 -0.461914 -0.778393)
(-0.253815 -0.258519 -1.14108)
(-0.510615 0.62205 -0.591603)
(-0.604455 0.88373 -0.6852)
(-0.845959 -0.277925 -0.54409)
(-1.14658 1.2519 -0.0271848)
(-1.15019 1.33421 -0.080475)
(-0.850135 1.6305 0.0392549)
(-0.910915 1.43934 0.0169353)
(-1.5068 1.19379 0.0590428)
(-1.19336 1.71287 0.068138)
(-0.715272 2.01371 0.221783)
(-0.942961 1.76616 0.0746744)
(-1.046 1.55145 -0.0454413)
(-1.37274 1.68187 -0.0688059)
(-1.28674 2.00044 0.0598023)
(-0.880716 2.16069 0.0583733)
(-1.01062 2.16111 0.0789432)
(-0.669446 2.2812 0.0430767)
(-1.79237 1.65399 -0.357456)
(-1.60752 2.11059 -0.00681075)
(-1.03555 2.34836 -0.0557243)
(-1.16832 2.33336 0.0608063)
(-0.959619 2.41227 0.223465)
(-0.870356 2.52186 0.157796)
(-2.05874 1.37467 0.0174643)
(-1.62044 2.05426 0.00546075)
(-1.3596 2.32211 -0.0688272)
(-1.23933 2.52704 0.0277531)
(-1.08537 2.56505 0.276562)
(-0.881116 2.67532 0.347799)
(-0.859997 2.69694 0.121252)
(-2.31789 1.01912 0.147358)
(-2.27279 1.72661 0.0699817)
(-1.70937 2.23818 0.507592)
(-1.27297 2.62766 0.170495)
(-0.968108 2.76556 0.347128)
(-0.919387 2.7592 0.430341)
(-0.769753 2.84797 0.62173)
(-2.50188 1.13992 -0.0333648)
(-2.16752 2.1426 0.263261)
(-1.86937 2.43901 0.256535)
(-1.56102 2.75911 0.569001)
(-1.44665 2.82375 0.479735)
(-1.17368 2.90932 0.581234)
(-0.84812 2.98865 0.743357)
(-0.562511 2.9213 0.948297)
(-2.97188 0.890783 0.113379)
(-2.86121 1.68997 -0.113148)
(-1.97259 2.71692 0.174917)
(-1.49033 2.87359 0.321901)
(-1.48681 2.9334 0.588185)
(-1.08859 2.97887 0.902144)
(-0.932963 3.03113 0.893131)
(-0.67409 3.03882 0.955812)
(-0.840236 3.22782 0.948675)
(-3.18909 1.27818 -0.120244)
(-2.90047 1.93239 0.186901)
(-2.10982 2.64489 0.470901)
(-1.63716 3.08687 0.357939)
(-1.16814 3.4155 0.492894)
(-1.2961 3.29317 0.705592)
(-1.23621 3.36988 0.887572)
(-0.827722 3.60382 0.972518)
(-0.768157 3.68972 1.16289)
(-0.400131 3.65489 1.39337)
(-3.86851 0.420805 -0.00803643)
(-3.43502 2.2386 0.375636)
(-2.96807 2.73707 0.578483)
(-1.60248 3.40383 1.14842)
(-1.53349 3.59625 1.16143)
(-1.39891 3.8188 1.12339)
(-1.4236 3.72389 1.26823)
(-1.32965 3.7833 1.32793)
(-0.939451 3.96354 1.45812)
(-0.353139 4.00807 1.76623)
(-0.198091 3.96623 1.94126)
(-4.46922 1.95492 -0.459782)
(-4.62395 3.65735 -0.759454)
(-2.61709 4.17967 0.944741)
(-1.86757 4.32802 1.4214)
(-2.16249 4.13321 1.62742)
(-2.3115 4.03976 1.64751)
(-1.91112 4.38008 1.80834)
(-1.82707 4.52802 1.96452)
(-1.34912 4.63026 2.18145)
(-0.969835 4.60447 2.34259)
(-0.43993 4.43644 2.51074)
(0.0122423 4.21151 2.42664)
(-5.52218 0.514505 -0.150377)
(-3.89308 4.57237 2.56933)
(-1.25281 5.84877 1.60492)
(-0.786262 5.32037 1.95319)
(0.522833 5.48766 2.69392)
(-1.80946 5.0082 2.54063)
(-0.32999 5.18449 3.01032)
(-1.592 4.71966 2.92934)
(-1.24373 4.86955 3.02063)
(-1.15101 4.81115 2.95822)
(-1.06777 4.56901 2.93456)
(-0.943152 4.33034 3.23315)
(-0.305562 4.3759 3.18775)
(-5.08435 4.23279 2.08022)
(-3.96882 3.54132 2.55859)
(-2.51064 4.72644 0.784205)
(-0.765008 5.71183 1.64856)
(-0.802806 5.54952 2.21925)
(-1.42587 4.99165 1.94457)
(-0.609005 4.88277 1.59342)
(-0.702284 4.90304 1.34467)
(-1.01037 4.51681 1.54895)
(-1.33843 4.17032 1.43841)
(-0.946531 4.1407 1.41784)
(-0.754771 4.07435 1.47177)
(-0.640613 3.84789 1.11591)
(-0.362174 3.58324 1.51788)
(-3.00099 5.08916 1.10943)
(-1.90823 3.51885 0.955646)
(-1.42579 3.91122 -0.254304)
(-1.10164 4.37545 -1.28642)
(-0.91373 4.40059 -1.08401)
(-2.01465 2.72115 -1.21193)
(-2.19045 2.44914 -0.818796)
(-1.88762 2.66032 0.0323455)
(-1.57927 2.5919 -0.036665)
(-1.2497 2.72896 0.289391)
(-1.32737 2.54805 0.389532)
(-1.25862 2.42749 0.632166)
(-0.322062 2.72709 0.709842)
(-0.234619 2.64782 0.288795)
(-0.0254648 2.54327 0.72303)
(-0.17529 2.21422 -1.35768)
(-0.942367 0.121269 0.0386794)
(-1.57373 -0.457122 -0.112727)
(-1.55964 0.603165 0.47661)
(-0.958561 1.33451 1.10304)
(-0.312476 1.36715 0.667923)
(-0.105548 1.09344 0.626432)
(-0.48329 0.989454 0.599832)
(-0.684001 1.4552 0.564187)
(-0.515637 1.5781 0.519773)
(-0.7218 1.34754 0.461573)
(-0.427481 1.11559 0.39191)
(-0.864463 0.702176 0.311537)
(-0.671568 0.490465 0.293473)
(0.908054 0.943331 -1.19194)
(-0.0371961 1.11031 -1.75341)
(1.52124 -0.455502 -0.58334)
(2.28351 -0.782333 -1.13331)
(1.43226 -0.461093 -1.71947)
(0.692925 0.092579 1.16224)
(0.670799 0.653084 -0.232986)
(-0.170678 0.578703 -0.272268)
(-0.190782 0.344185 0.535939)
(-0.338637 0.259016 0.0131865)
(-0.383967 0.461803 -0.164734)
(0.147889 0.374229 -0.889827)
(0.646577 0.0197736 -0.863369)
(0.415153 -0.444076 -0.76494)
(-0.220834 -0.243202 -1.19659)
(-0.541743 0.606271 -0.596059)
(-0.631037 0.851911 -0.697898)
(-0.853145 -0.296491 -0.532288)
(-0.797515 0.246283 -0.562597)
(-1.01033 1.28837 0.0699312)
(-1.21233 1.19511 -0.0336607)
(-1.15902 1.46741 0.102476)
(-1.06806 1.30396 0.0299815)
(-1.22877 1.26662 -0.0798699)
(-1.02666 1.56229 0.104085)
(-0.974045 1.70344 0.198302)
(-0.861112 1.64402 0.076504)
(-0.816874 1.49875 0.0289683)
(-1.53485 1.15354 0.0772588)
(-1.29122 1.70263 -0.0454892)
(-0.782474 2.02964 0.28434)
(-0.917021 2.00475 0.280395)
(-0.820731 1.99242 0.225258)
(-0.945226 1.77612 0.0389327)
(-1.4488 1.62344 0.0336135)
(-1.49276 1.84207 0.024977)
(-1.02233 2.14421 0.0865135)
(-1.18435 2.04375 0.178883)
(-1.16916 2.13504 0.239712)
(-0.927415 2.18055 0.0744605)
(-1.99262 1.42558 -0.211493)
(-1.59142 2.11406 0.0197494)
(-1.26853 2.24157 -0.0397184)
(-1.25874 2.2885 0.0950378)
(-1.08575 2.34906 0.234683)
(-0.877824 2.45514 0.397212)
(-0.765675 2.50181 0.214686)
(-2.11356 1.17909 -0.0121196)
(-1.70222 1.98557 -0.0058988)
(-1.50366 2.21855 -0.056308)
(-1.26396 2.50398 -0.0357067)
(-1.218 2.51178 0.312921)
(-1.12053 2.59808 0.35096)
(-0.844827 2.73121 0.538998)
(-0.674112 2.73508 0.351568)
(-2.3604 0.934206 0.0550616)
(-2.28433 1.6554 0.144536)
(-1.67649 2.25478 0.501569)
(-1.41188 2.5333 0.218446)
(-1.15118 2.63136 0.388791)
(-1.09058 2.73286 0.346504)
(-1.04287 2.81648 0.572868)
(-0.69303 2.84837 0.718178)
(-2.57687 1.02349 -0.122309)
(-2.00896 2.23258 0.340095)
(-2.10603 2.23286 0.213134)
(-1.79551 2.55621 0.550833)