/*--------------------------------*- C++ -*----------------------------------*\
  =========                 |
  \\      /  F ield         | OpenFOAM: The Open Source CFD Toolbox
   \\    /   O peration     | Website:  https://openfoam.org
    \\  /    A nd           | Version:  7
     \\/     M anipulation  |
\*---------------------------------------------------------------------------*/
FoamFile
{
    version     2.0;
    format      ascii;
    class       volScalarField;
    location    "1";
    object      nut;
}
// * * * * * * * * * * * * * * * * * * * * * * * * * * * * * * * * * * * * * //

dimensions      [0 2 -1 0 0 0 0];

internalField   nonuniform List<scalar> 
18750
(
0.00019982
0.000366097
0.000432434
0.000150085
0.000297808
0.000246339
0.000428047
0.00019204
0.00032512
0.000193183
0.000535769
0.000350302
0.000292908
0.00024441
0.000208796
0.000481836
0.000166472
0.000160592
0.000377208
0.000232534
0.000889587
0.000253987
0.000471649
0.000214056
0.000361956
0.000312851
0.000147983
0.000282327
0.000234264
0.000552665
0.000277882
0.00013638
0.000154468
0.0002956
0.000188197
0.00132773
0.000631903
0.000893751
0.000234949
0.000234139
0.000477803
0.000164396
8.53006e-05
0.00020913
0.000324397
0.000192293
0.000206269
0.000222138
0.000254616
0.000566918
0.00013015
0.000180403
0.000202414
0.000168317
0.000312046
0.00018256
0.00176286
0.000823851
0.00117669
0.000532513
0.000513605
0.000798787
0.000250299
0.000232271
0.000151962
0.000511152
0.000175384
0.000254258
0.000195481
0.00021191
0.000340345
0.000141129
0.000186058
0.00015731
0.00016542
0.000314108
0.0006407
0.000153879
0.000110656
0.000226802
0.000130165
0.00011286
0.000235222
0.000300414
0.00205389
0.000533396
0.00143512
0.000667681
0.000749035
0.00126567
0.000526664
0.00043717
0.000476782
0.000763674
0.000194857
0.000206115
0.0002353
0.000172218
0.000533416
0.000161072
0.000241185
0.000236273
0.000199067
0.000280069
0.000361173
0.000117497
0.00017828
0.000206117
0.000176613
0.000246155
0.000278761
0.000625935
0.000106518
0.000115975
0.000113591
0.000247933
0.000140455
0.00022014
0.000281254
0.000273513
0.00230017
0.000364391
0.00166572
0.000357305
0.000531064
0.00157549
0.000615308
0.000539835
0.000597043
0.00129912
0.000420449
0.000521762
0.000497587
0.000549353
0.000781366
0.00018159
0.000189045
0.000222995
0.000243929
7.78901e-05
0.000501396
0.000153962
0.000154657
0.000172123
0.000103348
0.000246789
0.000211271
0.000361447
0.000112753
9.63219e-05
0.000188404
0.000158572
0.000245841
0.000210783
0.000269241
0.000541606
9.68057e-05
0.000106082
0.000108046
0.000121286
0.000189419
0.000183237
0.000114172
0.000565659
0.000232572
0.00220672
0.000295543
0.00203415
0.000281629
0.000588648
0.00175729
0.000448273
0.000484092
0.000508487
0.00156292
0.000623945
0.000636864
0.000482887
0.000466171
0.00120682
0.000296517
0.00042866
0.000524457
0.00047937
0.000478813
0.000821457
0.000175439
0.000261182
0.000163201
0.000214434
0.000247667
0.000128783
0.000475199
0.000212639
0.000113173
0.000170115
0.000136444
6.58641e-05
0.000268754
0.000278321
0.000349042
8.85569e-05
9.67018e-05
0.00010211
0.000168222
0.000136053
0.000184681
0.000133985
0.000246294
0.000614367
6.59367e-05
9.15557e-05
0.000116003
9.45021e-05
0.000115187
0.000153582
0.000171375
0.000151417
0.000442117
0.000266787
0.002184
0.000495052
0.00193676
0.000524442
0.00070358
0.00187178
0.000361796
0.000303569
0.000379656
0.0017323
0.000350546
0.000429954
0.00043005
0.000363887
0.00151962
0.000484444
0.000597734
0.000682202
0.000455986
0.000542889
0.0012241
0.00028978
0.000303649
0.000374092
0.000552824
0.000453205
0.000369745
0.000798383
0.000236053
0.000283822
0.000219976
0.000180653
0.000213938
0.00027583
0.00020942
0.000484836
0.000186253
0.000200535
0.000145757
0.000160408
0.000341728
0.000248752
0.00021029
0.000279
0.000347038
0.000119251
0.000112894
0.000101737
0.000113794
0.000123039
0.000209268
0.00017622
0.00029296
0.000349123
0.000650451
6.3731e-05
4.83742e-05
8.89131e-05
0.000127041
0.000134432
0.000116729
0.000154279
0.000205678
0.00037783
0.000367577
0.000303704
0.00246884
0.000511789
0.0021808
0.000699118
0.000724538
0.00211986
0.000267381
0.000412709
0.000374018
0.00194939
0.000286689
0.000440082
0.000274777
0.000322595
0.00169761
0.000441216
0.000569776
0.000472977
0.000293423
0.000450164
0.00152388
0.000380286
0.000471467
0.000662245
0.000735796
0.000467733
0.000573701
0.00118713
0.000208048
0.0003328
0.000354018
0.000333545
0.000519045
0.0004933
0.000347244
0.000756094
0.000286844
0.000374541
0.000259841
0.000183181
0.000229493
0.000143354
0.000237665
0.000197208
0.000458197
6.22292e-05
0.000125716
0.000213005
0.000157966
0.000187931
0.000211908
0.000254491
0.00026468
0.000303996
0.000349067
9.37989e-05
8.88092e-05
0.000101568
8.84741e-05
0.000114848
0.000136961
0.000190886
0.000212742
0.000159134
0.000379666
0.000651475
5.01309e-05
7.61711e-05
4.816e-05
7.60542e-05
0.000133396
0.000147537
0.00011736
0.000159518
0.00019865
0.000191319
0.000285825
0.000362934
0.00233827
0.000760434
0.00216196
0.000629102
0.000388041
0.00204919
0.000359423
0.000499191
0.000318903
0.00207705
0.000328367
0.000220686
0.000338845
0.000369146
0.00194051
0.000751071
0.000327996
0.000367
0.00046619
0.000433675
0.00160623
0.000324573
0.000601103
0.000614866
0.000496306
0.000570839
0.000422946
0.00156089
0.000351388
0.000437038
0.000442206
0.000567769
0.000754249
0.00052086
0.000501552
0.00124198
0.000155693
0.000221887
0.000382083
0.000382662
0.000344666
0.000486839
0.000536597
0.000347171
0.000753245
0.000438361
0.000119572
0.000390213
0.000108111
0.000178491
0.000142997
0.000126888
0.000207838
0.000222518
0.000423984
0.000240911
0.000172413
0.000225114
0.000251228
8.02414e-05
0.000162441
0.000146748
5.05597e-05
0.00024151
0.000293813
0.000356515
0.000156675
8.0979e-05
7.31501e-05
7.31744e-05
0.000120529
0.000135997
0.000209795
0.000126809
0.000243479
0.000162127
0.000226119
0.000655205
3.30116e-05
4.16499e-05
9.11327e-05
4.59015e-05
8.68523e-05
0.000134617
0.000113934
0.00010517
0.000175753
0.000221631
0.000223941
0.000505799
0.000410387
0.00246003
0.0005076
0.00230072
0.000192413
0.000711052
0.00205727
0.000516155
0.000261364
0.000416962
0.00203325
0.000551651
0.000205159
0.000148878
0.00040307
0.00192295
0.00052658
0.000286516
0.000639281
0.000329622
0.000653857
0.00173351
0.000814502
0.00066944
0.000508813
0.000530016
0.000554654
0.000418198
0.00182384
0.000524778
0.000351501
0.000532814
0.000572509
0.000549758
0.000317313
0.000348434
0.00165535
0.00036324
0.000359021
0.000479008
0.000429435
0.000581355
0.00068476
0.000673273
0.000502601
0.00123293
0.000112983
8.59247e-05
0.000251668
0.000241453
0.000276848
0.00027085
0.000366509
0.000489673
0.00037195
0.000700963
0.000179485
0.000110599
9.03997e-05
0.000349088
0.000224058
0.000224351
0.000230496
0.000236001
0.000215304
0.000259343
0.000414579
9.12018e-05
0.000147077
0.00012385
0.000312774
0.000228914
0.00013429
0.000129399
0.000185312
0.00021338
0.000249782
0.000215338
0.000363974
0.000110524
0.000163304
9.68202e-05
9.62794e-05
0.000101565
9.95553e-05
0.000115154
0.000140207
0.000221294
0.000180582
0.000259793
0.000430011
0.000701745
5.75333e-05
4.13529e-05
4.23398e-05
7.82665e-05
3.82977e-05
8.75278e-05
0.00014266
0.000112973
0.000110381
0.000181328
0.0002552
0.000319964
0.000731637
0.000243284
0.00227891
0.00076371
0.00217887
0.000498076
0.000521762
0.00219655
0.000579185
0.000532271
0.000245573
0.00211519
0.000668849
0.000572971
0.000444458
0.000174017
0.00199648
0.000274447
0.000351524
0.000387376
0.000535492
0.00046946
0.00200084
0.000407945
0.000423581
0.00034548
0.000516482
0.000436165
0.000640668
0.00199031
0.000303893
0.000482815
0.000650739
0.000571458
0.000185844
0.000190838
0.000333596
0.00164968
0.000289381
0.000453698
0.000520087
0.000579389
0.000540405
0.000651826
0.00040376
0.000425648
0.00146127
0.000242141
0.000142436
0.000443155
0.000560076
0.00047225
0.000652958
0.000695571
0.00073115
0.000519568
0.00117253
0.000199721
0.000105482
0.000247068
0.000295567
0.000339805
0.000263287
0.00021093
0.000287798
0.000419388
0.000411479
0.000676048
0.000136976
0.000256149
0.000397199
0.000267718
0.000105292
0.000215634
0.000250542
0.000216661
0.000193968
0.000222754
0.000280835
0.000399091
0.000133333
0.000161879
0.000193691
9.64453e-05
0.000209561
9.3447e-05
0.000124318
0.000136985
9.83955e-05
0.000187349
0.000263514
0.000244343
0.000367417
0.000123381
0.000103523
0.000164546
9.14746e-05
7.3946e-05
5.83503e-05
8.81278e-05
8.17003e-05
0.000118154
0.000224246
0.00022858
8.85107e-05
0.000339046
0.000665265
6.49382e-05
4.83107e-05
4.31997e-05
3.88395e-05
8.0369e-05
3.92075e-05
7.90615e-05
0.000141919
0.000109361
0.00010994
0.000190477
0.000266525
0.000291496
0.000321668
0.000163839
0.00227603
0.000414211
0.0022193
0.000528566
0.000503057
0.00227304
0.000715344
0.000330925
0.000314415
0.00209961
0.000530858
0.000743907
0.000347647
0.000408203
0.00208967
0.000391616
0.000363294
0.00077817
0.000404291
0.000551319
0.00202618
0.000356174
0.000408776
0.000188924
0.000638978
0.000564221
0.000613042
0.00202474
0.000688194
0.00071479
0.00039182
0.000327106
0.000440573
0.000475362
0.00037203
0.00173266
0.000277204
0.000371894
0.000836994
0.000691711
0.000466283
0.000365296
0.000362996
0.000429745
0.00162848
0.00058925
0.000387083
0.000451523
0.000514742
0.000561224
0.000724154
0.0005906
0.000529005
0.000519287
0.00159936
0.000396862
0.000296256
0.000227162
0.000279732
0.000425718
0.000541824
0.000605938
0.000716102
0.000720967
0.000586651
0.00115021
0.000408544
0.000229711
8.35123e-05
0.00023465
0.00025238
0.000275793
0.000290905
0.000228907
0.000305054
0.000409705
0.000384477
0.000660725
0.000148649
0.000202325
0.000165559
6.57828e-05
0.000461308
0.000349567
0.000188493
0.000208873
0.000221372
0.000200244
0.000226149
0.000291705
0.000385818
8.9179e-05
0.000158393
0.000222714
0.000198484
0.000121025
8.12981e-05
0.000119362
5.84821e-05
0.000114192
0.000149635
0.000119468
0.000245384
0.00023453
0.000369775
9.40715e-05
0.000119607
0.000115826
0.000158217
8.64408e-05
8.84918e-05
6.68761e-05
0.000132103
8.46172e-05
0.000134307
0.000180966
0.000206944
6.35677e-05
0.000168639
0.000653151
4.01023e-05
4.84156e-05
4.41104e-05
3.20896e-05
3.82104e-05
8.00003e-05
3.37099e-05
8.02494e-05
0.000126045
0.000106256
9.843e-05
0.000199195
0.000261406
0.000270705
0.000126013
0.000210481
0.00227867
0.000359957
0.0021114
0.000457036
0.000493342
0.00212628
0.000447533
0.000672656
0.000373602
0.00224759
0.000913623
0.000498094
0.000587351
0.000418068
0.00209126
0.00035253
0.000940285
0.000713717
0.00045307
0.000712333
0.0020219
0.000736915
0.000388354
0.000666865
0.000727152
0.000260425
0.00053165
0.00208
0.000480012
0.000373718
0.000574746
0.000486829
0.000473729
0.000234064
0.000396965
0.00198046
0.000477729
0.000513091
0.000133239
0.000491022
0.000479414
0.000272836
0.000395596
0.000330148
0.00193914
0.0006249
0.000368377
0.000486745
0.00079813
0.000666224
0.000501513
0.000428343
0.000374583
0.000452519
0.0018869
0.00040392
0.000533697
0.000386318
0.000437971
0.000476661
0.000632423
0.00086814
0.000711197
0.000540505
0.00039225
0.00154332
0.000504332
0.00029979
0.000297606
0.000237886
0.00023007
0.00039266
0.000501778
0.000546255
0.000692471
0.000734845
0.00062888
0.00108571
0.000234694
0.000325341
0.000191252
7.17026e-05
0.000100997
0.000294226
0.000256754
0.000219843
0.000238653
0.000288802
0.000353715
0.00039419
0.000627066
0.000388231
0.000209608
0.000166154
0.000189067
0.000249487
0.000387038
0.000347495
0.000152535
0.000158935
0.000236513
0.00024956
0.000231529
0.000277127
0.000379984
0.000148051
0.000228554
0.000149019
0.000294004
0.000153712
0.000137203
6.73918e-05
0.000180248
7.08515e-05
0.000116919
0.00014706
0.000118737
0.000213043
0.000208197
0.000320591
8.567e-05
0.000104759
9.81363e-05
9.44646e-05
0.000158777
0.000114425
0.000108787
0.000102634
0.00015023
8.40612e-05
0.000120872
0.000173741
0.000313607
0.000270018
0.000240315
0.000622443
4.55539e-05
3.42001e-05
5.63885e-05
5.68213e-05
4.07403e-05
4.02682e-05
7.58302e-05
3.17507e-05
8.08335e-05
0.000114608
0.000104852
0.000107985
0.000214882
0.00032097
0.000317525
0.000284084
0.000214657
0.00223574
0.000450621
0.00212385
0.000449044
0.00033956
0.00213197
0.000509538
0.000364957
0.000375169
0.00212506
0.000447006
0.000633703
0.000466767
0.000474435
0.00219095
0.000889284
0.000558885
0.00044124
0.000600092
0.00056408
0.0020982
0.000449412
0.000836523
0.000443498
0.000154047
0.000665918
0.000298278
0.00205874
0.000627468
0.000558001
0.000343384
0.00017952
0.000185952
0.000361174
0.000303154
0.00212361
0.000317271
0.000374911
0.000320586
0.000281511
0.000419671
0.000159772
0.000326905
0.000398716
0.00196876
0.000554706
0.00056168
0.000784397
0.000388395
0.000593541
0.000335153
0.000274322
0.000418667
0.000321671
0.00185877
0.000356556
0.000484431
0.000343774
0.00067001
0.000722962
0.000618613
0.0005537
0.000537515
0.000581481
0.000614238
0.00169548
0.000670932
0.000387116
0.000352632
0.000412755
0.000470626
0.000485545
0.000673394
0.000853934
0.00071734
0.000548807
0.00031428
0.00169689
0.000269398
0.000465117
0.000279359
0.000191436
0.000263642
0.000323371
0.000430782
0.000426402
0.000491646
0.000696899
0.00077366
0.000723983
0.00105377
0.00019125
0.000191515
0.000447326
0.000229785
0.00010212
7.50552e-05
0.000192298
0.000288241
0.000288358
0.000231605
0.000250093
0.000321757
0.000336385
0.000623598
0.000266722
0.000208857
0.00023637
0.000206046
0.000208425
9.26159e-05
0.000131619
0.000230087
0.000157194
0.000145549
0.000235573
0.000246498
0.000220762
0.000260681
0.000364652
6.33936e-05
0.000117427
0.000298637
0.00013888
0.000382541
9.79599e-05
0.000158813
0.000106239
0.000203544
8.94662e-05
0.000111791
0.000167911
9.23985e-05
0.000227286
0.000206076
0.000329137
5.65733e-05
8.52026e-05
9.97575e-05
7.21433e-05
0.000102138
0.000110723
9.79376e-05
9.75288e-05
8.74864e-05
0.00014725
8.64918e-05
0.000129363
0.000146015
0.000380849
0.000258162
0.000331963
0.000531675
5.57455e-05
4.14618e-05
3.49822e-05
5.50161e-05
4.82701e-05
6.09556e-05
4.18904e-05
0.000119021
3.35179e-05
6.81266e-05
0.000106984
0.000104798
0.000108228
0.000218819
0.000354851
0.000319385
0.000299374
0.00023329
0.00222398
0.000315331
0.00208421
0.000282333
0.000340089
0.00211017
0.000407632
0.000313513
0.000475012
0.00214589
0.000374632
0.000385979
0.00029863
0.000444114
0.0021238
0.000460693
0.000518409
0.000329949
0.000187325
0.000599956
0.0020977
0.000873302
0.000566152
0.00067669
0.000327569
0.00024136
0.000363166
0.00208434
0.00075518
0.000275013
0.000949814
0.000375896
0.000627317
0.000132712
0.000508455
0.00197747
0.000236262
0.000472021
0.000394999
0.000529117
0.000455882
0.00059024
0.000259519
0.000464222
0.00192591
0.000443914
0.000446689
0.000315238
0.000240901
0.000355312
0.000231603
0.000525709
0.000302312
0.000472693
0.00198767
0.000322205
0.000378105
0.000443072
0.000736361
0.000489132
0.000439258
0.000281408
0.000129805
0.000469659
0.000693606
0.00196297
0.000533571
0.000559244
0.000266804
0.000623373
0.000461415
0.00059742
0.000595323
0.000522102
0.000485485
0.000530212
0.000834856
0.00198226
0.000277412
0.000343143
0.000465603
0.00034031
0.000457194
0.000614531
0.000650525
0.000649382
0.000809912
0.000904635
0.000605368
0.00059603
0.00186387
0.000346645
0.000137854
0.000292782
0.000278327
0.000292143
0.000243601
0.000307861
0.000569336
0.000400838
0.000382984
0.00061032
0.000719477
0.00067986
0.00107499
0.000150737
0.000295482
0.000148904
0.000375363
0.000303507
0.000146057
0.000162431
0.000134914
0.000198664
0.00014549
0.000197188
0.000221747
0.000274322
0.000271949
0.00058658
0.000103046
0.000147962
0.000342484
0.000140022
0.000231401
0.000214046
0.000221158
9.43965e-05
0.000155426
0.000174172
0.000208021
0.000260563
0.000238536
0.000220836
0.00025772
0.000302703
0.000119486
0.000104421
0.000136051
0.000181865
0.000111824
0.000430792
7.72141e-05
0.0001578
6.25504e-05
0.000239228
0.000109827
0.00011478
0.000155392
0.000114652
0.0001987
0.000189298
0.000313922
0.00013049
5.23317e-05
6.80742e-05
9.60976e-05
5.96409e-05
9.47135e-05
8.7148e-05
8.08822e-05
9.47089e-05
9.35794e-05
0.000140684
9.0738e-05
0.00012983
0.000162686
0.000217995
0.000193962
0.000369415
0.000538596
1.86017e-05
4.58666e-05
3.95942e-05
3.68556e-05
4.31566e-05
6.91965e-05
4.81265e-05
4.34063e-05
7.52137e-05
4.77243e-05
8.57943e-05
0.000100097
0.000101248
9.09358e-05
0.000231502
0.000351896
0.000323151
0.000282199
0.000241942
0.00218397
0.000327323
0.00207839
0.000240549
0.000289654
0.00208447
0.000364704
0.000272297
0.000332253
0.0020541
0.000453886
0.000241258
0.000332201
0.000442111
0.00209861
0.000358525
0.000354083
0.000165272
0.000367685
0.000422106
0.00212979
0.000437441
0.000351463
0.000400661
0.000275304
0.000283637
0.000285876
0.00215885
0.000570661
0.000572002
0.000652706
0.00047262
0.000285503
0.00029011
0.000394572
0.0020804
0.000872672
0.000467709
0.0009905
0.000454181
0.000446814
0.000521418
0.000304049
0.000493219
0.00205779
0.000582927
0.000274785
0.00070273
0.000436444
0.000610302
0.00069561
0.000550272
0.000621809
0.000388572
0.0020637
0.000554885
0.000392066
9.51416e-05
0.000214282
0.000139928
0.000328509
0.000278591
0.000311343
0.000191128
0.000429158
0.00213991
0.000293172
0.000225747
0.000571285
0.000519477
0.000648205
0.000616971
0.000276047
0.000342234
0.000505658
0.000555938
0.00048755
0.00204164
0.000567701
0.000489061
0.000394174
0.000354357
0.000518962
0.000809975
0.000513306
0.000619041
0.000591212
0.000698247
0.000510736
0.000671012
0.00218807
0.000430415
0.000423985
0.000302748
0.000451258
0.000394418
0.000559036
0.00049701
0.000843863
0.000630223
0.000812371
0.000977725
0.000639793
0.000450608
0.00178878
0.000193775
0.000226409
0.000185153
0.00030398
0.000299979
0.000294072
0.000187357
0.000343791
0.000455879
0.000335162
0.00030824
0.000479618
0.00070309
0.000726788
0.000995681
0.000387338
0.000267885
0.000255991
0.000218166
0.000202933
0.000235341
0.000126126
0.00024742
0.000182728
0.000349985
0.000227851
0.000205048
0.000203885
0.000261785
0.000246124
0.000530694
0.000137722
0.000165028
0.000168149
0.000403472
0.000303919
0.000412837
0.000222047
0.000156185
0.000181741
0.000152441
0.000181996
0.000130855
0.00025537
0.000240617
0.000246969
0.000235845
0.000232054
0.000275389
0.000107079
8.07378e-05
0.000135336
8.30766e-05
4.93506e-05
0.000257361
6.12786e-05
0.000197139
0.000194294
0.000187781
0.00013336
0.000108787
0.000137981
0.000101382
0.000168505
0.000185453
0.000264546
3.8491e-05
0.000111147
4.54508e-05
6.27207e-05
8.0338e-05
5.64793e-05
6.99683e-05
8.96257e-05
7.80768e-05
9.22785e-05
9.78461e-05
0.000112772
9.30189e-05
0.000116421
0.000166702
0.000264088
0.000220029
0.00036956
0.000475439
1.09272e-05
1.65956e-05
4.57891e-05
3.91576e-05
3.78036e-05
3.53649e-05
9.12906e-05
2.35479e-05
3.91948e-05
4.68797e-05
7.61796e-05
8.49558e-05
0.000100295
9.45483e-05
9.54132e-05
0.000234677
0.000369979
0.000336195
0.000358772
0.000232236
0.00215192
0.000298309
0.00203011
0.00026975
0.000333033
0.00203552
0.000309365
0.000266542
0.00039185
0.00207756
0.000233005
0.000373545
0.000346165
0.000340426
0.00208886
0.000439135
0.000361984
0.000470197
0.000381941
0.000309433
0.00210005
0.000260601
0.000342806
0.000424806
0.000532988
0.000241051
0.000397921
0.00214412
0.000582559
0.000568826
0.000256716
0.000240398
0.000521162
0.00038698
0.000366825
0.00212071
0.000885587
0.000777524
0.000818007
0.000632205
0.000243806
0.000401434
0.000480869
0.000373477
0.00205327
0.0005388
0.000815592
0.000501429
0.00112283
0.000746188
0.000285099
0.000260921
0.000573101
0.000283445
0.00202505
0.00101228
0.000581014
0.000347172
0.000417983
0.000354583
0.000421184
0.000298122
0.000205319
0.000242963
0.000402317
0.00200809
0.000624974
0.000343247
0.000406633
0.000161161
0.000401504
0.000284992
0.000338787
0.000362633
0.000206223
0.000244194
0.000332261
0.00184748
0.000553329
0.000322947
0.000288167
0.000452425
0.000557941
0.000591601
0.000668074
0.000308674
0.000406022
0.000492862
0.000722035
0.000484197
0.00192963
0.000460161
0.000173809
0.000229771
0.00049778
0.000438865
0.000765776
0.000758311
0.000671149
0.000628356
0.000552161
0.000476086
0.000542109
0.000971219
0.00215934
0.000516395
0.000362445
0.000172314
0.000298101
0.000374263
0.000527347
0.000756681
0.000574654
0.000931823
0.000705732
0.000896784
0.00105864
0.00072543
0.000288443
0.00183953
0.00011192
0.000200758
0.000226996
0.000184226
0.000396082
0.00024598
0.000265667
0.000146389
0.000313117
0.000413079
0.000345425
0.000244738
0.00034622
0.000604484
0.000646279
0.00100183
0.000246844
0.000217716
0.00018789
0.000117027
0.000201422
0.000484348
0.000197817
0.000163201
6.87392e-05
0.000123519
0.00027314
0.000282541
0.000221618
0.000209556
0.00028114
0.000230641
0.000452155
0.000318763
0.000133708
0.000189337
0.0001003
0.000242454
0.00018727
0.00046814
0.000119086
8.2822e-05
0.000121258
0.000129052
0.000226389
0.000132615
0.000261788
0.000250343
0.000245355
0.000239242
0.000236319
0.000124689
0.000247564
7.28275e-05
5.11305e-05
0.000108666
7.12262e-05
4.26657e-05
0.000151983
5.67308e-05
0.000257658
0.000119474
0.000146851
0.000116971
0.000119193
0.000115386
9.60497e-05
0.000159541
0.00018038
0.00026704
2.53024e-05
4.01476e-05
0.000105628
5.88058e-05
7.61066e-05
9.2168e-05
5.69586e-05
7.19129e-05
9.49913e-05
9.00672e-05
5.49399e-05
0.000139308
0.000104926
9.07883e-05
0.000117517
0.000202016
0.000241217
0.000170523
0.000407761
0.000293857
2.53884e-05
1.86734e-05
1.43969e-05
3.99776e-05
3.05169e-05
3.86351e-05
5.12649e-05
7.28198e-05
4.13737e-05
3.78835e-05
6.00631e-05
8.01733e-05
7.14345e-05
0.000101517
8.90734e-05
0.000103732
0.000237298
0.000359381
0.000339293
0.000419963
0.000242696
0.00215106
0.000334637
0.00201089
0.000269126
0.000278963
0.00203476
0.000271563
0.000289536
0.000284519
0.00207604
0.000437703
0.000182725
0.000323831
0.000332406
0.00211148
0.000278829
0.000230364
0.00024987
0.000275518
0.000388733
0.00212347
0.00046614
0.00035686
0.000277268
0.000423127
0.000321898
0.000386736
0.00213222
0.000406611
0.000499834
0.000232679
0.000396664
0.000356171
0.000464386
0.00043191
0.00212948
0.000655722
0.000595214
0.000536313
0.000201818
0.000530295
0.000300618
0.000397065
0.000474386
0.00207744
0.000886542
0.000747941
0.000777003
0.000732904
0.000385654
0.000211856
0.000471495
0.000271354
0.000373526
0.00203414
0.00058466
0.000697617
0.000792481
0.00115881
0.000249879
0.000506444
0.00036437
0.000227565
0.000270072
0.000426201
0.00201929
0.000518732
0.000205846
0.000285506
0.000601423
0.000458246
0.000634944
0.000302919
0.000539693
0.000369802
0.000200997
0.000479405
0.00197466
0.00053276
0.000556583
0.000695051
0.000231534
0.000342978
0.000465629
0.000377917
0.000367199
0.000300866
0.000248794
0.000452755
0.00054749
0.00193513
0.000501679
0.000493172
0.000307182
0.000478796
0.000660396
0.000462436
0.000612971
0.000420317
0.000403954
0.000448561
0.000650379
0.000651546
0.000725381
0.00210148
0.000673753
0.000542293
0.000230766
0.000222172
0.000569517
0.000510512
0.000763501
0.000583699
0.000797674
0.000599176
0.000599873
0.000709428
0.000544552
0.000489019
0.00226889
0.000537506
0.000538067
0.000334387
0.000273231
0.000204114
0.000355977
0.000583839
0.000509658
0.000822804
0.00098848
0.000754284
0.000842516
0.000998817
0.00084697
0.000335853
0.0017974
0.000607897
0.000135822
0.000376639
0.000259835
0.000523858
0.000256743
0.000218723
0.000222861
0.000345171
0.000310357
0.000444921
0.000407881
0.000242581
0.000245264
0.000546729
0.00063572
0.000876682
0.000191827
0.00028294
0.000260798
0.000132217
9.29587e-05
0.00034875
0.000424312
0.000113401
0.000193327
0.000143022
0.000183076
0.000191114
0.000107261
0.000221148
0.000213115
0.000241839
0.000219264
0.000422685
9.62727e-05
0.000152428
9.95611e-05
9.67511e-05
6.2727e-05
0.000221346
0.000122857
0.00042929
0.000123933
0.000122709
0.000150957
0.000184302
0.000208308
0.000142205
0.00021829
0.000243374
0.000244698
0.000251267
0.000235663
6.01471e-05
0.000136563
0.000184969
6.88147e-05
5.59413e-05
0.000124308
8.20814e-05
2.86108e-05
0.000196806
6.09182e-05
0.000115441
0.000292759
0.000171175
9.11853e-05
9.07893e-05
0.000106815
9.51087e-05
0.000127241
0.000177073
0.000229841
5.89257e-05
2.13662e-05
4.4643e-05
0.000104677
6.39596e-05
7.1876e-05
7.64795e-05
5.33587e-05
7.13171e-05
8.64164e-05
8.53727e-05
2.71413e-05
0.000110134
0.000118384
0.000102731
0.000108086
0.000233963
0.000206848
0.000202977
0.000350256
0.0003319
4.89915e-05
2.44267e-05
1.8371e-05
1.56926e-05
3.77647e-05
2.6199e-05
4.08136e-05
4.34623e-05
7.81192e-05
4.04035e-05
4.14095e-05
5.09258e-05
4.20449e-05
8.40307e-05
9.23962e-05
8.10398e-05
0.000100264
0.000248669
0.00035054
0.000333994
0.000446379
0.000277183
0.00212299
0.000335638
0.00197869
0.000316088
0.000262387
0.00203271
0.000277339
0.000149152
0.000374025
0.00205288
0.000308845
0.000276407
0.000210494
0.000308969
0.00207674
0.000345899
0.000349094
0.000282462
0.000287092
0.000335477
0.00207864
0.000480197
0.000342095
0.000384057
0.000281522
0.000222505
0.000414771
0.0021295
0.000535129
0.000628039
0.000376958
0.000287015
0.000166173
0.000344997
0.00041423
0.00212107
0.000537621
0.000451077
0.000531797
0.000432809
0.000324907
0.000142692
0.000340489
0.00036924
0.00211217
0.000535396
0.000688085
0.000340844
0.000253407
0.000549657
0.000347622
0.000229108
0.000336754
0.000400212
0.0021303
0.000573789
0.000527224
0.000944347
0.000655377
0.000376043
0.000446523
0.000482389
0.000274678
0.000388094
0.000412044
0.00204113
0.000628471
0.000367065
0.000573227
0.000657591
0.00110856
0.000431744
0.000251767
0.000716453
0.000359922
0.000347674
0.000507805
0.00199327
0.000651489
0.000558382
0.000445146
0.000340653
0.000443431
0.000541488
0.000292852
0.000440535
0.000352628
0.000288912
0.000760057
0.000236923
0.00217271
0.000800434
0.000536176
0.000404075
0.000525067
0.000266066
0.000341243
0.000449595
0.000437663
0.000223551
0.00011333
0.000270897
0.000626701
0.000393978
0.00207937
0.000538739
0.000384439
0.000272551
0.000445077
0.000656113
0.000548884
0.000551488
0.000407128
0.000796611
0.000402548
0.000536971
0.000513665
0.000632891
0.000866797
0.00211666
0.000730607
0.000362674
0.000309182
0.000234346
0.000227956
0.000617822
0.00053744
0.000719572
0.000850168
0.000945743
0.00056586
0.000763928
0.000534963
0.000374048
0.000705209
0.00236348
0.000386652
0.000543183
0.000557518
0.000360552
0.000396298
0.000261469
0.000390744
0.000586411
0.000418289
0.000920333
0.00101592
0.000743535
0.000824122
0.00103559
0.000713064
0.0003426
0.00185609
0.000608867
0.000431648
0.000105557
0.000323318
0.000165642
0.000592599
7.58732e-05
0.000240169
0.000243471
0.000177736
0.000249877
0.000253704
0.000223174
0.000307344
0.000246914
0.000463729
0.000587409
0.000905963
0.000201831
0.000317852
0.000259287
0.000255072
0.000171029
5.06794e-05
0.000251514
0.000505273
0.000103395
0.000257386
0.000130759
0.000359122
0.000153758
0.000180136
0.000254198
0.000229482
0.000241125
0.000221922
0.000390094
6.34376e-05
0.000112589
8.60272e-05
0.000118413
7.5019e-05
8.18588e-05
4.89291e-05
9.65787e-05
0.000460698
9.19224e-05
8.3286e-05
0.000105561
0.000232615
0.000155661
0.000109088
0.000108242
0.000249036
0.000258961
0.000244186
0.000236584
0.000140026
8.78042e-05
0.000108514
0.000147939
8.48958e-05
4.51377e-05
8.92938e-05
6.82455e-05
5.86087e-05
0.000180339
5.78962e-05
0.000172598
0.00013302
6.9481e-05
0.000122066
0.000123973
9.36311e-05
9.01331e-05
0.000120529
0.000176698
0.000215171
9.99785e-05
5.57414e-05
2.48954e-05
3.94693e-05
9.93562e-05
5.83041e-05
9.07194e-05
5.38315e-05
5.0293e-05
7.5053e-05
7.61408e-05
7.86039e-05
3.91366e-05
8.59375e-05
0.000143753
0.000130487
0.000107071
0.000142822
0.000211146
0.0002869
0.000453378
0.000482045
5.81166e-05
4.85113e-05
2.70002e-05
1.25639e-05
7.28306e-06
4.44208e-05
2.60112e-05
3.47318e-05
2.32647e-05
9.93587e-05
3.64406e-05
4.13491e-05
5.6637e-05
3.3883e-05
7.44017e-05
7.40207e-05
7.10623e-05
0.000100384
0.000246364
0.000349161
0.000330507
0.000425275
0.000313162
0.00202548
0.000281853
0.00198642
0.000214455
0.00024413
0.00202358
0.000257416
0.000201489
0.000251128
0.00200448
0.000387739
0.000234421
0.000299451
0.000383211
0.00207233
0.000375311
0.000234804
0.00027206
0.000364283
0.000396162
0.0020946
0.000333545
0.000307804
0.000274667
0.000374199
0.000337099
0.000308899
0.00211202
0.000365183
0.00023434
0.000387397
0.000321069
0.00036524
0.000314306
0.000339866
0.00212374
0.00047791
0.000369202
0.000301943
0.000472667
0.000259399
0.000266895
0.000353305
0.000312749
0.00209985
0.000326205
0.000556781
0.000398981
0.000395796
0.000436075
0.000275487
0.000373752
0.000285356
0.000331117
0.00208979
0.000539477
0.000637095
0.000465971
0.000213855
0.000442738
0.000474408
0.000489014
0.000399679
0.000320007
0.000338959
0.00210149
0.000653001
0.00106933
0.000671559
0.000663434
0.000758014
0.000579154
0.000511109
0.000515182
0.000317507
0.000386513
0.000340257
0.00206482
0.000451883
0.000233973
0.00080641
0.000694923
0.000612777
0.000315587
0.000699436
0.000350949
0.000204531
0.000233119
0.000420182
0.000414999
0.002147
0.000956865
0.000378012
0.000293185
0.000454851
0.000237602
0.0003326
0.000333088
0.000385765
0.000162328
0.000186087
0.000311768
0.000237427
0.000684443
0.00211413
0.000687571
0.000344962
0.000725603
0.000676545
0.000337018
0.000488601
0.000371215
0.000559838
0.000618276
0.000362502
0.000404111
0.000691208
0.000357222
0.000940061
0.00204779
0.000745149
0.000444438
0.000286688
0.000356441
0.000600621
0.000696503
0.000583174
0.000726516
0.000542178
0.00090338
0.000458494
0.000596625
0.000725178
0.000575477
0.0010185
0.00216588
0.00051151
0.000718655
0.000304024
0.000430223
0.000224401
0.000329283
0.000715014
0.000752045
0.000712639
0.000575196
0.000639279
0.000474805
0.000702138
0.000296713
0.000348003
0.00061376
0.00241016
0.000563616
0.000195442
0.000482726
0.000477538
0.00033502
0.000201617
0.000320395
0.000429407
0.000548852
0.000502112
0.000556264
0.000947809
0.000791687
0.000772282
0.00111142
0.000818677
0.000562959
0.00177054
0.000308437
0.000508558
0.000222408
0.000106582
0.00028271
0.00020067
0.000128232
0.000106638
0.000243091
0.000367998