/*--------------------------------*- C++ -*----------------------------------*\
  =========                 |
  \\      /  F ield         | OpenFOAM: The Open Source CFD Toolbox
   \\    /   O peration     | Website:  https://openfoam.org
    \\  /    A nd           | Version:  7
     \\/     M anipulation  |
\*---------------------------------------------------------------------------*/
FoamFile
{
    version     2.0;
    format      ascii;
    class       volScalarField;
    location    "1";
    object      p;
}
// * * * * * * * * * * * * * * * * * * * * * * * * * * * * * * * * * * * * * //

dimensions      [0 2 -2 0 0 0 0];

internalField   nonuniform List<scalar> 
18750
(
-74.5352
-74.6218
-74.5961
-74.4305
-74.7585
-75.3676
-74.586
-74.9242
-74.8061
-74.4272
-74.7533
-74.8646
-74.7291
-75.8667
-75.4617
-74.5494
-75.3455
-74.9162
-75.1024
-74.4327
-74.702
-75.207
-74.726
-75.0053
-74.9149
-74.7047
-75.7562
-75.9047
-75.5354
-74.4904
-75.5801
-75.327
-74.96
-75.2334
-74.3988
-74.583
-75.0299
-74.6357
-75.1723
-75.1581
-74.7062
-75.1757
-74.984
-74.9134
-74.6795
-75.4963
-75.7789
-75.9462
-75.6272
-74.4091
-75.4975
-75.61
-75.3214
-74.9693
-75.1834
-74.3877
-74.3999
-75.1777
-74.5637
-75.0145
-74.9328
-74.5995
-75.5182
-75.1049
-75.1653
-74.6852
-75.4435
-75.1209
-74.973
-74.9067
-74.6583
-75.5008
-75.476
-75.7991
-76.0252
-75.7338
-74.32
-75.6484
-75.4969
-75.6343
-75.3281
-74.9125
-74.9861
-74.3681
-74.2829
-74.964
-74.4281
-75.0021
-75.0642
-74.5273
-75.3063
-74.9148
-74.8815
-74.5738
-75.6426
-75.5208
-75.051
-75.1534
-74.6583
-75.5844
-75.4486
-75.1337
-74.9489
-74.987
-74.6423
-75.6499
-75.4951
-75.4661
-75.8333
-76.0814
-75.8632
-74.3174
-75.7928
-75.6495
-75.4943
-75.6497
-75.3374
-74.9101
-74.7046
-74.3244
-73.9205
-74.7159
-74.1588
-75.0176
-74.759
-74.3424
-75.5309
-74.8278
-74.8829
-74.4308
-75.5131
-75.149
-74.8384
-74.7999
-74.5412
-75.6652
-75.5637
-75.4261
-75.0072
-75.0824
-74.6655
-75.7285
-75.5772
-75.4661
-75.1926
-74.9039
-74.9728
-74.6286
-75.7644
-75.6441
-75.4948
-75.4724
-75.8559
-76.1385
-75.9706
-74.402
-75.9598
-75.7922
-75.6469
-75.4928
-75.6667
-75.3652
-74.9193
-74.5435
-74.3092
-73.5508
-74.2048
-73.7488
-74.7087
-74.3937
-74.0372
-75.5725
-74.7479
-74.559
-74.2422
-75.772
-75.309
-74.6972
-74.7298
-74.373
-75.7903
-75.3918
-75.0208
-74.766
-74.719
-74.4923
-75.7732
-75.6021
-75.4907
-75.2972
-74.9819
-75.081
-74.7069
-75.7938
-75.7098
-75.567
-75.4815
-75.2006
-74.8596
-74.9576
-74.6204
-75.9803
-75.7623
-75.637
-75.4941
-75.4809
-75.8599
-76.215
-76.0649
-74.4799
-76.0707
-75.9591
-75.7908
-75.6439
-75.4902
-75.6764
-75.4043
-74.8849
-74.5633
-74.3061
-73.0736
-73.5818
-73.3366
-74.3093
-73.9208
-73.7564
-75.1777
-74.4893
-74.1778
-73.9767
-75.9604
-75.2443
-74.5833
-74.5576
-74.1961
-75.9965
-75.5093
-75.118
-74.6228
-74.6365
-74.3357
-75.8839
-75.6691
-75.3033
-74.9087
-74.703
-74.6662
-74.4414
-75.892
-75.7296
-75.5418
-75.399
-75.2221
-74.9646
-75.037
-74.7323
-76.0197
-75.7801
-75.6857
-75.5536
-75.4779
-75.1762
-74.8307
-74.9827
-74.6131
-76.1095
-75.9699
-75.7567
-75.63
-75.4934
-75.4843
-75.8549
-76.2506
-76.1303
-74.5642
-76.2646
-76.0727
-75.9584
-75.7889
-75.6444
-75.4872
-75.6871
-75.445
-74.9126
-74.6122
-74.3142
-72.4798
-73.1473
-72.8512
-73.8926
-73.3908
-73.2453
-74.854
-74.1376
-73.8123
-73.6669
-75.7354
-74.9236
-74.4515
-74.171
-73.8707
-76.2392
-75.6851
-75.0017
-74.4712
-74.3921
-74.1401
-76.158
-75.7995
-75.2694
-74.9109
-74.5332
-74.5318
-74.3256
-75.9795
-75.8223
-75.5647
-75.2304
-74.8381
-74.643
-74.6398
-74.4143
-76.0005
-75.8658
-75.6921
-75.4826
-75.3101
-75.1963
-74.9554
-74.9659
-74.7535
-76.1317
-76.0065
-75.7753
-75.6662
-75.5349
-75.4952
-75.1706
-74.8019
-74.9329
-74.6087
-76.18
-76.1122
-75.9719
-75.7507
-75.6234
-75.488
-75.4733
-75.8476
-76.2626
-76.1375
-74.6489
-76.3305
-76.262
-76.0744
-75.9581
-75.7867
-75.6448
-75.4853
-75.6992
-75.4898
-75.0598
-74.561
-74.3359
-72.1452
-72.6198
-72.4078
-73.2606
-73.0178
-72.8483
-74.2851
-73.6935
-73.5376
-73.3269
-75.4629
-74.698
-74.0857
-73.8524
-73.5167
-76.385
-75.403
-74.6654
-74.2992
-73.9918
-73.8533
-76.6164
-75.9375
-75.2913
-74.7741
-74.289
-74.2378
-74.095
-76.0757
-75.9954
-75.6379
-75.1132
-74.7126
-74.4601
-74.4766
-74.3204
-76.0414
-75.9799
-75.7436
-75.4754
-75.1561
-74.7993
-74.5859
-74.6315
-74.4102
-76.1421
-75.9938
-75.8433
-75.6539
-75.4372
-75.2478
-75.1798
-74.9607
-74.9918
-74.781
-76.1974
-76.1027
-75.9989
-75.7702
-75.6474
-75.5233
-75.4866
-75.1598
-74.7823
-74.8641
-74.6057
-76.3225
-76.1667
-76.1101
-75.9584
-75.7438
-75.6165
-75.4794
-75.455
-75.8412
-76.2495
-76.2787
-74.7298
-76.4354
-76.3289
-76.2593
-76.0765
-75.9575
-75.784
-75.6447
-75.4865
-75.7112
-75.5238
-75.1838
-74.4067
-74.3722
-71.6578
-72.1163
-72.1159
-72.7554
-72.5257
-72.4861
-73.6198
-73.1839
-72.9452
-72.8437
-74.6906
-74.1143
-73.6795
-73.4336
-73.2909
-76.4237
-75.1317
-74.4463
-73.9523
-73.6737
-73.5146
-76.5017
-76.0577
-75.1507
-74.4506
-74.1444
-73.851
-73.7556
-76.628
-76.5846
-75.7126
-75.0532
-74.622
-74.2679
-74.2521
-74.0895
-76.151
-76.0212
-75.8643
-75.4877
-75.0183
-74.5943
-74.3829
-74.4757
-74.3609
-76.1315
-76.0365
-75.9102
-75.6731
-75.3979
-75.102
-74.7847
-74.5546
-74.6427
-74.4266
-76.1689
-76.1378
-75.9773
-75.8272
-75.6069
-75.3981
-75.199
-75.1384
-74.971
-75.0453
-74.8123
-76.3049
-76.186
-76.0847
-75.9914
-75.7599
-75.63
-75.5211
-75.4625
-75.1404
-74.7682
-74.8728
-74.6069
-76.4752
-76.3137
-76.1534
-76.1039
-75.9465
-75.7391
-75.6093
-75.4701
-75.4273
-75.8501
-76.206
-76.5003
-74.8029
-76.6038
-76.4339
-76.3271
-76.2555
-76.079
-75.9569
-75.7811
-75.6443
-75.4929
-75.7227
-75.542
-75.2633
-74.3875
-74.4121
-71.3471
-71.6697
-71.6838
-72.1832
-72.0787
-72.0908
-72.7408
-72.6359
-72.5525
-72.4319
-73.8856
-73.5143
-73.105
-72.8978
-72.7997
-75.5077
-74.4042
-74.0202
-73.398
-73.2378
-73.1977
-76.5712
-76.1877
-74.8496
-74.2186
-73.7017
-73.5165
-73.4532
-76.9139
-76.5174
-75.5847
-74.8709
-74.354
-74.0829
-73.907
-73.8384
-76.5637
-76.5237
-76.2032
-75.4926
-74.8981
-74.5001
-74.2298
-74.26
-74.1746
-76.1776
-76.1572
-75.9505
-75.7162
-75.3335
-74.9046
-74.5403
-74.3294
-74.477
-74.3896
-76.0958
-76.1184
-76.0165
-75.8238
-75.6129
-75.334
-75.0669
-74.7957
-74.5691
-74.6638
-74.4675
-76.2456
-76.136
-76.1279
-75.9493
-75.8038
-75.5644
-75.3676
-75.1737
-75.1172
-74.9831
-75.063
-74.8407
-76.4613
-76.286
-76.1692
-76.0691
-75.9921
-75.7526
-75.6157
-75.5114
-75.4558
-75.142
-74.768
-74.8972
-74.6141
-76.5593
-76.4552
-76.3077
-76.1439
-76.1064
-75.9457
-75.7359
-75.6021
-75.4671
-75.3924
-75.8693
-76.1651
-76.5881
-74.8624
-76.6709
-76.6033
-76.4321
-76.3255
-76.2505
-76.0817
-75.9562
-75.7783
-75.6434
-75.4977
-75.7339
-75.5552
-75.3512
-74.5175
-74.4487
-71.0836
-71.3624
-71.3423
-71.7981
-71.6969
-71.6804
-72.1787
-72.2314
-72.1254
-72.0411
-73.1716
-72.6579
-72.6068
-72.4026
-72.3417
-74.177
-73.8488
-73.1511
-72.9159
-72.7542
-72.7366
-76.3596
-75.1118
-74.2501
-73.5843
-73.2425
-73.1344
-73.1362
-76.9392
-76.2975
-75.6415
-74.6791
-73.921
-73.6476
-73.5087
-73.4433
-77.154
-76.718
-76.2906
-75.3656
-74.6034
-74.243
-73.9968
-73.8488
-73.7693
-76.3771
-76.5801
-76.3384
-75.9064
-75.254
-74.7358
-74.3876
-74.1618
-74.2601
-74.103
-76.1225
-76.1779
-76.1265
-75.9135
-75.5809
-75.1815
-74.8242
-74.5074
-74.3309
-74.5258
-74.4329
-76.1553
-76.0855
-76.1044
-76.0011
-75.8051
-75.5722
-75.2872
-75.0402
-74.804
-74.6067
-74.6946
-74.5042
-76.3384
-76.24
-76.1246
-76.0954
-75.9459
-75.7754
-75.5314
-75.3508
-75.1628
-75.1081
-74.9969
-75.0454
-74.8707
-76.5226
-76.4493
-76.2677
-76.156
-76.0499
-75.9759
-75.7408
-75.6024
-75.4985
-75.4451
-75.1386
-74.7806
-74.8935
-74.6299
-76.6217
-76.5543
-76.4381
-76.3016
-76.1387
-76.1033
-75.939
-75.7297
-75.5958
-75.4725
-75.397
-75.8883
-76.1
-76.6376
-74.9073
-76.7868
-76.6696
-76.6045
-76.4306
-76.3243
-76.2457
-76.0847
-75.9553
-75.7755
-75.6423
-75.4975
-75.7444
-75.5789
-75.4301
-74.5938
-74.4869
-70.8899
-71.1318
-71.0987
-71.4082
-71.3367
-71.3628
-71.7147
-71.7087
-71.7186
-71.613
-72.2137
-72.1528
-72.111
-72.0673
-71.9559
-73.3997
-72.9236
-72.502
-72.5253
-72.3508
-72.3199
-74.6738
-74.1017
-73.5295
-72.9273
-72.9979
-72.6942
-72.6539
-76.8389
-75.8526
-74.773
-74.1265
-73.434
-73.4174
-73.1541
-73.0739
-77.2294
-76.7236
-76.2423
-75.0954
-74.3088
-73.8229
-73.6335
-73.4665
-73.2794
-76.8162
-77.1783
-76.5982
-75.7676
-75.1013
-74.4108
-74.1016
-73.8739
-73.8343
-73.6141
-76.16
-76.5362
-76.5299
-76.1641
-75.6799
-75.0268
-74.5798
-74.3025
-74.1447
-74.3096
-74.1356
-76.0961
-76.1598
-76.1736
-76.0697
-75.8698
-75.4632
-75.0646
-74.796
-74.5245
-74.3983
-74.5862
-74.4853
-76.3346
-76.1719
-76.1066
-76.077
-75.9433
-75.7466
-75.4982
-75.2593
-75.0261
-74.8189
-74.6614
-74.746
-74.5562
-76.5205
-76.3372
-76.2331
-76.1124
-76.0651
-75.9343
-75.7415
-75.507
-75.3468
-75.1612
-75.1042
-75.0089
-75.0615
-74.904
-76.6429
-76.5159
-76.4395
-76.2576
-76.1406
-76.0295
-75.9633
-75.729
-75.5912
-75.4622
-75.4196
-75.1347
-74.7976
-74.896
-74.6532
-76.7827
-76.6209
-76.5501
-76.4235
-76.2929
-76.1339
-76.1008
-75.9296
-75.7223
-75.5921
-75.4784
-75.4146
-75.8865
-76.0225
-76.6531
-74.943
-76.9174
-76.786
-76.6684
-76.6052
-76.429
-76.3234
-76.2422
-76.0879
-75.9548
-75.773
-75.6413
-75.4978
-75.7546
-75.6132
-75.4884
-74.6606
-74.5266
-70.6969
-70.8834
-70.8789
-71.1189
-71.1016
-71.0814
-71.3909
-71.3281
-71.3718
-71.3069
-71.8829
-71.7427
-71.6486
-71.6579
-71.5941
-72.4621
-72.2296
-72.1858
-72.0334
-71.9829
-71.9639
-73.7765
-73.2361
-72.828
-72.7189
-72.4455
-72.3876
-72.2718
-75.2728
-74.536
-73.9692
-73.4467
-73.168
-72.9525
-72.7393
-72.6163
-76.8373
-76.6526
-75.4355
-74.4645
-73.8184
-73.575
-73.3056
-73.1231
-73.0591
-76.959
-77.2817
-76.5245
-75.7888
-74.6768
-74.0974
-73.757
-73.5157
-73.3858
-73.2473
-76.7777
-76.996
-77.0588
-76.2805
-75.543
-74.7991
-74.3254
-74.0523
-73.8975
-73.8186
-73.6331
-76.1809
-76.2502
-76.6709
-76.4198
-75.9772
-75.4599
-74.8545
-74.4345
-74.2731
-74.2095
-74.4123
-74.2426
-76.356
-76.1718
-76.1778
-76.158
-75.9979
-75.7143
-75.3346
-74.998
-74.78
-74.5678
-74.47
-74.6512
-74.5756
-76.4942
-76.3385
-76.1925
-76.1148
-76.038
-75.9047
-75.7067
-75.434
-75.2463
-75.0267
-74.8519
-74.7339
-74.8219
-74.6227
-76.6174
-76.5205
-76.3352
-76.2224
-76.1006
-76.0456
-75.9154
-75.7098
-75.4862
-75.3422
-75.1658
-75.1136
-75.0173
-75.0913
-74.9402
-76.7869
-76.6393
-76.5113
-76.4357
-76.2483
-76.13
-76.0174
-75.9509
-75.7196
-75.5814
-75.4501
-75.3757
-75.166
-74.8221
-74.9
-74.6764
-76.904
-76.7749
-76.6196
-76.5476
-76.4116
-76.2865
-76.1303
-76.0963
-75.923
-75.7176
-75.59
-75.4879
-75.4145
-75.8571
-75.9402
-76.6195
-74.9826
-77.0054
-76.9154
-76.7852
-76.6675
-76.6039
-76.4263
-76.3223
-76.2393
-76.0909
-75.9545
-75.7713
-75.6406
-75.5001
-75.7647
-75.6539
-75.5298
-74.7417
-74.5694
-70.5276
-70.6948
-70.694
-70.8778
-70.8864
-70.8792
-71.1285
-71.0873
-71.0906
-71.0671
-71.4907
-71.4089
-71.4015
-71.3202
-71.3554
-71.9454
-71.8107
-71.7478
-71.7053
-71.6397
-71.7095
-72.6806
-72.3656
-72.1438
-72.1459
-72.0514
-72.0067
-71.959
-73.8772
-73.7469
-72.9736
-72.7657
-72.5153
-72.4747
-72.3853
-72.2212
-75.7917
-75.0587
-74.3302
-73.7079
-73.3506
-72.9962
-72.863
-72.6674
-72.5515
-76.8514
-76.8206
-76.2894
-75.0042
-74.2301
-73.7241
-73.364
-73.1917
-73.0562
-72.9484
-77.0604
-77.2551
-77.1641
-76.1592
-75.3459
-74.425
-73.9836
-73.6941
-73.535
-73.3645
-73.2688
-76.6333
-76.87
-77.1166
-76.758
-76.0167
-75.3051
-74.6554
-74.3152
-74.0651
-74.0127
-73.8249
-73.6873
-76.3886
-76.2922
-76.3271
-76.632
-76.2518
-75.7636
-75.2113
-74.7622
-74.3428
-74.24
-74.3347
-74.6393
-74.3208
-76.3458
-76.3936
-76.2343
-76.1821
-76.121
-75.92
-75.6316
-75.2123
-74.9774
-74.7968
-74.6255
-74.5522
-74.7879
-74.6823
-76.5038
-76.5111
-76.3478
-76.2087
-76.1149
-76.009
-75.8812
-75.6721
-75.3916
-75.2558
-75.0345
-74.8967
-74.8149
-74.9104
-74.7051
-76.7279
-76.6252
-76.5526
-76.3533
-76.2007
-76.0964
-76.0118
-75.8928
-75.6874
-75.482
-75.3212
-75.1754
-75.1097
-75.0286
-75.1254
-74.975
-76.8633
-76.7777
-76.6335
-76.5152
-76.4393
-76.235
-76.1226
-76.0137
-75.9398
-75.7109
-75.5748
-75.4475
-75.3503
-75.1718
-74.8634
-74.9122
-74.708
-76.992
-76.8998
-76.7702
-76.6186
-76.5458
-76.4024
-76.2811
-76.1277
-76.0927
-75.9174
-75.7141
-75.5894
-75.496
-75.4052
-75.8261
-75.8592
-76.5417
-75.0059
-77.1726
-77.0037
-76.9138
-76.7846
-76.6667
-76.6034
-76.4278
-76.3213
-76.2352
-76.0938
-75.9539
-75.7703
-75.6401
-75.5031
-75.7733
-75.7002
-75.5612
-74.8231
-74.6145
-70.3859
-70.5327
-70.5271
-70.7173
-70.7108
-70.6997
-70.9119
-70.9034
-70.8983
-70.8978
-71.171
-71.1372
-71.1134
-71.0999
-71.125
-71.5596
-71.4147
-71.4469
-71.3864
-71.3748
-71.3907
-72.0206
-71.9036
-71.7891
-71.7866
-71.7486
-71.7202
-71.6378
-72.6894
-72.5096
-72.2155
-72.2453
-72.1425
-72.085
-72.0279
-71.8993
-74.0563
-73.8466
-73.4397
-72.8395
-72.6742
-72.4729
-72.4084
-72.2727
-72.2
-75.9482
-75.7637
-74.7379
-74.1159
-73.5155
-73.1639
-72.8634
-72.7341
-72.6216
-72.5197
-76.6523
-77.1363
-76.6734
-75.7249
-74.7648
-74.0027
-73.623
-73.2873
-73.2133
-73.0138
-72.8702
-76.879
-77.3083
-77.354
-76.7945
-75.6953
-74.9825
-74.2682
-73.8873
-73.6418
-73.539
-73.4267
-73.2437
-76.517
-76.7264
-76.9982
-77.0534
-76.456
-75.7617
-75.0334
-74.5658
-74.3306
-74.1137
-74.121
-73.9874
-73.6522
-76.3197
-76.5196
-76.3851
-76.3692
-76.4895
-76.0663
-75.5798
-75.007
-74.6888
-74.3684
-74.2744
-74.4698
-74.8898
-74.4372
-76.4202
-76.4081
-76.413
-76.2881
-76.1571
-76.0569
-75.9029
-75.5567
-75.1416
-74.9784
-74.8436
-74.7078
-74.6388
-74.95
-74.8393
-76.6376
-76.5133
-76.5231
-76.3556
-76.223
-76.1118
-75.9808
-75.8537
-75.6347
-75.3718
-75.2126
-75.0681
-74.9509
-74.9058
-75.0006
-74.8092
-76.816
-76.7284
-76.6146
-76.5068
-76.3617
-76.176
-76.0892
-75.9911
-75.871
-75.6717
-75.4912
-75.3319
-75.1869
-75.1047
-75.0419
-75.1625
-75.0084
-76.9565
-76.8578
-76.7688
-76.623
-76.507
-76.434
-76.2257
-76.1174
-76.0128
-75.9291
-75.7051
-75.566
-75.4473
-75.3355
-75.1457
-74.9135
-74.9289
-74.7468
-77.1703
-76.9853
-76.8965
-76.7674
-76.6179
-76.5445
-76.3951
-76.2753
-76.1262
-76.0899
-75.9136
-75.713
-75.5907
-75.5004
-75.3915
-75.8051
-75.7886
-76.4024
-75.0409
-77.2511
-77.1714
-77.0022
-76.9122
-76.7846
-76.6661
-76.6001
-76.4351
-76.3205
-76.2309
-76.0965
-75.9536
-75.7695
-75.64
-75.5061
-75.7807
-75.739
-75.5871
-74.9029
-74.6521
-70.2546
-70.382
-70.4002
-70.5418
-70.5277
-70.5357
-70.6825
-70.7078
-70.6915
-70.7032
-70.8947
-70.8932
-70.9053
-70.8677
-70.8887
-71.185
-71.1498
-71.1167
-71.1363
-71.1078
-71.1271
-71.6117
-71.4958
-71.4739
-71.3615
-71.4418
-71.3839
-71.3428
-72.1749
-72.046
-71.908
-71.8506
-71.7015
-71.7092
-71.6881
-71.5931
-72.7981
-72.6377
-72.444
-72.288
-72.2573
-72.0686
-71.9622
-71.9656
-71.9043
-74.2883
-74.0141
-73.815
-73.0894
-72.7432
-72.6687
-72.4558
-72.3154
-72.2524
-72.1911
-75.9163
-75.9568
-75.3811
-74.4899
-73.9717
-73.3943
-73.0934
-72.9177
-72.6789
-72.5694
-72.5381
-76.683
-77.2423
-77.1389
-76.3276
-75.2568
-74.4666
-73.8804
-73.5098
-73.3359
-73.1274
-73.0786
-72.9575
-76.6768
-77.297
-77.4169
-77.2573
-76.308
-75.3959
-74.6233
-74.1325
-73.7667
-73.6486
-73.4215
-73.4473
-73.2773
-76.3902
-76.7904
-77.0073
-76.987
-76.8252
-76.1691
-75.6353
-74.8339
-74.5402
-74.4027
-74.3853
-74.1831
-74.1179
-73.6489
-76.2951
-76.4298
-76.6489
-76.4358
-76.3536
-76.2846
-75.9089
-75.3893
-74.8443
-74.6752
-74.4656
-74.4026
-74.6813
-75.168
-74.5832
-76.5486
-76.4744
-76.5202
-76.3979
-76.3268
-76.1464
-75.967
-75.8584
-75.4908
-75.1254
-75.0264
-74.9084
-74.8104
-74.7466
-75.114
-75.0374
-76.7491
-76.6544
-76.5271
-76.5122
-76.3792
-76.2041
-76.1007
-75.9528
-75.8237
-75.613
-75.4116
-75.2001
-75.1093
-75.0157
-74.9964
-75.0871
-74.9279
-76.9771
-76.8066
-76.7061
-76.6106
-76.5015
-76.3623
-76.1825
-76.0776
-75.9868
-75.8575
-75.6611
-75.4816
-75.3528
-75.2006
-75.1302
-75.0582
-75.2008
-75.0412
-77.153
-76.9436
-76.8544
-76.7619
-76.6161
-76.5043
-76.4231
-76.2236
-76.1138
-76.0067
-75.9144
-75.7026
-75.5645
-75.4489
-75.3267
-75.1258
-74.959
-74.9425
-74.7819
-77.2496
-77.1661
-76.9777
-76.894
-76.7609
-76.6163
-76.5434
-76.3895
-76.2703
-76.1258
-76.0865
-75.9136
-75.7131
-75.5935
-75.5053
-75.373
-75.7754
-75.7196
-76.2896
-75.102
-77.3149
-77.2496
-77.1701
-77.0011
-76.9107
-76.7845
-76.6651
-76.5916
-76.4407
-76.3199
-76.2269
-76.0991
-75.9539
-75.7689
-75.6403
-75.5097
-75.7867
-75.7638
-75.6091
-74.9673
-74.6861
-70.1379
-70.2708
-70.273
-70.3877
-70.398
-70.392
-70.5111
-70.542
-70.5208
-70.5296
-70.7038
-70.7319
-70.7011
-70.6808
-70.6988
-70.9576
-70.9594
-70.8999
-70.9136
-70.8713
-70.8907
-71.231
-71.2148
-71.1621
-71.0927
-71.1422
-71.1152
-71.0956
-71.7119
-71.5238
-71.5394
-71.4802
-71.3631
-71.377
-71.3593
-71.3399
-72.2085
-72.1737
-71.9153
-72.0002
-71.8075
-71.6813
-71.6732
-71.6264
-71.6187
-72.9633
-72.7458
-72.616
-72.3407
-72.325
-72.2122
-72.0458
-71.9977
-71.9386
-71.8954
-74.4121
-74.3784
-73.9283
-73.5178
-73.1256
-72.7219
-72.7242
-72.431
-72.3219
-72.257
-72.1993
-76.1866
-76.3449
-75.8753
-75.0463
-74.2796
-73.7003
-73.2779
-72.9864
-72.8255
-72.7115
-72.6253
-72.618
-76.5759
-77.1465
-77.4039
-76.8799
-75.8096
-74.897
-74.2251
-73.713
-73.3707
-73.3049
-73.0729
-73.0595
-72.9211
-76.6003
-77.0767
-77.365
-77.4106
-76.8884
-75.8985
-75.1367
-74.4433
-74.0804
-73.7967
-73.7116
-73.5223
-73.4538
-73.2036
-76.3946
-76.6584
-77.0733
-77.0754
-76.9066
-76.4852
-75.9034
-75.2105
-74.8366
-74.5861
-74.5086
-74.5996
-74.4035
-74.3175
-73.7784
-76.3624
-76.375
-76.4853
-76.656
-76.4841
-76.2775
-76.1285
-75.824
-75.2256
-74.7946
-74.7478
-74.6392
-74.7057
-74.9692
-75.3883
-74.799
-76.5767
-76.5945
-76.5276
-76.573
-76.4928
-76.3408
-76.1117
-75.9064
-75.7378
-75.4622
-75.1432
-75.0656
-74.9894
-74.9315
-74.8875
-75.2363
-75.2346
-76.8547
-76.7506
-76.6742
-76.5528
-76.5098
-76.3505
-76.2136
-76.0705
-75.939
-75.7864
-75.6163
-75.4288
-75.2587
-75.1542
-75.0907
-75.0842
-75.1699
-75.0173
-77.1007
-76.9672
-76.8081
-76.7136
-76.6088
-76.5038
-76.3662
-76.185
-76.0615
-75.9763
-75.844
-75.6612
-75.473
-75.3721
-75.218
-75.169
-75.0812
-75.2367
-75.0797
-77.2398
-77.1472
-76.9365
-76.8509
-76.7569
-76.6095
-76.5038
-76.4186
-76.22
-76.1179
-76.0122
-75.9042
-75.7035
-75.5666
-75.4525
-75.3207
-75.1142
-74.9898
-74.9524
-74.8241
-77.3169
-77.2423
-77.162
-76.9717
-76.8916
-76.7559
-76.6144
-76.5433
-76.3852
-76.2662
-76.1264
-76.0801
-75.913
-75.7134
-75.5977
-75.5131
-75.3551
-75.7367
-75.6498
-76.2121
-75.1541
-77.4046
-77.3127
-77.248
-77.1687
-76.9999
-76.9094
-76.7843
-76.6648
-76.5827
-76.4468
-76.3194
-76.223
-76.1016
-75.9544
-75.769
-75.641
-75.5141
-75.7915
-75.7893
-75.6237
-75.0212
-74.7174
-70.0574
-70.1544
-70.1622
-70.2672
-70.2832
-70.2627
-70.3896
-70.4016
-70.4012
-70.3797
-70.5576
-70.5439
-70.551
-70.5507
-70.5421
-70.7546
-70.744
-70.7327
-70.7092
-70.7203
-70.7139
-70.9837
-70.9882
-70.9378
-70.9312
-70.9255
-70.9073
-70.8775
-71.3231
-71.1991
-71.2375
-71.2016
-71.1839
-71.137
-71.0931
-71.0825
-71.7117
-71.6719
-71.6069
-71.5336
-71.4777
-71.4718
-71.3989
-71.3299
-71.3402
-72.4018
-72.2125
-72.1302
-72.0384
-71.904
-71.7772
-71.7538
-71.6699
-71.6204
-71.5977
-73.1172
-73.09
-72.7992
-72.5371
-72.4004
-72.2587
-72.119
-72.0493
-72.0132
-71.9145
-71.8781
-74.5528
-74.5481
-74.249
-73.8809
-73.2321
-73.0675
-72.63
-72.4288
-72.3719
-72.3407
-72.2133
-72.1798
-76.1069
-76.4924
-76.4302
-75.5883
-74.6844
-73.975
-73.621
-73.1834
-72.9599
-72.7826
-72.6315
-72.6333
-72.3801
-76.4445
-77.0093
-77.4509
-77.2852
-76.4572
-75.42
-74.4958
-74.0053
-73.656
-73.4204
-73.186
-73.0828
-73.0622
-72.8424
-76.496
-77.0909
-77.5122
-77.4352
-77.1949
-76.4517
-75.5521
-74.7935
-74.1397
-74.0572
-73.8291
-73.7704
-73.6534
-73.4594
-73.2769
-76.2755
-76.7111
-77.0223
-77.1813
-77.0605
-76.774
-76.2525
-75.6355
-74.9283
-74.7594
-74.6565
-74.5842
-74.7033
-74.5589
-74.5328
-73.8854
-76.4997
-76.4588
-76.4821
-76.6448
-76.5948
-76.4684
-76.1985
-75.9903
-75.7172
-75.2307
-74.9089
-74.8681
-74.8658
-74.9637
-75.3341
-75.5609
-74.9534
-76.705
-76.6087
-76.6609
-76.5861
-76.5463
-76.5143
-76.3435
-76.0702
-75.8606
-75.6974
-75.47
-75.1885
-75.1143
-75.0817
-75.0558
-75.0319
-75.3634
-75.373
-77.035
-76.8523
-76.7559
-76.6881
-76.5769
-76.5186
-76.4102
-76.2021
-76.05
-75.9199
-75.7668
-75.6169
-75.4202
-75.2986
-75.2155
-75.1711
-75.1719
-75.243
-75.1056
-77.2088
-77.1035
-76.9644
-76.8077
-76.7126
-76.5957
-76.4908
-76.3729
-76.1916
-76.0519
-75.9603
-75.8552
-75.6534
-75.4751
-75.3971
-75.2495
-75.2131
-75.1074
-75.2714
-75.118
-77.3186
-77.2232
-77.1437
-76.93
-76.8491
-76.7533
-76.5968
-76.5012
-76.4164
-76.219
-76.1156
-76.0139
-75.8951
-75.7063
-75.5717
-75.4548
-75.3199
-75.1261
-75.0083
-74.9657
-74.8489
-77.406
-77.3108
-77.236
-77.1579
-76.9655
-76.89
-76.7512
-76.6121
-76.5442
-76.3825
-76.2625
-76.1274
-76.0755
-75.911
-75.7151
-75.6049
-75.5255
-75.3467
-75.6932
-75.5837
-76.1217
-75.2203
-77.465
-77.4016
-77.3109
-77.2462
-77.1678
-76.9987
-76.9083
-76.7843
-76.6656
-76.5725
-76.4497
-76.3189
-76.2194
-76.1043
-75.9552
-75.7696
-75.6421
-75.5193
-75.7962
-75.8087
-75.6285
-75.0701
-74.7433
-69.9938
-70.0642
-70.0569
-70.1736
-70.1697
-70.1384
-70.2814
-70.2914
-70.2938
-70.2597
-70.3991
-70.4233
-70.3922
-70.3811
-70.4047
-70.5788
-70.5711
-70.5668
-70.543
-70.5435
-70.5477
-70.796
-70.7876
-70.7494
-70.7176
-70.7196
-70.7185
-70.6977
-71.0693
-71.0727
-70.9589
-70.9675
-70.9348
-70.9193
-70.8913
-70.874
-71.4431
-71.3008
-71.3014
-71.2278
-71.1971
-71.1889
-71.1446
-71.1058
-71.1025
-71.841
-71.736
-71.6474
-71.6245
-71.5078
-71.4673
-71.4295
-71.3993
-71.3759
-71.3317
-72.5391
-72.4098
-72.1817
-72.1866
-72.0541
-71.8482
-71.7267
-71.7119
-71.6701
-71.6179
-71.5815
-73.279
-73.0669
-73.0033
-72.7463
-72.5447
-72.408
-72.1957
-72.1075
-71.9954
-71.9604
-71.8751
-71.8153
-74.9641
-74.8439
-74.6193
-74.1909
-73.684
-73.1893
-72.8835
-72.6776
-72.4952
-72.3323
-72.2255
-72.2003
-72.06
-76.013
-76.6491
-76.6233
-76.014
-75.2784
-74.4299
-73.8368
-73.3876
-73.1273
-72.9623
-72.7121
-72.663
-72.4699
-72.4597
-76.4674
-77.0206
-77.3751
-77.5179
-76.9744
-75.8836
-74.9739
-74.2412
-73.8675
-73.5945
-73.37
-73.1707
-73.155
-72.8031
-72.9282
-76.3066
-76.9229
-77.5157
-77.6774
-77.3551
-76.8473
-75.9834
-75.1082
-74.6023
-74.125
-74.0504
-73.9117
-73.8191
-73.6292
-73.5165
-73.3493
-76.2769
-76.4687
-76.9315
-77.1543
-77.231
-76.9604
-76.5166
-76.0032
-75.3891
-75.0687
-74.8081
-74.8018
-74.7145
-74.8283
-74.7663
-74.6571
-73.9374
-76.5176
-76.5986
-76.6037
-76.6081
-76.7579
-76.7621
-76.4067
-76.1009
-75.8714
-75.6262
-75.2495
-75.0675
-74.9912
-75.0876
-75.1993
-75.6128
-75.742
-75.0857
-76.9174
-76.7151
-76.6666
-76.71
-76.6299
-76.5159
-76.4891
-76.3183
-76.0455
-75.8236
-75.6661
-75.4806
-75.2513
-75.1817
-75.1875
-75.1722
-75.1724
-75.4876
-75.5019
-77.1621
-77.0331
-76.8574
-76.7668
-76.701
-76.6049
-76.489
-76.4001
-76.222
-76.0337
-75.9154
-75.7396
-75.6387
-75.4346
-75.3431
-75.2756
-75.2514
-75.2492
-75.3104
-75.1788
-77.306
-77.1882
-77.1014
-76.9551
-76.8026
-76.7125
-76.5941
-76.479
-76.3743
-76.2129
-76.0443
-75.9467
-75.8517
-75.6455
-75.4817
-75.4222
-75.2759
-75.2444
-75.1343
-75.3059
-75.1552
-77.3915
-77.301
-77.2116
-77.1394
-76.9256
-76.8495
-76.748
-76.6052
-76.4955
-76.4158
-76.2155
-76.1161
-76.0162
-75.8924
-75.7087
-75.5787
-75.4548
-75.3258
-75.1516
-75.0246
-74.9801
-74.8673
-77.4648
-77.4
-77.3036
-77.2302
-77.1536
-76.9611
-76.8887
-76.7477
-76.6095
-76.5444
-76.3807
-76.2591
-76.1288
-76.0728
-75.91
-75.7171
-75.6131
-75.5339
-75.3355
-75.6482
-75.5172
-76.0361
-75.3029
-77.5739
-77.4627
-77.399
-77.3095
-77.2446
-77.1668
-76.9978
-76.9073
-76.7843
-76.6663
-76.5626
-76.4577
-76.3186
-76.2158
-76.1073
-75.9559
-75.7693
-75.6445
-75.5253
-75.7998
-75.8226
-75.6302
-75.1166
-74.7594
-69.8565
-69.9809
-69.9782
-70.0558
-70.0642
-70.0515
-70.1661
-70.1571
-70.1453
-70.1439
-70.245
-70.3075
-70.2653
-70.2535
-70.2767
-70.4472
-70.423
-70.4229
-70.412
-70.406
-70.4085
-70.6539
-70.5974
-70.5834
-70.5537
-70.5381
-70.5561
-70.5381
-70.8724
-70.8021
-70.7304
-70.7654
-70.7179
-70.7164
-70.7147
-70.7018
-71.138
-71.1007
-71.0584
-70.9956
-70.9624
-70.9348
-70.8816
-70.9045
-70.8974
-71.5261
-71.4137
-71.3638
-71.3336
-71.2368
-71.1778
-71.1389
-71.1302
-71.1199
-71.1056
-71.9018
-71.9017
-71.7763
-71.7197
-71.5962
-71.538
-71.478
-71.3797
-71.3915
-71.3441
-71.3298
-72.6075
-72.5663
-72.3481
-72.2761
-72.1213
-71.989
-71.8654
-71.8347
-71.6889
-71.65
-71.5997
-71.5367
-73.592
-73.2253
-73.1015
-73.0129
-72.7132
-72.5327
-72.3213
-72.1737
-72.1726
-71.9739
-71.9161
-71.8716
-71.7811
-74.7631
-74.8385
-74.847
-74.4852
-74.0716
-73.4821
-73.1689
-72.7613
-72.6356
-72.5343
-72.3099
-72.2791
-72.0745
-72.172
-75.8789
-76.4923
-76.8349
-76.6608
-75.703
-74.9334
-74.1624
-73.6597
-73.2765
-73.059
-72.9074
-72.6785
-72.6697
-72.4701
-72.4668
-76.2646
-76.7327
-77.4662
-77.6626
-77.2117
-76.4458
-75.421
-74.6448
-74.0556
-73.8529
-73.4991
-73.3478
-73.1891
-73.0401
-72.8495
-72.9831
-76.2813
-76.6609
-77.3868
-77.7581
-77.6422
-77.2135
-76.4568
-75.6952
-75.0224
-74.6242
-74.2542
-74.1324
-74.0922
-73.8816
-73.7409
-73.5825
-73.4084
-76.2164
-76.436
-76.7451
-77.1431
-77.2042
-77.1927
-76.7569
-76.2157
-75.8099
-75.3839
-75.075
-74.8691
-74.853
-74.9511
-74.9975
-75.0383
-74.7977
-74.0202
-76.6987
-76.5896
-76.6667
-76.7928
-76.718
-76.7128
-76.6385
-76.3659
-76.0013
-75.7402
-75.5359
-75.2825
-75.1676
-75.143
-75.3556
-75.463
-75.8581
-75.8739
-75.1658
-77.0079
-76.918
-76.7571
-76.7215
-76.7596
-76.6622
-76.533
-76.4513
-76.2782
-76.0057
-75.7962
-75.6605
-75.4985
-75.3184
-75.2606
-75.2567
-75.2781
-75.2875
-75.6123
-75.5864
-77.2409
-77.1321
-77.0338
-76.8693
-76.7797
-76.7161
-76.6223
-76.4892
-76.3977
-76.2175
-76.0297
-75.8921
-75.7528
-75.6236
-75.4512
-75.3942
-75.3296
-75.3239
-75.32
-75.3742
-75.2517
-77.3941
-77.2787
-77.1683
-77.1019
-76.9422
-76.8002
-76.7137
-76.5997
-76.4723
-76.3711
-76.2097
-76.0325
-75.9569
-75.8186
-75.6439
-75.4933
-75.4302
-75.2986
-75.2621
-75.1633
-75.3401
-75.1953
-77.4626
-77.3801
-77.2853
-77.2024
-77.1342
-76.9239
-76.8495
-76.7431
-76.603
-76.4922
-76.4144
-76.216
-76.1179
-76.0176
-75.8969
-75.7135
-75.5904
-75.4591
-75.3318
-75.164
-75.0507
-74.9943
-74.8976
-77.5607
-77.457
-77.3935
-77.2969
-77.2251
-77.1495
-76.9569
-76.8873
-76.7438
-76.6069
-76.5439
-76.384
-76.2557
-76.1297
-76.0706
-75.9102
-75.7191
-75.6201
-75.5447
-75.3207
-75.5967
-75.453
-75.9545
-75.3989
-77.583
-77.5727
-77.4604
-77.397
-77.3081
-77.2429
-77.1653
-76.9971
-76.9061
-76.7843
-76.6673
-76.5537
-76.4661
-76.3186
-76.2124
-76.1105
-75.957
-75.7697
-75.6484
-75.5316
-75.8026
-75.838
-75.6281
-75.1636
-74.7555
-69.8456
-69.855
-69.9852
-69.9773
-69.9768
-70.0869
-70.0309
-70.0617
-70.058
-70.2461
-70.1706
-70.1469
-70.1407
-70.1526
-70.3069
-70.3087
-70.3115
-70.2742
-70.2634
-70.2728
-70.4883
-70.3882
-70.4538
-70.3671
-70.4265
-70.429
-70.3998
-70.7093
-70.6291
-70.6324
-70.5775
-70.569
-70.5579
-70.5498
-70.548
-70.9212
-70.8188
-70.7976
-70.7983
-70.7448
-70.757
-70.7168
-70.7062
-70.7133
-71.2113
-71.1909
-71.0913
-71.0529
-71.0273
-70.9579
-70.9238
-70.9202
-70.9072
-70.8971
-71.6122
-71.5184
-71.502
-71.3889
-71.3195
-71.2206
-71.206
-71.1568
-71.1338
-71.0964
-71.0765
-71.9922
-71.9265
-71.878
-71.8751
-71.7108
-71.6029
-71.5753
-71.4837
-71.4131
-71.3559
-71.3195
-71.301
-72.5843
-72.6202
-72.4581
-72.4817
-72.2587
-72.1223
-71.9889
-71.8909
-71.8044
-71.683
-71.6328
-71.5824
-71.5605
-73.6747
-73.4779
-73.2138
-73.22
-72.7601
-72.6601
-72.5506
-72.4098
-72.174
-72.1226
-71.9428
-71.8895
-71.8449
-71.8028
-74.8017
-75.0137
-75.1082
-74.5943
-74.2969
-73.8847
-73.2293
-73.0435
-72.7948
-72.5343
-72.4195
-72.2799
-72.1925
-72.1927
-72.0527
-75.6487
-76.4613
-76.917
-77.0139
-76.2689
-75.3128
-74.6581
-73.9719
-73.5907
-73.2853
-73.0139
-72.8793
-72.6212
-72.5462
-72.5134
-72.4069
-76.1231
-76.5608
-77.3893
-77.7536
-77.6153
-76.8777
-75.9456
-75.1647
-74.5202
-73.9267
-73.7595
-73.5137
-73.374
-73.2912
-73.0294
-72.9167
-73.0056
-76.1809
-76.487
-77.1737
-77.66
-77.8172
-77.5225
-76.8868
-76.0876
-75.5481
-74.9628
-74.5702
-74.4189
-74.3152
-74.3596
-74.1473
-73.9879
-73.612
-73.5297
-76.3848
-76.4543
-76.6054
-77.1535
-77.3994
-77.4033
-76.9893
-76.6386
-75.9588
-75.6244
-75.266
-75.0777
-74.972
-75.0412
-75.2861
-75.0808
-75.2488
-74.9253
-74.1577
-76.8705
-76.7682
-76.7
-76.7042
-76.8719
-76.7774
-76.6427
-76.5999
-76.3171
-75.991
-75.639
-75.4875
-75.3219
-75.2646
-75.3083
-75.3327
-75.7477
-76.0375
-75.9452
-75.2264
-77.122
-77.0007
-76.9378
-76.8033
-76.7687
-76.7873
-76.694
-76.545
-76.3862
-76.2244
-75.975
-75.7824
-75.6493
-75.4967
-75.3894
-75.3404
-75.3342
-75.3803
-75.4058
-75.7001
-75.6347
-77.2977
-77.2061
-77.1169
-77.0367
-76.8833
-76.785
-76.7129
-76.6302
-76.4748
-76.3778
-76.215
-76.0325
-75.8791
-75.7567
-75.6149
-75.4686
-75.4594
-75.3861
-75.3822
-75.3834
-75.4267
-75.3087
-77.4471
-77.3712
-77.257
-77.1596
-77.1028
-76.9317
-76.7977
-76.7236
-76.5923
-76.4687
-76.3637
-76.195
-76.0315
-75.9813
-75.8349
-75.649
-75.5272
-75.4312
-75.3243
-75.2937
-75.1943
-75.3711
-75.2368
-77.5267
-77.4483
-77.3732
-77.2721
-77.195
-77.129
-76.9202
-76.8506
-76.7384
-76.6055
-76.4917
-76.4126
-76.2168
-76.1202
-76.0165
-75.8958
-75.7194
-75.6026
-75.4681
-75.3382
-75.1735
-75.0703
-74.9859
-74.9327
-77.5902
-77.5573
-77.4514
-77.3881
-77.291
-77.2206
-77.1452
-76.9542
-76.8876
-76.7398
-76.6047
-76.5392
-76.3925
-76.2528
-76.1314
-76.0689
-75.9107
-75.722
-75.6283
-75.561
-75.3108
-75.5384
-75.3922
-75.8354
-75.5169
-77.581
-77.5977
-77.5716
-77.4583
-77.3953
-77.3068
-77.2416
-77.1641
-76.9962
-76.9049
-76.7845
-76.6684
-76.5445
-76.4701
-76.3187
-76.209
-76.1141
-75.9587
-75.7716
-75.652
-75.5386
-75.8052
-75.8477
-75.6201
-75.2073
-69.8107
-69.8353
-69.8454
-69.9688
-69.9721
-69.9677
-69.9657
-70.0395
-70.0611
-70.0521
-70.0241
-70.0544
-70.1611
-70.2015
-70.1204
-70.1536
-70.1378
-70.1604
-70.2714
-70.334
-70.3249
-70.2382
-70.308
-70.2908
-70.2811
-70.5164
-70.4703