/*--------------------------------*- C++ -*----------------------------------*\
  =========                 |
  \\      /  F ield         | OpenFOAM: The Open Source CFD Toolbox
   \\    /   O peration     | Website:  https://openfoam.org
    \\  /    A nd           | Version:  7
     \\/     M anipulation  |
\*---------------------------------------------------------------------------*/
FoamFile
{
    version     2.0;
    format      ascii;
    class       surfaceScalarField;
    location    "1";
    object      phi;
}
// * * * * * * * * * * * * * * * * * * * * * * * * * * * * * * * * * * * * * //

dimensions      [0 3 -1 0 0 0 0];

internalField   nonuniform List<scalar> 
54125
(
-7.82358e-05
-6.22504e-06
-0.00175968
-0.000168952
5.7241e-05
-7.84439e-05
-1.49218e-05
-3.30551e-05
-0.00252896
-7.64961e-05
-2.36104e-06
-0.00168082
-0.000252274
2.82094e-05
-0.000132941
-0.000167604
7.10933e-05
0.000550844
-0.00015814
5.79501e-05
-5.475e-05
-4.99825e-05
-3.89628e-05
-0.00172416
-1.82807e-05
-2.92289e-05
-0.00248381
-8.21792e-05
-6.68002e-06
-0.00159196
-0.000418764
0.00010288
0.000300201
-0.000217406
8.45904e-05
-0.000612835
-0.000228373
1.69095e-05
-7.96175e-05
-0.000195806
6.42397e-05
0.000918862
-0.000158612
7.15532e-05
0.000677572
-0.000161921
6.54645e-05
-4.04727e-05
-5.97826e-05
-2.37254e-05
-0.000939152
-4.80284e-05
-3.55864e-05
-0.00166977
-3.04686e-05
-3.4012e-05
-0.00242601
-8.71929e-05
-5.77963e-06
-0.00149899
-0.000617755
0.000121443
0.00152025
-0.000377243
0.000148033
0.000742763
-0.000379379
0.000101338
0.000349869
-0.000270683
0.000120798
-0.000407582
-0.000197528
7.07119e-05
-0.000627721
-0.000227386
1.68961e-05
-3.10492e-05
-0.000173566
5.57782e-05
0.00053224
-0.000170436
6.91595e-05
0.00104366
-0.000166944
6.50435e-05
0.000814468
-0.000162775
7.70777e-05
-4.19683e-05
-8.15614e-05
3.26526e-06
-0.000148327
-5.63635e-05
-2.26917e-05
-0.000895684
-5.62432e-05
-3.76982e-05
-0.00160985
-3.70562e-05
-3.45105e-05
-0.00236022
-9.13086e-05
-5.78465e-06
-0.0014019
-0.000933261
0.000197918
0.00229887
-0.000642989
0.000319058
0.00109277
-0.000547996
0.000107907
0.00158096
-0.000419581
0.000208102
0.000325345
-0.000329272
0.000147275
0.00082857
-0.000377034
0.00011447
0.000385047
-0.000211035
0.000148924
-0.000692199
-0.000244081
0.000105787
-0.000369013
-0.000200753
6.62747e-05
-0.000643291
-0.000225997
1.66332e-05
1.55401e-05
-0.000160855
6.81762e-05
0.000191346
-0.000159146
5.21401e-05
0.000652041
-0.000182124
6.06863e-05
0.0011739
-0.000173199
6.76085e-05
0.00096008
-0.000158577
8.8297e-05
-6.29973e-05
-2.95452e-05
1.51733e-05
-0.000619182
-7.72627e-05
1.86122e-06
-9.56176e-05
-6.04049e-05
-2.35902e-05
-0.000849387
-5.93545e-05
-3.96859e-05
-0.00154532
-4.40299e-05
-3.53366e-05
-0.00228664
-9.42126e-05
-5.85308e-06
-0.00130183
-0.00121735
0.000234616
0.00245461
-0.000997455
0.000403743
0.00316505
-0.000849636
0.000221036
0.00237947
-0.00063794
0.000370088
0.00137551
-0.000462262
0.00025014
0.00108353
-0.000519126
8.19586e-05
0.00164109
-0.000374761
0.00026884
0.000115895
-0.000367812
0.000192704
0.000403647
-0.000325757
0.00015198
0.000916064
-0.000374075
0.000113203
0.000419922
-0.000192923
0.000162248
-0.000655178
-0.000197317
0.00012326
-0.0006715
-0.000247593
0.000103375
-0.000340645
-0.000212968
6.23206e-05
-0.000649209
-0.000223698
1.17112e-05
6.89502e-05
-0.000110944
9.28967e-05
-3.38414e-05
-0.000153012
5.92997e-05
0.000259935
-0.000164766
4.75574e-05
0.000769531
-0.000178923
7.16208e-05
0.00128946
-0.00017745
7.4038e-05
0.00110776
-0.000152696
9.88511e-05
-0.000103365
-1.18501e-05
1.76593e-05
-0.000569327
-2.89265e-05
1.43143e-05
-0.000602708
-8.00949e-05
2.6406e-06
-4.17536e-05
-6.0558e-05
-2.3868e-05
-0.000804647
-6.1977e-05
-4.07101e-05
-0.00147796
-5.15011e-05
-3.62518e-05
-0.00220474
-9.74245e-05
-6.66234e-06
-0.00119774
-0.00137459
0.000292534
0.00251621
-0.00125624
0.000418361
0.00365073
-0.00114819
0.000285474
0.00246769
-0.00090442
0.000568903
0.00297013
-0.000612809
0.000463645
0.00307299
-0.000800781
0.000196618
0.00246451
-0.0005548
0.000452945
0.00103386
-0.000494117
0.000313027
0.00143893
-0.000476994
0.000205339
0.00111139
-0.00049055
7.55172e-05
0.00168205
-0.00032909
0.000288693
0.000391242
-0.000340303
0.000229223
0.000222361
-0.000365422
0.000203805
0.000469651
-0.00032118
0.000145964
0.000991515
-0.000365795
0.000108331
0.000453689
-0.000157022
0.000192969
-0.000254629
-0.000192597
0.000133592
-0.000625925
-0.00019578
0.000118517
-0.000655629
-0.000249812
0.000106721
-0.000314156
-0.00023373
5.74445e-05
-0.000638662
-0.000220246
1.1405e-05
0.000125096
-7.67247e-05
0.000103173
-0.000287431
-0.000107018
8.31882e-05
2.03614e-05
-0.0001562
5.56896e-05
0.000327908
-0.000157895
5.57004e-05
0.000882788
-0.000174693
7.78345e-05
0.00139838
-0.000186239
7.55068e-05
0.00126584
-0.000150534
0.00010529
-0.000155546
-2.0799e-05
3.02562e-05
-0.000506572
-1.17791e-05
1.6467e-05
-0.000559701
-3.15825e-05
1.49647e-05
-0.00058345
-8.1749e-05
3.84886e-06
1.22786e-05
-6.40176e-05
-2.37813e-05
-0.000757558
-6.70502e-05
-4.17822e-05
-0.00140538
-5.54292e-05
-3.7306e-05
-0.00211867
-9.89278e-05
-6.17511e-06
-0.00109264
-0.00153655
0.000192557
0.00284764
-0.00133399
0.000437065
0.00356922
-0.00138719
0.000257298
0.00249791
-0.00119013
0.000657435
0.00344527
-0.000875333
0.000514297
0.00368443
-0.00111474
0.000184198
0.00259745
-0.000832512
0.000712384
0.00248476
-0.000642222
0.000534272
0.00304761
-0.000636545
0.000397203
0.00303195
-0.000744607
0.000135154
0.00258341
-0.000498194
0.000509362
0.000345081
-0.000463688
0.000401308
0.00106896
-0.000472352
0.000269118
0.00148208
-0.000484524
0.000193595
0.00115665
-0.000455209
6.95877e-05
0.00170188
-0.000231149
0.000290187
2.71919e-05
-0.000299295
0.000254905
0.000472259
-0.000342966
0.000245635
0.000327718
-0.000351155
0.000196154
0.000520803
-0.000317736
0.000135895
0.00104796
-0.000356895
0.000100419
0.000489919
-0.000121787
0.000196925
-0.000204174
-0.000157443
0.000172079
-0.000242691
-0.000202384
0.000130632
-0.000591855
-0.000205586
0.000121583
-0.0006228
-0.000246519
0.000109521
-0.000294406
-0.00024158
5.12172e-05
-0.000623133
-0.000206673
9.28445e-06
0.00017195
-6.51218e-05
0.000131171
1.25562e-05
-6.78439e-05
9.41162e-05
-0.000242295
-0.000117042
8.12546e-05
8.02554e-05
-0.000155181
5.20177e-05
0.000405023
-0.000161306
5.68611e-05
0.00100105
-0.000181017
7.39335e-05
0.00151392
-0.000180115
7.44318e-05
0.00142139
-0.000150035
0.000111178
-0.000215617
-2.75473e-05
3.97629e-05
-0.000407319
-2.0448e-05
2.78398e-05
-0.000497497
-1.26755e-05
1.68767e-05
-0.000548937
-3.40924e-05
1.50369e-05
-0.000560546
-8.22631e-05
4.92696e-06
6.58334e-05
-6.9507e-05
-2.4159e-05
-0.000705674
-6.98771e-05
-4.21087e-05
-0.0013307
-6.01062e-05
-3.7283e-05
-0.00202745
-9.97822e-05
-4.22421e-06
-0.000988635
-0.00169927
4.55132e-05
0.00298476
-0.00139309
0.000297461
0.00368219
-0.00134693
0.000142788
0.00266459
-0.00132072
0.000481633
0.00345744
-0.00104097
0.000402135
0.00359002
-0.0013532
0.000155549
0.00258082
-0.00119993
0.000905233
0.00295126
-0.000924532
0.0006275
0.00361438
-0.00091522
0.000414134
0.00373317
-0.00105473
0.000183733
0.00272385
-0.000682889
0.000806086
0.00162254
-0.000669312
0.000613627
0.00261103
-0.000607599
0.000452271
0.00312779
-0.000652047
0.00031192
0.00302271
-0.000696492
0.000118868
0.00270582
-0.00031965
0.000483064
0.000169023
-0.000428992
0.000452639
0.000423448
-0.000436974
0.000382455
0.00104963
-0.000416047
0.000263173
0.0014774
-0.000414435
0.000169761
0.00115318
-0.000402182
6.27693e-05
0.00168439
-0.000222613
0.00031408
-0.000180348
-0.000230978
0.000267194
8.84369e-05
-0.00027724
0.000244668
0.000548081
-0.000339077
0.0002429
0.000414463
-0.000347872
0.000192283
0.000565768
-0.000312015
0.000130702
0.00108811
-0.000342334
9.33146e-05
0.000532264
-6.30161e-05
0.000229907
0.000120905
-9.9287e-05
0.000181274
-0.000181927
-0.00019037
0.000171139
-0.000209869
-0.000204906
0.000132609
-0.000553157
-0.00020367
0.000122721
-0.000593635
-0.000244531
0.000103608
-0.000283283
-0.000234693
5.2277e-05
-0.000611548
-0.000188723
6.65363e-06
0.000203983
-5.23161e-05
0.000148896
-1.68888e-06
-6.66183e-05
0.000119943
3.28994e-05
-6.75217e-05
9.41461e-05
-0.00020034
-0.000122989
8.0317e-05
0.000140853
-0.000150413
5.17472e-05
0.000478287
-0.000165594
5.50004e-05
0.00111607
-0.000179272
7.6368e-05
0.00162138
-0.000186235
8.14241e-05
0.00157727
-0.000150579
0.000112174
-0.000276994
-1.94647e-05
4.67101e-05
-0.000454841
-2.58003e-05
3.65114e-05
-0.00039019
-2.18585e-05
2.82958e-05
-0.000487058
-1.2959e-05
1.70423e-05
-0.000537984
-3.49441e-05
1.54914e-05
-0.000536166
-8.20963e-05
5.51508e-06
0.000118256
-7.23043e-05
-2.49618e-05
-0.000650517
-7.78183e-05
-4.47624e-05
-0.00124541
-5.73015e-05
-3.54978e-05
-0.00193888
-9.84785e-05
-4.10594e-06
-0.00088605
-0.00184387
0.000153541
0.0027993
-0.00158788
0.000180546
0.00351757
-0.00132693
6.74015e-05
0.00289736
-0.00139065
0.000413598
0.00378997
-0.00120945
0.000316808
0.00367665
-0.00148625
0.000134578
0.00266306
-0.0013537
0.000579902
0.00332548
-0.00111061
0.000405143
0.0036405
-0.00107801
0.000348513
0.00355985
-0.00127494
0.000157686
0.00264335
-0.000973118
0.00097479
0.00281756
-0.00101736
0.000743801
0.003183
-0.000871744
0.000567913
0.00372474
-0.000885305
0.000451385
0.00369878
-0.00100817
0.000187895
0.00284763
-0.000453755
0.00082279
0.00111749
-0.000543662
0.000725804
0.00162503
-0.000577959
0.000580707
0.00262358
-0.000455322
0.000384659
0.00309432
-0.000547088
0.000262364
0.00301187
-0.000636145
9.86924e-05
0.00284109
-0.000263447
0.00047625
-0.000400562
-0.000295766
0.000444932
0.000241518
-0.000398042
0.000448253
0.000478452
-0.000411024
0.000359835
0.00102492
-0.000405493
0.000249474
0.0014553
-0.000381848
0.000138776
0.001147
-0.000350532
7.20728e-05
0.00162052
-9.67262e-05
0.000344781
2.93169e-05
-0.000183609
0.000289134
-0.000117967
-0.000273056
0.000273797
0.000141994
-0.000267197
0.000256194
0.000597079
-0.000312107
0.000229113
0.00048607
-0.00033923
0.000179778
0.000611391
-0.000298214
0.000132639
0.00111231
-0.000323519
8.89851e-05
0.000578075
-5.34907e-05
0.000244604
0.0001289
-8.40408e-05
0.000211738
0.000107864
-7.1599e-05
0.000181896
-0.000188606
-0.00019631
0.000174846
-0.000178785
-0.00020806
0.000136424
-0.000509214
-0.000205413
0.000130506
-0.000580714
-0.000236737
0.00010052
-0.00027406
-0.000231051
5.00605e-05
-0.000610139
-0.000174162
5.54034e-06
0.000222026
-8.07988e-05
0.000156241
-0.000494017
-4.54265e-05
0.000136793
1.08774e-06
-7.70025e-05
0.000121347
6.08423e-05
-6.39602e-05
9.51942e-05
-0.000164216
-0.000122807
8.03501e-05
0.000200113
-0.000139701
5.15308e-05
0.00053936
-0.000160022
5.5446e-05
0.00122471
-0.000179052
8.53314e-05
0.0017187
-0.000165994
8.51284e-05
0.00171301
-0.000148213
0.000121329
-0.000348588
-1.46686e-05
4.94552e-05
-0.000358281
-2.00979e-05
4.24222e-05
-0.000440654
-2.61276e-05
3.69315e-05
-0.000372698
-2.28495e-05
2.8751e-05
-0.000475917
-1.46197e-05
1.74246e-05
-0.000525297
-3.57318e-05
1.65676e-05
-0.000511487
-8.26703e-05
5.57707e-06
0.000170387
-7.32744e-05
-2.55189e-05
-0.000596486
-8.50519e-05
-4.58294e-05
-0.00115002
-6.28634e-05
-3.39077e-05
-0.00184621
-9.64443e-05
-3.20423e-06
-0.000786402
-0.00186667
7.54826e-05
0.00241238
-0.00174794
0.000345552
0.00324456
-0.00155776
0.000140291
0.00288984
-0.00155411
0.000472189
0.00388654
-0.001422
0.000271465
0.00352605
-0.00148402
0.000112469
0.00278266
-0.00156739
0.000531928
0.00417366
-0.00121107
0.000430401
0.00377684
-0.00122874
0.000357352
0.00360461
-0.0013877
0.000128606
0.00264721
-0.00112706
0.000733646
0.00312706
-0.00120582
0.000531971
0.00338712
-0.00112304
0.000466335
0.00377398
-0.00105025
0.000334463
0.00354802
-0.0012737
0.00013306
0.00277582
-0.000761741
0.00109669
0.00199901
-0.000847858
0.00083804
0.00302751
-0.000901072
0.000680285
0.00339374
-0.000551856
0.000595007
0.00367765
-0.000763187
0.000408772
0.003694
-0.000961781
0.00012875
0.00304451
-0.000298679
0.000726422
8.40684e-05
-0.000394341
0.000744777
0.00119709
-0.000509041
0.000717658
0.00159908
-0.0005006
0.00056232
0.00253549
-0.000467962
0.000358709
0.00306045
-0.000517674
0.000232605
0.00301378
-0.000488427
8.94762e-05
0.00288951
-0.000165152
0.000461766
0.000174827
-0.000269992
0.000451527
-0.000320774
-0.000311933
0.000454331
0.000274318
-0.00037936
0.000410666
0.000539785
-0.000374301
0.000352535
0.000984054
-0.000401205
0.000240847
0.00141521
-0.000336953
0.000119737
0.00113808
-0.000324944
8.24463e-05
0.0015395
-0.000109846
0.000354068
0.000174675
-0.000116333
0.000317949
3.27947e-05
-0.000117456
0.00029822
-9.65323e-05
-0.000287259
0.000288247
0.000200889
-0.000259586
0.000244651
0.000633067
-0.000294829
0.000212978
0.000542285
-0.000321751
0.000174869
0.000654174
-0.00029133
0.000131958
0.00112961
-0.000298047
8.82473e-05
0.000613714
-0.000152268
0.000256613
-0.000201493
-2.28106e-05
0.000223804
9.42186e-05
-0.000126661
0.000212184
0.000127234
-6.41373e-05
0.000184309
-0.000197892
-0.000202932
0.000180877
-0.000143113
-0.000200202
0.00013793
-0.000456136
-0.000205831
0.00012977
-0.000564156
-0.000231438
9.79833e-05
-0.000269596
-0.00022389
4.82896e-05
-0.000594992
-0.000164949
5.61669e-06
0.000233145
-5.52982e-05
0.000174789
-0.000263209
-8.04796e-05
0.000141298
-0.000438141
-5.32584e-05
0.00013821
1.13558e-05
-8.642e-05
0.000123662
9.59453e-05
-6.22327e-05
9.64306e-05
-0.000132683
-0.000122294
8.16445e-05
0.000256561
-0.000135291
4.87119e-05
0.000598716
-0.000154151
5.90137e-05
0.0013319
-0.000179866
8.43432e-05
0.0018143
-0.000165887
9.87432e-05
0.00183862
-0.00014464
0.000116302
-0.000416694
-2.19449e-05
5.70952e-05
-0.0002501
-1.426e-05
4.50858e-05
-0.000346684
-2.38889e-05
4.29171e-05
-0.000422751
-2.5454e-05
3.72338e-05
-0.000355727
-2.30372e-05
2.91843e-05
-0.000464639
-1.40431e-05
1.85994e-05
-0.000513286
-3.53442e-05
1.71787e-05
-0.000487744
-8.20887e-05
5.88146e-06
0.000221075
-7.79829e-05
-2.57441e-05
-0.000538588
-8.7729e-05
-4.61709e-05
-0.00105003
-6.94351e-05
-3.00963e-05
-0.00174988
-9.34234e-05
-6.01108e-06
-0.000686967
-0.00196571
0.00012073
0.0024426
-0.0016947
0.000164741
0.00303756
-0.00174888
0.000129181
0.00247432
-0.00152748
0.000346776
0.00379963
-0.00161527
0.000308649
0.00326946
-0.0015169
9.3535e-05
0.00282918
-0.00169994
0.00043625
0.00437748
-0.00133451
0.00048601
0.00379544
-0.00138461
0.000305958
0.00348843
-0.00143283
9.51698e-05
0.00273262
-0.00144532
0.000786179
0.00375499
-0.00133382
0.00054882
0.00418325
-0.00126096
0.00043892
0.00383318
-0.00121647
0.000325999
0.00357343
-0.0014344
0.000122652
0.00268525
-0.00109057
0.000943876
0.00277725
-0.00113557
0.000649916
0.00329683
-0.00100277
0.000534074
0.00342108
-0.000704364
0.000510542
0.00375041
-0.000928661
0.000280799
0.00356575
-0.00124168
0.00012949
0.00292623
-0.000429413
0.00108192
0.00142079
-0.000745902
0.0010509
0.00213772
-0.000808725
0.000868816
0.00313867
-0.000775341
0.000685724
0.00357776
-0.000719979
0.000526869
0.00381157
-0.000765393
0.000332876
0.00373759
-0.000703435
0.000107275
0.00315225
-0.000148027
0.000675448
0.000117585
-0.000325676
0.000677295
0.000207234
-0.0003669
0.000719766
0.00124995
-0.000443319
0.000707595
0.00151776
-0.000404893
0.000547803
0.00237699
-0.000431757
0.000357395
0.00296621
-0.000421838
0.000205992
0.00298215
-0.000514648
7.60865e-05
0.00300313
-8.98274e-05
0.000479409
-4.0033e-05
-0.000146326
0.000437915
0.000218432
-0.000259938
0.000448093
-0.000172054
-0.000347958
0.000451738
0.000293944
-0.000360638
0.000390671
0.0006027
-0.000309073
0.000339363
0.000899781
-0.000358146
0.000229122
0.00134222
-0.0003134
0.000133212
0.00110938
-0.000284108
8.73744e-05
0.00143819
-0.000197433
0.000379719
-0.000142626
-4.83355e-05
0.000324707
0.000193442
-0.000204077
0.00031181
9.66214e-05
-0.000104324
0.000297543
-6.56405e-05
-0.000320852
0.000281924
0.000281537
-0.000255584
0.000242871
0.000658556
-0.000292121
0.000202382
0.000601062
-0.000308025
0.000167124
0.000695595
-0.000278937
0.00013542
0.00113749
-0.000274879
9.05445e-05
0.000633099
-9.57757e-05
0.000282649
-0.000162729
-0.000170174
0.000234832
-0.000122828
-3.44451e-05
0.00022724
6.03488e-05
-0.000162327
0.000213536
0.000173914
-7.72789e-05
0.000180858
-0.000182826
-0.000201892
0.000173034
-9.8619e-05
-0.000197746
0.000138865
-0.000402776
-0.000207452
0.000122791
-0.000535662
-0.000224261
9.50263e-05
-0.000271938
-0.000212705
4.55834e-05
-0.000588141
-0.00015512
6.3897e-06
0.000237236
-8.88533e-06
0.000190471
0.000429616
-5.76324e-05
0.00015913
-0.000237669
-8.27208e-05
0.000139915
-0.000381014
-6.03317e-05
0.000140595
2.93e-05
-9.76935e-05
0.000123984
0.000143048
-6.23587e-05
9.86465e-05
-0.00010137
-0.000115363
8.5041e-05
0.000300251
-0.00012838
5.19074e-05
0.000652113
-0.000153821
5.5779e-05
0.00143631
-0.000173205
8.83269e-05
0.00191019
-0.00017522
9.52267e-05
0.00196547
-0.000137653
0.000120931
-0.000493396
-1.84824e-05
6.36352e-05
-0.00011667
-2.11744e-05
5.19883e-05
-0.000235828
-1.45418e-05
4.53569e-05
-0.000334582
-2.53231e-05
4.31998e-05
-0.000403394
-2.69798e-05
3.76132e-05
-0.000337176
-2.30579e-05
2.96541e-05
-0.000452636
-1.36814e-05
1.91601e-05
-0.000501586
-3.41435e-05
1.79751e-05
-0.000465694
-8.15199e-05
5.98089e-06
0.00027087
-7.86805e-05
-2.62411e-05
-0.000479838
-9.08915e-05
-4.59027e-05
-0.000943333
-6.11764e-05
-3.00905e-05
-0.00166463
-8.88087e-05
-1.30582e-05
-0.0005851
-0.00179425
-7.13591e-05
0.00250203
-0.00170674
5.44006e-05
0.00311558
-0.00174954
2.62518e-05
0.00241701
-0.00164858
0.000278901
0.00360675
-0.00170458
0.000296129
0.00295993
-0.00167361
0.000135537
0.0024955
-0.00151972
0.000288248
0.00438401
-0.00133556
0.000385494
0.00372383
-0.00150543
0.000182942
0.00330088
-0.00150046
4.26269e-05
0.00285418
-0.0016347
0.000364768
0.00416378
-0.00136273
0.000501518
0.00439087
-0.0013908
0.000436575
0.00379467
-0.00140878
0.000172978
0.00360293
-0.00147129
7.97669e-05
0.00268975
-0.00124934
0.000848483
0.00320245
-0.00131629
0.000626631
0.0038579
-0.00105544
0.000548016
0.00412681
-0.000846966
0.00034024
0.00396155
-0.000970488
0.000319702
0.00341821
-0.00135509
8.30043e-05
0.00271566
-0.000716464
0.00118879
0.00228453
-0.00108101
0.00104417
0.00271811
-0.00115221
0.000739595
0.0034348
-0.00102697
0.000586151
0.0035971
-0.000853292
0.000479593
0.00368493
-0.000989132
0.000306382
0.0036126
-0.000977448
0.000120985
0.00307925
-0.00020839
0.00102573
0.000827939
-0.000267643
0.00100984
0.00140381
-0.000650068
0.00107082
0.00221888
-0.000687104
0.000895375
0.0031728
-0.000651616
0.000676789
0.00367457
-0.000638791
0.000452278
0.00389921
-0.000689968
0.000295731
0.00381727
-0.000871666
0.000131421
0.00337784
6.80521e-05
0.000654232
-6.37042e-05
-0.000149814
0.000634648
0.00016372
-0.000358281
0.000670399
0.000354944
-0.000377695
0.000695838
0.00129144
-0.000396517
0.000663091
0.00143835
-0.000274839
0.000525744
0.00217441
-0.000330202
0.000331252
0.00281301
-0.000379602
0.000173959
0.00295048
-0.000404326
6.48919e-05
0.00305846
-0.00022639
0.000474337
-0.000259783
-8.58539e-05
0.000451572
-1.61714e-05
-0.000191037
0.000427539
0.000225945
-0.000231287
0.000451492
-4.48451e-05
-0.000387437
0.000422731
0.000328468
-0.000360703
0.00036922
0.000677963
-0.000313048
0.000321952
0.000827878
-0.000315939
0.000228567
0.00125478
-0.000287474
0.000147275
0.00105802
-0.000230724
9.18229e-05
0.00130221
-0.000106844
0.000438743
9.40421e-06
-0.000231566
0.000343114
-9.9641e-05
-4.96711e-05
0.000350737
0.00016974
-0.000247473
0.000312348
0.000166962
-0.000160594
0.000275123
2.44763e-05
-0.000319195
0.000281112
0.000360599
-0.000251605
0.00024818
0.000666618
-0.000289516
0.000199026
0.000651223
-0.000291883
0.000163923
0.000734715
-0.000254793
0.000142248
0.00112787
-0.000254137
9.02366e-05
0.00064188
-7.56742e-06
0.000321862
0.000721863
-8.29794e-05
0.000253079
-0.000155629
-0.000118518
0.000241724
-0.000101515
-5.12042e-05
0.000229321
3.54359e-05
-0.000202486
0.000203867
0.000255697
-9.06116e-05
0.000176331
-0.000157871
-0.000182089
0.000162314
-5.53428e-05
-0.000192685
0.000133524
-0.000349204
-0.000198575
0.000118884
-0.000514766
-0.000215117
8.94951e-05
-0.000273939
-0.000204713
4.28375e-05
-0.000595095
-0.000145798
9.88042e-06
0.000235501
-2.99241e-05
0.000212664
0.000206705
-4.53971e-06
0.000174016
0.000398096
-5.83591e-05
0.000158728
-0.000212664
-8.52521e-05
0.00013788
-0.000318369
-7.76904e-05
0.000140769
6.32252e-05
-9.74302e-05
0.000125452
0.000190615
-6.87433e-05
9.92818e-05
-6.05488e-05
-0.000109593
8.82973e-05
0.00033931
-0.000122573
5.42222e-05
0.000694723
-0.000143878
5.60886e-05
0.00153374
-0.000167199
9.72041e-05
0.00198452
-0.000136526
9.95433e-05
0.00206221
-0.000125293
0.000121072
-0.000577984
-1.30633e-05
6.21664e-05
-0.000410632
-1.71982e-05
5.77097e-05
-0.000105193
-2.26125e-05
5.22486e-05
-0.000220107
-1.57214e-05
4.56042e-05
-0.000321265
-2.63718e-05
4.34935e-05
-0.000382902
-2.65125e-05
3.8071e-05
-0.000319081
-2.31359e-05
3.01365e-05
-0.000440477
-1.42532e-05
1.98152e-05
-0.000489173
-3.41851e-05
1.85217e-05
-0.00044405
-8.12635e-05
5.90678e-06
0.000319986
-7.92999e-05
-2.74997e-05
-0.000418941
-9.51964e-05
-4.6553e-05
-0.000831674
-7.44649e-05
-3.52689e-05
-0.00156795
-8.35066e-05
-1.98505e-05
-0.000481743
-0.00180988
2.2371e-05
0.00241216
-0.00165069
-6.52222e-05
0.00318814
-0.00168277
-4.85099e-05
0.00248376
-0.00151404
-0.000108574
0.00355671
-0.0015387
-7.37135e-05
0.00304967
-0.00168758
1.9893e-06
0.00242899
-0.00125545
0.000220092
0.00410139
-0.00131179
0.000274968
0.00360415
-0.00166546
0.000162835
0.00309266
-0.00159747
0.000154363
0.00243814
-0.00151503
0.000323252
0.00453241
-0.00121943
0.000340164
0.00428605
-0.00140013
0.000320275
0.00359583
-0.00142977
7.32513e-05
0.00329125
-0.00148681
6.08282e-05
0.00280888
-0.00131625
0.000236956
0.00441321
-0.00136106
0.000384226
0.00432584
-0.00110953
0.000475902
0.00440564
-0.00110168
0.00038223
0.00384012
-0.00109107
0.000250163
0.00355311
-0.00141918
6.02011e-05
0.00269364
-0.000869024
0.000943759
0.00296442
-0.00111082
0.000564224
0.00329467
-0.00134158
0.000594449
0.00400084
-0.000898947
0.000449337
0.00388969
-0.00089189
0.000491158
0.00382869
-0.0010935
0.00026759
0.00333799
-0.00125586
0.000110059
0.00288401
-0.000385203
0.00130363
0.00194004
-0.000560754
0.0012883
0.0023335
-0.00108325
0.000980942
0.00290994
-0.000997011
0.000799642
0.00353121
-0.000876462
0.000620089
0.00368145
-0.00088797
0.000455602
0.00378489
-0.000961588
0.000292351
0.00371285
-0.00113367
0.000133096
0.00320816
0.00020058
0.000884211
0.000205847
-0.000197686
0.000988231
0.00089742
-0.000484164
0.00103068
0.00156983
-0.000611217
0.00103631
0.00231147
-0.000548174
0.000881658
0.00311959
-0.000515917
0.000655719
0.0037122
-0.00047173
0.000403728
0.00393274
-0.000623827
0.000258791
0.00393412
-0.00062365
4.96181e-05
0.00354755
-0.000128284
0.00059532
-0.000176559
-8.26285e-05
0.000598097
-3.03795e-05
-0.00012602
0.000672405
9.66969e-05
-0.000359544
0.00068268
0.000496359
-0.000391148
0.000674225
0.00128402
-0.000375441
0.000599089
0.00137975
-0.000235679
0.000485817
0.00194247
-0.000248062
0.000309435
0.00260965
-0.000259835
0.00016172
0.00282601
-0.000267538
8.73436e-05
0.00300793
-9.44534e-05
0.00052845
0.000216032
-0.000222141
0.000433218
-0.000250854
-9.03395e-05
0.00045973
-7.69451e-06
-0.000201112
0.000429007
0.000202071
-0.000272323
0.000439373
5.02421e-05
-0.000408539
0.000396465
0.000390567
-0.000327452
0.000357626
0.000718136
-0.000349053
0.000303189
0.000812794
-0.000288473
0.000228962
0.00116968
-0.000259611
0.000157906
0.000996754
-0.00023475
9.38506e-05
0.00118897
-8.14176e-05
0.000467366
0.000377183
-8.24186e-05
0.000406953
-5.49959e-05
-0.000176699
0.000355587
-4.631e-05
-7.74242e-05
0.000367766
0.000140543
-0.000281288
0.000301246
0.00021964
-0.000204018
0.000283435
0.00013556
-0.000274749
0.000285467
0.000415972
-0.000238379
0.000250301
0.000661037
-0.000274294
0.000192094
0.000698772
-0.000271456
0.000161946
0.000771356
-0.000230635
0.000145376
0.00109865
-0.000228598
8.5338e-05
0.000639341
-4.22205e-05
0.000339109
0.000147631
1.17703e-05
0.00029704
0.000661593
-9.28493e-05
0.000255031
-0.000134445
-0.000108486
0.000246435
-9.53944e-05
-9.81132e-05
0.000229712
3.00137e-05
-0.000181285
0.000201741
0.000314142
-0.000111308
0.000169094
-0.000122086
-0.000170735
0.000159592
-2.0269e-05
-0.000192848
0.000130377
-0.000290421
-0.000189486
0.000110898
-0.000490561
-0.000203318
8.6844e-05
-0.000281826
-0.000193775
4.16205e-05
-0.000569587
-0.000138053
1.33329e-05
0.000234929
-7.22497e-05
0.000205191
-0.000329143
-2.0029e-05
0.000193751
0.0001898
-6.17455e-07
0.000175495
0.000359333
-6.01616e-05
0.000157315
-0.000187659
-8.2436e-05
0.000138917
-0.000260453
-8.11902e-05
0.000140642
0.000102713
-9.67543e-05
0.000125041
0.000238475
-7.19338e-05
9.97746e-05
-1.43455e-05
-0.000105984
8.72817e-05
0.00037805
-0.000118805
5.51494e-05
0.000733203
-0.000131157
5.77257e-05
0.00162508
-0.000158083
9.9964e-05
0.00204699
-0.000137227
0.000106498
0.00213955
-0.000110235
0.000117375
-0.00066863
-2.00974e-05
6.64282e-05
-0.000289799
-1.13094e-05
5.65078e-05
-0.00039812
-1.74189e-05
5.78588e-05
-9.33844e-05
-2.34007e-05
5.24842e-05
-0.000203587
-1.5904e-05
4.59294e-05
-0.000307797
-2.76576e-05
4.38784e-05
-0.000361052
-2.67717e-05
3.84799e-05
-0.000300652
-2.24467e-05
3.05901e-05
-0.000428805
-1.50326e-05
2.03413e-05
-0.00047596
-3.43371e-05
1.89787e-05
-0.000422785
-8.09637e-05
5.86898e-06
0.000367581
-8.40093e-05
-2.88973e-05
-0.000352587
-9.32024e-05
-4.76647e-05
-0.000726076
-8.35477e-05
-3.80931e-05
-0.00146616
-7.98451e-05
-1.91801e-05
-0.000382718
-0.00183948
-5.32684e-06
0.00219937
-0.00172908
0.000120828
0.0028777
-0.00163074
8.39398e-06
0.00235174
-0.0013949
-0.000102608
0.00349402
-0.00146281
-2.97213e-05
0.00309345
-0.00165315
-2.35522e-05
0.00247288
-0.00123283
3.10691e-05
0.00388066
-0.0013822
-1.37927e-05
0.0035672
-0.00163093
-2.72122e-05
0.00304433
-0.00162687
1.81744e-05
0.00244021
-0.00126473
0.000167624
0.00449599
-0.001038
0.000325465
0.00386946
-0.0012815
0.00018351
0.00346484
-0.00133547
0.000128591
0.00302413
-0.00158651
6.31578e-05
0.00247468
-0.00141487
0.000287852
0.0045837
-0.00126377
0.0003865
0.00438879
-0.00103942
0.000451307
0.0040849
-0.0012844
0.000206623
0.00364518
-0.00135604
0.000204094
0.00341296
-0.00148732
1.23899e-05
0.00286462
-0.00120756
0.000417569
0.00413325
-0.00115806
0.000213358
0.00463132
-0.00142143
0.000494671
0.00438693
-0.00094073
0.000604455
0.0042252
-0.0010879
0.000466982
0.00381931
-0.00125057
0.000294864
0.00347552
-0.00134586
6.83627e-05
0.00271529
-0.000520978
0.00119473
0.00256805
-0.00103515
0.000803188
0.00319985
-0.00128037
0.000604975
0.00348127
-0.00116598
0.000626039
0.00399311
-0.00102692
0.00056922
0.00396209
-0.00089658
0.0004143
0.00369059
-0.00109454
0.000245499
0.00333551
-0.00125498
0.000121478
0.00288385
0.000177406
0.00118828
0.00137528
-0.000340551
0.00130656
0.00206465
-0.000873728
0.0011184
0.00258561
-0.00111441
0.000960898
0.00325188
-0.00085019
0.000776777
0.00367654
-0.000816045
0.000633929
0.00380325
-0.000726291
0.000450371
0.00388143
-0.000894415
0.000269522
0.00384702
-0.000848608
6.57965e-05
0.00336732
0.000159921
0.000807592
-0.000201547
-6.16869e-05
0.000878178
0.000294958
-0.000209872
0.00102779
0.00098417
-0.000517727
0.000978862
0.00178546
-0.000557874
0.0010048
0.00235506
-0.000454802
0.00086939
0.00298528
-0.000368101
0.000612931
0.00363542
-0.000337245
0.000373532
0.00390718
-0.000456611
0.000189393
0.00399112
-0.000493537
7.55575e-05
0.00369799
-3.28384e-05
0.000626807
0.000275796
-0.000108008
0.000551957
-0.000244552
-0.000165648
0.000627502
8.98325e-05
-0.000211799
0.00068076
0.000109303
-0.00034263
0.000667842
0.00057305
-0.000387843
0.000633261
0.00122915
-0.000274302
0.000550959
0.00126145
-0.000247827
0.000448463
0.00170222
-0.000164314
0.000304431
0.00234278
-0.000175218
0.000179232
0.00264973
-0.000293425
0.000115386
0.00295122
-3.25176e-06
0.000634973
0.000405182
-0.000111934
0.000491285
0.000187481
-0.000215341
0.000448717
-0.000201198
-0.000155062
0.000449063
4.98873e-05
-0.000233215
0.000425089
0.000168281
-0.000336463
0.000442066
0.000137085
-0.000389984
0.000391572
0.000471855
-0.000301067
0.000343062
0.00074095
-0.000352362
0.000294044
0.00082578
-0.000261587
0.000223987
0.00109373
-0.00023785
0.000162191
0.000935629
-0.000217695
9.43236e-05
0.00108374
-2.89894e-05
0.000477698
0.000374535
-8.61231e-05
0.000432436
0.000449593
-0.000104326
0.000392423
-8.0354e-05
-0.000159924
0.00037136
1.53339e-06
-0.000120297
0.000376969
8.7004e-05
-0.000219915
0.000292778
0.000248928
-0.000219475
0.000298775
0.000230419
-0.000252522
0.000284671
0.000463388
-0.00022337
0.000245416
0.000638236
-0.000246576
0.000190541
0.000727267
-0.000249132
0.00015927
0.000803276
-0.00019936
0.000140904
0.00104867
-0.000202606
8.27143e-05
0.000621179
-0.000143905
0.000350999
-0.000120356
-1.78834e-05
0.00030897
0.000133555
3.94809e-05
0.000298751
0.000577774
-9.33232e-05
0.000261446
-0.000116294
-0.000115624
0.000250846
-8.33406e-05
-0.000137927
0.000225119
6.33721e-05
-0.000153859
0.000201985
0.000338356
-0.000120059
0.00016952
-8.38877e-05
-0.000159544
0.000156963
6.70512e-06
-0.00018372
0.000126401
-0.000241009
-0.000179202
0.000107077
-0.000462749
-0.0001902
8.44063e-05
-0.000292495
-0.000183665
4.02492e-05
-0.000550066
-0.000131522
1.8869e-05
0.000237346
-5.39488e-05
0.000219831
-0.000155182
-6.24508e-05
0.000187054
-0.000271305
-1.62096e-05
0.00019375
0.000170336
-4.90129e-06
0.000176493
0.000321655
-5.42151e-05
0.000157414
-0.000167845
-8.41398e-05
0.000140501
-0.000203829
-8.21243e-05
0.000141693
0.000141414
-9.048e-05
0.000125287
0.000280995
-7.33014e-05
0.000100089
3.11156e-05
-0.000105377
8.72113e-05
0.000417028
-0.000116391
5.34677e-05
0.000772888
-0.000132237
5.79606e-05
0.00171531
-0.000136356
0.00011046
0.00208618
-0.000131116
0.000100955
0.00220354
-0.000102307
0.000105435
-0.000751603
-1.78126e-05
7.37589e-05
-2.90735e-05
-1.75905e-05
6.03143e-05
-0.000276015
-1.21695e-05
5.68844e-05
-0.000384976
-1.76748e-05
5.84415e-05
-8.16668e-05
-2.42245e-05
5.27315e-05
-0.000186164
-1.46705e-05