/*--------------------------------*- C++ -*----------------------------------*\
  =========                 |
  \\      /  F ield         | OpenFOAM: The Open Source CFD Toolbox
   \\    /   O peration     | Website:  https://openfoam.org
    \\  /    A nd           | Version:  7
     \\/     M anipulation  |
\*---------------------------------------------------------------------------*/
FoamFile
{
    version     2.0;
    format      ascii;
    class       surfaceScalarField;
    location    "1";
    object      phi_0;
}
// * * * * * * * * * * * * * * * * * * * * * * * * * * * * * * * * * * * * * //

dimensions      [0 3 -1 0 0 0 0];

internalField   nonuniform List<scalar> 
54125
(
-7.81982e-05
-7.38914e-06
-0.00176043
-0.000168831
5.69074e-05
-7.05449e-05
-1.6762e-05
-3.46393e-05
-0.00253626
-7.70729e-05
-6.73198e-07
-0.00168269
-0.000251494
2.81986e-05
-0.000130372
-0.000167617
7.11469e-05
0.000553956
-0.000158006
5.75831e-05
-4.71952e-05
-4.98851e-05
-3.9419e-05
-0.00173105
-1.57948e-05
-2.70454e-05
-0.0024941
-8.24717e-05
-6.51251e-06
-0.0015937
-0.000417174
0.000102282
0.000295214
-0.000217192
8.4559e-05
-0.000609668
-0.000227692
1.69113e-05
-7.75976e-05
-0.000195036
6.42944e-05
0.000921136
-0.0001585
7.12522e-05
0.000682991
-0.000161793
6.50496e-05
-3.29236e-05
-5.96185e-05
-2.37935e-05
-0.000950111
-4.7982e-05
-3.57365e-05
-0.00167438
-2.96041e-05
-3.31388e-05
-0.00243787
-8.74886e-05
-5.84295e-06
-0.00150037
-0.000615087
0.000121045
0.00150826
-0.000375558
0.000147548
0.000739073
-0.000378096
0.000100838
0.00034478
-0.000269939
0.000120465
-0.000405175
-0.000196756
7.11896e-05
-0.00062569
-0.000226719
1.6486e-05
-2.91579e-05
-0.000173572
5.56747e-05
0.000536671
-0.000170077
6.89876e-05
0.0010455
-0.000166828
6.43677e-05
0.000820897
-0.000162637
7.67209e-05
-3.44965e-05
-8.12262e-05
3.31905e-06
-0.000158608
-5.63959e-05
-2.28736e-05
-0.000906578
-5.6115e-05
-3.73081e-05
-0.0016141
-3.62406e-05
-3.41064e-05
-0.00237336
-9.18322e-05
-5.90632e-06
-0.00140263
-0.000930902
0.000197121
0.00229828
-0.000638601
0.000316903
0.00107808
-0.00054527
0.000106868
0.00156857
-0.00041808
0.000207709
0.000324538
-0.000328748
0.000146591
0.000825312
-0.000375982
0.00011433
0.000379713
-0.000210341
0.000148625
-0.000689752
-0.000243332
0.000105451
-0.000366182
-0.000200509
6.60893e-05
-0.000641613
-0.000225358
1.68228e-05
1.67409e-05
-0.00016071
6.80379e-05
0.000196917
-0.00015892
5.1875e-05
0.000656307
-0.000182065
6.02612e-05
0.00117555
-0.000172626
6.75204e-05
0.000966482
-0.000158368
8.79963e-05
-5.59565e-05
-2.94243e-05
1.51077e-05
-0.000621344
-7.69549e-05
1.85396e-06
-0.00010638
-6.02633e-05
-2.36728e-05
-0.00085995
-5.93952e-05
-3.97561e-05
-0.00154905
-4.32943e-05
-3.49603e-05
-0.00230101
-9.45735e-05
-6.0395e-06
-0.00130202
-0.00121808
0.000234604
0.0024555
-0.000990019
0.000404577
0.00315165
-0.000846572
0.000221769
0.00237781
-0.000634162
0.000368322
0.00136362
-0.000458992
0.000247294
0.0010679
-0.000516496
8.16443e-05
0.00162744
-0.000373638
0.00026802
0.000116183
-0.000366789
0.000192376
0.00040221
-0.000324602
0.00015175
0.000911984
-0.000373193
0.000112035
0.000415513
-0.0001926
0.000162112
-0.00064975
-0.000196585
0.000123196
-0.000669832
-0.000246675
0.000102996
-0.00033848
-0.000213236
6.24528e-05
-0.000646632
-0.000223022
1.18361e-05
6.9559e-05
-0.000110697
9.28994e-05
-3.29398e-05
-0.000152766
5.90226e-05
0.00026558
-0.000164412
4.77284e-05
0.000772988
-0.000178106
7.21051e-05
0.00128968
-0.000176797
7.37436e-05
0.00111424
-0.000152424
9.8436e-05
-9.65414e-05
-1.18474e-05
1.76174e-05
-0.000570343
-2.87759e-05
1.42157e-05
-0.00060493
-7.97862e-05
2.39314e-06
-5.26601e-05
-6.03508e-05
-2.40526e-05
-0.000815303
-6.18171e-05
-4.07373e-05
-0.00148146
-5.15497e-05
-3.6272e-05
-0.00221923
-9.74392e-05
-7.10392e-06
-0.00119748
-0.00137686
0.000294454
0.00250923
-0.00124987
0.000420352
0.00365095
-0.00114756
0.000286107
0.00247037
-0.000898941
0.000568337
0.00296058
-0.000603428
0.000463975
0.00305388
-0.00079627
0.000192941
0.00246464
-0.000552241
0.00045138
0.00101897
-0.000491855
0.000310989
0.00142499
-0.00047873
0.000203869
0.0010998
-0.000488298
7.55754e-05
0.00166697
-0.000328147
0.000287859
0.000390812
-0.000339283
0.000228571
0.000222686
-0.000364443
0.000203526
0.000468202
-0.000320174
0.000145182
0.000985775
-0.000364978
0.000107216
0.000450253
-0.000156802
0.000192761
-0.000250564
-0.00019204
0.00013364
-0.00062092
-0.000194896
0.000118175
-0.000654527
-0.000248672
0.000106374
-0.000311835
-0.000233014
5.77781e-05
-0.000636358
-0.000219374
1.11417e-05
0.000125367
-7.66567e-05
0.000103164
-0.000285947
-0.000106689
8.32035e-05
2.07928e-05
-0.000155954
5.57564e-05
0.00033372
-0.00015725
5.61702e-05
0.000885822
-0.000174342
7.75652e-05
0.00139838
-0.000185762
7.48145e-05
0.00127207
-0.000150346
0.000104987
-0.000148622
-2.08802e-05
3.02272e-05
-0.000506735
-1.17239e-05
1.64198e-05
-0.000560823
-3.14366e-05
1.48574e-05
-0.000585958
-8.15052e-05
3.73237e-06
1.06021e-06
-6.386e-05
-2.39145e-05
-0.000768265
-6.70118e-05
-4.17174e-05
-0.001409
-5.6538e-05
-3.75822e-05
-0.00213221
-9.90526e-05
-7.53682e-06
-0.00109089
-0.00153505
0.00019471
0.00283926
-0.0013256
0.000437903
0.00356528
-0.00138894
0.000254413
0.00249619
-0.00118546
0.000660071
0.00344361
-0.000869229
0.000517964
0.00368489
-0.00111034
0.000181996
0.00260245
-0.000828082
0.000710328
0.00247686
-0.000637083
0.000530793
0.00303899
-0.000638592
0.000390745
0.00301594
-0.000740412
0.000132972
0.00258379
-0.000496344
0.000507193
0.000343186
-0.000461656
0.000399693
0.00105264
-0.000470753
0.000268162
0.00146701
-0.000482721
0.000192722
0.0011452
-0.000452813
6.96105e-05
0.00168519
-0.000230623
0.000289779
2.81623e-05
-0.000298251
0.000254189
0.000471404
-0.000341833
0.000244874
0.000328275
-0.000350356
0.00019599
0.000519078
-0.000317207
0.000135016
0.00104217
-0.000356075
9.97379e-05
0.000487216
-0.000121617
0.000196757
-0.000200692
-0.000157018
0.000171966
-0.000238563
-0.000201994
0.000130428
-0.000587133
-0.000204216
0.000121317
-0.000622504
-0.000245398
0.000109043
-0.000292044
-0.000240866
5.10632e-05
-0.000621175
-0.000205811
9.40643e-06
0.000171425
-6.51868e-05
0.000131177
1.50123e-05
-6.77601e-05
9.41268e-05
-0.000240835
-0.000116672
8.12381e-05
8.0546e-05
-0.00015493
5.20849e-05
0.00041123
-0.000161362
5.68071e-05
0.00100408
-0.000180705
7.32281e-05
0.00151366
-0.000179826
7.39131e-05
0.00142643
-0.000149938
0.00011075
-0.000208486
-2.76127e-05
3.97309e-05
-0.000408196
-2.04899e-05
2.78075e-05
-0.000497633
-1.27381e-05
1.67959e-05
-0.000550024
-3.39042e-05
1.50647e-05
-0.000563386
-8.20328e-05
4.80495e-06
5.43735e-05
-6.91675e-05
-2.40931e-05
-0.000716722
-6.95548e-05
-4.20393e-05
-0.00133499
-6.20555e-05
-3.84147e-05
-0.00203928
-9.98994e-05
-4.89404e-06
-0.000986095
-0.00169217
4.47239e-05
0.00298046
-0.00138126
0.000301388
0.00367736
-0.00135232
0.000141981
0.00266066
-0.00131905
0.000480921
0.00345864
-0.00104063
0.000400986
0.0035901
-0.00135034
0.000154608
0.00258158
-0.00119681
0.000903496
0.00295837
-0.000919603
0.000628039
0.00361606
-0.000914705
0.000412369
0.00373063
-0.00105057
0.000183352
0.00272926
-0.000679339
0.0008048
0.00160758
-0.000664612
0.00061158
0.00259903
-0.000604057
0.0004472
0.00311584
-0.000650435
0.000307581
0.00300905
-0.000692057
0.000117308
0.00270572
-0.000318924
0.000481351
0.000166436
-0.000427417
0.000450676
0.000421369
-0.000435539
0.000381182
0.00103333
-0.00041527
0.000262683
0.00146196
-0.000412615
0.000168626
0.00114159
-0.000399905
6.33704e-05
0.00166565
-0.000222683
0.000313946
-0.000177442
-0.000230428
0.000266823
8.89387e-05
-0.000276261
0.000244
0.000546546
-0.000337548
0.000242001
0.000415596
-0.000347235
0.000192303
0.000563629
-0.000311116
0.000130395
0.00108176
-0.000341568
9.22346e-05
0.000530738
-6.28472e-05
0.000229866
0.000123664
-9.89905e-05
0.00018117
-0.000178665
-0.000189685
0.000171009
-0.00020613
-0.000204852
0.000132288
-0.000548183
-0.00020236
0.0001222
-0.000594663
-0.000243394
0.000103371
-0.000281662
-0.000234252
5.2414e-05
-0.000609757
-0.000187985
6.55573e-06
0.000202916
-5.23861e-05
0.000148889
-4.27288e-06
-6.65685e-05
0.000119969
3.52485e-05
-6.73988e-05
9.41503e-05
-0.000199086
-0.000122607
8.02806e-05
0.000141053
-0.000150153
5.18855e-05
0.000484273
-0.000165507
5.47307e-05
0.00111892
-0.000179021
7.62973e-05
0.00162074
-0.000185489
8.12119e-05
0.00157941
-0.00015052
0.000111971
-0.000269836
-1.92759e-05
4.66995e-05
-0.000455022
-2.58571e-05
3.64845e-05
-0.000391016
-2.19305e-05
2.82571e-05
-0.000487164
-1.28389e-05
1.70504e-05
-0.00053917
-3.48105e-05
1.54165e-05
-0.000539187
-8.19035e-05
5.45065e-06
0.000106733
-7.20976e-05
-2.49506e-05
-0.000661713
-7.72885e-05
-4.44416e-05
-0.00125167
-5.80739e-05
-3.6213e-05
-0.00194989
-9.86686e-05
-4.86648e-06
-0.00088256
-0.00184093
0.000153749
0.00280393
-0.00157963
0.000180758
0.00352064
-0.00132973
6.79576e-05
0.00288991
-0.00139148
0.000416165
0.00378404
-0.00120963
0.000316558
0.00367179
-0.00148407
0.000134839
0.00265956
-0.00135516
0.000584319
0.0033151
-0.00111023
0.000407319
0.00364294
-0.00107638
0.000348558
0.00355782
-0.00127326
0.000157151
0.00264711
-0.000972824
0.000972916
0.00282037
-0.00101304
0.000741483
0.00319335
-0.000865113
0.000566134
0.00372335
-0.000883245
0.0004526
0.00369419
-0.00100361
0.000186118
0.00285469
-0.000452105
0.000820755
0.00110933
-0.000540505
0.000724292
0.00160796
-0.00057385
0.000579451
0.00260509
-0.000452153
0.000381137
0.00307917
-0.000544472
0.000259038
0.00299917
-0.000630239
9.73446e-05
0.00283871
-0.000264072
0.000475491
-0.000396525
-0.000295342
0.000443333
0.000238693
-0.000396213
0.000446058
0.000476445
-0.000410148
0.000358802
0.00100981
-0.000406075
0.000248987
0.00144044
-0.00038008
0.000137973
0.00113595
-0.000349342
7.27919e-05
0.00160063
-9.62101e-05
0.000344808
3.34258e-05
-0.000183337
0.000288955
-0.000115227
-0.000272306
0.000273522
0.000142037
-0.000266506
0.000255467
0.000594735
-0.000310255
0.000228488
0.000487306
-0.00033826
0.00017984
0.00060905
-0.000297795
0.000132125
0.00110541
-0.000322527
8.87553e-05
0.000576525
-5.37563e-05
0.000244561
0.000128301
-8.39608e-05
0.00021172
0.000110506
-7.12906e-05
0.000181742
-0.000185506
-0.000195566
0.000174646
-0.000175529
-0.000207929
0.000136108
-0.000504315
-0.000204149
0.000130048
-0.000582699
-0.000235626
0.000100149
-0.000272792
-0.000230076
5.01479e-05
-0.000608763
-0.000173624
5.40732e-06
0.000220612
-8.06765e-05
0.000156189
-0.000494315
-4.55148e-05
0.00013676
-1.40609e-06
-7.69603e-05
0.000121362
6.30664e-05
-6.38197e-05
9.52111e-05
-0.000163036
-0.000122367
8.0357e-05
0.000200138
-0.000139455
5.15702e-05
0.000544985
-0.000159477
5.53452e-05
0.00122725
-0.000179334
8.52034e-05
0.0017188
-0.000165289
8.49366e-05
0.00171365
-0.000148159
0.000120898
-0.000341243
-1.46505e-05
4.94662e-05
-0.000355858
-1.99547e-05
4.24113e-05
-0.000440994
-2.61949e-05
3.69032e-05
-0.000373467
-2.29179e-05
2.87238e-05
-0.000475919
-1.46028e-05
1.73681e-05
-0.000526519
-3.54893e-05
1.65219e-05
-0.000514769
-8.25209e-05
5.48277e-06
0.000158821
-7.31725e-05
-2.54902e-05
-0.000607492
-8.50705e-05
-4.5792e-05
-0.00115702
-6.40602e-05
-3.4689e-05
-0.00185601
-9.67579e-05
-3.65703e-06
-0.000782145
-0.00186507
7.47537e-05
0.00241352
-0.00174626
0.000344913
0.00324691
-0.00155323
0.000137862
0.00288957
-0.00155344
0.000472135
0.00387993
-0.00141934
0.000272971
0.00352534
-0.00148522
0.000112503
0.00277855
-0.00156632
0.000533633
0.00416607
-0.00121192
0.000428256
0.00377403
-0.00122867
0.000357737
0.00360118
-0.00138787
0.000129144
0.00264503
-0.00113114
0.000733192
0.00312414
-0.00120295
0.000533025
0.0033793
-0.00111781
0.000470811
0.00377339
-0.00104739
0.000333376
0.00354574
-0.00127129
0.000133935
0.00278086
-0.000762515
0.00109754
0.00199353
-0.000845296
0.000841299
0.00302534
-0.000895485
0.000679295
0.00340183
-0.000547043
0.000594936
0.0036759
-0.000762631
0.000405988
0.00369248
-0.000954484
0.000127612
0.00305132
-0.000298476
0.000724931
7.69037e-05
-0.000392094
0.000742144
0.00118823
-0.000505241
0.000716078
0.00158036
-0.000496799
0.000561609
0.00251127
-0.000468349
0.00035778
0.0030427
-0.000513964
0.000230577
0.00299982
-0.000483548
8.83179e-05
0.0028846
-0.000164845
0.000461467
0.000178016
-0.000270358
0.00045077
-0.000316941
-0.000311831
0.000452692
0.000271583
-0.000377924
0.000408575
0.00053809
-0.000372494
0.000351459
0.000969572
-0.000400887
0.000240369
0.00140067
-0.000335877
0.000119682
0.00112715
-0.000324264
8.27215e-05
0.00151965
-0.000110343
0.000353951
0.000175107
-0.000115909
0.000317856
3.64728e-05
-0.000117002
0.000298001
-9.39945e-05
-0.000286352
0.000287965
0.000200324
-0.000258932
0.000243984
0.000630241
-0.000293303
0.000212556
0.000543743
-0.000320661
0.00017474
0.00065147
-0.000290666
0.000131789
0.00112297
-0.000296958
8.82988e-05
0.00061156
-0.000152117
0.000256631
-0.000201581
-2.30043e-05
0.000223715
9.37949e-05
-0.000126596
0.000212151
0.000129733
-6.37643e-05
0.000184054
-0.00019497
-0.000202213
0.000180718
-0.000140293
-0.000200006
0.000137517
-0.000451233
-0.0002045
0.000129296
-0.000566823
-0.000230398
9.77124e-05
-0.000269293
-0.00022267
4.82991e-05
-0.000594274
-0.000164475
5.47892e-06
0.000231449
-5.4894e-05
0.000174959
-0.000257605
-8.05154e-05
0.000141254
-0.000438248
-5.33433e-05
0.000138217
8.88788e-06
-8.64192e-05
0.00012367
9.81088e-05
-6.2006e-05
9.64537e-05
-0.000131729
-0.000121816
8.17223e-05
0.000256313
-0.000134945
4.8701e-05
0.000604053
-0.000153853
5.85073e-05
0.00133463
-0.000179894
8.40176e-05
0.00181454
-0.00016678
9.8197e-05
0.00183908
-0.000144803
0.000116341
-0.000409539
-2.19886e-05
5.71193e-05
-0.000248863
-1.41954e-05
4.50927e-05
-0.000344344
-2.36494e-05
4.29095e-05
-0.000423351
-2.5499e-05
3.72039e-05
-0.000356448
-2.30835e-05
2.91603e-05
-0.000464628
-1.40046e-05
1.8533e-05
-0.000514526
-3.51575e-05
1.7076e-05
-0.000491205
-8.1944e-05
5.84889e-06
0.000209426
-7.77781e-05
-2.57203e-05
-0.000549786
-8.78226e-05
-4.61477e-05
-0.00105774
-6.9664e-05
-3.059e-05
-0.00175941
-9.37532e-05
-5.32963e-06
-0.000683062
-0.00196655
0.000123888
0.0024393
-0.00169283
0.000165935
0.00303325
-0.00174712
0.000130289
0.00247712
-0.00152373
0.000345488
0.00379982
-0.00161199
0.000305441
0.00327198
-0.00151608
9.09667e-05
0.00282947
-0.0017022
0.000436248
0.00438122
-0.00133622
0.000483863
0.00379333
-0.00138456
0.000305314
0.00348842
-0.00143134
9.46437e-05
0.00272737
-0.00144761
0.000787876
0.00374829
-0.00132917
0.000546984
0.00417356
-0.00125627
0.000435076
0.00383515
-0.00121208
0.000326271
0.00356875
-0.00143502
0.000122521
0.00268624
-0.00109161
0.000946089
0.00277198
-0.00114012
0.000655319
0.00329667
-0.00100028
0.000536931
0.00341798
-0.000696366
0.000513098
0.00374299
-0.000930463
0.00028105
0.00356646
-0.00123641
0.000129319
0.00293347
-0.00042419
0.0010811
0.00141037
-0.000738599
0.00105174
0.00212959
-0.000802801
0.000871049
0.00313115
-0.000769406
0.000687181
0.00358219
-0.0007252
0.000523673
0.00381507
-0.000762311
0.000330265
0.00373818
-0.000695985
0.000106247
0.00315751
-0.000147104
0.000674486
0.000117844
-0.00032586
0.000675567
0.000198984
-0.000365145
0.000716623
0.001241
-0.000440001
0.000704569
0.00149948
-0.00039975
0.000547366
0.00234894
-0.000430509
0.000356907
0.00294599
-0.000417713
0.00020386
0.00296612
-0.000513104
7.55175e-05
0.00299792
-9.0798e-05
0.000479159
-4.08353e-05
-0.00014599
0.000437446
0.000221421
-0.00025955
0.000447186
-0.000168888
-0.000347995
0.000450505
0.000291296
-0.000359931
0.00038869
0.000601858
-0.000308305
0.000338033
0.00088691
-0.000357182
0.000228796
0.00132808
-0.000312851
0.000133596
0.00109845
-0.000283257
8.74158e-05
0.00141853
-0.000197238
0.00038023
-0.000142175
-4.88639e-05
0.000324642
0.00019418
-0.000203939
0.000311661
0.000100156
-0.000103414
0.000296991
-6.33701e-05
-0.000320338
0.000281595
0.000280839
-0.000254999
0.000242341
0.000655449
-0.000290951
0.000202142
0.000602792
-0.000306903
0.000167007
0.000692757
-0.000278013
0.000135453
0.00113116
-0.000273947
9.05987e-05
0.000630434
-9.50646e-05
0.000282839
-0.000157479
-0.00017041
0.00023485
-0.000122821
-3.45634e-05
0.000227197
5.99688e-05
-0.000162982
0.000213462
0.000176889
-7.66788e-05
0.000180672
-0.000180252
-0.000201116
0.000172873
-9.63487e-05
-0.000197208
0.00013844
-0.000398112
-0.000206517
0.000122266
-0.000538713
-0.000223286
9.4738e-05
-0.00027234
-0.000211826
4.53855e-05
-0.000589134
-0.000154728
6.62676e-06
0.000234747
-8.6019e-06
0.000190484
0.000432745
-5.71492e-05
0.000159268
-0.000232666
-8.24973e-05
0.000139897
-0.00038108
-6.03356e-05
0.000140568
2.68268e-05
-9.76301e-05
0.000123999
0.00014511
-6.20579e-05
9.86819e-05
-0.000100636
-0.000114892
8.51621e-05
0.000299587
-0.00012792
5.21236e-05
0.000656412
-0.000153696
5.52439e-05
0.00143932
-0.000173478
8.85525e-05
0.00190984
-0.000172018
9.48179e-05
0.00196295
-0.00013779
0.000120973
-0.000486475
-1.84275e-05
6.36125e-05
-0.000119964
-2.11973e-05
5.20082e-05
-0.000234581
-1.45001e-05
4.53642e-05
-0.000332299
-2.5158e-05
4.31694e-05
-0.000404159
-2.70048e-05
3.7581e-05
-0.000337864
-2.31153e-05
2.9631e-05
-0.000452611
-1.36243e-05
1.91e-05
-0.000502925
-3.39147e-05
1.7968e-05
-0.000469409
-8.14185e-05
5.98046e-06
0.000259143
-7.81967e-05
-2.63009e-05
-0.000491436
-9.04762e-05
-4.58648e-05
-0.000951992
-6.14694e-05
-2.94507e-05
-0.00167382
-8.9183e-05
-1.07486e-05
-0.00058313
-0.00179569
-7.01868e-05
0.00249813
-0.00170616
5.83666e-05
0.00311254
-0.00174954
2.69249e-05
0.00241479
-0.00164526
0.000280268
0.00360706
-0.00170509
0.000296276
0.00296036
-0.00167059
0.000135993
0.00249564
-0.00152354
0.000289414
0.00437994
-0.00133746
0.000386345
0.00372016
-0.00150259
0.000178302
0.00330267
-0.00149923
4.11727e-05
0.00285618
-0.00163797
0.000364553
0.00416533
-0.00135643
0.000502291
0.00439006
-0.00138691
0.000432523
0.00379676
-0.00140528
0.000172766
0.00360349
-0.0014722
8.0159e-05
0.00268439
-0.00125554
0.000846641
0.0031927
-0.00131909
0.000621722
0.00385253
-0.00104766
0.000543318
0.00411269
-0.000839271
0.000342644
0.00396168
-0.000969012
0.000318048
0.00341177
-0.00135305
8.26089e-05
0.00272026
-0.000711445
0.00119344
0.00227701
-0.00107742
0.0010509
0.00271522
-0.00114895
0.000745731
0.00343401
-0.00102856
0.000591421
0.00359881
-0.000864315
0.000479052
0.0036841
-0.000988831
0.000306789
0.00361551
-0.00096913
0.000120313
0.0030863
-0.000207183
0.00102549
0.000818699
-0.000271111
0.00100826
0.00139911
-0.000643824
0.00106956
0.00220976
-0.000679116
0.000897749
0.0031597
-0.000644366
0.000676524
0.00367395
-0.000634352
0.000448719
0.00390046
-0.000684754
0.000292643
0.00381882
-0.000870228
0.000130651
0.00338399
6.61907e-05
0.000653898
-6.50445e-05
-0.000149205
0.000633033
0.000163592
-0.00035818
0.00066857
0.000345668
-0.000377649
0.000692635
0.00128259
-0.000395146
0.000658974
0.00142308
-0.000271358
0.000524258
0.00214465
-0.000326361
0.000330326
0.0027887
-0.000376848
0.000172934
0.0029327
-0.000400415
6.54275e-05
0.00304965
-0.00022768
0.000474635
-0.000258961
-8.75181e-05
0.000451311
-1.60469e-05
-0.000190992
0.000426868
0.000228792
-0.000229618
0.000450522
-4.2701e-05
-0.000387823
0.000421476
0.000325994
-0.000359963
0.000367457
0.000677399
-0.000313957
0.000320602
0.00081811
-0.000315257
0.000228448
0.00124158
-0.000287125
0.000147639
0.00104734
-0.00023075
9.17111e-05
0.00128363
-0.000106106
0.000439261
1.20157e-05
-0.000231988
0.000343424
-9.93791e-05
-4.98428e-05
0.000350586
0.000170535
-0.000248485
0.000312328
0.000170323
-0.000159335
0.000274721
2.61595e-05
-0.000318309
0.00028086
0.000359513
-0.000250617
0.000248001
0.000662999
-0.000287866
0.000198901
0.000652248
-0.00029065
0.000163819
0.000731754
-0.000253437
0.000142487
0.00112088
-0.000253099
8.97396e-05
0.000639066
-6.56053e-06
0.000322029
0.000726208
-8.2194e-05
0.000253272
-0.000150857
-0.000118666
0.000241687
-0.000101143
-5.0455e-05
0.000229251
3.42988e-05
-0.00020243
0.000203806
0.000258555
-8.97787e-05
0.000176179
-0.000155837
-0.000181303
0.000162053
-5.35518e-05
-0.000192212
0.000133164
-0.000344719
-0.000197706
0.000118192
-0.000518157
-0.000214224
8.92288e-05
-0.000275437
-0.000204063
4.28573e-05
-0.00059332
-0.000145448
9.97964e-06
0.000232425
-3.04552e-05
0.000212784
0.000200227
-4.17894e-06
0.000174041
0.000400955
-5.7995e-05
0.000158867
-0.000208141
-8.52148e-05
0.000137837
-0.000318293
-7.76526e-05
0.000140709
6.07652e-05
-9.73983e-05
0.000125496
0.000192579
-6.84645e-05
9.92933e-05
-5.99265e-05
-0.000109138
8.84664e-05
0.000338467
-0.000122173
5.44721e-05
0.000697939
-0.000142829
5.61382e-05
0.00153637
-0.000166762
9.71673e-05
0.00198378
-0.000135556
9.90153e-05
0.002059
-0.000125555
0.000120806
-0.000570909
-1.30758e-05
6.21387e-05
-0.000410467
-1.7142e-05
5.77135e-05
-0.000108527
-2.26034e-05
5.22677e-05
-0.000218881
-1.5626e-05
4.56113e-05
-0.000319115
-2.62199e-05
4.34484e-05
-0.000383806
-2.65195e-05
3.80397e-05
-0.000319753
-2.31878e-05
3.01299e-05
-0.000440453
-1.41969e-05
1.97519e-05
-0.000490512
-3.39496e-05
1.85697e-05
-0.000448049
-8.1158e-05
5.87553e-06
0.000308125
-7.91999e-05
-2.75922e-05
-0.000430508
-9.43066e-05
-4.63477e-05
-0.000840788
-7.17938e-05
-3.30502e-05
-0.00157972
-8.38596e-05
-1.92271e-05
-0.000480044
-0.00180929
2.14808e-05
0.00241209
-0.00165177
-6.3265e-05
0.00318499
-0.00168436
-4.75729e-05
0.00248052
-0.00151503
-0.000104143
0.00355459
-0.0015412
-7.02275e-05
0.00304581
-0.0016858
1.47672e-06
0.00242853
-0.00125698
0.000221207
0.00409472
-0.00130909
0.000274252
0.0036007
-0.00166208
0.000161263
0.00309458
-0.00159625
0.000153365
0.0024393
-0.0015176
0.00032906
0.00452508
-0.00121644
0.000342465
0.00428383
-0.00140175
0.000317252
0.00359605
-0.00142897
7.43217e-05
0.00329322
-0.00148537
6.05492e-05
0.0028088
-0.00132607
0.000237492
0.00441701
-0.00136264
0.000384975
0.0043262
-0.00110276
0.000476075
0.00440161
-0.00109774
0.000385578
0.00384241
-0.0010871
0.000253613
0.00354812
-0.00141815
6.06855e-05
0.00268881
-0.000872648
0.000945423
0.00296133
-0.00111528
0.000562031
0.00329024
-0.00134092
0.000593
0.00399483
-0.00090841
0.000450945
0.00388424
-0.000892984
0.00048905
0.00381935
-0.00109546
0.000266308
0.0033347
-0.00125042
0.000111663
0.00288989
-0.00038405
0.00130634
0.00193793
-0.000564719
0.00128738
0.00233414
-0.00108275
0.00098467
0.0029152
-0.000989644
0.000802286
0.00353368
-0.00087251
0.000621398
0.0036846
-0.000886446
0.000454099
0.00378889
-0.000960247
0.000292149
0.00371917
-0.00113262
0.000131719
0.00321697
0.000198721
0.000883932
0.000198283
-0.000197638
0.000986964
0.000888427
-0.000482817
0.0010281
0.0015652
-0.000606843
0.00103441
0.00230229
-0.000542589
0.000882081
0.00310158
-0.000508875
0.000655224
0.00370497
-0.000463451
0.000401102
0.00392909
-0.000618728
0.000256263
0.00393509
-0.000618007
4.71219e-05
0.00355445
-0.000131725
0.000595142
-0.000175213
-8.54802e-05
0.000597383
-3.14316e-05
-0.000126767
0.000670806
9.713e-05
-0.000357601
0.00068083
0.000485456
-0.000391489
0.000670987
0.00127424
-0.00037408
0.00059487
0.00136659
-0.00023595
0.000483798
0.00191317
-0.000245197
0.000309184
0.00258239
-0.000253988
0.000162215
0.00280277
-0.000263389
8.9414e-05
0.00299288
-9.3238e-05
0.000529525
0.000220143
-0.000222904
0.000433383
-0.000250117
-9.11934e-05
0.000459528
-7.3561e-06
-0.000201581
0.000427957
0.000204454
-0.000270706
0.000438645
5.1501e-05
-0.000408844
0.000395473
0.000388513
-0.00032617
0.000356409
0.000717144
-0.000349327
0.00030211
0.000805909
-0.000288146
0.000228614
0.0011581
-0.000259625
0.000158152
0.000987092
-0.000236416
9.3643e-05
0.0011733
-8.06267e-05
0.000467421
0.000381395
-8.19116e-05
0.000407191
-5.20333e-05
-0.000177177
0.000355719
-4.6001e-05
-7.63717e-05
0.000367991
0.000140788
-0.00028105
0.000301017
0.000222647
-0.000202289
0.00028302
0.000136509
-0.000273403
0.000285142
0.000414473
-0.00023731
0.000249916
0.000657082
-0.000272471
0.000192031
0.0006988
-0.00027021
0.000161853
0.000768374
-0.000229512
0.000145206
0.00109087
-0.00022745
8.49297e-05
0.000636138
-4.31228e-05
0.000339171
0.000141379
1.28768e-05
0.000297241
0.000665183
-9.21928e-05
0.00025509
-0.000130062
-0.000108664
0.000246389
-9.48311e-05
-9.8195e-05
0.000229611
2.90365e-05
-0.0001813
0.000201705
0.00031693
-0.000110722
0.000168914
-0.000120441
-0.000170008
0.000159396
-1.89139e-05
-0.000192274
0.00012996
-0.000286386
-0.000188738
0.000110272
-0.000493291
-0.000202481
8.66743e-05
-0.000283535
-0.000192949
4.15572e-05
-0.000567504
-0.000137755
1.34734e-05
0.000231151
-7.21302e-05
0.000205053
-0.000329543
-2.06224e-05
0.000193838
0.00018391
-2.34636e-07
0.000175538
0.000361915
-5.97971e-05
0.000157478
-0.000183612
-8.23789e-05
0.000138896
-0.000260321
-8.10318e-05
0.000140575
0.000100198
-9.67335e-05
0.000125079
0.000240339
-7.16583e-05
9.97901e-05
-1.37889e-05
-0.000105667
8.73509e-05
0.000377306
-0.000118558
5.5328e-05
0.000736149
-0.000130512
5.7832e-05
0.00162701
-0.000156777
9.98247e-05
0.00204544
-0.000137449
0.000105526
0.00213993
-0.000110537
0.000116733
-0.000660964
-2.0161e-05
6.64688e-05
-0.000287103
-1.1273e-05
5.64811e-05
-0.000397962
-1.73555e-05
5.78446e-05
-9.67483e-05
-2.3377e-05
5.25044e-05
-0.000202398
-1.59252e-05
4.5925e-05
-0.000305666
-2.75053e-05
4.38789e-05
-0.00036214
-2.67469e-05
3.84505e-05
-0.000301327
-2.24293e-05
3.05767e-05
-0.000428849
-1.49691e-05
2.02687e-05
-0.000477242
-3.40969e-05
1.89736e-05
-0.00042705
-8.08777e-05
5.81137e-06
0.000355599
-8.41352e-05
-2.89832e-05
-0.000363738
-9.30329e-05
-4.75021e-05
-0.000733303
-8.26455e-05
-3.7444e-05
-0.00147886
-8.02202e-05
-1.91205e-05
-0.000380703
-0.00183939
-5.47041e-06
0.00220038
-0.00172878
0.000119968
0.00287817
-0.00163096
7.92531e-06
0.00235077
-0.00139321
-0.000100506
0.00348973
-0.00146489
-2.88644e-05
0.00308997
-0.00165286
-2.22862e-05
0.00246987
-0.00123656
3.60711e-05
0.00387633
-0.00138282
-8.5528e-06
0.00356664
-0.00163138
-2.48636e-05
0.00304145
-0.00162687
2.0088e-05
0.00243906
-0.00126642
0.000171031
0.00448829
-0.00104041
0.000326701
0.00386624
-0.00128192
0.000181969
0.00346018
-0.00133305
0.000131125
0.0030209
-0.00158491
6.16651e-05
0.00247718
-0.00141857
0.000291811
0.00458309
-0.00126823
0.00038611
0.00438703
-0.00104014
0.000455361
0.0040831
-0.00128081
0.000208821
0.00364463
-0.00135418
0.00020443
0.00341642
-0.00148569
1.1369e-05
0.00286497
-0.00121608
0.00042031
0.00413358
-0.00115875
0.000216533
0.00462892
-0.00142025
0.00049571
0.00438589
-0.000948373
0.000607924
0.00421922
-0.00108291
0.000468196
0.00381775
-0.0012516
0.000295043
0.0034699
-0.00134533
6.96708e-05
0.00271405
-0.000521633
0.00119739
0.00255933
-0.00103628
0.000804638
0.00319029
-0.00128735
0.000608032
0.00347981
-0.00115897
0.00062771
0.00398738
-0.00102071
0.000564385
0.00395711
-0.000896414
0.000412606
0.00368302
-0.00109374
0.000245412
0.00333445
-0.00125563
0.000122073
0.00289083
0.000172727
0.00119012
0.00137041
-0.000341748
0.00130645
0.00206297
-0.000872671
0.00112038
0.00258828
-0.00111037
0.000960722
0.00326029
-0.000848307
0.000777995
0.0036828
-0.000814356
0.000634689
0.0038095
-0.00072019
0.000449709
0.00388807
-0.000890512
0.000268624
0.00385405
-0.000839626
6.39226e-05
0.00337467
0.00015621
0.000808222
-0.000207033
-6.46892e-05
0.000876997
0.000287459
-0.000209566
0.00102598
0.00097335
-0.000513346
0.000976141
0.00177922
-0.000553686
0.00100154
0.00234503
-0.000449336
0.000869128
0.00296293
-0.000362784
0.000612564
0.00362034
-0.000329961
0.00037292
0.0038972
-0.00044696
0.000187811
0.00398737
-0.000486841
7.67354e-05
0.00370117
-3.2668e-05
0.000628233
0.000277893
-0.000109885
0.000551905
-0.000242754
-0.000167739
0.000626276
8.96436e-05
-0.000213376
0.000679239
0.000110516
-0.00034203
0.0006656
0.000562167
-0.000388105
0.000629634
0.00121874
-0.000272709
0.00054762
0.0012493
-0.000248289
0.000446527
0.00167479
-0.000162123
0.000304764
0.00231382
-0.000173334
0.000180939
0.00262496
-0.000296624
0.000117418
0.00293567
-2.24566e-06
0.00063581
0.000402369
-0.000111248
0.000492169
0.000190693
-0.000217022
0.000448848
-0.000199592
-0.000155646
0.000448897
5.09783e-05
-0.000233164
0.000424491
0.000170721
-0.00033488
0.000441418
0.000138148
-0.000389501
0.000390876
0.000470144
-0.000299425
0.000342096
0.000739274
-0.000351271
0.000293083
0.000820241
-0.000261318
0.000223546
0.00108382
-0.000237642
0.000162181
0.000926683
-0.000217393
9.3992e-05
0.00106925
-2.89654e-05
0.000477301
0.000371882
-8.50785e-05
0.00043249
0.000454051
-0.000103548
0.000392637
-7.75968e-05
-0.000160351
0.00037142
2.25721e-06
-0.000120421
0.000376807
8.72247e-05
-0.000219738
0.00029249
0.000251615
-0.000218034
0.000298292
0.00023067
-0.000251437
0.000284375
0.000461443
-0.000222264
0.000245065
0.000634038
-0.000244698
0.00019055
0.000726062
-0.000247813
0.000159114
0.000799797
-0.000198207
0.000140596
0.00104046
-0.000201636
8.23842e-05
0.000617635
-0.000144101
0.000350975
-0.000120588
-1.92224e-05
0.000308909
0.000128311
4.06509e-05
0.000298991
0.000580396
-9.26412e-05
0.000261598
-0.000112427
-0.000115822
0.000250892
-8.26688e-05
-0.000137721
0.000225031
6.23995e-05
-0.000153673
0.000201979
0.000340805
-0.000119372
0.000169361
-8.2692e-05
-0.00015891
0.000156808
7.48008e-06
-0.000182999
0.00012616
-0.000237833
-0.000178626
0.00010648
-0.000464982
-0.000189483
8.43578e-05
-0.000293629
-0.00018293
4.01574e-05
-0.000548706
-0.000131251
1.89726e-05
0.000232892
-5.35916e-05
0.000219907
-0.000152172
-6.21911e-05
0.000186941
-0.000271728
-1.679e-05
0.000193771
0.000165112
-4.7715e-06
0.000176572
0.000324215
-5.36789e-05
0.00015757
-0.000164532
-8.3995e-05
0.000140493
-0.000203749
-8.18739e-05
0.000141628
0.000138777
-9.03515e-05
0.00012537
0.000282681
-7.30088e-05
0.000100115
3.1487e-05
-0.000105056
8.73018e-05
0.000416291
-0.000116193
5.34455e-05
0.000775851
-0.000132372
5.80828e-05
0.00171699
-0.000136048
0.000110556
0.00208342
-0.000130892
9.9037e-05
0.00220587
-0.000102629
0.000105227
-0.000743782
-1.77814e-05
7.38224e-05
-2.60542e-05
-1.76209e-05
6.03461e-05
-0.000273347
-1.21294e-05
5.68538e-05
-0.000384842
-1.76067e-05
5.8398e-05
-8.50352e-05
-2.41995e-05
5.27514e-05
-0.000185024
-1.46337e-05
4.62414e-05