/*--------------------------------*- C++ -*----------------------------------*\
  =========                 |
  \\      /  F ield         | OpenFOAM: The Open Source CFD Toolbox
   \\    /   O peration     | Website:  https://openfoam.org
    \\  /    A nd           | Version:  7
     \\/     M anipulation  |
\*---------------------------------------------------------------------------*/
FoamFile
{
    version     2.0;
    format      ascii;
    class       volVectorField;
    location    "1";
    object      U_0;
}
// * * * * * * * * * * * * * * * * * * * * * * * * * * * * * * * * * * * * * //

dimensions      [0 1 -1 0 0 0 0];

internalField   nonuniform List<vector> 
18750
(
(1.21991 -0.717899 0.328509)
(0.022586 -1.0329 0.281036)
(1.81047 0.104682 -0.611563)
(1.20408 -0.708404 0.357949)
(0.084102 -0.721182 -0.0494882)
(-0.362625 -0.788665 0.465812)
(0.0715737 -1.09147 0.342982)
(1.17653 -0.415809 -0.880284)
(1.74392 0.229281 -0.392931)
(1.1714 -0.696078 0.356775)
(-0.212998 -1.03979 0.117073)
(0.369349 -0.833064 0.278834)
(0.0927338 -0.707455 -0.0603966)
(-0.658324 -0.833516 0.480353)
(-0.408246 -0.835923 0.482027)
(0.132472 -1.14345 0.432836)
(0.634739 -0.506306 -0.771717)
(1.17143 -0.421373 -0.869487)
(1.65889 0.0877714 -0.651335)
(1.17955 -0.67685 0.37796)
(-1.06087 -1.0608 -0.270684)
(-0.474037 -0.747508 0.439871)
(-0.181909 -1.06487 0.111645)
(0.280732 -1.0466 0.406135)
(0.443808 -0.85163 0.213961)
(0.0976345 -0.680628 -0.0527202)
(-0.371832 -0.90567 0.456852)
(-0.672837 -0.809344 0.58509)
(-0.44295 -0.900114 0.491803)
(0.19291 -1.1815 0.549567)
(0.0870999 -0.828603 -0.220215)
(0.646697 -0.514035 -0.772996)
(1.14115 -0.436477 -0.884409)
(1.62952 0.0809994 -0.649594)
(1.19145 -0.668996 0.402119)
(-1.53607 -1.43834 -0.0796916)
(-0.751413 -1.10508 0.78624)
(-1 -1.09701 -0.13943)
(-0.222111 -0.888949 0.478332)
(-0.495344 -0.725743 0.491331)
(-0.152541 -1.091 0.122568)
(0.459766 -0.756048 0.611547)
(0.291435 -1.02041 0.413932)
(0.546261 -0.879304 0.189339)
(0.102791 -0.641616 -0.0515996)
(-0.130639 -0.847654 0.348072)
(-0.388645 -0.916703 0.508788)
(-0.616465 -0.959372 0.482571)
(-0.474362 -0.963153 0.532263)
(0.280456 -1.16016 0.65672)
(0.424096 -0.0972617 0.376238)
(0.10864 -0.860371 -0.283967)
(0.64224 -0.525387 -0.823298)
(1.17305 -0.452792 -0.913991)
(1.62283 0.0455037 -0.676809)
(1.1589 -0.652355 0.416041)
(-1.64988 -1.67075 -0.043703)
(-2.11398 -1.488 0.7524)
(-1.52865 -1.50337 -0.156044)
(-0.898193 -1.19213 0.70526)
(-0.689258 -1.11959 0.641741)
(-0.978025 -1.12436 -0.093875)
(-0.0841363 -0.789844 0.691006)
(-0.218658 -0.890589 0.516368)
(-0.566311 -0.713744 0.561766)
(-0.108972 -1.11511 0.143557)
(0.400455 -0.755928 0.586421)
(0.449349 -0.755863 0.578924)
(0.313828 -1.00798 0.414964)
(0.556281 -0.879124 0.186145)
(0.0996647 -0.601217 -0.0557046)
(0.0160768 -0.642977 0.595218)
(-0.135415 -0.873853 0.318105)
(-0.377105 -0.977604 0.46927)
(-0.740659 -0.959147 0.506546)
(-0.536762 -1.00202 0.572172)
(0.349108 -1.11626 0.729624)
(0.389105 0.0869957 0.242928)
(0.420749 -0.0899141 0.38496)
(0.128367 -0.888774 -0.270913)
(0.649294 -0.543681 -0.898261)
(1.16236 -0.467369 -0.918647)
(1.62568 0.00277685 -0.706116)
(1.15801 -0.638946 0.409244)
(-1.73669 -1.82542 0.0859303)
(-2.47553 -1.77874 0.72053)
(-1.57924 -1.81639 -0.112187)
(-1.98278 -1.32445 0.823369)
(-2.11203 -1.08636 1.00296)
(-1.51339 -1.48558 -0.137664)
(-0.692144 -1.02666 0.926608)
(-0.908816 -1.1939 0.641876)
(-0.626978 -1.18766 0.473409)
(-0.963416 -1.14736 -0.0667632)
(-0.251099 -0.616849 0.912549)
(-0.053351 -0.8101 0.665251)
(-0.215872 -0.928872 0.47755)
(-0.530542 -0.817124 0.526152)
(-0.0676187 -1.13154 0.177779)
(0.151428 -0.506987 0.774694)
(0.448273 -0.801174 0.498212)
(0.551588 -0.735153 0.549647)
(0.382656 -0.991568 0.403898)
(0.641641 -0.893228 0.145086)
(0.0882236 -0.560128 -0.07463)
(0.195546 -0.485662 0.662393)
(0.0274308 -0.670933 0.573538)
(-0.122381 -0.89164 0.292063)
(-0.43234 -0.91785 0.626133)
(-0.743734 -0.971409 0.575719)
(-0.493084 -1.06474 0.635421)
(0.483487 -1.0789 0.773924)
(0.342557 -0.101141 0.496692)
(0.381656 0.0945447 0.25563)
(0.410899 -0.0849188 0.396842)
(0.15367 -0.90916 -0.210024)
(0.644014 -0.570029 -0.92861)
(1.12773 -0.512565 -0.931084)
(1.58245 -0.0686937 -0.750319)
(1.16806 -0.619921 0.362724)
(-2.10522 -1.59385 0.00210514)
(-2.53028 -1.7197 0.654033)
(-1.58198 -2.01511 0.0466663)
(-2.32441 -1.66655 0.651343)
(-2.47215 -1.35736 1.04966)
(-1.56145 -1.82719 -0.110213)
(-1.6458 -1.22386 1.19837)
(-1.96103 -1.10785 0.974979)
(-1.91708 -1.23813 0.872645)
(-1.49479 -1.47884 -0.0807866)
(-0.213309 -0.996725 1.11557)
(-0.667566 -1.04296 0.88186)
(-0.869626 -1.19963 0.584668)
(-0.600352 -1.12681 0.418158)
(-0.924962 -1.13814 -0.0657111)
(-0.00862284 -0.546465 0.813524)
(-0.275536 -0.68311 0.85782)
(-0.165537 -0.796315 0.768675)
(-0.186621 -0.951742 0.461185)
(-0.465916 -0.940019 0.459524)
(0.0047196 -1.14962 0.146918)
(0.128732 -0.305187 0.820849)
(0.191061 -0.540419 0.75299)
(0.496938 -0.826777 0.478581)
(0.540996 -0.740358 0.568065)
(0.398709 -0.96667 0.40913)
(0.704703 -0.917002 0.157552)
(0.0703427 -0.517445 -0.0959304)
(-0.0159432 -0.402582 0.789967)
(0.192609 -0.474779 0.666391)
(0.0301178 -0.712441 0.539188)
(-0.110826 -0.897817 0.262119)
(-0.454187 -0.981726 0.631394)
(-0.685496 -1.06277 0.534994)
(-0.632879 -1.10479 0.669817)
(0.562352 -1.04816 0.803311)
(0.271888 -0.210919 0.75632)
(0.34242 -0.0849202 0.502109)
(0.371 0.10543 0.265749)
(0.409937 -0.0824686 0.400987)
(0.179626 -0.918285 -0.172132)
(0.671728 -0.608967 -0.958857)
(1.1998 -0.498704 -0.920682)
(1.56171 -0.0665172 -0.716121)
(1.12716 -0.612444 0.344044)
(-1.92262 -1.77551 0.145838)
(-2.64423 -1.48646 0.421533)
(-1.6617 -1.99343 -0.0131803)
(-2.32911 -1.66451 0.583334)
(-2.35642 -1.56774 0.701339)
(-1.54613 -2.05815 0.0308693)
(-1.93813 -1.53046 1.34045)
(-2.31813 -1.44929 0.787793)
(-2.28631 -1.59594 0.705844)
(-1.5208 -1.82066 -0.0727998)
(-1.06992 -1.01867 1.43566)
(-1.66347 -1.16028 1.10718)
(-1.96727 -1.17807 0.789106)
(-1.8034 -1.45365 0.583637)
(-1.50175 -1.49046 -0.0409989)
(-0.0984871 -0.641814 1.15506)
(-0.248733 -0.964451 1.09808)
(-0.615332 -1.12146 0.728161)
(-0.830527 -1.14891 0.574647)
(-0.569134 -1.03318 0.388361)
(-0.880337 -1.10404 -0.034363)
(0.134339 -0.536908 0.869342)
(-0.0288377 -0.608426 0.809921)
(-0.256623 -0.68599 0.850618)
(-0.101559 -0.82666 0.739095)
(-0.172769 -0.950421 0.453264)
(-0.502294 -0.976973 0.44438)
(0.0228537 -1.12186 0.120222)
(-0.0926046 -0.2325 0.840712)
(0.134485 -0.269373 0.819614)
(0.196131 -0.602357 0.736324)
(0.516719 -0.820102 0.48819)
(0.592994 -0.719671 0.557591)
(0.479654 -0.947632 0.336201)
(0.726245 -0.852586 0.164157)
(0.0618168 -0.485214 -0.113943)
(-0.0117762 -0.402773 0.998833)
(-0.00115637 -0.438355 0.791797)
(0.18859 -0.472498 0.666765)
(0.0387567 -0.747587 0.507095)
(-0.117146 -0.897284 0.261799)
(-0.464288 -1.06683 0.600369)
(-0.765764 -1.13139 0.493361)
(-0.601681 -1.21281 0.712411)
(0.664431 -0.994831 0.807601)
(0.301084 -0.138971 0.926837)
(0.27322 -0.195276 0.767384)
(0.341219 -0.067202 0.507101)
(0.350368 0.119141 0.266794)
(0.398752 -0.0734898 0.413164)
(0.198199 -0.923422 -0.145246)
(0.694839 -0.653204 -0.986485)
(1.14519 -0.611396 -0.997598)
(1.55291 -0.0159462 -0.575186)
(1.08848 -0.599697 0.290946)
(-1.91417 -1.61322 0.0468044)
(-2.5187 -1.4766 -0.044885)
(-2.00705 -1.55031 0.0567179)
(-2.5148 -1.51391 0.327722)
(-2.37455 -1.50848 0.393818)
(-1.58364 -2.06117 0.0366255)
(-2.24148 -1.77952 0.66344)
(-2.29157 -1.68319 0.493089)
(-2.16674 -1.74569 0.42539)
(-1.44319 -2.04396 0.0792745)
(-1.71345 -1.26588 1.46358)
(-1.99116 -1.48954 1.29479)
(-2.31146 -1.4915 0.741312)
(-2.26784 -1.67002 0.661759)
(-1.53482 -1.8395 -0.0661728)
(-0.732678 -0.606045 1.53838)
(-1.05592 -1.01698 1.37867)
(-1.67223 -1.07833 0.974437)
(-1.93908 -1.15435 0.710545)
(-1.78715 -1.39855 0.484813)
(-1.54086 -1.46201 -0.0718741)
(0.270194 -0.587042 1.0715)
(-0.124555 -0.705153 1.13398)
(-0.190268 -0.874994 1.13551)
(-0.523009 -1.10331 0.715187)
(-0.744845 -1.18541 0.478108)
(-0.502011 -1.03945 0.324009)
(-0.798869 -1.08917 0.0272959)
(-0.0329973 -0.195881 0.971401)
(0.105454 -0.468871 0.892941)
(-0.0042452 -0.778931 0.743661)
(-0.332059 -0.664783 0.854375)
(-0.168021 -0.806971 0.726059)
(-0.149997 -0.936975 0.432532)
(-0.446576 -0.976672 0.429554)
(0.0252751 -1.05439 0.0985974)
(-0.103964 -0.110181 1.01659)
(-0.0689932 -0.288298 0.856768)
(0.138239 -0.246164 0.818133)
(0.232585 -0.621897 0.742555)
(0.49514 -0.765959 0.505797)
(0.555559 -0.695723 0.567585)
(0.507572 -0.91008 0.34132)
(0.773198 -0.787281 0.159244)
(0.0655487 -0.470614 -0.119813)
(0.327303 -0.330538 1.06324)
(0.0145527 -0.422296 1.0078)
(0.0104095 -0.474708 0.786759)
(0.191115 -0.455906 0.679773)
(0.0483454 -0.756291 0.501217)
(-0.104604 -0.882797 0.256002)
(-0.472556 -1.05287 0.688747)
(-0.744725 -1.20267 0.566607)
(-0.779942 -1.14893 0.720795)
(0.739977 -0.885627 0.796092)
(0.240284 -0.0775845 0.999512)
(0.303221 -0.150561 0.928901)
(0.272704 -0.17987 0.777037)
(0.337467 -0.0473546 0.514315)
(0.349253 0.113492 0.269641)
(0.389617 -0.0702946 0.415172)
(0.224582 -0.931259 -0.150191)
(0.723452 -0.660416 -1.0065)
(1.20388 -0.621749 -1.03707)
(1.53291 -0.0332766 -0.516484)
(1.05609 -0.5865 0.245908)
(-1.6711 -1.62228 0.0644577)
(-2.2423 -1.62283 0.244852)
(-1.88525 -1.5139 0.0805981)
(-2.59444 -1.50283 0.427069)
(-2.19009 -1.67256 0.112226)
(-1.62554 -1.93877 0.0615322)
(-2.74647 -1.55259 0.611806)
(-2.45991 -1.56711 0.421716)
(-2.22983 -1.69202 0.315867)
(-1.53503 -2.01475 0.101599)
(-2.01292 -1.42036 0.879336)
(-2.15603 -1.83947 0.701621)
(-2.27181 -1.74392 0.58857)
(-2.14338 -1.83653 0.36311)
(-1.41591 -2.0806 0.0818256)
(-1.32313 -0.904147 1.56454)
(-1.97567 -1.15538 1.23524)
(-2.09543 -1.45255 1.14211)
(-2.35799 -1.20918 0.930599)
(-2.2311 -1.56698 0.668671)
(-1.51549 -1.85462 -0.0604779)
(-0.0158871 -0.466267 1.46198)
(-0.738665 -0.617903 1.56376)
(-0.964189 -1.02958 1.3602)
(-1.58937 -1.07754 0.815575)
(-1.83812 -1.22657 0.599474)
(-1.70554 -1.3663 0.439144)
(-1.56054 -1.40758 -0.0431985)
(-0.109188 -0.280807 1.05984)
(0.263444 -0.53907 1.11056)
(-0.107425 -0.770485 1.09483)
(-0.224372 -0.917889 1.02081)
(-0.451863 -1.03284 0.736816)
(-0.670083 -1.19468 0.387517)
(-0.458297 -1.02978 0.303315)
(-0.691102 -1.08892 0.0536297)
(-0.100664 -0.237977 1.04264)
(-0.0126208 -0.349884 0.965839)
(0.0944468 -0.260754 0.990185)
(-0.00103115 -0.784018 0.803037)
(-0.239774 -0.716533 0.770074)
(-0.0893867 -0.829159 0.664568)
(-0.133987 -0.909181 0.448824)
(-0.404515 -0.991568 0.429036)
(0.0293599 -0.985752 0.0668831)
(0.14026 -0.501621 1.03283)
(-0.0732974 -0.0653301 1.0262)
(-0.0365945 -0.377912 0.853257)
(0.168694 -0.197868 0.834058)
(0.221894 -0.602748 0.757487)
(0.571397 -0.635208 0.557706)
(0.67695 -0.624848 0.523839)
(0.554861 -0.857377 0.323644)
(0.810212 -0.730097 0.156869)
(0.0910121 -0.468733 -0.11178)
(0.168904 -0.266408 1.14371)
(0.342972 -0.334435 1.07051)
(0.0398742 -0.424494 1.02624)
(0.0252687 -0.502272 0.782447)
(0.201149 -0.453657 0.68311)
(0.0388667 -0.754773 0.499668)
(-0.107544 -0.887755 0.173905)
(-0.495294 -1.05078 0.732941)
(-0.681991 -1.27708 0.609363)
(-0.664546 -1.19481 0.860076)
(0.803363 -0.752591 0.793601)
(0.166097 -0.238022 1.08652)
(0.238045 -0.0652721 0.999943)
(0.300788 -0.15552 0.933774)
(0.27222 -0.165593 0.785005)
(0.332492 -0.0242817 0.522367)
(0.328305 0.129136 0.312301)
(0.385236 -0.0644063 0.421324)
(0.248914 -0.938355 -0.148841)
(0.755437 -0.69305 -1.01144)
(1.23311 -0.624816 -1.02773)
(1.51464 -0.0259801 -0.411633)
(1.04386 -0.559834 0.179786)
(-1.71907 -1.52255 -0.0537247)
(-2.17326 -1.44146 0.0532394)
(-1.49549 -1.75687 0.0307348)
(-2.48318 -1.44391 0.425208)
(-2.04261 -1.64329 0.202143)
(-1.70056 -1.67036 -0.0234006)
(-2.84753 -1.76482 0.532182)
(-2.45845 -1.61056 0.488907)
(-2.16538 -1.80526 0.17661)
(-1.61094 -1.97109 0.0613135)
(-2.51465 -1.36992 0.680444)
(-2.68293 -1.72179 0.654878)
(-2.32178 -1.78779 0.598653)
(-2.16383 -1.78989 0.211242)
(-1.33053 -2.11836 0.07996)
(-1.87983 -1.16253 1.04873)
(-2.09476 -1.67778 0.846279)
(-2.09139 -1.77876 0.808492)
(-2.4746 -1.31039 0.631147)
(-2.045 -1.82659 0.305466)
(-1.35254 -2.11904 0.0380821)
(-0.875484 -0.569314 1.76584)
(-1.30868 -0.946635 1.67749)
(-1.96584 -1.1647 1.18731)
(-2.12834 -1.39972 1.03512)
(-2.19914 -1.40536 0.756815)
(-2.06098 -1.69115 0.479385)
(-1.69925 -1.63437 -0.0731501)
(-0.0558974 -0.34678 1.25375)
(-0.0873122 -0.62322 1.43298)
(-0.742996 -0.679392 1.53807)
(-0.87506 -0.968499 1.41073)
(-1.41763 -1.04738 0.827036)
(-1.7226 -1.31298 0.521237)
(-1.66495 -1.30112 0.376228)
(-1.54332 -1.42781 -0.0109729)
(0.0438778 -0.310101 1.05365)
(-0.105325 -0.304398 1.09993)
(0.200876 -0.367449 1.16536)
(-0.0611749 -0.856859 1.02921)
(-0.196058 -0.863571 0.973084)
(-0.392144 -0.932521 0.77097)
(-0.576041 -1.15858 0.318547)
(-0.384504 -1.02299 0.322725)
(-0.599634 -1.04631 0.0521532)
(0.0595491 -0.528874 1.04281)
(-0.122156 -0.104265 1.08247)
(0.0197652 -0.589842 0.912529)
(0.0940969 -0.232099 1.02092)
(0.0293237 -0.847451 0.786523)
(-0.253966 -0.759862 0.725451)
(-0.134044 -0.869255 0.615636)
(-0.113395 -0.905149 0.439103)
(-0.369257 -0.97871 0.454233)
(0.0424204 -0.927057 0.0377819)
(0.107395 -0.313115 1.10512)
(0.113073 -0.53876 1.03865)
(-0.0352135 -0.156869 1.02621)
(-0.0353664 -0.466065 0.850439)
(0.158379 -0.158155 0.873728)
(0.269194 -0.588922 0.714948)
(0.459311 -0.61864 0.591959)
(0.647879 -0.620288 0.51009)
(0.595732 -0.797528 0.304795)
(0.85532 -0.662856 0.150496)
(0.111267 -0.467135 -0.0980462)
(-0.297325 -0.195401 1.23682)
(0.1691 -0.276824 1.13759)
(0.292675 -0.393775 1.06253)
(0.0442386 -0.39302 1.06289)
(0.0242357 -0.515607 0.790989)
(0.198239 -0.423184 0.699652)
(0.0523358 -0.720522 0.531863)
(-0.113636 -0.864715 0.174814)
(-0.499164 -1.13419 0.650946)
(-0.743654 -1.33312 0.665086)
(-0.7035 -1.35069 0.766297)
(0.824631 -0.597367 0.769238)
(0.0795179 -0.200042 1.31168)
(0.169815 -0.239846 1.08897)
(0.232787 -0.0410208 1.00554)
(0.302914 -0.162058 0.936551)
(0.270107 -0.155273 0.791468)
(0.325719 -0.00339595 0.530311)
(0.31981 0.136285 0.32675)
(0.375305 -0.0565416 0.436967)
(0.279351 -0.943749 -0.150439)
(0.791219 -0.707637 -1.02946)
(1.19296 -0.676748 -0.95333)
(1.5236 -0.0165309 -0.41538)
(1.02369 -0.54006 0.10657)
(-1.6419 -1.38793 -0.0318907)
(-2.13913 -1.32059 0.257791)
(-1.50054 -1.63656 0.0353082)
(-2.42326 -1.24286 0.2194)
(-1.82114 -1.74477 0.209746)
(-1.52842 -1.74742 0.0215372)
(-2.9114 -1.53309 0.193631)
(-2.42917 -1.5282 0.424334)
(-2.04818 -1.6448 0.207022)
(-1.62142 -1.74619 -0.028575)
(-2.68198 -1.64597 0.422798)
(-2.85638 -1.71958 0.626982)
(-2.32429 -1.78521 0.541622)
(-2.08133 -1.89843 0.142032)
(-1.30414 -2.14116 -0.00478517)
(-2.05333 -1.5828 1.07567)
(-2.44748 -1.65326 0.817935)
(-2.7147 -1.4498 0.538288)
(-2.44135 -1.41294 0.648743)
(-2.05992 -1.70572 0.221791)
(-1.2409 -2.1545 0.0309769)
(-1.51285 -0.52037 1.51216)
(-1.72863 -1.48902 1.05596)
(-2.09751 -1.76014 0.770861)
(-2.07779 -1.702 0.856105)
(-1.95393 -1.90615 0.515141)
(-1.90388 -1.93615 0.350717)
(-1.58081 -1.84333 0.0397511)
(-0.501932 -0.160858 1.66403)
(-0.929591 -0.680661 1.81975)
(-1.36663 -0.903621 1.76227)
(-1.91482 -1.11557 1.29431)
(-2.17527 -1.27993 0.960123)
(-2.25748 -1.4672 0.649813)
(-2.09963 -1.66736 0.413552)
(-1.48731 -1.91753 0.02025)
(0.00182984 -0.0253721 1.23057)
(-0.0998843 -0.311236 1.31804)
(-0.0819623 -0.764187 1.34424)
(-0.720639 -0.813649 1.44754)
(-0.800126 -0.99735 1.31642)
(-1.29055 -0.938093 0.889259)
(-1.60687 -1.27135 0.474838)
(-1.6005 -1.31866 0.29079)
(-1.57156 -1.44608 0.0285311)
(0.156961 -0.450024 1.1017)
(0.00618295 -0.162136 1.12665)
(-0.153194 -0.556955 1.02255)
(0.104733 -0.325199 1.18745)
(0.0116245 -0.989348 0.950241)
(-0.198318 -0.863458 0.885676)
(-0.266228 -0.916445 0.768386)
(-0.460947 -1.10753 0.368311)
(-0.318401 -1.00799 0.345137)
(-0.488738 -0.985607 0.0357074)
(-0.0318897 -0.331603 1.19847)
(0.13031 -0.740652 1.00904)
(-0.120838 -0.0975153 1.09419)
(0.0189171 -0.790334 0.863359)
(0.0963685 -0.363886 1.00421)
(0.00387812 -0.843789 0.803464)
(-0.197752 -0.768977 0.7032)
(-0.102789 -0.865461 0.584268)
(-0.0980095 -0.890907 0.43367)
(-0.35955 -0.941547 0.496287)
(0.0465162 -0.867694 0.0238908)
(-0.487814 0.167226 1.21557)
(0.108711 -0.373291 1.09625)
(0.110638 -0.457056 1.06704)
(0.00851616 -0.281421 1.03198)
(-0.0138751 -0.596576 0.771651)
(0.173484 -0.176773 0.84139)
(0.230821 -0.554492 0.682135)
(0.538612 -0.540415 0.555125)
(0.652586 -0.560267 0.500913)
(0.627863 -0.736424 0.282887)
(0.877655 -0.60506 0.144418)
(0.145523 -0.462661 -0.0687922)
(-0.139828 -0.153669 1.44891)
(-0.269213 -0.227828 1.24293)
(0.167938 -0.289545 1.12092)
(0.306552 -0.378714 1.04255)
(0.0660422 -0.424853 1.05339)
(0.0367786 -0.521847 0.801561)
(0.193178 -0.385267 0.71472)
(0.0570518 -0.672223 0.572171)
(-0.107831 -0.841983 0.209724)
(-0.540973 -1.11547 0.648219)
(-0.693398 -1.37054 0.724919)
(-0.922534 -1.19162 0.848534)
(0.811349 -0.399372 0.737399)
(0.273732 -0.0516198 1.31978)
(0.0804217 -0.20782 1.31196)
(0.175536 -0.24404 1.09094)
(0.225477 -0.0216763 1.00646)
(0.302267 -0.166272 0.940876)
(0.266007 -0.135656 0.79912)
(0.315875 0.01906 0.53952)
(0.305451 0.143242 0.345882)
(0.368047 -0.0525652 0.443659)
(0.309774 -0.946565 -0.156085)
(0.831055 -0.727736 -1.07504)
(1.23559 -0.727103 -0.906522)
(1.57055 -0.117099 -0.564566)
(0.998219 -0.538186 -0.0192941)
(-1.6357 -1.1509 -0.0344536)
(-2.07138 -1.16622 -0.0630471)
(-1.58892 -1.47688 -0.0861014)
(-2.32293 -1.33095 -0.176263)
(-1.91668 -1.54324 0.0177673)
(-1.44567 -1.64511 0.112013)
(-2.7982 -1.00647 0.289494)
(-2.35328 -1.28181 0.333662)
(-1.80666 -1.77173 0.22873)
(-1.39024 -1.76705 0.0560945)
(-2.93928 -1.48531 0.371188)
(-2.83684 -1.46772 0.382731)
(-2.31161 -1.69285 0.146719)
(-1.87662 -1.88228 0.10856)
(-1.57843 -1.7991 -0.0675437)
(-2.81304 -0.968006 0.299679)
(-2.7212 -1.72845 0.569585)
(-2.73353 -1.68898 0.459127)
(-2.42247 -1.39645 0.27548)
(-2.13036 -1.66207 0.196705)
(-1.36006 -2.06565 -0.0186347)
(-1.91729 -1.23131 0.995153)
(-2.11646 -1.73227 0.694734)
(-2.39481 -1.87967 0.856153)
(-2.27674 -1.86535 0.245396)
(-2.35225 -1.409 0.602401)
(-1.73603 -1.89569 0.193398)
(-1.33556 -1.98536 0.0764549)
(-1.28127 -0.395333 1.66953)
(-1.38399 -0.198547 2.00016)
(-1.69196 -1.42739 1.39666)
(-2.04691 -1.64904 0.893652)
(-2.0902 -1.73224 0.872566)
(-2.08723 -1.86253 0.514212)
(-1.90508 -2.00481 0.298657)
(-1.23081 -2.19433 0.0878165)
(-0.0894381 0.250801 1.47046)
(-0.54207 -0.297882 1.70918)
(-0.899206 -0.692067 1.82985)
(-1.37332 -0.91352 1.7536)
(-1.9084 -1.06747 1.33155)
(-2.25582 -1.11967 0.844314)
(-2.33383 -1.38379 0.59277)
(-2.08072 -1.75391 0.393253)
(-1.72826 -1.84432 -0.0266911)
(0.074804 -0.462989 1.16015)
(0.0851684 -0.205569 1.25074)
(-0.0916493 -0.264569 1.36482)
(-0.201799 -0.705703 1.33076)
(-0.703077 -0.885245 1.36144)
(-0.670883 -1.03188 1.16652)
(-1.09801 -1.01541 0.814007)
(-1.45074 -1.19676 0.436901)
(-1.51687 -1.31545 0.212019)
(-1.58559 -1.40436 0.0974224)
(-0.185035 -0.166827 1.08987)
(0.183849 -0.491825 1.0956)
(0.0363724 -0.181524 1.13732)
(-0.0353291 -0.565397 1.03019)
(0.106098 -0.512867 1.12264)
(0.0346261 -1.00846 0.916203)
(-0.195565 -0.87112 0.808184)
(-0.196513 -0.946765 0.709147)
(-0.375712 -1.062 0.411345)
(-0.251072 -0.95212 0.38095)
(-0.384317 -0.938656 0.0249485)
(-0.222504 -0.209026 1.36413)
(0.00926527 -0.210954 1.24302)
(0.0762178 -0.419455 1.14448)
(-0.0957585 -0.0784377 1.1427)
(0.0672837 -0.954335 0.727493)
(0.0641128 -0.437939 0.98572)
(-0.0149984 -0.744024 0.843812)
(-0.156281 -0.765674 0.699483)
(-0.0724888 -0.831253 0.572001)
(-0.0895955 -0.86507 0.429827)
(-0.308111 -0.895703 0.507029)
(0.0536028 -0.799363 0.0177195)
(-0.091858 -0.15401 1.43461)
(-0.473796 0.199568 1.21474)
(0.12589 -0.348221 1.11388)
(0.141263 -0.479672 1.07405)
(0.082087 -0.440151 1.01569)
(-0.0395968 -0.602268 0.75286)
(0.191454 -0.286403 0.768518)
(0.251952 -0.527269 0.664803)
(0.47917 -0.53259 0.532392)
(0.693332 -0.500806 0.466864)
(0.65916 -0.66342 0.26734)
(0.889776 -0.541583 0.140934)
(0.180426 -0.459791 -0.0356778)
(0.233715 -0.284097 1.45353)
(-0.121729 -0.146492 1.45245)
(-0.221828 -0.256037 1.24845)
(0.182965 -0.321322 1.09235)
(0.267129 -0.364925 1.05099)
(0.0692656 -0.425098 1.05419)
(0.031032 -0.540557 0.786669)
(0.18651 -0.383748 0.722959)
(0.0500699 -0.665096 0.563507)
(-0.0607932 -0.824564 0.220158)
(-0.544043 -1.08565 0.699366)
(-0.658681 -1.3636 0.708342)
(-0.75853 -1.23257 0.893453)
(0.761388 -0.189046 0.685717)
(0.190316 -0.141069 1.30211)
(0.265389 -0.03618 1.31666)
(0.0899499 -0.204631 1.31225)
(0.181124 -0.247663 1.09238)
(0.218942 -0.010716 1.00904)
(0.303342 -0.167355 0.945419)
(0.262403 -0.124981 0.805061)
(0.304813 0.0421193 0.54742)
(0.294162 0.149313 0.360695)
(0.369164 -0.0472697 0.442799)
(0.340375 -0.944548 -0.165252)
(0.879361 -0.751063 -1.12388)
(1.29484 -0.717163 -0.928229)
(1.68916 -0.214426 -0.797269)
(0.974619 -0.503921 0.032772)
(-1.44206 -1.18458 0.0284195)
(-1.90126 -1.11616 0.0647706)
(-1.51665 -1.29305 0.00265119)
(-2.3774 -0.87616 -0.0374332)
(-2.03256 -1.22901 0.0104289)
(-1.50375 -1.50556 -0.0643162)
(-2.5458 -0.926257 0.0201459)
(-2.27776 -1.3375 -0.152849)
(-1.8132 -1.6641 -0.110644)
(-1.37345 -1.6735 0.112511)
(-3.06058 -1.07367 0.062237)
(-2.59496 -1.08953 0.202344)
(-2.14374 -1.54971 0.0602027)
(-1.92276 -1.56115 0.242732)
(-1.2309 -1.85083 0.0803054)
(-2.98495 -1.41965 0.239222)
(-2.92844 -1.48904 0.306527)
(-2.67781 -1.17614 0.540754)
(-2.07122 -1.73864 0.0527441)
(-1.98549 -1.65075 0.20353)
(-1.35237 -1.93088 -0.108678)
(-2.7268 -0.645597 0.168454)
(-3.01811 -1.05003 0.284857)
(-2.67326 -1.9015 0.621468)
(-2.74933 -1.15562 0.592904)
(-2.09388 -1.80529 0.373179)
(-1.80897 -1.93015 0.171709)
(-1.0684 -2.16031 -0.00957069)
(-1.71028 -0.451494 1.2331)
(-1.95703 -1.54265 0.8062)
(-2.04868 -1.97199 0.657867)
(-2.40009 -1.8338 0.879946)
(-2.30555 -1.65493 0.655107)
(-2.07139 -1.78255 0.464089)
(-1.64627 -2.01264 0.201504)
(-1.13016 -2.15527 0.103514)
(-0.797867 0.308168 1.7388)
(-1.25744 -0.394356 1.84761)
(-1.64693 -1.08034 1.47086)
(-1.81509 -1.55346 1.39752)
(-2.09146 -1.54635 0.961286)
(-2.08588 -1.77341 0.820715)
(-2.14329 -1.7161 0.558023)
(-1.90069 -1.99568 0.296683)
(-1.62048 -1.94936 0.00302043)
(0.0705257 0.0554918 1.32876)
(-0.172234 -0.103004 1.60754)
(-0.619327 -0.292077 1.7331)
(-0.980171 -0.849831 1.70452)
(-1.35404 -1.01677 1.67007)
(-1.7997 -1.06456 1.36006)
(-2.23638 -1.0605 0.727641)
(-2.26991 -1.34113 0.49834)
(-2.20597 -1.56954 0.173229)
(-1.87691 -1.6966 -0.0594156)
(-0.203073 -0.194294 1.07294)
(0.14979 -0.455858 1.16603)
(-0.0209613 -0.201417 1.33902)
(0.0423373 -0.313186 1.38975)
(-0.184288 -0.699536 1.31767)
(-0.601006 -0.979823 1.24272)
(-0.600007 -0.922073 1.08797)
(-0.810723 -1.14107 0.755831)
(-1.26093 -1.1418 0.468498)
(-1.3819 -1.29244 0.232635)
(-1.39635 -1.50991 0.101634)
(-0.347555 -0.159265 1.30292)
(-0.119221 -0.228123 1.10784)
(0.201104 -0.5098 1.12953)
(0.0417718 -0.367037 1.10024)
(-0.010442 -0.573428 1.02609)
(0.128983 -0.698963 1.02679)
(0.00844846 -0.889491 0.930327)
(-0.182813 -0.828117 0.776031)
(-0.153898 -0.919121 0.665842)
(-0.299676 -1.0005 0.421601)
(-0.187844 -0.881939 0.399717)
(-0.300927 -0.863638 0.0173991)
(-0.255252 -0.10064 1.39766)
(-0.263568 -0.152381 1.35902)
(0.0906018 -0.295387 1.18457)
(0.0659146 -0.299231 1.21595)
(-0.0228151 -0.248101 1.19038)
(0.0581085 -0.799506 0.792109)
(0.032452 -0.482674 0.973506)
(-0.0294118 -0.693189 0.852701)
(-0.0984229 -0.782875 0.657874)
(-0.1103 -0.808721 0.566299)
(-0.0905658 -0.82882 0.425581)
(-0.27671 -0.839555 0.483996)
(0.0597938 -0.734391 0.0127955)
(0.0960654 -0.439484 1.4073)
(-0.093077 -0.0928411 1.45069)
(-0.432142 0.242887 1.21434)
(0.129752 -0.310233 1.13445)
(0.154338 -0.447283 1.08982)
(0.097978 -0.469608 1.00982)
(-0.0320035 -0.590276 0.751208)
(0.206915 -0.315666 0.750038)
(0.243004 -0.502168 0.655649)
(0.474289 -0.480256 0.510288)
(0.681629 -0.446836 0.451328)
(0.688225 -0.591874 0.258435)
(0.903058 -0.475532 0.135341)
(0.216744 -0.451796 0.00717473)
(0.0923644 -0.29521 1.43522)
(0.199374 -0.24867 1.45752)
(-0.100597 -0.151541 1.45279)
(-0.190475 -0.262239 1.24938)
(0.187056 -0.319196 1.08256)
(0.252827 -0.36067 1.05472)
(0.0579308 -0.435834 1.05317)
(0.029883 -0.536888 0.780608)
(0.18271 -0.388336 0.715466)
(0.0637955 -0.653482 0.56519)
(-0.0581891 -0.841939 0.186795)
(-0.515204 -1.18813 0.727924)
(-0.734579 -1.3049 0.748676)
(-0.808124 -1.2986 0.858535)
(0.755552 -0.0406578 0.460186)
(0.0152831 -0.176129 1.46089)
(0.188261 -0.131817 1.30076)
(0.261555 -0.0359969 1.31726)
(0.0907426 -0.206546 1.3124)
(0.187299 -0.251935 1.09361)
(0.20788 0.00880288 1.01456)
(0.302934 -0.167859 0.95131)
(0.257735 -0.112029 0.81046)
(0.292939 0.0612579 0.55293)
(0.281245 0.154076 0.376332)
(0.363225 -0.0430718 0.448519)
(0.371549 -0.938531 -0.173489)
(0.936786 -0.779685 -1.14177)
(1.30159 -0.72194 -0.889473)
(1.72992 -0.274031 -0.840858)
(0.964275 -0.499446 -0.00195208)
(-1.4127 -1.05926 -0.00933577)
(-1.72561 -1.11105 -0.0368022)
(-1.40692 -1.22579 0.012957)
(-2.11162 -0.976182 0.0880361)
(-1.84061 -1.21278 0.00945119)
(-1.37942 -1.41562 0.0493652)
(-2.39651 -0.860466 -0.0925458)
(-2.16705 -1.11597 -0.055373)
(-1.82022 -1.4703 0.0258351)
(-1.38655 -1.53466 -0.0432198)
(-2.7257 -0.777524 0.0438544)
(-2.45371 -1.02386 0.14114)
(-2.25641 -1.20748 0.0716417)
(-1.85018 -1.54398 -0.0817025)
(-1.2867 -1.69733 0.0423782)
(-3.199 -1.02663 0.231929)
(-2.81593 -1.17407 0.393163)
(-2.32897 -1.39988 0.307923)
(-2.0874 -1.49789 0.00293129)
(-1.53646 -1.88179 0.0411151)
(-1.19518 -1.87961 0.0960942)
(-2.92474 -1.47487 0.321736)
(-2.96388 -1.70433 0.504473)
(-2.65113 -1.68526 0.354525)
(-2.30044 -1.68041 0.394871)
(-2.13114 -1.55835 0.191694)
(-1.7263 -1.8821 0.137208)
(-1.44113 -1.80768 -0.0811756)
(-2.48591 -0.651139 0.685752)
(-2.72131 -1.16057 0.19383)
(-2.86766 -1.58926 0.527984)
(-2.66362 -1.79502 0.75318)
(-2.25333 -1.90272 0.675034)
(-2.17779 -1.72784 0.463002)
(-1.70681 -2.01245 0.164352)
(-1.14306 -2.08912 0.0688724)
(-1.44325 0.19978 1.50155)
(-1.58698 -0.622123 1.29947)
(-1.96773 -1.75453 0.855116)
(-2.00925 -2.10849 0.761332)
(-2.31231 -1.79947 0.762806)
(-2.21368 -1.72174 0.589594)
(-1.95842 -1.77828 0.425031)
(-1.53733 -2.08314 0.211657)
(-1.30233 -2.01317 0.145562)
(-0.569877 0.382792 1.55282)
(-0.985881 -0.161733 1.88255)
(-1.34526 -0.584172 1.83252)
(-1.59414 -1.15625 1.43857)
(-1.97977 -1.52632 1.27377)
(-2.15688 -1.52769 1.0184)
(-2.1302 -1.67314 0.735692)
(-2.12429 -1.62007 0.490527)
(-1.92514 -2.00182 0.185377)
(-1.52312 -1.97093 0.0298133)
(0.0323306 0.116349 1.21465)
(0.207051 0.0838421 1.41232)
(-0.161999 -0.459249 1.6985)
(-0.563367 -0.558352 1.65414)
(-1.03287 -0.876121 1.65165)
(-1.35431 -1.02527 1.58885)
(-1.70332 -0.886697 1.3291)
(-2.1367 -1.03505 0.714018)
(-2.22124 -1.22669 0.482889)
(-2.19909 -1.49163 0.292957)
(-1.74702 -1.8693 -0.0695943)
(-0.418576 0.188571 1.25428)
(-0.15 -0.278753 1.10578)
(0.21201 -0.368389 1.20209)
(-0.0423526 -0.292294 1.36608)
(-0.0336135 -0.478055 1.32311)
(-0.209904 -0.815567 1.25094)
(-0.455958 -1.03784 1.11617)
(-0.481954 -0.879567 1.00498)
(-0.573907 -1.1745 0.698551)
(-1.05437 -1.07606 0.5194)
(-1.20358 -1.25693 0.331238)
(-1.28252 -1.54901 0.149719)
(-0.166604 -0.0304936 1.55269)
(-0.177538 -0.321424 1.32853)
(-0.0879661 -0.258653 1.13274)
(0.190921 -0.537498 1.12766)
(0.025479 -0.422878 1.08196)
(0.00725396 -0.405311 1.13237)
(0.125248 -0.764077 0.988289)
(-0.0081648 -0.854265 0.8785)
(-0.188767 -0.745711 0.770199)
(-0.148224 -0.857127 0.630737)
(-0.220967 -0.936032 0.41717)
(-0.165033 -0.796558 0.405916)
(-0.231563 -0.777988 0.000440151)
(-0.0522887 -0.536707 1.38655)
(-0.227272 -0.0403854 1.45744)
(-0.32337 -0.0400083 1.31069)
(0.0891854 -0.327689 1.19201)
(0.0556269 -0.386291 1.22425)
(0.0908084 -0.505074 1.05726)
(0.0314565 -0.608256 0.898427)
(0.0242621 -0.519049 0.955357)
(-0.0294126 -0.650813 0.857613)
(-0.0500798 -0.756934 0.645507)
(-0.0904255 -0.760889 0.561185)
(-0.105397 -0.784974 0.414123)
(-0.227996 -0.777641 0.471025)
(0.0751314 -0.667419 0.0286796)
(0.0581371 -0.247902 1.47609)
(0.0577341 -0.419925 1.40987)
(-0.0712257 -0.0494265 1.44583)
(-0.370384 0.170492 1.24706)
(0.113218 -0.220253 1.14717)
(0.174379 -0.453667 1.04885)
(0.109123 -0.468958 1.00864)
(-0.0223874 -0.535626 0.76945)
(0.203635 -0.323132 0.727907)
(0.268295 -0.494581 0.632852)
(0.459259 -0.441222 0.504246)
(0.676935 -0.386507 0.434123)
(0.702789 -0.516686 0.249855)
(0.91015 -0.416772 0.136805)
(0.242547 -0.434707 0.0475806)
(-0.0223609 -0.173709 1.57002)
(0.102227 -0.265895 1.43705)
(0.180021 -0.235021 1.4541)
(-0.0761436 -0.146878 1.45399)
(-0.14837 -0.260734 1.25271)
(0.184854 -0.287865 1.08614)
(0.244288 -0.334968 1.07617)
(0.0625928 -0.424791 1.05514)
(0.0296333 -0.509802 0.786859)
(0.181324 -0.390553 0.709351)
(0.0724875 -0.643007 0.571127)
(-0.0433039 -0.844107 0.168168)
(-0.588677 -1.20575 0.821234)
(-0.675934 -1.35233 0.699379)
(-0.809624 -1.3321 0.909973)
(0.70207 0.119217 0.300046)
(-0.0217277 -0.142271 1.62536)
(0.019553 -0.181435 1.46084)
(0.186662 -0.120555 1.30293)
(0.257812 -0.0287262 1.32426)
(0.0959169 -0.201215 1.31238)
(0.193582 -0.254444 1.09558)
(0.197071 0.0233751 1.01544)
(0.304315 -0.171173 0.955918)
(0.253623 -0.101106 0.815868)
(0.281535 0.076307 0.558227)
(0.268835 0.15707 0.390844)
(0.358045 -0.0394092 0.454303)
(0.40265 -0.929059 -0.182122)
(0.996542 -0.8024 -1.13538)
(1.31614 -0.707191 -0.858961)
(1.74555 -0.297342 -0.829763)
(0.962441 -0.493826 -0.0239175)
(-1.35171 -0.983361 -0.0113128)
(-1.67089 -1.02733 0.00672898)
(-1.30658 -1.1659 -0.00910124)
(-1.94019 -0.938972 0.0323314)
(-1.70689 -1.13417 -0.0184994)
(-1.33738 -1.28264 -0.00303139)
(-2.2439 -0.819013 0.180909)
(-2.02741 -1.08705 0.117092)
(-1.67315 -1.42312 0.0175804)
(-1.33021 -1.43619 0.0201397)
(-2.51957 -0.833396 0.191502)
(-2.26363 -1.09452 0.11268)
(-1.97943 -1.38366 0.0197653)
(-1.86296 -1.33411 0.139876)
(-1.15507 -1.70457 -0.00805569)
(-2.85605 -0.969875 0.240573)
(-2.54297 -0.976091 0.241275)