/*--------------------------------*- C++ -*----------------------------------*\
  =========                 |
  \\      /  F ield         | OpenFOAM: The Open Source CFD Toolbox
   \\    /   O peration     | Website:  https://openfoam.org
    \\  /    A nd           | Version:  7
     \\/     M anipulation  |
\*---------------------------------------------------------------------------*/
FoamFile
{
    version     2.0;
    format      ascii;
    class       volScalarField;
    location    "5.5";
    object      nut;
}
// * * * * * * * * * * * * * * * * * * * * * * * * * * * * * * * * * * * * * //

dimensions      [0 2 -1 0 0 0 0];

internalField   nonuniform List<scalar> 
18750
(
0.000698562
0.000661305
0.00140227
0.00073168
0.00258325
0.00187318
0.00143259
0.00149504
0.00147464
0.000778034
0.00223122
0.000628725
0.00192542
0.000423063
0.00151024
0.00192038
0.000414026
0.00132503
0.00131181
0.000942328
0.00294977
0.00160583
0.00261341
0.00144555
0.00269621
0.00120594
0.000659228
0.00023952
0.000975078
0.00204656
0.000282691
0.000399086
0.00116097
0.0010598
0.00107066
0.00280385
0.00198578
0.002654
0.00163677
0.00152822
0.00268724
0.000998722
0.00227141
0.000481321
0.00128573
0.000411751
0.00116653
0.000501297
0.00104676
0.00198269
0.000297934
0.000271208
0.000403451
0.000950131
0.00113432
0.00115766
0.00327498
0.00247236
0.00294517
0.00125202
0.00184804
0.00312744
0.000713366
0.00193985
0.00307182
0.00283544
0.000458178
0.000783972
0.00204345
0.00416463
0.00137619
0.000311363
0.000238267
0.000642004
0.000432215
0.000937834
0.00187887
0.000171605
0.000321166
0.000270801
0.000430806
0.000775984
0.00143076
0.00118836
0.0029524
0.00190579
0.00307374
0.000281058
0.00238586
0.00289018
0.00127912
0.00112311
0.00151669
0.00301658
0.000760981
0.00097273
0.00182088
0.00227309
0.00285177
0.000874248
0.000770711
0.000568442
0.000987674
0.000709872
0.001676
0.00052256
0.00057568
0.000335216
0.000440812
0.000558761
0.000767361
0.00174472
0.00022177
0.000189954
0.000430461
0.000278754
0.000442935
0.000633719
0.00163565
0.00119183
0.00270114
0.00144604
0.00294167
0.00172112
0.00158319
0.0030188
0.00124167
0.00242555
0.00149091
0.00303618
0.000866962
0.000780391
0.00162237
0.00147184
0.00329422
0.000920326
0.000698905
0.00106864
0.00181516
0.00159372
0.00282211
0.00102203
0.000470132
0.000566562
0.000464771
0.00107943
0.00123567
0.00264223
0.000431063
0.00049186
0.000560089
0.000391551
0.000532161
0.000521789
0.000885284
0.00189265
0.000209557
0.000191796
0.000135251
0.000457526
0.000284028
0.000548893
0.000601277
0.00173101
0.00128229
0.00261831
0.001217
0.00260024
0.00184675
0.00104887
0.00288021
0.00181423
0.00185279
0.00158012
0.00324755
0.00111327
0.00140266
0.00183506
0.0011788
0.00314129
0.000878576
0.000700644
0.00131842
0.00116714
0.00149907
0.00399361
0.00128282
0.000964763
0.000863176
0.00126396
0.00124862
0.000677727
0.0030533
0.00073582
0.00184632
0.00087541
0.000653912
0.000818833
0.000997701
0.00180817
0.00209162
0.00055531
0.000367908
0.000234094
0.000262406
0.000153535
0.000535127
0.00100986
0.000940651
0.00213269
0.000133761
0.000239305
0.000271979
0.000154013
0.000396693
0.000286079
0.000537309
0.000500842
0.00173199
0.001341
0.00271907
0.00107761
0.00266059
0.000786374
0.00124071
0.00275781
0.000974947
0.000647685
0.00106101
0.00305674
0.0019373
0.00107073
0.0015212
0.00113655
0.00313253
0.000807953
0.000285858
0.000964061
0.00145585
0.00142098
0.00310317
0.00119055
0.000890004
0.000736168
0.000604814
0.000945834
0.00192408
0.00383568
0.0009066
0.00213072
0.000584761
0.000813523
0.0018215
0.00137472
0.0011436
0.00297161
0.00108415
0.000790467
0.000851516
0.00103867
0.000538436
0.00146357
0.00111303
0.00161726
0.00189438
0.000192855
0.00045468
0.000432671
0.000235135
0.000309051
0.000224992
0.000564522
0.00100416
0.000995728
0.00214734
0.000201457
0.000208745
0.000254612
0.00027142
0.000210572
0.000406716
0.000283488
0.000374582
0.000394392
0.00166571
0.00124736
0.00103388
0.00276158
0.000773969
0.00101102
0.00273809
0.000838127
0.000598323
0.00113369
0.00266334
0.000903381
0.00103431
0.00105155
0.000977111
0.0030362
0.00119521
0.00077621
0.000817674
0.00167413
0.0015855
0.00318296
0.000978792
0.000220607
0.00108075
0.000918231
0.00116074
0.00180805
0.00275838
0.000606786
0.0012473
0.000658581
0.00104811
0.00092219
0.000678679
0.00155479
0.00317546
0.000717685
0.00176905
0.00179942
0.000537241
0.000699974
0.00125005
0.00187693
0.00132687
0.0029504
0.000357676
0.000662881
0.00136284
0.000548439
0.000524887
0.000744402
0.00125613
0.00126645
0.00198266
0.00144185
0.000263463
0.000277199
0.000318849
0.00058825
0.000299945
0.000411
0.000218122
0.000491797
0.000736352
0.00116868
0.00194861
9.6456e-05
0.000224097
0.00029615
0.000228026
0.000260361
0.000301728
0.000413907
0.00027425
0.000326012
0.000383418
0.00157051
0.00111112
0.00247609
0.000540205
0.00105509
0.00266455
0.000760406
0.000705835
0.000883889
0.00277852
0.00093292
0.000701684
0.000832238
0.000956694
0.00278897
0.00110505
0.00141497
0.0011673
0.00132713
0.00101664
0.00282843
0.00129032
0.00102411
0.0014298
0.00178893
0.0006811
0.00115009
0.00308666
0.000360691
0.000328563
0.000443766
0.00147824
0.00138401
0.001236
0.00193817
0.00268505
0.0004879
0.000595728
0.00113624
0.000582564
0.000400726
0.000659763
0.00109914
0.00223927
0.00302593
0.000841733
0.000628536
0.00162528
0.0011836
0.000944971
0.00112623
0.000762378
0.00170621
0.00149495
0.00318735
0.000564551
0.000494366
0.000500676
0.00130524
0.000701005
0.00057303
0.000648128
0.00103448
0.00159027
0.00212795
0.00169261
0.000307133
0.00020668
0.000671501
0.000541427
0.000631332
0.000253885
0.000307162
0.000167338
0.000501895
0.000975202
0.00129699
0.00162693
4.54225e-05
0.000100493
0.00025629
0.00042115
0.000170658
0.000251522
0.000384183
0.000460655
0.000265524
0.000288251
0.000386348
0.00141776
0.000949155
0.00249643
0.000662071
0.00250456
0.000425491
0.00059945
0.000915531
0.00266861
0.000813026
0.000786837
0.000888781
0.000845872
0.00275303
0.000723951
0.000919289
0.000703442
0.000789589
0.000967211
0.00286873
0.000952327
0.00106107
0.000955875
0.000934145
0.000977306
0.00107675
0.00291868
0.000793053
0.000983254
0.000635547
0.000941621
0.0007826
0.000913198
0.0013672
0.00301381
0.000651207
0.000313803
0.000268509
0.000616348
0.00104541
0.0012993
0.00141328
0.00179251
0.00277596
0.00118228
0.000708522
0.00127464
0.000842754
0.000618661
0.000698775
0.000356167
0.000870279
0.00207882
0.00284479
0.000449848
0.000710169
0.000792222
0.000963065
0.00111682
0.00069671
0.00117227
0.00123965
0.0013518
0.00150123
0.00268374
0.000592643
0.000472601
0.000402346
0.000670711
0.000727005
0.000808211
0.000474112
0.000630081
0.00197878
0.00203985
0.00203555
0.00311348
0.000144624
0.00030652
0.000503673
0.0006177
0.000700814
0.00057647
0.000223804
0.000405314
0.000188876
0.000926256
0.000937119
0.00151698
0.00145379
0.000210947
0.000103871
0.00010158
0.000281876
0.000523701
0.000139852
0.000272827
0.000461704
0.000488802
0.000258871
0.000297285
0.000565551
0.00145562
0.000809884
0.00218843
0.000904116
0.00243578
0.000457195
0.000637327
0.00256693
0.000462185
0.000876827
0.000640016
0.000688303
0.0026917
0.000717323
0.000931403
0.000555361
0.00100849
0.000937071
0.00267941
0.000541445
0.00083115
0.000556448
0.000710121
0.000713038
0.00114745
0.00290823
0.000905419
0.0012877
0.000698478
0.0010749
0.000813931
0.00069075
0.00121088
0.00266133
0.000693069
0.000923957
0.000598235
0.00124141
0.00129733
0.00144765
0.00126937
0.00114792
0.00331927
0.000676678
0.000517182
0.000424789
0.000436334
0.000917119
0.0016069
0.0010869
0.00217757
0.00145591
0.00286069
0.000745737
0.000487039
0.000724489
0.00167424
0.00122499
0.000713737
0.000487953
0.00137137
0.000849295
0.00216171
0.00278423
0.000595948
0.000672034
0.000712962
0.000935514
0.0020037
0.00111573
0.000709784
0.00119822
0.00101926
0.000923756
0.00109159
0.00313409
0.000458488
0.000742906
0.000476919
0.000486359
0.000640874
0.000710658
0.000462832
0.000520497
0.00034555
0.00172041
0.00240693
0.00320377
0.00271662
0.000191307
0.000243749
0.000266283
0.00050156
0.000507168
0.000640577
0.000494554
0.000263947
0.000405409
0.000257429
0.00111247
0.000980444
0.00193394
0.0013419
0.000142372
0.000216614
0.00019547
0.000109115
0.000314665
0.000582981
0.000140848
0.000287062
0.000524757
0.000521568
0.000248144
0.00028216
0.000634181
0.00137924
0.000685172
0.000513382
0.00220868
0.000750658
0.000768132
0.00232656
0.000571563
0.000742909
0.000636572
0.00238117
0.000374577
0.000564575
0.000497412
0.000593181
0.00081041
0.00271068
0.000810361
0.000717191
0.000711955
0.000702346
0.000863152
0.000762066
0.0026558
0.00108427
0.00064266
0.000722899
0.000851869
0.000827533
0.000659099
0.00115119
0.00269507
0.000847231
0.00103837
0.000689146
0.000960374
0.000810606
0.000796073
0.000749785
0.000842145
0.00292212
0.000654513
0.00079864
0.000595249
0.000723507
0.000847265
0.00133685
0.00103322
0.000669849
0.00108522
0.00314735
0.000537762
0.00050873
0.000237688
0.000485654
0.00054952
0.000866357
0.00104504
0.00133696
0.00195698
0.00142896
0.00282291
0.000486754
0.000743226
0.000771429
0.00101853
0.00168761
0.000911015
0.00164418
0.00102871
0.000254156
0.00133301
0.00189346
0.00263624
0.000656114
0.000683898
0.000588753
0.000673262
0.000690647
0.00161593
0.000468637
0.000675492
0.00168068
0.00175332
0.00152793
0.000661627
0.00260512
0.000617531
0.0006051
0.000560079
0.000371866
0.000536832
0.000578522
0.000861118
0.000434152
0.000574734
0.000457378
0.00109318
0.00207876
0.00286507
0.00197058
0.000234273
0.000154432
0.000191134
0.000212249
0.000428293
0.000387353
0.000617978
0.00037928
0.00020656
0.000413732
0.000460982
0.000601206
0.00108218
0.00219203
0.00140144
0.000175031
0.000121726
0.000170808
0.000231679
9.14775e-05
0.000348846
0.000592596
0.000208362
0.000252868
0.000568243
0.000512375
0.000249067
0.000224285
0.000557851
0.00106971
0.000464171
0.00239132
0.000446181
0.000628874
0.00230322
0.000775526
0.000730248
0.000670645
0.00235961
0.000434133
0.00063304
0.000930415
0.000673709
0.00245108
0.00071502
0.000704269
0.000724848
0.000405356
0.000715566
0.000834783
0.00248329
0.000725607
0.00070823
0.000789623
0.000644412
0.000683187
0.00047665
0.000888775
0.00262217
0.000577464
0.000538402
0.000780981
0.000617476
0.000748256
0.000520978
0.000624522
0.00106577
0.00285837
0.000623
0.00109836
0.000863795
0.000689538
0.00116015
0.00057992
0.00088373
0.000894681
0.000685889
0.00288075
0.000583875
0.000548522
0.000818878
0.000545537
0.000926443
0.000685205
0.00118241
0.00124253
0.00147146
0.000849509
0.00300162
0.000515704
0.00066941
0.00114702
0.000412574
0.000755599
0.00061302
0.00160654
0.000638144
0.00157661
0.00133997
0.00195987
0.00279897
0.000655588
0.000778532
0.000747257
0.000671946
0.000851956
0.00120229
0.000576032
0.000868794
0.00103372
0.00193708
0.000988723
0.00205512
0.0022017
0.00075971
0.000598002
0.00054217
0.000534106
0.000618984
0.000687991
0.00140253
0.000783767
0.00119305
0.00121535
0.00098882
0.00115971
0.00159372
0.00219064
0.00128608
0.000572083
0.00057317
0.000503548
0.000412367
0.000540415
0.00043857
0.000437055
0.000611026
0.000364003
0.000837625
0.00205898
0.00140071
0.00288489
0.00251062
0.000282922
0.00023539
0.000136992
0.000252055
0.000568752
0.000474445
0.000265001
0.000550983
0.000381029
0.000205854
0.000364574
0.000577116
0.00059566
0.000781559
0.00211991
0.00122164
0.000318626
0.000205595
0.000136685
0.000127844
0.000232453
0.000149879
0.000387669
0.000562344
0.000159305
0.000222477
0.000608424
0.000553394
0.000264305
0.000299656
0.000706282
0.000896946
0.000513062
0.00242728
0.000456992
0.00239204
0.000476434
0.000430735
0.000615765
0.00229895
0.000670092
0.000697753
0.00102389
0.000776349
0.00236031
0.000604241
0.000419732
0.000461263
0.000530336
0.000821348
0.00257778
0.000497631
0.000700789
0.000633655
0.000575664
0.000571977
0.000767444
0.000843949
0.00256203
0.000521462
0.000906745
0.000575657
0.000636761
0.000699858
0.000579319
0.000470747
0.000890863
0.00260111
0.00078463
0.000820291
0.000619146
0.000743371
0.000805943
0.000743338
0.000758078
0.000493726
0.000875492
0.00300381
0.000786505
0.000611027
0.00100081
0.000683819
0.000906008
0.000860871
0.00077671
0.000789367
0.000561788
0.000690341
0.00277097
0.000641005
0.000749676
0.000639354
0.000611943
0.000765112
0.000751738
0.00190239
0.00112122
0.00123621
0.00184121
0.00124003
0.00304383
0.000292461
0.000492088
0.000396263
0.000887197
0.000570121
0.000279253
0.00116291
0.000626647
0.00136368
0.00109515
0.00137687
0.00132955
0.00271224
0.000647788
0.000586855
0.00064521
0.000526968
0.000903108
0.000903931
0.000508496
0.000886818
0.00140269
0.000922224
0.00131514
0.000903262
0.00188048
0.00220478
0.000906213
0.000668871
0.000975198
0.000448967
0.000644496
0.00059775
0.000792771
0.00118838
0.00106465
0.00129065
0.000691637
0.00172032
0.00139902
0.00236722
0.00210376
0.000675437
0.000545042
0.000654926
0.000964515
0.000412764
0.00039301
0.000597478
0.000413759
0.00068551
0.000444675
0.000592989
0.000518145
0.00247797
0.00165403
0.00228844
0.00241371
0.000256887
0.000294616
0.000171919
0.000278305
0.000199922
0.000637222
0.00058565
0.000353122
0.000434343
0.000342037
0.000138352
0.000720454
0.000668976
0.00108307
0.000587704
0.00180083
0.00109878
0.000202054
0.000237526
0.000232881
0.000133887
0.000134215
0.000243569
0.000182985
0.000420515
0.000500739
0.000220247
0.000248055
0.000630454
0.000537264
0.000271547
0.000410122
0.000914618
0.000738514
0.000357177
0.00223438
0.000426078
0.00234291
0.000438003
0.000605604
0.00234524
0.000292587
0.000532391
0.00089402
0.000704221
0.00235686
0.00052971
0.000444997
0.000456223
0.000601541
0.00079124
0.00240296
0.000573547
0.000467648
0.000534454
0.000697278
0.000645852
0.00084445
0.00250685
0.000450686
0.000578884
0.000785881
0.000523481
0.000660642
0.00045201
0.000466436
0.000930856
0.00256094
0.000764403
0.000587918
0.000912295
0.000627784
0.00069213
0.000603548
0.000603855
0.000593167
0.000617141
0.00274158
0.000877046
0.000534877
0.000652902
0.000705648
0.000568953
0.000961934
0.000623891
0.000644628
0.000590463
0.000976127
0.00274932
0.001022
0.000686508
0.00133604
0.000982417
0.00089445
0.000967363
0.00067307
0.000561561
0.000794554
0.000749967
0.000555396
0.00291546
0.000934878
0.000561259
0.000853165
0.000747139
0.000691746
0.000752666
0.00110029
0.00157224
0.00105671
0.000994655
0.000851794
0.000897647
0.00314996
0.000469797
0.000530158
0.000384327
0.000555966
0.000518237
0.000267932
0.000414749
0.000807606
0.000746206
0.00271602
0.000967961
0.00136634
0.000879242
0.00253972
0.000542282
0.000716492
0.000420657
0.000555018
0.000679502
0.00109824
0.00114447
0.000797496
0.000714129
0.000718538
0.000774599
0.00137349
0.00107759
0.00138932
0.00246527
0.000793981
0.000656263
0.000812752
0.000745094
0.000724893
0.000577312
0.000672873
0.000957085
0.00141594
0.000843693
0.000804988
0.00116551
0.000984383
0.00166347
0.002254
0.00233373
0.000525436
0.000894515
0.000686122
0.00102294
0.000525529
0.000510408
0.000451363
0.000491336
0.000431749
0.000801005
0.00042808
0.000840911
0.00073647
0.0025257
0.00180368
0.00161024
0.00237575
0.000295529
0.000273246
0.00035317
0.000342346
0.000201444
0.000219027
0.000380792
0.000281795
0.000532444
0.000491982
0.00023914
0.000131623
0.000259724
0.000729111
0.00121245
0.000682957
0.00181796
0.00143418
0.000159155
0.000187109
0.000290687
0.000243068
0.000122867
0.00017118
0.000273286
0.000162092
0.000428507
0.000399742
0.000222644
0.000298514
0.000646315
0.000532192
0.000302282
0.000482545
0.000883116
0.000636111
0.000393922
0.0022004
0.000675386
0.00216665
0.000443431
0.000513789
0.00224605
0.000305547
9.9468e-05
0.00048929
0.00225884
0.000234943
0.000447827
0.000692986
0.000893762
0.000813877
0.00238857
0.000504488
0.000497719
0.000443056
0.000478399
0.000412984
0.00049132
0.0025534
0.000591106
0.000598759
0.000350158
0.000543685
0.000405557
0.000528536
0.000762225
0.00234449
0.000663993
0.000514417
0.000404854
0.000533721
0.000683714
0.000535641
0.000648314
0.000592473
0.000643098
0.00273571
0.000687751
0.000551856
0.000901641
0.000764135
0.000571427
0.00067177
0.000639739
0.000531949
0.000482481
0.000956459
0.00273298
0.000752423
0.000491053
0.000425966
0.000770096
0.000657388
0.000738602
0.000756223
0.000628183
0.000518641
0.000783039
0.000972746
0.00291268
0.000667961
0.000634923
0.000958239
0.000950021
0.000682046
0.000936325
0.000865428
0.0010193
0.000978699
0.000768407
0.00058598
0.000533765
0.00283567
0.001316
0.000866726
0.000666032
0.000641952
0.000751731
0.000743371
0.000884659
0.00133495
0.000860905
0.00115768
0.00121172
0.000837798
0.000787454
0.00276233
0.000691093
0.000749984
0.000710297
0.000369477
0.000288681
0.000454921
0.000249772
0.000145322
0.000539072
0.000790624
0.000282342
0.00136943
0.00134374
0.00123471
0.00277551
0.000775653
0.000620255
0.000513261
0.00159457
0.00106328
0.000729056
0.000765086
0.00111954
0.000805695
0.000906302
0.0010816
0.000766205
0.000777737
0.000837087
0.000752844
0.00243442
0.000710893
0.000955589
0.00100667
0.000769913
0.000351695
0.000550677
0.00062199
0.00063535
0.000950386
0.00129154
0.00120665
0.00104608
0.00119934
0.00147446
0.00161947
0.00128348
0.00299936
0.000362834
0.000728908
0.00104003
0.000914255
0.000641246
0.000536912
0.000346651
0.00047783
0.000558163
0.00063758
0.000492886
0.000268227
0.00050055
0.00150699
0.00260872
0.000819765
0.0015655
0.00223598
0.000208547
0.000267024
0.000251451
0.000238532
0.000148757
0.000207713
0.000294461
0.000365266
0.000140583
0.000445628
0.000557843
0.000320662
0.00041639
0.000449891
0.000832983
0.000856524
0.000646024
0.00157153
0.00201715
0.000206307
0.000149004
0.000164146
0.000278802
0.000265374
0.000125023
0.000217452
0.000311492
0.000199292
0.000418547
0.000304126
0.000231772
0.000346314
0.00065241
0.000519238
0.000370908
0.000513567
0.000817736
0.000701147
0.000592724
0.00227852
0.000476063
0.00226126
0.000481837
0.000624076
0.00218697
0.000437167
0.000451303
0.000757171
0.00225145
0.00029704
0.000194162
0.000754943
0.000253777
0.00227819
0.000315933
0.000381941
0.000515171
0.000637076
0.000609165
0.000680261
0.00226515
0.000325355
0.000409792
0.0002598
0.000496791
0.000562302
0.000293752
0.000375303
0.00244735
0.000583013
0.000416262
0.000631417
0.000428784
0.000561944
0.000469487
0.000439458
0.000352735
0.00261775
0.000388046
0.000564868
0.000462748
0.000680664
0.000500411
0.000683471
0.000548683
0.000634918
0.00066741
0.000791123
0.00248188
0.000466937
0.000701262
0.00077052
0.000574166
0.000538643
0.000537653
0.000719965
0.000481599
0.000637097
0.000562093
0.000880319
0.0027598
0.000804248
0.000748416
0.000514318
0.000738378
0.000894132
0.00075352
0.00083785
0.000655161
0.000716517
0.000543531
0.000746019
0.000850299
0.00273612
0.000642599
0.000609299
0.000896989
0.00104853
0.000431687
0.000904529
0.00079526
0.000946379
0.0010394
0.0012344
0.00123641
0.000836293
0.000899669
0.00267642
0.000802703
0.000967219
0.000629009
0.000391717
0.00057321
0.000687651
0.000581933
0.00115893
0.000987767
0.00104101
0.00165531
0.000770065
0.00143476
0.000756571
0.00295887
0.000549843
0.000966728
0.0012023
0.000448482
0.000395126
0.000488205
0.000241347
0.000262001
0.000338593
0.000445098
0.00055017
0.00160905
0.00150829
0.00105088
0.00139288
0.00286181
0.000575493
0.000663365
0.000413951
0.000772121
0.000767281
0.000478575
0.000995244
0.000811634
0.00115527
0.000796169
0.001593
0.00140023
0.000924909
0.00110462
0.000960479
0.00182322
0.00256429
0.000694883
0.000536
0.000792322
0.000707197
0.000691039
0.000760141
0.000377648
0.000643126
0.000782783
0.000673257
0.000911734
0.00127103
0.00108295
0.00139119
0.00148601
0.0009211
0.000988946
0.00304844
0.000506272
0.000450795
0.000536926
0.00055808
0.000601831
0.000624086
0.000495789
0.000410546
0.000366933
0.000437043
0.000534813
0.000332018
0.000518125
0.000871223
0.00215257
0.00168131
0.000507049
0.00138359
0.00234775
0.000499929
0.000244383
0.000222598
0.000229766
0.000137971
0.00018541
0.000286739
0.000249476
0.000568856
0.000217767
0.000413971
0.000396604
0.000319947
0.000372926
0.000556717
0.00106351
0.000672904
0.000704722
0.00112643
0.00242334
0.000213132
0.000162946
0.000106682
0.000180552
0.000206325
0.000304429
0.000147363
0.000256908
0.000358693
0.000244867
0.000408641
0.000229347
0.000274411
0.000372962
0.000621464
0.000479156
0.000461541
0.000582276
0.000719056
0.000801941
0.00043084
0.00227152
0.000469792
0.00230651
0.000245284
0.000384041
0.00231476
0.00037562
0.000490995
0.000554224
0.00226697
0.000501633
0.000287244
0.000239405
0.00076471
0.00213198
0.000375654
0.000471794
0.000458954
0.000345578
0.000419623
0.00231016
0.000440574
0.000384607
0.00038038
0.000374412
0.000580655
0.000725252
0.000444241
0.00234579
0.000236166
0.000408652
0.00050411
0.000340847
0.000556904
0.000442365
0.000494455
0.000794621
0.00225793
0.000668738
0.000475597
0.00043784
0.000440823
0.000642845
0.000368894
0.000549591
0.000529212
0.000545314
0.00255056
0.000528825
0.000658118
0.000469129
0.000537191
0.000666215
0.000729887
0.00058658
0.000794795
0.000604968
0.000605027
0.000812757
0.00265671
0.000399038
0.0005451
0.000609184
0.000570596
0.000711924
0.000638768
0.00060854
0.000773143
0.000798522
0.000627797
0.00077322
0.000405412
0.00277478
0.000832148
0.000814592
0.000617461
0.00073081
0.000653422
0.000575351
0.000776751
0.000757995
0.000614855
0.000580523
0.000401491
0.000543553
0.00093977
0.00271858
0.000792193
0.000681509
0.000617971
0.00102483
0.000715905
0.000932935
0.000915617
0.000983627
0.000672142
0.000965158
0.000937647
0.000847694
0.000415549
0.000758025
0.00247415
0.000385411
0.000984157
0.000774621
0.000626859
0.000292639
0.000780233
0.000726213
0.000815384
0.00068247
0.0011004
0.00111337
0.000874711
0.00117523
0.00109063
0.00154309
0.00293562
0.000681959
0.000550345
0.00110771
0.000373605
0.000895949
0.00055495
0.000345853
0.000289338
0.00012712
0.000693837
0.00168738
0.000654033
0.00140311
0.00116447
0.000767932
0.000951967
0.00304772
0.000523977
0.000856311
0.000652086
0.000762888
0.000710825
0.000919652
0.00100091
0.00068815
0.000929594
0.000841756
0.00114621
0.00116937
0.00118053
0.00124906
0.000142199
0.000734795
0.00125394
0.00225439
0.000574712
0.000502505
0.000512572
0.000699596
0.000828158
0.000475934
0.000522812
0.000542343
0.00079337
0.00081732
0.000761662
0.000740727
0.00051788
0.00112845
0.00227568
0.00129805
0.0008817
0.00170085
0.00276572
0.000719512
0.00039512
0.000329012
0.000625848
0.000511307
0.000594582
0.000965969
0.000435329
0.000374364
0.000362653
0.000414507
0.000410841
0.000344976
0.000572488
0.00157772
0.00300161
0.000892792
0.000836805
0.000975294
0.00233213
0.000415534
0.000394315
0.000184926
0.000207542
0.000175955
0.000179697
0.000158433
0.000274713
0.000192861
0.00034817
0.000446737
0.000367651
0.000254329
0.000252326
0.00029458
0.000627981
0.00130708
0.000530211
0.000871658
0.00149627
0.00272412
9.95732e-05
0.0001682
0.000120626
0.000102691
0.000264282
0.000260964
0.000330238
0.000175796
0.000285862
0.000404523
0.000285717
0.000412639
0.000217139
0.000262361
0.000393135
0.00058473
0.000409107
0.000464172
0.000628717
0.000581182
0.000806268
0.000743549
0.00235896
0.000514829
0.0022472
0.000478775
0.000464655
0.00233193
0.00036663
0.000294731
0.000251536
0.00223231
0.000224823
0.000369825
0.000339992
0.000545844
0.00221896
0.000252709
0.000521682
0.000272602
0.000338928
0.000714066
0.00217986
0.000291826
0.000348666
0.000558725
0.000496935
0.000565494
0.000485583
0.00228671
0.000318203
0.000267305
0.000541337
0.000355653
0.000334886
0.00053191
0.000494749
0.000606055
0.00238501
0.000492564
0.000466431
0.000395685
0.000358399
0.000533215
0.000379057
0.000475057
0.000667154
0.000632437
0.00252372
0.000522881
0.000532339
0.000455245
0.00043319
0.000584765
0.000636405
0.000572277
0.000780966
0.000624743
0.000792716
0.00225946
0.00072834
0.000600951
0.000682004
0.000677701
0.000567327
0.000790777
0.000679823
0.000619773
0.000483016
0.000532307
0.000555535
0.000919062
0.00253868
0.000441469
0.000691215
0.000907372
0.000752725
0.000483718
0.000716884
0.000635532
0.000884965
0.000674246
0.000981205
0.000766023
0.000942726
0.000783669
0.00292836
0.000827337
0.000744072
0.000485685
0.000761876
0.000660149
0.000590875
0.000711573
0.000807111
0.00064402
0.00091214
0.000839599
0.000776063
0.000759485
0.000900806
0.00269713
0.000540183
0.000984843
0.000684141
0.000777538
0.000609412
0.000656904
0.00103024
0.000856872
0.000902798
0.000881961
0.000910984
0.00098744
0.000486468
0.000449187
0.000594573
0.00273183
0.000717277
0.000650969
0.000854393
0.000545682
0.000695585
0.000560982
0.000661397
0.000778927
0.000706114
0.000868921
0.00139483
0.000650679
0.00121381
0.00105934
0.000577933
0.00167798
0.00257695
0.000566474
0.000241284
0.000573525
0.000452511
0.000292638
0.000383529
0.00046548
0.000705114
0.000671288
0.000236337
0.000879405
0.00134863
0.000907399
0.000346515
0.000709987
0.000941549
0.00144793
0.00299073
0.000458945
0.000721925
0.00079534
0.000605727
0.000625228
0.000753874
0.000918971
0.000969147
0.000821851
0.000880057
0.000964785
0.00207137
0.00136793
0.00104104
0.0007083
0.00075008
0.000713665
0.0007916
0.00213202
0.000592294
0.000561732
0.000546411
0.000554271
0.00068001
0.000624697
0.000491519
0.000395178
0.000489048
0.00087633
0.000792428
0.000731933
0.00126115
0.000818887
0.00178952
0.00212102
0.0018923
0.00105841
0.00136561
0.00214318
0.001041
0.000588397
0.00029884
0.000350556
0.000479435
0.000547914
0.000651329
0.000389102
0.000388611
0.000333796
0.000391065
0.000410892
0.000462069
0.000438485
0.000842208
0.00173524
0.00231983
0.000939168
0.000688961
0.000798641
0.00204604
7.9329e-05
0.000474524
0.000365674
0.000169237
0.000218244
0.000111311
0.000117723
0.000226096
0.000261305
0.000235296
0.000218451
0.000373717
0.00021202
0.000282675
0.000262587
0.000426297
0.000679849
0.00126761
0.000473986
0.00100014
0.00203856
0.00226
4.55759e-05
3.45411e-05
8.49096e-05
0.000124921
5.61797e-05
0.000200795
0.000205517
0.000361243
0.000184231
0.000318272
0.000432535
0.000315187
0.000457917
0.000271185
0.000264627
0.00039881
0.000514124
0.000343034
0.000420645
0.000646246
0.00062237
0.00075857
0.000849761
0.00224939
0.000532847
0.00239997
0.000356251
0.000540606
0.00228999
0.000589136
0.000550978
0.000637076
0.00232459
0.000484552
0.000378853
0.00035229
0.000381267
0.00226262
0.000343102
0.000456167
0.00030856
0.000416267
0.000394161
0.00214918
0.000393816
0.000277403
0.000546135
0.00042498
0.000307577
0.000510452
0.00218043
0.000585668
0.000426521
0.00036219
0.000233102
0.000342094
0.000716899
0.000552557
0.00229458
0.00047495
0.000364521
0.000338613
0.000366202
0.000237848
0.000368927
0.000528612
0.000435614
0.000693993
0.00218449
0.00041928
0.000414543
0.000499822
0.000470578
0.000411178
0.000513556
0.000308302
0.000501422
0.000505135
0.000595153
0.00236872
0.000467618
0.000537224
0.000596929
0.000405775
0.0005287
0.000710393
0.000501878
0.000679448
0.000623954
0.000426517
0.00032206
0.00256108
0.000612917
0.000730454
0.000544191
0.000553838
0.000436867
0.000594525
0.000570823
0.000354455
0.000692954
0.000699942
0.000825954
0.000555739
0.000854251
0.00273426
0.000792959
0.000606469
0.000620376
0.000939264
0.000764536
0.000528635
0.000847085
0.000624554
0.000701593
0.000658921
0.000604145
0.000497282
0.000759582
0.00124586
0.00283555
0.0010036
0.000590898
0.000781809
0.000528805
0.000576832
0.000936731
0.000701685
0.000811622
0.000809531
0.0007564
0.000834285
0.000783742
0.000651581
0.00040487
0.000885326
0.00245815
0.000447829
0.000477921
0.000816214
0.000549864
0.00079628
0.000597234
0.000947818
0.000762602
0.000838115
0.000919374
0.000973235
0.000627798
0.000946734
0.000956891
0.000896553
0.000954122
0.00249522
0.0003588
0.0004727
0.000873896
0.000637814
0.000885199
0.000472983
0.000889552
0.000719563
0.000767092
0.000589195
0.00164866
0.000795022
0.00161441
0.0012847
0.00139965
0.000778856
0.00114699
0.00267329
0.000962676
0.000658203
0.000553465
0.000491957
0.000321296
0.000221008
0.000747833
0.000537994
0.000494633
0.000575565
0.000344585
0.000871766
0.0010479
0.000406892
0.000920497
0.000915268
0.00112199
0.000635287
0.00292363
0.0015214
0.000736083
0.000560507
0.000876778
0.000555419
0.000590906
0.00121392
0.000589318
0.00104496
0.000917626
0.000862688
0.000929536
0.00126747
0.00188604
0.00113741
0.000327093
0.000749498
0.000547639
0.000441744
0.0023379
0.000737242
0.000596468
0.000505401
0.000423102
0.000688626
0.000711971
0.000620998
0.000721265
0.000319604
0.000486727
0.000992633
0.000872353
0.000860124
0.00088752
0.000884491
0.00186673
0.00157827
0.00153004
0.00084216
0.0015758
0.00153165
0.000474589
0.00113613
0.000486069
0.000400291
0.000391627
0.000545338
0.0005735
0.000726927
0.00044634
0.000453429
0.000327653
0.000139172
0.00042364
0.000436414
0.000621327
0.00121884
0.00254651
0.000710203
0.00076302
0.00049912
0.00101684
0.00211925
0.000257972
0.000101489
0.000476005
0.00036099
0.000255232
0.00022776
9.26856e-05
0.000184009
0.000214702
0.00025523
0.000328397
0.000215621
0.000265987
0.00030799
0.000305451
0.000240224
0.000383857
0.000865836
0.00105449
0.000451342
0.00112583
0.00223354
0.00121424
9.86531e-05
4.37465e-05
4.99156e-05
0.000202591
0.000119454
8.35205e-05
0.000139595
0.000191429
0.000406393
0.000190806
0.000390531
0.000451139
0.000328845
0.000517007
0.000262387
0.00026374
0.000384569
0.000427807
0.000274988
0.000435918
0.000618161
0.000833812
0.000746916
0.000888489
0.00207032
0.000395313
0.00223435
0.000283314
0.00041346
0.00236601
0.000387353
0.000452339
0.000495156
0.00244089
0.000423001
0.000485243
0.000572202
0.000690719
0.0022571
0.000347233
0.00047213
0.00060271
0.000388313
0.000535322
0.00225084
0.000375524
0.000367507
0.000468383
0.000386575
0.000490772
0.000423901
0.00224316
0.000436125
0.00041099
0.000343668
0.000382976
0.000450993
0.000279315
0.000524313
0.00221913
0.000239308
0.000336438
0.00035426
0.00029256
0.000282803
0.000476463
0.000529402
0.0005774
0.0022235
0.000361581
0.00050961
0.000430994
0.00047178
0.000311595
0.00043817
0.000421716
0.000377622
0.000631976
0.000413406
0.00223758
0.000648841
0.000409771
0.000559231