/*--------------------------------*- C++ -*----------------------------------*\
  =========                 |
  \\      /  F ield         | OpenFOAM: The Open Source CFD Toolbox
   \\    /   O peration     | Website:  https://openfoam.org
    \\  /    A nd           | Version:  7
     \\/     M anipulation  |
\*---------------------------------------------------------------------------*/
FoamFile
{
    version     2.0;
    format      ascii;
    class       surfaceScalarField;
    location    "5.5";
    object      phi_0;
}
// * * * * * * * * * * * * * * * * * * * * * * * * * * * * * * * * * * * * * //

dimensions      [0 3 -1 0 0 0 0];

internalField   nonuniform List<scalar> 
54095
(
0.000200057
4.83512e-05
0.000500705
0.000361501
3.18423e-05
0.000131943
0.000244067
-5.05688e-06
0.000514015
0.000198542
4.43417e-05
0.00025782
0.000373644
-4.38661e-05
-0.00245239
0.000155302
-7.9766e-05
8.59224e-05
0.000293712
3.23013e-05
4.4718e-06
0.000126472
2.85505e-06
-0.000707314
0.000249444
-1.27867e-06
0.000310192
0.000177486
3.54133e-05
4.49207e-05
-0.00015764
0.000676505
-0.00661939
0.000515752
0.000214324
-0.00411294
0.000322125
-0.00020669
-0.00227411
0.000211149
-5.61112e-05
-0.00243802
5.9905e-05
-8.01243e-05
0.000387887
0.000204561
2.47829e-05
-4.7386e-05
5.90582e-05
-4.03277e-06
-0.00120619
9.87203e-05
6.73222e-06
-0.000814045
0.000264231
-2.04924e-06
8.3424e-05
0.000142858
2.39193e-05
-0.000121856
-0.00141381
0.00058119
-0.00751527
0.000933443
0.000246444
-0.0047117
-0.000188863
0.000750533
-0.00685893
0.000513862
8.56029e-05
-0.00179584
0.000581731
0.000130606
0.00273076
0.000190831
-0.000209095
-0.00205129
0.000138448
-2.8736e-05
-0.00296203
0.000147619
-8.769e-05
-0.00247935
7.47593e-05
-5.44936e-05
0.000656635
0.000117465
1.90859e-06
-2.39018e-05
4.32389e-05
-6.14873e-05
-0.00127147
4.20985e-05
-5.82513e-06
-0.00123573
7.12971e-05
8.77395e-06
-0.000896165
0.000271295
-6.10425e-06
-0.000157847
0.000101005
1.28938e-05
-0.000235755
-0.00165842
0.000479039
-0.00736358
0.000626273
0.0010803
-0.0088125
-0.00132161
0.000555456
-0.00693798
0.000709
-0.000339921
-0.00351289
0.000969598
0.00038518
-0.00473421
-0.00025675
0.000893417
-0.00730477
0.000356236
-0.000211882
-0.00152589
0.0003998
-2.57483e-06
-0.00191484
0.000480078
-5.27943e-05
0.00216914
0.000115411
-0.000198963
-0.00185027
7.79626e-05
-4.3203e-05
-0.00220872
9.99736e-05
-5.48885e-05
-0.0030527
9.5765e-05
-0.000103962
-0.00245435
6.26308e-05
-4.36783e-05
0.000910886
3.44371e-05
-2.92016e-05
7.18676e-05
-1.65523e-05
-9.96058e-05
-0.000775008
3.48534e-05
-6.15888e-05
-0.00125055
2.77894e-05
-6.94987e-06
-0.0012478
4.34121e-05
9.52774e-06
-0.000955209
0.000257067
-1.14883e-05
-0.000390532
5.67029e-05
5.64267e-06
-0.0002981
-0.00154481
5.62843e-06
-0.00656379
0.000167076
0.00127671
-0.00907225
-0.0014214
0.000198291
-0.00746209
0.00130691
0.000945125
-0.0069269
0.000751093
0.00087548
-0.00891402
-0.00108663
0.000586556
-0.00669465
0.000519225
-0.000273144
-0.00295048
0.000580175
-0.000196263
-0.00311183
0.000596969
0.000532001
-0.00448968
-0.000255462
0.000932622
-0.00786652
0.000281313
-0.000225208
-0.00254039
0.000315754
-0.000202166
-0.00154208
0.000299084
-0.000214316
-0.00195663
0.000364685
-6.73557e-05
0.00173547
0.000106985
-0.000114402
-0.00180842
-1.09512e-05
-0.000128353
-0.00217183
5.36816e-05
-4.31169e-05
-0.00223932
7.28751e-05
-9.73507e-05
-0.0031044
4.72759e-05
-9.42479e-05
-0.00240765
5.36437e-05
-5.5031e-05
0.00114014
-3.68968e-05
-5.03327e-05
0.0002158
-1.31934e-05
-0.000108355
-0.000227486
-2.21163e-05
-9.91223e-05
-0.000715359
2.62844e-05
-6.18926e-05
-0.0012219
2.37537e-05
-7.58817e-06
-0.00125443
1.87388e-05
9.47782e-06
-0.000994914
0.000235637
-1.52678e-05
-0.000605259
1.12494e-05
1.68981e-06
-0.00031104
-0.00178317
3.25223e-05
-0.00498426
-0.000583348
0.000596472
-0.00761017
-0.00159095
7.78011e-05
-0.00647205
0.0016774
0.00121844
-0.00770575
0.000150864
0.000924545
-0.00919828
-0.00128774
7.60831e-05
-0.00733706
0.00037408
0.000764217
-0.00617397
0.000591645
0.00102289
-0.00708578
0.000221028
0.000823805
-0.00877533
-0.000918115
0.000649746
-0.00668175
0.000396748
-0.000159331
-0.00449093
0.000554183
-0.000207745
-0.00317743
0.000568438
-7.49393e-05
-0.00277424
0.000394289
0.000647847
-0.00423451
-0.000242643
0.000818398
-0.00833529
0.000203437
-5.20347e-05
-0.00272671
0.000234555
-0.000192321
-0.00273111
0.000256082
-0.000207008
-0.00173259
0.000260942
-0.000240078
-0.00199758
0.000269416
-9.38201e-05
0.00149912
4.05689e-05
-4.61304e-05
-0.00183975
-8.84128e-05
-0.000218228
-0.00167653
-2.98413e-05
-0.000136218
-0.002071
2.71296e-05
-7.52216e-05
-0.00226229
7.68356e-05
-0.000116389
-0.00313534
-1.72151e-05
-7.59838e-05
-0.00235074
5.53148e-05
-6.12683e-05
0.0013314
-2.09586e-05
-6.6084e-05
0.000314092
2.484e-05
-0.000107311
-0.000121907
-1.6176e-05
-0.000108441
-0.000201991
-1.2777e-05
-9.87411e-05
-0.000665733
1.56297e-05
-6.15992e-05
-0.00118352
1.26465e-05
-8.13775e-06
-0.00124946
-3.36947e-06
9.61089e-06
-0.00101642
0.000197131
-1.6687e-05
-0.000784014
-2.99372e-05
-4.54828e-07
-0.000280648
-0.00194589
1.74748e-05
-0.00384074
-0.00105322
0.000281825
-0.00618202
-0.00198421
0.000120493
-0.0047115
0.00071429
0.0010816
-0.00752589
-0.00082368
0.000514761
-0.00707259
-0.00161922
0.000185812
-0.00632638
0.000183868
0.00146569
-0.00768729
0.000167879
0.0013415
-0.00769894
-0.000149865
0.00062736
-0.00937866
-0.00120495
0.000208962
-0.00725919
0.000263149
0.000732297
-0.00647223
0.000742827
0.00103058
-0.00637031
0.000454879
0.00101116
-0.00715958
-0.000312541
0.00107676
-0.00849551
-0.000878495
0.000650852
-0.00669675
0.000275322
-0.000361755
-0.00545994
0.000377991
-0.000125735
-0.00471637
0.000448796
-0.000119921
-0.00332516
0.000462952
7.87211e-05
-0.00240712
0.000271824
0.000673023
-0.00409155
-0.000426635
0.000728749
-0.00859684
9.4433e-05
-5.68025e-05
-0.00255994
0.000155418
-0.000146329
-0.00295796
0.000193784
-0.00016347
-0.0029413
0.000224051
-0.000189476
-0.00193041
0.000218753
-0.00025722
-0.00207015
0.000263886
-6.39756e-05
0.00130839
0.000134224
0.000105032
-0.00209997
-5.90315e-05
-0.000205289
-0.00202065
-8.20261e-05
-0.000219457
-0.00152744
-1.71831e-05
-0.000175061
-0.00196676
9.8915e-07
-9.17e-05
-0.00227234
5.68246e-05
-0.000106013
-0.00314949
-9.17059e-05
-6.48206e-05
-0.00225885
3.11632e-05
-5.27575e-05
0.00148404
3.03449e-05
-7.37506e-05
0.00032756
5.02764e-05
-8.03445e-05
-6.2963e-06
2.13392e-05
-0.000108232
-0.000143454
-1.38866e-05
-0.000107431
-0.000179415
-7.67463e-06
-9.75938e-05
-0.000622064
5.80937e-06
-6.0905e-05
-0.00113656
-2.36546e-06
-7.52401e-06
-0.00122996
-1.94016e-05
1.05783e-05
-0.00102429
0.00015155
-1.71835e-05
-0.000918835
-7.18036e-05
-1.7231e-06
-0.000207121
-0.00210762
7.28947e-05
-0.0035939
-0.00117036
0.000130992
-0.0052165
-0.00199273
2.38422e-05
-0.00385606
-0.000158022
0.000565297
-0.00672764
-0.00106971
0.000327527
-0.00614303
-0.00188818
0.00019389
-0.00463643
6.69006e-05
0.00120434
-0.00768776
-0.000326708
0.000988435
-0.00750497
-0.000872576
0.00050406
-0.00666812
-0.00158901
0.000276172
-0.00621849
0.00013914
0.0015494
-0.00785235
0.000498151
0.00145054
-0.00755165
-6.22265e-05
0.00127923
-0.00783371
-0.000833785
0.000591475
-0.00923993
-0.00114602
0.000187366
-0.00717903
0.000196784
0.000781593
-0.00710857
0.000345584
0.000974646
-0.00638389
0.000638212
0.00108813
-0.0066367
0.00058086
0.00124649
-0.00744722
-9.35169e-05
0.00102907
-0.00850839
-0.000930008
0.00077289
-0.00696626
0.000253985
-0.000145837
-0.00567467
0.000186123
-0.000286457
-0.00532992
0.000343955
-8.94238e-05
-0.00489704
0.000375504
-5.63848e-05
-0.00334151
0.00062369
0.000299245
-0.00243828
0.000501869
0.000623154
-0.00422393
-0.000613923
0.000652626
-0.00850131
-0.000115297
-0.000166226
-0.00220513
3.19844e-05
-0.000168973
-0.00265131
0.000107517
-0.000259019
-0.00298711
0.000160295
-0.000219566
-0.00307052
0.000215902
-0.00013574
-0.00221097
0.000160043
-0.00020731
-0.00217856
0.000337785
-1.07683e-05
0.00111757
0.000287036
0.000250838
-0.00260749
4.06801e-05
-0.000166645
-0.0016446
-8.74383e-05
-0.000199454
-0.00193187
-4.80647e-05
-0.000230478
-0.00143785
2.50124e-06
-0.000180905
-0.00188773
-1.99152e-05
-9.97303e-05
-0.0022529
8.90462e-06
-9.20116e-05
-0.00313357
-0.000148815
-4.58085e-05
-0.00213639
3.29758e-06
-3.94725e-06
0.00156249
6.45583e-05
-7.83325e-05
0.000269531
3.11764e-05
-5.14303e-05
0.000604635
4.21181e-05
-8.16458e-05
-7.50009e-05
1.56515e-05
-0.000107751
-0.000158786
-1.26398e-05
-0.000105667
-0.000158702
-2.15279e-06
-9.60042e-05
-0.000584812
2.32118e-07
-5.94069e-05
-0.00108491
-2.86919e-05
-5.84877e-06
-0.00118484
-4.93123e-05
9.93197e-06
-0.00100209
0.000105334
-1.75429e-05
-0.00100835
-0.000115724
-2.97622e-06
-8.84203e-05
0.000101007
-0.00303391
-0.00117405
5.59155e-05
-0.00457313
-0.00192763
3.59351e-05
-0.00369494
-0.000287966
0.00022256
-0.00611632
-0.0011452
0.000102077
-0.00521925
-0.00192612
3.36584e-05
-0.00385178
-0.000265623
0.000613258
-0.00720241
-0.000446112
0.000519933
-0.00680065
-0.000992529
0.000352527
-0.00618171
-0.00188595
0.000232734
-0.00457222
-0.000165188
0.00122554
-0.00786391
5.86393e-05
0.00129179
-0.0075516
-0.00034148
0.000862855
-0.00758452
-0.000989835
0.000574169
-0.00681007
-0.00151314
0.000310785
-0.00616216
0.000137851
0.00153764
-0.00798756
0.000589261
0.00143369
-0.00807918
0.000531657
0.00135942
-0.00752528
0.000612645
0.00107985
-0.00835387
-0.000539785
0.000564972
-0.00917127
-0.00114611
0.000195726
-0.00715865
-3.45308e-05
0.000700095
-0.00715241
0.000145519
0.000853432
-0.00694675
0.000261777
0.0010382
-0.00625178
0.000838021
0.0011589
-0.00701163
0.000603674
0.00127939
-0.00767751
6.79788e-05
0.0011645
-0.0084661
-0.00101639
0.000638517
-0.00720231
-0.000114973
0.000201489
-0.00380428
0.000103139
-0.00011374
-0.00591854
9.66611e-05
-0.000138407
-0.00527009
0.000424422
-0.000130272
-0.00508728
0.000553641
0.000128168
-0.00350817
0.000747235
0.000626067
-0.00302839
0.000645696
0.000583739
-0.00446296
-0.000685881
0.000522499
-0.0080509
-3.3389e-05
-0.000117458
-0.00201064
-0.000104554
-0.000145892
-0.0022111
-3.0084e-05
-0.000239832
-0.00268847
0.000143224
-0.000351372
-0.00299603
0.000141648
-0.000227865
-0.00313995
0.000238654
-0.000150485
-0.00249754
8.40868e-05
-0.00014008
-0.00228215
0.000540526
0.000120459
0.000710721
0.000431264
0.000247688
-0.00322189
9.44759e-06
-0.000137113
-0.0013843
-3.3897e-05
-0.000158536
-0.00160951
-0.000124076
-0.000199512
-0.00182311
-4.91175e-05
-0.00023888
-0.00134339
1.34804e-05
-0.000185617
-0.00181748
-1.92136e-05
-0.000100682
-0.00222478
-8.01703e-05
-7.91398e-05
-0.00304876
-0.000228211
5.88093e-06
-0.00196732
-4.69415e-05
1.70599e-05
0.00161937
6.81903e-05
-7.97683e-05
0.000165385
7.47441e-06
-5.51499e-05
0.000267962
3.46417e-05
-5.21032e-05
0.000540451
3.55894e-05
-8.32943e-05
-0.000135047
1.43005e-05
-0.000106559
-0.000172194
-6.2137e-06
-0.000103505
-0.000144987
1.66127e-06
-9.37802e-05
-0.0005521
-4.00057e-07
-5.71505e-05
-0.00103321
-4.5092e-05
-5.75606e-06
-0.00112406
-6.44995e-05
9.99832e-06
-0.000965132
5.69438e-05
-1.92076e-05
-0.00104906
-0.000152665
-3.82476e-06
6.80694e-05
0.000205547
-0.00420881
-0.00179029
7.50756e-05
-0.00324632
-0.000347728
2.51214e-05
-0.00521239
-0.00107238
4.5818e-05
-0.00465583
-0.00191917
3.3097e-05
-0.00373499
-0.00020427
0.000223503
-0.00643459
-0.000517238
0.000184911
-0.00612803
-0.00103725
6.07019e-05
-0.00520157
-0.00188099
3.20109e-05
-0.00388875
-0.000206231
0.000617042
-0.00730819
-0.000158193
0.000671877
-0.00713752
-0.000444342
0.000553302
-0.00689856
-0.0011017
0.000372227
-0.00620934
-0.00179284
0.000221809
-0.00451433
-0.000105616
0.00121612
-0.00812701
0.000386213
0.00140571
-0.00777478
0.000292656
0.00103829
-0.00748804
0.000135162
0.000796852
-0.00732972
-0.001009
0.000518942
-0.00654901
-0.00155039
0.000238229
-0.00599611
-5.06565e-05
0.00141307
-0.00805025
0.000110911
0.0015491
-0.00806836
-2.32988e-05
0.00149885
-0.00793354
0.000696178
0.00132872
-0.0076323
0.00035042
0.00105845
-0.0085941
-0.000773123
0.000708619
-0.00884306
-0.00115322
0.000266042
-0.00728786
7.31216e-05
0.000498796
-0.00704148
7.4475e-05
0.000669113
-0.00693942
1.27238e-05
0.000946581
-0.00677119
0.000288266
0.00113615
-0.00609287
0.000579208
0.00124871
-0.00700652
0.000660452
0.00136093
-0.00778716
0.000272273
0.00124343
-0.00869759
-0.001026
0.000504563
-0.00736676
-0.000169919
0.00022587
-0.00318053
-4.59775e-05
0.000176204
-0.0041528
-0.000157214
-0.000223518
-0.0057063
0.000114412
-9.46791e-05
-0.00527687
0.000445195
-1.51098e-05
-0.00524755
0.00055911
0.000442402
-0.00364496
0.000683884
0.000697116
-0.00374156
0.000823642
0.000632587
-0.00485616
-0.000625806
0.000651466
-0.00764529
-1.25804e-05
-0.000105582
-0.00212468
-0.000135536
-9.4427e-05
-0.00196047
-1.02482e-05
-0.000115589
-0.00244917
-7.00953e-05
-0.000213342
-0.00280553
0.00013718
-0.000389334
-0.00295826
0.000123432
-0.000263016
-0.00317007
0.000172108
-0.000156038
-0.00273386
0.000104274
-9.00746e-06
-0.00248517
0.000609535
0.000191999
0.000109935
0.000633607
0.000175137
-0.00396244
3.98423e-05
-0.000184851
-0.00130361
1.10702e-05
-0.000129651
-0.00138961
-1.98621e-05
-0.000163056
-0.00159051
-0.000157485
-0.000205564
-0.00168464
-4.70927e-05
-0.000252284
-0.00123585
5.56278e-08
-0.000190613
-0.00172594
3.9664e-06
-0.000108037
-0.00220025
-0.000136646
-7.28561e-05
-0.00287847
-0.000245656
2.60192e-05
-0.00179512
-0.000109603
2.45491e-05
0.0016816
-1.11761e-05
-7.98395e-05
0.000103735
-2.11797e-05
-6.8041e-05
-0.000534512
6.02323e-06
-5.51035e-05
0.000264939
4.65642e-05
-5.37282e-05
0.00046432
3.2646e-05
-8.54398e-05
-0.000188812
1.58494e-05
-0.000104949
-0.0001866
1.26939e-06
-0.000101107
-0.00013893
1.14183e-05
-9.05983e-05
-0.00053007
-5.21931e-06
-5.43902e-05
-0.000979352
-6.00933e-05
-5.13378e-06
-0.00104884
-8.00251e-05
8.52634e-06
-0.000912841
8.69551e-06
-1.91147e-05
-0.00104247
-0.00018043
-4.24006e-06
0.000252739
-0.00164437
-5.06841e-05
-0.00343428
0.000213089
-0.00465146
-0.00087777
5.4242e-05
-0.00438259
-0.00177647
-3.28541e-05
-0.00335617
-0.00024451
6.10706e-05
-0.00552938
-0.000493257
7.965e-06
-0.00519852
-0.00105695
4.18128e-05
-0.00464484
-0.00176634
-5.63545e-06
-0.00384401
-0.000223093
0.000314033
-0.00627809
-0.000123111
0.000227189
-0.00651195
-0.000542202
0.000192532
-0.006162
-0.00111849
6.5331e-05
-0.00521811
-0.00179718
6.50383e-05
-0.00394945
-0.000222965
0.00069429
-0.00713602
-8.29103e-05
0.000746652
-0.00691384
-0.000153037
0.000757288
-0.00689581
-0.000312261
0.000607755
-0.00668666
-0.0011413
0.000354236
-0.00620947
-0.00177399
0.000195964
-0.00448669
-0.000178654
0.00114226
-0.00837338
-3.01877e-05
0.00137973
-0.00795993
-0.000350441
0.00112411
-0.00753345
-1.60836e-05
0.00108236
-0.00706128
0.000131085
0.000693704
-0.00728514
-0.000951132
0.000432998
-0.00656577
-0.00160183
0.000261356
-0.00580886
0.000159928
0.00126929
-0.00802537
0.000217757
0.00146558
-0.00811001
-0.000182882
0.00158218
-0.00795608
1.05833e-05
0.0014943
-0.00782143
0.000147325
0.00143246
-0.00757443
0.000154394
0.00117726
-0.00855668
-0.000527648
0.000810624
-0.00858772
-0.0012218
0.000225941
-0.00731801
-0.000193801
0.00059459
-0.00603103
6.2983e-05
0.000473846
-0.00695518
-0.000175278
0.000705132
-0.00667991
-7.90612e-06
0.00108605
-0.00659877
0.000611632
0.00113903
-0.00614962
0.000683172
0.00141367
-0.00718333
0.000501821
0.00136309
-0.00772476
6.63181e-05
0.00115096
-0.00858667
-0.000938109
0.000452673
-0.00750713
-0.000151349
0.000288895
-0.00425071
-0.000138177
0.000251446
-0.00325313
0.000165134
-0.000108553
-0.00444314
-0.000258191
-0.000268551
-0.00534433
6.27557e-05
-4.51552e-05
-0.0051724
0.000384844
0.000101688
-0.00516825
0.000644796
0.000550214
-0.00397075
0.000749294
0.000756016
-0.00451001
0.000900182
0.000739948
-0.00523529
-0.000364114
0.000717324
-0.0073649
7.43402e-05
-0.000183526
-0.00199857
-3.49339e-05
-9.20862e-05
-0.00208101
-0.000109954
-9.99631e-05
-0.001886
-3.59791e-05
-6.39558e-05
-0.00272006
-6.21324e-05
-0.000187274
-0.00299255
9.58342e-05
-0.000335959
-0.0029811
0.000135704
-0.000278582
-0.00317926
0.000113301
-0.000121048
-0.00287177
0.000265638
2.18041e-05
-0.00282627
0.000551698
0.000211339
-0.000587567
0.000686089
0.000150917
-0.00481062
4.83248e-05
-0.00025347
-0.0012819
3.54031e-05
-0.000173196
-0.00128945
3.49382e-05
-0.000136684
-0.00140436
-3.75252e-05
-0.000176082
-0.00154982
-0.000163457
-0.000219472
-0.00153814
-3.05663e-05
-0.000259021
-0.0011356
5.19515e-06
-0.000201445
-0.00162631
-2.51915e-05
-0.000102551
-0.00215058
-0.000136471
-6.8987e-05
-0.00270708
-0.000246744
3.32033e-05
-0.00163705
-0.000165879
2.94625e-05
0.00174687
-0.00010488
-7.56742e-05
0.00010386
-2.07217e-05
-7.16019e-05
-0.00015752
-2.49457e-05
-6.81856e-05
-0.000496485
9.06647e-06
-5.49898e-05
0.000257134
5.74916e-05
-5.61391e-05
0.000377528
3.88803e-05
-8.77296e-05
-0.000244912
1.90972e-05
-0.000103232
-0.000203572
7.98906e-06
-9.83186e-05
-0.000139198
9.08108e-06
-8.64186e-05
-0.000507123
-1.07004e-05
-5.14091e-05
-0.000922376
-7.2002e-05
-4.28097e-06
-0.00096403
-9.63169e-05
7.95362e-06
-0.000843592
-3.17283e-05
-1.9806e-05
-0.000995174
-0.000199204
-4.10095e-06
0.000456044
-0.00160638
-9.87917e-05
-0.00294713
-0.00108422
0.00010335
-0.00408629
-0.00161547
-0.000157158
-0.00343812
0.000284231
-0.00484236
-0.000476233
3.3121e-05
-0.00464736
-0.00107971
1.45567e-05
-0.00440724
-0.00171033
3.03214e-06
-0.00341521
-0.000373445
0.0002641
-0.00551102
-0.00013037
7.95127e-06
-0.0055221
-0.000498201
4.48734e-05
-0.00524558
-0.00116445
2.88869e-05
-0.0046334
-0.00174207
-6.60904e-06
-0.0038925
-0.000315241
0.000471516
-0.00624054
-0.00010526
0.000313692
-0.00634224
-0.000255873
0.000265884
-0.00648247
-0.000450791
0.000193499
-0.00615164
-0.00112907
0.000115212
-0.00528051
-0.00171205
7.35218e-05
-0.00408491
-0.000261756
0.000758578
-0.00714677
-0.000183626
0.000759973
-0.00699591
-0.000261381
0.000739374
-0.00698499
-0.00025799
0.000794087
-0.00684024
-0.000249435
0.000644225
-0.00659613
-0.0010929
0.000334667
-0.0062064
-0.0017426
0.000165173
-0.0045111
3.82531e-06
0.00123336
-0.00827907
0.00014983
0.00126724
-0.00819296
-0.000270373
0.00119301
-0.00794135
7.73356e-05
0.00115331
-0.00767116
0.00020396
0.000998883
-0.00742309
-5.65637e-05
0.000696667
-0.00733786
-0.000897563
0.000412588
-0.00634709
-0.00163595
0.000256245
-0.00565095
-6.1645e-05
0.00118055
-0.00792852
0.000139289
0.00135397
-0.00799007
-1.51909e-05
0.00148524
-0.00817316
-0.00027004
0.00156865
-0.0077683
0.000279394
0.00158808
-0.00764481
0.000499583
0.00144767
-0.00766125
6.23749e-06
0.00117065
-0.00842112
-0.000687423
0.000767331
-0.00837537
-0.00120847
0.000156196
-0.00720384
-0.000277084
0.000715772
-0.00631762
-5.33483e-05
0.000614793
-0.00625681
1.77043e-05
0.000467741
-0.00657035
-0.000279501
0.000807086
-0.00637964
-5.28904e-06
0.0010568
-0.0064485
0.000347079
0.00129477
-0.00599294
0.000648712
0.00136739
-0.00719154
0.000609463
0.00133128
-0.00776525
5.13124e-05
0.00103436
-0.00831948
-0.000776276
0.000455788
-0.00755076
5.01592e-05
0.000259286
-0.00433909
-0.000176492
0.000307368
-0.00416507
-0.000119329
0.000164272
-0.00351658
0.00021607
-0.000241505
-0.00472224
-0.000180074
-0.000166979
-0.00510456
-3.98768e-06
9.19839e-05
-0.00506287
0.00033998
0.000165069
-0.00498738
0.000614589
0.000427942
-0.00414396
0.000923252
0.000690165
-0.00511784
0.000870216
0.000769121
-0.00560561
-8.29733e-05
0.000637276
-0.00723311
4.63325e-05
-0.000253513
-0.00188444
6.48832e-05
-0.000138529
-0.00198161
-1.51747e-05
-8.07466e-05
-0.00205012
-9.26482e-05
-0.00010256
-0.00179228
-0.000157251
-5.30469e-05
-0.0028605
-9.90586e-05
-0.000166283
-0.00309373
6.69683e-05
-0.000284324
-0.00303713
0.000161774
-0.000274683
-0.00321259
0.000173231
-0.000127081
-0.00303259
0.00037652
-2.77874e-05
-0.00321041
0.00047379
0.000231336
-0.00130765
0.000609375
0.000223991
-0.00574887
3.36679e-05
-0.000283393
-0.000934666
7.80253e-06
-0.000241971
-0.00124588
5.36464e-05
-0.000171872
-0.00129884
8.07943e-05
-0.000156741
-0.001447
-1.6086e-05
-0.000198439
-0.00151589
-0.00014534
-0.00022848
-0.00140425
-1.38314e-05
-0.000261005
-0.00105422
-1.41379e-05
-0.00019854
-0.0015071
-3.22727e-05
-0.000103755
-0.00209424
-9.08332e-05
-6.51444e-05
-0.0025899
-0.00022569
6.46035e-05
-0.00154282
-9.3673e-05
3.89983e-05
0.00169415
-0.000246624
-6.82805e-05
0.000219561
1.22448e-05
-6.67005e-05
0.000745999
-1.64586e-05
-7.21595e-05
-0.000137088
-2.28169e-05
-6.8423e-05
-0.000460235
1.6434e-05
-5.49595e-05
0.000239521
5.89259e-05
-5.87984e-05
0.000289671
4.31031e-05
-8.98585e-05
-0.000301389
1.68194e-05
-0.000101694
-0.000217016
1.63216e-05
-9.50821e-05
-0.000146856
1.01305e-05
-8.13296e-05
-0.000487333
-1.7525e-05
-4.81888e-05
-0.000860943
-8.66465e-05
-3.7426e-06
-0.000865687
-0.000104712
6.26712e-06
-0.000764953
-7.58471e-05
-2.02965e-05
-0.000903131
-0.000211206
-2.50944e-06
0.000669759
0.000129143
-0.00250813
-0.00140225
-1.82362e-05
-0.00335776
-0.00161456
-6.59555e-05
-0.00288209
-0.000613176
0.000140598
-0.00443758
-0.00136832
-4.24479e-05
-0.0039124
-0.00162832
-0.000167874
-0.00335226
0.000465667
-0.00480957
-0.000350835
0.000191706
-0.00478048
-0.000449741
2.61963e-05
-0.00470746
-0.0012609
2.52053e-05
-0.00433297
-0.00173066
0.000137517
-0.00356414
-0.000646889
0.000486659
-0.00547059
-0.000338989
0.000243757
-0.0055131
-0.000165372
1.19229e-05
-0.00557966
-0.00040116
7.92501e-05
-0.00534557
-0.00118848
1.99855e-05
-0.00460058
-0.00161691
-1.18631e-05
-0.00397578
-0.000276009
0.000567098
-0.00626577
-0.00038177
0.000469982
-0.00619868
-0.000194403
0.000367239
-0.00651058
-0.000299455
0.000254856
-0.00650236
-0.000398867
0.000206186
-0.00609318
-0.00117238
0.000195124
-0.00532264
-0.00169682
1.13377e-05
-0.00414202
-0.000123065
0.000868623
-0.00699447
-0.000121425
0.000832954
-0.00694849
-0.000265862
0.000756629
-0.00701767
-4.25114e-05
0.000824301
-0.00689535
-2.46729e-05
0.000839648
-0.00680703
-0.000330968
0.000478079
-0.00646514
-0.00101329
0.000303872
-0.00622938
-0.00171361
0.000217743
-0.00465118
-0.000109685
0.00134848
-0.00830462
-1.85668e-06
0.00124482
-0.0081155
-4.16155e-05
0.00117895
-0.00815248
-0.000292162
0.00114218
-0.0079081
-0.000132036
0.00113935
-0.00740019
-2.99447e-05
0.00102761
-0.0072245
-8.21247e-05
0.000630712
-0.00746762
-0.000784483
0.000327658
-0.00632144
-0.0016041
0.000266057
-0.00552137
-8.93465e-05
0.00119918
-0.0075584
1.62722e-05
0.00125595
-0.00790012
-4.01799e-06
0.00141592
-0.00789903
-0.000269722
0.00147059
-0.00808488
-0.000144689
0.00159485
-0.00763568
-5.3549e-05
0.00155246
-0.00734897
0.000409576
0.00147529
-0.00772675
0.00017846
0.00110405
-0.00832684
-0.000620023
0.000601329
-0.00814917
-0.00120401
0.000215183
-0.00699129
8.42679e-05
0.000664548
-0.0063864
-0.000270934
0.000719951
-0.00632834
2.67885e-05
0.000639136
-0.00657432
-7.64422e-05
0.000551235
-0.00602199
-0.00029725
0.000825351
-0.00603101
-4.89948e-05
0.00115723
-0.00626596
0.000358743
0.00123483
-0.00587914
0.000654545
0.00133354
-0.00723375
0.000913918
0.000969711
-0.00769127
-5.75646e-05
0.000998842
-0.00793475
-0.000692805
0.000479486
-0.00742041
0.000116392
0.000178963
-0.00431652
3.90292e-05
0.000272048
-0.00427792
-0.000148983
0.000223137
-0.00409013
-5.86337e-05
0.000103803
-0.0038959
4.98166e-05
-0.000175597
-0.00492069
-0.000164998
6.95182e-05
-0.00501616
1.28594e-05
0.000134309
-0.004978
0.000425695
7.47522e-05
-0.00489811
0.000789059
0.000346287
-0.00441591
0.000980671
0.000505605
-0.00545848
0.000798253
0.00070739
-0.00600018
-6.84047e-05
0.000558866
-0.0071142
4.63486e-05
-0.000310714
-0.00173031
-1.27264e-05
-0.000192664
-0.00180978
2.79437e-05
-0.000115151
-0.0019215
1.30919e-05
-8.77962e-05
-0.00199718
-7.08938e-05
-0.000117088
-0.00167343
-0.000216884
-7.69693e-05
-0.00287827
-9.42352e-05
-0.000187156
-0.00311049
8.39367e-05
-0.000273311
-0.00313657
6.74148e-05
-0.000266913
-0.00317245
0.000315392
-0.000222228
-0.00324437
0.000440429
-1.05743e-05
-0.00363461
0.000641132
0.000366243
-0.00218471
0.000241912
0.00033026
-0.00656767
-4.25844e-05
-0.000295862
-0.000419141
-3.17026e-05
-0.000277936
-0.000883458
2.03666e-05
-0.000237215
-0.00122372
8.18572e-05
-0.000177601
-0.0013434
8.69019e-05
-0.000181527
-0.00149189
-5.4698e-06
-0.000218303
-0.00147749
-0.00011547
-0.000235231
-0.00129773
-7.08281e-06
-0.000264265
-0.000965095
-2.03966e-05
-0.000199026
-0.0013813
-3.90678e-05
-0.000105364
-0.00203248
-0.000139044
-3.67985e-05
-0.00243611
-0.000174321
9.38811e-05
-0.0015281
-3.86817e-05
6.45921e-05
0.00152411
-0.000197934
-5.67497e-05
0.000263038
4.77245e-05
-5.131e-05
0.00147187
2.11511e-05
-6.64441e-05
0.000719133
-1.44818e-05
-7.26942e-05
-0.000118335
-2.1513e-05
-6.85958e-05
-0.000425085
1.71137e-05
-5.50112e-05
0.00021862
5.60447e-05
-6.13867e-05
0.000205154
4.72314e-05
-9.19869e-05
-0.000358328
1.15202e-05
-0.000100369
-0.000223249
2.36881e-05
-9.12564e-05
-0.000160618
9.94001e-06
-7.53881e-05
-0.000470073
-2.48094e-05
-4.4839e-05
-0.000795037
-0.000100349
-3.48383e-06
-0.000755587
-0.000102049
4.10717e-06
-0.000687308
-0.000125769
-1.92285e-05
-0.000760643
-0.000218027
-8.3042e-07
0.000888617
0.000238054
-0.00310006
-0.00164986
0.000120504
-0.00259333
-0.00100641
0.000245943
-0.00394393
-0.00142755
3.60615e-05
-0.00340055
-0.00163595
-4.30688e-05
-0.0028314
-0.000590856
0.000374711
-0.00438022
-0.000730605
0.000157557
-0.00435673
-0.00130287
-9.17425e-05
-0.00394655
-0.00171727
-7.76186e-05
-0.00328803
0.000623662
-0.00476754
-0.000495822
0.000361593
-0.00482262
-0.000249262
0.000111047
-0.00478144
-0.000404395
4.74509e-05
-0.00472647
-0.00123156
9.25027e-05
-0.00424487
-0.00165276
-8.90171e-06
-0.00351939
-0.000464093
0.000713691
-0.00560968
-0.000626767
0.000468651
-0.00545049
-0.000363853
0.000206138
-0.00553786
-0.000329551
5.52296e-05
-0.00552554
-0.000339998
6.10383e-05
-0.0054455
-0.00125932
8.66584e-05
-0.00461217
-0.00168841
8.18731e-06
-0.00399238
-0.000333854
0.000754117
-0.00631706
-0.000271844
0.000613872
-0.00625924
-0.000381447
0.000511191
-0.00622705
-0.000306819
0.00040128
-0.00639269
-0.000288989
0.000285678
-0.00631754
-0.000429497
0.000266954
-0.00606648
-0.001075
0.000207404
-0.00545699
-0.00171393
3.35835e-06
-0.00414507
-0.000254947
0.000972186
-0.00707486
-0.000137354
0.000909973
-0.00693599
-0.000216479
0.000854454
-0.00687146
-0.000375714
0.000796806
-0.00690662
-0.000249049
0.000863109
-0.0068018
-0.000363033
0.000731454
-0.00672732
-0.000368642
0.000480609
-0.00635536
-0.000844151
0.000306136
-0.0062581
-0.00175826
0.000250932
-0.00474795
-8.22875e-06
0.00144047
-0.00790444
-0.000136008
0.00127911
-0.00818663
-3.27118e-05
0.00119751
-0.00810537
-0.000305194
0.00108556
-0.00806039
-0.000144553
0.00111414
-0.00788303
-0.000197622
0.00104108
-0.00726959
4.13022e-05
0.00100844
-0.00723396
-8.90474e-05
0.000600649
-0.0074731
-0.000825766
0.000354236
-0.00620388
-0.00150808
0.000225908
-0.00544321
4.69614e-05
0.00124664
-0.00713452
-0.000183283
0.00121769
-0.00760778
1.78477e-05
0.0013343
-0.00780956
-0.000215028
0.00143182
-0.00772167
-0.000390111
0.00150621
-0.00790337
-0.000367599
0.00161612
-0.00738073
0.000141463
0.00164704
-0.00730344
0.000411695
0.001421
-0.00780086
6.67128e-05
0.00107541
-0.00795372
-0.000791363
0.000635141
-0.00783533
-0.00114366
0.000238717
-0.00677914
0.000244549
0.000665971
-0.0064328
0.000147153
0.000751423
-0.00652599
-0.000240793
0.000725356
-0.00632275
-4.78779e-05
0.000713891
-0.00674773
-9.53196e-05
0.000673927
-0.00572543
-4.05648e-05
0.0010302
-0.00602842
5.86024e-06
0.00108178
-0.00610591
0.000420654
0.00109021
-0.00563078
0.000905365
0.000877467
-0.00725782
0.000632681
0.00105895
-0.00740338
4.24008e-05
0.000997856
-0.00769727
-0.000647995
0.000377163
-0.00721798
-9.4677e-05
0.000166363
-0.00451768
4.47392e-05
0.000170426
-0.00427236
1.04584e-05
0.000242772
-0.00428007
-6.64398e-05
0.000148732
-0.00405553
-8.90885e-05
2.84791e-05
-0.00408178
-0.000158826
-7.27406e-05
-0.00483649
-1.60164e-05
0.00017035
-0.00513042
0.000260073
0.000123597
-0.00520298
0.00039284
1.94371e-05
-0.00489668
0.000711093
0.000145187
-0.0044512
0.000921332
0.000312606
-0.0055446
0.0006509
0.00069791
-0.00614899
-0.00026847
0.000507006
-0.00711082
-0.000110335
-0.00031763
-0.00147358
-2.04705e-05
-0.000278045
-0.00165616
4.23762e-06
-0.000183185
-0.00172562
9.4399e-05
-9.92046e-05
-0.00192263
-9.70219e-08
-9.86492e-05
-0.00192862
-4.34785e-05
-0.000125907
-0.00158648
-0.000210545
-0.000141617
-0.00282873
-9.18949e-05
-0.0002226
-0.00307639
0.000127666
-0.000303173
-0.00324838
-3.21436e-05
-0.000276394
-0.00312521
0.000334111
-0.000313461
-0.00341464
0.000532854
0.00011203
-0.00408758
0.0008036
0.000566115
-0.00326285
0.000259994
0.000359593
-0.00738519
1.0016e-05
-0.000292709
0.000240219
-2.71828e-05
-0.000289953
-0.00035879
3.54193e-05
-0.000278898
-0.000891676
2.27016e-05
-0.000232747
-0.00121279
8.63261e-05
-0.000188391
-0.00140575
9.90782e-05
-0.000206089
-0.00154714
1.00136e-05
-0.000226815
-0.00144869
-9.87759e-05
-0.000236565
-0.00121514
1.9368e-05
-0.000263706
-0.000896094
-2.75299e-05
-0.000197269
-0.00125193
-4.7258e-05
-0.00012271
-0.00192412
-0.000175104
-1.25859e-05
-0.00225488
-0.000186794
0.00012788
-0.00150664
-0.000116624
9.78479e-05
0.00136036
-0.000230781
-3.65255e-05
0.000312317
5.40765e-05
-4.91021e-05
0.00182585
5.60575e-05
-5.16012e-05
0.00140097
2.85032e-05
-6.63786e-05
0.000684314
-6.9385e-06
-7.32417e-05
-0.000106751
-1.98918e-05
-6.89867e-05
-0.000391218
1.66884e-05
-5.50998e-05
0.000195644
5.41576e-05
-6.39157e-05
0.000122926
5.01585e-05
-9.42237e-05
-0.000414632
9.57429e-06
-9.8896e-05
-0.000225183
3.14937e-05
-8.66985e-05
-0.000180801
1.70407e-05
-6.86981e-05
-0.000463255
-3.23212e-05
-4.16187e-05
-0.000724581
-0.000106166
-3.7597e-06
-0.000641555
-9.89681e-05
3.05837e-06
-0.000610627
-0.000162356
-1.79764e-05
-0.000581141
-0.000215831
1.90075e-06
0.00110255
-0.00165714
0.000100097
-0.00264384
0.000369226
-0.00342837
-0.001472
0.000139467
-0.00307457
-0.00156083
-9.94972e-06
-0.0026585
-0.000925351
0.000537882
-0.00400451
-0.00107382
0.000268528
-0.00383318
-0.0013338
3.21273e-05