/*--------------------------------*- C++ -*----------------------------------*\
  =========                 |
  \\      /  F ield         | OpenFOAM: The Open Source CFD Toolbox
   \\    /   O peration     | Website:  https://openfoam.org
    \\  /    A nd           | Version:  7
     \\/     M anipulation  |
\*---------------------------------------------------------------------------*/
FoamFile
{
    version     2.0;
    format      ascii;
    class       volVectorField;
    location    "5.5";
    object      U;
}
// * * * * * * * * * * * * * * * * * * * * * * * * * * * * * * * * * * * * * //

dimensions      [0 1 -1 0 0 0 0];

internalField   nonuniform List<vector> 
18750
(
(1.26618 -0.471835 1.92858)
(3.14296 -0.260455 1.02551)
(2.9974 -0.476388 0.0786652)
(1.47548 -0.413001 1.84798)
(0.640465 1.68393 -0.350992)
(1.67531 -0.0773148 -0.522544)
(2.7756 -0.327723 1.02799)
(1.69538 0.364124 -0.315899)
(3.41003 -0.586991 0.0201964)
(1.54594 -0.374096 1.65729)
(2.12127 4.36937 1.68867)
(0.262974 3.76485 0.100049)
(0.401447 1.61012 -1.38577)
(0.702068 1.61469 -0.668592)
(0.946083 -0.251094 -0.514937)
(2.13534 -0.346892 0.85944)
(0.604958 0.776327 0.392024)
(1.35539 0.35906 -0.0935881)
(3.7579 -0.731596 -0.136974)
(1.45722 -0.33086 1.41671)
(-2.63679 5.42276 -0.660632)
(3.31049 3.20305 2.21268)
(2.25328 4.35512 1.80395)
(1.79362 1.1387 1.28503)
(-0.0847138 0.296829 0.0956831)
(0.232587 1.4846 -1.44455)
(0.600026 1.95616 -0.181527)
(0.675927 1.62692 -0.639688)
(0.806868 -0.492735 -0.466525)
(1.36562 -0.296447 0.599998)
(0.452626 0.873613 -0.594183)
(0.536116 0.766344 0.339027)
(1.02888 0.385387 0.034284)
(3.92784 -0.873441 -0.372784)
(1.24215 -0.279568 1.20852)
(-3.21997 4.9734 -0.930235)
(1.88151 5.78932 2.98202)
(-2.51707 5.04096 0.135544)
(1.47815 2.38432 -0.694025)
(3.90924 2.76624 2.49618)
(1.90535 4.60011 2.12836)
(1.10584 0.993541 -0.5123)
(1.29029 1.15666 0.513824)
(-0.316567 -2.7146 0.0494844)
(0.159888 1.28244 -1.38054)
(0.506866 1.46661 -0.223114)
(0.472567 2.01691 -0.692124)
(0.595149 1.58979 -0.283204)
(0.572461 -0.760939 -0.543106)
(0.596185 -0.214037 0.330032)
(-0.0351791 0.546183 -1.9803)
(0.439219 0.834265 -0.613881)
(0.461594 0.756007 0.305817)
(0.745204 0.430252 0.096841)
(3.80763 -0.960828 -0.630821)
(0.957271 -0.202269 1.0471)
(-1.87855 4.46695 0.105549)
(1.26559 6.02549 2.48144)
(-2.11736 5.3092 -0.437065)
(2.50677 4.46035 2.12658)
(2.25731 5.84465 2.1296)
(-1.79045 4.90909 0.523214)
(1.18972 1.84104 -1.23956)
(1.55055 2.04477 -0.0703886)
(3.22745 2.62905 3.00056)
(2.00621 4.88366 2.01753)
(0.450531 1.62854 -1.23578)
(1.02703 0.976736 -0.557494)
(0.963768 1.19957 -0.694325)
(-0.0695324 -0.978074 0.0731987)
(0.109771 1.26613 -0.738178)
(-0.287395 1.5114 -0.359288)
(0.479711 1.47106 -0.183267)
(0.511764 2.06089 -1.17657)
(0.45964 1.56636 -0.0883134)
(0.281862 -0.8911 -0.708897)
(-0.124309 -0.0830724 0.0827806)
(-0.122002 0.165748 -2.2002)
(0.0192321 0.508371 -1.9804)
(0.426199 0.792854 -0.628218)
(0.384003 0.752782 0.284153)
(0.526223 0.477004 0.116888)
(3.44558 -0.941322 -0.779189)
(0.640221 -0.105542 0.924037)
(-2.24143 3.51464 -0.0459572)
(-0.176017 5.42563 -0.0170721)
(-1.49606 4.56838 0.101456)
(3.38806 4.78262 1.95073)
(2.09664 6.01081 0.976016)
(-1.19711 5.28564 0.00184344)
(1.80906 4.09504 1.98279)
(2.15723 4.62523 2.02311)
(1.29099 5.87675 1.99564)
(-1.09839 4.95206 0.625238)
(1.49498 2.90459 -0.229772)
(1.18685 1.97859 -1.09717)
(1.45861 1.71083 0.375689)
(2.51381 2.30254 3.19105)
(2.4735 5.08663 1.67846)
(0.357167 1.7216 -0.641637)
(0.420223 1.74252 -1.07914)
(0.93681 0.937744 -0.912532)
(0.740163 1.19086 -0.839025)
(-0.0653886 -1.05951 0.0491537)
(0.229882 1.24235 -0.357281)
(-0.087947 1.1696 -1.48596)
(-0.357594 1.46105 -0.44926)
(0.446196 1.47414 -0.23242)
(0.714081 2.00691 -1.20067)
(0.310913 1.56251 -0.117542)
(0.243412 -1.00223 -0.776098)
(-0.776285 0.117171 -0.125012)
(0.503148 0.0628834 -2.33272)
(-0.035266 0.153197 -2.20065)
(0.116698 0.461233 -1.98798)
(0.41071 0.753719 -0.635198)
(0.303516 0.780388 0.26964)
(0.378449 0.546892 0.103155)
(2.97799 -0.839843 -0.832702)
(0.322444 0.0120124 0.826361)
(-2.28668 2.72705 0.0563687)
(-1.22314 4.23172 0.154398)
(-2.34693 3.41176 0.0124183)
(2.64593 4.74953 1.70963)
(-0.667446 4.81931 0.197729)
(-1.43328 4.55703 0.190887)
(0.288821 5.11331 2.57057)
(1.14135 4.98773 2.28831)
(1.35804 6.08549 0.31988)
(-0.612994 5.20419 0.165841)
(0.714586 4.36646 1.74004)
(2.39128 3.76228 2.46368)
(2.4441 4.34702 2.07591)
(1.46264 5.47188 2.18831)
(-0.897482 4.98987 0.672185)
(1.09691 3.6084 -0.759629)
(1.51521 2.93849 0.0316922)
(1.09862 2.03491 -0.788475)
(1.58738 1.44772 0.792902)
(2.05272 2.29779 2.82439)
(2.40571 5.38015 1.55445)
(-0.7232 1.65611 0.223409)
(0.498638 1.8947 -0.522817)
(0.404681 1.90814 -0.762067)
(0.972925 1.09204 -0.939634)
(0.320999 1.30896 -1.0094)
(-0.210655 -1.17881 0.119134)
(1.40743 0.838119 0.859805)
(-0.154672 1.37965 -1.49646)
(-0.239689 1.09652 -1.55727)
(-0.157174 1.39814 -0.838942)
(0.35508 1.49644 -0.410909)
(0.775399 1.99755 -0.911167)
(0.171726 1.58704 -0.11012)
(-0.13165 -1.09372 -0.825615)
(-1.36122 0.43124 -0.323097)
(0.582117 -0.0399106 -2.15307)
(0.534334 0.0419443 -2.34924)
(0.0097955 0.125866 -2.19364)
(0.258484 0.39552 -1.97535)
(0.392112 0.707484 -0.641539)
(0.218533 0.79727 0.292826)
(0.267062 0.594811 0.0955261)
(2.46894 -0.678955 -0.834382)
(0.0129692 0.140075 0.734886)
(-2.03153 2.38431 0.0825765)
(-1.30229 3.5306 -0.00843173)
(-2.3343 2.71276 0.082355)
(-0.130393 4.54865 0.641146)
(-1.0048 4.16341 0.345228)
(-2.05885 3.50813 0.194712)
(0.833439 5.11434 1.78516)
(0.0453664 5.01487 1.3176)
(-0.46431 4.6746 0.426469)
(-1.1617 4.60302 0.220966)
(0.811537 5.20428 2.81648)
(1.75139 5.01126 2.67776)
(1.06913 5.07045 2.07143)
(-0.0109679 6.39287 0.61495)
(-0.121273 5.1125 0.269653)
(0.586612 4.69317 1.62215)
(1.19021 4.17552 2.44158)
(2.4024 4.10195 2.47283)
(2.25406 4.51273 3.02288)
(2.12203 5.40262 2.11782)
(-0.973158 5.32344 0.291492)
(1.46753 3.60682 -1.42261)
(0.953257 3.45605 -0.791208)
(1.65589 2.95321 0.212368)
(1.12893 2.0518 -0.320432)
(1.88649 1.11907 1.34209)
(2.20468 2.21532 2.45197)
(2.3518 5.37974 1.07467)
(-0.339497 1.505 -0.68966)
(-0.215269 1.7915 -0.812191)
(0.644971 1.92575 -0.675351)
(0.445947 1.94358 -0.610026)
(0.91366 1.15009 -0.873134)
(-0.00844535 1.57149 -0.766864)
(-0.170793 -0.783919 0.305734)
(2.7562 0.387797 1.73976)
(0.347035 1.08482 -1.35805)
(-0.18793 1.34005 -1.47861)
(-0.183696 1.02062 -1.69217)
(-0.146027 1.34671 -0.891991)
(0.300457 1.50581 -0.518575)
(0.728201 2.00663 -0.758361)
(-0.00890603 1.62727 0.149366)
(-0.487821 -0.946868 -0.776575)
(-1.89383 0.898273 -0.501231)
(0.411458 -0.429584 -1.17661)
(0.566392 -0.0300402 -2.19287)
(0.506301 0.0200897 -2.33037)
(0.0374647 0.106425 -2.17296)
(0.351776 0.328769 -1.94909)
(0.371312 0.661117 -0.6366)
(0.0340442 0.829974 0.349354)
(0.0800786 0.660718 0.0863768)
(1.96254 -0.468772 -0.805887)
(-0.324392 0.307853 0.62453)
(-2.17537 1.96367 -0.0241654)
(-1.13289 3.01233 0.074498)
(-1.73404 2.65334 0.0401213)
(-0.0384399 4.06928 0.304277)
(-1.06241 3.5434 -0.0196909)
(-1.92695 2.99597 0.189254)
(-0.308738 4.88933 0.826585)
(-0.18186 4.49552 0.537544)
(-0.779127 4.30429 0.349511)
(-1.80018 3.53983 0.286327)
(0.0477184 5.42571 1.86386)
(0.899696 5.15437 1.75737)
(0.446356 5.09869 1.10927)
(-0.346993 4.73522 0.651408)
(-0.915852 4.61774 0.120718)
(0.626762 5.21678 2.94801)
(1.26466 5.27253 2.61173)
(1.86372 4.88827 2.47918)
(2.63132 5.00247 1.59481)
(1.29934 6.15196 0.45714)
(0.358348 5.02749 0.179158)
(0.0840872 4.69148 1.93879)
(0.813086 4.57778 2.10349)
(1.43031 4.02501 2.66866)
(2.50661 4.25714 2.61262)
(3.41011 4.39237 2.88875)
(3.65986 4.75757 2.90928)
(-0.979391 5.76415 -0.590259)
(-0.439099 2.46141 0.633116)
(0.925393 3.84237 -0.878525)
(0.886133 3.45953 -0.768508)
(1.79028 3.09799 0.0527672)
(1.46436 1.98256 0.58834)
(2.12406 1.04645 1.58008)
(3.13905 1.8813 2.19125)
(2.15661 5.08493 0.591265)
(0.0958428 1.27645 -0.684448)
(-0.405889 1.47336 -0.680322)
(0.216974 1.74903 -1.57195)
(1.04335 1.8108 -1.32898)
(0.613863 2.06521 -0.272457)
(0.644529 1.50107 -0.675588)
(-0.249909 1.75322 -0.353961)
(-0.162026 -0.628353 0.587444)
(4.06231 -0.122598 1.49787)
(0.101943 0.918677 -0.933469)
(0.249538 1.06243 -1.30278)
(-0.193434 1.30637 -1.49138)
(-0.123326 0.98721 -1.72771)
(-0.0609063 1.31755 -0.880905)
(0.360945 1.48539 -0.495808)
(0.465064 2.09238 -0.655729)
(-0.411913 1.7265 0.771173)
(-0.870155 -0.793856 -0.698434)
(-2.33485 1.45098 -0.657833)
(0.0833006 -0.168833 -0.990421)
(0.447306 -0.415031 -1.20454)
(0.532949 -0.0148868 -2.2098)
(0.476772 0.00322539 -2.29391)
(0.0807039 0.0815158 -2.14818)
(0.418838 0.261804 -1.89983)
(0.343011 0.62167 -0.623715)
(-0.0379064 0.855874 0.34106)
(0.027372 0.686426 0.0409225)
(1.48386 -0.225346 -0.757909)
(-0.615954 0.476865 0.520451)
(-1.12233 2.80347 0.203068)
(-1.75652 2.33287 -0.0205478)
(-0.3141 3.46913 0.0427256)
(-0.849581 3.18536 0.0393817)
(-1.60066 2.71664 0.0598786)
(-0.125183 4.21805 0.230441)
(-0.195604 4.06494 0.23284)
(-0.523494 3.62977 -0.103679)
(-1.8107 3.04334 0.142143)
(-0.206648 4.84532 0.842225)
(0.25116 4.69468 0.83044)
(0.173797 4.65378 0.558604)
(-0.595268 4.41181 0.321335)
(-1.40006 3.63158 0.294037)
(0.303599 5.44402 2.05086)
(1.85385 4.81703 2.27828)
(1.67449 4.68465 1.63648)
(1.81964 4.704 1.11227)
(-0.0263382 4.70569 0.830564)
(-0.850829 4.63551 0.103338)
(0.218112 5.30571 2.85238)
(0.765928 5.36568 2.77697)
(1.27304 5.14873 2.68628)
(3.13344 4.21039 2.31671)
(2.34743 5.37716 1.64792)
(0.788177 6.10772 0.673108)
(0.92294 5.00772 0.365552)
(0.150311 4.64992 1.17504)
(0.340124 4.64383 1.89707)
(0.979146 4.52354 2.16497)
(2.22636 3.70726 2.89609)
(3.50122 3.65498 2.90578)
(4.08041 4.01864 2.89868)
(4.05858 4.57385 3.15075)
(-0.493949 5.87856 -0.751871)
(-0.334123 2.11886 0.588047)
(0.116702 2.71347 0.235004)
(0.409248 3.90923 0.0010104)
(1.08118 3.37279 -0.796512)
(1.90227 3.06163 0.422175)
(2.19225 1.76022 2.05733)
(2.38396 1.46189 1.72832)
(4.57783 1.272 2.14572)
(2.17645 4.81598 0.535625)
(0.0806419 1.40309 -0.302087)
(-0.385284 1.39423 -0.525104)
(-0.619865 1.65851 -0.34293)
(0.306543 1.8089 -1.68571)
(1.2369 1.68786 -1.6869)
(0.827284 1.96709 -0.670623)
(0.343397 1.82891 -0.498728)
(-0.279532 1.95685 0.369386)
(-0.0598496 -0.28748 0.729022)
(4.89893 -0.462465 1.1899)
(0.0556724 0.864363 -0.969827)
(0.154304 0.913321 -0.909274)
(0.232877 1.04152 -1.30497)
(-0.0848758 1.21829 -1.6)
(0.0240495 0.887475 -1.82328)
(0.0147303 1.2936 -0.908732)
(0.516405 1.40913 -0.451117)
(0.32188 2.06681 -0.627265)
(-0.622125 1.80742 0.977772)
(-1.30865 -0.540657 -0.579933)
(-2.6041 1.96821 -0.752175)
(-0.346625 0.388506 -1.32138)
(0.0533138 -0.171547 -0.995013)
(0.490923 -0.413802 -1.27241)
(0.497656 -0.00297835 -2.21521)
(0.451629 -0.0139905 -2.24452)
(0.155551 0.0419697 -2.11666)
(0.46772 0.198405 -1.82536)
(0.308779 0.589993 -0.609074)
(-0.105856 0.871899 0.363973)
(0.00866111 0.709036 -0.0533983)
(1.0461 0.0325959 -0.695643)
(-0.899872 0.629564 0.427069)
(-1.20069 2.38917 -0.248543)
(-0.225212 3.05031 0.172895)
(-0.818137 2.90933 0.139533)
(-1.57415 2.46062 -0.0305584)
(-0.0651877 3.61047 0.00262021)
(-0.218622 3.46482 0.0539835)
(-0.747407 3.2567 0.0042814)
(-1.19146 2.89659 0.0415185)
(-0.0530719 4.06862 0.284293)
(0.209457 4.28345 0.221218)
(0.0653952 4.13332 0.231336)
(-0.493433 3.63976 -0.0770847)
(-1.48805 3.19103 0.166922)
(-0.217756 4.70617 0.855819)
(0.215508 4.65602 1.04261)
(0.691556 4.56038 0.992541)
(0.80823 4.47896 0.677521)
(-0.446185 4.43618 0.282091)
(-1.19542 3.62304 0.206786)
(0.0981875 5.60693 1.77382)
(0.622512 5.15598 2.10286)
(0.261597 5.07845 1.66014)
(1.29673 4.54684 1.48322)
(1.80387 4.57993 0.726561)
(0.201153 4.55752 0.612195)
(-0.778648 4.74494 0.0448441)
(0.532467 5.26043 2.4332)
(0.853506 5.28651 2.9692)
(0.65374 5.22023 2.89405)
(1.15833 5.17539 2.74132)
(1.77439 4.86693 2.4176)
(2.33813 5.20504 1.92689)
(1.78548 5.62422 0.741378)
(1.2403 4.97439 0.479645)
(-0.336474 3.93323 1.134)
(0.504145 4.68472 1.08574)
(0.0999407 4.66392 2.2754)
(1.38385 4.19082 2.34946)
(2.59207 3.49869 3.00643)
(3.24772 3.96079 3.24096)
(4.09944 3.8097 2.94941)
(3.92556 4.51126 2.81848)
(0.4886 5.67767 -0.597271)
(-0.0823449 2.81494 0.69464)
(-0.277574 2.16368 0.716652)
(1.374 2.71083 -1.29431)
(0.376676 3.60298 0.237024)
(1.09777 3.30682 -0.404793)
(1.90957 2.96472 0.740862)
(2.44364 1.61191 2.23464)
(3.24882 1.53287 2.1707)
(5.12976 0.787619 3.0562)
(2.9845 4.16538 0.452525)
(0.476696 1.30399 -0.58301)
(0.206481 1.37196 -0.285779)
(-0.0675626 1.28811 -0.568602)
(-0.865598 1.97998 0.0210199)
(0.340054 1.91209 -1.60236)
(1.18032 1.66999 -1.58799)
(1.0397 1.84822 -0.891081)
(0.269962 2.01958 -0.27079)
(0.140153 2.03925 0.775151)
(0.0672635 0.149664 0.477177)
(4.84512 0.0381477 1.40952)
(0.0333826 0.843504 -1.60749)
(0.101203 0.854545 -0.909604)
(0.461133 0.871763 -0.998587)
(0.323489 1.01075 -1.32089)
(0.0487363 1.10595 -1.68189)
(0.115364 0.797739 -1.88723)
(0.262523 1.09878 -1.08612)
(0.555443 1.3625 -0.431144)
(0.19337 2.07025 -0.573529)
(-0.867697 1.96987 0.973028)
(-1.67993 -0.213737 -0.494982)
(-2.69304 2.35703 -0.738948)
(-0.209531 0.128735 -1.57599)
(-0.313706 0.390259 -1.32324)
(0.0111215 -0.166174 -0.999887)
(0.495767 -0.398808 -1.3749)
(0.472564 0.0104106 -2.2163)
(0.427108 -0.0254001 -2.19228)
(0.240968 -0.00594365 -2.06848)
(0.493377 0.140471 -1.72877)
(0.275253 0.56145 -0.600774)
(-0.163574 0.876118 0.396287)
(0.0100916 0.693084 -0.112038)
(0.669244 0.306695 -0.622416)
(-1.14466 0.765868 0.352992)
(-1.10261 2.05979 0.0214594)
(-0.215032 2.82439 0.170439)
(-1.01066 2.45715 -0.215312)
(-0.247241 3.15316 0.234892)
(-0.186399 3.0655 -0.0304525)
(-0.462703 3.0656 -0.0431286)
(-1.31874 2.64281 0.01135)
(-0.203491 3.6016 0.120559)
(0.29748 3.61138 -0.0391383)
(-0.0573888 3.49508 0.08899)
(-0.531977 3.27325 -0.0595436)
(-0.962069 2.97966 -0.0057705)
(-0.0968882 4.08056 0.462258)
(0.420955 4.1371 0.306718)
(0.320572 4.29967 0.242268)
(0.349471 4.09412 0.244722)
(-0.199765 3.73216 -0.0236583)
(-1.19602 3.30268 0.176406)
(-0.289895 4.70476 0.974734)
(0.229265 4.60606 0.951251)
(0.320179 4.59788 1.02888)
(0.743914 4.54173 1.01096)
(1.19094 4.18911 0.66424)
(0.0550159 4.41647 0.311116)
(-0.921208 3.68268 0.227631)
(0.386966 5.4391 1.82598)
(1.00113 5.2887 2.17038)
(0.404125 5.23973 1.78782)
(1.20765 4.90622 1.79252)
(1.71384 4.61715 1.49622)
(1.78478 4.44585 0.718475)
(0.641734 4.47529 0.769917)
(-0.817618 4.71342 0.118692)
(-0.032258 5.22819 2.30642)
(0.727519 5.20615 2.5027)
(0.752847 5.31511 2.96234)
(0.721579 5.15483 2.90608)
(2.75612 4.32562 2.9801)
(3.07722 4.26435 2.6266)
(2.30134 5.18306 2.15772)
(1.59342 5.52152 0.461499)
(1.39806 4.89148 0.583683)
(-0.500833 4.16438 1.59707)
(0.233734 4.08432 1.17019)
(0.751097 4.4097 0.900938)
(0.243501 4.23088 2.71936)
(1.50419 4.02938 2.38661)
(2.62316 3.19098 3.3849)
(3.68237 3.59248 3.18584)
(4.27646 3.67616 2.76629)
(4.00925 4.19802 2.51809)
(1.43794 5.30563 -0.340839)
(0.0543946 2.8396 0.950669)
(-0.106333 2.76375 0.712096)
(-0.203877 2.28585 0.489008)
(1.71866 2.65448 -1.73966)
(0.712248 3.31163 0.196689)
(1.21085 3.16388 -0.0898451)
(2.07883 2.9092 1.11322)
(2.64806 1.7445 2.08333)
(4.41883 1.224 1.93739)
(5.00353 0.896436 3.37604)
(3.79162 3.26645 0.568237)
(0.618631 1.18074 -0.899862)
(0.522625 1.26087 -0.486252)
(0.307691 1.34741 -0.293617)
(-0.169434 1.29734 -0.535134)
(-0.855407 2.24839 0.120139)
(0.618096 1.96854 -1.22975)
(1.12407 1.69165 -1.46648)
(0.923681 1.96204 -0.833948)
(0.794286 1.85204 -0.534105)
(0.799723 1.98081 1.20153)
(0.327075 0.524576 0.106706)
(4.56862 0.367129 1.64744)
(-0.185274 0.599092 -1.95586)
(-0.0263739 0.841809 -1.51621)
(0.319062 0.817363 -0.953711)
(0.778339 0.795339 -1.18654)
(0.615936 0.880876 -1.43927)
(0.216152 0.952604 -1.71118)
(0.181344 0.712911 -1.89183)
(0.175452 1.06768 -1.03003)
(0.571963 1.33445 -0.446302)
(0.106944 2.09637 -0.454168)
(-1.13861 2.20464 0.983072)
(-1.9612 0.178567 -0.449502)
(-2.64571 2.60194 -0.628824)
(0.300933 -0.475957 -1.47491)
(-0.177573 0.120349 -1.59463)
(-0.283639 0.378315 -1.32357)
(-0.0363608 -0.15005 -1.00495)
(0.452918 -0.365889 -1.48919)
(0.46333 0.023549 -2.21472)
(0.391971 -0.0289895 -2.14034)
(0.335663 -0.0691003 -1.99852)
(0.501099 0.085802 -1.61613)
(0.239337 0.539836 -0.595026)
(-0.198103 0.888902 0.418647)
(0.0402639 0.607211 -0.211556)
(0.35284 0.55396 -0.543548)
(-1.33207 0.884502 0.300653)
(-1.11984 1.74198 0.0146804)
(-1.0929 2.35779 -0.161082)
(-0.982205 2.10613 -0.0360157)
(-0.115325 2.95458 -0.00178448)
(-0.650372 2.70502 -0.0629515)
(-0.817264 2.50323 -0.207933)
(-0.34771 3.13689 0.29712)
(0.104061 3.15347 0.081069)
(0.0919068 3.09332 0.0781201)
(-0.518222 3.07032 -0.00589552)
(-1.12126 2.70372 0.0722527)
(-0.373101 3.60775 0.434951)
(0.120416 3.60306 0.0583943)
(0.377216 3.64725 -0.00060715)
(0.391798 3.46895 0.131993)
(-0.383691 3.30504 -0.00997914)
(-0.689305 3.0733 -0.0725145)
(-0.110458 4.08298 0.638918)
(0.113178 4.05813 0.450276)
(0.490173 4.21333 0.37128)
(0.631991 4.24148 0.211395)
(0.569637 4.06203 0.309312)
(-0.0556169 3.73597 -0.0139358)
(-0.899922 3.45422 0.0204273)
(-0.0475443 4.57099 1.10232)
(0.442274 4.57193 1.10112)
(0.39087 4.62388 0.973688)
(1.16587 4.42525 1.13317)
(1.59735 4.24812 1.10003)
(1.18734 4.16907 0.575274)
(0.299935 4.36961 0.221162)
(-0.466893 3.81095 0.271005)
(0.254246 5.46291 2.00315)
(0.780924 5.24046 1.87393)
(0.850107 5.26316 1.88011)
(0.780003 5.18427 1.8707)
(1.16465 4.84901 1.69561)
(1.99797 4.42336 1.52754)
(2.18756 4.47399 0.490496)
(0.698517 4.37032 0.657388)
(-0.379352 4.61914 0.123306)
(-0.362726 4.92704 2.12672)
(0.569825 5.17666 2.53152)
(0.872187 5.15484 2.59686)
(0.791006 5.28708 2.89453)
(1.23972 4.95467 3.05628)
(1.91628 4.61025 2.84765)
(2.96481 4.27475 2.46157)
(3.15542 4.84854 2.19817)
(2.06592 5.3285 0.0780476)
(1.6643 4.68749 0.660197)
(0.426378 4.1067 1.61224)
(-0.0434827 4.18061 1.65638)
(0.728947 4.18626 1.32899)
(0.906611 3.90604 1.04107)
(0.603393 4.09565 2.527)
(1.41502 3.9096 2.71884)
(2.77832 3.26311 3.22799)
(3.8231 3.36907 3.1607)
(4.34753 3.39433 2.56228)
(4.25006 3.6414 2.3676)
(2.11697 4.85503 -0.229334)
(-0.254491 2.81588 0.61756)
(0.200146 2.78183 0.99492)
(0.214738 2.72442 0.431267)
(0.361006 2.48146 0.288994)
(1.27604 3.00181 -0.981536)
(0.556374 3.40525 0.708005)
(1.40691 3.02511 -0.126135)
(2.60758 2.33417 0.452198)
(2.95974 1.64459 1.85439)
(4.83484 1.00364 1.66177)
(4.9974 1.16709 2.78704)
(3.73934 3.0976 0.349996)
(0.678813 0.981228 -1.26239)
(0.339527 1.19219 -0.62053)
(0.646693 1.19012 -0.390272)
(0.586833 1.22605 -0.364644)
(-0.17482 1.23685 -0.590891)
(-0.682017 2.30631 -0.0839403)
(0.855473 1.88648 -0.962865)
(1.17484 1.71188 -1.4681)
(1.03666 1.88663 -0.723675)
(1.53153 1.56417 -1.36952)
(1.74595 1.59299 1.82783)
(1.73733 0.0677732 0.557582)
(4.44939 1.80694 1.67397)
(-0.215691 0.301293 -1.98227)
(-0.0758444 0.609859 -1.90607)
(0.0721345 0.810596 -1.47)
(0.618821 0.753904 -1.06997)
(0.933073 0.73852 -1.3941)
(0.814887 0.761914 -1.54854)
(0.239335 0.880484 -1.75132)
(0.25683 0.6314 -1.89459)
(0.222697 0.994784 -1.04788)
(0.543544 1.31064 -0.502688)
(-0.0948539 2.22799 0.0625339)
(-1.21806 2.45003 1.12512)
(-2.34392 0.745614 -0.446678)
(-2.59391 2.76627 -0.55357)
(0.712896 -0.975529 -1.26106)
(0.379676 -0.487102 -1.47999)
(-0.124327 0.112702 -1.61077)
(-0.246126 0.371974 -1.32723)
(-0.0851419 -0.121943 -1.01106)
(0.378474 -0.314684 -1.59978)
(0.45776 0.0383323 -2.21916)
(0.342716 -0.0239704 -2.09014)
(0.430286 -0.145033 -1.90382)
(0.489809 0.0467836 -1.4901)
(0.205868 0.520307 -0.59489)
(-0.254657 0.897781 0.432437)
(0.126551 0.498427 -0.303075)
(-0.0208237 0.872913 -0.418007)
(-1.45764 0.991004 0.26378)
(-0.729905 2.09691 0.172898)
(-0.99493 1.83367 0.0585853)
(-0.358931 2.68376 0.131172)
(-0.848759 2.36376 -0.0609547)
(-0.93948 2.14243 -0.0450143)
(-0.163519 2.84857 0.25547)
(0.032878 2.89303 -0.00524029)
(-0.564348 2.77142 -0.0900521)
(-0.766997 2.5242 -0.201944)
(-0.75438 3.06934 0.571109)
(-0.170362 3.16396 0.258793)
(0.3855 3.10984 -0.0325074)
(0.28268 3.12787 0.0602556)
(-0.293563 3.05192 0.17347)
(-0.671808 2.83892 -0.0199739)
(-0.262817 3.6532 0.580924)
(-0.236047 3.56929 0.454232)
(0.361984 3.60985 0.0334351)
(0.505417 3.61788 0.0266422)
(0.782582 3.46134 0.0655192)
(-0.215767 3.35428 0.0442828)
(-0.502544 3.10789 -0.0821091)
(-0.0117609 4.14399 0.705702)
(0.0860066 4.09543 0.649005)
(0.341543 4.06447 0.524528)
(0.676931 4.19118 0.406165)
(0.875443 4.1444 0.213155)
(0.911312 3.97129 0.483506)
(0.449072 3.76174 -0.000138389)
(-0.748531 3.54043 0.0319744)
(-0.263357 4.61019 1.20194)
(0.153922 4.56015 1.14614)
(0.530421 4.44633 1.09694)
(0.585547 4.58251 1.06346)
(1.14331 4.33555 1.16072)
(1.17245 4.30596 0.731831)
(1.34901 4.11704 0.556537)
(1.12191 4.21493 0.344547)
(-0.400956 3.8026 0.261194)
(0.379089 5.07488 2.1495)
(0.548259 5.31933 1.95829)
(0.757361 5.23346 1.83052)
(0.719285 5.29895 1.67033)
(1.39072 5.01718 1.82819)
(1.3914 4.72278 1.75917)
(2.32045 4.18313 1.5246)
(2.54604 4.46111 0.400996)
(1.07631 4.28183 0.647487)
(-0.132944 4.59131 -0.0449036)
(0.209034 4.64139 2.27392)
(-0.0568752 5.04551 2.21928)
(0.943294 5.02608 2.65888)
(0.805246 5.05477 2.65437)
(0.898981 5.34084 2.88888)
(1.615 4.68354 2.9786)
(2.40309 4.37562 2.99611)
(3.48382 4.14087 2.2042)
(4.61369 3.42498 1.98661)
(1.7043 5.24731 0.261742)
(1.75071 4.49787 0.642457)
(1.18408 4.04773 1.43557)
(0.732841 4.13306 1.5729)
(0.21299 4.14126 1.68074)
(0.937128 4.29754 1.59666)
(0.910595 3.75903 1.38643)
(1.48808 3.82169 2.55268)
(1.87932 3.80467 2.51664)
(2.73374 2.84419 3.09629)
(5.00768 2.95082 1.51609)
(4.38708 3.01766 2.55391)
(4.33294 3.16895 2.3405)
(2.38919 4.48115 -0.291326)
(-0.309532 3.00067 0.397008)
(-0.0991124 2.82159 0.63306)
(0.139578 2.80826 0.764902)
(0.342656 2.64556 0.315282)
(0.802665 2.5618 -0.012041)
(1.08381 3.05577 -0.125467)
(0.697307 3.38906 0.888912)
(1.92849 2.85936 -0.0927272)
(2.06372 2.40754 0.224795)
(3.27306 1.33384 1.08787)
(4.64969 0.994118 1.87102)
(5.03266 1.06532 2.55665)
(3.10571 3.78346 -0.0510166)
(-0.131255 0.984256 -1.23084)
(-0.0711125 1.21204 -1.02752)
(0.501768 1.06899 -0.543242)
(0.716003 1.12116 -0.398642)
(0.591532 1.16941 -0.433646)
(-0.204388 1.22482 -0.60573)
(-0.239816 2.20997 -0.583512)
(0.975022 1.82289 -0.935618)
(1.26467 1.78378 -1.52641)
(1.12088 1.7827 -0.734304)
(1.53704 1.69427 -1.68936)
(2.67269 1.15091 2.62517)
(2.96238 -0.358127 1.4085)
(5.22921 1.17348 1.25832)
(-0.0245194 -0.146613 -2.09288)
(-0.124531 0.280564 -1.97143)
(-0.0579811 0.596661 -1.90636)
(0.134265 0.796911 -1.4441)
(0.766316 0.723965 -1.22839)
(1.05278 0.684899 -1.56265)
(1.00546 0.603316 -1.60628)
(0.224245 0.826213 -1.7928)
(0.284215 0.554972 -1.8962)
(0.282684 0.969619 -1.04889)
(0.487159 1.30119 -0.552059)
(-0.201274 2.30508 0.310187)
(-1.10965 2.60269 1.51671)
(-2.58809 1.4325 -0.346204)
(-2.46702 2.90679 -0.505129)
(0.695615 -1.2414 -0.876432)
(0.734407 -0.992407 -1.25408)
(0.446216 -0.506991 -1.48678)
(-0.0442978 0.0906289 -1.62291)
(-0.213276 0.356237 -1.33449)
(-0.133514 -0.0852025 -1.02)
(0.291646 -0.249015 -1.70493)
(0.442245 0.0578957 -2.22762)
(0.29496 -0.016733 -2.03739)
(0.511338 -0.224861 -1.78366)
(0.45649 0.0266685 -1.35376)
(0.171818 0.499922 -0.600975)
(-0.281638 0.903822 0.442642)
(0.181368 0.395515 -0.381394)
(-0.23403 1.09715 -0.297957)
(-1.60146 1.06788 0.238178)
(-0.857607 1.86286 0.0171815)
(-0.744892 2.30252 0.168304)
(-0.681368 2.12408 0.123678)
(-0.783242 1.96878 0.0764055)
(-0.281859 2.64724 0.276945)
(-0.367392 2.58597 0.122654)
(-0.473504 2.44248 -0.0297101)
(-0.867333 2.16652 -0.0431508)
(-0.168227 2.86868 0.367239)
(0.112109 2.90393 0.264948)
(0.327384 2.84896 -0.0503159)
(-0.387148 2.83278 0.0738427)
(-0.720734 2.5263 -0.00345869)
(-0.473612 3.21591 0.620234)
(-0.390396 3.16928 0.43476)
(-0.0206207 3.17768 0.239671)
(0.365142 3.10891 0.0275972)
(0.444939 3.11459 0.0187878)
(-0.193294 2.98846 -4.50008e-05)
(-0.737402 2.82007 -0.0253598)
(-0.470882 3.75016 0.906188)
(0.0581882 3.64444 0.508521)
(0.0279394 3.58973 0.410496)
(0.38854 3.62533 0.104381)
(0.72966 3.54933 0.0587386)
(0.882433 3.58338 0.14638)
(-0.0201668 3.30533 0.106438)
(-0.251255 3.17957 -0.0668695)
(-0.150823 4.15658 1.02532)
(0.354819 4.08856 0.807458)
(0.275914 4.05096 0.672144)
(0.440507 4.08762 0.531071)
(0.74448 4.14459 0.445246)
(0.889144 4.09467 0.192696)
(1.17447 3.85998 0.474315)
(0.622659 3.76917 -0.0187053)
(-0.495069 3.53431 0.197053)
(-0.107786 4.55908 1.39849)
(0.055537 4.55969 1.32198)
(0.697091 4.41399 1.19095)
(0.594597 4.51994 1.1234)
(0.936985 4.30237 1.19663)
(1.37216 4.3274 1.21928)
(1.53718 4.14121 0.804636)
(1.45487 3.87315 0.464617)
(1.07182 4.17096 0.415217)
(0.294146 3.91601 0.1076)
(0.304797 5.03383 2.32842)
(0.518645 5.1853 2.02471)
(0.82156 5.19448 1.89127)
(0.858395 5.28443 1.76729)
(1.02426 5.22 1.68653)
(0.747338 5.27892 1.44388)
(2.0834 4.26459 1.70813)
(2.4351 4.16499 1.54032)
(0.789605 4.9694 0.617116)
(1.32561 4.2214 0.694792)
(0.359122 4.43536 0.155264)
(0.096436 4.4965 2.33611)
(0.795199 4.59147 2.28645)
(0.399307 4.89439 2.39135)
(0.94962 4.9587 2.68637)
(1.22889 4.85427 2.91612)
(1.78979 4.79134 3.09268)
(1.95745 4.46589 3.16449)
(2.88041 3.78346 3.07225)
(3.97585 3.54524 2.27324)
(3.61022 3.82294 2.05424)
(2.21275 4.7841 0.373774)
(2.03568 4.26823 0.709054)
(0.203065 4.44196 1.68434)
(1.08645 4.13468 1.86958)
(1.11816 4.28016 1.58573)
(0.957295 4.14455 1.79994)
(0.838845 4.45662 1.78222)
(0.516826 3.74085 2.38407)
(2.18182 3.28126 2.27328)
(2.97625 3.06691 1.89155)
(3.21357 2.20195 2.51006)
(4.10325 2.75805 2.37481)
(4.63565 2.68871 2.51271)
(3.97728 3.34583 1.94176)
(2.68492 4.23909 -0.248004)
(-0.555455 3.13525 0.623018)
(0.316078 2.93132 0.357056)
(0.147856 2.81057 0.67125)
(0.751662 2.71231 0.506983)
(0.542982 2.62844 0.15204)
(1.27391 2.41762 -0.312373)
(0.957425 2.98318 0.234524)
(0.938265 3.31534 0.718908)
(2.50271 2.59535 -0.271565)
(1.86513 2.80533 -0.253741)
(3.54883 0.911168 -0.0759422)
(4.55815 1.00203 2.18762)
(4.84711 0.78907 2.77778)
(3.14571 3.69859 -0.101008)
(0.146469 0.722621 -1.39551)
(0.00631326 1.00721 -1.21359)
(0.785682 0.89234 -1.02711)
(0.572778 1.02053 -0.423768)
(0.743062 1.09739 -0.428637)
(0.712202 1.07385 -0.493124)
(-0.160094 1.20256 -0.655745)
(0.0439629 2.06199 -0.934607)
(1.35065 1.57345 -1.19575)
(1.32322 1.78001 -1.63111)
(1.30728 1.67709 -1.16469)
(1.57699 1.65657 -1.269)
(2.85142 1.29579 3.38033)
(3.33697 0.0759492 2.08148)
(5.44753 1.69226 1.29875)
(0.203983 -0.352755 -1.8999)
(0.0639272 -0.174926 -2.04592)
(-0.0735824 0.218551 -1.99775)
(0.0624267 0.595662 -1.87696)
(0.207501 0.770716 -1.44756)
(0.906576 0.685538 -1.4065)
(1.22416 0.602919 -1.61564)
(1.16824 0.472939 -1.5812)
(0.285377 0.732605 -1.78192)
(0.326027 0.462852 -1.88695)
(0.387497 0.594725 -1.2584)
(0.430197 1.33556 -0.516438)
(-0.204627 2.25857 0.441302)
(-1.00267 2.69311 1.86132)
(-2.69764 2.0514 -0.0725366)
(-2.22407 2.94659 -0.442905)
(0.263298 -1.22825 -1.16948)
(0.67953 -1.25715 -0.898447)
(0.748129 -1.00165 -1.26185)
(0.488085 -0.524456 -1.50111)
(0.0281773 0.0701882 -1.63748)
(-0.191995 0.351743 -1.33887)
(-0.183055 -0.0375017 -1.03363)
(0.213366 -0.175694 -1.80711)
(0.409394 0.098263 -2.22872)
(0.275056 -0.0225578 -1.97646)
(0.572456 -0.302162 -1.6398)
(0.408055 0.0255868 -1.21647)
(0.135529 0.484623 -0.617216)
(-0.286779 0.870247 0.492608)
(0.191176 0.313025 -0.456031)
(-0.425743 1.26502 -0.150338)
(-1.63035 1.05079 0.258357)
(-0.824755 1.8508 -0.0755745)
(-0.864888 2.07816 0.103356)
(-0.686337 1.9395 0.00769589)
(-0.690613 2.43031 0.371857)
(-0.552375 2.34727 0.0639177)
(-0.619707 2.19961 -0.0947189)
(-0.649011 2.04265 0.107256)
(-0.383007 2.66364 0.548039)
(-0.0212555 2.59764 0.307415)
(-0.176883 2.52338 0.08832)
(-0.451566 2.44582 -0.118664)
(-0.739022 2.2445 -0.0536071)
(-0.432879 2.84933 0.560323)
(-0.133769 2.87433 0.397333)
(0.270312 2.87959 0.248991)
(0.78857 2.73287 -0.0197873)
(-0.367689 2.85178 0.11517)
(-0.499593 2.56594 -0.0479704)
(-0.495969 3.18022 0.950556)
(-0.274766 3.23205 0.570716)
(-0.236865 3.19368 0.464338)
(0.223522 3.22463 0.220182)
(0.498397 3.14063 0.0946055)
(0.794848 3.04727 -0.11798)
(-0.0512682 2.96608 0.0472336)
(-0.569864 2.90473 -0.0361461)
(-0.635488 3.81177 0.987846)
(-0.215094 3.69982 0.845486)
(0.223998 3.64387 0.506723)
(0.178429 3.60706 0.402169)
(0.596757 3.6386 0.170481)
(0.875932 3.5337 0.0830065)
(0.871796 3.60223 0.175547)
(0.227229 3.28771 0.142204)
(0.0553105 3.16237 0.00470873)
(-0.0294059 4.0438 1.24324)
(-0.195631 4.08705 1.03328)
(0.285929 4.02588 0.798958)
(0.677756 4.06876 0.712059)
(0.595723 4.06271 0.543883)
(1.02777 4.07235 0.520799)
(1.17222 3.96785 0.32736)
(1.39354 3.77599 0.488932)
(0.693928 3.80112 -0.0374555)
(0.0873275 3.62071 0.0857568)
(-0.181541 4.45487 1.52983)
(-0.121379 4.56549 1.38112)
(0.340924 4.48367 1.24962)
(0.616146 4.41928 1.15245)
(0.895568 4.4469 1.19304)
(1.24887 4.29487 1.22378)
(1.51111 4.22958 1.09709)
(1.44823 4.1593 0.583198)
(1.7543 3.75914 0.477499)
(1.509 4.00252 0.522294)
(0.447498 3.88934 0.16224)
(0.403913 4.71059 2.5645)
(0.475523 4.95212 2.27811)
(0.794823 5.10662 2.04475)
(1.0275 5.19638 1.90142)
(0.989576 5.26265 1.77206)
(1.25169 5.20663 1.65925)
(1.27983 4.94776 1.82589)
(1.98563 4.1284 1.69787)
(2.4193 3.9222 1.53635)
(2.11431 4.21573 0.596707)
(1.61777 4.09903 0.798835)
(0.747527 4.2051 -0.000543827)
(0.0470234 4.45368 2.54582)
(0.386494 4.46041 2.45731)
(1.20841 4.47743 2.24567)
(1.68674 4.66264 2.5179)
(1.40245 4.79888 2.85714)
(1.62452 4.71237 3.25899)
(1.81078 4.49538 3.06534)
(3.4028 3.24318 3.27411)
(2.35852 4.24951 2.79272)
(3.60291 3.53408 2.26807)
(3.90588 3.57313 1.89388)
(2.63519 4.38196 0.43287)
(2.2086 4.17982 0.712284)
(-0.422743 4.55659 2.09481)
(0.316186 4.31145 2.31683)
(1.39546 4.34902 1.91493)
(0.914837 4.34321 1.74275)
(1.0626 4.22182 1.81982)
(0.887008 4.33422 1.97458)
(0.771902 3.62598 2.48044)
(1.52297 3.86058 1.83061)
(2.1399 3.27739 1.64974)
(3.7003 2.0277 1.90643)
(3.58722 2.83921 2.92702)
(4.64658 2.16453 2.68286)
(3.29543 3.75462 1.74644)
(2.86795 4.0869 -0.0763127)