/*--------------------------------*- C++ -*----------------------------------*\
  =========                 |
  \\      /  F ield         | OpenFOAM: The Open Source CFD Toolbox
   \\    /   O peration     | Website:  https://openfoam.org
    \\  /    A nd           | Version:  7
     \\/     M anipulation  |
\*---------------------------------------------------------------------------*/
FoamFile
{
    version     2.0;
    format      ascii;
    class       volScalarField;
    location    "8";
    object      nut;
}
// * * * * * * * * * * * * * * * * * * * * * * * * * * * * * * * * * * * * * //

dimensions      [0 2 -1 0 0 0 0];

internalField   nonuniform List<scalar> 
150000
(
0.00084591
0.00145804
0.00119043
0.00121977
0.000841825
0.00182537
0.00143717
0.00236147
0.0016082
0.00129915
0.00131625
0.00012732
0.00115947
0.00126652
0.00202235
0.00175414
0.00421365
0.00212875
0.00149621
0.00251295
0.00053929
0.00267189
0.00156737
0.00125619
0.0014073
0.000223416
0.000241536
9.18677e-05
0.000979946
0.00147314
0.0025373
0.00215359
0.00100579
0.00209223
0.00197095
0.00041372
0.000649074
0.000568244
0.00163994
0.00187373
0.00252809
0.000649518
0.000491807
0.000591926
0.00243233
0.0015118
0.00105256
0.00138534
0.000134516
0.000105273
0.000150406
0.000167031
9.55733e-05
0.000832939
0.0015312
0.00196236
0.00254641
0.00164578
0.00269666
0.00213122
0.000967969
0.00103075
0.00116961
0.00207268
0.00155292
0.000964657
0.0013153
0.000966847
0.000683467
0.00200229
0.000853824
0.00155038
0.00232699
0.000807109
0.000393876
0.000334296
0.000474408
0.000742313
0.00124037
0.00142299
0.000747952
0.00121846
9.22489e-05
0.000320992
0.000111266
0.000261362
0.000211228
0.00011655
0.000144532
0.00061984
0.00146936
0.00240441
0.00219199
0.000809174
0.00258737
0.00298746
0.00127677
0.00163622
0.00166439
0.00237534
0.00238327
0.001004
0.000619254
0.000522363
0.000481369
0.000861543
0.00185089
0.0013082
0.00178881
0.00195855
0.000839024
0.000854041
0.000942946
0.000631794
0.000678679
0.000681753
0.00145208
0.00171871
0.000962028
0.000302339
0.000456912
0.000558548
0.000279958
0.000341527
0.000821906
0.000245589
0.0013326
0.000596789
0.000997367
0.000211348
0.000143398
0.000320945
0.000237382
8.10054e-05
0.000133393
0.000139489
0.000208979
0.000203148
0.000469334
0.00130241
0.00247976
0.00274615
0.00113223
0.00313573
0.00231635
0.00100593
0.00126956
0.000497391
0.00194041
0.00323472
0.000874273
0.00167267
0.000588972
0.000816126
0.00154124
0.00249164
0.00249602
0.00191252
0.000715552
0.0008211
0.000792503
0.000672967
0.000720599
0.00108438
0.00192692
0.00136459
0.0017661
0.00118181
0.000565145
0.000762527
0.000478861
0.000918434
0.00102587
0.00148491
0.00327523
0.0010316
0.00137869
0.00114746
0.00102857
0.000288531
0.000360911
0.000298301
7.68961e-05
0.000514802
0.000511553
0.000316463
0.000677072
0.000671859
0.00111542
0.000591586
0.000571142
0.000311712
0.00022942
0.000152063
0.000196783
9.20911e-05
0.000338408
9.0304e-05
0.000172554
0.000126703
0.000125863
0.000207905
0.00043066
0.00105204
0.00296187
0.00307866
0.00122741
0.00217398
0.00240614
0.000856849
0.000816273
0.00101526
0.00282768
0.00217974
0.000910161
0.000539128
0.00141315
0.00143325
0.000941249
0.00237518
0.00299957
0.00113433
0.00069815
0.00167491
0.000608689
0.00178771
0.0019863
0.00148798
0.00232624
0.00217932
0.00190767
0.000442632
0.000843572
0.00090576
0.0011098
0.000620581
0.000569643
0.000541421
0.000791297
0.00193199
0.00111078
0.0011533
0.001102
0.000922279
0.000910242
0.000615002
0.000617524
0.000595705
0.00047334
0.0014316
0.000987036
0.00104347
0.000961962
0.00127741
0.00147024
0.000826454
0.000715439
0.000490194
0.000459181
0.000127278
0.000492472
0.000171719
0.000684625
0.000569158
0.000743193
0.000653116
0.000560439
0.000873655
0.000552142
0.000220005
0.000606552
0.000204849
0.000189223
0.00028339
8.22303e-05
0.000498793
0.000263489
0.000279917
9.339e-05
0.000122066
0.000202913
0.000124966
0.000216479
0.000426643
0.000740962
0.00256407
0.00297543
0.00103206
0.00205937
0.00209929
0.000825021
0.000533692
0.00122429
0.00275752
0.00247404
0.000792443
0.000935961
0.000743358
0.00090039
0.00138668
0.00255331
0.00227211
0.00131164
0.000628253
0.000528734
0.00105858
0.000819825
0.000259628
0.000708245
0.00280284
0.00261871
0.00200604
0.000924915
0.000732016
0.00142485
0.000817414
0.000797622
0.000564749
0.000327755
0.00121601
0.00220015
0.00162319
0.00194964
0.000461173
0.000893135
0.000940141
0.00111032
0.000647984
0.00111036
0.000515493
0.00108385
0.000954887
0.00071016
0.00199335
0.000919661
0.00112856
0.00150767
0.00115589
0.000996958
0.000772384
0.000661638
0.000472899
0.000691236
0.000486804
0.00111212
0.00178911
0.000815375
0.00222997
0.000695999
0.00134933
0.00138405
0.00120912
0.000423066
0.00038138
0.000278575
0.000168229
0.000474758
0.000417275
0.000659956
0.000264693
0.000683972
0.000278867
0.000476341
0.000658043
0.000469878
0.000720405
0.000516641
0.000300109
0.000821274
0.000184614
0.000185191
0.000232554
0.00010312
0.000518425
0.000251033
0.000278312
0.00024469
0.000249219
0.000134448
9.57401e-05
0.000279137
0.000107835
0.000211479
0.000452639
0.000463822
0.00248222
0.00239015
0.000840287
0.00255353
0.0022967
0.00116765
0.000463303
0.00105768
0.00303623
0.00247106
0.000835833
0.000535083
0.000461619
0.000689055
0.00109785
0.0023525
0.00244444
0.000988383
0.000586434
0.000609885
0.000543136
0.000832829
0.00102404
0.00121475
0.00318885
0.00255704
0.00159966
0.00165725
0.000606843
0.000464525
0.000460726
0.000434812
0.000686225
0.000775029
0.000822165
0.00238652
0.00276214
0.00194077
0.00151615
0.000602029
0.000474462
0.000432936
0.000966361
0.000201862
0.000736015
0.00132769
0.00101116
0.001748
0.00243576
0.00178846
0.00116248
0.000782332
0.00129683
0.00135547
0.00148162
0.000675021
0.000786515
0.000574757
0.000761353
0.000686977
0.00144459
0.00159572
0.000902717
0.00220463
0.00098539
0.00119906
0.000848787
0.00124743
0.000991526
0.000970336
0.000555006
0.000300163
0.000575976
0.000461474
0.000619408
0.000635418
0.00132525
0.00094022
0.00121801
0.00179107
0.000811974
0.00125763
0.00106925
0.00128599
0.000793412
0.000494572
0.000511741
0.000189153
0.000493397
0.00034969
0.000461234
0.000451639
0.000697236
0.000306345
0.000638691
0.000379053
0.000535771
0.000568655
0.000473571
0.000617923
0.000496295
0.000356789
0.000965974
0.000178105
0.000181677
0.000154798
0.000189094
0.000335652
0.000222297
0.000427395
0.000169126
0.000248419
0.000267153
0.000283318
0.000155095
0.00013283
0.000174986
0.0001987
0.000194506
0.000430376
0.000425039
0.00241468
0.00269259
0.000671072
0.00223344
0.0024235
0.000693211
0.000549144
0.000519053
0.00258292
0.00258482
0.000489857
0.000533359
0.000559419
0.000607538
0.00129453
0.00252284
0.00226203
0.00104184
0.000762217
0.000705365
0.000393831
0.000358297
0.000916069
0.00103478
0.00297663
0.00238998
0.0011981
0.000558082
0.000791039
0.000776666
0.000866066
0.000976968
0.00074938
0.000994593
0.000903095
0.00271182
0.00311364
0.00170101
0.000840057
0.000836423
0.000894145
0.00122453
0.000894928
0.0010644
0.000442883
0.000875949
0.000335294
0.00101181
0.00273193
0.00297812
0.00255369
0.00126046
0.000670388
0.000962479
0.00096289
0.000550632
0.000634306
0.000820274
0.000740568
0.000684925
0.0011557
0.00214706
0.00182332
0.00212764
0.00192805
0.00130262
0.000802276
0.00102303
0.00149345
0.0010445
0.000682251
0.00143428
0.00129417
0.000563067
0.00094731
0.000541407
0.00155075
0.000687027
0.000192439
0.00215423
0.0021486
0.000907155
0.000983874
0.000874151
0.00135367
0.00120732
0.000924091
0.000430676
0.000148997
0.000646807
0.000563737
0.000518033
0.000451592
0.00068176
0.000842946
0.000442663
0.000898865
0.00110957
0.0017699
0.00104877
0.00102327
0.000867753
0.000992621
0.000344542
0.00025109
0.000372903
0.000173341
0.000433534
0.000404931
0.00023044
0.000374752
0.000406279
0.000522341
0.000660237
0.00030464
0.000381437
0.000597881
0.000800384
0.000616508
0.000432443
0.000510857
0.000490078
0.000381831
0.00103374
0.000111408
0.000196218
0.000147224
0.000228786
0.000265566
0.000360104
0.000116214
0.000218457
0.000272702
0.000138156
0.000185182
0.000329515
0.000405037
8.65006e-05
0.000142412
0.000171132
0.000136745
0.000215734
0.000384993
0.000440843
0.00236089
0.0020585
0.000580126
0.00233637
0.0023005
0.000825277
0.000363089
0.000871833
0.00252899
0.00248187
0.000759903
0.000538818
0.000345209
0.000595813
0.000685403
0.00271027
0.00239141
0.000394929
0.000761323
0.000379942
0.000505685
0.000468816
0.000611845
0.00101623
0.00253663
0.0023361
0.000544318
0.000570169
0.000708299
0.000670657
0.000789218
0.000462147
0.000537828
0.000895138
0.00106403
0.00261978
0.00249884
0.000816157
0.000434923
0.000697456
0.000773823
0.000840024
0.000597931
0.000313614
0.000603961
0.000826736
0.000864121
0.00126699
0.00290435
0.00299387
0.00154511
0.000668141
0.000628706
0.000854279
0.000441039
0.000861185
0.000429614
0.00084121
0.000508765
0.000504653
0.000776556
0.00048212
0.000613439
0.0026168
0.00294826
0.00227671
0.0012472
0.00102351
0.000819409
0.000610163
0.000446607
0.000796924
0.000257955
0.000572211
0.000459838
0.000488906
0.000953714
0.00204705
0.000939928
0.00122978
0.00223251
0.00163989
0.00170378
0.000545108
0.000739449
0.00136227
0.000959627
0.00113359
0.000871867
0.000928902
0.000630447
0.00118871
0.000337341
0.000636907
0.000621271
0.000260689
0.00195524
0.00161856
0.00101368
0.00268388
0.00108624
0.000419801
0.0010504
0.00140417
0.00121413
0.000640246
0.000344615
0.000387665
0.000195091
0.00052542
0.00044644
0.000345385
0.000653356
0.000577479
0.000597176
0.000690189
0.000734534
0.000656911
0.00100553
0.00094463
0.000876225
0.000542622
0.00074755
0.000794417
0.000246552
0.000247833
0.000395602
0.000180497
0.00023855
0.000465109
0.000242185
0.00032153
0.000328801
0.000348231
0.000455257
0.000504944
0.000772516
0.000374457
0.000538572
0.000672349
0.000605681
0.000635481
0.000612917
0.000462217
0.000459914
0.000454069
0.00101079
0.000371828
0.000239754
0.000116764
0.000178469
0.000336538
0.000210915
0.000214952
0.000164033
0.000195745
0.000216554
0.00023241
0.00014603
0.000311528
0.000410912
0.000379436
0.000165394
0.000100579
0.000239859
0.000116259
0.00022996
0.000364812
0.000426323
0.00231644
0.00245827
0.000671813
0.00246322
0.00221952
0.000260199
0.000633142
0.00050335
0.00250221
0.00246416
0.000571668
0.000591993
0.000468784
0.000816851
0.000909132
0.00230305
0.00248128
0.00089525
0.000962826
0.000461355
0.000499862
0.000521186
0.000834259
0.00075371
0.00241244
0.00231821
0.00071834
0.000729423
0.000327568
0.000419512
0.000452675
0.000503015
0.00046195
0.000592591
0.000514368
0.00264616
0.00243072
0.000957934
0.000344327
0.000289457
0.000635229
0.000263065
0.000937184
0.000469614
0.000720636
0.000611014
0.000399657
0.000683022
0.00238141
0.0024133
0.000923339
0.00102852
0.000391888
0.000500189
0.000507713
0.000760379
0.000538355
0.000389465
0.000728787
0.000260649
0.00084188
0.000647499
0.00106875
0.00276506
0.00300194
0.00111367
0.0010745
0.000387696
0.000559388
0.000776257
0.000714571
0.000982704
0.00056744
0.000790382
0.000673273
0.00030324
0.000527766
0.00113183
0.000806095
0.000841442
0.00296211
0.00327647
0.00154577
0.000787526
0.000494814
0.000521104
0.00122627
0.000398267
0.00077063
0.000477521
0.000752618
0.000368713
0.000409084
0.00037783
0.000692159
0.00148111
0.00153413
0.000779815
0.00146508
0.00226042
0.00307901
0.00122541
0.000457303
0.00119597
0.00170945
0.00171959
0.000752412
0.000915861
0.00113949
0.00109374
0.00073662
0.000667861
0.000628981
0.000638918
0.000456155
0.000517761
0.00140103
0.00106677
0.00106401
0.00121052
0.00312914
0.00162454
0.000348486
0.00134572
0.00106215
0.00107161
0.000621069
0.000324122
0.000218433
0.000667117
0.000210994
0.000505926
0.000592876
0.00038652
0.000475546
0.000677933
0.000752165
0.000543061
0.000634103
0.000734857
0.000600791
0.000437729
0.00094098
0.000827505
0.000602579
0.000709439
0.000447026
0.00021652
0.000523426
0.000463654
0.000129569
0.000185904
0.000372483
0.000251858
0.000571965
0.000305136
0.00034137
0.000281988
0.000345479
0.000398564
0.000536534
0.000787098
0.000458824
0.000231369
0.000910942
0.000392372
0.000379314
0.000436211
0.000368423
0.000436641
0.00050997
0.000932624
0.000304734
0.000191746
0.000140263
0.000184609
0.000332411
0.000218073
0.000157477
0.000142482
0.00031514
0.000198603
0.00010461
0.000371939
0.000223855
0.000164311
0.000377784
0.000364062
0.000351802
0.00022107
0.00014681
0.000187444
0.000143688
0.000225398
0.000306493
0.000386318
0.00216271
0.00229508
0.000443056
0.00261124
0.00235003
0.000456927
0.000385963
0.000763805
0.00243815
0.00227189
0.000469494
0.00079386
0.000589277
0.000533669
0.000548376
0.00245162
0.00244083
0.000650058
0.000949836
0.000677352
0.000613804
0.000569622
0.000727374
0.00068972
0.00237177
0.00249719
0.000812353
0.000423771
0.000628257
0.000428725
0.000603976
0.000419103
0.000538946
0.000712285
0.000838259
0.00266027
0.00235301
0.000738177
0.000425664
0.00052945
0.000269413
0.0004113
0.000551035
0.000424433
0.000508837
0.00060969
0.000755785
0.00107865
0.0025629
0.00224178
0.001035
0.000578361
0.000367786
0.000515249
0.000656727
0.000613799
0.000539081
0.000518567
0.00042899
0.000276025
0.000605402
0.000667559
0.000850154
0.00289068
0.0025389
0.000783033
0.00115659
0.000867557
0.000578672
0.00122919
0.000584529
0.000741392
0.00107497
0.000353904
0.000612443
0.000540469
0.000909296
0.000540192
0.000634975
0.000781502
0.00280585
0.00319647
0.00111332
0.000987771
0.0010182
0.000897764
0.00225757
0.00077794
0.000991519
0.00108041
0.000622836
0.00102996
0.000585341
0.00116846
0.000645108
0.000961679
0.00046927
0.000621049
0.000847417
0.00280734
0.00341702
0.00159129
0.000715538
0.000637684
0.000665486
0.000674642
0.000673159
0.000522688
0.00165468
0.000826936
0.00139081
0.000337369
0.000545247
0.000459262
0.000567198
0.000985009
0.000911032
0.000796115
0.000923021
0.000827599
0.0025367
0.00335225
0.00147813
0.000703177
0.00145006
0.00210302
0.000490119
0.00122119
0.00148076
0.000689906
0.000581584
0.000406756
0.000730998
0.00115627
0.00103397
0.000617433
0.000727805
0.000766564
0.000757811
0.00139756
0.0012454
0.000600128
0.000789706
0.00222663
0.00193888
0.000255004
0.000944186
0.000981746
0.000965483
0.000584443
0.000290964
0.000241844
0.000460667
0.00025789
0.00103373
0.000686034
0.000477311
0.000563085
0.000465716
0.00076413
0.000499719
0.000797642
0.000559808
0.00176169
0.00119892
0.00087
0.00100877
0.00114554
0.00106011
0.000574206
0.000649571
0.000397089
0.000286856
0.000315161
0.000438094
0.000151031
0.000351625
0.000353156
0.000567739
0.000485879
0.000335478
0.000355926
0.000400487
0.000386412
0.000230749
0.000255785
0.000453839
0.000464443
0.000781028
0.000330925
0.000231371
0.000878359
0.000371074
0.000334213
0.000624201
0.000317312
0.000414511
0.000513429
0.000678657
0.000236919
0.000175044
0.000132379
0.000301551
0.000412393
0.000253491
0.000120155
0.000144069
0.000221931
0.000255236
0.000109386
6.08504e-05
0.000186486
0.0002299
0.00023002
0.000193421
0.000515528
0.000258636
0.000532324
0.000173672
0.000145704
0.000176855
0.000116374
0.000205663
0.000269451
0.000356822
0.00202779
0.00227421
0.000687153
0.00217692
0.00235897
0.000579852
0.000458609
0.000453997
0.00257147
0.00245556
0.000488747
0.000382835
0.000396088
0.000350576
0.000292
0.00248016
0.0024032
0.000478873
0.000220447
0.000534131
0.000561172
0.000438161
0.000552903
0.000527457
0.00249895
0.00251039
0.000594847
0.000466897
0.000562996
0.000479617
0.000479493
0.00058488
0.000526468
0.000745218
0.000838982
0.00235143
0.00254985
0.000521816
0.000733879
0.000359467
0.000449777
0.000371225
0.000477483
0.000700745
0.000601106
0.000730932
0.000535215
0.00082893
0.00248554
0.00245548
0.000856769
0.000719386
0.000398621
0.000567406
0.000788082
0.000532721
0.00048633
0.000514502
0.00036982
0.000258235
0.000560894
0.000799333
0.000803092
0.00262811
0.00228336
0.000620348
0.000675403
0.000424098
0.000441598
0.00111296
0.000587704
0.000486469
0.000399624
0.000361391
0.000451601
0.00051393
0.000501142
0.00071694
0.000774832
0.000840723
0.00240123
0.00249348
0.000817912
0.000906358
0.000629954
0.000722833
0.000410318
0.000587592
0.000435318
0.000830005
0.00086221
0.000233183
0.000875258
0.00087254
0.000877003
0.000888153
0.000664624
0.000749734
0.00100621
0.00304835
0.00303953
0.00174517
0.00111546
0.000426269
0.00108348
0.000862003
0.00134263
0.000489958
0.00079727
0.000581153
0.000559135
0.000599048
0.000724915
0.000664301
0.000534387
0.000426321
0.00157413
0.00137085
0.000624567
0.000782382
0.00259119
0.00351949
0.0017734
0.000837761
0.00051998
0.000726455
0.000186399
0.000534733
0.000516007
0.00092483
0.00101316
0.00140381
0.000822817
0.000332099
0.000368631
0.00064922
0.000517189
0.000752718
0.00117116
0.00247182
0.00114715
0.000538876
0.00115473
0.00290964
0.00278143
0.00243028
0.00108278
0.00122465
0.000861948
0.000948714
0.00136139
0.000667106
0.000407148
0.000538769
0.000429311
0.000513683
0.00112048
0.000735437
0.000857864
0.000668319
0.000645646
0.00058368
0.000523871
0.0009726
0.00162276
0.000698093
0.000656035
0.000801634
0.00199656
0.00174158
0.000336557
0.000902137
0.00144039
0.000587975
0.00127377
0.000318757
0.000367155
0.000258604
0.000454031
0.00138474
0.000703057
0.000694901
0.000525803
0.000635702
0.0004569
0.000577799
0.000823187
0.000394031
0.000432473
0.000615387
0.00140564
0.00101702
0.000756961
0.000549443
0.00117747
0.000731457
0.000494083
0.00057191
0.000739542
0.000494352
0.000315222
0.000536645
0.00014617
0.000451554
0.000397536
0.000581189
0.000404196
0.000363659
0.000430441
0.000545891
0.000429591
0.000349915
0.000546752
0.000254495
0.000447271
0.000509152
0.000386105
0.000791087
0.000262032
0.000402832
0.000478086
0.000328487
0.000299427
0.000604651
0.000371719
0.000410769
0.000526616
0.000435742
0.000326683
0.000195943
0.000138843
0.000253539
0.000371171
0.000250112
0.000282256
0.000150938
0.000160695
0.000257758
5.4944e-05
7.73191e-05
0.0001811
0.000369584
0.00033375
0.000221635
0.000211175
0.000161874
0.000538008
0.000351904
0.000201695
0.000162264
0.000206643
0.000198477
0.000136114
0.000172516
0.000231052
0.000337327
0.00194878
0.00199767
0.000492291
0.00214469
0.00223833
0.000561301
0.000423882
0.000328307
0.0021736
0.00241896
0.00049756
0.000422294
0.000401172
0.000614803
0.000510218
0.00233164
0.00246286
0.000444145
0.000458335
0.000251393
0.000518549
0.000465434
0.000381068
0.000640972
0.00241373
0.0022659
0.00059684
0.000480056
0.000412174
0.0005114
0.000541162
0.000508396
0.000475689
0.000551825
0.000744864
0.00226588
0.00256233
0.000536083
0.000771398
0.000504247
0.000484792
0.00056164
0.000552927
0.000537059
0.000471782
0.000594225
0.000689998
0.000641489
0.00242167
0.00241297
0.000736587
0.00108036
0.000369887
0.00049996
0.000477095
0.000470223
0.000463174
0.000595678
0.000426878
0.000495196
0.00062235
0.00062642
0.00113797
0.00248127
0.00235356
0.00116263
0.000630664
0.000319932
0.000557153
0.000458911
0.000527241
0.000548683
0.000654214
0.000447871
0.000360532
0.000603798
0.000539438
0.000724872
0.000837375
0.000554065
0.00257467
0.00227192
0.000624245
0.000659895
0.000463433
0.000524525
0.000666343
0.00056415
0.000498807
0.00025056
0.000334446
0.000592858
0.000684645
0.000725689
0.000561457
0.000834357
0.000487719
0.000825994
0.001115
0.00254751
0.00253
0.00126708
0.000771881
0.000545583
0.000693643
0.000774067
0.000728966
0.000420013
0.000454673
0.000772075
0.00080729
0.000482338
0.000675343
0.000673891
0.000829743
0.000932461
0.000692558
0.000583269
0.000470163
0.00139368
0.00284143
0.00306739
0.00107973
0.00109289
0.000855722
0.00108614
0.000816118
0.00104034
0.000530775
0.000580975
0.000891862
0.000543903
0.00100716
0.000621321
0.0010861
0.000822427
0.00101121
0.000373493
0.00104372
0.000551823
0.00057522
0.000608943
0.00159879
0.00261966
0.00353654
0.00102351
0.00117622
0.000691767
0.000684134
0.00110525
0.000973668
0.000886017
0.000592261
0.000871663
0.000586498
0.000565991
0.000608368
0.000598278
0.000260142
0.00029326
0.000696593
0.00070769
0.00104612
0.00151117
0.000572098
0.00147944
0.000982991
0.00136029
0.00294333
0.0031484
0.00140324
0.00115198
0.000742097
0.00123801
0.00144015
0.000906378
0.00113209
0.000590818
0.00049905
0.000560837
0.000903813
0.00101539
0.000582825
0.000563056
0.000403548
0.00057121
0.000552029
0.000826269
0.000761391
0.000568278
0.00126623
0.000499628
0.000652228
0.00073458
0.00126943
0.00215432
0.00274067
0.000380499
0.000867392
0.00107337
0.000530163
0.000731394
0.000309879
0.000465234
0.000323078
0.000766301
0.00114891
0.000866378
0.000638138
0.000555191
0.000559758
0.000663338
0.000763864
0.000451667
0.000551676
0.00136217
0.000582116
0.000419613
0.0007136
0.000679927
0.00104014
0.00052622
0.000719109
0.000776212
0.000781932
0.000462707
0.000491131
0.000990182
0.000666792
0.000333053
0.000542674
0.000106727
0.000497199
0.000465014
0.000618298
0.000324432
0.00033657
0.000479374
0.000859026
0.000487011
0.000405652
0.000364125
0.000581001
0.000505183
0.000344252
0.000310947
0.000620478
0.000562618
0.000482833
0.000317459
0.000478798
0.000454692
0.000240883
0.000318445
0.0005547
0.000348236
0.000410631
0.000540351
0.000343093
0.000249769
0.000169221
0.000134478
0.000161123
0.000520967
0.000272807
0.000439522
0.000102779
0.000143889
0.000107792
9.76299e-05
0.00035235
0.000218057
0.000609629
0.000145087
0.000487828
0.000293925
0.000393679
0.000290083
0.00019078
0.000255695
0.000199198
0.000132068
0.000205761
0.000307287
0.000215465
0.000137563
0.000142708
0.000223034
0.000323709
0.00197491
0.00199229
0.000385336
0.00205948
0.00201005
0.000529385
0.000443529
0.000463292
0.00216434
0.00220336
0.000437866
0.000410656
0.000567726
0.000317236
0.000392427
0.00229981
0.00239116
0.000562461
0.000395934
0.000440131
0.000330128
0.000476297
0.000479606
0.000405313
0.00239352
0.00245909
0.000559975
0.000462377
0.000308462
0.000510015
0.00017536
0.000559225
0.000390009
0.000622194
0.000560669
0.00241539
0.00228725
0.00055175
0.00058798
0.000467632
0.000503477
0.000305182
0.000439333
0.00054269
0.000486543
0.0003924
0.000563578
0.000746401
0.00229166
0.00258836
0.000621282
0.000506158
0.000633797
0.000421477
0.000528299
0.000542575
0.000440159
0.00050615
0.000670563
0.000609566
0.000892878
0.000702119
0.0005303
0.00238433
0.00238602
0.00084239
0.00032419
0.000775238
0.000306277
0.000366189
0.000443758
0.000551824
0.000455594
0.000460185
0.000498323
0.000315649
0.000414366
0.000534564
0.000814949
0.000847286
0.00247959
0.00241442
0.000681725
0.000667682
0.000300579
0.000452191
0.000501409
0.000468158
0.000555492
0.000603799
0.000613762
0.00042736
0.000474255
0.000693473
0.000470961
0.000702419
0.000644804
0.000659144
0.00105105
0.00250994
0.00241652
0.00119778
0.000468985
0.000714676
0.000643576
0.000567834
0.000784921
0.000636716
0.000579184
0.000568134
0.000564068
0.000429921
0.000654833
0.000642285
0.00052638
0.000765469
0.000774713
0.000580085
0.000789552
0.00119023
0.0024459
0.00279979
0.00111925
0.00090531
0.001728
0.000885832
0.000686824
0.000716755
0.00120807
0.000819659
0.000501607
0.000629389
0.000739522
0.000803981
0.000691351
0.000760105
0.00065511
0.00086436
0.00109066
0.00113519
0.000759514
0.000741296
0.00120179
0.00295341
0.00275138
0.00075711
0.000957328
0.00126978
0.00135318
0.00119637
0.000264917
0.00113225
0.0010394
0.00107892
0.000793957
0.000641346
0.000379088
0.000400622
0.000665436
0.000821686
0.000695333
0.000969687
0.00066007
0.00112505
0.00172766
0.000533576
0.000475252
0.00201756
0.00259475
0.0037553
0.00172853
0.00106346
0.000716629
0.000475774
0.0010305
0.00113962
0.000990877
0.000837154
0.000241033
0.000625783
0.000622593
0.000507803
0.00124923
0.000609368
0.000427546
0.000284322
0.000386122
0.000662742
0.00078897
0.000737798
0.000655542
0.0015004
0.000721669
0.00179258
0.00172171
0.00235339
0.00305614
0.00247756
0.00140221
0.000313723
0.000995183
0.000995749
0.00117367
0.000863707
0.000544347
0.000327887
0.000731696
0.000759422
0.00120735
0.000945382
0.0011666
0.00110048
0.00123602
0.000321868
0.000937547
0.000636696
0.000729786
0.00105927
0.000814096
0.00129673
0.000922074
0.000822577
0.000844367
0.00106183
0.00233735
0.00212532
0.00138549
0.00118001
0.000644
0.000440303
0.000913599
0.000294364
0.000364858
0.000372816
0.000979973
0.00102345
0.000854436
0.00066522
0.000360237
0.000539835
0.00111647
0.000523504
0.000967638
0.000734592
0.00075816
0.000653092
0.00110975
0.000526263
0.000600569
0.00122262
0.00128755
0.00105346
0.000608627
0.000781323
0.000707809
0.00130719
0.000419244
0.000628613
0.00108809
0.000809807
0.000179117
0.000504038
0.000134504
0.000561395
0.000485756
0.000687935
0.000262527
0.000463057
0.000427653
0.000529539
0.000719225
0.000201696
0.000321224
0.000488975
0.000398707
0.000978657
0.000356571
0.00025159
0.000306457
0.000652944
0.000610889
0.000372187
0.000491075
0.000648409
0.000524947
0.000256704
0.000389371
0.000571214
0.000281773
0.000417354
0.000531455
0.000272187
0.000213205
0.000184283
8.47794e-05
0.00046298
0.000267975
0.000264711
0.000323605
0.00012118
0.00017701
0.000249375
0.0003161
0.000247764
0.000263448
0.000522748
0.000330871
0.000631001
0.000130757
0.000155201
0.000268096
0.000337755
0.000341944
0.0001413
0.000194218
0.000581703
0.000146043
0.000262586
0.000380102
0.000234684
0.000134682
0.000156114
0.000251144
0.000305988
0.00202924
0.00200373
0.000428563
0.00210343
0.00201058
0.000348079
0.000161952
0.000341912
0.00209703
0.00202518
0.000457976
0.000371111
0.000484229
0.0004585
0.000366748
0.00221815
0.00223529
0.00048557
0.00048182
0.000494175
0.000572482
0.000436226
0.000420517
0.000472461
0.00224604
0.00237704
0.000634922
0.000382076
0.000428213
0.000637228
0.000377633
0.000610488
0.000438804
0.00049739
0.000407016
0.00228089
0.00243425
0.000505911
0.000420401
0.000315056
0.000594555
0.000652696
0.000690936
0.00058511
0.000369063
0.000668284
0.000627538
0.000672294
0.00223564
0.00230436
0.000397994
0.000530297
0.000459152
0.000535494
0.000718976
0.000573937
0.000368561
0.000477511
0.000467239
0.000420976
0.000355157
0.000631879
0.000657331
0.00228769
0.00256368
0.000595196
0.000477583
0.000534393
0.000528076
0.000338148
0.000448037
0.000601192
0.000427497
0.000455467
0.000429802
0.000612332
0.00068237
0.000619051
0.000671397
0.00087489
0.0023386
0.0024927
0.000924766
0.000624305
0.000517425
0.00049244
0.000575933
0.000478943
0.000542658
0.000457917
0.000448517
0.000638381
0.000519374
0.000412087
0.00041351
0.000391142
0.00079827
0.000801457
0.0011917
0.00239757
0.00238914
0.000566251
0.000815586
0.000485505
0.000319989
0.000489653
0.000452192
0.000331767
0.000465317
0.00048942
0.000696863
0.000368452
0.000438847
0.000756898
0.000870746
0.000686151
0.000556432
0.000644255
0.000580683
0.000548646
0.0023886
0.00233952
0.000889128
0.000774087
0.000779012
0.00107042
0.000624361
0.000536607
0.00074706
0.000866487
0.000695579
0.000416557
0.000439735
0.000540708
0.000517582
0.000590481
0.000320439
0.000661883
0.000610201
0.000454658
0.000729461
0.000277943
0.000744496
0.00247669
0.00285772
0.00119747
0.00148673
0.000939468
0.00124491
0.000527003
0.000540438
0.000618657
0.000959515
0.000680941
0.000569673
0.000521199
0.000585849
0.000860212
0.000721183
0.00114344
0.000728541
0.00107781
0.000724683
0.000909491
0.000874567
0.000747916
0.000717513
0.00100141
0.00264836
0.00236917
0.00185716
0.000970633
0.000666318
0.000765831
0.000848944
0.00117022
0.00066505
0.000513194
0.000892071
0.00101899
0.000651758
0.000716852
0.00107881
0.000619684
0.000422306
0.000670593
0.000690614
0.000464112
0.00053344
0.000948096
0.00127405
0.000742912
0.000928661
0.00153355
0.00115775
0.002153
0.0034044
0.00372674
0.000717702
0.000654671
0.000581628
0.00132368
0.00118767
0.000673394
0.000298991
0.00032974
0.000329026
0.000765642
0.000684532
0.000974223
0.000945046
0.000613543
0.000766963
0.000963724
0.000583288
0.000679698
0.000600094
0.00149302
0.000643798
0.000196596
0.00100051
0.000593463
0.000951921
0.000951979
0.00250348
0.00292629
0.00142347
0.00198465
0.00127189
0.000823708
0.000891405
0.00103641
0.000617855
0.000430007
0.000593164
0.000817099
0.000717681
0.00111299
0.000759321
0.00106862
0.000741635
0.000597099
0.000899407
0.000961224
0.0012654
0.00122452
0.000820401
0.000878515
0.00103229
0.000664381
0.000789446
0.00069273
0.000669911
0.000912901
0.000875808
0.00218636
0.00148584
0.000935573
0.000915305
0.000427654
0.000363841
0.00043496
0.000346093
0.000473666
0.000487194
0.000966148
0.00118729
0.000641276
0.000537322
0.000374747
0.000710579
0.00101822
0.000969855
0.000663701
0.00113823
0.000745014
0.000649791
0.000524808
0.000872435
0.000582317
0.000940401
0.00107901
0.00168302
0.0012499
0.000965624
0.000539805
0.000506069
0.000551481
0.000966434
0.000400813
0.00055257
0.00105702
0.00066172
0.00016363
0.000428035
0.00024348
0.000592569
0.000545588
0.000357354
0.000511457
0.000823753
0.000374022
0.000292236
0.000463749
0.000295314
0.000280516
0.000347938
0.000288979
0.000597174
0.000452392
0.000559012
0.000447257
0.000178941
0.00031629
0.000599018
0.000669083
0.000622283
0.000640422
0.000481224
0.000589849
0.00033836
0.000348597
0.000560483
0.00032067
0.000428557
0.000529378
0.000272301
0.000374455
0.000170259
0.000105548
0.0001973
0.000171021
0.000195995
0.00040917
0.000242353
9.13206e-05
0.000279429
0.000289071
0.000214961
0.000307329
0.000461279
0.000506832
0.000360173
0.000207595
0.000568911
0.000156968
0.000244516
0.000202548
0.000267376
0.000296739
0.000101866
0.000528921
0.000465691
0.000187811
0.000330862
0.000334263
0.000215848
0.000103296
0.000169715
0.000187334
0.000289813
0.0021547
0.00202301
0.000304937
0.00212826
0.00202462
0.000347303
0.000337801
0.000367589
0.00208774
0.00196799
0.000309926
0.000176975
0.000539945
0.000341165
0.000340704
0.00211212
0.00206631
0.00053627
0.000332858
0.000200525
0.00030416
0.00031458
0.000370047
0.000624256
0.00224685
0.0023127
0.000770206
0.000374912
0.00034031
0.000589109
0.000334536
0.000306151
0.000371247
0.000560922
0.000400359
0.00225204
0.00240947
0.000626203
0.000258628
0.000442711
0.000456622
0.000607182
0.000437511
0.00044105
0.000447689
0.00043849
0.000497965
0.000603296
0.00226638
0.00239492