/*--------------------------------*- C++ -*----------------------------------*\
  =========                 |
  \\      /  F ield         | OpenFOAM: The Open Source CFD Toolbox
   \\    /   O peration     | Website:  https://openfoam.org
    \\  /    A nd           | Version:  7
     \\/     M anipulation  |
\*---------------------------------------------------------------------------*/
FoamFile
{
    version     2.0;
    format      ascii;
    class       volScalarField;
    location    "8";
    object      p;
}
// * * * * * * * * * * * * * * * * * * * * * * * * * * * * * * * * * * * * * //

dimensions      [0 2 -2 0 0 0 0];

internalField   nonuniform List<scalar> 
150000
(
-68.0915
-65.381
-68.2926
-68.8795
-67.9677
-60.8207
-65.6
-66.1709
-65.2994
-68.6296
-69.026
-70.0367
-68.8247
-67.8845
-59.044
-60.8196
-60.182
-61.0066
-65.9043
-66.5084
-68.5822
-66.0209
-65.3701
-69.0575
-69.2722
-70.0157
-70.8156
-70.0558
-68.841
-67.9115
-56.0825
-59.0975
-61.3021
-59.0378
-61.3276
-63.1476
-66.8578
-60.801
-61.2465
-66.3503
-67.0234
-68.6917
-69.3633
-68.4952
-66.1183
-65.6262
-69.4877
-69.5841
-70.0038
-70.8273
-70.7946
-70.8111
-70.0756
-68.887
-68.0617
-55.4637
-56.2223
-58.8888
-56.1757
-59.4515
-61.042
-63.2904
-61.7844
-59.222
-62.1354
-65.002
-67.2633
-68.1486
-66.7586
-52.1381
-62.1212
-67.0844
-67.6637
-68.8323
-69.426
-69.6891
-69.315
-68.4516
-66.4538
-66.0481
-69.8575
-69.8602
-69.9995
-70.8433
-70.7736
-71.0134
-70.8083
-70.8072
-70.0912
-68.9602
-68.2935
-53.4332
-55.7896
-56.3393
-55.6583
-56.2717
-58.7465
-59.8709
-59.5492
-56.3627
-59.9937
-60.9316
-63.6815
-66.3268
-63.457
-62.6694
-59.3635
-62.9837
-65.2359
-67.6838
-68.2419
-68.6256
-67.9655
-66.8603
-58.8792
-63.3039
-67.9498
-68.3823
-68.9884
-69.4813
-69.6761
-70.1646
-69.7046
-69.2751
-68.4627
-66.8649
-66.5523
-70.1552
-70.1431
-70.0117
-70.8612
-70.7491
-71.0156
-71.1825
-71.0355
-70.8268
-70.8124
-70.1015
-69.0342
-68.563
-51.3457
-53.1764
-53.2258
-52.9061
-55.5867
-56.1714
-56.9565
-56.3853
-56.2284
-56.3051
-59.0405
-58.0419
-61.0263
-59.6981
-59.7152
-56.4438
-60.7588
-61.1139
-64.3044
-66.2418
-67.0236
-65.9337
-63.3588
-63.2693
-59.7315
-63.7932
-65.9249
-67.9613
-68.1863
-68.4693
-68.903
-68.8585
-67.7233
-66.926
-58.7815
-64.4333
-68.8831
-69.1108
-69.1465
-69.5356
-69.6613
-70.1655
-70.5068
-70.1634
-69.7347
-69.2335
-68.477
-67.2171
-67.1187
-70.3916
-70.3452
-70.057
-70.8765
-70.7358
-71.0192
-71.1275
-70.8348
-71.2335
-71.0705
-70.8415
-70.8213
-70.1168
-69.0882
-68.8242
-49.8779
-51.085
-51.7587
-51.8798
-53.1455
-53.1775
-53.6927
-53.2093
-52.7723
-55.5072
-56.3408
-56.8294
-56.9412
-56.628
-56.1729
-56.1161
-56.4999
-59.3426
-58.1899
-61.3443
-62.0958
-60.194
-59.1597
-60.2733
-56.413
-61.2107
-61.607
-64.7704
-66.1812
-66.5324
-66.724
-66.9902
-65.5997
-63.3037
-63.6072
-60.0346
-64.7583
-67.3534
-68.4249
-68.2614
-68.4006
-68.8035
-70.6115
-68.9992
-68.9942
-67.4895
-67.2459
-62.5616
-65.5062
-69.9535
-69.7819
-69.3328
-69.5645
-69.6547
-70.1923
-70.4617
-70.8918
-70.5569
-70.1367
-69.7608
-69.2463
-68.5214
-67.5405
-67.707
-70.5862
-70.4593
-70.1194
-70.8902
-70.7249
-71.0071
-71.0722
-70.787
-70.4813
-70.8819
-71.2906
-71.1101
-70.8587
-70.8237
-70.1372
-69.1539
-69.0349
-49.1345
-50.0841
-50.3235
-50.6749
-51.683
-51.7205
-52.0414
-51.864
-51.5065
-53.0958
-53.3655
-53.8215
-54.0137
-53.3264
-53.0906
-52.8113
-55.3179
-56.4049
-56.8761
-57.3955
-57.5605
-57.0432
-56.7068
-56.3624
-56.1167
-57.1422
-58.9995
-58.9514
-61.0731
-62.0205
-62.4745
-61.7028
-60.2962
-58.9873
-60.0219
-56.4052
-61.4567
-62.7776
-65.497
-66.2709
-66.4078
-66.7144
-67.9046
-66.7711
-66.5475
-65.2919
-63.092
-63.5719
-60.0877
-66.1023
-68.9595
-68.981
-68.197
-68.3096
-68.7512
-70.6179
-70.9012
-70.5792
-69.148
-69.0156
-67.4563
-67.7069
-63.4657
-66.5978
-70.7938
-70.3423
-69.5521
-69.6327
-69.6583
-70.1994
-70.4146
-70.7896
-70.5726
-70.9779
-70.6195
-70.1523
-69.7816
-69.3152
-68.6686
-68.0267
-68.2445
-70.7422
-70.4985
-70.2102
-70.8963
-70.714
-70.9743
-71.0124
-70.7464
-70.4838
-69.9588
-70.4872
-70.936
-71.353
-71.1557
-70.8807
-70.8513
-70.1597
-69.2301
-69.1754
-48.3316
-49.1343
-49.3321
-49.3162
-50.5493
-50.3148
-50.6947
-50.1944
-50.2368
-51.5925
-51.8106
-52.1749
-52.506
-51.916
-51.8704
-51.645
-53.0127
-53.3155
-53.9558
-54.1617
-54.2767
-53.8163
-53.4752
-53.0716
-52.5223
-54.8514
-56.0268
-56.8542
-57.5162
-57.9777
-58.1916
-57.7032
-56.9365
-56.4868
-56.1978
-56.192
-57.6552
-59.3273
-59.618
-61.0679
-61.4378
-62.317
-62.996
-62.4426
-61.6594
-60.0393
-58.353
-60.0436
-56.5447
-61.8801
-64.418
-66.2804
-66.488
-66.446
-66.9258
-67.9279
-66.5191
-67.6041
-66.6477
-66.4195
-65.3511
-62.8284
-63.0289
-60.6428
-67.3366
-70.2603
-69.5695
-68.1738
-68.2904
-68.8153
-70.5098
-70.6467
-69.8864
-71.1737
-70.5833
-69.1692
-68.9639
-67.6073
-67.6801
-63.8205
-67.7485
-71.3559
-70.9786
-69.7736
-69.7023
-69.6585
-70.215
-70.3653
-70.69
-70.3995
-69.6758
-70.6974
-71.0619
-70.6763
-70.255
-69.7722
-69.4062
-68.9343
-68.6579
-68.7067
-70.8617
-70.5181
-70.3403
-70.9047
-70.7084
-70.9423
-70.9489
-70.732
-70.4972
-69.9271
-69.1207
-69.9985
-70.4997
-70.995
-71.4101
-71.1954
-70.9003
-70.8906
-70.1792
-69.3236
-69.2609
-47.659
-48.3695
-48.4097
-48.5994
-49.4004
-49.5472
-49.5146
-49.28
-49.0777
-50.5237
-50.536
-50.7745
-50.812
-50.5945
-50.1655
-50.3779
-51.6697
-51.8548
-52.3073
-52.4461
-52.6992
-52.4839
-51.8638
-51.6339
-51.4724
-53.024
-53.1719
-53.8083
-54.1496
-54.3152
-54.5049
-54.1995
-53.7789
-53.5273
-53.3039
-52.3194
-54.1195
-56.2486
-56.863
-57.5916
-58.0388
-58.1818
-58.3163
-58.0261
-57.8251
-57.2585
-56.7423
-56.1356
-56.35
-58.1597
-60.0462
-60.4713
-61.3049
-61.3825
-62.6642
-63.2075
-62.9465
-62.6302
-62.5226
-62.1588
-59.8754
-58.3721
-59.7807
-56.8535
-62.9905
-66.0236
-66.8247
-66.5909
-66.5166
-67.3936
-68.1331
-66.251
-65.5314
-66.3805
-67.3316
-66.6696
-66.5163
-64.5616
-62.8969
-62.864
-61.373
-68.4117
-71.446
-70.2159
-68.2772
-68.3969
-68.9538
-70.3471
-70.3093
-69.4254
-68.8326
-70.4033
-71.1889
-70.5943
-69.3333
-68.9771
-67.6498
-67.6768
-64.9356
-68.908
-71.8106
-71.519
-70.0068
-69.7386
-69.6441
-70.2382
-70.3125
-70.5575
-70.2208
-69.496
-68.7244
-69.8322
-70.8044
-71.0948
-70.7179
-70.2918
-69.7606
-69.5188
-69.1471
-69.0404
-69.1059
-70.9532
-70.5421
-70.5022
-70.9297
-70.7057
-70.9148
-70.9085
-70.7311
-70.4984
-69.9044
-69.087
-68.5947
-69.1801
-70.0475
-70.5452
-71.0703
-71.4714
-71.2303
-70.9112
-70.9117
-70.1938
-69.4384
-69.3241
-47.3276
-47.9656
-47.9531
-47.8483
-48.7469
-48.5379
-48.6043
-48.3709
-48.453
-49.471
-49.7136
-49.7365
-49.5853
-49.4709
-49.2596
-49.0304
-50.4
-50.6657
-50.7176
-50.8596
-50.9523
-50.7899
-50.5983
-50.1683
-50.3058
-51.7813
-52.0258
-52.2891
-52.4239
-52.6739
-52.8543
-52.6332
-52.3916
-51.816
-51.6981
-51.5863
-53.1074
-53.6273
-53.9954
-54.1995
-54.3714
-54.3619
-54.7822
-54.5231
-54.3832
-53.7832
-53.6518
-52.9296
-52.3054
-53.9417
-56.0109
-56.6844
-57.8854
-58.0639
-58.2825
-58.2034
-58.2843
-58.3892
-58.272
-58.0038
-57.4166
-56.7901
-56.3531
-56.3139
-59.1274
-60.081
-61.2134
-61.6093
-61.9684
-63.2172
-63.3014
-62.9433
-62.8277
-62.7467
-62.4664
-62.7397
-61.9702
-59.4569
-58.8312
-59.8642
-57.1052
-64.4243
-67.4657
-67.4658
-66.8694
-66.98
-68.0336
-68.2001
-66.1177
-65.9147
-65.5942
-65.7222
-66.3856
-67.0371
-66.7425
-66.286
-63.6474
-62.6002
-62.9729
-61.6011
-69.4395
-72.516
-70.574
-68.4717
-68.6059
-69.0313
-70.158
-70.0385
-69.0197
-68.3997
-67.292
-69.3318
-70.6452
-71.1753
-70.6372
-69.4836
-68.8515
-67.7706
-67.9896
-66.7075
-70.2293
-72.1468
-71.9261
-70.1487
-69.8227
-69.6593
-70.2568
-70.2372
-70.4011
-69.9969
-69.2949
-68.558
-67.7556
-68.8961
-69.9747
-70.8976
-71.125
-70.7874
-70.2894
-69.7342
-69.6169
-69.3192
-69.1932
-69.4346
-71.0281
-70.5684
-70.6641
-70.9018
-70.7036
-70.887
-70.8855
-70.728
-70.5107
-69.887
-69.088
-68.568
-68.1316
-68.6251
-69.2193
-70.0886
-70.5818
-71.1466
-71.5329
-71.2662
-70.9144
-70.8992
-70.2077
-69.5094
-69.3588
-46.9885
-47.3303
-47.4073
-47.3879
-47.9963
-47.9242
-48.0837
-47.9461
-47.7925
-48.7419
-48.5643
-48.7213
-48.6254
-48.4834
-48.3798
-48.3588
-49.4512
-49.582
-49.4992
-49.742
-49.7433
-49.5269
-49.256
-49.1484
-49.1046
-50.4253
-50.4517
-50.9177
-50.9829
-51.087
-50.9785
-50.8938
-50.8181
-50.4564
-50.264
-50.2676
-51.7852
-51.9377
-52.4237
-52.6785
-52.7809
-52.8851
-52.9613
-52.8956
-52.5472
-52.159
-51.8016
-51.7697
-51.4607
-53.1196
-53.6268
-54.1777
-54.4307
-54.5495
-54.2888
-54.7748
-55.0398
-54.8048
-54.5718
-54.4946
-53.8657
-53.7704
-53.1738
-52.2066
-53.8553
-55.7831
-56.4482
-58.0415
-58.1682
-58.1853
-58.2294
-58.3326
-58.1681
-58.2592
-58.3683
-58.4393
-57.7808
-57.6087
-56.4528
-56.3377
-56.1823
-60.1652
-61.3209
-61.6693
-62.2054
-62.7073
-63.545
-63.4908
-63.0955
-63.0098
-62.9824
-62.353
-62.9158
-62.7585
-62.6517
-61.3555
-60.5741
-59.2071
-59.7528
-57.3999
-65.6474
-68.6294
-68.1174
-67.3329
-67.6362
-68.4339
-68.1107
-66.53
-65.598
-65.3493
-64.8414
-65.6377
-66.2222
-66.2069
-66.8243
-66.5542
-65.3889
-63.7976
-62.7558
-63.3225
-61.7174
-70.2604
-73.6998
-70.8784
-68.6943
-68.8583
-68.9214
-69.9243
-69.7516
-68.6958
-67.9521
-66.8647
-66.0156
-67.7901
-69.8563
-70.9564
-71.1807
-70.679
-69.6033
-68.7623
-67.8114
-68.1223
-67.9506
-70.9406
-72.3904
-72.2391
-70.2385
-69.8828
-69.6854
-70.2589
-70.147
-70.2363
-69.7605
-69.0878
-68.4008
-67.6576
-66.7461
-67.9097
-69.068
-70.0998
-70.958
-71.2513
-70.8767
-70.3308
-69.7369
-69.6828
-69.4723
-69.452
-69.725
-71.083
-70.6057
-70.7828
-70.8332
-70.7024
-70.8587
-70.8666
-70.724
-70.527
-69.8667
-69.0894
-68.5499
-68.1484
-67.7806
-68.1286
-68.6449
-69.2464
-70.1274
-70.6132
-71.1957
-71.6034
-71.2973
-70.9359
-70.8702
-70.2224
-69.533
-69.3595
-46.5863
-46.9902
-46.9288
-46.9506
-47.4515
-47.4064
-47.4475
-47.3922
-47.4429
-47.9401
-47.9749
-47.7467
-47.9969
-47.9122
-47.8586
-47.7638
-48.6293
-48.5402
-48.6568
-48.6601
-48.6176
-48.5709
-48.3077
-48.3569
-48.2753
-49.4609
-49.5739
-49.565
-49.7196
-49.7813
-49.8285
-49.796
-49.4051
-49.286
-49.1241
-49.0394
-50.3809
-50.4737
-50.9774
-51.0827
-51.0973
-51.11
-51.0221
-51.156
-50.9038
-50.6605
-50.4355
-50.0896
-50.2114
-51.7031
-51.8901
-52.2821
-52.6969
-52.7947
-52.9017
-52.939
-53.0038
-53.0531
-52.8012
-52.5644
-52.1849
-51.7802
-51.5771
-51.5838
-52.9274
-53.6017
-54.1603
-54.4266
-54.7812
-54.345
-54.9978
-54.8546
-55.083
-55.0128
-54.8266
-54.6358
-54.3492
-53.8927
-53.7073
-53.5493
-51.9224
-53.7169
-55.7375
-56.7126
-57.9518
-58.0499
-57.8261
-58.3759
-58.1586
-58.1072
-58.2488
-58.0789
-58.2354
-58.4254
-58.4859
-58.1038
-57.7261
-56.7036
-56.5156
-56.2251
-61.2929
-62.5308
-62.422
-62.7472
-63.2963
-64.0963
-63.6863
-63.0304
-62.9267
-62.96
-62.7149
-62.744
-62.2847
-63.0082
-62.9857
-62.7055
-61.4822
-60.7368
-59.7216
-59.566
-57.1776
-66.228
-69.0929
-68.6414
-67.7613
-68.1547
-68.342
-67.7738
-66.2043
-65.3155
-65.0194
-64.6071
-63.8242
-65.3077
-65.903
-66.1456
-66.4026
-66.7762
-66.1801
-64.9372
-63.6276
-62.8934
-63.8103
-62.227
-71.1473
-74.9789
-71.4611
-69.0474
-68.983
-68.8343
-69.6337
-69.391
-68.3737
-67.5058
-66.4939
-65.8323
-65.1973
-66.2677
-68.2968
-70.32
-71.2563
-71.2413
-70.559
-69.5998
-68.6629
-67.9843
-68.2605
-68.8339
-71.242
-72.685
-72.4883
-70.3458
-69.9072
-69.7149
-70.2325
-70.0484
-70.0529
-69.5316
-68.8766
-68.237
-67.5576
-66.6864
-66.13
-66.8314
-68.1051
-69.224
-70.2144
-71.0216
-71.4062
-70.9405
-70.3608
-69.7348
-69.7672
-69.5672
-69.6334
-69.8487
-71.112
-70.6567
-70.8391
-70.7904
-70.7014
-70.8323
-70.8463
-70.7302
-70.52
-69.8554
-69.0546
-68.5346
-68.1612
-67.8327
-67.2803
-67.7346
-68.1438
-68.6924
-69.2801
-70.1684
-70.6677
-71.2675
-71.6571
-71.3351
-70.9776
-70.8464
-70.2431
-69.5453
-69.3745
-46.3309
-46.5696
-46.5768
-46.5933
-47.0149
-46.9793
-46.9593
-46.9489
-46.9596
-47.3819
-47.4869
-47.3857
-47.4165
-47.4143
-47.4746
-47.3756
-47.8633
-47.9818
-47.9024
-47.9321
-47.9625
-47.9767
-47.7648
-47.805
-47.6927
-48.6436
-48.7421
-48.7128
-48.6756
-48.6455
-48.7632
-48.59
-48.4415
-48.2751
-48.2382
-48.3385
-49.4225
-49.6969
-49.5511
-49.7787
-49.7663
-49.8915
-49.8647
-49.8191
-49.7419
-49.369
-49.225
-49.0555
-48.9794
-50.329
-50.3355
-50.8969
-51.1013
-51.0263
-51.1857
-51.1063
-51.1884
-51.1088
-51.0471
-50.8826
-50.5971
-50.5
-50.2006
-50.0724
-51.8481
-51.8193
-52.4205
-52.5486
-52.7353
-52.8297
-52.8689
-53.0333
-52.9595
-53.0146
-52.8728
-52.7089
-52.4468
-52.2018
-51.6743
-51.7577
-51.6881
-53.1222
-53.681
-54.2793
-54.4322
-54.8498
-54.9159
-55.1363
-54.9027
-54.973
-55.1184
-54.9184
-54.7096
-54.551
-54.5727
-54.5632
-54.2266
-53.8168
-53.4145
-52.2892
-53.8333
-55.2964
-57.0148
-57.7028
-57.753
-57.662
-58.1468
-58.1768
-58.2646
-58.1292
-58.3239
-58.1585
-58.1051
-58.1922
-58.6725
-58.7932
-58.8586
-57.4384
-56.7697
-56.7201
-56.0031
-62.3891
-63.0999
-63.0107
-63.4089
-63.9583
-65.0442
-63.8261
-62.9947
-62.933
-63.0196
-62.5423
-62.0516
-62.6945
-62.4278
-62.2784
-63.1589
-62.9133
-62.6241
-62.1947
-60.468
-59.6752
-59.4054
-57.6371
-66.5629
-69.4953
-69.1821
-68.361
-68.7737
-68.164
-67.4899
-66.0663
-65.2643
-64.7212
-64.205
-63.65
-63.1301
-64.4294
-65.9818
-66.1802
-66.1139
-66.4334
-66.6611
-66.1076
-65.1079
-63.7496
-63.0562
-63.63
-62.3738
-73.0724
-76.1916
-71.9304
-69.4494
-69.0656
-68.7511
-69.3308
-69.108
-68.0463
-67.0954
-66.1725
-65.6579
-65.0772
-64.915
-65.397
-66.6075
-68.7956
-70.7379
-71.4237
-71.2704
-70.578
-69.4471
-68.6615
-68.2991
-68.6422
-69.695
-71.6402
-72.9255
-72.6965
-70.4717
-69.8956
-69.7314
-70.1867
-69.9453
-69.8544
-69.3204
-68.6896
-68.0705
-67.4437
-66.6493
-66.1666
-66.1
-66.1215
-66.9124
-68.2753
-69.434
-70.2936
-71.1171
-71.521
-71.0023
-70.3461
-69.7468
-69.8688
-69.6813
-69.8487
-69.8896
-71.1143
-70.6761
-70.8144
-70.7791
-70.698
-70.805
-70.8371
-70.7553
-70.5207
-69.8502
-69.0046
-68.5191
-68.1716
-67.8762
-67.3481
-67.6964
-67.1547
-67.7225
-68.1613
-68.7221
-69.3207
-70.2036
-70.7135
-71.3794
-71.7314
-71.3695
-71.0185
-70.8393
-70.2678
-69.5692
-69.4165
-46.1814
-46.3468
-46.3174
-46.3552
-46.6268
-46.6024
-46.6173
-46.621
-46.5982
-47.0413
-47.0803
-46.9897
-46.9828
-46.9689
-47.0246
-47.0176
-47.3721
-47.4928
-47.4428
-47.4234
-47.3804
-47.4282
-47.3289
-47.3791
-47.3243
-47.9582
-47.9621
-47.9937
-47.9786
-47.9162
-48.0165
-47.982
-47.8784
-47.8757
-47.7133
-47.7722
-48.6941
-48.775
-48.639
-48.7586
-48.7248
-48.7303
-48.8187
-48.5635
-48.5551
-48.3562
-48.2668
-48.5339
-48.3166
-49.4691
-49.6237
-49.5383
-49.8544
-49.7266
-49.7946
-49.9217
-49.939
-49.8502
-49.7825
-49.6686
-49.3224
-49.1495
-49.0035
-48.9197
-50.5095
-50.3825
-51.0319
-51.0856
-51.0594
-51.017
-51.1008
-51.2009
-51.2551
-51.2474
-51.1134
-51.0072
-50.9093
-50.4793
-50.5093
-49.9927
-50.1828
-51.9123
-51.9621
-52.4467
-52.6688
-52.7021
-52.8054
-52.8289
-52.9585
-53.058
-53.2156
-53.0472
-52.8518
-52.7006
-52.6143
-52.329
-52.1628
-51.6955
-51.7028
-51.6011
-53.2952
-53.6878
-54.351
-54.5232
-54.7356
-55.3769
-55.1821
-55.1247
-55.0118
-55.0933
-55.2184
-55.2012
-54.9461
-54.9218
-54.6771
-54.7217
-54.7707
-54.3339
-53.7543
-53.519
-52.988
-54.4826
-55.6971
-56.9941
-57.6772
-57.679
-57.718
-58.0467
-58.0902
-58.4325
-58.3081
-58.4029
-58.6391
-58.3841
-58.1513
-58.1842
-57.9821
-58.5995
-59.1139
-58.7647
-57.5404
-57.0232
-56.7599
-55.9006
-62.4929
-63.4363
-63.5001
-63.7721
-64.6375
-65.3256
-63.9788
-63.2598
-62.9695
-62.6162
-62.2598
-61.69
-61.1324
-62.187
-62.5624
-62.4001
-62.2657
-63.2085
-63.0454
-62.7945
-61.9417
-60.4061
-59.5297
-59.8449
-58.2696
-66.5718
-71.6248
-69.9362
-69.1068
-69.1049
-68.1933
-67.4236
-66.063
-65.0999
-64.333
-63.8134
-63.2792
-62.6943
-62.5724
-63.3726
-64.8965
-66.4002
-66.2014
-66.1475
-66.3202
-66.4891
-66.1452
-65.0901
-63.4458
-63.2427
-63.9874
-62.3867
-74.3077
-77.1441
-72.3412
-69.9342
-69.0596
-68.7428
-69.0444
-68.8186
-67.7694
-66.7891
-65.8781
-65.5129
-65.0182
-64.886
-64.3625
-64.9831
-65.7036
-66.9721
-69.2428
-71.0609
-71.5584
-71.2311
-70.6579
-69.386
-68.7088
-68.4972
-69.1976
-70.4735
-71.704
-73.0864
-72.8109
-70.585
-69.8468
-69.7214
-70.0952
-69.8422
-69.6547
-69.1206
-68.5311
-67.9411
-67.352
-66.6408
-66.2278
-66.233
-66.5308
-65.9775
-66.1599
-67.0018
-68.4665
-69.6481
-70.3505
-71.2305
-71.5666
-71.0431
-70.3521
-69.7855
-69.9655
-69.8132
-70.0167
-69.9213
-71.0985
-70.655
-70.8174
-70.7814
-70.6936
-70.773
-70.8217
-70.7715
-70.5172
-69.8377
-68.9541
-68.524
-68.1781
-67.9086
-67.3674
-67.7759
-68.41
-67.6151
-67.1594
-67.7114
-68.1713
-68.7759
-69.3662
-70.2328
-70.7441
-71.4516
-71.8024
-71.432
-71.0589
-70.8518
-70.2966
-69.6196
-69.453
-46.0083
-46.2011
-46.1799
-46.1805
-46.3949
-46.3732
-46.395
-46.3749
-46.3589
-46.6544
-46.6683
-46.6169
-46.6199
-46.6357
-46.6173
-46.5817
-47.0682
-47.0974
-47.0599
-46.985
-47.008
-46.979
-47.007
-46.9947
-47.0095
-47.4728
-47.4781
-47.4504
-47.5023
-47.4464
-47.4711
-47.4128
-47.4169
-47.2955
-47.3642
-47.2463
-48.04
-47.9733
-47.9214
-48.0101
-48.0136
-48.0161
-48.1383
-48.0513
-47.9193
-47.8536
-47.8057
-47.7268
-47.7486
-48.7596
-48.7484
-48.8338
-48.7087
-48.7659
-48.7361
-48.76
-48.9042
-48.7459
-48.6669
-48.5608
-48.3776
-48.2923
-48.4049
-48.3256
-49.4958
-49.7735
-49.5791
-49.8066
-49.7834
-49.8129
-49.8613
-49.9321
-50.0048
-49.8933
-49.8665
-49.7361
-49.6137
-49.383
-49.0424
-48.9052
-48.9606
-50.4071
-50.596
-51.1456
-51.0254
-51.0349
-51.1037
-51.0765
-51.2166
-51.3362
-51.3272
-51.3096
-51.2235
-51.0328
-50.9392
-50.7056
-50.3985
-50.5567
-49.8782
-50.2652
-51.7747
-51.8564
-52.373
-52.5846
-52.6001
-52.7432
-52.801
-52.912
-53.1226
-53.1468
-53.2153
-53.1454
-52.9324
-52.8222
-52.6543
-52.4719
-52.2849
-52.0934
-51.7182
-51.5677
-51.7081
-53.2382
-53.8355
-54.5363
-54.2997
-54.8229
-55.3865
-55.2242
-55.102
-55.1043
-54.779
-55.1525
-55.2107
-55.3094
-55.0997
-54.9971
-54.7979
-54.8265
-54.6191
-54.5028
-54.3981
-54.0354
-53.7518
-53.2459
-55.0867
-56.4873
-56.9296
-57.8202
-57.2489
-57.9097
-58.1693
-57.8362
-57.9667
-58.4754
-58.4573
-58.4026
-58.425
-58.5849
-58.3726
-58.2654
-58.1479
-58.0846
-58.5099
-58.9451
-57.6035
-57.5467
-57.1466
-56.7271
-55.7848
-62.2393
-63.9207
-63.9161
-64.4291
-65.3315
-65.479
-63.9439
-63.2786
-62.5713
-62.4754
-61.9132
-61.3838
-60.7918
-60.555
-61.3188
-62.2611
-62.533
-62.2308
-62.3479
-63.3753
-62.7169
-62.716
-60.964
-60.349
-59.6362
-59.8425
-58.4358
-66.2918
-73.038
-70.6341
-69.8268
-69.2536
-68.2019
-67.2152
-65.7444
-64.8495
-64.0711
-63.4821
-62.9632
-62.8215
-62.7384
-62.6237
-62.3961
-63.2704
-65.3091
-66.5084
-66.0324
-66.185
-66.4102
-66.2929
-65.92
-65.128
-63.7353
-63.6126
-64.8036
-62.3949
-73.9661
-77.8517
-72.7124
-70.3132
-68.9456
-68.6658
-68.7739
-68.514
-67.4783
-66.5386
-65.6482
-65.4725
-64.979
-64.8444
-64.4609
-64.3202
-64.252
-64.9954
-65.9474
-67.3252
-69.6115
-71.1678
-71.5791
-71.2477
-70.6163
-69.2552
-68.6999
-68.7903
-69.592
-71.1992
-71.7768
-73.1501
-72.7682
-70.6582
-69.7823
-69.6989
-70.0232
-69.7429
-69.4796
-68.9551
-68.3994
-67.8347
-67.2823
-66.6521
-66.3143
-66.3867
-66.7425
-67.5622
-66.3536
-65.876
-66.2594
-67.1432
-68.703
-69.7491
-70.4462
-71.3284
-71.5939
-71.1039
-70.3773
-69.8327
-70.0227
-69.9634
-70.1179
-70.0144
-71.0732
-70.6289
-70.8464
-70.7901
-70.6867
-70.7342
-70.7919
-70.7691
-70.5223
-69.8422
-68.9236
-68.5245
-68.1756
-67.929
-67.3948
-67.8668
-68.5412
-68.6165
-68.2727
-67.5317
-67.2032
-67.6922
-68.1861
-68.8314
-69.4046
-70.2504
-70.7717
-71.5551
-71.895
-71.4673
-71.1008
-70.9013
-70.3344
-69.6786
-69.4792
-45.886
-46.0322
-46.0154
-46.0079
-46.1983
-46.1934
-46.179
-46.2089
-46.166
-46.3829
-46.3723
-46.398
-46.3473
-46.3981
-46.3826
-46.3566
-46.6413
-46.6594
-46.6157
-46.6354
-46.6561
-46.6581
-46.6433
-46.6335
-46.5889
-47.0784
-47.0808
-47.0589
-46.9744
-47.0563
-47.0965
-46.9772
-47.0194
-46.9409
-46.9612
-46.952
-47.4958
-47.5048
-47.4549
-47.4668
-47.4337
-47.5048
-47.5442
-47.4513
-47.4382
-47.3257
-47.2897
-47.187
-47.327
-48.0928
-48.0099
-47.9427
-47.9841
-48.0191
-48.0409
-48.0225
-48.2312
-48.1282
-48.0043
-47.907
-47.8706
-47.7051
-47.9023
-47.7502
-48.7639
-48.7814
-48.8518
-48.7264
-48.7501
-48.8214
-48.7812
-48.8596
-48.9969
-48.8945
-48.7887
-48.659
-48.5117
-48.3891
-48.2996
-48.3175
-48.3417
-49.3614
-49.7322
-49.6034
-49.8044
-49.7227
-49.7672
-49.8305
-49.9566
-50.0553
-50.1671
-50.0214
-49.8747
-49.8234
-49.5898
-49.4636
-49.238
-49.09
-48.9464
-49.0609
-50.4603
-50.5359
-51.0684
-50.9996
-51.0059
-50.9921
-51.1864
-51.149
-51.3244
-51.2598
-51.4716
-51.4675
-51.2794
-51.2151
-51.0623
-50.875
-50.6622
-50.4505
-50.5629
-50.2265
-50.2829
-52.0042
-52.0653
-52.316
-52.3797
-52.4466
-52.6654
-52.7182
-52.7443
-52.9781
-53.1777
-53.2401
-53.2587
-53.2609
-52.9868
-52.8736
-52.7912
-52.5323
-52.4152
-52.135
-52.154
-51.7264
-51.6946
-51.7959
-53.4111
-54.1233
-54.6367
-54.3984
-54.5836
-55.0265
-55.6151
-55.13
-55.061
-54.8303
-54.9745
-55.2692
-55.4274
-55.2628
-55.352
-55.2008
-54.9794
-54.6255
-54.7287
-54.7392
-54.6825
-54.5224
-54.1642
-53.3504
-53.4028
-55.9657
-56.6295
-57.2978
-57.8029
-57.8881
-58.0523
-57.5146
-57.9404
-58.1983
-58.2134
-58.3832
-58.2762
-58.4138
-58.1971
-58.433
-58.5313
-58.3828
-58.2637
-58.0621
-58.4854
-58.6587
-58.3609
-57.9671
-57.7243
-57.1594
-56.9109
-55.9618
-61.8999
-65.0519
-64.173
-65.3062
-65.8403
-64.7257
-63.8885
-63.344
-62.4087
-62.2656
-61.5127
-60.9426
-60.7164
-60.4138
-60.7169
-60.6723
-61.3753
-62.6236
-62.5078
-62.2044
-62.3819
-63.2905
-62.6613
-62.1348
-60.9076
-60.2591
-59.6124
-60.0891
-58.51
-65.7802
-73.7476
-71.4295
-70.4205
-69.2839
-68.2977
-66.9557
-65.7581
-64.6928
-63.8064
-63.2606
-62.8491
-62.4461
-62.7482
-62.7756
-63.0712
-62.6407
-62.5
-63.643
-65.4775
-66.7633
-66.1332
-66.1191
-66.4276
-66.2293
-65.9303
-65.2739
-64.1461
-64.1659
-65.1441
-62.4743
-74.2644
-78.2872
-73.0963
-70.3902
-68.7911
-68.4911
-68.5902
-68.2695
-67.2696
-66.2827
-65.5455
-65.4191
-64.9815
-64.8611
-64.4445
-64.5227
-65.2682
-64.202
-64.057
-65.0356
-66.221
-67.6944
-69.9847
-71.1433
-71.5061
-71.2574
-70.5258
-69.23
-68.7503
-69.0192
-69.9237
-71.5351
-71.83
-73.1269
-72.6383
-70.6739
-69.7336
-69.683
-69.9147
-69.6403
-69.3338
-68.822
-68.3021
-67.7451
-67.2129
-66.6903
-66.4304
-66.5762
-66.9359
-67.7318
-68.1971
-67.365
-66.122
-65.8
-66.2542
-67.3029
-68.9511
-69.8315
-70.5554
-71.4289
-71.6235
-71.0958
-70.4242
-69.8886
-70.0992
-70.1128
-70.1965
-70.0843
-71.0411
-70.6049
-70.8645
-70.779
-70.6769
-70.689
-70.8013
-70.8008
-70.5441
-69.8568
-68.904
-68.5216
-68.1763
-67.9391
-67.4553
-67.9647
-68.6477
-68.6942
-68.3176
-68.5441
-68.1351
-67.4546
-67.2208
-67.6908
-68.2062
-68.8703
-69.4405
-70.2693
-70.8117
-71.6643
-71.9478
-71.4685
-71.139
-71.0004
-70.3964
-69.7607
-69.5
-45.7807
-45.8912
-45.9471
-45.8765
-46.0268
-46.0232
-46.0094
-46.0065
-45.9985
-46.1994
-46.1955
-46.196
-46.0908
-46.2084
-46.1989
-46.1582
-46.3632
-46.3449
-46.4172
-46.4074
-46.4298
-46.4252
-46.3802
-46.3574
-46.3463
-46.5961
-46.5005
-46.6195
-46.6423
-46.6669
-46.7851
-46.7102
-46.6847
-46.6529
-46.5917
-46.638
-47.0791
-47.0006
-47.0641
-47.021
-46.9456
-47.164
-47.1508
-47.0865
-47.0257
-46.9593
-46.8877
-46.9433
-46.9688
-47.448
-47.5309
-47.4888
-47.4627
-47.4147
-47.5033
-47.5306
-47.6479
-47.5727
-47.5194
-47.3785
-47.2987
-47.2072
-47.3004
-47.2799
-48.083
-48.0408
-47.9988
-47.9571
-47.9873
-48.0413
-48.1441
-48.1734
-48.3019
-48.2373
-48.1219
-47.956
-47.8953
-47.7712
-47.7796
-47.8982
-47.7883
-48.7188
-48.802
-48.8378
-48.7782
-48.7196
-48.7745
-48.8337
-48.8564
-48.9551
-49.1375
-48.9703
-48.9028
-48.7225
-48.5966
-48.5115
-48.3039
-48.3362
-48.3286
-48.3246
-49.5069
-49.6712
-49.5264
-49.7309
-49.7044
-49.7649
-49.8273
-49.9569
-50.0212
-50.1636
-50.1977
-50.1974
-50.0461
-49.9308
-49.7279
-49.6008
-49.345
-49.2433
-49.1434
-49.0494
-49.1448
-50.6028
-50.6448
-50.8741
-50.945
-50.9572
-50.9927
-51.0755
-51.2275
-51.1766
-51.427
-51.4588
-51.6167
-51.5166
-51.4507
-51.2534
-51.1974
-51.0121
-50.8443
-50.7184
-50.4063
-50.5628
-50.3496
-50.2913
-52.0168
-52.2028
-52.3363
-52.3117
-52.4708
-52.4834
-52.3928
-52.9595
-53.0682
-53.2077
-53.2231
-53.2698
-53.4323
-53.2786
-53.1975
-52.8941
-52.8297
-52.6901
-52.6032
-52.362
-52.1663
-51.9984
-51.8324
-51.8013
-51.8345
-53.4417
-53.9152
-54.6528
-54.7172
-54.7318
-54.434
-55.5004
-55.2546
-55.125
-54.8514
-54.95
-55.0425
-55.6894
-55.6542
-55.4617
-55.2061
-55.3614
-55.2054
-54.947
-54.7392
-54.7135
-54.7646
-54.9844
-54.7834
-54.3072
-53.5731
-53.4798
-56.5793
-57.3135
-57.9702
-57.597
-57.9569
-58.0091
-57.9071
-57.906
-58.0576
-58.1497
-58.3538
-58.3526
-58.227
-58.0803
-58.2184
-58.2314
-58.5653
-58.3427
-58.4016
-58.0572
-58.0524
-58.1349
-58.6489
-58.0443
-58.0603
-57.8845
-57.4885
-56.9888
-55.9581
-62.0018
-67.4312
-64.5163
-66.0443
-66.1096
-64.4716
-64.0671
-63.2515
-62.3457
-61.8169
-61.3725
-60.8789
-60.6588
-60.5068
-60.7282
-60.8485
-60.657
-60.8723
-61.8512
-62.9255
-62.7095
-62.1065
-62.3241
-63.2084
-62.4222
-62.0362
-60.8153
-60.4196
-59.8412
-60.1938
-58.725
-65.2424
-73.5471
-72.779
-70.7309
-69.1649
-68.3844
-66.9246
-65.5419
-64.6297
-63.5429
-63.0206
-62.8779
-62.3812
-62.7716
-63.1343
-63.564
-64.7826
-62.7161
-62.529
-62.6524
-63.9461
-65.9005
-66.8941
-66.1649
-65.9715
-66.5561
-65.8697
-65.9468
-65.4227
-64.4624
-64.6813
-64.9793
-62.8698
-74.7208
-78.3151
-73.481
-70.2208
-68.6199
-68.4199
-68.3703
-67.9988
-67.1798
-66.1203
-65.5511
-65.4129
-65.0389
-64.9275
-64.465
-64.856
-65.751
-66.9634
-64.8854
-64.1584
-64.0177
-65.2252
-66.5744
-68.0536
-70.2033
-71.0708
-71.5619
-71.0943
-70.4462
-69.2201
-68.7979
-69.1039
-70.1899
-71.7497
-71.8058
-73.0508
-72.5017
-70.6468
-69.6864
-69.653
-69.7919
-69.5349
-69.2039
-68.7107
-68.1973
-67.661
-67.1801
-66.751
-66.5561
-66.7636
-67.1511
-67.9013
-68.3335
-68.2509
-68.0683
-67.124
-65.8242
-65.7193
-66.2324
-67.4891
-69.2166
-69.9188
-70.6948
-71.552
-71.6175
-71.1072
-70.5124
-69.9681
-70.1613
-70.2567
-70.2685
-70.0963
-71.0035
-70.5844
-70.8696
-70.7702
-70.6651
-70.65
-70.7947
-70.8243
-70.5516
-69.8582
-68.8861
-68.5122
-68.1879
-67.937
-67.5566
-68.068
-68.7347
-68.7901
-68.3919
-68.0638
-68.2395
-68.4682
-68.0168
-67.3698
-67.1973
-67.6947
-68.2317
-68.9213
-69.4744
-70.3088
-70.8513
-71.7393
-71.9535
-71.5011
-71.1748
-71.0793
-70.4992
-69.8653
-69.5175
-45.6116
-45.7536
-45.7342
-45.7675
-45.8981
-45.9314
-46.003
-45.8944
-45.8608
-46.0186
-46.0377
-46.062
-46.0292
-46.009
-45.9984
-45.986
-46.1966
-46.1999
-46.2183
-46.2176
-46.2176
-46.4749
-46.1878
-46.1747
-46.1493
-46.3337
-46.2661
-46.4182
-46.4618
-46.4054
-46.5229
-46.4402
-46.4064
-46.3353
-46.3704
-46.3054
-46.6157
-46.5624
-46.6455
-46.6465
-46.6694
-46.744
-46.7828
-46.7642
-46.6993
-46.6454
-46.621
-46.5815
-46.5859
-47.0824
-47.0974
-47.126
-46.9997
-46.9997
-47.0007
-47.1615
-47.2328
-47.1688
-47.0907
-46.989
-46.9772
-46.9227
-46.9786
-46.9591
-47.391
-47.5022
-47.5332
-47.4278
-47.4428
-47.5083
-47.6192
-47.6518
-47.7504
-47.6538
-47.5785
-47.4991
-47.3816
-47.2374
-47.2936
-47.2823
-47.3317
-48.067
-48.0389
-48.0448
-47.9574
-47.9562
-48.0427
-48.112
-48.2256
-48.3257
-48.458
-48.3311
-48.2754
-48.0757
-47.9915
-47.9238
-47.7629
-47.6671
-47.7049
-47.7699
-48.7489
-48.8844
-48.7259
-48.6998
-48.7511
-48.7157
-48.8554
-48.9674
-48.9818
-49.1128
-49.3014
-49.1261
-48.9549
-48.8048
-48.6991
-48.5458
-48.4109
-48.3151
-48.346
-48.1605
-48.2977
-49.4081
-49.665
-49.5504
-49.7473
-49.704
-49.769
-49.7416
-49.9556
-49.9876
-50.1947
-50.2583
-50.336
-50.1289
-50.1868
-49.9776
-49.9143
-49.699
-49.5499
-49.3476
-49.1384
-49.2438
-49.2061
-49.2235
-50.5775
-50.6379
-50.8158
-50.9412
-51.1524
-51.1178
-51.0369
-51.151
-51.283
-51.3354
-51.4769
-51.5752
-51.7501
-51.6198
-51.5158
-51.2846
-51.2683
-51.1088
-50.8816
-50.6731
-50.6772
-50.5221
-50.556
-50.4038
-50.357
-52.0612
-52.2099
-52.2719
-52.2208
-52.3348
-52.2274
-52.907
-52.6849
-52.7641
-53.0838
-53.2088
-53.32
-53.4244
-53.5309
-53.3995
-53.311
-53.0623
-52.9075
-52.7342
-52.4308
-52.4981
-52.404
-52.1635
-52.1341
-52.0619
-51.6754
-51.8111
-53.0679
-53.6783
-54.7264
-54.8127
-54.6656
-55.2454
-54.8938
-55.4015
-55.2033
-54.9433
-55.1971
-55.2568
-55.616
-55.6931
-55.7918
-55.7241
-55.4644
-55.418
-55.3999
-55.1258
-55.0209
-54.8425
-54.6774
-54.8698
-54.9913
-54.9726
-54.0444
-53.7441
-53.5598
-57.257
-56.4256
-58.3471
-57.9001
-57.8459
-58.0189
-58.2529
-58.0053
-58.0018
-58.242
-58.2657
-58.3147
-58.1822
-58.3633
-58.4153
-58.8014
-57.96
-58.4114
-58.4288
-58.4249
-58.3533
-58.1054
-58.2077
-58.0232
-58.0939
-58.1285
-58.0873
-58.2763
-57.6734
-57.137
-55.9725
-60.8854
-68.5479
-65.337
-66.3494
-66.1515
-64.8293
-63.701
-63.238
-62.1489
-61.6105
-61.1883
-60.8853
-60.6285
-60.487
-60.5115
-61.3309
-62.7426
-60.6259
-60.6023
-61.1425
-62.0272
-62.8836
-62.4835
-62.0719
-62.4922
-62.5838
-61.9605
-61.7807
-60.834
-60.6232
-59.9386
-60.2848
-58.6545
-64.8071
-73.8493
-74.1097
-71.2522
-69.1219
-68.4063
-66.6704
-65.3012
-64.4612
-63.3844
-62.8646
-62.8793
-62.7311
-62.9844
-63.5122
-63.7448
-65.18
-65.7526
-64.2733
-62.4656
-62.4615
-62.877
-64.5277
-66.0161
-66.9119
-66.0124
-65.8465
-65.9908
-65.771
-66.0342
-65.6972
-64.7616
-64.9639
-64.8169
-63.2407
-74.6224
-77.9356
-73.4491
-70.0439
-68.4107
-68.3938
-68.1557
-67.7624
-67.0929
-66.0812
-65.5981
-65.4354
-65.1374
-65.0014
-64.6115
-65.1296
-66.1844
-67.2466
-67.5184
-66.6592
-64.6101
-64.1725
-63.9686
-65.4527
-66.9464
-68.4579
-70.5121
-70.859
-71.6007
-70.8229
-70.1705
-69.2503
-68.8468
-69.3086
-70.3729
-71.9141
-71.6595
-72.9485
-72.4045
-70.5889
-69.6117
-69.6147
-69.6878
-69.4409
-69.1079
-68.6314
-68.1113
-67.6143
-67.2045
-66.8311
-66.6873
-66.9313
-67.3447
-68.0752
-68.4848
-68.3936
-68.0928
-68.107
-67.9109
-66.8881
-65.6283
-65.6649
-66.3087
-67.6384
-69.407
-69.9619
-70.8338
-71.6579
-71.6129
-71.1762
-70.5831
-70.0604
-70.2116
-70.4012
-70.2936
-70.0506
-70.9633
-70.5675
-70.8583
-70.7798
-70.6511
-70.6237
-70.7665
-70.81
-70.5606
-69.8351
-68.8782
-68.511
-68.203
-67.9082
-67.6616
-68.1654
-68.8233
-68.8838
-68.4645
-68.1594
-67.9529
-67.9826
-68.164
-68.3813
-67.9278
-67.2864
-67.1934
-67.6987
-68.2585
-68.97