/*--------------------------------*- C++ -*----------------------------------*\
  =========                 |
  \\      /  F ield         | OpenFOAM: The Open Source CFD Toolbox
   \\    /   O peration     | Website:  https://openfoam.org
    \\  /    A nd           | Version:  7
     \\/     M anipulation  |
\*---------------------------------------------------------------------------*/
FoamFile
{
    version     2.0;
    format      ascii;
    class       volScalarField;
    location    "6.5";
    object      p;
}
// * * * * * * * * * * * * * * * * * * * * * * * * * * * * * * * * * * * * * //

dimensions      [0 2 -2 0 0 0 0];

internalField   nonuniform List<scalar> 
18750
(
-70.9351
-70.8768
-71.5402
-71.0019
-72.4674
-70.6355
-70.3853
-72.4896
-71.5993
-71.1316
-68.7006
-72.0418
-71.4746
-71.0798
-70.3164
-69.9266
-72.4858
-72.3396
-71.5966
-71.1971
-64.8197
-71.6267
-67.5708
-72.0053
-71.3041
-70.5187
-72.4214
-70.8745
-70.0126
-69.5075
-72.8283
-72.4137
-72.1506
-71.4982
-71.2882
-61.1813
-66.4964
-64.1666
-71.8856
-70.3576
-66.8926
-73.2937
-71.4468
-70.5683
-69.6237
-73.7388
-72.2856
-70.7211
-69.7568
-69.1617
-73.0897
-72.7693
-72.3158
-71.9931
-71.4178
-71.3259
-60.5337
-63.6727
-61.3408
-70.7215
-66.5959
-63.8511
-72.7574
-71.2959
-69.5689
-65.6411
-74.4616
-73.0094
-71.0937
-69.9396
-68.8265
-74.0259
-73.5385
-72.1299
-70.5955
-69.567
-68.9156
-73.4459
-73.0555
-72.712
-72.2163
-71.8546
-71.3552
-71.2722
-59.6948
-61.9181
-60.7879
-65.1533
-63.6801
-61.5007
-71.6279
-69.4175
-66.4241
-63.5089
-73.0544
-72.2874
-70.6367
-68.7674
-64.9186
-74.8713
-74.1192
-72.6571
-70.8437
-69.3629
-68.1743
-74.2745
-73.938
-73.3449
-71.981
-70.4893
-69.4296
-68.726
-73.8618
-73.4279
-73.0198
-72.6603
-72.1279
-71.7494
-71.2661
-71.2287
-59.1519
-60.2062
-59.7532
-61.7722
-61.5639
-60.881
-66.6976
-64.4095
-63.3845
-62.3209
-71.8447
-70.745
-68.5467
-66.4614
-63.2541
-73.3614
-72.7828
-71.8038
-69.8816
-67.5667
-64.5491
-75.2124
-74.7332
-73.7331
-72.2353
-70.3314
-68.834
-67.6922
-74.7365
-74.2346
-73.8314
-73.1532
-71.8446
-70.3835
-69.3473
-68.6247
-74.204
-73.8613
-73.4079
-72.982
-72.6028
-72.0375
-71.6691
-71.1872
-71.1473
-58.0453
-59.1911
-59.2985
-60.2718
-60.2945
-59.747
-62.5828
-62.0037
-61.5846
-61.0736
-67.933
-66.1563
-64.389
-63.338
-61.8112
-71.6061
-71.5206
-70.0801
-68.4018
-65.8915
-63.3306
-73.7545
-73.268
-72.5482
-71.3243
-69.4295
-66.5956
-64.3
-75.8134
-75.298
-74.5497
-73.3613
-71.8517
-69.8842
-68.2848
-67.369
-75.1132
-74.7427
-74.1734
-73.7218
-72.9562
-71.7303
-70.2469
-69.315
-68.5712
-74.695
-74.2061
-73.858
-73.3843
-72.9403
-72.5389
-71.9448
-71.5953
-71.1008
-71.0493
-57.4886
-58.1075
-58.145
-59.2474
-58.9675
-59.1227
-60.645
-60.2917
-60.2796
-59.8638
-63.2073
-62.7817
-62.1413
-61.5636
-61.0995
-67.9545
-67.8299
-66.0182
-64.5107
-63.4795
-62.0749
-71.1534
-71.5006
-71.2901
-68.9596
-68.3437
-64.9916
-63.3454
-74.1813
-73.8936
-73.2544
-72.258
-70.9416
-69.1205
-65.6789
-64.2936
-76.4868
-75.8595
-75.111
-74.389
-73.0704
-71.4453
-69.3828
-67.9147
-67.0467
-75.7089
-75.096
-74.7389
-74.0945
-73.6196
-72.746
-71.6225
-70.1064
-69.3033
-68.565
-74.8969
-74.6986
-74.2003
-73.8494
-73.3597
-72.8964
-72.4705
-71.8682
-71.5358
-71.0185
-70.9727
-57.0633
-57.5134
-57.5345
-58.1809
-58.0529
-58.2317
-59.3476
-59.3175
-59.0524
-58.9997
-61.1589
-60.7858
-60.2827
-60.305
-59.8927
-63.1794
-63.2652
-62.794
-62.038
-61.7765
-60.9212
-67.4047
-68.0399
-67.5629
-65.5953
-64.2249
-63.6823
-62.3294
-71.1665
-70.9866
-71.4906
-70.8832
-68.6149
-68.2319
-64.3422
-63.6394
-74.4891
-74.4008
-73.9251
-73.0743
-72.1039
-70.5914
-68.5518
-64.9692
-64.6391
-77.3119
-76.458
-75.8851
-74.9559
-74.2654
-72.6652
-71.062
-68.8865
-67.6627
-67.1674
-75.6891
-75.7189
-75.0596
-74.7303
-74.0278
-73.4928
-72.5321
-71.4879
-70.0015
-69.3336
-68.7097
-74.6677
-74.9094
-74.7038
-74.1911
-73.8366
-73.3358
-72.8519
-72.3902
-71.8169
-71.4667
-70.9736
-70.9429
-56.4621
-57.0251
-57.0526
-57.5246
-57.6458
-57.6412
-58.3
-58.4091
-58.1018
-58.292
-59.465
-59.4879
-59.2245
-59.2431
-59.0255
-61.4615
-61.1278
-60.4639
-60.412
-60.3067
-59.8618
-64.0995
-63.2508
-63.0697
-62.6446
-62.1196
-61.972
-60.958
-67.1349
-67.4555
-67.8804
-67.1714
-65.407
-63.9003
-63.9404
-62.6219
-70.8679
-71.1192
-71.0121
-71.2779
-70.5521
-68.9177
-67.8492
-64.4368
-63.7104
-75.5583
-74.6333
-74.5015
-74.0297
-73.0496
-71.9731
-70.4234
-67.9778
-64.8191
-65.0413
-77.327
-77.3451
-76.4177
-75.7782
-74.8906
-74.1534
-72.3054
-70.7614
-68.6984
-67.4164
-67.4511
-75.1243
-75.7189
-75.7052
-75.0077
-74.6793
-73.9177
-73.3304
-72.3364
-71.3373
-69.8827
-69.3389
-68.8713
-74.3609
-74.6733
-74.9146
-74.7064
-74.1794
-73.8208
-73.3096
-72.8054
-72.3051
-71.7679
-71.4011
-70.9659
-70.9312
-56.0785
-56.4115
-56.3901
-57.1383
-57.0925
-57.0375
-57.5693
-57.6784
-57.6187
-57.6618
-58.4068
-58.3164
-58.3718
-58.2745
-58.2689
-59.6566
-59.5893
-59.5
-59.4017
-59.4477
-59.0451
-61.5894
-61.4414
-60.8821
-60.6743
-60.6589
-60.3448
-59.9878
-64.0863
-64.0503
-63.2052
-63.0201
-62.806
-62.6136
-62.492
-61.1136
-67.3735
-67.2426
-67.7427
-67.7608
-66.8961
-65.4307
-64.9012
-63.9933
-62.6798
-71.3014
-70.957
-71.0297
-71.1723
-71.1464
-70.3696
-68.5385
-67.1257
-64.7891
-63.9066
-76.7787
-75.7785
-74.8835
-74.4585
-73.8345
-72.963
-71.781
-70.0284
-67.6086
-64.985
-65.2134
-76.1556
-77.5183
-77.3063
-76.3099
-75.6211
-74.6765
-73.8871
-72.0859
-70.5084
-68.7041
-67.3876
-67.748
-74.4786
-75.175
-75.7353
-75.6332
-74.9194
-74.5835
-73.7962
-73.1396
-72.1935
-71.1984
-69.7933
-69.3319
-68.9832
-73.798
-74.3783
-74.6794
-74.9141
-74.7058
-74.1674
-73.8016
-73.2809
-72.7568
-72.2215
-71.7171
-71.3352
-70.9958
-70.9364
-55.7274
-56.0711
-56.0829
-56.4886
-56.3389
-56.4155
-56.9529
-57.1435
-57.2583
-56.9579
-57.6488
-57.6054
-57.7301
-57.5492
-57.8078
-58.4883
-58.4544
-58.4401
-58.4104
-58.3922
-58.228
-59.8653
-59.7222
-59.6194
-59.6717
-59.5014
-59.5347
-59.159
-61.8092
-61.6428
-61.3588
-60.7247
-60.9473
-60.7102
-60.5615
-60.0997
-64.2879
-64.1487
-63.9241
-63.4086
-62.8655
-63.2125
-63.0031
-62.2368
-61.092
-67.7328
-67.3667
-67.2073
-67.5827
-67.498
-66.5374
-65.377
-64.5051
-63.6715
-62.8643
-71.9664
-71.4519
-71.0394
-71.2323
-70.9154
-70.8428
-69.8409
-68.1274
-66.5626
-65.1187
-64.1722
-76.2461
-77.3493
-75.8371
-74.8025
-74.3253
-73.5226
-72.7236
-71.47
-69.5885
-67.4755
-65.5241
-65.1433
-75.0956
-76.4568
-77.6129
-77.1718
-76.0944
-75.4158
-74.438
-73.5986
-71.8862
-70.2916
-68.7957
-67.4719
-68.0372
-73.9532
-74.5528
-75.2237
-75.7276
-75.518
-74.8107
-74.4792
-73.6698
-72.9313
-72.0703
-71.0796
-69.7288
-69.3226
-69.0832
-73.397
-73.8127
-74.3932
-74.6834
-74.9124
-74.7026
-74.1562
-73.779
-73.2513
-72.7151
-72.1407
-71.6734
-71.2753
-71.0549
-70.9991
-55.4842
-55.6613
-55.733
-56.114
-56.0969
-56.1035
-56.3726
-56.4664
-56.3842
-56.4189
-57.0127
-57.0312
-57.2416
-56.9782
-56.914
-57.5939
-57.6292
-57.6827
-57.5538
-57.7451
-57.8569
-58.6955
-58.5462
-58.544
-58.5494
-58.4904
-58.4067
-58.1563
-60.0522
-59.932
-59.8748
-59.6354
-59.6909
-59.4987
-59.5872
-59.3104
-62.0073
-61.716
-61.5339
-61.4423
-60.8153
-61.2311
-60.3868
-60.4635
-60.1123
-64.6505
-64.354
-64.1741
-63.7032
-63.5617
-63.355
-63.3326
-62.6666
-62.1665
-60.9447
-68.0996
-67.7563
-67.3663
-67.3029
-67.5139
-67.4056
-66.2393
-65.414
-64.6
-63.2367
-62.9518
-72.6654
-72.2962
-71.7338
-71.0762
-71.0091
-70.8069
-70.7139
-69.2503
-68.0854
-66.127
-65.3567
-64.3529
-75.162
-76.7976
-77.7266
-75.9206
-74.7392
-74.2125
-73.2726
-72.6579
-71.2459
-69.0625
-67.272
-66.1793
-65.2514
-74.1889
-75.3993
-76.6746
-77.6056
-76.9069
-75.88
-75.1979
-74.1855
-73.3052
-71.6993
-70.0782
-68.8873
-67.6898
-68.0183
-73.2934
-74.0191
-74.5974
-75.2665
-75.6929
-75.4028
-74.6998
-74.3686
-73.545
-72.7511
-71.9535
-70.969
-69.664
-69.3384
-69.1452
-73.2182
-73.3734
-73.8212
-74.4062
-74.6849
-74.9088
-74.6971
-74.1444
-73.7522
-73.2334
-72.6708
-72.0709
-71.6338
-71.2657
-71.0723
-71.1252
-55.2679
-55.4219
-55.4759
-55.6535
-55.7132
-55.7601
-55.982
-56.1462
-56.095
-56.1209
-56.4396
-56.4732
-56.4417
-56.4503
-56.3792
-57.022
-57.0564
-56.9866
-57.1415
-57.0032
-57.1097
-57.791
-57.6679
-57.6472
-57.6265
-57.754
-57.8168
-57.8056
-58.8676
-58.6846
-58.6907
-58.5845
-58.5699
-58.5161
-58.3647
-58.1501
-60.3608
-60.0877
-60.0515
-59.9009
-59.8403
-59.9314
-59.6442
-59.5111
-59.2436
-62.111
-62.0388
-61.7543
-61.6003
-61.4566
-61.2618
-61.0668
-60.8976
-60.4787
-60.2701
-64.9426
-64.7291
-64.3784
-64.0528
-63.6496
-63.7288
-63.5686
-63.4149
-62.6225
-61.9988
-60.9062
-68.4826
-68.1849
-67.7594
-67.3818
-67.4252
-67.6223
-67.1724
-66.3679
-65.4831
-64.58
-63.1015
-62.8003
-72.6525
-72.9636
-72.5805
-71.7737
-71.0324
-70.992
-71.0061
-70.545
-69.3405
-68.1396
-65.9413
-65.4569
-64.4043
-74.081
-75.7618
-77.3073
-77.9549
-75.7953
-74.6105
-73.9708
-73.2177
-72.5059
-70.9357
-68.7788
-67.3737
-66.874
-65.4276
-73.3791
-74.4922
-75.6475
-76.7576
-77.5173
-76.6227
-75.6804
-74.9395
-73.9451
-73.0144
-71.4925
-69.9266
-68.9307
-68.0358
-67.9789
-73.3941
-73.3692
-74.0796
-74.628
-75.274
-75.6266
-75.2907
-74.5974
-74.2543
-73.4193
-72.5899
-71.8511
-70.8737
-69.5961
-69.3598
-69.2014
-73.3552
-73.2077
-73.3478
-73.829
-74.4181
-74.6883
-74.9039
-74.69
-74.1311
-73.7207
-73.1996
-72.6147
-72.01
-71.6004
-71.2468
-71.0723
-71.2266
-55.0944
-55.272
-55.2733
-55.4103
-55.4335
-55.4754
-55.6692
-55.7153
-55.7104
-55.7562
-56.0324
-55.9833
-56.1595
-56.071
-56.158
-56.4627
-56.4361
-56.4219
-56.4211
-56.4668
-56.3969
-57.0808
-57.0298
-56.9551
-56.953
-57.2824
-57.1118
-57.1065
-58.0002
-57.7439
-57.7278
-57.6756
-57.7556
-57.7327
-57.7457
-57.7905
-58.9752
-58.874
-58.7245
-58.695
-58.6991
-58.6443
-58.4316
-58.4049
-58.2272
-60.4678
-60.3005
-60.3119
-60.0843
-60.0144
-59.882
-59.9702
-59.8002
-59.4757
-59.2033
-62.3673
-62.3881
-61.9981
-61.8949
-61.6196
-61.2647
-61.2581
-61.4472
-60.9947
-60.5056
-60.2891
-65.0993
-65.0157
-64.4517
-64.4505
-63.9916
-63.7349
-63.7417
-63.7131
-63.3701
-62.6832
-61.8267
-60.8034
-68.6692
-68.5317
-68.3207
-67.6071
-67.3101
-67.2779
-67.4492
-67.2459
-66.8345
-65.774
-64.7841
-63.0949
-62.8508
-72.0791
-73.1816
-73.6273
-72.8589
-71.9274
-70.9794
-70.9971
-70.6862
-70.3177
-69.4899
-68.339
-66.563
-65.7865
-64.4614
-73.2204
-74.5372
-76.2755
-77.7669
-77.9358
-75.6207
-74.464
-73.7979
-72.7838
-72.294
-70.6847
-69.1445
-67.7246
-67.518
-65.5196
-73.3191
-73.6191
-74.7434
-75.8052
-76.7887
-77.3316
-76.3478
-75.4293
-74.6688
-73.7157
-72.6719
-71.3109
-69.819
-68.872
-68.3154
-68.0572
-73.4239
-73.4535
-73.4424
-74.126
-74.6528
-75.2527
-75.5272
-75.1867
-74.4947
-74.1404
-73.2972
-72.3962
-71.7345
-70.7947
-69.5229
-69.3751
-69.227
-73.2908
-73.3547
-73.1968
-73.3236
-73.8341
-74.4291
-74.696
-74.8984
-74.6828
-74.1177
-73.6891
-73.1653
-72.5642
-71.9544
-71.5728
-71.2355
-71.1029
-71.2742
-54.958
-55.1176
-55.0935
-55.2195
-55.2295
-55.2625
-55.4291
-55.5255
-55.4562
-55.515
-55.6484
-55.6685
-55.7765
-55.7825
-55.7762
-56.001
-56.0398
-56.0668
-56.1875
-56.08
-56.2289
-56.5492
-56.4234
-56.4274
-56.4253
-56.3494
-56.3971
-56.4777
-57.1836
-57.0601
-57.0146
-56.9983
-57.0372
-57.1466
-57.1185
-57.0551
-58.066
-57.9664
-57.7588
-57.8523
-57.6295
-57.8318
-57.7262
-57.7419
-57.6711
-59.2417
-59.0545
-58.9024
-58.6964
-58.7579
-58.6736
-58.659
-58.5469
-58.4547
-58.2793
-60.7167
-60.5014
-60.3511
-60.2917
-60.2009
-60.0343
-59.9985
-59.9876
-59.717
-59.3997
-59.2056
-62.5727
-62.4585
-62.3203
-62.024
-61.824
-61.5225
-61.2662
-61.5203
-61.5306
-61.1804
-60.4025
-60.139
-65.2527
-65.4048
-64.9835
-64.5835
-64.2421
-64.001
-63.5456
-63.7081
-63.9259
-63.522
-62.5005
-61.8654
-60.6614
-68.4857
-68.913
-68.9189
-68.3911
-67.6946
-67.3707
-67.4154
-67.3251
-67.2196
-66.7358
-65.6784
-65.1893
-63.105
-62.8882
-71.5069
-72.6746
-73.8078
-74.0241
-72.983
-71.8335
-70.9021
-70.8317
-70.521
-70.275
-68.8971
-68.2534
-67.1828
-66.044
-64.6763
-72.7608
-73.6748
-74.9813
-76.7188
-78.0976
-77.7607
-75.469
-74.2867
-73.5558
-72.7669
-71.9995
-70.3953
-68.7703
-67.9419
-68.2874
-65.7816
-73.187
-73.5353
-73.8753
-74.9356
-75.8554
-76.7461
-77.0563
-76.0912
-75.1363
-74.4015
-73.5023
-72.3464
-71.1081
-69.6427
-68.9047
-68.536
-68.0597
-73.3588
-73.485
-73.5074
-73.5028
-74.1647
-74.6486
-75.2088
-75.407
-75.0881
-74.3933
-74.0269
-73.1784
-72.2261
-71.6156
-70.7212
-69.4679
-69.4239
-69.2254
-73.407
-73.2949
-73.3543
-73.1857
-73.2974
-73.8347
-74.4404
-74.7076
-74.8936
-74.6753
-74.1033
-73.6618
-73.1279
-72.5251
-71.9069
-71.5487
-71.2305
-71.1434
-71.3057
-54.8945
-54.9621
-54.957
-55.1246
-55.0758
-55.1005
-55.2659
-55.3045
-55.2925
-55.2811
-55.4378
-55.4424
-55.5372
-55.4766
-55.545
-55.6754
-55.6735
-55.7419
-55.8373
-55.8146
-55.7869
-56.0897
-55.9789
-56.1049
-56.0501
-56.0243
-56.1004
-56.2523
-56.6142
-56.5353
-56.5165
-56.4293
-56.3832
-56.4475
-56.5229
-56.442
-57.2009
-57.204
-57.0385
-57.0551
-57.0417
-57.1292
-57.0942
-57.0681
-57.0978
-58.2008
-58.0384
-57.8153
-57.6652
-57.7275
-57.7078
-57.8036
-57.7802
-57.7165
-57.5543
-59.3135
-58.9361
-58.9347
-58.8195
-58.7892
-58.8772
-58.7024
-58.793
-58.5633
-58.4866
-58.3425
-60.9692
-60.6519
-60.7163
-60.5318
-60.2982
-60.0633
-60.127
-60.146
-60.0244
-59.7732
-59.3031
-59.1481
-62.7855
-62.6218
-62.5995
-62.2161
-61.9025
-61.7036
-61.5567
-61.4266
-61.5129
-61.507
-61.147
-60.2052
-59.9296
-65.1176
-65.3979
-65.2784
-64.9212
-64.5357
-64.2787
-64.0914
-63.8508
-63.7381
-63.5058
-63.4596
-62.165
-61.9744
-60.7102
-68.1238
-68.9657
-69.0943
-69.2885
-68.5969
-67.8085
-67.3602
-67.3719
-67.3939
-66.9022
-66.3235
-65.5282
-65.4813
-63.5796
-63.0701
-71.2165
-72.0016
-73.195
-74.2916
-74.3278
-73.0011
-71.726
-70.7734
-70.7405
-70.9688
-70.2245
-68.7239
-68.1055
-67.6886
-66.5003
-64.8098
-72.3096
-73.17
-74.0946
-75.3937
-76.9795
-78.0105
-77.421
-75.2943
-73.9439
-73.3395
-72.759
-71.8675
-70.0348
-68.1979
-68.1075
-68.8909
-65.9733
-73.0707
-73.4039
-73.7528
-74.1283
-75.0715
-75.8439
-76.6066
-76.7239
-75.9283
-74.8323
-74.1643
-73.2845
-72.1589
-70.9331
-69.499
-68.9272
-68.7994
-68.0705
-73.3505
-73.4336
-73.5345
-73.5574
-73.5451
-74.197
-74.6264
-75.1361
-75.2844
-74.9811
-74.2913
-73.9198
-73.0509
-72.0666
-71.4821
-70.6421
-69.4243
-69.4864
-69.2443
-73.3339
-73.4156
-73.2982
-73.3524
-73.1756
-73.2721
-73.8312
-74.452
-74.7238
-74.8905
-74.6663
-74.0862
-73.6366
-73.0844
-72.4946
-71.8694
-71.5301
-71.2181
-71.1992
-71.3061
-54.7176
-54.8523
-54.8985
-54.9802
-54.9671
-54.9543
-55.1145
-55.083
-55.0832
-55.1284
-55.3002
-55.3047
-55.3218
-55.308
-55.2989
-55.4791
-55.4493
-55.4909
-55.5852
-55.5792
-55.5415
-55.7982
-55.6681
-55.6839
-55.7758
-55.7342
-55.7834
-55.8078
-56.2115
-56.0053
-56.109
-56.0772
-55.9995
-56.314
-56.2689
-56.244
-56.6415
-56.6015
-56.5686
-56.4707
-56.4417
-56.467
-56.4715
-56.4156
-56.4658
-57.3328
-57.2179
-57.1686
-57.064
-57.0704
-57.0638
-57.1292
-57.0193
-57.0761
-57.1056
-58.1527
-58.0701
-57.9387
-57.9592
-57.6671
-57.6956
-57.6564
-57.8755
-57.8479
-57.7425
-57.493
-59.4125
-59.3348
-59.0476
-58.8942
-58.8098
-58.8519
-58.8935
-58.6642
-58.8029
-58.5903
-58.3862
-58.3386
-61.0468
-60.7987
-60.7325
-60.5633
-60.4891
-60.4419
-60.1921
-60.1257
-60.1015
-60.117
-59.7471
-59.0576
-58.9052
-62.9908
-62.7309
-62.7733
-62.4608
-62.1192
-61.9626
-61.6837
-61.6779
-61.4938
-61.6729
-61.5417
-60.9646
-60.2027
-59.8386
-65.1818
-65.3429
-65.4418
-65.3109
-64.8904
-64.625
-64.3229
-64.1795
-64.0189
-63.7763
-63.7167
-63.5645
-62.3546
-61.9188
-60.736
-68.0101
-68.6321
-69.2211
-69.4258
-69.2871
-68.8189
-67.7878
-67.3183
-67.2272
-67.3842
-66.9295
-66.3358
-65.785
-65.281
-63.2587
-63.0543
-70.7537
-71.6881
-72.4932
-73.6933
-74.664
-74.4698
-72.8659
-71.4698
-70.6858
-70.5113
-70.5523
-69.9323
-68.8675
-68.7525
-68.1487
-67.121
-64.8201
-71.9314
-72.6686
-73.5894
-74.4998
-75.7351
-77.097
-77.8226
-77.1359
-75.1769
-73.6151
-73.2372
-72.5964
-71.6547
-69.7772
-68.8913
-68.3224
-69.4691
-66.1371
-72.8887
-73.3439
-73.5734
-73.9636
-74.3558
-75.1402
-75.7975
-76.437
-76.3366
-75.6566
-74.5426
-73.9355
-73.1372
-72.0298
-70.7843
-69.5302
-68.9023
-69.0353
-68.0735
-73.3044
-73.403
-73.5043
-73.5778
-73.5985
-73.5761
-74.2074
-74.5879
-75.0331
-75.1665
-74.863
-74.1883
-73.8185
-72.9183
-71.8861
-71.3457
-70.5705
-69.3967
-69.5301
-69.2358
-73.4643
-73.3493
-73.4261
-73.3013
-73.3484
-73.1706
-73.2514
-73.8252
-74.4649
-74.739
-74.8894
-74.6563
-74.0675
-73.6084
-73.0381
-72.4886
-71.8394
-71.5153
-71.2122
-71.2522
-71.3031
-54.5767
-54.7469
-54.7103
-54.915
-54.8429
-54.8989
-54.9648
-54.9538
-54.9823
-54.9893
-55.1259
-55.1213
-55.187
-55.1288
-55.1335
-55.3348
-55.3166
-55.3177
-55.3329
-55.3469
-55.3562
-55.6354
-55.4822
-55.4689
-55.4769
-55.6613
-55.6039
-55.5475
-55.8564
-55.8328
-55.7703
-55.7785
-55.7197
-55.7183
-55.8047
-55.7758
-56.296
-56.1974
-56.3653
-56.1164
-56.0404
-56.1409
-56.2837
-56.197
-56.2843
-56.7979
-56.6801
-56.4891
-56.5619
-56.5168
-56.4709
-56.4882
-56.4576
-56.4862
-56.4873
-57.4159
-57.3696
-57.2442
-57.1163
-57.053
-57.0545
-57.0106
-56.9657
-57.0309
-57.0323
-57.0703
-58.3102
-58.2251
-58.0452
-57.8976
-57.8971
-57.7825
-57.7577
-57.7723
-57.9048
-57.7498
-57.6951
-57.486
-59.5376
-59.4469
-59.2647
-59.0792
-58.9219
-58.8859
-58.7315
-58.4947
-58.794
-58.8306
-58.5829
-58.2847
-58.2569
-61.1619
-61.0361
-60.8208
-60.7321
-60.4854
-60.4402
-60.3464
-60.147
-60.0808
-60.0767
-59.9837
-59.6752
-58.9532
-58.8134
-63.0865
-62.9332
-62.9106
-62.567
-62.3458
-62.0154
-61.7631
-61.6995
-61.76
-61.7213
-61.7365
-61.4851
-61.1102
-60.2142
-59.958
-64.9082
-65.3332
-65.6891
-65.5329
-65.2321
-64.8516
-64.5242
-64.3801
-64.1894
-64.0763
-63.8896
-63.6516
-63.5722
-62.1803
-61.6624
-60.8053
-67.8819
-68.4236
-68.9293
-69.4928
-69.6398
-69.5925
-68.9257
-67.8145
-67.3055
-67.3442
-67.4464
-66.7779
-66.5221
-65.9949
-65.163
-63.1969
-62.9152
-70.4194
-71.2859
-72.1962
-72.9667
-74.2268
-75.0041
-74.5301
-72.6399
-71.0897
-70.5023
-70.3869
-70.6534
-69.6209
-68.8475
-68.74
-68.6852
-67.7108
-64.9257
-71.7267
-72.2545
-73.0253
-73.9792
-74.8722
-75.9914
-77.1108
-77.5257
-76.5603
-74.8994
-73.4456
-73.1261
-72.6697
-71.5699
-69.6111
-68.7775
-68.6456
-69.9447
-66.3315
-72.7368
-73.0782
-73.5316
-73.7653
-74.1658
-74.5487
-75.1676
-75.7183
-76.204
-75.9935
-75.2172
-74.2771
-73.7509
-73.0093
-71.9651
-70.6508
-69.4936
-68.9172
-69.1872
-68.0904
-73.2172
-73.376
-73.4472
-73.5593
-73.6168
-73.6325
-73.603
-74.1987
-74.5295
-74.916
-75.0518
-74.7483
-74.0874
-73.7204
-72.7681
-71.6928
-71.2182
-70.5013
-69.3674
-69.4971
-69.2746
-73.4718
-73.4952
-73.3648
-73.4361
-73.3047
-73.3421
-73.1682
-73.2366
-73.8172
-74.4797
-74.7506
-74.8898
-74.6471
-74.0493
-73.5766
-72.996
-72.5084
-71.8179
-71.5042
-71.172
-71.2639
-71.3066
-54.4875
-54.623
-54.5876
-54.7571
-54.7
-54.7289
-54.8772
-54.9019
-54.8554
-54.9316
-54.9924
-54.9613
-54.9934
-54.9924
-55.0284
-55.1458
-55.1738
-55.1644
-55.225
-55.1415
-55.1804
-55.4216
-55.317
-55.3191
-55.3354
-55.3437
-55.3749
-55.3858
-55.6321
-55.6547
-55.5269
-55.5232
-55.5374
-55.4401
-55.499
-55.4889
-55.9399
-55.9111
-55.8849
-55.8322
-55.7507
-55.7368
-55.8775
-55.8082
-55.8173
-56.3741
-56.3068
-56.2597
-56.2245
-56.1064
-56.0891
-56.1822
-56.2399
-56.302
-56.3052
-56.9495
-56.8465
-56.7209
-56.5855
-56.5383
-56.5496
-56.5094
-56.3999
-56.4782
-56.4942
-56.5529
-57.6612
-57.5145
-57.3374
-57.1959
-57.1713
-57.0287
-57.0618
-57.0208
-57.0325
-57.0354
-57.0011
-56.9602
-58.5662
-58.3901
-58.1863
-58.1829
-57.9212
-57.7481
-57.7185
-57.7413
-57.8204
-57.7963
-57.747
-57.5577
-57.5275
-59.6377
-59.5872
-59.4388
-59.3089
-59.0466
-58.7774
-58.8567
-58.7103
-58.7238
-58.8471
-58.7892
-58.4887
-58.0975
-58.021
-61.1833
-61.2561
-60.9698
-60.8777
-60.775
-60.4805
-60.5318
-60.3302
-60.1148
-59.9778
-60.0218
-59.9975
-59.4378
-58.9274
-58.8967
-62.9891
-63.1164
-63.201
-62.8912
-62.5684
-62.2851
-62.0059
-61.7022
-61.7105
-61.7413
-61.7187
-61.705
-61.3599
-61.1464
-60.2114
-59.9461
-65.0879
-65.0512
-65.4993
-65.72
-65.5936
-65.2671
-65.0836
-64.542
-64.4616
-64.2867
-64.1569
-63.8225
-63.7891
-63.3273
-62.3037
-61.6182
-60.7858
-67.594
-68.1911
-68.6896
-69.1705
-69.8026
-69.9858
-69.5759
-68.595
-67.7452
-67.2665
-67.3403
-67.614
-67.0631
-66.6714
-66.1168
-64.9949
-63.5103
-62.9082
-70.1618
-70.9129
-71.7698
-72.7034
-73.5716
-74.6154
-75.0415
-74.6242
-72.1418
-70.7286
-70.3416
-70.4293
-70.5546
-69.4784
-68.6078
-68.469
-68.7685
-68.136
-65.5564
-71.4707
-72.0103
-72.5762
-73.3606
-74.3735
-75.1956
-76.1426
-76.9594
-77.1671
-75.7865
-74.4391
-73.1905
-73.1354
-72.5337
-71.4395
-69.7399
-68.6172
-68.6798
-70.1096
-66.5503
-72.6045
-72.9132
-73.3081
-73.6919
-73.967
-74.3442
-74.6889
-75.1546
-75.5908
-75.8991
-75.7006
-74.8463
-74.0777
-73.6224
-72.8814
-71.9665
-70.597
-69.412
-68.9002
-69.3319
-68.0962
-73.2031
-73.319
-73.4444
-73.4847
-73.5924
-73.6437
-73.6636
-73.6181
-74.1651
-74.4556
-74.8034
-74.9401
-74.6496
-73.9977
-73.6223
-72.6205
-71.5182
-71.1174
-70.449
-69.3218
-69.5091
-69.3512
-71.3583
-73.604
-73.4951
-73.5282
-73.3833
-73.4441
-73.3077
-73.3352
-73.1689
-73.2334
-73.8091
-74.4953
-74.7642
-74.8919
-74.641
-74.0325
-73.5476
-72.9552
-72.5137
-71.804
-71.5023
-71.1279
-71.2924
-71.3192
-54.4316
-54.4994
-54.5038
-54.6069
-54.615
-54.5816
-54.7876
-54.7202
-54.7153
-54.6716
-54.8738
-54.8455
-54.9312
-54.9193
-54.9126
-55.0121
-54.9987
-54.9717
-54.9892
-55.0987
-55.0652
-55.2451
-55.2372
-55.1683
-55.2139
-55.1903
-55.1663
-55.1929
-55.4795
-55.4268
-55.3737
-55.3277
-55.3326
-55.3601
-55.4215
-55.3461
-55.6985
-55.6131
-55.451
-55.5634
-55.5771
-55.4898
-55.6313
-55.5284
-55.563
-55.9891
-55.9905
-55.855
-55.9278
-55.788
-55.733
-55.7408
-55.7787
-55.8766
-55.8387
-56.5844
-56.4603
-56.3193
-56.2422
-56.1398
-56.1593
-56.141
-56.1783
-56.2059
-56.2887
-56.3208
-57.1459
-56.8993
-56.8442
-56.7036
-56.6317
-56.5677
-56.5264
-56.3969
-56.4785
-56.4973
-56.598
-56.5902
-57.7981
-57.6657
-57.5378
-57.3138
-57.2528
-57.1008
-57.1108
-57.0449
-56.9598
-57.0753
-57.0305
-56.9693
-56.9776
-58.7179
-58.611
-58.3595
-58.2017
-58.2183
-57.8542
-57.8152
-57.6797
-57.6795
-57.8263
-57.8302
-57.6366
-57.4422
-57.4139
-59.7796
-59.8064
-59.5837
-59.5962
-59.2353
-59.1575
-58.8873
-58.7622
-58.8352
-58.7057
-58.7898
-58.7485
-58.4613
-58.1197
-57.9932
-61.4479
-61.3067
-61.0692
-61.1254
-60.9736
-60.7942
-60.8405
-60.4082
-60.3227
-59.9909
-59.9713
-59.975
-59.8112
-59.3896
-58.823
-58.8165
-63.0269
-63.0918
-63.2669
-63.3173
-62.867
-62.6468
-62.2462
-61.8266
-61.7153
-61.7355
-61.8412
-61.7907
-61.6872
-61.1901
-60.7334
-59.8873
-59.9422
-64.9817
-64.9872
-65.4027
-65.7417
-65.678
-65.5163
-65.362
-64.9953
-64.5967
-64.4776
-64.2874
-63.9998
-64.2286
-63.7614
-63.5038
-62.2062
-61.7522
-60.6372
-67.3743
-67.9588
-68.7027
-68.9471
-69.5962
-70.1333
-70.1908
-69.8089
-68.4405
-67.5749
-67.2457
-67.4807
-67.5497
-67.8921
-66.589
-66.2827
-65.0934
-63.8912
-63.2337
-69.8708
-70.4397
-71.3297
-72.2871
-73.2686
-74.024
-74.9111
-75.0385
-74.2511
-71.8937
-70.6993
-70.0326
-70.2752
-70.2876
-69.6361
-68.4775
-68.5299
-68.625
-68.6356
-65.495
-71.261
-71.7436
-72.3099
-72.8726
-73.7178
-74.7023
-75.4241
-76.1575
-76.7788
-76.5205
-75.338
-73.8478
-72.9153
-73.0827
-72.3957
-71.3983
-69.7618
-68.7195
-68.5318
-70.4782
-66.8809
-72.1107
-72.7768
-73.0993
-73.5353
-73.9107
-74.1375
-74.4904
-74.7651
-75.1199
-75.4368
-75.5664
-75.3667
-74.539
-73.9614
-73.5569
-72.8063
-71.9044
-70.5304
-69.3338
-68.8303
-69.3752
-68.0877
-69.6593
-72.9215
-73.3463
-73.416
-73.5125
-73.5198
-73.611
-73.6613
-73.6854
-73.608
-74.1126
-74.3722
-74.7034
-74.8437
-74.5811
-73.9359
-73.5385
-72.4613
-71.3249
-71.056
-70.4123
-69.294
-69.491
-69.4414
-71.3355
-71.3357
-73.7641
-73.6518
-73.5171
-73.5589
-73.4024
-73.4509
-73.3103
-73.3286
-73.1754
-73.2461
-73.8016
-74.5074
-74.7833
-74.8967
-74.6403
-74.0201
-73.5186
-72.9142
-72.5151
-71.7989
-71.506
-71.1447
-71.378
-54.3171
-54.4118
-54.4303
-54.5013
-54.5162
-54.4734
-54.6794
-54.5983
-54.6171
-54.6093
-54.7752
-54.7634
-54.7215
-54.7592
-54.7588
-54.9501
-54.8547
-54.8329
-54.9149
-54.8951
-54.923
-55.1417
-55.0001
-55.022
-55.0594
-55.0376
-55.096
-55.1188
-55.2961
-55.2205
-55.1807
-55.2309
-55.1938
-55.204
-55.1961
-55.2026
-55.5617
-55.4533
-55.3945
-55.3892
-55.3665
-55.3769
-55.4165
-55.4024
-55.334
-55.7837
-55.6633
-55.6461
-55.615
-55.6063
-55.5637
-55.5032
-55.5882
-55.5516
-55.6321
-56.2148
-56.0903
-56.0454
-55.8727
-55.838
-55.7972
-55.7835
-55.8112
-55.8717
-55.9837
-55.8982
-56.5999
-56.5757
-56.4488
-56.3853
-56.2241
-56.1885
-56.1621
-56.1474
-56.1269
-56.2068
-56.2526
-56.2488
-57.2977
-57.1141
-56.9695
-56.7205
-56.7148
-56.6396
-56.6055
-56.5479
-56.4209
-56.4962
-56.5373
-56.584
-56.5832
-57.9187
-57.8321
-57.683
-57.5038
-57.3888
-57.261
-57.1639
-57.1095
-57.0142
-57.0693
-56.9981
-56.9765
-56.9471
-56.9162
-58.8673
-58.7665
-58.5997
-58.3434
-58.2565
-58.1303
-57.8589
-57.8242
-57.6219
-57.7704
-57.7546
-57.7575
-57.571
-57.4403
-57.4017
-59.9358
-59.93
-59.7041
-59.6876
-59.5368
-59.1236
-59.2091
-59.008
-58.8799
-58.7761
-58.7037
-58.7122
-58.7337
-58.3427
-57.9414
-57.9702
-61.3796
-61.4789
-61.3968
-61.3203
-61.1058
-60.9875
-60.708
-60.6114
-60.4105
-60.1024
-59.9946
-60.015
-59.8762
-59.6204
-59.1962
-58.7304
-58.7867
-62.9871
-63.116
-63.3906
-63.3964
-63.2715
-62.9283
-62.6032
-62.2344
-61.9741
-61.8499
-61.9229
-61.9493
-61.8098
-61.5793
-60.9713
-60.8179
-60.0788
-59.9709
-64.7104
-64.809
-65.3156
-65.4898
-65.7349
-65.8032
-65.6969
-65.2094
-64.9802
-64.6009
-64.41
-64.3134
-64.1512
-64.3646
-63.7916
-63.5875
-62.0436
-61.7288
-60.5341
-67.2678
-67.8621
-68.4489
-68.8678
-69.3041
-70.0622
-70.4022
-70.3221
-69.4521
-68.2257
-67.4422
-67.3409
-67.616
-67.6959
-67.7129
-66.8147
-66.172
-65.3238
-63.8495
-63.2228
-69.8592
-70.1576
-70.7201
-71.7537
-72.7878
-73.6899
-74.3971
-75.0984
-75.1121
-73.7796
-71.6746
-70.2937
-69.7747
-70.3288
-70.4272
-69.3669
-68.6263
-68.6478
-68.6848
-68.5626
-65.5918
-70.9432
-71.4921
-72.0618
-72.6234
-73.1894
-74.0815
-74.9929
-75.5936
-76.0693
-76.663
-75.8184
-74.9535
-73.2713
-72.7544
-73.0386
-72.0914
-71.3194
-69.7188
-68.6956
-68.4701
-70.6062
-67.2419
-68.3227
-71.5622
-72.2954
-72.9424
-73.2988
-73.7685
-74.087
-74.2935
-74.5982
-74.7912
-75.0199
-75.2404
-75.2327
-75.012
-74.3499
-73.9611
-73.5583
-72.7738
-71.8015
-70.388
-69.2499
-68.7183
-69.2791
-68.1624
-69.5171
-69.538
-72.6877
-73.0427
-73.4965
-73.5233
-73.5818
-73.5512
-73.6297
-73.6747
-73.6893
-73.5747
-74.0447
-74.2806
-74.6016
-74.7716
-74.5674
-73.909
-73.4643
-72.289
-71.1361
-71.0581
-70.4209
-69.2624
-69.4239
-71.2849
-71.3971
-73.5739
-73.8344
-73.7036
-73.5368
-73.5868
-73.42
-73.4567
-73.3124
-73.322
-73.1849
-73.2614
-73.7946
-74.5153
-74.8084
-74.9047
-74.6427
-74.0148
-73.4999
-72.8785
-72.5173
-71.8029
-71.5133
-71.1944
-54.3
-54.2989
-54.462
-54.4258
-54.4933
-54.561
-54.5022
-54.4761
-54.4848
-54.7112
-54.6456
-54.5833
-54.6305
-54.6685
-54.8063
-54.7333
-54.7722
-54.7996
-54.7689
-54.7858
-54.9162
-54.8726
-54.8996
-54.8698
-54.9144
-54.9255
-54.9349
-55.1869
-55.098
-55.0434
-55.0095
-55.0612
-55.0759
-55.117
-55.1103
-55.3509
-55.2734
-55.2261
-55.2566
-55.2609
-55.2242
-55.2329
-55.227
-55.2262
-55.6254
-55.5075
-55.4496
-55.4579
-55.4079
-55.3926
-55.4266
-55.4417
-55.3492
-55.3916
-55.9323
-55.7557
-55.7903
-55.7212
-55.6214
-55.5682
-55.5778
-55.5248
-55.5827
-55.6068
-55.6336
-56.2446
-56.2698
-56.1478
-56.0402
-55.8546
-55.8664
-55.8262
-55.8377
-55.8433
-55.8894
-55.8935
-55.9011
-56.8334
-56.6731
-56.5695
-56.4322
-56.3467
-56.2885
-56.2083
-56.2115
-56.0954
-56.1227
-56.1732
-56.2908
-56.2508
-57.3805
-57.307
-57.0686
-56.9759
-56.7741
-56.7551
-56.6618
-56.6295
-56.5352
-56.5283
-56.5908
-56.5679
-56.5756
-56.6224
-58.032
-58.0208
-57.7826
-57.6224
-57.491
-57.3661
-57.2574
-57.1864
-56.9951
-57.1279
-57.0007
-56.9811
-56.9536
-56.8248
-56.8652
-59.1023
-58.9089
-58.8085
-58.5296
-58.3798
-58.1263
-57.9064
-57.9521
-57.8341
-57.7893
-57.7032
-57.7822
-57.7428
-57.5157
-57.4147
-57.3435
-60.0323
-60.0182
-59.9706
-59.8866
-59.6984
-59.3173
-59.1072
-59.1297
-59.0093
-58.9229
-58.7701
-58.7193
-58.7233
-58.5455
-58.3098
-57.9627
-57.9761
-61.4254
-61.6177
-61.3728
-61.3754
-61.3419
-61.0315
-60.8667
-60.594
-60.5305
-60.3595
-60.1053
-59.9602
-59.9427
-59.8949
-59.5816
-59.1648
-58.7524
-58.727
-63.0152
-63.1659
-63.1995
-63.4891
-63.4895
-63.3116
-62.9042
-62.5171
-62.2958
-62.0161
-61.9042
-61.9728
-61.7009
-61.683
-61.5187
-60.9711
-60.494
-59.9856
-59.8171
-64.6422
-64.9128
-65.0158
-65.4487
-65.5752
-65.8732
-65.7912
-65.7764
-65.2567
-64.9651
-64.6114
-64.3388
-64.3921
-64.3054
-63.5498
-63.7546
-63.3524
-62.0038
-61.385
-60.3505
-66.9721
-67.3533
-67.8203
-68.6424
-69.2811
-69.5587
-70.2302
-70.5311
-70.333
-69.0863
-68.1482
-67.4444
-67.4553
-67.7054
-67.7377
-67.0662
-66.5458
-66.1606
-65.3061
-64.101
-63.1104
-69.3579
-69.8487
-70.4849
-71.1662
-72.1691
-73.1495
-74.0862
-74.9655
-75.1768
-74.8051
-73.0908
-71.434
-69.998
-69.7069
-70.4424
-70.2598
-69.1318
-68.3166
-68.6674
-68.6611
-67.9994
-65.8798
-68.1097
-69.8688
-70.9188
-71.6204
-72.406
-73.0107
-73.4536
-74.4112
-75.2923
-75.6951
-75.9571
-76.1989
-75.2981
-74.2537
-72.9032
-72.7228
-73.0145
-72.0611
-71.2172
-69.6001
-68.5986
-68.1867
-70.0985
-67.625
-68.9634
-68.2751
-70.9753
-71.7557
-72.4853
-73.127
-73.509
-73.998
-74.2486
-74.4338
-74.6691
-74.7692
-74.8627
-75.0195
-74.9361
-74.7281
-74.2738
-74.0707
-73.595
-72.724
-71.665
-70.2097
-69.1266
-68.5599
-69.1986
-69.1136
-69.4436
-72.1683
-72.794
-73.1761
-73.6536
-73.6306
-73.6462
-73.5787
-73.6432
-73.6897
-73.6786
-73.5166
-73.9598
-74.1785
-74.528
-74.7334
-74.5996
-73.9133
-73.4023
-72.1225
-70.9671
-71.0383
-70.4681
-69.1942
-71.5379
-71.2351
-73.6072
-73.215
-73.9005
-73.7419
-73.5472
-73.6128
-73.437
-73.4616
-73.3143
-73.3176
-73.1951
-73.2743
-73.7888
-74.5252
-74.8319
-74.9155
-74.65
-74.0176
-73.4773
-72.8509
-72.4998
-71.8188
-71.5199
-54.2731
-54.3218
-54.2767
-54.4299
-54.5158
-54.4123
-54.5334
-54.5391
-54.5749
-54.4476
-54.5003
-54.5129
-54.738