/*--------------------------------*- C++ -*----------------------------------*\
  =========                 |
  \\      /  F ield         | OpenFOAM: The Open Source CFD Toolbox
   \\    /   O peration     | Website:  https://openfoam.org
    \\  /    A nd           | Version:  7
     \\/     M anipulation  |
\*---------------------------------------------------------------------------*/
FoamFile
{
    version     2.0;
    format      ascii;
    class       volVectorField;
    location    "6.5";
    object      U;
}
// * * * * * * * * * * * * * * * * * * * * * * * * * * * * * * * * * * * * * //

dimensions      [0 1 -1 0 0 0 0];

internalField   nonuniform List<vector> 
18750
(
(1.97016 0.0622853 -0.175665)
(-0.103106 -1.9344 -0.326936)
(1.32569 -0.145373 -1.21509)
(1.99665 -0.0674595 -0.171481)
(2.46902 -2.28583 -1.47469)
(-0.124414 -1.29168 0.51476)
(-0.0354957 -2.26382 -0.423634)
(1.34783 -0.946588 -1.46993)
(1.33212 -0.14323 -1.18334)
(2.08293 -0.0590068 -0.170519)
(3.67483 -3.75012 0.0328808)
(1.00491 -2.08722 0.646506)
(2.36539 -2.8384 -1.47811)
(0.804131 -0.823536 -0.44351)
(-0.0532217 -1.55816 0.543665)
(0.0718336 -2.55929 -0.466213)
(0.902055 -1.15406 -1.72009)
(1.31246 -1.18799 -1.32664)
(1.35528 -0.163378 -1.13954)
(2.09265 -0.0589605 -0.136393)
(4.67126 -2.38319 0.994562)
(3.24291 -1.65449 -0.604675)
(3.55331 -3.47159 0.43602)
(0.565033 -2.46419 -0.177216)
(1.10684 -2.17603 0.695074)
(2.28043 -2.93654 -1.39953)
(0.650685 -1.19288 -0.917342)
(0.883515 -0.648358 -0.596858)
(-0.0149419 -1.77395 0.50459)
(0.160424 -2.63236 -0.648499)
(0.292929 -0.452721 -1.57896)
(0.88803 -1.13482 -1.79188)
(1.32975 -1.13993 -1.31792)
(1.37978 -0.199566 -1.10211)
(2.1403 -0.186263 -0.133777)
(3.59842 0.735324 0.116145)
(3.61218 -2.22541 2.1527)
(4.53914 -1.95889 0.575873)
(2.01984 -0.906461 -1.22493)
(2.88196 -1.80491 -0.651615)
(3.50281 -3.26862 0.584051)
(1.15602 -1.8403 -0.706014)
(0.231513 -2.6885 0.0090386)
(1.16516 -2.15791 0.64341)
(2.09725 -2.92691 -1.06363)
(0.215064 -0.906286 -0.87775)
(0.698846 -1.1616 -0.855766)
(0.967181 -0.485873 -0.785236)
(0.0994968 -1.68457 0.166335)
(0.366555 -2.2619 -1.08815)
(0.130432 -0.213491 -1.1579)
(0.316996 -0.468862 -1.58859)
(0.876624 -1.19423 -1.73152)
(1.2836 -1.1306 -1.27999)
(1.42352 -0.197664 -1.07588)
(2.18431 -0.196258 -0.121993)
(3.41433 1.37301 0.357473)
(4.45284 -0.990423 2.54401)
(3.50212 0.0880182 -0.0735255)
(4.23352 -1.92525 -0.350301)
(3.42884 -2.41129 1.89523)
(4.4406 -1.47326 0.404373)
(1.84402 -0.909132 -0.654448)
(2.04697 -1.08167 -1.35865)
(2.66888 -1.89575 -0.658981)
(3.18055 -3.30004 0.532029)
(1.59648 -1.56737 -0.921107)
(1.01659 -2.16595 -0.234911)
(0.367612 -2.59962 6.41523e-05)
(1.30176 -1.95817 0.313647)
(2.17617 -2.67194 -0.779702)
(-0.185084 -0.336758 -0.938877)
(0.25259 -0.964916 -0.838408)
(0.765965 -1.09927 -0.872296)
(1.04693 -0.465178 -0.825282)
(0.29262 -1.36174 -0.214209)
(0.576562 -1.81742 -1.37217)
(-0.25005 0.0201275 -0.994056)
(0.141654 -0.281832 -1.15206)
(0.34492 -0.493178 -1.58541)
(0.851298 -1.25969 -1.6596)
(1.28031 -1.00315 -1.28227)
(1.43151 -0.217752 -1.06347)
(2.16711 -0.314105 -0.103161)
(2.7392 1.8438 -0.335405)
(4.40995 -0.0318914 0.516896)
(3.17139 1.11236 0.120965)
(4.24686 -2.54754 1.91121)
(4.16627 -1.54382 1.9361)
(3.31882 0.604293 -0.20145)
(3.02797 -2.39432 0.121229)
(3.42134 -2.72791 0.35939)
(3.28018 -2.90652 1.6121)
(4.65204 -0.171389 0.118737)
(2.14007 -1.13306 -0.39083)
(1.95038 -1.31589 -0.579066)
(2.02841 -1.0374 -1.2549)
(2.43454 -2.60234 -0.304153)
(2.54211 -3.42706 0.164525)
(1.36131 -0.385691 0.0538821)
(1.63889 -1.66748 -0.685549)
(0.871659 -2.40641 0.0956567)
(0.202238 -2.60552 -0.0036429)
(1.50804 -1.71314 -0.00139539)
(2.09035 -2.58009 -0.415762)
(-0.167246 -0.195609 -0.683528)
(-0.169974 -0.4186 -0.97823)
(0.283084 -1.04787 -0.849093)
(0.884897 -1.00892 -0.951407)
(1.10943 -0.511117 -0.783259)
(0.516282 -1.02268 -0.51796)
(0.759159 -1.43732 -1.53803)
(-0.287822 0.273057 -0.761965)
(-0.243921 -0.052003 -0.993555)
(0.148323 -0.324614 -1.17082)
(0.35623 -0.541618 -1.6348)
(0.836235 -1.32313 -1.60519)
(1.29407 -0.981364 -1.23311)
(1.45611 -0.228907 -1.03871)
(2.15102 -0.385683 -0.0874853)
(2.48922 1.63042 -0.203264)
(3.65651 -0.126141 0.740904)
(2.87682 1.72376 -0.32382)
(4.02674 -0.724459 1.16955)
(4.27866 -0.186193 0.637351)
(2.97878 0.692458 0.158036)
(4.26974 -1.7702 2.18729)
(4.1585 -1.30983 2.14446)
(4.04806 -2.11184 1.83295)
(3.70821 0.460167 -0.503054)
(2.87524 -0.123522 0.705482)
(3.47754 -2.11733 -0.582058)
(3.028 -2.779 0.925484)
(3.24346 -3.75027 1.61903)
(4.25188 0.00938742 -0.0634352)
(2.21223 -0.808508 -0.443483)
(2.01755 -1.23073 -0.373155)
(1.96743 -1.54835 -0.221259)
(2.08695 -1.04535 -1.15639)
(2.05011 -3.31237 0.352292)
(2.8496 -2.72741 0.273906)
(1.12535 -0.12927 -0.299591)
(1.33379 -0.671627 -0.225862)
(1.52001 -1.74019 -0.567675)
(0.760032 -2.48832 0.204139)
(0.168131 -2.47366 -0.170639)
(1.86376 -1.38281 -0.577311)
(1.98314 -2.4859 -1.5873e-05)
(-0.020945 0.210331 -0.571626)
(-0.163016 -0.29721 -0.751421)
(-0.17089 -0.466984 -1.05318)
(0.312529 -1.08179 -0.955003)
(0.94475 -1.05426 -0.951763)
(1.15347 -0.615819 -0.606392)
(0.7039 -0.785289 -0.660957)
(0.937149 -1.08226 -1.53109)
(-0.279447 0.0477373 -0.788325)
(-0.271729 0.351925 -0.71176)
(-0.240603 -0.0913748 -0.998632)
(0.159612 -0.360975 -1.20476)
(0.360051 -0.581034 -1.71612)
(0.8153 -1.37099 -1.54905)
(1.26432 -1.04691 -1.15751)
(1.46026 -0.216007 -1.04676)
(2.1538 -0.398534 -0.0243712)
(2.48176 1.0114 0.110137)
(2.95937 1.43442 0.182602)
(2.65453 1.29848 -0.339733)
(3.74057 -0.462869 0.644371)
(3.73138 -0.0565849 0.750579)
(2.90516 1.54813 0.0405213)
(4.19431 -0.461765 1.48922)
(3.9925 -0.6403 1.08311)
(4.09902 -0.321345 0.443701)
(2.88728 0.383834 0.247242)
(4.24359 -1.33179 2.49014)
(4.01056 -2.02401 2.26537)
(3.89164 -1.84311 2.18851)
(3.82369 -2.32915 1.73744)
(4.01288 1.13078 -0.792762)
(2.82766 -0.529975 0.876105)
(2.8567 -0.914885 0.971467)
(3.35312 -2.62909 0.0211685)
(3.14237 -2.61487 2.47655)
(3.4884 -3.83164 1.82209)
(3.53541 -1.00906 -0.0365211)
(2.78832 0.449917 0.0723783)
(2.1596 -0.922068 -0.737437)
(1.98899 -1.29149 -0.358037)
(2.00911 -1.65309 0.253844)
(2.16515 -1.1338 -0.932471)
(1.76322 -3.69893 1.55536)
(2.9201 -2.51703 0.0362156)
(1.53559 0.157551 0.109421)
(1.09087 -0.254447 -0.368861)
(1.30459 -0.825459 -0.321466)
(1.42037 -1.71203 -0.577349)
(0.74044 -2.51502 0.0769917)
(0.473253 -2.05329 -0.462369)
(1.98191 -1.29188 -0.706441)
(1.9608 -2.43241 0.316386)
(0.0938883 -0.304465 -0.717847)
(-0.0495917 0.0611363 -0.675692)
(-0.165551 -0.371225 -0.819774)
(-0.157279 -0.498405 -1.1298)
(0.327376 -1.12693 -1.07109)
(0.954601 -1.1966 -0.837378)
(1.17823 -0.733602 -0.390345)
(0.98506 -0.500569 -0.740856)
(1.03949 -0.898444 -1.23036)
(-0.0125171 0.0636757 -0.832815)
(-0.272361 0.0107328 -0.806984)
(-0.262998 0.269223 -0.744533)
(-0.232826 -0.121602 -0.992211)
(0.168506 -0.38309 -1.25756)
(0.360835 -0.62812 -1.77644)
(0.810818 -1.30211 -1.54913)
(1.2866 -0.89078 -1.17135)
(1.453 -0.190702 -1.0525)
(2.15478 -0.42267 0.0525235)
(2.02742 1.52568 -0.00214708)
(2.67111 0.78934 -0.0355713)
(2.57531 0.692534 0.198894)
(3.33957 0.0404094 0.406956)
(3.17018 0.489857 0.220066)
(2.80771 0.994448 -0.355259)
(3.51865 -0.489934 1.10033)
(3.68138 -0.256314 0.621426)
(3.6864 -0.259609 0.68895)
(3.03421 0.998006 0.295691)
(4.12237 -0.493736 1.80829)
(4.05325 -0.741279 1.42436)
(3.98733 -0.733421 1.09276)
(4.00422 -0.427512 0.220362)
(2.88253 0.249511 0.291577)
(3.98605 -0.989764 2.19716)
(4.2257 -1.2917 2.48806)
(3.85668 -2.21702 2.3376)
(3.31529 -3.00723 2.29909)
(3.57882 -2.86467 1.68628)
(4.10552 0.528715 -0.336317)
(3.60507 -0.478246 1.39239)
(3.10542 -0.273607 0.209462)
(2.73976 -1.86405 0.415131)
(3.04277 -2.71022 0.923668)
(3.03816 -3.15443 2.75651)
(3.8239 -3.06724 1.85053)
(3.2957 -1.03514 0.210478)
(3.15265 0.473496 0.507543)
(2.73187 -0.721811 -0.132528)
(2.17348 -1.02643 -0.560353)
(1.89263 -1.25127 -0.311188)
(2.1197 -1.48445 0.415134)
(1.72693 -2.1893 -0.00856625)
(1.99247 -3.72875 1.97045)
(3.27833 -2.09662 -0.0730066)
(1.58556 -0.226471 0.145909)
(1.48301 -0.0902945 -0.0904108)
(0.962135 -0.490902 -0.527255)
(1.32104 -0.781606 -0.332331)
(1.46936 -1.66998 -0.608924)
(0.623414 -2.49944 -0.262296)
(0.762465 -1.71696 -0.644518)
(1.94028 -1.62723 0.426243)
(2.19579 -2.19725 0.535823)
(0.180507 -0.153773 -0.781847)
(0.078522 -0.464528 -0.812767)
(-0.0691873 -0.0780399 -0.749999)
(-0.158933 -0.431673 -0.864897)
(-0.154997 -0.482965 -1.21604)
(0.310535 -1.16696 -1.18159)
(0.925776 -1.31322 -0.724788)
(1.18519 -0.797717 -0.234377)
(1.18688 -0.441633 -0.569439)
(1.06283 -0.837134 -0.777541)
(0.0910692 0.061036 -1.16055)
(-0.014659 0.035411 -0.865574)
(-0.265513 -0.0141088 -0.821962)
(-0.257966 0.252197 -0.753462)
(-0.225701 -0.154533 -0.975185)
(0.193242 -0.379961 -1.32647)
(0.339547 -0.714169 -1.81056)
(0.806558 -1.30282 -1.49553)
(1.21413 -1.03793 -1.06855)
(1.42007 -0.220304 -1.08585)
(2.16837 -0.448423 0.145259)
(2.20236 1.11189 0.0233085)
(2.34735 1.4869 0.201485)
(2.05094 1.50354 0.0162715)
(2.91973 0.297011 0.41124)
(2.69027 0.823144 0.0407936)
(2.51685 0.818638 0.222955)
(3.30816 0.0915518 0.642616)
(3.32522 0.196458 0.385919)
(3.04841 0.600191 0.177187)
(2.80879 0.938895 -0.34232)
(3.34643 -0.821322 1.22918)
(3.56723 -0.429168 1.0629)
(3.6042 -0.345869 0.65279)
(3.5767 -0.506604 0.47397)
(2.98699 0.792031 0.542758)
(4.21232 -0.485898 1.86817)
(4.14789 -0.606387 1.82148)
(3.64358 -1.7089 1.65475)
(3.60684 -1.30227 1.31681)
(3.69999 -0.619991 0.363352)
(3.04296 -0.544505 0.41977)
(4.08789 0.177094 2.20599)
(3.81049 -1.68399 2.30456)
(3.92066 -1.87765 2.33797)
(3.60196 -2.49705 2.44915)
(3.27921 -2.69687 2.36534)
(3.9501 -2.146 1.14967)
(3.90877 -0.220741 0.248438)
(4.11951 -0.299879 1.7032)
(3.88021 -0.100896 1.03981)
(3.08399 -1.14045 0.681421)
(2.5626 -2.57463 0.163341)
(2.66776 -2.89449 1.23285)
(2.23842 -4.44859 1.44987)
(4.30179 -1.86052 1.43016)
(2.97224 -1.5489 0.372276)
(3.27411 0.227726 0.873669)
(3.11511 -0.0831204 0.415214)
(2.61464 -1.17752 -0.43141)
(2.00989 -1.26977 -0.911739)
(1.92925 -1.15016 -0.185518)
(2.13826 -1.77915 0.210894)
(0.986247 -3.50622 0.971068)
(2.03909 -3.43717 2.11025)
(3.61736 -1.79317 -0.143802)
(1.48338 -0.0753298 0.36929)
(1.48501 -0.435957 -0.0751956)
(1.43494 -0.255778 -0.226728)
(1.07596 -0.471552 -0.341182)
(1.33449 -0.866677 -0.303356)
(1.2507 -1.60997 -1.01901)
(0.837107 -1.8317 -1.4348)
(1.11472 -1.48831 -0.528724)
(1.62135 -2.24896 1.75058)
(2.64231 -1.80941 0.43044)
(0.29765 0.205772 -0.809242)
(0.139961 -0.385563 -0.971077)
(0.0397869 -0.610293 -0.915892)
(-0.107991 -0.194901 -0.792501)
(-0.170788 -0.536214 -0.880836)
(-0.190429 -0.649402 -1.21376)
(0.276341 -1.23179 -1.2027)
(0.825105 -1.40536 -0.670336)
(1.20071 -0.868387 -0.0890151)
(1.28205 -0.568128 -0.316946)
(1.07087 -0.786731 -0.353769)
(0.163988 -0.137014 -1.1887)
(0.0764089 -0.0026151 -1.21002)
(-0.0129685 0.012772 -0.899)
(-0.251805 -0.0323268 -0.835035)
(-0.245094 0.22649 -0.765628)
(-0.212807 -0.173561 -0.968136)
(0.226805 -0.372166 -1.39791)
(0.307919 -0.788041 -1.81619)
(0.82916 -1.28431 -1.4526)
(1.25032 -0.885258 -1.09343)
(1.34733 -0.248901 -1.23487)
(2.1897 -0.410497 -0.0661641)
(2.10431 1.13679 -0.0573785)
(2.53298 0.787891 -0.0683525)
(2.26897 0.963396 0.0746813)
(2.65821 0.541572 0.284717)
(2.52087 1.08858 0.19928)
(2.19198 1.3941 -0.000573752)
(3.02089 0.00871697 0.448052)
(2.9988 0.154565 0.484881)
(2.64791 0.638578 0.178501)
(2.61254 0.265475 0.260886)
(3.40953 -0.113376 0.774503)
(3.34013 -0.225728 0.654692)
(3.29064 0.115711 0.346258)
(3.16877 0.382191 0.163722)
(2.92604 0.46324 -0.251328)
(3.41199 -0.374509 1.28776)
(3.32796 -0.686505 1.24804)
(3.46555 -0.769973 1.0807)
(3.52496 -0.557249 0.68563)
(3.46605 -0.323348 0.414818)
(2.94033 -0.293148 0.710653)
(4.1132 -0.199678 1.95459)
(4.19195 -0.535185 1.91569)
(4.11191 -0.836144 1.77477)
(3.51215 -1.43757 1.7081)
(3.59119 -1.16301 1.2475)
(3.45321 -0.565758 0.24887)
(3.1041 -0.917922 0.252556)
(4.09209 -0.314375 2.36926)
(4.07067 -0.124028 2.29207)
(3.57658 -2.09224 2.26491)
(3.37411 -2.65882 2.14558)
(3.12095 -2.73902 2.56929)
(2.72841 -3.47437 2.02771)
(4.53433 -1.17062 0.465212)
(3.7808 -0.695372 0.662735)
(4.061 0.128324 1.81646)
(4.18838 -0.234734 1.53686)
(3.74711 -0.6231 1.30079)
(3.29519 -1.27697 0.622703)
(2.62803 -2.73182 0.197438)
(2.50977 -3.14132 2.10976)
(2.91211 -3.54744 2.57098)
(4.33412 -1.41026 0.803484)
(3.02896 -1.3451 0.425058)
(3.31147 0.338175 1.31181)
(3.24202 -0.119118 0.54503)
(3.14326 -0.315921 0.153298)
(2.80195 -0.950087 -0.33067)
(2.23866 -1.19758 -0.262368)
(2.07397 -1.15032 0.00560833)
(1.68641 -2.61962 0.212756)
(0.820151 -3.52633 1.34714)
(2.86592 -2.27727 2.27474)
(3.72053 -1.86218 0.152949)
(1.22351 0.776105 0.962699)
(1.39663 -0.279499 0.161725)
(1.424 -0.552352 -0.194978)
(1.32824 -0.515088 -0.471187)
(0.889324 -0.762648 -0.641657)
(1.17611 -1.1864 -0.60537)
(1.3053 -1.49097 -0.83139)
(1.07984 -1.81741 -0.522693)
(1.21647 -1.42429 -0.142749)
(1.30261 -2.3981 2.08846)
(3.13264 -1.50837 0.558753)
(0.33945 0.418991 -0.841662)
(0.231882 0.0278094 -1.02152)
(0.107381 -0.5509 -1.16238)
(0.0103768 -0.716768 -1.01652)
(-0.138297 -0.31547 -0.818187)
(-0.191354 -0.670655 -0.90704)
(-0.282604 -0.893769 -1.16757)
(0.247994 -1.2462 -1.18352)
(0.772574 -1.42648 -0.57865)
(1.14698 -0.962258 -0.119011)
(1.17688 -0.811924 -0.0447444)
(1.07627 -0.782062 -0.101641)
(0.142105 -0.20769 -1.03529)
(0.140106 -0.242511 -1.19079)
(0.062435 -0.0380222 -1.25543)
(-0.00874956 -0.001941 -0.930276)
(-0.238995 -0.0449451 -0.844508)
(-0.237548 0.207127 -0.777113)
(-0.193198 -0.175438 -0.977006)
(0.260098 -0.384674 -1.45521)
(0.268929 -0.871734 -1.76612)
(0.811938 -1.26354 -1.41)
(1.14569 -1.06393 -1.02137)
(1.4632 -0.115511 -1.2251)
(2.1786 -0.421266 0.28165)
(1.8028 1.13526 0.0803416)
(2.41518 0.965127 0.0590704)
(2.12721 0.962299 -0.148954)
(2.6337 0.36986 -0.0600493)
(2.61696 0.500785 -0.132255)
(2.33792 0.732987 0.0405684)
(2.81361 0.180006 0.403743)
(2.76568 0.273771 0.300748)
(2.55635 0.876262 0.257388)
(2.24159 1.43467 -0.0706217)
(3.14493 0.012226 0.602795)
(3.03134 -0.217591 0.461653)
(2.98557 0.274908 0.408527)
(2.71149 0.30823 0.184215)
(2.50839 0.496787 0.190116)
(3.44907 -0.110223 0.901955)
(3.32205 -0.193428 0.792067)
(3.35454 -0.494121 0.700534)
(3.32085 -0.115641 0.300597)
(3.1909 0.311275 0.161128)
(2.87838 0.539413 -0.0908695)
(3.39062 -0.457334 1.47426)
(3.2568 -0.774501 1.29151)
(3.31881 -0.851527 1.25503)
(3.31587 -0.926182 1.06617)
(3.44359 -0.743293 0.859484)
(3.42331 -0.130731 0.331752)
(2.79898 -0.107991 0.489598)
(3.95111 0.00943167 2.05598)
(4.15174 -0.325501 1.92801)
(3.92593 -0.879395 2.00499)
(3.70724 -1.48841 1.87823)
(3.34125 -1.72345 1.7274)
(3.65108 -1.28052 1.24169)
(3.48871 -0.37833 0.188921)
(3.22252 -1.00144 0.306067)
(3.97804 -0.171106 2.20212)
(4.17179 -0.253262 2.24266)
(4.04636 -0.421682 2.40148)
(3.50154 -2.0147 2.33299)
(2.90411 -3.18092 2.0454)
(2.90769 -2.98269 2.6015)
(3.29486 -2.91608 1.89372)
(4.78146 -0.853885 0.102697)
(3.71145 -0.899982 0.94253)
(3.952 0.0497187 2.06138)
(4.08 -0.123214 1.72636)
(4.104 -0.789146 1.52168)
(3.79295 -0.571614 1.23852)
(3.17523 -1.59551 1.11472)
(2.56376 -3.0439 1.1546)
(2.42389 -3.45487 2.66006)
(2.32828 -3.92454 2.47397)
(4.41505 -1.22982 0.585634)
(3.16785 -1.34998 0.437555)
(2.94243 0.552647 1.42389)
(3.2965 -0.0199038 0.994274)
(3.20771 -0.348204 0.168552)
(3.09602 -0.638697 -0.100228)
(2.46344 -1.5121 -0.560878)
(1.72068 -1.74856 -0.246987)
(1.83643 -1.68578 -0.0116182)
(1.30819 -3.10193 0.328475)
(1.1032 -3.01358 2.1731)
(3.26371 -1.75753 1.75226)
(3.65844 -2.19818 0.62379)
(1.06545 1.01629 1.1582)
(1.15997 0.439531 0.712823)
(1.33883 -0.57491 -0.191781)
(1.1766 -1.03914 -0.676057)
(1.04405 -1.06842 -0.989295)
(0.774864 -0.906101 -0.773718)
(1.08007 -1.38087 -0.816964)
(1.40099 -1.48402 -0.662336)
(1.13378 -1.77715 -0.601948)
(1.11243 -1.4939 0.195881)
(1.30892 -2.31545 2.17665)
(2.80199 -2.02053 0.866894)
(0.301937 0.512019 -0.656222)
(0.264816 0.245858 -1.0515)
(0.163473 -0.185547 -1.18293)
(0.041171 -0.714075 -1.31993)
(0.021607 -0.738064 -1.06075)
(-0.152189 -0.438779 -0.827297)
(-0.185847 -0.758625 -0.927381)
(-0.366273 -1.12415 -1.07068)
(0.204721 -1.31195 -1.08447)
(0.814116 -1.3027 -0.680516)
(1.06811 -1.08206 -0.240437)
(0.876226 -1.26182 0.582188)
(0.982558 -0.999658 0.444225)
(0.12919 0.385694 -1.00509)
(0.133397 -0.159588 -1.00174)
(0.116631 -0.337955 -1.17233)
(0.0534053 -0.0883201 -1.2843)
(-0.000751025 -0.0117672 -0.960205)
(-0.224777 -0.0471154 -0.853033)
(-0.226315 0.184358 -0.788943)
(-0.165574 -0.175247 -1.00108)
(0.277153 -0.428737 -1.47817)
(0.229427 -0.947746 -1.6921)
(0.821534 -1.21364 -1.3739)
(1.21593 -0.946532 -1.01613)
(1.51655 -0.0669623 -1.31194)
(2.22132 -0.323327 0.0953441)
(1.71202 1.04831 -0.143957)
(2.20079 0.819604 0.0272737)
(1.84099 1.01465 0.18876)
(2.61707 0.495784 0.00734842)
(2.40086 0.770324 0.0495334)
(2.11911 0.910776 -0.165335)
(2.72663 0.285775 0.161777)
(2.64184 0.25207 -0.0559161)
(2.65371 0.496455 -0.16812)
(2.35366 0.625347 -0.0271115)
(2.96509 0.184944 0.549634)
(2.81159 -0.0140687 0.371958)
(2.78073 0.448802 0.256195)
(2.6676 0.00895647 0.40769)
(2.34617 1.20766 0.03871)
(3.13957 -0.058415 0.712215)
(3.11027 -0.259345 0.581363)
(3.02637 -0.32465 0.474908)
(3.0048 -0.124229 0.316746)
(2.77604 0.158989 0.165687)
(2.49222 0.41626 0.144153)
(3.48437 0.15194 0.955016)
(3.38955 -0.205112 0.987757)
(3.21373 -0.518867 0.829013)
(3.31381 -0.666075 0.665319)
(3.37014 -0.190876 0.283072)
(3.13217 0.127307 0.230008)
(2.80176 0.697942 0.154688)
(3.44032 -0.451817 1.48353)
(3.4243 -0.104307 1.23473)
(3.2034 -0.784519 1.27415)
(3.23238 -0.999237 1.24908)
(3.08792 -1.50423 1.06279)
(3.32741 -1.01285 0.520729)
(3.48592 0.0932569 0.202883)
(2.81864 -0.197214 0.43958)
(3.99454 -0.29196 2.15581)
(4.00098 -0.481343 1.9814)
(4.01912 -0.770287 2.02637)
(3.79717 -0.998543 2.02441)
(3.32043 -1.91686 1.94621)
(3.19598 -1.98087 1.88141)
(2.15685 -3.07484 1.25127)
(3.56392 -0.358626 0.314613)
(3.44326 -0.87334 0.18924)
(3.90225 0.409608 2.04985)
(3.93715 -0.294984 2.16593)
(4.10349 -0.305124 2.05455)
(3.95564 -0.698688 2.48294)
(3.58514 -1.56181 2.71317)
(2.74826 -3.20855 2.31182)
(2.72676 -3.11035 2.63716)
(3.42938 -2.54903 1.80153)
(4.73366 -1.039 0.225241)
(3.60245 -1.19498 1.15603)
(3.9335 0.0362147 2.19037)
(3.9594 -0.0974277 2.02643)
(4.10876 -0.716902 1.53191)
(4.11042 -1.14424 1.46268)
(3.64961 -1.00093 1.16163)
(3.35724 -1.7925 0.845999)
(2.61247 -2.96008 2.39598)
(2.22497 -3.47835 2.73348)
(2.58137 -3.33085 2.82899)
(4.49865 -1.248 0.70303)
(3.64374 -0.976014 0.308065)
(2.26812 1.50719 1.76781)
(2.85678 0.194492 1.18646)
(3.24742 -0.302826 0.685461)
(3.101 -0.668647 -0.123871)
(2.82102 -1.05553 -0.503623)
(2.19075 -1.57728 -0.628228)
(1.69684 -1.62611 -0.162484)
(1.52313 -2.15846 0.242129)
(1.26988 -3.07954 0.941526)
(1.30629 -2.63544 2.54165)
(3.51271 -1.49851 1.44515)
(3.76425 -2.20703 0.682067)
(1.05231 1.14965 1.09678)
(0.973614 0.774881 0.918185)
(1.13005 0.0834854 0.28101)
(1.1653 -1.02381 -0.596821)
(0.918524 -1.47987 -1.10456)
(0.849108 -1.26949 -1.18705)
(0.587501 -1.04948 -0.997664)
(0.880611 -1.45899 -1.0285)
(1.36101 -1.41618 -0.881492)
(1.16548 -1.79122 -0.372682)
(0.696281 -1.75381 1.31016)
(1.28658 -2.23101 1.93445)
(2.14781 -2.83472 1.07929)
(0.503436 0.645856 -0.501194)
(0.251898 0.392246 -0.75043)
(0.211248 0.135993 -1.14787)
(0.120529 -0.319548 -1.26596)
(0.0685745 -0.782487 -1.32249)
(0.0656101 -0.726137 -1.06351)
(-0.180503 -0.584379 -0.837646)
(-0.170817 -0.809952 -0.933099)
(-0.478523 -1.2865 -0.961736)
(0.100327 -1.31293 -1.05239)
(0.804025 -1.27414 -0.644015)
(1.06873 -1.11634 -0.407112)
(0.751213 -1.39696 0.919088)
(0.81565 -1.331 1.01381)
(0.408273 -0.633508 -0.702374)
(0.121477 0.3427 -1.02016)
(0.13176 -0.114859 -0.972612)
(0.0735562 -0.457322 -1.12625)
(0.0408107 -0.137026 -1.29381)
(0.00763256 -0.0202524 -0.98668)
(-0.207161 -0.0335164 -0.860755)
(-0.220324 0.160503 -0.800268)
(-0.144505 -0.176045 -1.0454)
(0.268792 -0.495233 -1.45664)
(0.225263 -0.958482 -1.63406)
(0.833558 -1.20898 -1.31799)
(1.13283 -1.06163 -0.988821)
(1.58473 -0.0462848 -1.44921)
(2.27671 -0.282983 -0.0817628)
(1.60279 0.956032 -0.0259784)
(2.06339 0.767029 0.0330062)
(1.74128 1.00318 -0.143598)
(2.42769 0.399691 0.0773873)
(2.21636 0.702614 0.0060067)
(1.89577 0.855682 0.138257)
(2.59222 0.541415 0.157816)
(2.57344 0.546747 -0.139607)
(2.39967 0.561712 0.115856)
(2.16478 0.856358 -0.115447)
(2.76348 0.199784 0.291655)
(2.67341 0.0043371 0.152081)
(2.67405 0.120197 -0.0224548)
(2.54338 0.678596 -0.251763)
(2.36295 0.547315 0.0490229)
(2.94518 0.153395 0.599368)
(2.93907 -0.0119979 0.526082)
(2.86082 -0.255639 0.375243)
(2.82438 0.0986939 0.233696)
(2.56092 0.549176 0.339768)
(2.41558 1.00751 0.0824998)
(3.26712 0.0740213 0.797009)
(3.13887 -0.268604 0.667811)
(3.104 -0.306225 0.588437)
(3.01187 -0.515142 0.492453)
(2.98301 -0.24872 0.267161)
(2.88104 0.221923 0.232896)
(2.52356 0.254299 0.105516)
(3.5748 0.116874 1.10849)
(3.4762 -0.204198 1.01486)
(3.38636 -0.520125 1.0298)
(3.1576 -0.766888 0.802048)
(3.22613 -0.917395 0.738662)
(3.33015 -0.333712 0.291357)
(3.07334 -0.157793 0.227565)
(2.83072 0.158445 0.435054)
(3.65297 0.0700026 1.42664)
(3.42168 -0.28312 1.35158)
(3.39273 -0.416307 1.30814)
(3.11432 -1.1209 1.33105)
(3.12451 -1.3175 1.26781)
(3.16321 -1.21591 0.949015)
(3.2161 -0.569067 0.593228)
(3.49818 0.0430914 0.346523)
(2.84217 -0.124002 0.409111)
(3.98348 -0.146787 2.26488)
(3.92915 -0.531277 2.15048)
(4.05256 -0.761229 1.969)
(3.96943 -1.0905 1.9541)
(3.78689 -1.08756 2.08677)
(2.94006 -2.44117 2.05037)
(2.30334 -2.66256 2.13761)
(3.38248 -1.15454 0.854665)
(3.6968 -0.243564 0.465968)
(3.59528 -0.857288 0.0306129)
(4.02271 0.329506 2.27395)
(3.98001 -0.0763745 2.0525)
(4.06395 -0.630497 1.96575)
(3.91678 -0.667947 2.13417)
(3.81669 -1.23545 2.43972)
(3.27862 -2.24502 2.68315)
(2.76846 -3.02787 2.74768)
(2.90066 -2.97664 2.52986)
(3.89988 -2.12524 1.67261)
(4.6913 -1.07766 0.215335)
(3.57726 -1.5077 1.2953)
(3.79819 0.302387 2.3614)
(3.97805 -0.268131 2.07216)
(3.98242 -0.475288 1.9489)
(4.10129 -0.936517 1.445)
(4.10471 -0.0997559 1.55307)
(3.60768 -1.12476 1.14509)
(3.0561 -1.9338 1.70801)
(2.1467 -3.13985 2.57721)
(2.21291 -3.44764 2.82884)
(2.83255 -3.00543 2.67324)
(4.31905 -1.78968 1.21884)
(3.99236 -1.00896 0.177693)
(2.22555 1.59128 1.65029)
(2.44963 1.21031 1.25637)
(2.84346 -0.0818351 0.838107)
(3.12745 -0.650106 0.436012)
(2.99045 -0.809676 -0.335814)
(2.59265 -1.21437 -0.73061)
(2.02532 -1.65507 -0.763479)
(1.62038 -1.74561 -0.161775)
(1.68528 -2.26022 0.576642)
(1.02761 -3.01272 1.27838)
(1.35152 -2.53303 2.60875)
(3.61883 -1.48234 1.20486)
(3.68401 -2.23256 0.721934)
(1.13199 1.1132 1.25037)
(0.939115 0.863284 1.06481)
(0.87113 0.413535 0.536571)
(1.02295 -0.178431 0.000102473)
(0.954029 -1.44418 -1.01318)
(0.762518 -1.61221 -1.23158)
(0.730896 -1.33378 -1.26529)
(0.55687 -1.1442 -1.09792)
(0.85407 -1.39424 -1.15327)
(1.42501 -1.35661 -0.910847)
(1.11415 -1.80497 0.0305887)
(0.428442 -1.87293 1.93684)
(1.31231 -2.09 1.81762)
(2.34801 -2.72211 1.02857)
(0.366757 0.553136 -0.452536)
(0.45458 0.548492 -0.594853)
(0.181479 0.199024 -0.905005)
(0.177951 0.0501582 -1.12449)
(0.0851162 -0.422783 -1.30671)
(0.0971709 -0.805388 -1.26984)
(0.115587 -0.75248 -1.0468)
(-0.202039 -0.6953 -0.856165)
(-0.148198 -0.843605 -0.91204)
(-0.455461 -1.35146 -0.89275)
(0.120749 -1.27663 -1.07526)
(0.793757 -1.23777 -0.626989)
(1.08046 -1.12328 -0.480016)
(0.590129 -1.51399 1.33447)
(0.554314 -1.70966 1.16516)
(0.081891 -0.375196 -0.625684)
(0.364646 -0.779469 -0.568887)
(0.116107 0.29664 -1.03606)
(0.1399 -0.0751147 -0.949251)
(0.0501997 -0.507156 -1.07073)
(0.0306096 -0.176146 -1.28546)
(0.0158824 -0.0259053 -1.00709)
(-0.187995 -0.0172324 -0.860278)
(-0.213591 0.12902 -0.818324)
(-0.125167 -0.188364 -1.10548)
(0.23899 -0.599424 -1.40201)
(0.259805 -0.934048 -1.59542)
(0.817593 -1.20104 -1.27836)
(1.16228 -1.01097 -0.991754)
(1.6591 -0.0211851 -1.5838)
(2.36517 -0.309234 -0.0563084)
(1.48213 0.856917 -0.0316257)
(1.89031 0.792873 -0.0159067)
(1.63249 0.907346 -0.0323393)
(2.23491 0.536276 -0.0978696)
(2.11063 0.47211 0.102464)
(1.80122 0.841421 -0.0683116)
(2.37914 0.585153 0.0556405)
(2.33599 0.565423 0.0401877)
(2.26658 0.60715 -0.0592941)
(1.94283 0.71799 0.0722953)
(2.62225 0.269474 0.221329)
(2.56396 0.396563 0.21219)
(2.5957 0.361795 -0.108332)
(2.40563 0.258025 0.20344)
(2.18848 0.712217 -0.190311)
(2.71217 0.138506 0.400588)
(2.79778 -0.0741798 0.328287)
(2.65692 -0.246802 0.121769)
(2.66803 -0.017629 0.0017186)
(2.59267 0.188581 -0.331002)
(2.41303 0.277889 0.00605172)
(3.04048 -0.0274858 0.699935)
(3.00705 -0.336646 0.619857)
(2.94406 -0.418612 0.454585)
(2.84019 -0.396457 0.342687)
(2.86691 0.0557052 0.0884932)
(2.67724 0.115703 0.175032)
(2.48962 0.769998 0.0843599)
(3.34856 0.173241 0.85956)
(3.33577 -0.0756034 0.666649)
(3.17921 -0.734164 0.592964)
(3.05272 -0.563202 0.580686)
(3.00437 -0.79374 0.51853)
(2.97835 -0.454624 0.271747)
(2.91094 -0.0284225 0.196693)
(2.57171 0.00258195 0.0583997)
(3.66743 0.027508 1.31107)
(3.49358 -0.183974 1.18829)
(3.44477 -0.501408 1.07428)
(3.28583 -0.800867 0.992608)
(3.07529 -1.10539 0.837575)
(3.12033 -1.18354 0.729455)
(3.27538 -0.830261 0.317181)
(3.06439 -0.207972 0.227671)
(2.80053 0.137944 0.205676)
(3.7914 0.238519 1.44949)
(3.6123 -0.322144 1.47654)
(3.45627 -0.614964 1.3691)
(3.22397 -0.926541 1.38979)
(3.01407 -1.37561 1.38614)
(2.95335 -1.54113 1.25158)
(2.91558 -1.33809 0.888682)
(3.22257 -0.604688 0.582337)
(3.61586 -0.187824 0.218643)
(2.93548 -0.329643 0.153871)
(3.88604 0.089184 2.14716)
(3.93349 -0.592132 2.22819)
(3.94676 -1.02514 2.0403)
(4.0518 -1.02309 1.83189)
(3.94316 -1.50641 1.90449)
(3.61055 -1.4944 2.1261)
(2.27174 -2.7422 2.3074)
(2.81086 -2.01092 1.76497)
(3.40961 -1.48667 0.832943)
(3.6847 -0.47599 0.52296)
(3.7728 -0.720871 -0.265363)
(4.09021 0.0784513 2.55316)
(4.01996 0.085681 2.30718)
(3.88888 -0.500718 2.15189)
(4.0035 -0.842947 2.09747)
(3.92228 -1.10321 2.1242)
(3.58344 -1.65949 2.46236)
(3.17357 -2.30885 2.70859)
(2.8996 -2.75948 2.87077)
(3.40044 -2.432 2.32036)
(4.06072 -1.98418 1.2329)
(4.51987 -1.27022 0.189896)
(3.57623 -1.6481 1.32813)
(3.49655 0.929415 2.32354)
(3.87869 -0.0988603 2.04746)
(3.84397 -0.583518 1.98001)
(3.94786 -0.948125 1.78056)
(3.97315 -1.36171 1.25666)
(3.6358 -1.90629 1.06442)
(3.51196 -1.38516 1.23177)
(2.39525 -2.63178 1.49568)
(2.14525 -3.11412 2.68689)
(1.9688 -3.10724 3.14731)
(2.93627 -2.69572 2.44794)
(4.11411 -2.03249 1.4585)
(4.18364 -1.10749 0.0967034)
(2.11216 1.68617 1.7853)
(2.00377 1.40139 1.66042)
(2.39749 0.698562 0.950052)
(2.7383 -0.310141 0.673451)
(3.05613 -0.852865 0.159126)
(2.88684 -0.997087 -0.527554)
(2.48608 -1.27503 -0.764142)
(1.88058 -1.76167 -0.902777)
(1.10658 -2.04478 0.109276)
(1.1251 -2.82109 0.326314)
(0.865141 -2.95609 1.44253)
(1.25048 -2.30335 2.84088)
(3.4858 -1.66213 1.16357)
(3.58054 -2.26287 0.771905)
(1.34758 0.916009 1.14034)
(1.04326 0.960269 1.13337)
(0.856793 0.765787 0.781013)
(0.714054 0.0347284 0.0830648)
(0.948485 -0.471677 -0.28625)
(0.873399 -1.54853 -1.08124)
(0.676335 -1.6357 -1.26031)
(0.539655 -1.43351 -1.3394)
(0.44267 -1.19994 -1.21464)
(0.930776 -1.33894 -1.21769)
(1.34622 -1.43805 -0.825387)
(0.972451 -1.8326 0.343243)
(0.329033 -1.89882 2.12901)
(1.41238 -1.94975 1.67799)
(2.30986 -2.79878 0.813659)
(0.206745 0.515887 -0.176055)
(0.301611 0.480291 -0.491174)
(0.421066 0.483322 -0.673613)
(0.103578 0.00849916 -1.0245)
(0.113048 -0.0990665 -1.15559)
(0.0542768 -0.538061 -1.31344)
(0.146498 -0.826894 -1.20785)
(0.134761 -0.80817 -1.06769)
(-0.195946 -0.752728 -0.89487)
(-0.136477 -0.862089 -0.895639)
(-0.483698 -1.36957 -0.800621)
(0.0618892 -1.29723 -1.08533)
(0.807883 -1.22038 -0.59214)
(0.968371 -1.19639 -0.450878)
(0.38285 -1.61041 1.6842)
(0.184495 -2.1563 0.971504)
(0.0572464 -0.253108 -0.515856)
(0.0493791 -0.470798 -0.583548)
(0.327246 -0.853027 -0.424954)
(0.108216 0.245419 -1.04914)
(0.150927 -0.0447314 -0.930735)
(0.0635739 -0.468838 -1.01654)
(0.0267791 -0.203971 -1.26366)
(0.0282151 -0.0240517 -1.01911)
(-0.16227 0.00364192 -0.855023)
(-0.205448 0.115084 -0.821074)
(-0.107034 -0.210809 -1.17269)
(0.211749 -0.660224 -1.34482)
(0.308256 -0.901636 -1.57735)
(0.823945 -1.17342 -1.23696)
(1.16663 -1.00285 -0.96979)
(1.64565 -0.0632626 -1.49766)
(2.42363 -0.316453 -0.116403)
(1.32013 0.862868 0.0573451)
(1.75913 0.711577 -0.0352006)
(1.50332 0.819418 -0.0386287)
(2.0181 0.418325 0.0219911)
(1.92069 0.670031 -0.0319279)
(1.68853 0.727343 -0.02236)
(2.184 0.709765 -0.072085)
(2.19996 0.487379 -0.124222)
(2.11825 0.311147 0.082326)
(1.82651 0.750188 -0.0284129)
(2.42441 0.37503 0.185314)
(2.41193 0.36186 -0.00823571)
(2.37194 0.282334 0.0502244)
(2.27942 0.553079 -0.0770474)
(1.95581 0.680887 0.0717347)
(2.62665 0.201581 0.442781)
(2.63457 0.0989488 0.247184)
(2.60198 0.116432 0.186346)
(2.60665 0.300714 -0.12437)
(2.43923 -0.0471955 0.165206)
(2.17608 0.658584 -0.207826)
(2.81824 0.207305 0.546775)
(2.78135 -0.507384 0.395927)
(2.78245 -0.282222 0.317783)
(2.62623 -0.307987 0.114044)
(2.71171 -0.388022 -0.0032612)
(2.58306 -0.294261 0.0614714)
(2.43492 0.149263 -0.0102545)
(3.11941 -0.00373832 0.838476)
(3.05384 -0.124431 0.643107)
(3.02153 -0.619909 0.510332)
(2.93026 -0.733748 0.423075)
(2.80417 -0.604287 0.301641)
(2.87073 -0.0773734 0.0930459)
(2.68401 -0.0174201 0.142755)
(2.46918 0.695879 0.119762)
(3.43394 0.0640735 0.984987)
(3.35907 -0.0441681 0.874296)
(3.36074 -0.292258 0.593382)
(3.21688 -0.659304 0.629303)
(2.99597 -1.0967 0.528023)
(2.99636 -0.883714 0.459644)
(2.99944 -0.661279 0.243833)
(2.89065 -0.14814 0.195968)
(2.55962 0.0249403 0.0868326)
(3.7342 0.221303 1.34966)
(3.69385 -0.169464 1.29744)
(3.51647 -0.498026 1.17935)
(3.40721 -0.667757 1.08452)
(3.16877 -0.990314 0.962991)
(3.00305 -1.29329 0.802509)
(3.09466 -1.30021 0.689852)
(3.24384 -1.15077 0.389223)
(3.14827 -0.452349 0.259861)
(2.78425 -0.17883 0.382341)