/*--------------------------------*- C++ -*----------------------------------*\
  =========                 |
  \\      /  F ield         | OpenFOAM: The Open Source CFD Toolbox
   \\    /   O peration     | Website:  https://openfoam.org
    \\  /    A nd           | Version:  7
     \\/     M anipulation  |
\*---------------------------------------------------------------------------*/
FoamFile
{
    version     2.0;
    format      ascii;
    class       surfaceScalarField;
    location    "6.5";
    object      phi;
}
// * * * * * * * * * * * * * * * * * * * * * * * * * * * * * * * * * * * * * //

dimensions      [0 3 -1 0 0 0 0];

internalField   nonuniform List<scalar> 
54006
(
6.96242e-05
-0.00102652
0.000976014
-5.64815e-06
0.000190812
-0.000485893
0.00040789
-8.36663e-05
7.1552e-05
-3.37658e-06
7.66669e-05
0.000920663
-8.97569e-06
4.31861e-05
-0.000913427
0.000886553
-2.196e-05
0.000459462
0.000723988
-0.00102297
-0.000372021
0.000187137
-7.02391e-05
0.000221913
0.000315811
-0.000118635
0.000217313
-0.000489918
0.000339363
-0.000107238
3.82242e-05
-2.00309e-05
7.89962e-05
0.000862935
-1.14336e-05
5.2957e-05
0.000851018
-2.63997e-05
5.90449e-05
-0.00129145
0.00123973
-2.92812e-05
0.000580046
0.00208917
-0.0022772
-0.000386659
0.000448999
-0.000334383
0.000501904
-0.00134343
-0.00039576
0.000503216
0.00109086
-0.00143678
-0.000312003
0.000198953
-8.49728e-05
0.000226413
0.000224171
-0.000152989
0.000250364
0.000169428
-0.000146108
0.000212002
-0.000537392
0.00040235
-0.000125152
5.06119e-05
-2.66629e-05
8.2865e-05
0.000801916
-1.30197e-05
5.70459e-05
0.000811193
-2.8655e-05
7.5992e-05
0.00117278
-3.54468e-05
7.25998e-05
-0.00186096
0.00179419
-3.51128e-05
0.000503146
0.00323254
-0.00317011
-0.000570903
0.000653281
-0.000423469
0.000585489
-0.00240211
-0.000433576
0.000667086
0.00271652
-0.00291832
-0.00034873
0.000484135
-0.000274165
0.000468296
-0.00161414
-0.000395293
0.000567474
-0.00178966
-0.000359986
0.000503559
0.00135363
-0.00169057
-0.000266626
0.000215895
-0.000103319
0.000236917
0.000123947
-0.000185439
0.000245631
4.67317e-06
-0.000176819
0.000240539
0.000253978
-0.000162282
0.000216151
-0.000639826
0.000517881
-0.000146759
6.46253e-05
-3.2414e-05
8.35261e-05
0.000739666
-1.4267e-05
5.98303e-05
0.000769043
-3.07001e-05
8.5067e-05
0.00109791
-3.88549e-05
8.76956e-05
0.00171306
-4.20148e-05
7.45737e-05
-0.0016896
0.00162352
-4.36068e-05
0.000249806
0.00403923
-0.00392395
-0.000348444
0.00062214
-0.000678714
0.000515567
-0.00317504
-0.000516494
0.000710789
0.00326458
-0.00348877
-0.000390422
0.000749122
-0.000291786
0.000533638
-0.00249483
-0.000447008
0.000715079
-0.00303496
-0.000464543
0.00072852
0.00270557
-0.00291113
-0.000368127
0.000519539
-0.000221192
0.000450696
-0.00182313
-0.000422676
0.000550883
-0.00210656
-0.000383646
0.000526259
-0.00198426
-0.000352011
0.000440215
0.000774132
-0.000950295
-0.000314527
0.000208569
-0.000124719
0.000266252
-2.00176e-05
-0.000208768
0.000233466
-0.000151292
-0.00020311
0.000260022
8.99269e-05
-0.000187724
0.000242345
0.000390384
-0.000189435
0.000184869
-0.000656456
0.000549965
-0.000150563
6.82316e-05
-4.04363e-05
8.11835e-05
0.000679591
-1.56268e-05
6.00217e-05
0.000727339
-3.25844e-05
9.08851e-05
0.00101857
-4.2247e-05
9.47325e-05
0.001625
-4.55217e-05
8.93702e-05
0.00154383
-5.16921e-05
5.21217e-05
-0.00195438
0.0019062
-4.75497e-05
3.74004e-05
0.00536092
-0.00516958
0.000190548
0.000369062
-0.000403605
0.000425183
-0.00394776
-0.000378243
0.000513032
0.00471296
-0.00444556
-0.000418088
0.000802134
-0.00046308
0.000397491
-0.00314225
-0.000475879
0.000727388
-0.00360632
-0.000411247
0.000855743
0.00388342
-0.00416933
-0.000231736
0.000779584
-0.000278359
0.000554562
-0.00260745
-0.000503065
0.000703387
-0.00311545
-0.00051902
0.000775512
-0.00313379
-0.000491141
0.000751201
0.00184445
-0.00210332
-0.000420241
0.000472512
-0.000287464
0.000494644
-0.00200469
-0.00043665
0.000519308
-0.00236491
-0.000450167
0.000523645
-0.00222084
-0.000410689
0.000490164
-0.00117693
-0.000373198
0.000396123
0.000454711
-0.000633993
-0.000346499
0.000176409
-0.000123881
0.000248465
-0.000171477
-0.000217563
0.000222054
-0.000311204
-0.000210888
0.000266188
-7.78677e-05
-0.000210618
0.000238026
0.000273364
-0.000213998
0.00022026
0.000427653
-0.000198013
0.000179699
-0.001093
0.000961612
-0.000146752
4.25241e-05
-4.40795e-05
7.83883e-05
0.000622024
-1.7192e-05
5.92134e-05
0.000686483
-3.39843e-05
9.60998e-05
0.000935636
-4.57464e-05
0.000101409
0.0015305
-4.91582e-05
9.9064e-05
0.00145465
-5.54021e-05
7.03086e-05
0.00184066
-5.64662e-05
9.11653e-05
-0.00252795
0.00244126
-5.2029e-05
0.000298631
0.00616848
-0.00603091
0.000636897
6.06265e-05
0.000230565
0.0003272
-0.00497805
0.000401866
0.000489236
0.00581024
-0.00578024
0.000184338
0.000648473
-0.000380986
0.000391147
-0.00395453
-0.000412685
0.000465054
-0.00418047
-0.000381001
0.00104396
0.00474708
-0.00496311
-0.00039027
0.00105044
-0.000209139
0.000394641
-0.00311475
-0.000438438
0.000722231
-0.00368936
-0.000411689
0.000839205
-0.00431484
-0.000329428
0.0012154
0.00302349
-0.00335887
-0.000360558
0.000839501
-0.000356083
0.000590703
-0.00270282
-0.000525149
0.000696063
-0.00322261
-0.000572663
0.00076256
-0.00333995
-0.000551769
0.000808089
-0.00243079
-0.000481596
0.000733618
0.00146045
-0.00180275
-0.000415435
0.000409038
-0.000302195
0.000459547
-0.00216036
-0.000471521
0.000496823
-0.00257399
-0.000502346
0.000499538
-0.00242993
-0.000474425
0.000486898
-0.00143133
-0.000405158
0.000450168
-0.00082358
-0.000413519
0.000414189
0.000382893
-0.000650444
-0.000313438
0.000165232
-0.000126203
0.000231448
-0.000329659
-0.000210411
0.000204843
-0.000471535
-0.000202861
0.000273611
-0.000247801
-0.000218466
0.000239377
0.000160183
-0.000235405
0.00024724
0.000292328
-0.000226849
0.000224428
0.000800225
-0.000190745
0.00026432
-0.00166298
0.00150379
-0.000160716
8.04512e-05
-4.86115e-05
7.83689e-05
0.000564121
-1.83496e-05
6.26795e-05
0.000641379
-3.4767e-05
0.000104881
0.000845851
-4.90806e-05
0.000109447
0.0014283
-5.29946e-05
0.000106156
0.00135843
-5.90991e-05
8.50122e-05
0.00176094
-6.06923e-05
0.000113109
0.00233332
-6.16402e-05
0.000101069
-0.00236215
0.00225745
-4.83949e-05
0.000670723
0.00625905
-0.00637261
0.00126684
0.00020462
0.000699113
0.00045122
-0.00576624
0.00075294
0.000688432
0.0061442
-0.00615012
0.000443627
0.000645061
0.000125217
0.000437533
-0.0048234
0.000297276
0.00033832
-0.00553878
0.000287142
0.00130678
0.00544297
-0.00549672
-2.47446e-05
0.00126406
-0.000342989
0.000192313
-0.00373737
-0.000381823
0.000436979
-0.00398563
-0.000322276
0.000949219
-0.0050989
-0.000355233
0.00153282
0.003536
-0.0039939
-0.000249795
0.00127992
-0.000254829
0.000449919
-0.00303032
-0.000495421
0.000694164
-0.00366224
-0.000463661
0.00079455
-0.00435979
-0.000398734
0.00123048
-0.0036331
-0.000477584
0.00105292
0.00181637
-0.00206677
-0.000429459
0.000736555
-0.000343263
0.000501333
-0.00270649
-0.00057322
0.000667662
-0.00330965
-0.000608947
0.000756439
-0.00359427
-0.000575244
0.00084287
-0.00285576
-0.000482766
0.000736472
-0.00209157
-0.000479084
0.000686441
0.00115708
-0.00149476
-0.00035001
0.00038911
-0.000262488
0.000420292
-0.00230051
-0.000479397
0.000458697
-0.0027924
-0.000506957
0.000484306
-0.00264206
-0.000500912
0.000478327
-0.0017147
-0.000430001
0.000479652
-0.00103193
-0.000429219
0.000491698
-0.000932045
-0.000399188
0.000457624
-0.000304679
3.06449e-05
-0.000232708
0.000239225
-0.000154818
0.000222369
-0.000489716
-0.000195631
0.000196904
-0.000622237
-0.000193933
0.000294285
-0.000427881
-0.000212186
0.000271216
2.69138e-05
-0.000246965
0.000266743
0.000149136
-0.0002528
0.000269225
0.000611826
-0.000222663
0.000322061
0.00129139
-0.0001873
0.00027372
-0.0021578
0.001971
-0.000146563
8.63655e-05
-4.57532e-05
7.78822e-05
0.000506711
-2.01761e-05
7.01814e-05
0.000588408
-3.55607e-05
0.000118202
0.000744671
-5.17892e-05
0.000117558
0.00131872
-5.70626e-05
0.000108843
0.00125938
-6.27838e-05
9.99485e-05
0.0016668
-6.49058e-05
0.000123761
0.00221519
-6.63183e-05
0.000127138
0.00212561
-5.6941e-05
9.53458e-05
-0.00255532
0.00245357
-4.19857e-05
0.00123785
0.00607468
-0.00621833
0.00165733
0.000593207
0.00110123
0.000632308
-0.00637628
0.00149664
0.000906139
0.00620294
-0.00611069
0.000956887
0.00089776
0.000437838
0.000498513
-0.00554274
0.000864627
0.000584076
-0.00614377
0.000500829
0.00157252
0.00560747
-0.00562844
0.000198856
0.0015523
-5.55295e-05
0.000327437
-0.00466774
7.65343e-05
0.00025246
-0.00525826
0.000201272
0.00116718
-0.00544435
1.68143e-05
0.00197689
0.00431878
-0.00461726
-0.000170344
0.00161383
-0.00024604
0.000256982
-0.00348366
-0.000404121
0.000432536
-0.00368372
-0.000422104
0.000818668
-0.00505988
-0.000385408
0.00154869
-0.00439493
-0.000272418
0.00128064
0.00281852
-0.00300497
-0.00029106
0.000958086
-0.000262154
0.000341237
-0.00289186
-0.000515019
0.000641308
-0.00358309
-0.000548217
0.000808271
-0.0043127
-0.000562584
0.00117327
-0.00389423
-0.000468
0.00120802
-0.00242844
-0.000587469
0.000905183
0.00205119
-0.00239887
-0.000300523
0.000636554
-0.000232003
0.000454912
-0.00268216
-0.000611597
0.000600511
-0.00335462
-0.000670061
0.000726814
-0.00386299
-0.000582741
0.000847816
-0.00330345
-0.000497043
0.000731251
-0.00235331
-0.000472626
0.000810476
-0.00182028
-0.000472336
0.00059738
0.0011116
-0.00140894
-0.00019243
0.000403808
-0.000189404
0.000382191
-0.0024101
-0.000491228
0.00040428
-0.00296559
-0.000513585
0.000487487
-0.00285732
-0.000484894
0.000548743
-0.0020549
-0.000438248
0.000516022
-0.00127504
-0.000436176
0.000551383
-0.00119868
-0.000444743
0.000545776
-0.000291981
-0.000300277
0.000393261
-0.00166765
0.00146054
-0.000145147
0.000233188
-0.000144712
0.000207917
-0.000636081
-0.000186048
0.000199714
-0.000743182
-0.000204219
0.000318817
-0.000599657
-0.000222772
0.000311812
-0.000130207
-0.00024932
0.000281007
3.57333e-06
-0.000273566
0.000316322
0.000397724
-0.000255072
0.000345839
0.00104907
-0.000202419
0.000342036
0.00173268
-0.000163879
0.000215949
-0.00260457
0.00243455
-9.71467e-05
8.11723e-05
-4.172e-05
7.62424e-05
0.00045025
-2.27366e-05
8.04872e-05
0.000524968
-3.72224e-05
0.000121223
0.000641898
-5.40099e-05
0.000120913
0.00120713
-6.11082e-05
0.00010833
0.00116042
-6.64385e-05
0.000114667
0.00155845
-6.91036e-05
0.000134987
0.00208658
-7.12875e-05
0.000142561
0.00197741
-6.06853e-05
0.000121547
0.00232232
-4.72414e-05
8.57082e-05
-0.0031097
0.00300945
-2.7442e-05
0.00143961
0.00657158
-0.00638622
0.00214681
0.00103183
0.00150201
0.00119009
-0.00637222
0.00199537
0.00120409
0.00634645
-0.00631763
0.00133056
0.00122109
0.000686157
0.000780135
-0.00655329
0.00156578
0.00100148
-0.0061633
0.00113184
0.00185677
0.00591619
-0.00573005
0.0004865
0.00177219
0.000234488
0.000575463
-0.00551821
0.00104442
0.000376164
-0.00599203
0.000589189
0.00139929
-0.00556232
0.000202589
0.00218879
0.00476462
-0.00482159
4.39268e-05
0.00199802
-9.50988e-05
0.000463719
-0.00435905
-0.000125354
0.00011044
-0.0050042
0.000144578
0.000968016
-0.00541237
1.99393e-05
0.002067
-0.00498593
-0.000132823
0.00152297
0.00376432
-0.00396547
-0.000211528
0.00117467
-0.000187542
0.000194282
-0.00330174
-0.000413289
0.000551596
-0.0035684
-0.000429728
0.000716917
-0.00484901
-0.000541618
0.00141106
-0.00459364
-0.000424478
0.00154048
-0.00322335
-0.000386504
0.00098195
0.00290232
-0.00304182
-0.000228325
0.000860871
-0.000156882
0.000300021
-0.00277082
-0.000556689
0.000579513
-0.00349034
-0.000586768
0.000808666
-0.00429783
-0.000644936
0.00109952
-0.0042032
-0.000505315
0.0012086
-0.00282766
-0.000546132
0.00104683
-0.00276004
-0.000462651
0.000680348
0.00187935
-0.00215309
-0.000109756
0.000529676
-7.99612e-05
0.000388011
-0.00263196
-0.00062481
0.000543907
-0.00342003
-0.000685812
0.000672984
-0.00407105
-0.000647498
0.000851757
-0.00369251
-0.000496698
0.000757033
-0.00259073
-0.000500639
0.000846614
-0.00207099
-0.000517144
0.000776658
-0.00175338
-0.000358779
0.00037963
-0.000199277
1.06895e-05
9.78764e-06
0.000323352
-9.97247e-05
0.000338283
-0.00249617
-0.00048484
0.000359689
-0.00310068
-0.000516113
0.000464022
-0.00303085
-0.000485262
0.000596204
-0.00239197
-0.000432214
0.000562794
-0.00155222
-0.000442852
0.00060326
-0.00143042
-0.000491377
0.000621249
-0.000669233
-0.0003429
0.000507593
0.00119884
-0.000204131
0.000361701
-0.0023108
0.00205012
-3.02223e-05
0.000177469
-9.00009e-05
0.000188134
-0.000760642
-0.000184058
0.000212755
-0.000843469
-0.000218029
0.000322818
-0.000747614
-0.000257857
0.000311406
-0.000272126
-0.000271345
0.000292796
-0.000136817
-0.000293395
0.000347352
0.000177088
-0.000285615
0.000357496
0.000795547
-0.00022406
0.000377947
0.00146235
-0.000167478
0.000275737
0.00223311
-0.000116627
0.000113769
-0.00340712
0.00330005
-1.81353e-05
6.97564e-05
-2.59905e-05
7.54709e-05
0.000393033
-2.59545e-05
9.32811e-05
0.00044913
-4.01802e-05
0.000125112
0.000536006
-5.6442e-05
0.000128743
0.00108934
-6.49592e-05
0.000106737
0.0010626
-7.00246e-05
0.000124054
0.00144124
-7.32818e-05
0.000146989
0.00194694
-7.645e-05
0.000156958
0.00181345
-6.42784e-05
0.000138274
0.00217145
-4.80908e-05
0.000113109
0.00288027
-3.1171e-05
2.0717e-05
-0.00396975
0.00393711
-1.55204e-05
0.00149331
0.00689758
-0.00673921
0.00312268
0.00127781
0.00231246
0.00157867
-0.00650399
0.00247798
0.00132814
0.00586288
-0.00595652
0.00211639
0.00137328
0.0013192
0.00124629
-0.00659436
0.00209835
0.00152169
-0.00614309
0.00130063
0.00172311
0.0062259
-0.00610933
0.00134764
0.00203701
0.000352553
0.000828014
-0.00648216
0.00161275
0.000742813
-0.00623104
0.00126687
0.00182411
-0.00564391
0.000620881
0.00224426
0.00579809
-0.00549888
0.000131815
0.0020904
7.68288e-05
0.000870674
-0.00575452
0.00114863
0.000242028
-0.0057419
0.000662696
0.00114442
-0.0054548
0.000305274
0.00230387
-0.00494379
8.7917e-05
0.00169967
0.00458908
-0.00455868
-0.00016318
0.00132601
-0.00011561
0.000333966
-0.00431852
0.000346433
0.000233756
-0.00479565
-1.60702e-05
0.000716054
-0.0054106
0.00014368
0.00187269
-0.00533584
-9.17852e-05
0.00181255
-0.0041796
-0.000190752
0.000887935
0.00369799
-0.00363677
-0.000178732
0.000765948
-6.02078e-05
0.000199967
-0.00308217
-0.00044101
0.000220173
-0.00324372
-0.000378623
0.000607184
-0.00455297
-0.000524292
0.00125384
-0.0046999
-0.000589681
0.00153422
-0.00348346
-0.00048998
0.00124531
-0.00325132
-0.000375493
0.000526297
0.00303453
-0.00316931
6.05058e-05
0.000452412
2.90907e-05
0.00019861
-0.0025618
-0.000594243
0.000496669
-0.00337194
-0.000627849
0.000685875
-0.0042422
-0.000655291
0.0010052
-0.00447842
-0.000523169
0.00120129
-0.0032922
-0.000485036
0.00105029
-0.00299204
-0.000517808
0.000916518
-0.00251305
-0.000242555
0.000329432
0.00166179
-0.00185161
0.000130266
0.000264432
8.86293e-05
0.000341626
-0.00258579
-0.000621244
0.000548338
-0.00355453
-0.00067896
0.000615749
-0.00425132
-0.000657264
0.000844928
-0.00405199
-0.000536744
0.000850708
-0.0028592
-0.000516136
0.000873126
-0.00230871
-0.000532789
0.000859079
-0.00206476
-0.000443589
0.000501723
-0.000214658
-0.000127561
0.000347885
-0.000956629
0.000817896
0.000162336
0.000310123
-1.16336e-05
0.00029183
-0.00256224
-0.000471948
0.000334816
-0.0032044
-0.000503176
0.000455972
-0.00318807
-0.000492054
0.000588216
-0.00272407
-0.000429973
0.00065427
-0.00190699
-0.000438921
0.000640481
-0.00165362
-0.000512775
0.000664858
-0.00107461
-0.000393366
0.000533714
0.000947834
-0.000247659
0.000423534
0.0017727
-7.45107e-05
0.000204096
-0.00304624
0.00288075
4.49398e-05
7.84921e-05
-1.09631e-05
0.000160769
-0.000852435
-0.000188647
0.000230361
-0.000935001
-0.000229606
0.000328206
-0.000874347
-0.000294391
0.000299317
-0.000394907
-0.00030565
0.000304536
-0.000285596
-0.000320365
0.000370583
-4.63847e-05
-0.00031645
0.000387593
0.000520599
-0.000251271
0.000412895
0.00115934
-0.000176982
0.000308708
0.00202261
-0.000127417
0.000175365
0.00314764
-2.64818e-05
7.58308e-05
-0.0044453
0.0043877
-1.56479e-05
-7.5716e-06
-1.14995e-05
7.74765e-05
0.000332224
-2.98295e-05
0.000104464
0.000362954
-4.42426e-05
0.000131361
0.000424398
-5.99329e-05
0.000139647
0.000961547
-6.8301e-05
0.000105355
0.000965601
-7.33106e-05
0.000124376
0.00132435
-7.75065e-05
0.000158557
0.00179685
-8.17516e-05
0.000170714
0.00163419
-6.79053e-05
0.000153694
0.00200164
-4.81641e-05
0.00013253
0.00273175
-3.21006e-05
4.08035e-05
0.0038818
-1.6665e-05
1.15897e-05
-0.00419101
0.00418521
-2.13156e-05
0.00165072
0.00642448
-0.00630838
0.00354699
0.00136038
0.00328521
0.00169837
-0.00663687
0.00332899
0.00141116
0.00602464
-0.00603802
0.00305304
0.00137229
0.00257055
0.00141415
-0.00640691
0.00241437
0.00179784
-0.00613661
0.00238192
0.00159866
0.00630433
-0.00598923
0.00192574
0.0017994
0.00134332
0.00129167
-0.00692052
0.00203707
0.00135856
-0.0060976
0.00143712
0.00199828
-0.00589923
0.000916359
0.00237748
0.0062342
-0.00595336
0.000933575
0.00209082
0.000110382
0.00119408
-0.00649328
0.00170174
0.000655184
-0.00627813
0.00124668
0.00152032
-0.00546656
0.000713615
0.00247194
-0.00530131
0.000255245
0.00186907
0.00584293
-0.00551277
-0.000367745
0.00140355
-0.000253735
0.000812348
-0.00613508
0.0010886
0.000235346
-0.00544745
0.000852589
0.000958635
-0.00536932
0.000334631
0.00219965
-0.00509689
0.000131417
0.00207573
-0.00467225
-6.16912e-05
0.000818263
0.00504697
-0.00475066
-0.00038982
0.000578569
-0.000115464
0.000339966
-0.00425224
0.000212037
-0.000147382
-0.00442997
0.000348307
0.000466934
-0.00555152
0.000265098
0.00156221
-0.00553655
3.60218e-05
0.00179037
-0.00429837
-0.000229168
0.00133356
-0.0036973
-0.000218468
0.000123843
0.00445957
-0.00430592
7.0069e-05
0.000218339
0.000145368
0.000203326
-0.00312427
-0.000249063
0.000243828
-0.0030581
-0.000373796
0.000442999
-0.00427894
-0.000409776
0.00106658
-0.0047373
-0.000548273
0.00151265
-0.00387861
-0.000505889
0.00130341
-0.00350351
-0.000490921
0.000849001
-0.00340247
-7.48126e-05
0.000151827
0.00289527
-0.00289117
0.000234017
0.000172401
0.000213874
0.000173215
-0.0023768
-0.000535871
0.000364145
-0.00311083
-0.000671159
0.000575626
-0.00415037
-0.000679549
0.000954638
-0.0046571
-0.000586318
0.00129367
-0.00385107
-0.000407254
0.00109711
-0.0031619
-0.000539159
0.000993935
-0.00279345
-0.00037226
0.000548066
-0.00219544
5.49247e-05
0.000172578
0.00126485
-0.00122634
0.000267064
0.000324287
0.00021213
0.000343439
-0.00258105
-0.000623835
0.000454849
-0.00362869
-0.000667116
0.000508705
-0.00433167
-0.000651347
0.00077653
-0.00432837
-0.000569197
0.000961555
-0.00318079
-0.000522442
0.000870761
-0.0025281
-0.000527027
0.000944241
-0.00240743
-0.000469503
0.000571396
-0.000482871
-0.000213057
0.000422346
0.000573574
0.000117949
0.000276941
-0.00176631
0.00167483
0.00018097
0.000158593
4.57024e-05
0.000237898
-0.00260438
-0.000463621
0.000298972
-0.00326977
-0.000475198
0.000427632
-0.0033018
-0.000488865
0.000530133
-0.00300722
-0.000439721
0.000715984
-0.00231973
-0.000428674
0.000691006
-0.0019144
-0.000498574
0.000720416
-0.00149318
-0.000427019
0.000588328
0.00066693
-0.000287895
0.000444238
0.00149695
-0.000107436
0.000280341
0.00268708
1.41789e-05
0.000105447
-0.00380736
0.00375717
6.55074e-05
3.34575e-05
1.09429e-05
0.000139849
-0.00091595
-0.000193265
0.000228838
-0.00101201
-0.000236017
0.000359858
-0.00101155
-0.000320896
0.000320305
-0.000525631
-0.000344325
0.000319049
-0.00045608
-0.000348861
0.000378705
-0.000271328
-0.000349751
0.000422749
0.000222711
-0.000282754
0.000441724
0.000828233
-0.000191178
0.000337215
0.00179934
-0.000137231
0.000218011
0.00297549
-4.07393e-05
0.000120974
0.00427953
1.51165e-06
5.30224e-05
-0.0047632
0.00475421
-4.80917e-05
-1.64594e-05
-1.92242e-05
8.10167e-05
0.000266203
-3.42833e-05
0.000113738
0.000268519
-4.91328e-05
0.000139794
0.00030455
-6.41892e-05
0.000147155
0.00082573
-7.12711e-05
0.000106685
0.000866841
-7.62261e-05
0.000125719
0.00120711
-8.17951e-05
0.000167933
0.00163857
-8.71552e-05
0.000182147
0.00144208
-7.17899e-05
0.000168274
0.00181393
-4.84638e-05
0.000149865
0.00256595
-3.22379e-05
6.67644e-05
0.00379978
-1.68443e-05
2.67131e-05
0.00416408
-2.2252e-05
-7.06722e-06
-0.00304499
0.0030543
-2.35592e-05
0.00150972
0.00639917
-0.00640165
0.00404831
0.00121405
0.00377592
0.00202878
-0.00629636
0.00386636
0.00110632
0.00640536
-0.00647211
0.00391858
0.00141314
0.00339115
0.00162304
-0.0065683
0.00321694
0.00197276
-0.00623975
0.0033558
0.0015238
0.00625814
-0.0060313
0.00290105
0.00172928
0.00229336
0.00156687
-0.00635851
0.00246306
0.00171826
-0.00618673
0.00210479
0.00188349
-0.00565186
0.00215934
0.00260169
0.00700095
-0.00661031
0.00131089
0.00228925
0.000728591
0.00135211
-0.00683929
0.00204854
0.00142062
-0.00638931
0.00156334
0.00186648
-0.00570228
0.000894007
0.00246245
-0.00570699
0.000679485
0.00207767
0.00712098
-0.00653085
0.00013485
0.00178101
-0.000358343
0.00120172
-0.00663342
0.00160984
0.000687375
-0.00632444
0.00129602
0.00134192
-0.00561334
0.00101018
0.00219816
-0.00490138
0.00031518
0.00220679
-0.00519428
-0.000194312
0.000753396
0.00510445
-0.00501557
-0.000391757
0.000728819
-0.000412457
0.000700027
-0.00640521
0.00100062
0.000173009
-0.00558411
0.000904872
0.000784008
-0.00547633
0.000642523
0.0021361
-0.00540556
6.94047e-05
0.00208589
-0.00475274
-8.3613e-05
0.0014335
-0.00462973
-0.000282551
-0.000242736
0.00550401
-0.0053783
-0.000148958
-1.7164e-05
4.09528e-05
0.000620408
-0.00469012
0.000451143
-8.51255e-05
-0.00410234
0.000213364
0.000240339
-0.00513519
0.000134632
0.00123281
-0.0055571
0.000119415
0.00192872
-0.00453039
-0.000148029
0.00142521
-0.00380155
-0.000246718
0.000562419
-0.00425445
1.66451e-05
-7.24879e-05
0.00418033
-0.00412708
0.000241137
-3.39769e-05
0.000253423
0.000105596
-0.00298588
-0.000371975
0.000167179
-0.00288229
-0.000227901
0.000318842
-0.00405217
-0.00034378
0.00113798
-0.00484436
-0.000486058
0.00152468
-0.00424893
-0.000408971
0.00126948
-0.00371616
-0.000465609
0.000900678
-0.00357359
-0.000226547
0.000442512
-0.00302358
0.000163149
-0.000163906
0.00347444
-0.00336506
0.000461118
0.000201418
0.000287263
0.000174168
-0.00220101
-0.00050505
0.000386481
-0.00304682
-0.000531515
0.000394772
-0.0041062
-0.000601405
0.000915357
-0.00485004
-0.000625437
0.00129227
-0.00432792
-0.000440177
0.0011437
-0.00333614
-0.000505951
0.00111285
-0.00305779
-0.000443431
0.000654098
-0.00257913
-7.12719e-05
0.000292615
-0.00128984
0.000248156
0.000225339
0.00065944
-0.000593622
0.000252847
0.000190048
0.000197056
0.000360338
-0.00263483
-0.00060965
0.000463153
-0.00374748
-0.000669228
0.000342604
-0.00422832
-0.000685441
0.000715548
-0.00456986
-0.000595268
0.00101694
-0.00351457
-0.000536376
0.000898082
-0.00269155
-0.00056607
0.000980804
-0.00269042
-0.000504432
0.000656177
-0.000764993
-0.00025523
0.000409001
0.000328742
6.70116e-05
0.000387533
0.00153829
0.0001473
8.26073e-05
-0.00205145
0.00214862
0.000106638
1.37603e-06
7.19472e-05
0.000257262
-0.00268454
-0.000441943
0.000243724
-0.00325767
-0.000490607
0.000402534
-0.00334974
-0.000469937
0.000427219
-0.0031675
-0.0004355
0.000700989
-0.00271717
-0.000424219
0.000750077
-0.00223669
-0.000477752
0.000755615
-0.00187726
-0.000447369
0.0006587
0.000351898
-0.000328963
0.00047528
0.00122395
-0.00015296
0.000330631
0.00247231
-5.28852e-06
0.000220521
0.00361911
5.26945e-05
-6.47477e-05
-0.00428375
0.00440585
6.11778e-05
-1.65262e-05
-2.11213e-05
0.000156315
-0.000987669
-0.000195284
0.000237239
-0.00108511
-0.000243665
0.000333264
-0.00112411
-0.000316931
0.000346341
-0.000679129
-0.000366583
0.000340882
-0.000664608
-0.000369994
0.000376567
-0.000502623
-0.000368414
0.000444685
-9.11512e-05
-0.000312642
0.000465389
0.00046914
-0.000206902
0.000364812
0.00155606
-0.000144435
0.000265739
0.00277921
-5.68239e-05
0.000173173
0.00413611
-3.72487e-06
9.20639e-05
0.0047317
-4.133e-05
-2.13571e-05
-0.00378255
0.00375643
-7.67908e-06
-1.96419e-05
-2.24331e-05
8.95261e-05
0.000190007
-3.91057e-05
0.000122037
0.000166761
-5.45623e-05
0.000140141
0.000184646
-6.9369e-05
0.00014696
0.000688798
-7.42168e-05
0.000116282
0.000757991
-7.87033e-05
0.000132632
0.00108453
-8.62758e-05
0.000177442
0.001472
-9.2666e-05
0.000192979
0.00123798
-7.60363e-05
0.000182501
0.00160814
-4.85017e-05
0.000164024
0.00238602
-3.25483e-05
9.16562e-05
0.00369681
-2.09154e-05
4.69538e-05
0.00412165
-2.13695e-05
1.45653e-05
0.00304245
-2.4964e-05
-1.28096e-05
-0.00351719
0.00351113
-4.68734e-06
0.00119268
0.0056297
-0.00561982
0.00450789
0.000834873
0.00422432
0.00181699
-0.00617348
0.00437597
0.000426216
0.00623405
-0.00625192
0.00474629
0.00108618
0.00427279
0.00199164
-0.00639063
0.00386826
0.00165024
-0.0064562
0.00417298
0.00102109
0.0055799
-0.00564276
0.00448415
0.00200357
0.00310096
0.00178595
-0.00654522
0.003142
0.0018824
-0.00637903
0.00319208
0.00138443
-0.00559594
0.0034195
0.00250602
0.00776217
-0.00729701
0.00253157
0.00261005
0.00133041
0.00178664
-0.00648597
0.0025237
0.00178822
-0.00601641
0.00192513
0.00196094
-0.00553484
0.0018933
0.00253172
-0.00611919
0.00159895
0.00223399
0.00702672
-0.00686703
0.000994879
0.00220133
0.000485518
0.00122167
-0.00671068
0.0021402
0.00125629
-0.00635436
0.00144467
0.00183526
-0.005706
0.00107372
0.00233679
-0.00565576
0.000704136
0.00255677
-0.00610566
-9.5691e-05
0.00110069
0.00508576
-0.00572944
0.000431227
0.000356074
-0.000359392
0.00113842
-0.00692859
0.00181416
0.00057372
-0.00640355
0.00128824
0.00126309
-0.00552627
0.000729861
0.00243598
-0.0048971
0.000706011
0.00229983
-0.00514461
5.15834e-05
0.00157976
-0.00510584
-0.000250299
-0.000629192
0.00510083
-0.00508208
-2.40484e-05
-0.000254683
-0.000188
0.000964457
-0.00669299
0.000848944
0.0001021
-0.00563304
0.000862328
0.000563583
-0.00553642
0.000641718
0.00150868
-0.00532975
0.000290847
0.00208789
-0.00476483
-7.76774e-05
0.00156869
-0.00454897
-0.000307848
5.79485e-05
-0.00497704
-0.000179333
-0.000421351
0.0051989
-0.00495844
-4.05528e-05
-0.000400199
0.000209168
0.000380984
-0.00488985
0.000197659
0.00013821
-0.00397407
0.000351846
8.82437e-05
-0.00497567
0.000284449
0.00123798
-0.00540608
-0.000116378
0.0018279
-0.00465534
-5.88575e-05
0.00158142
-0.00401425
-0.000247274
0.00055706
-0.00414698
-1.05676e-05
0.000115103
-0.00404056
0.000257537
-0.000899628
0.00563344
-0.00511117
0.000454585
-0.000240637
0.000507081
0.000151891
-0.00298396
-0.000274915
0.000261627
-0.00288769
-0.000241721
0.000183169
-0.00370466
-0.000363804
0.000965693
-0.00467668
-0.000561799
0.00150218
-0.00460532
-0.000339573
0.00133735
-0.00388561
-0.000433168
0.00111614
-0.00373978
-0.000302705
0.000592125
-0.00321674
2.85795e-05
0.00022946
-0.00357545
0.000436703
-1.85434e-05
0.0029549
-0.00291465
0.000664756
0.000120215
0.000270164
0.000223715
-0.00211873
-0.00045857
0.000331454
-0.00297305
-0.00044712
0.000121193
-0.00392961
-0.000486686
0.000767574
-0.00491317
-0.000590294
0.00120513
-0.0047532
-0.000388352
0.00117844
-0.00358353
-0.000473135
0.00114433
-0.00323801
-0.00048926
0.000739507
-0.00284929
-0.000256601
0.000340352
-0.00150114
0.000208682
0.000413349
-0.000646331
0.000275049
-2.25051e-05
0.000399309
-0.000178595
0.000137246
-5.2969e-05
9.89076e-05
0.000465094
-0.00278333
-0.000615425
0.00043048
-0.00388388
-0.000660009
0.000408586
-0.00420767
-0.000695931
0.000452734
-0.00464316
-0.000637661
0.000928078
-0.00380307
-0.00053386
0.00103158
-0.00292477
-0.00058466
0.000955409
-0.00289179
-0.000564494
0.000801316
-0.00108391
-0.000328127
0.00045846
6.30638e-05
2.72681e-05
0.000447096
0.00130915
0.000179686
0.000230537
0.00218347
0.000102432
-0.000240269
-0.00218566
0.00243979
2.80336e-05
-0.000156732
9.23829e-05
0.00016952
-0.00265571
-0.000415447
0.000196562
-0.00319423
-0.0004647
0.000300425
-0.00330837
-0.00049914
0.000395277
-0.00324084
-0.000445525
0.000699493
-0.00309219
-0.000419094
0.000783333
-0.00260573
-0.000461949
0.00077411
-0.00221323
-0.000471202
0.00072293
1.45605e-05
-0.000367572
0.000521461
0.000928039
-0.000189703
0.000383687
0.00225045
-4.90474e-05
0.000265424
0.0035014
2.01739e-05
2.28932e-05
0.00445907
6.86435e-05
-0.000233191
-0.0040828
0.00420372
0.000152087
-8.59734e-05
-1.06691e-05
0.000158491
-0.00105047
-0.000192378
0.000239045
-0.00114951
-0.000247888
0.000360161
-0.00128139
-0.000306401
0.000359795
-0.00086783
-0.000341064
0.000373876
-0.000915395
-0.000373391
0.000381382
-0.000748705
-0.000372662
0.000476272
-0.000426305
-0.00033209
0.000496207
7.49431e-05
-0.000221672
0.000396956
0.00128561
-0.000150906
0.000310541
0.0025549
-6.66511e-05
0.000239351
0.00394963
-1.80344e-05
0.000154235
0.00466673
-4.60413e-05
1.99913e-05
0.00372311
-1.34349e-05
-0.000137282
-0.00401145
0.0040545
7.37388e-05
-2.0978e-05
-4.57043e-06
9.95184e-05
0.000101823
-4.39219e-05
0.000127997
5.97532e-05
-6.00953e-05
0.000133994
7.16408e-05
-7.55514e-05
0.000147188
0.000549957
-7.77165e-05
0.000128965
0.00063674
-8.19309e-05
0.000139801
0.000956997
-9.09714e-05
0.00018318
0.00130081
-9.82723e-05
0.000201405
0.00102453
-8.06236e-05
0.000197545
0.00138247
-4.79085e-05
0.000173521
0.0021967
-3.27063e-05
0.000113226
0.00357302
-2.19913e-05
6.44946e-05
0.00406042
-2.41756e-05
3.16714e-05
0.00301545
-2.60405e-05
4.30142e-06
0.00348556
-3.69783e-06
-0.000165853
-0.00270051
0.00284168
1.9994e-05
0.000657051
0.00574877
-0.00553696
0.00474693
0.000298273
0.00466136
0.00142837
-0.00538525
0.00474992
0.000119468
0.00598566
-0.00598459
0.00481357
0.000361537
0.00479662
0.00192587
-0.00614029
0.00447635
0.000815258
-0.00619034
0.00514936
0.000289106
0.0056796
-0.00542602
0.0052247
0.00113073
0.0048034
0.00218565
-0.00656392
0.00379475
0.00162024
-0.00624808
0.00392229
0.000923223
-0.00590791
0.00489934
0.00219445
0.00693075
-0.0065167
0.00438167
0.00264231
0.00258528
0.0019933
-0.00638758
0.00293382
0.00191231
-0.0060207
0.00265959
0.00167167
-0.00538324
0.00326865
0.00238268
-0.00656707
0.00283859
0.00230286
0.0080676
-0.00788335
0.00227845
0.00230977
0.00112621
0.0015873
-0.00661166
0.0024956
0.00181484
-0.00593354
0.00188228
0.00233788
-0.00570271
0.00159039
0.00257965
-0.00596871
0.00149995
0.00292819
-0.00670431
0.00106481
0.00122461
0.00615644
-0.00627678
0.000991309
0.000121117
0.00107041