/*--------------------------------*- C++ -*----------------------------------*\
  =========                 |
  \\      /  F ield         | OpenFOAM: The Open Source CFD Toolbox
   \\    /   O peration     | Website:  https://openfoam.org
    \\  /    A nd           | Version:  7
     \\/     M anipulation  |
\*---------------------------------------------------------------------------*/
FoamFile
{
    version     2.0;
    format      ascii;
    class       surfaceScalarField;
    location    "6.5";
    object      phi_0;
}
// * * * * * * * * * * * * * * * * * * * * * * * * * * * * * * * * * * * * * //

dimensions      [0 3 -1 0 0 0 0];

internalField   nonuniform List<scalar> 
54006
(
6.89357e-05
-0.00104109
0.000991184
-6.12056e-06
0.000190751
-0.000500392
0.000421513
-8.46823e-05
7.0671e-05
-3.80388e-06
7.60469e-05
0.000936386
-9.49496e-06
4.31042e-05
-0.000916972
0.000890165
-2.24179e-05
0.000459465
0.000711788
-0.00101134
-0.000372463
0.000186821
-7.12988e-05
0.000222251
0.0003278
-0.000119758
0.000218361
-0.000492493
0.000340956
-0.000108402
3.80392e-05
-2.04837e-05
7.86947e-05
0.00087889
-1.18275e-05
5.29231e-05
0.000854654
-2.69078e-05
5.90834e-05
-0.00128323
0.00123176
-3.00283e-05
0.00058113
0.00207557
-0.00226484
-0.000387967
0.000449901
-0.000334393
0.000502464
-0.00133215
-0.000397406
0.000504021
0.00108311
-0.00142956
-0.000311672
0.000199124
-8.62093e-05
0.000227093
0.000235032
-0.000154021
0.000251695
0.000169664
-0.000147238
0.000213409
-0.000530067
0.000393484
-0.000126145
5.05849e-05
-2.73851e-05
8.28372e-05
0.00081774
-1.333e-05
5.70138e-05
0.000814965
-2.91522e-05
7.60479e-05
0.00116509
-3.62944e-05
7.25236e-05
-0.00185686
0.00179024
-3.59365e-05
0.000506358
0.00322953
-0.00316603
-0.000575981
0.000657356
-0.000427127
0.000586249
-0.0023904
-0.000431846
0.000668455
0.00269839
-0.00290653
-0.00034426
0.000484614
-0.000274257
0.000469052
-0.0016043
-0.000395119
0.000567911
-0.00178293
-0.000360253
0.000505856
0.00135547
-0.00169446
-0.000265126
0.000216846
-0.000104442
0.000236978
0.00013438
-0.000186508
0.000247208
3.41041e-06
-0.000177962
0.000241403
0.000244119
-0.000163228
0.000216529
-0.000634758
0.000512451
-0.000147843
6.45687e-05
-3.32149e-05
8.36239e-05
0.000755321
-1.4564e-05
5.97747e-05
0.000773025
-3.11643e-05
8.50828e-05
0.00109057
-3.97128e-05
8.75683e-05
0.00170932
-4.29437e-05
7.4279e-05
-0.00168485
0.00161918
-4.45475e-05
0.000254883
0.00404197
-0.00392924
-0.000347522
0.000629654
-0.00068328
0.000517193
-0.00316821
-0.000520786
0.000713074
0.00325032
-0.00347648
-0.000394437
0.000752334
-0.000293804
0.000534032
-0.00248346
-0.000443367
0.000714468
-0.00302459
-0.00046034
0.000729071
0.00270384
-0.00290937
-0.000361947
0.00052123
-0.000220469
0.000448965
-0.00181459
-0.000420506
0.000552763
-0.00210215
-0.000381447
0.000529232
-0.00199226
-0.000350285
0.000442557
0.000776458
-0.000953513
-0.000314099
0.000209113
-0.000125891
0.000266501
-9.98013e-06
-0.000210028
0.000234575
-0.000153512
-0.000204385
0.000260435
7.95036e-05
-0.000188699
0.000242838
0.000384473
-0.000190519
0.000184669
-0.000653123
0.000547171
-0.000152281
6.79328e-05
-4.1384e-05
8.12029e-05
0.000695032
-1.59549e-05
5.99285e-05
0.00073153
-3.2998e-05
9.08787e-05
0.00101162
-4.30966e-05
9.45542e-05
0.00162152
-4.64603e-05
8.89819e-05
0.00153997
-5.27151e-05
5.19334e-05
-0.00194581
0.00189796
-4.86338e-05
3.8571e-05
0.00537526
-0.00518289
0.00019313
0.000380578
-0.000404966
0.000412131
-0.00394258
-0.000373742
0.000519749
0.00471874
-0.0044582
-0.00041474
0.000811131
-0.000469695
0.00040097
-0.00313708
-0.00047618
0.000725919
-0.00359804
-0.000410679
0.00086417
0.00386091
-0.00415939
-0.000231063
0.00078557
-0.000275807
0.000549506
-0.0025938
-0.000499598
0.000702708
-0.00310463
-0.000513273
0.000776285
-0.00313058
-0.000486182
0.000756193
0.00183743
-0.00209504
-0.000417978
0.000475786
-0.000287298
0.000493164
-0.00199659
-0.000434016
0.000521704
-0.00236373
-0.000446061
0.000525632
-0.00223087
-0.000408025
0.000491957
-0.0011808
-0.000372117
0.000397232
0.000452414
-0.000632528
-0.000346547
0.000176186
-0.000125554
0.000250012
-0.000163185
-0.000219032
0.000223271
-0.000314624
-0.000212259
0.000266522
-8.88318e-05
-0.000211693
0.000238527
0.000266603
-0.000214802
0.000220003
0.000425458
-0.000199828
0.000179239
-0.00108622
0.000954854
-0.000148223
4.22828e-05
-4.51578e-05
7.85733e-05
0.000637035
-1.74533e-05
5.91368e-05
0.000690756
-3.43178e-05
9.61037e-05
0.000929087
-4.65644e-05
0.000101164
0.00152736
-5.00983e-05
9.86889e-05
0.00145122
-5.63978e-05
7.02689e-05
0.00183263
-5.76541e-05
9.05343e-05
-0.00252109
0.00243507
-5.31478e-05
0.000293555
0.00618597
-0.00604069
0.000636767
6.8087e-05
0.000231702
0.000305662
-0.00498793
0.000397272
0.000504991
0.00580943
-0.00578262
0.000181076
0.000660713
-0.000378076
0.000398266
-0.00395577
-0.000409536
0.000466466
-0.00419149
-0.000380996
0.00105873
0.00472939
-0.00494928
-0.00038941
0.00106362
-0.000211096
0.00039034
-0.00311373
-0.000434848
0.000720201
-0.00368309
-0.000408627
0.000841364
-0.00431182
-0.000323328
0.00122099
0.00300476
-0.00334518
-0.000355432
0.000845872
-0.00035267
0.000589103
-0.00269121
-0.000521109
0.000695763
-0.00321113
-0.000567159
0.000761609
-0.00333325
-0.000546586
0.000811303
-0.00242033
-0.000480234
0.000736987
0.00144332
-0.00178623
-0.00041483
0.000410314
-0.000302505
0.000460436
-0.00215138
-0.000469392
0.000499859
-0.00257391
-0.000500419
0.000502631
-0.00244028
-0.000472767
0.000489731
-0.00143637
-0.000403654
0.000450763
-0.00082252
-0.000412885
0.000413504
0.0003819
-0.000648669
-0.000314042
0.000164748
-0.000127369
0.000233003
-0.000322817
-0.000212155
0.000205966
-0.00047615
-0.000204336
0.000273403
-0.000259027
-0.000219363
0.000239025
0.000153035
-0.000235987
0.000247209
0.000290451
-0.000228315
0.000224039
0.000793784
-0.000192529
0.000262657
-0.00165994
0.00150025
-0.000160661
7.99284e-05
-4.97152e-05
7.84972e-05
0.000578841
-1.86225e-05
6.23522e-05
0.000645951
-3.49998e-05
0.000104514
0.00084004
-4.97848e-05
0.000109248
0.00142546
-5.39212e-05
0.000105702
0.00135547
-6.00577e-05
8.51556e-05
0.00175293
-6.1859e-05
0.000112266
0.00232804
-6.28892e-05
0.000101018
-0.00235416
0.00224928
-4.92834e-05
0.000672011
0.0062513
-0.00636403
0.00125902
0.000210933
0.000698102
0.000443562
-0.0057866
0.000747551
0.00070312
0.00613837
-0.00614141
0.000441683
0.000659554
0.000119634
0.000439392
-0.00483609
0.000311956
0.000347797
-0.00555313
0.000286447
0.0013258
0.00542742
-0.00548459
-2.88185e-05
0.00127783
-0.000340395
0.000194467
-0.00374675
-0.000379294
0.000435282
-0.00399539
-0.000320719
0.000959732
-0.00509159
-0.000357056
0.00154191
0.00350511
-0.00396347
-0.000251964
0.00128566
-0.000251211
0.000447849
-0.00303217
-0.000491436
0.000693469
-0.00365975
-0.000455894
0.000793316
-0.004361
-0.000391148
0.00123666
-0.00362198
-0.00047189
0.00105291
0.00179833
-0.00204652
-0.000423169
0.000737421
-0.000341343
0.000502228
-0.00269776
-0.000568131
0.000669863
-0.00329868
-0.000603561
0.000757162
-0.0035813
-0.000573635
0.000844681
-0.0028402
-0.000481671
0.000742222
-0.00207835
-0.000479564
0.000685597
0.00114166
-0.00148017
-0.000348416
0.000388695
-0.000263126
0.000421656
-0.00229072
-0.000478218
0.00046191
-0.00279184
-0.000507413
0.000485324
-0.00265077
-0.000501848
0.000478232
-0.00171904
-0.000429305
0.00047826
-0.00102852
-0.000428702
0.000490169
-0.000927974
-0.000399711
0.000455967
-0.000300846
2.6964e-05
-0.000233471
0.0002379
-0.000154825
0.000223859
-0.000484717
-0.000197091
0.000196987
-0.000628116
-0.000194823
0.000293242
-0.000439289
-0.000212801
0.000270411
1.96478e-05
-0.000247139
0.000266454
0.000147533
-0.000253821
0.000268534
0.000606634
-0.000224543
0.000320009
0.00128745
-0.000187472
0.000272173
-0.00216066
0.001975
-0.000146153
8.63226e-05
-4.65457e-05
7.81026e-05
0.000521193
-2.04488e-05
7.00368e-05
0.000593052
-3.57606e-05
0.000117964
0.00073941
-5.2334e-05
0.00011758
0.00131606
-5.79567e-05
0.00010833
0.00125692
-6.36991e-05
0.000100181
0.00165873
-6.60384e-05
0.000122932
0.00221082
-6.75785e-05
0.000127019
0.00211729
-5.79253e-05
9.49651e-05
-0.00255862
0.00245652
-4.21492e-05
0.00123688
0.00606797
-0.00620656
0.00164358
0.000604109
0.00108988
0.000633961
-0.00637142
0.0014909
0.000916252
0.00620501
-0.00610444
0.000945316
0.000919148
0.000431784
0.000490908
-0.00555202
0.000859377
0.000603733
-0.00614732
0.00049752
0.00159412
0.00559376
-0.00561677
0.000196368
0.0015693
-5.81027e-05
0.000323749
-0.00467905
8.50037e-05
0.000258224
-0.00527093
0.000206814
0.00118541
-0.00543717
1.3353e-05
0.00198382
0.00428985
-0.00458903
-0.00017155
0.00161765
-0.000245245
0.000256873
-0.00349616
-0.000399383
0.000433389
-0.0037005
-0.000414106
0.000826888
-0.00506643
-0.000379452
0.00155966
-0.0043723
-0.000271222
0.00127734
0.0028033
-0.00299106
-0.000288631
0.000954999
-0.00025652
0.000342195
-0.00289506
-0.000509986
0.000642352
-0.00358237
-0.000541304
0.000803936
-0.00430952
-0.000554152
0.00117753
-0.00387912
-0.000466854
0.0012112
-0.00240381
-0.000583581
0.000904661
0.00203332
-0.00237922
-0.000296335
0.000635252
-0.000230363
0.000455637
-0.00267346
-0.000607983
0.000602927
-0.00334185
-0.000665974
0.000729358
-0.003848
-0.0005809
0.00084907
-0.0032876
-0.000497063
0.000732559
-0.00234209
-0.000472238
0.000809105
-0.00180755
-0.000471115
0.000595269
0.00109909
-0.00139551
-0.000191295
0.000402278
-0.000190343
0.000384297
-0.00240013
-0.000490711
0.000406737
-0.00296546
-0.000514342
0.00048743
-0.00286556
-0.000486811
0.000545717
-0.00205796
-0.00043824
0.000514202
-0.00126995
-0.000435626
0.000548953
-0.00119186
-0.000445231
0.00054385
-0.000295551
-0.000301037
0.000391121
-0.00166478
0.00145834
-0.000145988
0.000231781
-0.000144662
0.000209398
-0.000632784
-0.000187333
0.000199841
-0.000750656
-0.000204356
0.000318387
-0.000612095
-0.00022244
0.000312164
-0.000138945
-0.000248793
0.000280382
2.3391e-06
-0.000273996
0.000315887
0.000393766
-0.000256659
0.000344218
0.00104469
-0.000203064
0.000339823
0.00173827
-0.000163549
0.000214342
-0.00259863
0.00243076
-9.76606e-05
8.08154e-05
-4.19047e-05
7.64506e-05
0.000464059
-2.30145e-05
8.00092e-05
0.000530058
-3.74636e-05
0.000121034
0.000637145
-5.45289e-05
0.00012097
0.00120471
-6.19534e-05
0.000107824
0.00115844
-6.73038e-05
0.000114913
0.00155031
-7.01904e-05
0.000134351
0.00208297
-7.25407e-05
0.00014243
0.00196888
-6.15986e-05
0.000121496
0.00232453
-4.7428e-05
8.52374e-05
-0.00310822
0.0030087
-2.7871e-05
0.00143704
0.0065662
-0.00637892
0.00214289
0.00103284
0.00149337
0.00119634
-0.00635785
0.00198407
0.00120355
0.0063421
-0.00631952
0.0013337
0.0012465
0.000672457
0.000769137
-0.0065496
0.00156372
0.00102531
-0.00615587
0.00112076
0.00187328
0.00591843
-0.00573002
0.000477747
0.00178965
0.000229144
0.000560593
-0.00551381
0.00103582
0.000390738
-0.0060049
0.000584451
0.0014222
-0.005556
0.000199961
0.00218929
0.00475727
-0.00480647
4.00892e-05
0.00199332
-9.27541e-05
0.000465887
-0.00437435
-0.000125885
0.000119297
-0.00502003
0.000148203
0.000984959
-0.00540299
1.45609e-05
0.00207518
-0.00495512
-0.000136084
0.00151539
0.00375065
-0.00394933
-0.000210913
0.00116832
-0.000183693
0.000194371
-0.00331399
-0.000409895
0.000550196
-0.00358017
-0.000427551
0.000720859
-0.00486293
-0.000534525
0.00142289
-0.00458361
-0.000413516
0.00153941
-0.00320784
-0.000382657
0.000973654
0.00288922
-0.00302387
-0.000222976
0.000858246
-0.000151558
0.000301367
-0.00277467
-0.000554046
0.000581875
-0.00348928
-0.000582023
0.000810746
-0.00429238
-0.000639828
0.00110279
-0.00418583
-0.000501169
0.00121216
-0.00279999
-0.00055027
0.001047
-0.0027401
-0.000460594
0.000673082
0.0018673
-0.00213635
-0.0001051
0.000527435
-7.88282e-05
0.000388652
-0.00262085
-0.000623102
0.000545879
-0.00340414
-0.00068484
0.000674999
-0.00405633
-0.000645207
0.000850347
-0.00367783
-0.000495302
0.000756953
-0.00258399
-0.000497906
0.000845805
-0.00206041
-0.000516233
0.000774892
-0.0017401
-0.000357572
0.000376875
-0.000201004
1.30837e-05
1.08714e-05
0.000321329
-0.000100853
0.000340394
-0.00248476
-0.000486457
0.000361284
-0.0031
-0.000517614
0.000463992
-0.00303919
-0.000486312
0.000595525
-0.00239556
-0.000432568
0.000559361
-0.00154506
-0.00044211
0.000601419
-0.00142217
-0.000490848
0.000619465
-0.000672656
-0.000343373
0.000504669
0.00119762
-0.000205161
0.000358729
-0.00230771
0.00204779
-3.04537e-05
0.000176463
-9.05766e-05
0.00019
-0.000759404
-0.000184887
0.000210436
-0.000850317
-0.000218099
0.000322022
-0.000760378
-0.00025706
0.000313059
-0.000283344
-0.000270129
0.000292437
-0.000138194
-0.000292873
0.000346884
0.000174524
-0.000286726
0.000356701
0.000790761
-0.000225083
0.000375849
0.00146923
-0.000167435
0.000274048
0.0022321
-0.000117445
0.000111762
-0.00340226
0.00329635
-1.82742e-05
6.91751e-05
-2.62855e-05
7.5548e-05
0.000406416
-2.62292e-05
9.28438e-05
0.000454658
-4.04581e-05
0.000124741
0.000531905
-5.69646e-05
0.000128683
0.00108724
-6.57485e-05
0.000106291
0.00106103
-7.08312e-05
0.000124309
0.00143302
-7.43189e-05
0.00014661
0.00194383
-7.76564e-05
0.000156721
0.00180473
-6.51113e-05
0.00013831
0.00217281
-4.81884e-05
0.000113087
0.00287943
-3.12458e-05
2.18803e-05
-0.00395126
0.00391776
-1.62467e-05
0.00149331
0.00688189
-0.00673317
0.00312799
0.00127402
0.0023258
0.00158355
-0.00649855
0.00247689
0.00132419
0.00584657
-0.00594718
0.00212286
0.00138934
0.00132153
0.00124117
-0.00657344
0.00208887
0.00153443
-0.0061434
0.00129882
0.00173158
0.00623569
-0.00611781
0.00135754
0.00205029
0.00034582
0.000812758
-0.0064856
0.00160585
0.00076011
-0.00622245
0.00126093
0.00184559
-0.00564171
0.000609063
0.00223678
0.00580765
-0.00550264
0.000125244
0.00208102
7.15205e-05
0.000864227
-0.00573882
0.00115155
0.000250461
-0.00575367
0.000653419
0.00116321
-0.00544992
0.000300118
0.00231307
-0.004929
8.46043e-05
0.00168928
0.00459062
-0.00455109
-0.000173335
0.00130944
-0.000113756
0.000334231
-0.00433068
0.00034646
0.000235663
-0.00481999
-1.13948e-05
0.000732903
-0.00540628
0.000139448
0.00188946
-0.0053099
-9.7222e-05
0.00181181
-0.00416742
-0.000190396
0.000865839
0.00370229
-0.00362839
-0.000177001
0.000757775
-5.58407e-05
0.000201595
-0.00309117
-0.000442149
0.000225132
-0.00325492
-0.000378408
0.00061283
-0.00456416
-0.000528408
0.00126469
-0.00469433
-0.000585702
0.00153708
-0.00346053
-0.000485746
0.00124119
-0.00323151
-0.000369213
0.000515976
0.00302628
-0.00315743
6.52826e-05
0.000446748
3.27411e-05
0.000199443
-0.00256827
-0.000590586
0.000503158
-0.00337827
-0.000622337
0.000691732
-0.00423868
-0.000652455
0.00100914
-0.00446324
-0.000521211
0.00120385
-0.00326147
-0.000486583
0.00105017
-0.00297811
-0.000516625
0.000912947
-0.00249593
-0.000239061
0.000324216
0.001656
-0.0018424
0.000133958
0.00026338
8.98338e-05
0.000341431
-0.00257155
-0.000620138
0.000548756
-0.00353551
-0.000679207
0.000619919
-0.00423958
-0.000657515
0.000845821
-0.00403936
-0.000533972
0.000847392
-0.00285362
-0.000513703
0.000872731
-0.00229742
-0.000532207
0.000856837
-0.00204953
-0.000444173
0.000499303
-0.000212961
-0.000126162
0.000345229
-0.000962771
0.000824153
0.000162989
0.000307409
-1.2708e-05
0.000294797
-0.00255013
-0.000473529
0.000334676
-0.00320441
-0.000506284
0.000454394
-0.0031962
-0.000492979
0.000590918
-0.00272986
-0.000429872
0.000650617
-0.0018973
-0.000438507
0.000637397
-0.00164263
-0.000512167
0.000663328
-0.0010767
-0.000393434
0.000530728
0.000948141
-0.00024877
0.000420186
0.0017716
-7.5108e-05
0.000200919
-0.00303722
0.00287272
4.48902e-05
7.66567e-05
-1.27693e-05
0.000162441
-0.000853431
-0.000189231
0.000228188
-0.000941245
-0.000229303
0.000326359
-0.000886596
-0.000293499
0.000300044
-0.000407616
-0.00030415
0.000304647
-0.000287807
-0.000318872
0.000369761
-4.70842e-05
-0.000316716
0.000386851
0.000516207
-0.000252412
0.000410863
0.00116743
-0.000177432
0.000306908
0.00202429
-0.000128222
0.000173302
0.00314603
-2.7338e-05
7.16329e-05
-0.00443492
0.0043827
-1.58047e-05
-4.9161e-06
-1.27985e-05
7.74811e-05
0.000345325
-3.00907e-05
0.000104072
0.000368883
-4.45265e-05
0.000130859
0.000421028
-6.04404e-05
0.000139465
0.000959821
-6.90082e-05
0.000104996
0.000964316
-7.40279e-05
0.000124464
0.00131621
-7.84882e-05
0.000158381
0.00179403
-8.29027e-05
0.000170495
0.00162528
-6.86949e-05
0.000153536
0.00200217
-4.80138e-05
0.000131524
0.00273196
-3.2234e-05
4.0046e-05
0.00386262
-1.61624e-05
1.12885e-05
-0.00418128
0.00417501
-2.12609e-05
0.0016412
0.00642571
-0.00630755
0.00354932
0.00136039
0.00329142
0.00170486
-0.00663443
0.00333392
0.00139486
0.00602203
-0.00602439
0.00305967
0.00137033
0.00258726
0.00140968
-0.00640237
0.00241103
0.00179827
-0.00612582
0.00239171
0.00161106
0.00633333
-0.00601286
0.00192291
0.00181554
0.0013362
0.00128536
-0.00690968
0.00203606
0.00137016
-0.00608555
0.00142097
0.00200457
-0.00590388
0.000925915
0.00238146
0.0062482
-0.00596563
0.000930286
0.00208632
0.000102237
0.00118185
-0.00648849
0.00169878
0.000664002
-0.00627235
0.00124221
0.00154023
-0.00546263
0.000704827
0.00247761
-0.00530129
0.000243173
0.00185895
0.00585195
-0.00552043
-0.000375938
0.00138008
-0.000262755
0.000814248
-0.0061197
0.00109648
0.000239166
-0.00545603
0.000850404
0.000975201
-0.00536338
0.000324579
0.00221036
-0.00507672
0.000126939
0.00207345
-0.00466211
-6.60115e-05
0.00079474
0.00505435
-0.00475944
-0.000397146
0.000568161
-0.000114086
0.000337253
-0.00425058
0.00021007
-0.000139086
-0.00445677
0.000347459
0.000479688
-0.00555951
0.000274978
0.00159246
-0.00552886
3.0642e-05
0.00178794
-0.00428565
-0.000229842
0.0013271
-0.00368704
-0.000217658
0.000115106
0.00445689
-0.00430438
7.13614e-05
0.000208431
0.000147828
0.000206767
-0.00313325
-0.000248
0.000244492
-0.00306326
-0.00037514
0.000450755
-0.00429053
-0.000411058
0.00106694
-0.00472649
-0.000554049
0.00151569
-0.00385136
-0.000506722
0.00130374
-0.00348225
-0.000488574
0.000842445
-0.00338738
-6.87637e-05
0.000146858
0.00289165
-0.00288514
0.000236134
0.000173932
0.000216086
0.000172571
-0.00238242
-0.000535132
0.000365666
-0.00311584
-0.000669922
0.000583468
-0.00414694
-0.000677635
0.000956502
-0.00464427
-0.000582102
0.00129338
-0.00382009
-0.00040857
0.00109595
-0.00314949
-0.000538426
0.000990035
-0.00277791
-0.000367846
0.000545763
-0.00218681
5.8887e-05
0.000174625
0.0012553
-0.00121921
0.000268472
0.000321528
0.000213134
0.000341206
-0.00256256
-0.000621908
0.000457337
-0.00361167
-0.000666632
0.000515714
-0.00433103
-0.000649082
0.000778264
-0.00431684
-0.000567385
0.000957903
-0.00317614
-0.000518744
0.000868661
-0.00251639
-0.000525997
0.000942552
-0.00239088
-0.000470079
0.000569029
-0.000482652
-0.000212783
0.000418725
0.000580184
0.000119268
0.000274132
-0.00176572
0.0016742
0.0001813
0.0001564
4.32766e-05
0.000240719
-0.00259241
-0.000465109
0.000300101
-0.00327303
-0.000476831
0.000427016
-0.00331304
-0.000490102
0.000536591
-0.00301962
-0.00043977
0.000715601
-0.00230976
-0.000428362
0.000687248
-0.0019003
-0.000498322
0.000718669
-0.00149337
-0.000427315
0.000584786
0.000669711
-0.000288926
0.000441058
0.00149712
-0.000108439
0.000276743
0.0026806
1.35756e-05
0.000103426
-0.00380413
0.00375131
6.59157e-05
3.57672e-05
8.35685e-06
0.000140186
-0.000917946
-0.000193732
0.0002265
-0.00101721
-0.000235696
0.000359453
-0.00102427
-0.000320222
0.000320172
-0.000539126
-0.000342695
0.000319147
-0.00045887
-0.000347238
0.00037796
-0.000270325
-0.000349126
0.000422211
0.000219394
-0.000283733
0.000439792
0.00083757
-0.000191848
0.000335431
0.00180279
-0.000137828
0.000216234
0.00297634
-4.32412e-05
0.000117749
0.00427508
2.58028e-06
5.22014e-05
-0.00476123
0.00475411
-4.96069e-05
-1.62651e-05
-1.97928e-05
8.09915e-05
0.000279107
-3.4517e-05
0.000113417
0.000274773
-4.93977e-05
0.000139219
0.000301898
-6.46159e-05
0.000146649
0.000824604
-7.1873e-05
0.00010653
0.000865603
-7.68259e-05
0.000125494
0.00119937
-8.26784e-05
0.000167755
0.00163601
-8.82234e-05
0.000181928
0.00143304
-7.25973e-05
0.000167978
0.00181382
-4.83155e-05
0.000148703
0.00256766
-3.24252e-05
6.75998e-05
0.00378103
-1.82418e-05
2.424e-05
0.00415603
-2.14211e-05
-6.68772e-06
-0.00304309
0.00305222
-2.36984e-05
0.00149103
0.00639526
-0.00640419
0.0040587
0.00121014
0.0037833
0.00203264
-0.0062895
0.00386055
0.0010774
0.00639486
-0.00646876
0.00394069
0.00139935
0.00340195
0.00162111
-0.00656911
0.00322388
0.00196933
-0.00622234
0.00336081
0.00154821
0.00628187
-0.00605683
0.00289748
0.00175042
0.00228493
0.00155913
-0.00635073
0.00245494
0.00172789
-0.00618596
0.00211344
0.00187911
-0.00565716
0.00216145
0.00261691
0.00703322
-0.00664028
0.00129452
0.00229292
0.000704832
0.00135563
-0.00683976
0.00204086
0.00143238
-0.00637559
0.00155772
0.00187726
-0.00570329
0.00088335
0.0024741
-0.00571596
0.000679753
0.00206613
0.00712356
-0.00654886
0.000148396
0.00176759
-0.000359912
0.00120156
-0.00662381
0.00160581
0.000693228
-0.00631885
0.00129121
0.00135877
-0.00560436
0.00100036
0.00221057
-0.00490007
0.000303391
0.00220331
-0.00519973
-0.00020739
0.000718174
0.00511152
-0.00501369
-0.000397205
0.000708894
-0.000415606
0.000698334
-0.0063892
0.00100803
0.000179102
-0.0055826
0.00090486
0.000799027
-0.00546615
0.000633835
0.00215613
-0.00538187
6.6052e-05
0.00207929
-0.00474054
-8.59794e-05
0.00141953
-0.00463176
-0.000286113
-0.000249251
0.00550509
-0.00538923
-0.000148655
-2.93124e-05
4.07154e-05
0.000620712
-0.00468302
0.00045791
-9.28937e-05
-0.00412428
0.000214965
0.000252443
-0.00515099
0.000137247
0.0012403
-0.00555979
0.000132541
0.0019303
-0.00451795
-0.000151672
0.00141784
-0.00378486
-0.000246115
0.000553401
-0.004252
1.90046e-05
-7.73345e-05
0.00418263
-0.00413008
0.00024301
-3.72979e-05
0.000256026
0.000107397
-0.00299729
-0.000367914
0.00017049
-0.00288841
-0.000227671
0.000326122
-0.00406727
-0.000341053
0.00114156
-0.00483945
-0.000483154
0.00152515
-0.00422138
-0.000415802
0.00127005
-0.00369548
-0.000467596
0.000894785
-0.00355948
-0.000221229
0.000432904
-0.00301085
0.000169798
-0.000178354
0.00347403
-0.003349
0.00046408
0.000200555
0.000288786
0.000171693
-0.00220429
-0.000503741
0.000385373
-0.00304359
-0.000535422
0.000408696
-0.00410281
-0.000607031
0.000915007
-0.0048332
-0.000625447
0.00129401
-0.00429945
-0.000438857
0.00114145
-0.0033236
-0.000507245
0.00111018
-0.00304267
-0.000441304
0.000653009
-0.00257277
-6.58639e-05
0.000289671
-0.00128172
0.000250449
0.000222272
0.00065606
-0.000589388
0.00025366
0.000188418
0.000197825
0.000358184
-0.00261016
-0.000607058
0.000463472
-0.00372917
-0.000667779
0.000343502
-0.00423047
-0.000683678
0.000727467
-0.00456484
-0.000591959
0.00101826
-0.00351273
-0.000533453
0.000893814
-0.0026789
-0.000562795
0.000980975
-0.00267538
-0.000503801
0.000653167
-0.000766572
-0.00025454
0.000405724
0.000333977
6.87582e-05
0.000385039
0.00153602
0.000149151
8.072e-05
-0.00205387
0.00214894
0.000108942
3.0326e-06
6.96359e-05
0.000260173
-0.00267438
-0.000444245
0.000246319
-0.00326632
-0.000491631
0.000405507
-0.00336552
-0.000470406
0.000428593
-0.00318248
-0.000435657
0.000702055
-0.00270894
-0.0004235
0.000747327
-0.00222049
-0.000477545
0.000752726
-0.00187433
-0.000447872
0.00065524
0.000356849
-0.000329901
0.000472146
0.00122555
-0.00015407
0.000327316
0.00246819
-7.11039e-06
0.000217411
0.00361453
5.06932e-05
-6.66066e-05
-0.00429479
0.004419
6.05179e-05
-1.59254e-05
-2.28055e-05
0.000155374
-0.000989406
-0.000195723
0.000234009
-0.00108837
-0.00024316
0.000331826
-0.00113564
-0.000316929
0.000346007
-0.000692819
-0.000365888
0.000340341
-0.000666403
-0.000368972
0.000375906
-0.000500637
-0.000367339
0.000444281
-9.31052e-05
-0.000313153
0.000463478
0.000479941
-0.000207653
0.000363246
0.00156055
-0.000144868
0.000264215
0.00278074
-5.77468e-05
0.000174352
0.00413027
-5.18381e-06
8.88663e-05
0.00473182
-3.97527e-05
-1.81282e-05
-0.00377006
0.00374046
-8.56332e-06
-2.01494e-05
-2.30324e-05
8.93274e-05
0.000202946
-3.93036e-05
0.00012181
0.000173235
-5.4789e-05
0.000140202
0.000182006
-6.97077e-05
0.000146463
0.000688184
-7.46583e-05
0.000116681
0.000756183
-7.91343e-05
0.00013211
0.00107746
-8.70277e-05
0.000177179
0.00146977
-9.36155e-05
0.000192864
0.00122881
-7.68517e-05
0.000182289
0.00160705
-4.81248e-05
0.000161777
0.00239025
-3.26736e-05
9.13916e-05
0.00367872
-2.15087e-05
4.43255e-05
0.00411592
-2.24616e-05
1.39284e-05
0.00304198
-2.51193e-05
-1.35547e-05
-0.00350372
0.00349815
-4.57285e-06
0.00116959
0.00563346
-0.0056257
0.00451772
0.000818085
0.00423633
0.00181147
-0.00617263
0.0043762
0.000395434
0.00622095
-0.00624201
0.00476172
0.0010701
0.00429012
0.00199741
-0.00638588
0.00386545
0.0016312
-0.00645895
0.00418887
0.00103621
0.00558283
-0.00563016
0.00450001
0.00202534
0.00309575
0.00178372
-0.00654996
0.00314125
0.00189054
-0.00636974
0.00320863
0.00138552
-0.00561905
0.00341662
0.00252324
0.00780463
-0.00734142
0.00252795
0.00262205
0.00131712
0.00179162
-0.00647558
0.00251579
0.00179285
-0.00601415
0.00192265
0.0019553
-0.00552698
0.00190523
0.00255028
-0.00614186
0.00158687
0.00221768
0.00701641
-0.00686417
0.000990739
0.00219534
0.000485454
0.00121791
-0.00670554
0.00213357
0.00127197
-0.00634958
0.00143611
0.00184784
-0.00570052
0.00106588
0.0023517
-0.00566728
0.000693544
0.0025497
-0.00611957
-9.59316e-05
0.00106089
0.00505104
-0.00570374
0.000458382
0.000319346
-0.00035007
0.00113947
-0.00692379
0.00181587
0.000579781
-0.00639453
0.00128081
0.00127871
-0.00551876
0.000725929
0.00244825
-0.00488579
0.000693967
0.00229742
-0.00514541
3.0938e-05
0.00154238
-0.00508988
-0.000254046
-0.000642917
0.00509477
-0.0050689
-2.94141e-05
-0.000264766
-0.00019013
0.000968283
-0.00668843
0.000850604
0.000101986
-0.0056323
0.000862852
0.000581654
-0.00552994
0.000639441
0.00152979
-0.00531999
0.000282465
0.00208716
-0.00475131
-8.00392e-05
0.00155917
-0.00455026
-0.000308814
4.26096e-05
-0.00498662
-0.000177933
-0.000421249
0.00521217
-0.0049799
-3.70114e-05
-0.000415275
0.000208748
0.000384835
-0.00488498
0.000208241
0.000132296
-0.00398882
0.000360641
9.66313e-05
-0.00499271
0.000286177
0.00124726
-0.00541707
-0.000111176
0.00183462
-0.00463509
-5.97873e-05
0.00157734
-0.00399624
-0.000247582
0.000548491
-0.00414215
-9.66863e-06
0.00010639
-0.00404911
0.000264548
-0.000916398
0.00564083
-0.0051179
0.000458121
-0.00023911
0.000509471
0.000152192
-0.00299676
-0.000271969
0.000261047
-0.00289412
-0.00023788
0.00019127
-0.00371265
-0.000364866
0.000969167
-0.00468033
-0.00055433
0.00150743
-0.00458065
-0.000337313
0.00133284
-0.00386699
-0.000435671
0.001109
-0.00372644
-0.000299454
0.000587855
-0.00320019
3.3264e-05
0.000225529
-0.00355717
0.000442113
-2.24415e-05
0.00295329
-0.00291083
0.000666324
0.000114813
0.000271026
0.000219958
-0.00211915
-0.000457577
0.00032902
-0.0029654
-0.000447476
0.000121788
-0.00392434
-0.000492173
0.000777248
-0.00489636
-0.000593652
0.00120928
-0.00473129
-0.000384627
0.0011748
-0.00356826
-0.000475179
0.0011425
-0.00322329
-0.000488142
0.000736954
-0.00284584
-0.00025202
0.000342156
-0.00149503
0.000211008
0.000411431
-0.000641196
0.000275865
-2.41734e-05
0.000396655
-0.000176544
0.000138442
-5.33905e-05
0.000101271
0.000466161
-0.00276199
-0.000608362
0.000436251
-0.00386951
-0.000656652
0.000415753
-0.00421323
-0.000695268
0.000461787
-0.00464619
-0.000635521
0.00093143
-0.00380079
-0.000533267
0.0010264
-0.00290862
-0.000582807
0.000956805
-0.00287942
-0.00056284
0.000797247
-0.00108543
-0.000326948
0.000454921
6.76819e-05
2.89799e-05
0.000444589
0.00130525
0.000182257
0.000226753
0.00218269
0.000106055
-0.000241986
-0.0021895
0.00244173
3.20916e-05
-0.000159196
9.23708e-05
0.000171402
-0.00264801
-0.000417334
0.000195948
-0.00320557
-0.000466936
0.000302807
-0.00332921
-0.000498921
0.000394269
-0.00325637
-0.00044478
0.000700282
-0.0030852
-0.000419337
0.000782078
-0.00258848
-0.000461678
0.000769912
-0.00220602
-0.000471493
0.00072011
2.08451e-05
-0.000368501
0.000518586
0.000930813
-0.000190508
0.000381068
0.00224842
-5.11573e-05
0.00026235
0.00349957
1.98579e-05
2.30574e-05
0.00446658
6.89248e-05
-0.000229468
-0.00408469
0.00420593
0.000150616
-8.78528e-05
-1.12565e-05
0.000156542
-0.00105107
-0.000192903
0.000236458
-0.00115098
-0.00024776
0.000357874
-0.00128968
-0.000306797
0.000358286
-0.000878479
-0.000343091
0.00037444
-0.000916195
-0.000373856
0.000379413
-0.000745343
-0.000371569
0.00047476
-0.00042616
-0.000331864
0.000494899
8.71224e-05
-0.000222369
0.000395691
0.00129086
-0.000151372
0.000309167
0.00255671
-6.82237e-05
0.00023818
0.00394488
-1.914e-05
0.000151135
0.0046658
-4.59703e-05
1.58828e-05
0.00371295
-1.42005e-05
-0.000138901
-0.00400569
0.00404783
7.46361e-05
-2.15311e-05
-4.82587e-06
9.94476e-05
0.000114727
-4.40799e-05
0.000127866
6.63396e-05
-6.02741e-05
0.00013466
6.83649e-05
-7.58078e-05
0.000146979
0.000549488
-7.7992e-05
0.000128781
0.000634932
-8.21874e-05
0.000139221
0.000950645
-9.15425e-05
0.00018309
0.00129872
-9.90632e-05
0.000201395
0.0010152
-8.14027e-05
0.00019752
0.00138043
-4.77517e-05
0.000170851
0.00220432
-3.30503e-05
0.000112302
0.00355598
-2.22355e-05
6.3455e-05
0.00405518
-2.42176e-05
3.11973e-05
0.0030148
-2.6474e-05
4.19826e-06
0.00347265
-3.82259e-06
-0.000167336
-0.00266321
0.00280553
2.04418e-05
0.000641138
0.00575216
-0.0055439
0.0047524
0.000273229
0.00466287
0.00140774
-0.00538684
0.00475694
9.45457e-05
0.00599435
-0.00598894
0.0048132
0.000351249
0.00479939
0.00193455
-0.00614503
0.00448042
0.000777134
-0.00618388
0.00517213
0.000303973
0.00569396
-0.00541385
0.00521384
0.00114408
0.00480094
0.00218767
-0.00656392
0.00379616
0.00160734
-0.00624911
0.0039388
0.000927001
-0.00590148
0.00491871
0.00222143
0.00698225
-0.00655221
0.00437178
0.00265848
0.00257679
0.00199687
-0.00639246
0.00293053
0.00191082
-0.00601517
0.00266871
0.00164966
-0.00538981
0.00328502
0.00240733
-0.00661338
0.00283152
0.0022911
0.00807067
-0.00789457
0.00227844
0.00230189
0.00113034
0.00158795
-0.00659744
0.00249032
0.00182372
-0.00592515
0.00187505
0.00234508
-0.00569712
0.00159555
0.00259767
-0.0059808
0.00149819
0.00291958
-0.00671087
0.00106369
0.00117702
0.0061195
-0.00625501
0.00101012
5.12829e-05
0.00109183