/*--------------------------------*- C++ -*----------------------------------*\
  =========                 |
  \\      /  F ield         | OpenFOAM: The Open Source CFD Toolbox
   \\    /   O peration     | Website:  https://openfoam.org
    \\  /    A nd           | Version:  7
     \\/     M anipulation  |
\*---------------------------------------------------------------------------*/
FoamFile
{
    version     2.0;
    format      ascii;
    class       volScalarField;
    location    "10";
    object      nut;
}
// * * * * * * * * * * * * * * * * * * * * * * * * * * * * * * * * * * * * * //

dimensions      [0 2 -1 0 0 0 0];

internalField   nonuniform List<scalar> 
18720
(
0.000180551
0.000376237
0.000181429
0.000188765
0.00030319
0.000562353
0.000364824
0.000376074
0.000324914
0.000199995
0.000154348
0.000469514
0.000330553
0.000235654
0.000493653
0.000483819
0.000425084
0.000313817
0.000390807
0.000337462
0.000191232
8.37089e-05
0.000156091
0.000344898
0.00038205
0.000194821
0.000249608
0.000386782
0.000231993
0.000194
0.000479431
0.000503874
0.0006685
0.00053279
0.000135798
0.000412644
0.000389557
0.000283266
0.000281475
0.000123152
0.000233305
0.000397383
0.000166051
0.00019185
0.000152923
0.000375955
0.000266537
0.000528353
0.000662131
0.000451566
0.000279448
0.000169077
0.000435994
0.000457143
0.000519158
0.00101545
0.000714519
0.000455618
0.000309863
0.000413713
0.00039571
0.00041352
0.000279188
0.000166578
0.000157603
0.000197636
0.000449986
8.5453e-05
0.000142912
0.000135042
8.75816e-05
0.000390483
0.000247106
0.000531024
0.000643837
0.000395002
0.000341433
0.000570665
0.000408943
0.000485179
0.000585923
0.000563321
0.000249325
0.000429299
0.000490609
0.000619975
0.000612669
0.000463525
0.000455653
0.000193826
0.0001309
0.000377582
0.000322157
0.00047402
0.000297565
0.000166755
0.000313024
0.000113783
0.000243764
0.000322731
0.000110156
0.00010198
0.000119437
0.000109261
0.000507621
0.000833365
0.000479621
0.000943909
0.000418784
0.000694711
0.000317401
0.000410551
0.000460533
0.000391607
0.000486935
0.000239532
0.000398049
0.000634541
0.000542447
0.0005706
0.00070352
0.000165216
0.000457151
0.000825499
0.000262735
0.000566453
0.000784133
0.00110032
0.000585341
0.000365618
0.000533827
0.000270671
0.000316815
0.000217672
0.000252468
0.000263555
0.000122245
0.000366599
0.000566803
0.000398377
0.000263505
0.000273899
5.97881e-05
5.39895e-05
0.00016658
2.45368e-05
0.000296322
0.000216873
0.000520857
0.000774096
0.000542028
0.00053347
0.000836676
0.000704308
0.000670701
0.000428204
0.000637356
0.000477107
0.00100248
0.000524152
0.000745635
0.000544492
0.00059952
0.00061306
0.000137401
0.000457065
0.000617948
0.000807509
0.000489155
0.000541775
0.000509639
0.000509537
0.000629671
0.00091785
0.000544913
0.000525599
0.00049922
0.000473438
0.000606287
0.000387176
0.000918236
0.0008112
0.000779329
0.000305556
0.000245778
0.000140621
0.000257876
0.000302461
0.000353388
0.00054107
0.000671954
0.000236511
0.000161943
0.000168785
0.000147373
8.35902e-05
0.000233158
0.000295001
0.000210803
0.000232848
0.0001453
0.000620804
0.000449267
0.000639845
0.00032703
0.000114009
0.000278572
0.00049601
0.000585274
0.000765913
0.000576893
0.000339275
0.000445162
0.000762846
0.000342771
0.000775585
0.000543524
0.000447721
0.000890516
0.00077182
0.000777087
0.000640346
0.000740182
0.000402784
0.000314074
0.000801978
0.000686919
0.00107243
0.000532462
0.00044356
0.000488536
0.000431487
0.0006398
0.000900696
0.00113363
0.00092463
0.000522554
0.000886648
0.00107031
0.000600842
0.000312592
0.000812818
0.000463237
0.000333077
0.000633066
0.000282678
0.000220344
0.000284745
0.000297679
0.00035712
0.000298274
0.000504735
0.000537762
0.000411434
0.000150386
0.000208244
0.000121087
0.000177591
0.000122036
0.00026443
0.000177376
0.00025702
0.000222922
0.000144835
0.000105671
0.000276663
0.00043761
0.000475422
0.000395727
0.000198788
0.000492408
0.000711692
0.000724222
0.000511073
0.000804769
0.00046149
0.000517274
0.000324239
0.000440584
0.000630101
0.000553691
0.000578474
0.000556498
0.000517881
0.0011247
0.000416808
0.000661771
0.00052855
0.000510497
0.00059629
0.00128926
0.000996191
0.000629624
0.000575619
0.000555484
0.000474883
0.000637647
0.000775063
0.00091285
0.00124967
0.000534129
0.000518235
0.000366602
0.000470554
0.000470315
0.000903835
0.00113617
0.000911466
0.000382345
0.000638642
0.000563275
0.00135781
0.000706781
0.000343514
0.000579365
0.000401165
0.000503339
0.00052604
0.000257182
0.000273431
0.000184256
0.000407406
0.000246841
0.000307055
0.000403844
0.000339701
0.000438096
0.000441418
0.000293971
0.000105034
0.000220832
0.000109702
8.36582e-05
0.000239347
0.000297438
2.98574e-05
0.000230026
0.000198485
0.000132285
0.000119601
0.000218137
0.00040496
0.000392061
0.000492114
0.000442815
0.000398798
0.000327134
0.00122186
0.000699465
0.00051905
0.000598324
0.000611639
0.000551009
0.000262354
0.00025526
0.000859152
0.000966839
0.000700089
0.000847584
0.000379469
0.000637264
0.000474493
0.000583729
0.000593602
0.000465543
0.00053286
0.000545509
0.00118512
0.000416233
0.000592393
0.000501207
0.000528798
0.000662635
0.000854852
0.000870347
0.000913915
0.000426802
0.000638741
0.000613499
0.000632455
0.000450205
0.000623097
0.00079582
0.00082036
0.000682918
0.000598836
0.000828843
0.000656306
0.000388901
0.000574695
0.000888085
0.00102647
0.00112171
0.000517164
0.000448905
0.000584367
0.000500644
0.000840154
0.000668848
0.000483896
0.000572717
0.000532993
0.000453062
0.000381695
0.000286223
0.000230912
0.000250927
0.000160302
0.000359897
0.000221224
0.000402379
0.000310909
0.000352567
0.000371616
0.000365675
0.000340946
0.00024874
0.000105843
0.000196022
0.000119022
0.000143301
0.000200643
0.000312456
0.000440339
0.00023434
0.000164052
0.000137733
0.00012755
0.000218838
0.000349782
0.000395846
0.000494449
0.000473889
0.000450471
0.000479961
0.00042644
0.000236686
0.0006356
0.000537212
0.000730922
0.000587195
0.000391796
0.000615659
0.000260767
0.000252084
0.000906771
0.00069489
0.00111135
0.000451212
0.00068829
0.000365946
0.00075338
0.000602062
0.000820501
0.000596219
0.000668157
0.000675469
0.000657017
0.000435674
0.000454583
0.00043662
0.000644507
0.000943342
0.00111191
0.00122103
0.000198293
0.000614137
0.000567339
0.000859974
0.000677842
0.00081384
0.00127196
0.00123953
0.00086552
0.000442991
0.000717193
0.000793625
0.000588222
0.000518192
0.000517664
0.00067182
0.00070892
0.00101094
0.000461193
0.000631138
0.000423312
0.000738951
0.000469951
0.000671762
0.000973212
0.000916528
0.000667846
0.000817262
0.000678402
0.000285134
0.000521606
0.00067807
0.000572013
0.000573438
0.000787851
0.000712656
0.000482949
0.000510847
0.000414911
0.000422993
0.000353975
0.000331811
0.000252582
0.00018027
0.000282031
0.000183592
0.000434393
0.000272675
0.00037558
0.000296441
0.000334187
0.000301436
0.000199927
0.000206289
0.000247908
0.00014086
0.000111778
0.000352324
0.000280728
0.000318308
0.000112473
0.000229209
0.000166007
0.000146935
0.000129532
7.99595e-05
0.000349539
7.19644e-05
0.000279623
0.000359468
0.000492321
0.000403782
0.000368485
0.000465897
0.000402455
0.000550419
0.00062542
0.000423392
0.000674285
0.000543123
0.000175218
0.00033379
0.000605732
0.000308231
0.000309494
0.00040052
0.000506897
0.000529161
0.000469948
0.000775201
0.000402303
0.000800822
0.000583121
0.000389702
0.000572954
0.000559151
0.000600932
0.000377332
0.000544388
0.000901391
0.000862209
0.000718357
0.00104088
0.000506519
0.0004859
0.000360998
0.000406602
0.000636931
0.000768168
0.000837457
0.00115784
0.00140284
0.000410371
0.000295774
0.000618033
0.000742179
0.000734361
0.000774999
0.00122645
0.000462235
0.000480284
0.00113131
0.000566924
0.000553353
0.000997467
0.000420187
0.000585685
0.000562304
0.000557321
0.000785004
0.00151381
0.000834883
0.00058337
0.000633929
0.000478644
0.000803315
0.000597985
0.000695499
0.000757973
0.000831577
0.000728583
0.00073429
0.000633594
0.000600696
0.000204617
0.000449497
0.000642683
0.000396899
0.000636401
0.000493152
0.000644321
0.000333912
0.000527367
0.000325247
0.000471776
0.000310337
0.0002348
0.000186955
0.000218947
0.000169457
0.000146495
0.000152904
0.000430991
0.000379592
0.000328008
0.000212573
0.000313764
0.000257635
0.000210983
0.000141887
0.000276818
0.000225054
0.000276458
7.09943e-05
0.000127727
0.000171304
0.000325605
0.000185381
0.000205257
0.000157298
0.000155782
0.000134676
0.000167284
0.000243663
7.32434e-05
0.000259159
0.000442847
0.00037525
0.000374875
0.000227952
0.000461255
0.000493228
0.0004438
0.000378195
0.000385409
0.000493565
0.000350551
0.000371038
0.000243376
0.000325207
0.000699994
0.000299215
0.000262289
0.000399831
0.000507249
0.000562076
0.000389314
0.00124807
0.0010577
0.00085358
0.00041643
0.00037419
0.000489272
0.00116104
0.000377396
0.000960061
0.000454301
0.000517856
0.000441128
0.000279379
0.00126584
0.000794819
0.000771591
0.000630848
0.000637844
0.000630051
0.000603737
0.00132024
0.00189438
0.00165873
0.000575559
0.000579825
0.000518572
0.000375851
0.000430603
0.000742692
0.000683764
0.000850003
0.00167331
0.000356449
0.000577553
0.000289533
0.000627728
0.000758376
0.000926256
0.000614167
0.00142308
0.000605584
0.000798481
0.000556558
0.000835562
0.000380618
0.000670415
0.000662515
0.000497108
0.00048978
0.000544651
0.000723902
0.000716999
0.00139468
0.000800585
0.000981295
0.00055414
0.000839349
0.000617696
0.000646482
0.000945666
0.00098398
0.00076625
0.000742429
0.000899003
0.000832837
0.000595493
0.00055595
0.000299953
0.000204998
0.000409983
0.000249863
0.000330643
0.000435948
0.00039674
0.00084449
0.000580072
0.000568285
0.000364397
0.000273467
0.000114714
0.000270083
0.000285511
0.000274531
0.000239853
0.000104918
0.000105524
0.000243058
0.000466776
0.000286668
0.000243058
0.000142176
0.000269609
0.000203671
0.000168437
0.000383359
0.000235657
0.000273163
0.000394029
0.000278674
9.04713e-05
3.78963e-05
0.000175991
0.000194477
0.000186712
0.000130134
0.000156541
0.000165134
0.000134411
0.000194681
0.000169443
9.47872e-05
0.000165772
0.000163041
0.000244626
0.000450323
0.000406644
0.000341321
0.000237714
0.000504117
0.000331299
0.000298523
0.000328741
0.000404111
0.000368229
0.000436103
0.000211499
0.000468895
0.000292063
0.000397425
0.00039173
0.000457692
0.000385996
0.000487814
0.000717481
0.00030284
0.000508445
0.000438607
0.000564077
0.000548798
0.00070153
0.00132552
0.000532514
0.000303308
0.000433929
0.000356987
0.000568227
0.000488924
0.000411657
0.000990569
0.00114638
0.000729496
0.000856007
0.000583539
0.000563141
0.00044691
0.000601686
0.00347048
0.000967392
0.000811508
0.00113988
0.000569632
0.00049194
0.000991636
0.000862451
0.00104855
0.00303999
0.0013028
0.00104012
0.000533342
0.000656053
0.000456358
0.000515644
0.000608969
0.000748734
0.00141699
0.00158585
0.00183099
0.000773663
0.000297238
0.000318425
0.000659768
0.00106034
0.000863645
0.000348582
0.00131984
0.000785469
0.000878622
0.00110841
0.00118342
0.00102104
0.00054543
0.000558909
0.000549668
0.000608651
0.000333367
0.000552978
0.000768848
0.00059173
0.000897809
0.000715929
0.00103666
0.000745301
0.000255959
0.000861399
0.000910881
0.000588074
0.000998818
0.00138377
0.000891298
0.000792115
0.00089339
0.000799557
0.000590675
0.000601647
0.000530325
0.00024571
0.000250958
0.000269114
0.000350873
0.000226524
0.000352197
0.000598686
0.000736709
0.000578165
0.000654386
0.000355117
0.00026274
0.000269695
0.000283735
0.00050671
0.000121247
0.000334516
0.000246102
9.58663e-05
0.000125338
0.000220366
0.000494591
0.000211805
0.000225173
0.000164023
0.000201374
0.000231559
0.000176057
0.000384836
0.000288272
0.000269019
0.000110719
3.59446e-05
0.000135808
0.000101253
0.0001027
0.000180936
0.00010003
0.000269743
0.000100116
0.000167925
0.000169044
0.000135117
9.14771e-05
0.000169425
0.000116198
0.000171122
2.77182e-05
7.72775e-05
0.000277525
0.000341127
0.000408328
0.000199622
0.000376999
0.000375604
0.00041827
0.000324744
0.000251212
0.000489351
0.000510709
0.000567092
0.000361972
0.000345671
0.0003301
0.000469356
0.000295904
0.000260332
0.000353745
0.000387361
0.000551483
0.000518314
0.000403451
0.00028083
0.000248117
0.000242301
0.000549632
0.000303752
0.000868686
0.000433146
0.00035308
0.000470638
0.00048287
0.000404187
0.000494128
0.00122366
0.000302457
0.000362487
0.000525461
0.000357171
0.000758079
0.000612809
0.000546326
0.00145504
0.00112086
0.000822935
0.000477746
0.000660333
0.000428425
0.000711752
0.000688061
0.000493527
0.00185913
0.00269204
0.000760999
0.00056633
0.000661179
0.000550414
0.000597543
0.00099914
0.000940145
0.0012889
0.001964
0.000641514
0.00197744
0.000542975
0.00049914
0.00068327
0.000551159
0.000695394
0.000613123
0.000824589
0.00123759
0.0011225
0.0012504
0.00211461
0.00183789
0.000613825
0.000247185
0.000667969
0.000927733
0.000681714
0.00045489
0.00110145
0.00121483
0.000808863
0.00110494
0.00119417
0.00124627
0.00074649
0.000636595
0.000542053
0.00071755
0.000421412
0.000438905
0.000731212
0.000613427
0.000490967
0.0008169
0.000607682
0.00113635
0.000935059
0.000702496
0.00034658
0.000762244
0.00078841
0.000581837
0.000901634
0.00115988
0.000830422
0.000913894
0.00151946
0.000985177
0.000620055
0.000736959
0.000580888
0.000552865
0.000319646
5.20599e-05
0.000275144
0.0001513
0.000217454
0.00042672
0.000749451
0.000441122
0.000498525
0.000497613
0.000431169
0.000306623
0.000332555
0.000314084
0.000310074
0.00017222
0.000470266
0.000190555
0.000233295
0.000116832
8.75e-05
0.000254495
0.000446486
0.000100185
0.000102499
0.000167042
0.000159826
0.000239189
0.000166464
0.000461494
0.000326547
0.000291148
0.000198827
0.000278708
0.000101916
0.000153287
7.63845e-05
8.22991e-05
0.000473814
0.000116321
0.000495995
0.000194298
0.000184384
0.000167699
0.000145252
0.000144103
0.000109419
5.33578e-05
0.000129833
4.10659e-05
8.17114e-05
7.81831e-05
0.000350536
0.000322341
0.00023509
0.000381981
0.000475296
0.00049369
0.000320448
0.000164519
0.000324198
0.00057517
0.000357484
0.00054417
0.00017363
0.000329147
0.000231375
0.000437281
0.000377872
0.000326628
0.000297065
0.000139825
0.000426664
0.000263901
0.000480425
0.000383695
0.000226654
0.000479306
0.00052734
0.00072137
0.000396277
0.000442772
0.000198273
0.000342353
0.000617225
0.000235681
0.00059184
0.00130506
0.000561822
0.00046297
0.000589662
0.000299112
0.000366392
0.00028326
0.000420379
0.000393826
0.000414356
0.00110921
0.000384224
0.0007634
0.000219261
0.000393788
0.000543069
0.000305509
0.00127427
0.00279149
0.00101345
0.000963045
0.000523342
0.000518495
0.000559944
0.000895435
0.000426789
0.000421249
0.00159409
0.00304074
0.000777382
0.000806531
0.000825439
0.000675543
0.000939964
0.000651026
0.000511143
0.000587554
0.000931158
0.000886365
0.00173759
0.00119874
0.00209484
0.000643914
0.000688718
0.000449279
0.000651632
0.000736105
0.000526789
0.000579204
0.00079143
0.0010304
0.000688783
0.00165989
0.00246138
0.00149265
0.000630392
0.000295193
0.000543713
0.000830096
0.000650624
0.000498934
0.000596263
0.00100855
0.000722527
0.00106607
0.00137877
0.00127039
0.000464088
0.000731527
0.000570151
0.000567978
0.0004807
0.0003898
0.000486061
0.000762536
0.000658992
0.000532081
0.000781339
0.000501291
0.00112392
0.000977602
0.000643075
0.000455926
0.000111097
0.000776362
0.000526173
0.000463942
0.000895871
0.00116217
0.000889082
0.000736877
0.00134417
0.00103489
0.000690147
0.000781785
0.000719948
0.000508574
8.00046e-05
0.00056393
0.000331021
0.000361763
0.000185415
0.000194295
0.000505005
0.000609573
0.000414036
0.000481545
0.00051706
0.000431992
0.000343982
0.000394668
0.000373491
0.00033537
0.000403793
0.000172251
0.000598841
0.000251528
0.000244985
0.000144145
7.02511e-05
0.000245745
0.00033855
0.000113698
8.38223e-05
0.000127497
0.000136056
0.000209256
0.00011776
0.000753037
0.000224892
0.000374095
0.000228138
0.000265092
0.000343532
0.000133823
0.000308025
7.38385e-05
4.95273e-05
0.000196011
0.000164862
0.000343168
0.000459238
0.000169085
0.000158548
0.000152304
7.41675e-05
7.27426e-05
0.000105954
0.000246589
4.26728e-05
6.99064e-05
9.67043e-05
0.000153303
0.000287441
0.000157366
0.000428488
0.000257982
0.000284884
0.000489136
0.000301817
0.000322544
0.000161919
0.000257324
0.00039356
0.000479081
0.000252967
0.000230875
0.000321208
0.000334632
0.000356417
9.09986e-05
0.00026478
0.000195759
0.000621825
0.000293604
0.000247698
0.00034349
0.000170095
0.000597965
0.000354732
0.000598929
0.000442606
0.000291505
0.000280661
0.000456233
0.000374586
0.000168007
0.000636384
0.000600428
0.000374331
0.000382865
0.000474628
0.000375739
0.000500919
0.000395351
0.000379325
0.00032251
0.000747994
0.000487916
0.000808341
0.000520739
0.000295125
0.000577166
0.000370824
0.00032459
0.00108457
0.00205579
0.00118032
0.000741512
0.000847054
0.000656554
0.000358344
0.000364407
0.000483251
0.000285688
4.568e-05
0.00197471
0.00237408
0.000721258
0.00103623
0.000588465
0.00107004
0.000576732
0.000552683
0.000396432
0.000543469
0.000800059
0.00226232
0.00244958
0.00158929
0.000822776
0.000560369
0.000775229
0.000576968
0.000363699
0.000646586
0.000501382
0.000804953
0.000943369
0.00234448
0.000895979
0.00136019
0.00129362
0.00043784
0.000670785
0.000572219
0.000711374
0.000826681
0.00045404
0.000662619
0.000617809
0.000922501
0.000702326
0.00120975
0.00265249
0.00143319
0.00074891
0.000572557
0.000525051
0.000411428
0.000811629
0.000553099
0.00052393
0.000531892
0.00118854
0.000751233
0.000545573
0.00105196
0.00139308
0.000826732
0.000388568
0.000763107
0.000585665
0.000495951
0.000533817
0.0005155
0.000617983
0.000822237
0.000796538
0.000693396
0.000726337
0.000678314
0.000968485
0.000887542
0.000814824
0.000890993
0.000579673
0.000251797
0.000861637
0.000572329
0.000586017
0.000656754
0.00111853
0.000850361
0.000726761
0.000838885
0.0009611
0.000665696
0.000798826
0.000560729
0.000254749
0.000428221
0.000756168
0.000244814
0.000826642
0.000338574
0.000155217
0.000166388
0.000303378
0.000391967
0.000216894
0.000581681
0.000481675
0.000464248
0.000319754
0.000359435
0.000350929
0.000429626
0.00149091
0.000500271
0.000556355
0.000377053
0.000496112
0.000277437
0.000160071
0.000115729
0.000242074
0.000323296
0.000107488
0.000104082
0.00016737
0.000122363
0.000134479
0.00012224
0.000366488
0.000270653
0.000313821
2.32522e-05
0.000645709
0.000228669
0.000277029
0.00012464
0.000172043
9.03904e-05
6.8087e-05
0.000151991
0.000240649
0.000206496
0.000561712
0.000164707
0.000159477
0.00015533
0.000118713
0.000159805
9.29068e-05
7.61492e-05
4.7669e-05
0.000109109
0.000308299
8.84927e-05
0.000281052
0.000372695
0.000262274
0.000287935
0.000230081
0.000197637
0.000481436
0.000246003
0.000303962
0.00026908
0.000406725
0.000339106
0.000316153
0.000315319
0.000377361
0.000408506
0.000265891
0.000414357
0.000193014
0.000411141
0.000326391
0.0002905
0.000427364
0.000236267
0.000287203
0.000211322
0.000194809
0.000201326
0.000597124
0.000493472
0.000429644
0.000304672
0.000507783
0.000360918
0.000505623
0.00045614
0.000599574
0.00052636
0.000243117
0.000627199
0.000475985
0.000406279
0.000425052
0.000274424
0.000519219
0.0010533
0.000622152
0.000396793
0.000450902
0.000436018
0.000357604
0.000282716
0.00019347
0.000616043
0.000960297
0.000371196
0.000762997
0.00036594
0.000545662
0.000422749
0.000527261
0.000478154
0.00023567
0.000598526
0.00159568
0.00237704
0.00102407
0.000603077
0.000911871
0.000524136
0.000422716
0.00041937
0.000660146
0.000501704
0.0011122
0.00198314
0.00268136
0.000524614
0.00121605
0.000624634
0.00117388
0.000756042
0.000266644
0.00047917
0.000586184
0.00069958
0.000848325
0.00135432
0.00313395
0.000695749
0.00106038
0.00070334
0.000607684
0.000422874
0.000313329
0.000381939
0.000417846
0.000823682
0.000532281
0.00107463
0.0011178
0.00123816
0.00182349
0.000930701
0.000960596
0.000279966
0.000402156
0.000364806
0.00104314
0.000709738
0.000578264
0.000668366
0.000597738
0.000640226
0.00041872
0.000835359
0.00140818
0.00160543
0.000917865
0.000655713
0.000647262
0.000441021
0.000567417
0.00102838
0.000677401
0.000966966
0.000452958
0.0011011
0.000924937
0.000590486
0.000958814
0.0014321
0.000944183
0.000427011
0.000466945
0.000363042
0.000711351
0.00045234
0.000484831
0.000422455
0.000829255
0.000787115
0.000911673
0.00081058
0.000778429
0.000756045
0.000854811
0.000932363
0.000399325
0.000937029
0.000527628
0.000437674
0.000212824
0.000768746
0.000555432
0.000642003
0.000738777
0.00100794
0.000847171
0.000784217
0.00103426
0.00109184
0.000630115
0.000677372
0.000492245
0.000873501
0.000502477
0.000432518
0.000414241
0.000547388
0.000381261
0.000247361
0.000192112
0.000236625
0.000297135
0.000386468
0.000295617
0.000638535
0.000523564
0.000421834
0.000346042
0.000263383
0.000534136
0.000530061
0.000146133
0.000270232
0.000521659
0.000245556
0.000453797
0.000104165
0.000273012
0.000209964
0.000141322
0.000331834
0.000252651
7.31913e-05
0.000132981
0.000185834
0.000170412
0.000162151
0.00020241
0.000282617
0.000200255
0.000323483
0.000255753
0.000225201
0.000186666
0.000314693
0.000158516
8.872e-05
0.000110065
8.09656e-05
0.000120779
0.000186773
0.000236237
0.000205786
0.000312347
0.000182572
0.000181607
0.000154665
0.000173011
0.000141632
4.16587e-05
0.000112318
3.78474e-05
9.01924e-05
6.84446e-05
8.90459e-05
0.000442785
9.10711e-05
0.000476981
0.000274164
0.000385958
0.000199822
0.000288971
0.000500135
0.000258056
0.000274144
0.000342296
0.000440287
0.000382745
0.000360048
0.000401256
0.000657331
0.000286392
0.00036117
0.000373095
0.000395191
0.000391258
0.00036445
0.000407574
0.000249867
0.000255352
0.000167485
0.000165448
0.000349196
0.000269592
0.000841892
0.000262883
0.000426145
0.000265938
0.000215146
0.00027281
0.000320968
0.000366911
0.000349128
0.000643276
0.000336176
0.000358902
0.00048819
0.000502367
0.000452459
0.000265068
0.000477845
0.000261569
0.000718757
0.000352848
0.000627997
0.000615494
0.000490038
0.000269995
0.000479601
0.000341751
0.000145515
0.000583458
0.000716237
0.000482806
0.000483132
0.000323759
0.00042829
0.000273472
0.000330154
0.000857099
0.00054021
0.0018752
0.00114143
0.000712745
0.000543156
0.000363399
0.000829935
0.000449681
0.000422246
0.000392416
0.000178372
0.000406162
0.0017461
0.00252487
0.000512657
0.00095982
0.000407161
0.00076289
0.000585261
0.000464806
0.000364177
0.000327414
0.000337555
0.000770401
0.00204912
0.00144538
0.00107962
0.000595105
0.000405318
0.000978036
0.000249931
0.000744716
0.000642345
0.000648239
0.000315529
0.000563165
0.00132165
0.00102768
0.00181156
0.00111561
0.000865432
0.000598848
0.000763788
0.000790725
0.000657002
0.000797148
0.000441352
0.000674413
0.000597727
0.000743211
0.000867095
0.000794553
0.00235385
0.00153046
0.000446578
0.000562034
0.000447451
0.000317946
0.000590632
0.00072877
0.000605778
0.000757398
0.000739101
0.00096211
0.000650111
0.000899056
0.000631333
0.00131441
0.00141129
0.000829068
0.000545374
0.000598942
0.000613858
0.000632807
0.000655314
0.00106676
0.000828645
0.000591424
0.000658588
0.000520899
0.00051018
0.000369517
0.000932265
0.00139453
0.00108064
0.000766701
0.000236589
0.00119652
0.000711906
0.000633517
0.000590493
0.000620853
0.000309511
0.000852657
0.000748116
0.000895007
0.000771376
0.000704178
0.000821039
0.000845303
0.00084041
0.000440289
0.000913223
0.000186867
0.000353491
0.000898479
0.000211945
0.000808028
0.000594881
0.000470969
0.000738661
0.000980097
0.000881075
0.00086221
0.000790893
0.00112801
0.000582252
0.000588153
0.000600052
0.000506458
0.000488731
0.000858987
0.000251423
0.000272509
0.000171175
0.000139273
0.000236629
0.000176848
0.000294173
0.000386943
0.000416473
0.000178584
0.000405287
0.000658094
0.000595124
0.000202229
0.000335162
0.00049605
0.00118175
0.000975135
0.000298664
0.000597753
0.000332722
0.000181698
0.000155484
0.000150255
0.000252431
0.000144533
0.00014873
0.000440322
0.00021234
7.01203e-05
0.000218893
0.000169837
0.00012987
0.000126417
0.000226133
0.000295019
0.00032915
0.000249007
0.000148763
0.000331941
0.000376202
0.000109107
0.000261706
0.000176963
4.6906e-05
0.000165049
6.62992e-05
5.78164e-05
0.000195175
0.000267562
0.000129488
0.000181746
0.000169905
0.000195649
0.000159671
0.000101317
0.000156785
0.000203508
0.000179496
4.98455e-05
7.9327e-05
0.000178596
9.89755e-05
0.000173785
5.43928e-05
1.09961e-05
0.000757054
0.000485067
0.000595714
0.000474191
0.000215671
0.00046752
0.000357596
0.000203139
0.000377116
0.00044781
0.000342164
0.000200602
0.00034329
0.00037008
0.000464071
0.00045053
0.000208044
0.000234131
0.000343066
8.92309e-05
0.000378992
0.000217291
0.000300539
0.000258725
0.000247199
0.000367921
8.60874e-05
0.000476201
0.000446428
0.000302336
0.000441946
0.000349042
0.000215226
0.000161412
0.000386158
0.00033466
0.000570696
0.000351833
0.000241185
0.000293486
0.000305878
0.000227847
0.000360434
0.000188329
0.000571659
0.000236089
0.000472818
0.000309777
0.000369066
0.000244651
0.000238101
0.000322001
0.000207646
0.000349696
0.000337578
0.000439597
0.000327605
0.000223654
0.000427597
0.000341234
0.000435011
0.000309013
0.000316884
0.00051697
0.00183555
0.000381361
0.000549009
0.000531099
0.000329685
0.000289152
0.000507361
0.000327322
0.000253091
0.00060268
0.000470867
0.00103397
0.00106023
0.000758925
0.000520746
0.000370672
0.000562082
0.00059059
0.000499356
0.000496442
0.000226718
0.000393599
0.000585052
0.00147789
0.00154471
0.000564587
0.000616286
0.00113204
0.00080698
0.000628656
0.000668667
0.000593511
8.9877e-05
0.000348717
0.000326222
0.000551784
0.0016337
0.00193721
0.00199143
0.00126978
0.000869493
0.000610573
0.00130543
0.00189155
0.00103749
0.000268611
0.000844554
0.000824029
0.000819203
0.000896268
0.001068
0.00147457
0.000929832
0.000710841
0.00101108
0.000309492
0.000517012
0.000564959
0.000665544
0.000458299
0.000440868
0.000726751
0.000369006
0.000401212
0.000750428
0.000525282
0.00175604
0.00189964
0.00113275
0.000830843
0.000523554
0.000574319
0.000335331
0.00043177
0.000728463
0.000829878
0.000775836
0.000614022
0.000771229
0.000398914
0.000766595
0.000679858
0.00127758
0.00126731
0.0010859
0.000509508
0.00112637
0.000333779
0.000702173
0.000517818
0.000780156
0.000836837
0.000755052
0.000555393
0.000854012
0.000443644
0.000909368
0.000343083
0.000751604
0.001405
0.00087245
0.000467988
0.00038825
0.000469176
0.000233965
0.000483465
0.000680847
0.000584647
0.000620733
0.000389737
0.000757701
0.000976353
0.000976434
0.000812811
0.000495625
0.000792944
0.000791934
0.000794514
0.000598345
0.000503624
0.000543191
0.000241301
0.000702321
0.000222698
0.000367312
0.00067833
0.00067358
0.000448762
0.00055653
0.000894469
0.00088543
0.00108508
0.000834245
0.00111155
0.000568689
0.000427774
0.000416143
0.000589186
0.000465723
2.03866e-05
0.000448729
0.000499868
0.000197706
0.000201023
0.000108738
0.000250064
0.000122537
0.000263953
0.000506346
0.000392601
0.000277712
0.000279001
0.000600077
0.000428005
0.000167827
0.000341634
0.000423137
0.000258107
0.000348626
0.000688168
0.000379037
0.000236195
0.000401111
0.000161131
0.00015469
0.000128236
0.000295658
0.000254598
0.000299161
0.000272197
0.000251968
9.22118e-05
0.000245131
0.000144509
5.99098e-05
0.000126948
0.000214598
0.000592112
0.000190437
0.000589673
9.22818e-05
0.000202271
0.000172826
0.000352006
0.000222561
0.000132838
0.000107459
4.20723e-05
0.000184319
8.26685e-05
0.00014471
0.000102058
0.000250871
0.000156125
0.000223098
0.000173947
0.000180043
0.000155491
9.79726e-05
7.20207e-05
0.000270877
0.000118551
3.78958e-05
7.64157e-05
0.000111499
0.000131256
0.000244613
3.94126e-05
4.65383e-05
9.09789e-05
0.00126772
0.000804786
0.0009406
0.000714356
0.00052463
0.00059874
0.000388655
0.000662601
0.000282997
0.000563784
0.000359748
0.000311857
0.000336065
0.000448081
0.000345278
0.000466329
0.000239561
0.000286883
0.00033374
0.000325865
0.000464909
0.000410317
0.0002743
0.000249204
0.000278363
0.000314004
0.000281895
0.000407298
0.00033264
0.000231231
0.000290177
0.000253547
0.00024925
0.000311045
0.000229901
0.00046157
0.000388865
0.00035225
0.000275386
0.000289587
0.000273397
0.000177905
0.00015651
0.000167918
0.000125825
0.000642779
0.000291038
0.000382558
0.000198077
0.000267162
0.000280403
0.000351454
0.000263133
0.000305679
0.000299452
0.000473119
0.000363121
0.000229092
0.000401559
0.000313813
0.000299718
0.000187641
0.00031962
0.000339558
0.000365365
0.000533129
0.000252573
0.000401734
0.000299277
0.000479994
0.000429236
0.000162556
0.000310303
0.000413829
0.000226873
0.000492732
0.00115077
0.000718108
0.000159196
0.000587613
0.000188369
0.000423695
0.000344179
0.000374855
0.000319735
0.00023743
0.000371869
0.00101095
0.00191152
0.00228827
0.00101102
0.000640534
0.000817263
0.000571516
0.000365148
0.000508172
0.000393164
0.000350882
0.000496695
0.000235066
0.00105394
0.00186742
0.00218202
0.00111156
0.000947615
0.0003363
0.000888269
0.000510184
0.000936885
0.000666738
0.000892967
0.000302841
0.000222315
0.000904547
0.000833578
0.00181547
0.00116649
0.00114047
0.00106025
0.00115522
0.000579315
0.000667145
0.000981013
0.000727294
0.000237575
0.00103469
0.000798407
0.00034733
0.000577653
0.000829997
0.00163994
0.0012531
0.00077591
0.000714374
0.000402487
0.00072723
0.000613557
0.000693527
0.000518294
0.000391023
0.000402564
0.00071653
0.000627585
0.000650152
0.000770145
0.000297473
0.000859151
0.00200089
0.00114841
0.000784639
0.000761522
0.000685401
0.000495193
0.000196446
0.000291515
0.000830867
0.000969406
0.000645156
0.000521744
0.000869983
0.000355541
0.000539629
0.000373243
0.00103181
0.00109787
0.00141409
0.000810596
0.000701421
0.000327607
0.000610106
0.00060085
0.00041631
0.000828455
0.000788915
0.000714152
0.000669699
0.000613758
0.000536267
0.000874392
0.000372997
0.000748341
0.00128279
0.000765426
0.000867604
0.000475728
0.000238673
0.000726452
0.000412327
0.000614786
0.000743168
0.000665131
0.000579235
0.000462588
0.000613181
0.000779474
0.000585808
0.000914401
0.00053902
0.000717888
0.000803195
0.00111154
0.00067658
0.00113615
0.000183151
0.000418885
0.000391239
0.000348071
0.0004332
0.000293437
0.000654644
0.000553663
0.000650925
0.000588593
0.000862983
0.000849264
0.000970098
0.000935089
0.00144515
0.000773701
0.000597012
0.000954808
0.000741549
0.00079503
0.000451007
0.000497935
0.000189252
0.000539519
0.00027616
0.000157014