/*--------------------------------*- C++ -*----------------------------------*\
  =========                 |
  \\      /  F ield         | OpenFOAM: The Open Source CFD Toolbox
   \\    /   O peration     | Website:  https://openfoam.org
    \\  /    A nd           | Version:  7
     \\/     M anipulation  |
\*---------------------------------------------------------------------------*/
FoamFile
{
    version     2.0;
    format      ascii;
    class       volScalarField;
    location    "10";
    object      p;
}
// * * * * * * * * * * * * * * * * * * * * * * * * * * * * * * * * * * * * * //

dimensions      [0 2 -2 0 0 0 0];

internalField   nonuniform List<scalar> 
18720
(
-84.6473
-85.0842
-84.6405
-84.6504
-83.9179
-84.2208
-85.01
-85.164
-84.4385
-83.8792
-84.6418
-84.0094
-83.3792
-83.5787
-84.0572
-84.411
-83.5212
-84.3638
-85.2685
-84.4632
-83.6799
-83.2915
-84.6188
-84.0966
-83.4754
-82.9239
-82.4298
-83.3618
-83.8153
-83.0486
-83.3888
-84.6092
-83.6515
-82.8898
-83.6473
-85.3751
-84.5014
-83.7228
-82.928
-82.9444
-84.6397
-84.1209
-83.5621
-82.9049
-82.6027
-81.0081
-82.1406
-82.7197
-81.8438
-82.7861
-84.08
-83.3
-82.3307
-82.6934
-84.7826
-83.9089
-83.1439
-81.9965
-82.8335
-85.431
-84.5859
-83.7829
-83.0305
-81.9498
-82.5485
-84.6961
-84.1312
-83.6295
-82.8909
-82.6556
-81.7847
-79.7383
-80.7787
-81.3408
-80.3825
-81.4423
-83.0878
-82.2146
-80.9375
-82.0353
-84.3376
-83.5629
-82.665
-80.984
-81.7995
-84.9613
-84.1221
-83.3341
-82.1785
-80.9758
-81.8582
-85.4465
-84.6785
-83.8269
-83.1441
-82.0396
-81.8907
-81.8053
-84.7441
-84.1887
-83.6809
-82.8737
-82.6954
-81.8133
-81.5579
-78.3215
-79.3489
-79.8435
-79.0749
-80.0955
-81.7061
-80.847
-79.7247
-80.6541
-83.4331
-82.4942
-81.2374
-80.1889
-80.7273
-84.6173
-83.8052
-82.9372
-81.2667
-79.8802
-80.8322
-85.1467
-84.2953
-83.5452
-82.3569
-81.1439
-80.4278
-81.7811
-85.4735
-84.7322
-83.8698
-83.2623
-82.1346
-81.9936
-80.9788
-81.5132
-84.771
-84.257
-83.7236
-82.8545
-82.7313
-81.8673
-81.6455
-81.2874
-77.2202
-78.1234
-78.6656
-77.9549
-78.9747
-80.2554
-79.3594
-78.475
-79.3991
-82.0212
-81.1304
-79.9973
-78.9699
-79.9656
-83.8297
-82.7859
-81.5746
-80.5006
-79.4712
-79.6962
-84.8736
-84.0566
-83.2167
-81.5958
-80.0658
-79.0473
-80.404
-85.32
-84.5151
-83.7881
-82.5708
-81.3925
-80.5291
-80.1497
-80.8892
-85.5077
-84.7828
-83.9162
-83.3842
-82.2313
-82.0745
-81.0167
-81.0172
-81.2967
-84.786
-84.3276
-83.7671
-82.8366
-82.7624
-81.9241
-81.7358
-81.2778
-80.6087
-76.4189
-77.1226
-77.547
-77.058
-77.8772
-78.824
-78.1623
-77.4634
-78.3041
-80.7513
-79.6662
-78.6789
-77.9058
-78.764
-82.5565
-81.3398
-80.3399
-79.2524
-78.1369
-79.3251
-84.2497
-83.1904
-81.8633
-80.8122
-79.7106
-78.7455
-78.8557
-85.1628
-84.3469
-83.507
-81.8842
-80.2782
-79.2091
-78.5903
-80.0434
-85.4817
-84.697
-84.0142
-82.8067
-81.6359
-80.7349
-80.2685
-79.9553
-80.9162
-85.5472
-84.8293
-83.9765
-83.5029
-82.3441
-82.1262
-81.0609
-81.1068
-80.5462
-80.5981
-84.8002
-84.3744
-83.8282
-82.8125
-82.7864
-81.9938
-81.8266
-81.2578
-80.6201
-80.1492
-75.8178
-76.3305
-76.5967
-76.3234
-76.9913
-77.7808
-77.2165
-76.6865
-77.3307
-79.0574
-78.3007
-77.762
-76.9789
-77.575
-80.9611
-80.0016
-79.0001
-78.2885
-77.4284
-77.9109
-83.1407
-81.6902
-80.7278
-79.5294
-78.3533
-77.5355
-78.4963
-84.7501
-83.5122
-82.2327
-81.153
-79.9857
-78.9943
-78.1761
-78.5462
-85.4639
-84.6206
-83.7942
-82.1518
-80.4995
-79.3759
-78.723
-78.7073
-79.9434
-85.6326
-84.8853
-84.2374
-83.0536
-81.8751
-80.934
-80.3465
-79.9581
-79.835
-80.4842
-85.587
-84.8663
-84.0621
-83.6207
-82.4671
-82.1863
-81.1121
-81.1966
-80.6134
-79.6699
-80.1379
-84.8164
-84.3982
-83.9113
-82.7987
-82.7892
-82.0727
-81.9216
-81.24
-80.6295
-80.1615
-79.9098
-75.2334
-75.7068
-75.88
-75.7481
-76.2906
-76.7315
-76.3683
-76.1557
-76.6093
-78.0084
-77.4352
-76.891
-76.4702
-76.8983
-79.4681
-78.661
-78.0216
-77.2834
-76.6423
-77.2674
-81.3748
-80.3738
-79.3551
-78.5215
-77.5082
-76.999
-77.1269
-83.6832
-82.2952
-81.0272
-79.8226
-78.6572
-77.9624
-77.6231
-77.9806
-85.2035
-83.9038
-82.498
-81.577
-80.329
-79.2275
-78.3683
-78.1879
-78.5895
-85.7368
-84.9152
-84.0808
-82.4213
-80.6599
-79.5578
-78.8532
-78.8282
-78.6835
-79.8104
-85.7811
-85.0757
-84.4198
-83.3121
-82.1085
-81.0896
-80.434
-80.0049
-79.8499
-79.3204
-79.625
-85.6291
-84.8938
-84.1602
-83.7422
-82.6038
-82.2626
-81.1859
-81.281
-80.6843
-79.7201
-79.0353
-79.9007
-84.8356
-84.4214
-83.9676
-82.7897
-82.766
-82.1281
-81.9607
-81.2381
-80.6479
-80.1774
-79.9161
-79.6733
-74.8817
-75.1655
-75.3253
-75.2192
-75.6393
-76.0129
-75.8229
-75.6248
-75.8149
-76.7995
-76.6703
-76.2954
-75.8282
-76.3162
-78.1792
-77.5465
-77.1083
-76.5897
-76.2828
-76.454
-79.7898
-78.9515
-78.2601
-77.5566
-76.6933
-76.1671
-76.8183
-81.8933
-80.7894
-79.6173
-78.6768
-77.6704
-77.1185
-76.3683
-77.4752
-84.322
-82.883
-81.401
-80.2114
-78.9845
-78.2298
-77.8292
-77.747
-78.1933
-85.6004
-84.3295
-82.7715
-82.0253
-80.7307
-79.4953
-78.617
-78.2558
-77.7386
-78.7143
-86.0085
-85.241
-84.4134
-82.683
-80.8514
-79.7734
-79.0643
-78.8667
-78.6045
-78.3785
-79.2616
-85.9122
-85.2529
-84.5617
-83.5722
-82.3439
-81.2341
-80.4904
-80.0692
-79.8734
-79.3709
-78.4477
-79.0078
-85.6726
-84.9156
-84.2568
-83.8701
-82.7605
-82.3443
-81.3217
-81.3578
-80.755
-79.7769
-79.0553
-78.7533
-79.67
-84.8579
-84.4513
-84.0049
-82.8125
-82.7329
-82.1672
-81.9409
-81.2568
-80.6701
-80.1968
-79.9233
-79.6633
-79.2197
-74.5887
-74.8414
-74.9025
-74.8866
-75.1116
-75.397
-75.2935
-75.1058
-75.5141
-76.1177
-75.8948
-75.8665
-75.3362
-75.6978
-77.1348
-76.7549
-76.366
-76.0691
-75.7146
-76.1548
-78.2466
-77.8211
-77.3628
-76.769
-76.3628
-75.8425
-75.8494
-80.034
-79.4071
-78.5492
-77.7332
-76.9581
-76.5125
-75.7306
-76.4023
-82.5143
-81.2329
-79.9476
-78.8369
-77.998
-77.3054
-76.7155
-76.7244
-77.7027
-84.8388
-83.4808
-81.8448
-80.5963
-79.2251
-78.3779
-77.6976
-77.6968
-78.0448
-77.8945
-85.9165
-84.7139
-83.292
-82.4829
-81.0679
-79.8545
-78.8871
-78.4053
-77.5643
-77.1966
-78.3721
-86.2559
-85.5245
-84.7912
-82.9343
-81.0373
-80.0454
-79.3061
-78.8631
-78.5526
-78.3895
-77.6065
-78.4056
-86.0079
-85.4165
-84.7202
-83.8256
-82.576
-81.3901
-80.5461
-80.0849
-79.8913
-79.4229
-78.5069
-78.0622
-78.7424
-85.7139
-84.9563
-84.3595
-83.954
-82.9189
-82.4367
-81.4904
-81.4114
-80.8251
-79.8433
-79.1021
-78.7821
-78.5907
-79.2149
-84.8623
-84.4751
-84.0418
-82.9519
-82.7103
-82.1763
-81.9165
-81.2887
-80.6956
-80.2193
-79.9337
-79.6604
-79.2221
-79.0378
-74.3306
-74.4984
-74.6698
-74.5712
-74.8292
-74.9827
-74.887
-74.8735
-75.23
-75.5141
-75.3606
-75.2387
-75.1376
-75.2865
-76.252
-76.0736
-75.9287
-75.4376
-75.2781
-75.6055
-77.385
-76.7197
-76.5542
-76.0361
-75.8337
-75.4554
-75.7486
-78.6017
-78.2666
-77.6204
-76.9626
-76.4975
-75.9452
-75.7673
-75.6246
-80.5783
-79.8032
-78.6637
-78.0301
-77.3129
-76.5353
-75.6377
-75.9293
-76.4187
-83.0336
-81.7988
-80.4461
-79.1572
-78.2169
-77.4187
-77.2105
-76.8613
-76.8574
-78.344
-85.28
-84.1222
-82.3279
-80.964
-79.5665
-78.7026
-77.8868
-77.8612
-77.8393
-77.4879
-77.1963
-86.2869
-85.1339
-83.8497
-82.9691
-81.3771
-80.2205
-79.0172
-78.5199
-77.5648
-77.2135
-76.5253
-77.5832
-86.4996
-85.8159
-85.1519
-83.2077
-81.2362
-80.3122
-79.5439
-78.8619
-78.5751
-78.3924
-77.6232
-77.4175
-78.0527
-86.114
-85.5344
-84.8741
-84.0726
-82.7975
-81.5614
-80.6021
-80.1108
-79.9701
-79.4947
-78.5632
-78.0804
-77.9308
-78.5834
-85.7377
-85.0102
-84.4423
-83.9638
-83.0665
-82.5475
-81.6524
-81.4659
-80.8811
-79.904
-79.1581
-78.83
-78.597
-78.5115
-79.0477
-84.8477
-84.4873
-84.0694
-83.0646
-82.6999
-82.1597
-81.8899
-81.3249
-80.7265
-80.2444
-79.9347
-79.6561
-79.2355
-79.0299
-78.8657
-74.1255
-74.2881
-74.3961
-74.3592
-74.5309
-74.6511
-74.6349
-74.6169
-74.8293
-75.1259
-74.9743
-74.9298
-74.8017
-74.9926
-75.6172
-75.471
-75.2745
-75.1301
-74.9756
-75.1811
-76.4403
-76.1087
-75.9264
-75.5929
-75.3604
-75.1315
-75.3532
-77.3541
-77.0436
-76.7992
-76.2403
-75.9581
-75.6175
-75.5207
-75.5366
-78.9122
-78.4374
-77.9007
-77.2401
-76.6547
-76.1287
-75.9329
-75.6007
-75.7528
-81.1706
-80.221
-79.088
-78.3319
-77.4238
-76.4864
-76.1625
-76.004
-76.3364
-76.8167
-83.6847
-82.3693
-80.9284
-79.495
-78.4925
-77.6436
-77.1287
-76.6963
-76.8983
-77.2585
-77.3809
-85.7997
-84.7365
-82.8806
-81.3233
-79.9753
-79.0394
-78.4052
-77.9011
-77.8057
-77.4222
-76.1919
-76.4609
-86.581
-85.5443
-84.3093
-83.3806
-81.6556
-80.5711
-79.2612
-78.6964
-77.678
-77.2499
-76.5844
-76.7113
-77.4471
-86.6785
-86.1103
-85.5067
-83.5193
-81.4883
-80.5982
-79.786
-78.8746
-78.5042
-78.4001
-77.6347
-77.3794
-77.5247
-77.94
-86.2525
-85.6103
-85.0325
-84.2944
-82.9912
-81.7486
-80.737
-80.1998
-80.0325
-79.5476
-78.6328
-78.1138
-77.9516
-78.1186
-78.5039
-85.7664
-85.0585
-84.5207
-83.9993
-83.195
-82.666
-81.8139
-81.5276
-80.9391
-79.9632
-79.2094
-78.8847
-78.6063
-78.4927
-78.3543
-78.9055
-84.8572
-84.4958
-84.1001
-83.1027
-82.6955
-82.1594
-81.8633
-81.3639
-80.7608
-80.2715
-79.9347
-79.6543
-79.256
-78.9983
-78.8561
-78.7826
-73.9924
-74.1415
-74.1291
-74.1519
-74.3374
-74.4003
-74.4147
-74.3604
-74.5241
-74.7099
-74.6798
-74.6295
-74.54
-74.7694
-75.1591
-75.1516
-74.992
-74.8076
-74.7713
-74.9119
-75.6925
-75.5811
-75.4688
-75.2602
-75.0572
-75.0187
-75.1155
-76.6213
-76.2416
-76.0274
-75.7731
-75.514
-75.294
-75.3369
-75.451
-77.714
-77.2742
-76.9298
-76.4329
-76.1309
-75.8508
-75.5006
-75.5613
-75.6268
-79.1675
-78.6191
-77.9268
-77.5402
-76.9314
-76.3288
-76.0561
-75.7832
-75.2971
-76.4959
-81.5896
-80.7687
-79.6893
-78.5357
-77.6958
-77.0379
-76.5633
-75.9371
-76.2576
-77.3493
-77.3713
-84.2242
-83.006
-81.576
-79.88
-78.8248
-77.968
-77.266
-76.9244
-76.8266
-77.1825
-76.5923
-76.0951
-86.2136
-85.3061
-83.4767
-81.825
-80.2888
-79.2992
-78.6098
-77.8309
-77.7268
-77.0988
-76.2446
-76.4948
-76.7462
-86.856
-85.8853
-84.7816
-83.6369
-81.9733
-80.9549
-79.6007
-78.7895
-77.8122
-77.3368
-76.6558
-76.6608
-77.2421
-77.5275
-86.822
-86.3689
-85.8461
-83.8896
-81.7785
-80.8863
-80.007
-78.8789
-78.4128
-78.3966
-77.6517
-77.3487
-77.4864
-77.7444
-78.1143
-86.3572
-85.8348
-85.1594
-84.4733
-83.1671
-81.9318
-80.9118
-80.3215
-80.0612
-79.6266
-78.7171
-78.1304
-77.979
-78.1198
-77.9932
-78.3723
-85.7943
-85.0983
-84.6232
-84.0387
-83.2995
-82.7796
-81.9676
-81.5959
-80.9923
-80.0251
-79.269
-78.9303
-78.6189
-78.4744
-78.3397
-78.3399
-78.7891
-84.8617
-84.5089
-84.1236
-83.1473
-82.7131
-82.1461
-81.8385
-81.4067
-80.7945
-80.2933
-79.9403
-79.6607
-79.2665
-78.9838
-78.8738
-78.7815
-78.7116
-73.8556
-73.9732
-74.0397
-74.0596
-74.0333
-74.1164
-74.1598
-74.1611
-74.32
-74.3087
-74.4504
-74.3941
-74.418
-74.4552
-74.8413
-74.7072
-74.6905
-74.5785
-74.5169
-74.6303
-75.2188
-75.1349
-75.0883
-74.9607
-74.8217
-74.7046
-74.831
-75.8399
-75.6642
-75.5577
-75.3422
-75.1125
-75.0584
-75.0125
-75.2016
-76.4741
-76.423
-76.1745
-75.9385
-75.6564
-75.449
-75.3524
-75.4808
-75.8022
-78.2483
-77.4872
-77.2084
-76.7093
-76.2525
-75.949
-75.5504
-75.5589
-75.3618
-75.3435
-79.5156
-78.9008
-78.3241
-77.7481
-77.0436
-76.5801
-76.158
-75.8773
-75.4618
-75.3811
-77.484
-82.2262
-81.3544
-79.986
-78.9696
-78.0636
-77.5283
-76.7397
-76.2302
-76.3744
-76.9731
-77.8558
-76.7352
-84.7682
-83.7401
-82.0611
-80.2072
-79.1792
-78.2667
-77.5315
-77.1592
-76.9153
-76.9923
-76.6653
-77.2597
-76.4294
-86.6555
-85.8777
-84.1421
-82.3848
-80.7274
-79.555
-78.8061
-78.091
-77.7475
-76.9705
-76.2398
-76.4616
-77.7798
-77.2791
-87.1874
-86.1998
-85.2419
-83.8683
-82.2954
-81.2327
-79.8781
-78.9189
-77.951
-77.3756
-76.7375
-76.6174
-77.2495
-77.504
-77.6775
-86.9616
-86.5752
-86.1748
-84.3064
-82.1158
-81.1878
-80.2478
-78.941
-78.356
-78.4199
-77.709
-77.3049
-77.5373
-77.76
-77.5987
-77.9609
-86.4338
-85.9725
-85.2573
-84.6459
-83.3541
-82.1217
-81.0849
-80.3922
-80.0998
-79.6928
-78.7984
-78.1684
-77.9938
-78.0927
-78.0076
-77.8574
-78.3836
-85.8127
-85.1299
-84.7111
-84.0858
-83.3995
-82.8969
-82.104
-81.6571
-81.0409
-80.091
-79.3329
-78.9657
-78.6401
-78.4744
-78.3276
-78.3186
-78.2622
-78.7135
-84.8534
-84.5146
-84.1308
-83.2116
-82.7735
-82.1618
-81.8102
-81.4516
-80.8292
-80.3133
-79.9488
-79.6628
-79.2651
-79.003
-78.8818
-78.7688
-78.7042
-78.555
-73.8192
-73.8378
-73.8217
-73.8789
-73.9732
-74.0166
-74.0653
-74.0617
-74.1225
-74.2475
-74.2116
-74.1735
-74.2365
-74.3301
-74.4342
-74.3978
-74.4398
-74.4419
-74.3238
-74.4681
-74.7503
-74.8358
-74.7102
-74.6966
-74.5278
-74.3678
-74.6938
-75.2716
-75.2234
-75.2279
-75.0204
-74.7912
-74.7289
-74.7102
-74.9093
-75.9759
-75.7775
-75.6858
-75.4045
-75.2768
-75.1343
-75.0169
-75.1522
-75.5539
-76.8159
-76.5824
-76.429
-76.094
-75.804
-75.5419
-75.3532
-75.4437
-75.5539
-75.8088
-78.0984
-77.8004
-77.3112
-76.9337
-76.3791
-75.9872
-75.6635
-75.7226
-75.5929
-75.8197
-75.9152
-80.054
-79.3955
-78.5068
-77.7275
-77.2343
-76.7174
-76.1216
-75.9159
-75.6412
-75.6696
-77.6372
-78.0406
-82.7509
-81.7914
-80.3581
-79.4089
-78.4033
-77.7847
-76.899
-76.7106
-76.3061
-76.7168
-77.4637
-78.7791
-77.3972
-85.4452
-84.3313
-82.6115
-80.7248
-79.5259
-78.5744
-77.6195
-77.1928
-76.9353
-76.9168
-76.5408
-77.2683
-78.1848
-77.7262
-87.1428
-86.4412
-84.7806
-82.8677
-81.2493
-79.84
-79.0008
-78.1992
-77.7964
-77.0164
-76.233
-76.3857
-77.7159
-77.9024
-77.5738
-87.4394
-86.6224
-85.6514
-84.1703
-82.599
-81.5238
-80.1761
-78.9944
-78.1126
-77.4435
-76.8622
-76.6037
-77.2141
-77.3426
-77.3667
-77.5725
-87.0822
-86.7545
-86.4992
-84.7115
-82.4897
-81.4853
-80.4806
-79.1002
-78.3589
-78.4901
-77.7828
-77.2815
-77.5454
-77.6875
-77.7223
-77.4675
-77.8647
-86.4759
-86.0949
-85.4242
-84.8161
-83.5495
-82.3162
-81.2642
-80.4419
-80.1272
-79.7433
-78.8834
-78.2299
-78.0046
-78.0576
-77.9144
-77.8542
-77.8465
-78.2854
-85.8214
-85.151
-84.7719
-84.142
-83.4887
-82.9637
-82.2302
-81.7135
-81.0785
-80.1569
-79.394
-79.0141
-78.6606
-78.4924
-78.3198
-78.3138
-78.24
-78.2501
-78.5138
-84.8446
-84.5122
-84.1529
-83.2943
-82.8265
-82.253
-81.8196
-81.4951
-80.8645
-80.3371
-79.9587
-79.6598
-79.2708
-79.0025
-78.8682
-78.7601
-78.6996
-78.5946
-78.5693
-73.7619
-73.7819
-73.7984
-73.8117
-73.8951
-73.9003
-73.8943
-73.9233
-74.0146
-74.0809
-74.0811
-74.0678
-74.0601
-74.1094
-74.2469
-74.2589
-74.2163
-74.3026
-74.1666
-74.3015
-74.4803
-74.5086
-74.5315
-74.4466
-74.3912
-74.3324
-74.4876
-74.8998
-74.8419
-74.7875
-74.7485
-74.6076
-74.5702
-74.4894
-74.6944
-75.3744
-75.3812
-75.201
-75.0798
-74.8852
-74.8228
-74.7371
-74.8254
-75.1496
-76.0094
-75.9236
-75.745
-75.4992
-75.4317
-75.2406
-75.0945
-75.1285
-75.397
-75.9883
-77.0914
-76.7998
-76.6587
-76.2671
-75.8906
-75.6537
-75.436
-75.4316
-75.4441
-75.789
-76.0267
-78.6992
-77.8689
-77.5167
-76.9118
-76.6265
-76.1583
-75.9033
-75.7638
-75.5992
-75.5849
-76.9199
-78.6362
-80.5288
-79.7737
-78.8062
-78.1718
-77.4619
-76.8162
-76.2907
-76.0878
-75.8683
-75.8531
-77.1227
-80.6665
-79.5322
-83.4605
-82.451
-80.9807
-79.7862
-78.6927
-78.0549
-77.1485
-76.7654
-76.2094
-76.5364
-77.1466
-77.815
-79.5659
-78.3687
-86.0698
-84.9457
-83.2246
-81.3707
-80.0502
-78.8825
-77.7747
-77.243
-77.0553
-76.8202
-76.4104
-77.0484
-78.016
-78.202
-77.7718
-87.5362
-86.9472
-85.3254
-83.4352
-81.6438
-80.2091
-79.1691
-78.3667
-77.8293
-77.1014
-76.2748
-76.3849
-77.4667
-77.9822
-77.2755
-77.3138
-87.6693
-86.9139
-86.103
-84.6232
-82.9657
-81.9711
-80.4554
-79.0808
-78.2059
-77.5123
-76.9919
-76.6196
-77.1861
-77.2618
-77.3966
-77.0375
-77.4875
-87.2105
-86.9223
-86.7599
-85.0844
-82.9126
-81.7961
-80.7043
-79.2959
-78.4323
-78.5651
-77.8597
-77.3291
-77.5098
-77.6206
-77.6855
-77.4418
-77.4532
-77.8657
-86.5121
-86.1985
-85.6337
-84.9808
-83.7365
-82.5227
-81.4622
-80.5346
-80.1612
-79.8266
-78.9706
-78.285
-78.0238
-77.9963
-77.8508
-77.8368
-77.8187
-77.8736
-78.275
-85.817
-85.1545
-84.8164
-84.2049
-83.59
-83.0097
-82.3134
-81.7761
-81.1088
-80.2188
-79.4554
-79.0578
-78.6808
-78.5244
-78.2913
-78.278
-78.2136
-78.2672
-78.1901
-78.6366
-84.8417
-84.5102
-84.1726
-83.3643
-82.8655
-82.3276
-81.8841
-81.5372
-80.9009
-80.3618
-79.9717
-79.6584
-79.2965
-79.0046
-78.8642
-78.7725
-78.7059
-78.6007
-78.5678
-78.6093
-73.5963
-73.7126
-73.7987
-73.8456
-73.8153
-73.8037
-73.8868
-73.8822
-73.8357
-73.9181
-73.9371
-73.9871
-73.8855
-73.9258
-74.0801
-74.109
-74.1145
-74.0583
-74.0123
-74.1203
-74.3503
-74.2787
-74.2448
-74.2811
-74.2181
-74.1081
-74.3104
-74.5095
-74.5857
-74.5563
-74.4963
-74.4696
-74.3803
-74.2607
-74.4619
-74.9134
-74.9003
-74.8581
-74.777
-74.6358
-74.6323
-74.4871
-74.5623
-74.7912
-75.4867
-75.3914
-75.3082
-75.2004
-74.9689
-74.9421
-74.7999
-74.8473
-75.1774
-75.446
-76.2626
-76.0693
-75.8871
-75.6548
-75.551
-75.3153
-75.1391
-75.1373
-75.3501
-75.386
-76.0987
-77.2403
-77.0588
-76.6305
-76.445
-76.0447
-75.7282
-75.4646
-75.3485
-75.5001
-75.606
-76.1608
-77.8252
-78.9536
-78.289
-77.8316
-77.211
-76.8088
-76.2245
-76.0072
-75.8313
-75.7468
-75.7251
-76.3938
-79.0253
-81.9798
-80.9763
-80.2668
-79.3282
-78.5909
-77.6356
-77.0018
-76.5524
-76.2419
-75.9379
-75.9593
-76.8328
-79.0054
-82.1708
-79.7776
-84.0495
-82.9686
-81.4251
-80.0551
-79.1079
-78.3218
-77.4828
-76.8743
-76.3292
-76.4149
-76.8382
-77.1636
-78.8979
-78.4345
-78.1366
-86.6808
-85.5883
-83.8764
-82.0889
-80.451
-79.2438
-78.1136
-77.2856
-77.1261
-76.6323
-76.3681
-76.7683
-77.7738
-78.3379
-77.0742
-77.1152
-87.9903
-87.4478
-85.9073
-84.1542
-82.0766
-80.5449
-79.4052
-78.5989
-77.9111
-77.246
-76.3598
-76.3566
-77.3335
-77.8779
-77.3291
-76.8672
-77.084
-87.9635
-87.1752
-86.5042
-85.1402
-83.4148
-82.4232
-80.7605
-79.2425
-78.3373
-77.5954
-77.0929
-76.6653
-77.1405
-77.1812
-77.4379
-77.076
-76.9898
-77.4696
-87.3178
-87.0737
-86.9336
-85.4402
-83.3748
-82.1034
-80.9365
-79.5249
-78.6638
-78.6423
-77.9347
-77.3802
-77.5366
-77.6265
-77.5665
-77.4094
-77.5143
-77.4736
-77.9087
-86.5432
-86.2714
-85.7961
-85.1293
-83.9061
-82.7341
-81.6892
-80.695
-80.2119
-79.896
-79.0514
-78.3708
-78.1091
-78.0248
-77.8346
-77.8542
-77.8081
-77.8433
-77.7929
-78.2286
-85.7958
-85.1585
-84.8492
-84.2758
-83.6798
-83.0702
-82.3632
-81.8322
-81.1432
-80.28
-79.5227
-79.1058
-78.705
-78.5712
-78.2995
-78.2111
-78.1965
-78.245
-78.1659
-78.258
-78.5832
-84.8315
-84.503
-84.1792
-83.4132
-82.9066
-82.4083
-81.9762
-81.5834
-80.9375
-80.3867
-79.9829
-79.6725
-79.3121
-79.003
-78.8696
-78.789
-78.7178
-78.5981
-78.5675
-78.6023
-78.7146
-73.6403
-73.5872
-73.6219
-73.6449
-73.7617
-73.6834
-73.8248
-73.7763
-73.845
-73.8201
-73.8478
-73.8767
-73.746
-73.8686
-73.9414
-73.9381
-73.9669
-73.9076
-73.8797
-73.981
-74.1071
-74.1428
-74.0978
-74.0736
-74.0276
-73.9562
-74.2366
-74.2137
-74.3883
-74.3604
-74.2978
-74.2506
-74.1953
-74.0325
-74.2538
-74.6723
-74.5567
-74.6729
-74.5391
-74.4557
-74.3727
-74.2909
-74.3014
-74.5583
-75.0017
-75.0304
-74.9552
-74.8808
-74.6938
-74.6732
-74.5527
-74.5698
-74.622
-74.9579
-75.5788
-75.5384
-75.4227
-75.2846
-75.1511
-75.0316
-74.8724
-74.8514
-75.0443
-74.9199
-75.472
-76.1618
-76.2736
-76.0212
-75.8095
-75.5442
-75.3877
-75.2041
-75.1573
-75.2981
-75.3301
-75.7049
-76.8175
-77.6253
-77.1735
-76.8933
-76.467
-76.2852
-75.7663
-75.513
-75.4639
-75.4362
-75.5772
-75.7575
-76.7244
-80.4472
-79.1615
-78.7346
-77.9676
-77.6353
-76.9372
-76.3979
-76.1395
-75.9142
-75.7294
-75.7551
-76.091
-77.9405
-80.4728
-81.8342
-81.2415
-80.6401
-79.4471
-78.3037
-77.86
-77.1678
-76.65
-76.1261
-76.0313
-76.0704
-76.5838
-77.8071
-80.7509
-79.5395
-78.3932
-84.6407
-83.5391
-81.9921
-80.5303
-79.6218
-78.5536
-77.7414
-76.9815
-76.5766
-76.4045
-76.5761
-76.8397
-77.9603
-78.3087
-77.1688
-76.9606
-87.1892
-86.2539
-84.6058
-82.7485
-81.0006
-79.5237
-78.3955
-77.5127
-77.1761
-76.6027
-76.3444
-76.5733
-77.5011
-78.2311
-77.2885
-76.3722
-76.8669
-88.4677
-88.0577
-86.4638
-84.6192
-82.4703
-80.8954
-79.6488
-78.6119
-77.8215
-77.2639
-76.4901
-76.3333
-77.252
-77.9355
-77.3285
-76.9918
-76.742
-77.2156
-88.2238
-87.5677
-86.8702
-85.6543
-83.9175
-82.8054
-81.2514
-79.4536
-78.524
-77.713
-77.1768
-76.7067
-77.0994
-77.0818
-77.3612
-77.1233
-77.1459
-77.0776
-77.4934
-87.3967
-87.1899
-87.0707
-85.7924
-83.88
-82.4075
-81.1638
-79.6448
-78.705
-78.6941
-77.9973
-77.444
-77.5901
-77.5586
-77.5673
-77.3665
-77.4591
-77.4321
-77.4671
-77.8194
-86.5481
-86.3077
-85.9425
-85.2548
-84.069
-82.9296
-81.9017
-80.876
-80.2732
-79.9463
-79.1479
-78.441
-78.1496
-78.3489
-77.8113
-77.8298
-77.816
-77.8263
-77.7432
-77.9794
-78.298
-85.7648
-85.158
-84.866
-84.361
-83.7522
-83.1258
-82.4284
-81.8808
-81.1797
-80.3409
-79.5911
-79.1463
-78.7274
-78.5639
-78.306
-78.1905
-78.1974
-78.2105
-78.1428
-78.2251
-78.2815
-78.7331
-84.8134
-84.488
-84.19
-83.4761
-82.9443
-82.4838
-82.0623
-81.6311
-80.9691
-80.4019
-79.995
-79.689
-79.3132
-79.0085
-78.8791
-78.7982
-78.73
-78.591
-78.5622
-78.5597
-78.6896
-78.6195
-73.4707
-73.5713
-73.6362
-73.6143
-73.6432
-73.6114
-73.6615
-73.6275
-73.7624
-73.7274
-73.7881
-73.7875
-73.7201
-73.8233
-73.8757
-73.8355
-73.8626
-73.8325
-73.7015
-73.8884
-73.978
-73.9612
-74.016
-73.9512
-73.8664
-73.8445
-73.9416
-74.0849
-74.137
-74.2014
-74.135
-74.0544
-74.02
-73.9026
-74.1153
-74.3514
-74.4352
-74.3394
-74.3426
-74.2713
-74.2125
-74.1074
-74.1084
-74.307
-74.699
-74.6681
-74.659
-74.6271
-74.5377
-74.4606
-74.3441
-74.3426
-74.363
-74.6336
-75.1018
-75.0539
-75.077
-74.9257
-74.8173
-74.673
-74.647
-74.6017
-74.6219
-74.6821
-75.2302
-75.6612
-75.7216
-75.5279
-75.3965
-75.2178
-75.152
-74.9432
-74.918
-74.926
-74.9043
-74.9694
-75.7897
-76.3386
-76.3734
-76.1446
-75.946
-75.6898
-75.461
-75.2538
-75.2318
-75.3041
-75.3257
-75.6401
-75.671
-77.5753
-77.7326
-77.2801
-76.8963
-76.7135
-76.3896
-75.9433
-75.5819
-75.507
-75.4824
-75.6355
-75.5257
-76.0538
-76.8854
-80.8808
-79.3356
-79.0713
-78.3326
-77.7456
-77.1088
-76.6231
-76.2005
-76.2298
-75.8095
-75.814
-76.363
-77.9936
-79.8566
-78.9876
-78.9607
-81.782
-81.1096
-80.1276
-78.9842
-78.2911
-77.2991
-76.8455
-76.2954
-76.2014
-76.1321
-76.3993
-76.8847
-79.3713
-79.8283
-77.6325
-77.1186
-85.0751
-84.1603
-82.5333
-81.0367
-79.7142
-78.7344
-78.0674
-77.1844
-76.6312
-76.2882
-76.474
-76.5765
-77.4084
-78.2075
-77.2743
-76.136
-76.2563
-87.7206
-86.8959
-85.3536
-83.4554
-81.6296
-79.827
-78.6951
-77.6987
-77.2415
-76.7726
-76.4435
-76.3957
-77.2822
-78.1449
-77.4977
-76.6309
-76.3224
-76.5841
-88.9454
-88.4127
-87.0159
-85.1031
-82.8919
-81.2954
-79.9401
-78.694
-78.0009
-77.3691
-76.6421
-76.3655
-77.0959
-77.8242
-77.3185
-77.0335
-76.6092
-76.5326
-77.0955
-88.4433
-87.7847
-87.2137
-86.1502
-84.4052
-83.366
-81.6998
-79.8055
-78.6741
-77.8462
-77.289
-76.798
-77.0413
-77.0448
-77.3544
-77.1369
-77.2079
-77.072
-77.1175
-77.5242
-87.4406
-87.265
-87.2587
-86.1204
-84.3778
-82.7202
-81.3888
-79.8164
-78.7377
-78.7272
-78.0662
-77.4766
-77.6278
-77.5831
-77.4246
-77.4303
-77.4554
-77.411
-77.4377
-77.6886
-78.0184
-86.5352
-86.2985
-86.043
-85.3756
-84.2374
-83.1303
-82.0886
-81.0149
-80.3268
-79.9914
-79.2387
-78.4818
-78.1601
-78.2259
-77.8106
-77.7744
-77.7986
-77.8075
-77.7136
-77.9336
-78.0453
-78.316
-85.7272
-85.1371
-84.9052
-84.447
-83.8264
-83.1716
-82.496
-81.9326
-81.2135
-80.3964
-79.6612
-79.2195
-78.7593
-78.5311
-78.3003
-78.2154
-78.1877
-78.207
-78.1129
-78.1916
-78.2473
-78.3041
-78.6436
-84.7951
-84.4682
-84.1956
-83.5201
-83.022
-82.5459
-82.1468
-81.6753
-81.0018
-80.4271
-80.0096
-79.6985
-79.3205
-79.0075
-78.8891
-78.8013
-78.7437
-78.5886
-78.5045
-78.5294
-78.6617
-78.5698
-78.4912
-73.3963
-73.5015
-73.4466
-73.4467
-73.5482
-73.5888
-73.6606
-73.616
-73.5879
-73.6539
-73.7089
-73.6512
-73.6109
-73.6891
-73.7976
-73.7573
-73.8039
-73.7358
-73.6236
-73.6863
-73.875
-73.8574
-73.9244
-73.8411
-73.7214
-73.6794
-73.7405
-73.9622
-73.9964
-73.9853
-73.9942
-73.9198
-73.8307
-73.7752
-73.9062
-74.1783
-74.1878
-74.2132
-74.0957
-74.0939
-74.0203
-73.9639
-73.9549
-74.0902
-74.4064
-74.3878
-74.3891
-74.313
-74.3428
-74.233
-74.2135
-74.1169
-74.1395
-74.4005
-74.7194
-74.8101
-74.7027
-74.7374
-74.6168
-74.5619
-74.4623
-74.4291
-74.4121
-74.3857
-74.6956
-75.1757
-75.1849
-75.1338
-75.011
-74.8688
-74.7631
-74.7053
-74.6204
-74.6902
-74.6837
-74.779
-75.1914
-75.743
-75.7888
-75.6041
-75.4333
-75.2581
-75.2235
-74.9718
-74.9223
-74.9804
-74.9269
-74.9224
-74.9392
-75.8229
-76.4463
-76.3121
-76.319
-76.0013
-75.8183
-75.5649
-75.3541
-75.2911
-75.274
-75.1974
-75.298
-75.4643
-75.9197
-77.3865
-77.9847
-77.5613
-77.0589
-76.8235
-76.3969
-75.9305
-75.6684
-75.5232
-75.4974
-75.5498
-75.8757
-76.0856
-76.9289
-76.7821
-78.4509
-79.6426
-79.233
-78.5549
-77.9466
-77.3504
-76.9479
-76.4859
-76.2331
-75.8937
-75.9257
-76.144
-77.3443
-79.1551
-79.2595
-76.9427
-77.2674
-82.3773
-81.6393
-80.6827
-79.5309
-78.6256
-77.6138
-76.9931
-76.4953
-76.1936
-76.1108
-76.4149
-76.5636
-78.1874
-79.618
-77.8593
-75.8466
-76.0304
-85.5628
-84.771
-83.1593
-81.5407
-80.1864
-79.0459
-78.4866
-77.5072
-76.7967
-76.4446
-76.3335
-76.2927
-77.0626
-78.0321
-77.238
-76.2752
-75.6522
-76.3059
-88.3678
-87.4654
-86.105
-84.1887
-82.0829
-80.1799
-78.8815
-77.9322
-77.2683
-76.8737
-76.4657
-76.3122
-77.0431
-78.0393
-77.6977
-76.8848
-76.26
-76.0977
-76.5884
-89.2768
-88.7109
-87.5329
-85.891
-83.4146
-81.7227
-80.2574
-78.8543
-78.3644
-77.5333
-76.7804
-76.3723
-76.9521
-77.6843
-77.113
-77.0824
-76.8271
-76.5158
-76.6605
-77.1509
-88.5638
-88.0051
-87.5218
-86.6037
-84.8936
-83.9274
-82.0595
-80.1477
-78.868
-77.9606
-77.4323
-76.9227
-77.0151
-77.0739
-77.2754
-77.161
-77.0299
-77.0968
-77.1193
-77.3764
-77.7337
-87.4417
-87.3195
-87.3713
-86.4126
-84.8314
-83.004
-81.6292
-80.1105
-78.9786
-78.8321
-78.1629
-77.5187
-77.6231
-77.6372
-77.3804
-77.3373
-77.4493
-77.4057
-77.4246
-77.6505
-77.7897
-78.0734
-86.4979
-86.2825
-86.0788
-85.4919
-84.4138
-83.3166
-82.2721
-81.1456
-80.3698
-80.0144
-79.2925
-78.5353
-78.2459
-78.033
-77.8144
-77.7796
-77.7782
-77.7763
-77.7118
-77.8938
-78.0259
-78.0646
-78.3408
-85.6793
-85.1092
-84.9417
-84.4826
-83.8817
-83.223
-82.5842
-81.9844
-81.2534
-80.4438
-79.7364
-79.3025
-78.7965
-78.5457
-78.3171
-78.2394
-78.1882
-78.2121
-78.0832
-78.1679
-78.2247
-78.2653
-78.3618
-78.4766
-84.7731
-84.4457
-84.1948
-83.5386
-83.0732
-82.5752
-82.238
-81.7151
-81.032
-80.4502
-80.0178
-79.7222
-79.338
-79.0071
-78.9017
-78.8025
-78.7548
-78.5923
-78.4836
-78.5422
-78.6317
-78.5078
-78.4938
-78.5477
-73.2893
-73.4065
-73.4353
-73.3793
-73.445
-73.5141
-73.5022
-73.4421
-73.5413
-73.5982
-73.6367
-73.6409
-73.4981
-73.5626
-73.7123
-73.6885
-73.6803
-73.6152
-73.4966
-73.6166
-73.7847
-73.7715
-73.8072
-73.808
-73.6648
-73.5815
-73.6032
-73.8947
-73.9042
-73.8577
-73.9054
-73.7954
-73.6717
-73.6174
-73.7587
-74.0214
-73.9992
-73.9792
-74.0009
-74.0103
-73.9045
-73.8192
-73.76
-73.9087
-74.1925
-74.2113
-74.217
-74.1632
-74.1359
-74.0429
-74.0442
-73.9349
-73.9418
-74.1391
-74.4374
-74.4637
-74.4663
-74.453
-74.3561
-74.296
-74.2547
-74.1926
-74.1246
-74.1101
-74.3489
-74.8102
-74.8053
-74.777
-74.6889
-74.668
-74.5816
-74.5108
-74.3782
-74.393
-74.3511
-74.3896
-74.7291
-75.1791
-75.2569
-75.2216
-75.1047
-74.9441
-74.8271
-74.7223
-74.6613
-74.683
-74.5326
-74.7259
-74.5929
-75.177
-75.7135
-75.8771
-75.7189
-75.5806
-75.3578
-75.1995
-75.0913
-74.9556
-74.9282
-75.0153
-75.0063
-74.9023
-75.0521
-76.0933
-76.7141
-76.5688
-76.394
-76.1542
-75.9347
-75.6601
-75.4417
-75.3213
-75.262
-75.2665
-75.2889
-75.3664
-75.7899
-75.707
-76.4559
-78.1557
-77.7073
-77.5158
-76.9
-76.6087
-76.0999
-75.7317
-75.5334
-75.4815
-75.6096
-75.8376
-76.1751
-76.8222
-77.0437
-75.7702
-76.4289
-80.2122
-79.5825
-78.889
-78.1818
-77.5953
-77.213
-76.6296
-76.3539
-75.9691
-75.9423
-76.0317
-76.272
-78.0119
-79.5583
-77.4942
-75.4207
-75.7737
-82.6223
-82.1682
-81.1862
-79.6635
-78.821
-77.8936
-77.1768
-76.3899
-76.2274
-76.1419
-76.3351
-76.2469
-77.3111
-79.3309
-78.1173
-76.103
-75.3352
-75.6858
-85.9901
-85.332
-83.8705
-82.2664
-80.7832
-79.2134
-78.7173
-77.7383
-76.8855
-76.5395
-76.255
-76.0941
-76.8388
-77.8182
-77.3097
-76.3864
-75.8813
-75.6073
-76.0499
-88.9577
-88.0974
-86.7904
-84.8907
-82.5655
-80.5996
-79.2485
-78.1676
-77.3407
-77.0145
-76.4089
-76.2548
-76.8237
-77.8393
-77.8941
-77.0296
-76.4525
-76.1575
-76.3159
-76.7125
-89.5513
-89.1032
-88.0175
-86.3402
-84.0655
-82.163
-80.6514
-79.1351
-78.4641
-77.6886
-76.9205
-76.4003
-76.8239
-77.5061
-77.0128
-77.0902
-76.8997
-76.7105
-76.6937
-76.9836
-77.3903
-88.5943
-88.1458
-87.7768
-87.0249
-85.4218
-84.5493
-82.4195
-80.4894
-79.0743
-78.0595
-77.5915
-76.9806
-77.0196
-77.0413
-77.1555
-77.1149
-77.0317
-77.0244
-77.0812
-77.3417
-77.4477
-77.9028
-87.4007
-87.3244
-87.453
-86.6637
-85.2438
-83.3189
-81.8879
-80.4306
-79.2282
-78.9672
-78.258
-77.5756
-77.6803
-77.5887
-77.2873
-77.215
-77.4467
-77.4018
-77.3819
-77.6142
-77.7948
-77.8387
-78.0937
-86.4286
-86.2557
-86.0917
-85.5936
-84.5938
-83.4944
-82.4451
-81.2755
-80.4238
-80.1079
-79.3884
-78.6215
-78.3045
-78.1142
-77.807
-77.8222
-77.7997
-77.7619
-77.6644
-77.8585
-77.9754
-78.0304
-78.1502
-78.3935
-85.6097
-85.0732
-84.9541
-84.5429
-83.9362
-83.2827
-82.6688
-82.0333
-81.3008
-80.4921
-79.8012
-79.3428
-78.835
-78.5706
-78.3422
-78.2439
-78.2091
-78.2117
-78.0725
-78.1434
-78.206
-78.2316
-78.3317
-78.4488
-78.5537
-84.7459
-84.4239
-84.1865
-83.579
-83.0921
-82.5847
-82.304
-81.7495
-81.0577
-80.4727
-80.0317
-79.7739
-79.3509
-79.0176
-78.9128
-78.8016
-78.7608
-78.6044
-78.4822
-78.554
-78.6072
-78.4795
-78.498
-78.5302
-78.8099
-73.2776
-73.3337
-73.2553
-73.3591
-73.4735
-73.4813
-73.3368
-73.4314
-73.5167
-73.5472
-73.4936
-73.3681
-73.5175
-73.656
-73.6228
-73.6493
-73.532
-73.4153
-73.4501
-73.7401
-73.7365
-73.6517
-73.629
-73.5235
-73.3856
-73.5427
-73.8068
-73.7691
-73.7551
-73.7925
-73.726
-73.5812
-73.4916
-73.5876
-73.8601
-73.935
-73.9199
-73.9141
-73.8432
-73.7256
-73.6773
-73.5844
-73.7146
-74.0825
-74.0205
-74.028
-74.0401
-74.0174
-73.9522
-73.8388
-73.8055
-73.7379
-73.8853
-74.2131
-74.2298
-74.2532
-74.2207
-74.1386
-74.1255
-74.0318
-73.9699
-73.9568
-73.9102
-74.0549
-74.4517
-74.5357
-74.5238
-74.4772
-74.3924