/*--------------------------------*- C++ -*----------------------------------*\
  =========                 |
  \\      /  F ield         | OpenFOAM: The Open Source CFD Toolbox
   \\    /   O peration     | Website:  https://openfoam.org
    \\  /    A nd           | Version:  7
     \\/     M anipulation  |
\*---------------------------------------------------------------------------*/
FoamFile
{
    version     2.0;
    format      ascii;
    class       surfaceScalarField;
    location    "10";
    object      phi;
}
// * * * * * * * * * * * * * * * * * * * * * * * * * * * * * * * * * * * * * //

dimensions      [0 3 -1 0 0 0 0];

internalField   nonuniform List<scalar> 
54006
(
-8.45341e-05
-0.000916658
0.00100412
-4.8504e-05
-0.000281353
0.00264126
-0.00244215
6.4156e-06
-8.60921e-05
-4.83291e-05
-8.93325e-05
0.00109472
-5.14543e-05
-9.84737e-05
-0.000911193
0.00099984
-3.86759e-05
-0.000437723
0.00270296
-0.0025588
0.000316657
-0.000260236
1.71582e-05
-0.00031209
-0.0022173
-8.69815e-07
-0.000311713
0.00143991
-0.0012366
1.63388e-05
-0.00010218
-4.01181e-05
-8.4211e-05
0.00117746
-4.96241e-05
-0.000107951
0.00109418
-3.78514e-05
-0.0001722
-0.00016431
0.000323544
-2.57099e-05
-0.000614955
0.00418632
-0.00397188
0.000600617
-0.000383097
0.000329686
-0.00046076
-0.00243094
0.000318822
-0.00047184
0.00260837
-0.00235382
0.000222231
-0.000313089
2.04738e-05
-0.000305581
-0.00199585
-7.37476e-06
-0.000333614
-0.00101562
3.82017e-06
-0.000361827
0.00128379
-0.00108346
5.63486e-06
-0.000174238
-2.71067e-05
-7.73319e-05
0.0012523
-4.8702e-05
-0.000108387
0.00118667
-3.37208e-05
-0.000187265
0.000498176
-2.52219e-05
-0.000189748
-0.000342915
0.000522531
-1.55782e-05
-0.000687724
0.005299
-0.00514611
0.00080468
-0.000546126
0.000641709
-0.000658306
-0.00373727
0.000642729
-0.000646269
0.00320905
-0.00299466
0.000560653
-0.000429526
0.0002119
-0.000444932
-0.00228626
0.000275482
-0.000490351
-0.00212053
0.000242276
-0.000469112
0.0022405
-0.00198157
7.0595e-05
-0.00036109
1.14026e-05
-0.000304032
-0.00177424
-1.56178e-05
-0.000339698
-0.000790566
-1.12193e-06
-0.000401508
-0.000860095
-5.30384e-06
-0.000385303
0.00210981
-0.00192499
1.63772e-05
-0.000191736
-1.60979e-05
-7.12327e-05
0.00131938
-4.57602e-05
-0.000107519
0.001277
-3.15146e-05
-0.000182219
0.000669899
-2.32247e-05
-0.000206254
0.000720376
-1.68162e-05
-0.000198443
0.000334075
-0.000141118
-1.00917e-05
-0.000760481
0.00653864
-0.00641899
0.0010687
-0.000585335
0.000843978
-0.000866699
-0.00477556
0.000837499
-0.000553278
0.00441141
-0.00447165
0.000771927
-0.000655125
0.000599581
-0.000675357
-0.00346462
0.000622214
-0.00063515
-0.00280636
0.000599229
-0.000574276
0.0030731
-0.00296584
0.000558561
-0.000449192
6.80784e-05
-0.000440401
-0.00212023
0.000219857
-0.00051017
-0.00194863
0.000274056
-0.000517446
-0.00169615
7.27875e-05
-0.000517502
0.00257415
-0.00242267
5.13207e-05
-0.000375959
2.20642e-05
-0.000304496
-0.00154426
-3.19945e-05
-0.000381442
-0.000513353
-1.89081e-05
-0.000369468
-0.000660589
-1.33784e-05
-0.000437058
-0.00170739
7.90054e-06
-0.000377761
0.00250629
-0.00233382
2.32306e-05
-0.000199302
-9.74339e-06
-6.48932e-05
0.00137955
-4.42616e-05
-0.000108394
0.00136907
-2.94379e-05
-0.000177875
0.000838311
-2.20518e-05
-0.000201663
0.000915364
-1.65489e-05
-0.000219026
7.28199e-05
-1.17318e-05
-0.000205445
-8.80836e-05
0.000286425
-2.98682e-06
-0.000650007
0.0065994
-0.00669559
0.00147956
-0.000506641
0.00114356
-0.000954688
-0.00634193
0.00121861
-0.00035138
0.00596523
-0.00616081
0.00106238
-0.000710825
0.000805396
-0.000868038
-0.00449677
0.000794512
-0.000478782
-0.00457383
0.000783308
-0.000624012
0.00475109
-0.00461639
0.00068696
-0.000509699
0.000546685
-0.00064759
-0.00318206
0.000549449
-0.000645074
-0.00261623
0.000566982
-0.000645031
-0.00281286
0.000573835
-0.000545733
0.00251841
-0.00239094
0.000459323
-0.000548549
5.96888e-05
-0.000518039
-0.00187491
0.000182193
-0.000607125
-0.00165972
0.000156629
-0.000476674
-0.00143711
0.000122227
-0.000629786
-0.00222194
6.47775e-05
-0.000525189
0.00294871
-0.00279374
4.37781e-05
-0.000371989
2.34039e-05
-0.000299178
-0.00131771
-4.08552e-05
-0.000361519
-0.000257992
-3.42312e-05
-0.00037656
-0.00044709
-3.37228e-05
-0.000443187
-0.00148459
5.33618e-06
-0.000419242
-0.002137
1.12933e-05
-0.000324677
0.00263043
-0.00246659
-2.13721e-05
-0.00020742
-7.97289e-07
-5.9699e-05
0.00143434
-4.23578e-05
-0.000102565
0.00145592
-2.85425e-05
-0.000173045
0.00100452
-2.25992e-05
-0.000195113
0.00110478
-1.63526e-05
-0.000215325
0.000284328
-1.27317e-05
-0.000220038
0.000499674
-4.94303e-06
-0.000178031
0.000790558
-0.00062851
1.29954e-05
-0.000433243
0.00608
-0.0062045
0.00171652
-0.000502478
0.00149447
-0.000813844
-0.00686939
0.00166847
-0.000296072
0.00665107
-0.00673262
0.0015058
-0.000523796
0.00110757
-0.000852715
-0.00628807
0.00116822
-0.0005722
-0.00608657
0.00123779
-0.00061148
0.00552677
-0.00560621
0.00112929
-0.000531353
0.000722698
-0.000898483
-0.00419076
0.00082186
-0.000627717
-0.00453546
0.00073879
-0.000715564
-0.0044689
0.000706357
-0.000633037
0.00465148
-0.00464691
0.000769689
-0.000565758
0.000432366
-0.000775429
-0.00279711
0.000444197
-0.000658118
-0.00251412
0.000498336
-0.000657445
-0.00264133
0.000576217
-0.00069633
-0.00225343
0.000502872
-0.000383441
0.00275131
-0.00268789
0.000254156
-0.000523842
5.64188e-05
-0.000507151
-0.00166521
0.000171599
-0.000581588
-0.00139199
0.000134531
-0.000479959
-0.00121399
3.69003e-05
-0.000592669
-0.00200284
5.26086e-05
-0.000577568
-0.00261793
4.72924e-05
-0.000448032
0.00391599
-0.00363181
-0.00011705
-0.000310494
-1.01589e-05
-0.000281008
-0.00110983
-4.51392e-05
-0.000294404
-6.65842e-05
-4.04236e-05
-0.000364727
-0.000246408
-4.32305e-05
-0.000445981
-0.00126245
-4.98947e-06
-0.000411879
-0.00193743
2.3271e-06
-0.000372197
-0.00226221
-4.0933e-05
-0.000214084
0.00188464
-0.00182728
-4.26802e-05
-0.00018883
1.51022e-05
-5.64179e-05
0.00148566
-4.0967e-05
-0.000100481
0.0015414
-2.73641e-05
-0.000167745
0.00116544
-2.1722e-05
-0.00018827
0.00128795
-1.74988e-05
-0.000214685
0.000496172
-1.35113e-05
-0.000214778
0.000708175
-6.45468e-06
-0.00018937
-0.000456755
1.26726e-05
-0.000134954
0.000150841
-1.10393e-05
8.14746e-06
-0.000486922
0.00560668
-0.00555989
0.00188636
-0.000467251
0.00167032
-0.000599451
-0.0062922
0.0020107
-0.000505133
0.00638594
-0.00614854
0.00168818
-0.00036402
0.00149409
-0.000992962
-0.00675563
0.00165269
-0.000771565
-0.00656351
0.00169872
-0.000359968
0.00595418
-0.00610218
0.00140229
-0.000387679
0.00114761
-0.00110821
-0.00601236
0.00116307
-0.000874178
-0.00589307
0.00122118
-0.00066756
-0.0056215
0.00120507
-0.000414457
0.00496433
-0.00512879
0.00107517
-0.000560863
0.000771107
-0.000981574
-0.0038904
0.000743991
-0.000769082
-0.00436262
0.000759984
-0.000701126
-0.0044129
0.000726469
-0.000794065
-0.00463287
0.000790057
-0.000421861
0.00373902
-0.00377841
0.000847497
-0.000384005
0.00029404
-0.000733175
-0.00250791
0.000498304
-0.000653706
-0.00242228
0.000424479
-0.000602231
-0.00258894
0.000568218
-0.000643173
-0.00215808
0.000531369
-0.000495421
-0.00262271
0.000355535
-0.000537563
0.00310316
-0.00287306
0.000113588
-0.000460563
-9.1763e-05
-0.000439668
-0.00147254
0.000106906
-0.000398437
-0.00125224
0.000135883
-0.000443503
-0.00101124
1.05617e-05
-0.000596653
-0.0018407
2.54336e-05
-0.000571675
-0.00241522
9.6917e-06
-0.000541013
-0.00324572
-0.000169972
-0.000109398
0.00336527
-0.0033596
-0.000227408
-0.000248509
-1.96527e-05
-0.000280913
-0.00090336
-4.96529e-05
-0.000318009
0.000148205
-4.23997e-05
-0.000347068
-5.62261e-05
-5.12833e-05
-0.000441541
-0.00103719
-1.52208e-05
-0.000428626
-0.0017171
-1.13879e-05
-0.00037719
-0.00203675
-6.07228e-05
-0.000209229
-0.00178093
-6.74214e-05
-0.000107768
0.00259627
-0.00261096
-5.51799e-05
-0.000137482
7.97999e-06
-5.25003e-05
0.00153278
-4.01757e-05
-9.65141e-05
0.00162397
-2.70188e-05
-0.000163835
0.00132338
-2.14698e-05
-0.00017961
0.00146324
-1.74039e-05
-0.000210614
0.000704135
-1.48478e-05
-0.000207763
0.000909528
-7.1018e-06
-0.00018458
-0.000290513
1.1883e-05
-0.000146862
0.000139302
9.18953e-06
-8.66044e-05
0.000232691
-0.000127968
-9.97088e-06
-0.000313931
0.00538905
-0.00551577
0.00219331
-0.00046239
0.00185984
-0.000521698
-0.00559167
0.00215872
-0.000504163
0.00552467
-0.00537773
0.00173845
-0.00037369
0.00167134
-0.000926446
-0.00628553
0.00205733
-0.000704416
-0.00606525
0.00186026
-0.000116578
0.00594742
-0.006142
0.00163937
-0.00020868
0.00142212
-0.0013971
-0.00645278
0.00173522
-0.00101251
-0.00650605
0.00173357
-0.000582717
-0.00608642
0.00159812
-0.000272456
0.00596146
-0.00614537
0.00144419
-0.000454371
0.000954407
-0.00113877
-0.00579174
0.00116149
-0.00107553
-0.00562809
0.00120453
-0.000747297
-0.00556476
0.00121061
-0.000425256
-0.00541302
0.00112048
-0.00053523
0.00598425
-0.00575706
0.000961351
-0.000267711
0.000757432
-0.00111206
-0.00343457
0.000733884
-0.000783627
-0.00418423
0.000695518
-0.000733692
-0.00425661
0.000735159
-0.000823517
-0.00449096
0.000764895
-0.000622238
-0.00376525
0.000903717
-0.00037558
0.00256006
-0.00261538
0.000740834
-0.000572439
0.000195901
-0.000672872
-0.00213285
0.000406297
-0.000613876
-0.00220808
0.000499544
-0.000589661
-0.00257764
0.000559345
-0.000672285
-0.00207183
0.000557605
-0.000543276
-0.00249614
0.000376405
-0.000640784
-0.00259105
0.000173295
-0.000320338
0.00351579
-0.00321629
2.50312e-05
-0.000126035
-0.00021101
-0.000486535
-0.00122338
5.4788e-05
-0.000538549
-0.000939363
1.4568e-05
-0.000388564
-0.00081879
-1.50715e-05
-0.000579442
-0.00171276
2.05214e-05
-0.000595943
-0.00221176
-1.07088e-05
-0.000548114
-0.00286858
-0.000196527
-0.000132698
-0.00335188
-0.000254224
-3.91921e-05
0.0041496
-0.00424082
-0.000204763
-0.000102801
-3.40374e-05
-0.00026701
-0.000708307
-5.70774e-05
-0.000298972
0.000353956
-5.29468e-05
-0.000350671
0.000144945
-5.67347e-05
-0.000432676
-0.000807529
-2.78748e-05
-0.000421108
-0.00150082
-2.10066e-05
-0.00038237
-0.00179877
-7.4757e-05
-0.000215
-0.00172735
-8.38888e-05
-0.000134711
-0.00260395
-8.65828e-05
-0.000140798
0.00208859
-0.00204077
-4.88075e-05
-8.47221e-05
-1.00216e-05
-4.33997e-05
0.0015703
-3.98548e-05
-9.03501e-05
0.00170082
-2.66772e-05
-0.000161542
0.00147802
-2.01163e-05
-0.000170017
0.00163053
-1.87459e-05
-0.000206536
0.000909118
-1.58509e-05
-0.000200988
0.00110311
-7.43735e-06
-0.000182469
-0.000126624
1.14788e-05
-0.000146354
0.000287886
9.65361e-06
-9.60793e-05
-1.18384e-05
-1.08644e-05
-5.13099e-05
0.0010545
-0.000987963
-2.51935e-05
-0.000357135
0.00531868
-0.00532627
0.00253405
-0.000351481
0.00217889
-0.000287264
-0.00563694
0.00233561
-0.000243319
0.00530896
-0.00535452
0.00197802
-0.000348557
0.00173149
-0.000751224
-0.00571176
0.002301
-0.000570508
-0.00530829
0.00195538
-4.08155e-05
0.00543253
-0.00548107
0.00171123
-0.000250482
0.00168945
-0.00109998
-0.00649161
0.00205783
-0.000829541
-0.00618542
0.00199452
-0.000396185
-0.00618551
0.00171723
-0.000223485
0.00588631
-0.0059285
0.00163259
-0.000306721
0.00140036
-0.00128913
-0.00628961
0.00179216
-0.00102129
-0.00654602
0.00172096
-0.000734418
-0.00606955
0.00170382
-0.000286423
-0.00624922
0.00156313
-0.000361604
0.00488967
-0.00490103
0.00128192
-0.0002642
0.000902861
-0.00132233
-0.00554444
0.00107782
-0.00109437
-0.00539082
0.00123496
-0.000900021
-0.00541708
0.00122319
-0.000624771
-0.00548388
0.00108273
-0.000709357
-0.00551915
0.000969696
0.000182189
0.00465264
-0.00530124
0.00105218
-0.00045566
0.000642677
-0.00107195
-0.00300529
0.000736039
-0.000957534
-0.00381971
0.000713028
-0.000816686
-0.00404825
0.000714183
-0.000865752
-0.00428785
0.000725518
-0.000688365
-0.00367974
0.000824472
-0.000409537
-0.0027684
0.000825491
-0.000539085
0.00264475
-0.00231521
0.000630041
-0.000285379
5.1492e-05
-0.000630134
-0.00188086
0.000393733
-0.000686061
-0.00204739
0.00039311
-0.000549361
-0.00250068
0.000583381
-0.000688909
-0.00195927
0.00055625
-0.000571042
-0.00235793
0.000394491
-0.00063243
-0.00231742
0.000187092
-0.000413113
-0.00288944
0.000126863
-8.55839e-05
0.00436593
-0.00431604
2.15346e-05
1.03992e-05
-0.000184536
-0.00044219
-0.00101395
2.93288e-05
-0.000433318
-0.000694136
-5.60931e-05
-0.000415609
-0.000642047
-9.72367e-05
-0.000549787
-0.00161162
9.07297e-07
-0.00059469
-0.00203153
1.38775e-05
-0.000556033
-0.00253299
-0.00017264
-0.000193456
-0.00334437
-0.00022558
-0.000170414
-0.00422708
-0.000232265
-8.80725e-05
0.00372147
-0.00378704
-0.000191913
-0.000142947
-3.90078e-05
-0.000257249
-0.000516778
-6.27693e-05
-0.000274636
0.000544608
-6.34431e-05
-0.000358575
0.000356235
-6.72031e-05
-0.000416854
-0.000577518
-3.99095e-05
-0.000425868
-0.00127111
-3.825e-05
-0.000381071
-0.00155779
-8.19055e-05
-0.000226827
-0.00166114
-9.6607e-05
-0.000156188
-0.00257528
-0.000102717
-0.000160036
-0.00198835
-7.50403e-05
-0.00012576
0.00171761
-0.00162321
-6.87581e-05
-4.68317e-05
-2.54558e-05
-4.21378e-05
0.00160653
-3.9556e-05
-8.24632e-05
0.00176975
-2.63209e-05
-0.000157778
0.00162722
-1.8093e-05
-0.000162382
0.00179191
-1.91122e-05
-0.000199786
0.00110753
-1.73705e-05
-0.000193146
0.00128699
-6.58994e-06
-0.000183147
3.79323e-05
1.11531e-05
-0.000144339
0.000433705
9.99865e-06
-9.72277e-05
0.000105932
-1.08891e-05
-6.25317e-05
-0.000908086
-2.82098e-05
-3.93622e-05
0.00225811
-0.00221732
-2.66234e-05
-0.000328208
0.00518038
-0.00519403
0.00265089
-0.000310993
0.00251998
-0.000333161
-0.00531329
0.00277189
-3.43185e-05
0.00533377
-0.00532
0.00231128
-0.000146071
0.00196759
-0.000603823
-0.00559196
0.00232414
-0.000191795
-0.00558708
0.00218946
0.000238096
0.005275
-0.00551692
0.00194103
-0.000168006
0.00174688
-0.000884547
-0.00591956
0.00236179
-0.000315617
-0.00557792
0.0020567
2.51416e-05
-0.00576371
0.00181669
-0.000126005
0.0051741
-0.0052926
0.00173225
-0.000145626
0.00161098
-0.00107659
-0.00659052
0.00209951
-0.000891523
-0.00628328
0.00202592
-0.000608351
-0.00619545
0.00187839
-0.000332387
-0.00598239
0.00181709
-0.000139931
0.00512851
-0.00513732
0.00141973
-0.000137602
0.00127215
-0.00132734
-0.0062543
0.00179628
-0.00097887
-0.00658915
0.00171979
-0.00065157
-0.00626329
0.00166624
-0.000392897
-0.00632224
0.00154497
-0.000518398
-0.00509902
0.00157016
0.000305905
0.005584
-0.00551043
0.00108463
-6.40111e-05
0.00104278
-0.00134169
-0.00529865
0.00114046
-0.00114994
-0.00533766
0.00121707
-0.000948208
-0.00524466
0.00119406
-0.000689169
-0.00555163
0.00111436
-0.000692295
-0.00529576
0.000863266
-1.46244e-05
-0.00578
0.00105355
-0.000224465
0.00242858
-0.00278077
0.00108976
-0.000598049
0.000554665
-0.00088714
-0.00268524
0.00073051
-0.000945385
-0.00355922
0.000734867
-0.000912024
-0.00367596
0.000703395
-0.000929644
-0.00402319
0.000690258
-0.000770096
-0.00353542
0.000780253
-0.000427419
-0.0029439
0.000794958
-0.000559453
-0.0020808
0.00073742
-0.000334765
0.00348751
-0.00315344
0.000545155
-3.06009e-05
4.77933e-07
-0.000594025
-0.00165052
0.000393613
-0.000656723
-0.00184775
0.000417505
-0.000555151
-0.00254064
0.000572605
-0.000690327
-0.00180658
0.000571232
-0.000579898
-0.00215361
0.000337139
-0.00059189
-0.00207043
0.000183357
-0.000464817
-0.00260755
0.000176554
-0.000314348
-0.0041623
0.000117061
-0.000111306
0.00515068
-0.00513041
2.44975e-05
-7.04934e-05
-0.000154542
-0.000430396
-0.000805446
-3.07435e-05
-0.000363743
-0.000489405
-8.62955e-05
-0.000395495
-0.000527471
-0.00013375
-0.000538919
-0.0015512
-3.5594e-05
-0.000595903
-0.0018376
-2.29924e-05
-0.000539111
-0.00223026
-0.000130809
-0.000251601
-0.00330088
-0.000191352
-0.000259258
-0.00414524
-0.000204346
-9.63154e-05
-0.00383055
-0.000252474
-0.000138775
0.00280067
-0.00278789
-0.000191677
-0.000126964
-5.83362e-05
-0.000243778
-0.000338273
-6.42551e-05
-0.000249208
0.000719484
-7.09003e-05
-0.000356524
0.000566256
-7.47177e-05
-0.000405926
-0.000349207
-5.19701e-05
-0.000428055
-0.00103462
-4.81299e-05
-0.000371284
-0.0013189
-9.90013e-05
-0.000253815
-0.00156945
-0.000102927
-0.000176386
-0.00252155
-0.000118298
-0.000179776
-0.0019209
-8.76257e-05
-0.00015437
-0.00152728
-7.91308e-05
-0.000141245
0.0022077
-0.00210643
-6.81429e-05
-3.71448e-05
-2.65592e-05
-3.43784e-05
0.0016351
-3.9033e-05
-7.44471e-05
0.00183234
-2.76986e-05
-0.000151156
0.00177061
-1.85608e-05
-0.000151088
0.00194312
-1.82202e-05
-0.000190339
0.00129894
-2.01893e-05
-0.000188923
0.00146451
-5.96528e-06
-0.000183937
0.000203738
1.15407e-05
-0.000142307
0.000577512
9.65278e-06
-9.75941e-05
0.000224596
-1.10712e-05
-6.72901e-05
-0.000823295
-2.839e-05
-4.9392e-05
-0.00216516
-3.09826e-05
-6.85078e-05
0.00306376
-0.00300446
-1.74215e-05
-0.000322774
0.00479607
-0.00475077
0.00306354
-0.000320275
0.00270835
-0.000352261
-0.00510604
0.00292704
-6.99568e-05
0.00505062
-0.00501025
0.00264616
2.2423e-05
0.002332
-0.000478343
-0.00540438
0.00272637
-7.45216e-05
-0.00536131
0.00269593
0.00035442
0.0052604
-0.00533582
0.00227038
-5.70058e-05
0.00193541
-0.000608911
-0.00584573
0.00241521
6.2007e-05
-0.0058662
0.00222562
0.00021505
-0.00556521
0.00204785
5.12426e-05
0.00508017
-0.00517074
0.00185435
-5.8273e-05
0.0017019
-0.00102985
-0.00598966
0.00233158
-0.000626401
-0.00573144
0.00225019
-0.000411985
-0.00564566
0.00174229
-4.45846e-05
-0.00566323
0.00189951
0.000153789
0.00476791
-0.00493136
0.00160197
-2.64966e-05
0.00136269
-0.00131277
-0.00654747
0.00215033
-0.000703813
-0.00653052
0.00207169
-0.000509385
-0.00625768
0.00194597
-1.02987e-05
-0.00627734
0.00179075
-0.000176694
-0.00534137
0.00167943
0.000369207
0.00545838
-0.00548005
0.00137809
0.000176487
0.00122129
-0.00149218
-0.00613125
0.00176025
-0.00109618
-0.00655304
0.00170641
-0.000830919
-0.00628358
0.0016228
-0.000470214
-0.00643045
0.0015555
-0.000591854
-0.00519698
0.0015425
-5.29772e-06
-0.00521109
0.0012615
0.00014913
0.00475745
-0.00542678
0.00138037
-0.000361059
0.00075877
-0.00123269
-0.00502486
0.00108215
-0.0013788
-0.00495876
0.00119498
-0.00107502
-0.00499785
0.00113325
-0.000735737
-0.00565431
0.00110283
-0.000670736
-0.00513833
0.000857568
-0.000208729
-0.0060439
0.000908469
-0.000120965
-0.00347519
0.00130948
-0.000399595
0.00262147
-0.00252268
0.0010558
-0.000323012
0.00050086
-0.000853309
-0.00242915
0.000709819
-0.00105654
-0.00309639
0.000667491
-0.000959646
-0.00324529
0.000708697
-0.00100249
-0.00363256
0.000624928
-0.000720824
-0.00346585
0.000761613
-0.000545742
-0.00297805
0.000768254
-0.000533277
-0.00193178
0.000714396
-0.000482108
-0.00284722
0.000598956
-0.000478523
0.00452262
-0.00414306
0.000532813
3.50854e-05
-1.53014e-05
-0.000464555
-0.00152645
0.000341447
-0.00054778
-0.00167078
0.000400679
-0.000579684
-0.00248469
0.000545744
-0.000710439
-0.00164118
0.000578729
-0.000603058
-0.00190916
0.000333935
-0.000576601
-0.00183666
0.000140862
-0.000513769
-0.00235505
0.000193032
-0.000413965
-0.0039758
0.000144752
-0.000143889
-0.0050031
3.73279e-05
2.1152e-05
0.0046023
-0.00464322
-9.45025e-05
-0.000126637
-0.000166297
-0.000385413
-0.000612625
-7.27421e-05
-0.000329534
-0.000317682
-0.000122141
-0.00045031
-0.000361829
-0.000158152
-0.000552992
-0.00146313
-7.47587e-05
-0.000616638
-0.00162217
-6.2433e-05
-0.000509665
-0.00197077
-0.000144103
-0.000335806
-0.00315006
-0.000199642
-0.000329746
-0.00399064
-0.000192589
-0.000127274
-0.00384884
-0.000238565
-0.000176555
-0.00277657
-0.000241615
-0.000233496
0.00272511
-0.00267097
-0.00015357
-0.0001405
-5.2537e-05
-0.000228659
-0.000166073
-6.84229e-05
-0.000228419
0.000880882
-7.16808e-05
-0.000334457
0.000762133
-8.3476e-05
-0.00038723
-0.00012581
-6.19717e-05
-0.000423039
-0.000787665
-6.62232e-05
-0.000372843
-0.00107632
-0.000106788
-0.000281063
-0.00146266
-0.000108664
-0.000182476
-0.00245301
-0.000131294
-0.000191582
-0.00184549
-9.9715e-05
-0.000185427
-0.00140763
-8.91432e-05
-0.000159404
-0.00201058
-6.49745e-05
-0.000221653
0.00295828
-0.00283691
-3.63733e-05
-6.14943e-05
-1.71078e-05
-3.11341e-05
0.00166173
-3.9635e-05
-6.76093e-05
0.00188893
-2.80103e-05
-0.000144273
0.00190648
-1.9296e-05
-0.000140402
0.00208545
-2.04833e-05
-0.000180224
0.00148063
-1.96857e-05
-0.000177949
0.00162888
-6.60977e-06
-0.000183115
0.000369006
1.18829e-05
-0.00014025
0.000720394
8.90901e-06
-9.58663e-05
0.000341556
-1.14409e-05
-6.99982e-05
-0.000736367
-2.80003e-05
-5.49298e-05
-0.00210848
-3.01419e-05
-8.41781e-05
-0.00293022
-2.10381e-05
-0.000101148
0.00336766
-0.0032571
-2.68378e-05
-0.000200653
0.00453989
-0.00461195
0.00321019
-0.000289229
0.003068
-0.000322438
-0.00473362
0.00337381
4.6683e-06
0.00486935
-0.00486914
0.00298871
-0.000126349
0.00268854
-0.000282845
-0.00522362
0.00297157
-4.95305e-05
-0.00504672
0.00293852
0.000173065
0.00523809
-0.00503904
0.00262847
3.41095e-05
0.00231782
-0.000432047
-0.0055131
0.00278848
-9.02044e-05
-0.00520996
0.00272724
0.000228979
-0.0053419
0.00268808
0.000164581
0.00470983
-0.00477213
0.00221934
0.000126963
0.00181515
-0.000753161
-0.00594944
0.00224587
-0.000478614
-0.00577665
0.00217788
-0.000247119
-0.00566636
0.00216191
0.000148537
-0.00551794
0.00220193
0.000344753
0.00518147
-0.00522841
0.00171033
7.57942e-05
0.00153711
-0.00118268
-0.00604366
0.00243795
-0.000653334
-0.00585548
0.00240514
-0.000439728
-0.0055267
0.00206157
0.000117973
-0.00579998
0.00175078
-3.27066e-07
-0.00500009
0.00179188
0.000513377
0.00460812
-0.00473473
0.00158441
0.000588376
0.00141562
-0.00139931
-0.00655154
0.00213345
-0.000923251
-0.00661842
0.0020653
-0.000698472
-0.00621245
0.00189401
-0.00014165
-0.0064835
0.00182356
-0.000158572
-0.00578945
0.00180555
8.2325e-05
-0.00537534
0.0014871
0.000522613
0.00368836
-0.00438929
0.00170554
0.00011924
0.00124628
-0.00139772
-0.00603721
0.00163316
-0.0013988
-0.00643045
0.00165765
-0.00107628
-0.00620325
0.00162734
-0.000871352
-0.00625061
0.00157857
-0.000532574
-0.00531134
0.0015317
-0.000163875
-0.0050447
0.00133125
0.000181777
-0.00584161
0.00137358
4.12252e-05
0.00366644
-0.00380112
0.00107423
-0.000602276
0.000709437
-0.00129684
-0.00468267
0.00111298
-0.00138039
-0.00470906
0.0011563
-0.00116902
-0.00470285
0.00110936
-0.000829944
-0.00565607
0.000962474
-0.000587721
-0.00509813
0.00092953
-0.000472685
-0.00601784
0.000758456
-2.72777e-06
-0.00431086
0.00121358
-0.000420402
-0.00261814
0.00134323
-0.000603126
0.00400006
-0.00373577
0.00091611
-0.000357334
0.000484516
-0.000710799
-0.0021678
0.00071553
-0.000931282
-0.0026953
0.000692233
-0.00108914
-0.00276983
0.000701489
-0.00102507
-0.00317124
0.000562005
-0.000747408
-0.00342194
0.000725367
-0.000603775
-0.00294674
0.000757476
-0.000502645
-0.00187034
0.000695688
-0.000480387
-0.00260031
0.000533907
-0.000531378
-0.00375138
0.000594768
-7.71367e-06
0.00476318
-0.00458945
0.000387949
9.40971e-05
-8.73824e-05
-0.000446211
-0.00138341
0.000318917
-0.000538133
-0.00146907
0.000348336
-0.000706152
-0.00232112
0.000492951
-0.000732654
-0.00148885
0.00057307
-0.000643146
-0.00162995
0.000326032
-0.000565635
-0.00159564
0.00014888
-0.000572949
-0.00218031
0.000203261
-0.000528677
-0.00377024
0.00018641
-7.5883e-05
-0.00493621
2.64675e-05
-1.85238e-05
-0.00464332
-0.000120611
-8.37572e-05
0.00325961
-0.00326814
-0.000235712
-0.000240328
-0.000150452
-0.000354764
-0.00043913
-0.000130064
-0.00029379
-0.000177956
-0.000147097
-0.000437895
-0.000204556
-0.000175976
-0.000580817
-0.00135567
-7.20218e-05
-0.000618815
-0.00137277
-0.000128385
-0.000515324
-0.00172821
-0.000162514
-0.000433543
-0.00296626
-0.000175428
-0.000356336
-0.00378542
-0.00023101
-0.000166303
-0.00383282
-0.000233879
-0.000207108
-0.00275178
-0.000241677
-0.000258322
-0.00262694
-0.000186725
-0.000264756
0.002625
-0.00256242
-0.000173049
-0.000218551
-3.27952e-05
-0.000206621
-1.08191e-05
-7.24211e-05
-0.000214464
0.00102878
-6.94654e-05
-0.000310668
0.00093944
-8.25918e-05
-0.000364121
8.66949e-05
-7.22614e-05
-0.000409272
-0.000538389
-8.22009e-05
-0.000355748
-0.000844919
-0.000119826
-0.000300163
-0.00133904
-0.000113359
-0.0002079
-0.002354
-0.000140031
-0.000182946
-0.0017761
-0.000113608
-0.00018783
-0.0012976
-9.19149e-05
-0.00017451
-0.0019096
-7.05365e-05
-0.000263885
-0.00268929
-3.28782e-05
-0.000172755
0.00304812
-0.00293286
-8.00292e-05
-9.29622e-05
-2.63243e-05
-1.73399e-05
0.00167394
-3.86361e-05
-5.86938e-05
0.00193617
-2.81796e-05
-0.000136123
0.00203522
-2.06251e-05
-0.000132928
0.00222132
-2.22383e-05
-0.000168891
0.00164947
-2.04297e-05
-0.00016745
0.00178117
-4.53113e-06
-0.000180166
0.000530712
1.18495e-05
-0.000136544
0.000860703
8.11807e-06
-9.35191e-05
0.000455909
-1.19246e-05
-7.11199e-05
-0.000647651
-2.90375e-05
-6.60901e-05
-0.00203991
-3.04768e-05
-8.68702e-05
-0.00285525
-1.82465e-05
-0.000122648
-0.00312364
-3.18503e-05
-0.000121643
0.00353447
-0.00339954
-4.01266e-05
-0.000220005
0.00446692
-0.00452122
0.00347016
-0.000363611
0.00323202
-0.000220915
-0.00467929
0.00357304
5.52182e-05
0.00467527
-0.00463104
0.0031154
2.80737e-05
0.00296957
-0.000146448
-0.00482283
0.00338468
-7.50075e-05
-0.0047903
0.00332045
4.9101e-05
0.00494056
-0.00476842
0.00294052
0.000245002
0.0025827
-0.000348823
-0.0052287
0.00301547
-9.11915e-05
-0.00504301
0.00296884
0.00011661
-0.00490064
0.00291249
0.000345582
0.00485945
-0.00499559
0.00258361
0.00027362
0.00225784
-0.000528389
-0.00565658
0.0028717
-0.000328817
-0.00532665
0.00275536
-7.0173e-05
-0.00545
0.00265839
0.000188645
-0.00473842
0.00261427
0.000378041
0.00508297
-0.00501814
0.00212122
0.00032666
0.00167291
-0.000985078
-0.00590508
0.00231539
-0.000524768
-0.00594033
0.00228098
-6.12969e-05
-0.00589729
0.00203037
-8.78756e-05
-0.00528247
0.00213228
0.000100979
-0.00528578
0.00215799
0.000593459
0.00451684
-0.00471773
0.00183114
0.000656307
0.00155641
-0.00121418
-0.00614749
0.00238842
-0.000592073
-0.00609476
0.00234605
-0.000327821
-0.00569479
0.00220258
-8.45953e-05
-0.00580279
0.00200732
0.000173085
-0.00537599
0.00179502
0.000320523
-0.00490887
0.00172782
0.000600679
0.00389376
-0.00412617
0.00173875
0.000654022
0.00106404
-0.00126779
-0.00656706
0.00211219
-0.00109375
-0.00678875
0.00199873
-0.000750702
-0.00637998
0.00190725
-0.000720967
-0.00657426
0.00183439
-0.000304473
-0.00596849
0.0017745
-4.91485e-05
-0.00523112
0.00154661
0.000533597
-0.00502075
0.00176674
0.00061043
0.00357522
-0.0038119
0.00137301
-2.64774e-05
0.000834191
-0.00151925
-0.00580485
0.00155063
-0.00139181
-0.00635121
0.00156535
-0.00102803
-0.00626302
0.00157642
-0.000950558
-0.00611346
0.0016108
-0.000483528
-0.0053901
0.00155313
-0.00034442
-0.00510658
0.00146531
0.000194828
-0.00593181
0.00122389
3.95012e-05
-0.00434352
0.00145608
1.89531e-06
0.00333032
-0.00362567
0.000764561
-0.000501791
0.000779076
-0.00112986
-0.00438761
0.000974255
-0.00137112
-0.0042807
0.00112447
-0.00122918
-0.00441802
0.00101151
-0.000861368
-0.00556953
0.00085911
-0.000611018
-0.00515236
0.000880309
-0.00054422
-0.00582564
0.000677768
-7.63302e-05
-0.00507408
0.00109537
-0.000395578
-0.00281579
0.00132642
-0.000693703
-0.00337993
0.00114972
4.09551e-05
0.00517435
-0.00508682
0.000779917
0.000163761
0.00038729
-0.000654037
-0.00193189
0.000635212
-0.00093201
-0.00223738
0.00065149
-0.00115441
-0.00232659
0.000697244
-0.00102795
-0.00272976
0.00055531
-0.000845149
-0.00331698
0.000659052
-0.000662849
-0.00288842
0.000764267
-0.000445296
-0.00194143
0.000700909
-0.000574646
-0.00237564
0.000516992
-0.000301876
-0.00354666
0.000555182
-7.93495e-05
-0.00436688
0.00043303
0.000296565
0.00344343
-0.00342291
-1.28893e-05
-9.19113e-05
-0.000203336
-0.00032508
-0.00129533
0.000240078
-0.000467604
-0.00127787
0.000301533
-0.000752618
-0.0020747
0.000416646
-0.000813794
-0.00122747
0.000464553
-0.000661759
-0.00132048
0.000306536
-0.000574105
-0.00136422
0.000153392
-0.000621698
-0.00208548
0.000242204
-0.000627633
-0.00352185
0.000226162
-0.000125334
-0.00484971
5.89404e-05
-5.46313e-05
-0.00463925
-0.000130077
-0.000116449
-0.00325159
-0.000279029
-0.00024422
0.00215141
-0.00210437
-0.00030328
-0.000257707
-0.000183064
-0.000315813
-0.000326643
-0.000106023
-0.000278903
-8.29423e-05
-0.00016064
-0.000409368
-0.000109891
-0.000143061
-0.000635344
-0.00115828
-0.000102148
-0.000641111
-0.00106285
-0.0001501
-0.000477295
-0.0015202
-0.000214851
-0.000493689
-0.00276732
-0.000167919
-0.00037996
-0.00356517
-0.000223613
-0.000173627
-0.00382999
-0.000243164
-0.000227356
-0.00271279
-0.000233336
-0.000287194
-0.00256472
-0.000191212
-0.00029867
-0.00252905
-0.000185309
-0.000221225
0.00274515
-0.00265773
-0.000212002
-0.000160912
-8.67135e-05
-0.000183499
0.000135576
-7.43911e-05
-0.000184539
0.00115388
-7.16782e-05
-0.000290634
0.00110545
-8.09685e-05
-0.000360505
0.000307258
-7.55776e-05
-0.00040605
-0.000276708
-9.67829e-05
-0.000330858
-0.000634556
-0.000129155
-0.000304335
-0.00121602
-0.000118682
-0.000218924
-0.00224089
-0.000144081
-0.000185579
-0.00170248
-0.000121591
-0.000186742
-0.00119751
-9.80672e-05
-0.000189564
-0.00181915
-5.88905e-05
-0.000276059
-0.00254133
-2.9316e-05
-0.00020334
-0.00279046
-9.459e-05
-0.000225894
0.00348471
-0.00333107
-0.000129428
-0.000105406
-3.97145e-05
-7.43316e-06
0.00167584
-3.83942e-05
-4.93528e-05
0.00197511
-2.82262e-05
-0.000124602
0.00215232
-2.06777e-05
-0.00012669
0.00235111
-2.373e-05
-0.000156143
0.00180517
-2.17974e-05
-0.000157447
0.00192208
-3.88561e-06
-0.000176152
0.000690494
1.18394e-05
-0.0001323
0.000997477
7.37475e-06
-9.21383e-05
0.000568382
-1.22165e-05
-7.41394e-05
-0.000556337
-2.90987e-05
-6.78823e-05
-0.00197002
-3.10487e-05
-9.27231e-05
-0.00277395
-1.9052e-05
-0.000130369
-0.00298423
-2.72816e-05
-0.000136835
-0.00324921
-4.53452e-05
-9.54567e-05
0.00355916
-0.00345942
-4.44087e-05
-0.000218198
0.00434506
-0.00430577
0.00349579
-0.000331992
0.00339076
-0.000219301
-0.00456829
0.00390012
-7.2085e-05
0.00435532
-0.00427659
0.00351873
0.000220311
0.0030882
-6.74219e-05
-0.00471606
0.00359888
-0.000105997
-0.00457387
0.00354686
-1.55512e-05
0.00470053
-0.00462977
0.00310929
0.000326293
0.00287992
-5.30889e-05
-0.00505753
0.00339728
-7.44182e-05
-0.00477666
0.00335427
3.57078e-05
-0.00461473
0.00324767
0.000481642
0.00453905
-0.00466379
0.0029292
0.000519582
0.00259438
-0.000444908
-0.00526203
0.00312353