/*--------------------------------*- C++ -*----------------------------------*\
  =========                 |
  \\      /  F ield         | OpenFOAM: The Open Source CFD Toolbox
   \\    /   O peration     | Website:  https://openfoam.org
    \\  /    A nd           | Version:  7
     \\/     M anipulation  |
\*---------------------------------------------------------------------------*/
FoamFile
{
    version     2.0;
    format      ascii;
    class       surfaceScalarField;
    location    "10";
    object      phi_0;
}
// * * * * * * * * * * * * * * * * * * * * * * * * * * * * * * * * * * * * * //

dimensions      [0 3 -1 0 0 0 0];

internalField   nonuniform List<scalar> 
54006
(
-8.4429e-05
-0.000924402
0.00101211
-4.87362e-05
-0.00028014
0.00265755
-0.00245945
6.25131e-06
-8.61097e-05
-4.84378e-05
-8.95476e-05
0.00110309
-5.13582e-05
-9.82211e-05
-0.000915342
0.00100412
-3.9292e-05
-0.000434756
0.0027156
-0.00257201
0.000316638
-0.000259078
1.59255e-05
-0.000312642
-0.00223423
-1.44769e-06
-0.000311762
0.00144026
-0.00123712
1.66527e-05
-0.000102118
-4.0559e-05
-8.44362e-05
0.00118616
-4.95742e-05
-0.000108143
0.00109877
-3.78584e-05
-0.00017188
-0.000160132
0.000318674
-2.59528e-05
-0.000610751
0.00419462
-0.00398355
0.000603482
-0.000378737
0.000328326
-0.000463084
-0.00244305
0.000320465
-0.000470561
0.00263181
-0.0023751
0.000218731
-0.000312169
1.91926e-05
-0.000306012
-0.00201238
-7.68834e-06
-0.000333245
-0.00101775
4.29122e-06
-0.000361893
0.0012933
-0.00109326
6.62692e-06
-0.000174088
-2.73716e-05
-7.81685e-05
0.00126135
-4.81892e-05
-0.000108296
0.00119126
-3.37692e-05
-0.000187041
0.000492944
-2.50834e-05
-0.000189363
-0.000335171
0.000514095
-1.55143e-05
-0.00067664
0.00529821
-0.00515324
0.000809741
-0.000539693
0.000646002
-0.000657178
-0.0037525
0.000643812
-0.000650495
0.00322869
-0.00300855
0.00056327
-0.000426161
0.000207763
-0.000445235
-0.00229851
0.00027573
-0.000489818
-0.0021384
0.00024034
-0.000467539
0.00225922
-0.0020027
6.78543e-05
-0.00036057
1.19651e-05
-0.000304447
-0.00179044
-1.56704e-05
-0.00033812
-0.000794881
-7.37991e-07
-0.000402225
-0.000869666
-4.11662e-06
-0.000383307
0.00209223
-0.00190919
1.7537e-05
-0.000191429
-1.60882e-05
-7.15325e-05
0.00132857
-4.57263e-05
-0.00010823
0.00128249
-3.11918e-05
-0.000182205
0.000664398
-2.30184e-05
-0.000205806
0.00071153
-1.67085e-05
-0.00019793
0.000322647
-0.000130129
-1.01032e-05
-0.000744142
0.0065307
-0.00641928
0.0010735
-0.000580956
0.000849609
-0.000856107
-0.00479471
0.000841342
-0.000572558
0.00440145
-0.00444794
0.000778294
-0.000651104
0.00060119
-0.000672611
-0.00348302
0.000625136
-0.000638431
-0.00281686
0.000600735
-0.000566855
0.0030773
-0.00297363
0.000558908
-0.000446549
6.58447e-05
-0.00043645
-0.00213866
0.000222441
-0.000505909
-0.00196743
0.000272542
-0.000516925
-0.00171754
6.98771e-05
-0.00051663
0.00260201
-0.00245029
4.94506e-05
-0.00037427
2.23918e-05
-0.000304999
-0.00156
-3.12525e-05
-0.000378307
-0.000522144
-1.83307e-05
-0.000370894
-0.000669481
-1.22347e-05
-0.000434862
-0.00169288
8.63221e-06
-0.000377603
0.00250474
-0.00233159
2.40678e-05
-0.000198907
-9.7182e-06
-6.50995e-05
0.00138885
-4.42544e-05
-0.000108788
0.00137488
-2.93282e-05
-0.000177726
0.000832844
-2.19114e-05
-0.000201295
0.000906263
-1.64561e-05
-0.000218536
8.34769e-05
-1.17736e-05
-0.000206077
-9.75684e-05
0.000295869
-2.32675e-06
-0.000642312
0.00659912
-0.00668525
0.0014807
-0.000494494
0.00115125
-0.000941109
-0.00634291
0.00121978
-0.000357165
0.0059322
-0.00613879
0.0010647
-0.000714493
0.000809496
-0.00086463
-0.00451041
0.000795418
-0.000480488
-0.00455506
0.000790517
-0.000618545
0.00476528
-0.00462693
0.000691637
-0.000501756
0.000544812
-0.000638038
-0.00320882
0.000555766
-0.000644783
-0.00262348
0.000570636
-0.000643175
-0.0028209
0.000574262
-0.00054231
0.00252926
-0.00239994
0.000455267
-0.000547784
5.89141e-05
-0.000514378
-0.00189619
0.000181912
-0.000602107
-0.00167965
0.00015846
-0.000477725
-0.0014588
0.000120632
-0.000629501
-0.00224846
6.26854e-05
-0.000527218
0.00297524
-0.00281993
4.37543e-05
-0.000371603
2.27041e-05
-0.000300083
-0.00133245
-4.05359e-05
-0.000363715
-0.000265059
-3.34099e-05
-0.000376742
-0.000456486
-3.23094e-05
-0.000441474
-0.00147094
5.9985e-06
-0.000419717
-0.00213504
1.32617e-05
-0.000322723
0.00260386
-0.00244459
-1.85633e-05
-0.00020776
-7.38767e-08
-5.99229e-05
0.00144385
-4.2196e-05
-0.00010294
0.00146195
-2.83809e-05
-0.000172934
0.000998775
-2.23248e-05
-0.000194821
0.00109549
-1.63198e-05
-0.000214725
0.000294502
-1.27567e-05
-0.00022091
0.000509401
-4.39561e-06
-0.000179825
0.000799711
-0.000635795
1.35824e-05
-0.000430747
0.00608302
-0.00620863
0.00171081
-0.00049032
0.00149688
-0.000796772
-0.00686386
0.00166933
-0.000278494
0.00663495
-0.00673788
0.00150496
-0.000531027
0.00111109
-0.000848845
-0.00629861
0.00116663
-0.00055143
-0.00608241
0.00123435
-0.000605081
0.00550852
-0.00559048
0.0011332
-0.000523257
0.000727157
-0.000883685
-0.00420952
0.000824318
-0.000618763
-0.00452582
0.00074016
-0.000717172
-0.00447088
0.000708468
-0.000624365
0.00463297
-0.00463325
0.000773969
-0.000561581
0.000430706
-0.000768882
-0.00282476
0.000443921
-0.000656868
-0.00251692
0.000503962
-0.000659729
-0.00264501
0.000576746
-0.000696259
-0.00225988
0.000500962
-0.000381978
0.00275955
-0.00269843
0.000248914
-0.000523809
5.46677e-05
-0.000509604
-0.0016848
0.000172041
-0.00058889
-0.00140519
0.000132626
-0.000480698
-0.00123347
3.70939e-05
-0.000593708
-0.00202859
5.29977e-05
-0.000578427
-0.0026492
5.06644e-05
-0.000445517
0.00395822
-0.00368036
-0.000111311
-0.000309348
-6.96078e-06
-0.000281799
-0.00112371
-4.47946e-05
-0.000294554
-7.42545e-05
-3.97267e-05
-0.000365579
-0.000255182
-4.20692e-05
-0.000444572
-0.00124997
-3.52161e-06
-0.000411022
-0.00193721
4.4658e-06
-0.000371366
-0.00224412
-3.67461e-05
-0.000222387
0.0018715
-0.00181022
-3.72881e-05
-0.000190785
1.55822e-05
-5.6717e-05
0.00149531
-4.077e-05
-0.000100609
0.00154761
-2.72468e-05
-0.000167793
0.0011595
-2.13114e-05
-0.000188006
0.00127862
-1.74413e-05
-0.000213829
0.000505498
-1.34872e-05
-0.000215407
0.000718005
-5.95423e-06
-0.000190556
-0.000462778
1.31419e-05
-0.000135683
0.000156457
-1.54312e-05
8.23984e-06
-0.000484629
0.00560503
-0.00556006
0.00188369
-0.000468768
0.00167034
-0.000585019
-0.00629313
0.0020017
-0.000492748
0.00640409
-0.00616932
0.00169029
-0.000365782
0.00149348
-0.000973085
-0.00677154
0.00165406
-0.000742304
-0.00657394
0.00169626
-0.000351286
0.00594003
-0.00609427
0.0014054
-0.000367432
0.00114842
-0.00109079
-0.00602742
0.00116379
-0.000862091
-0.00589462
0.00122216
-0.000666311
-0.00561359
0.0012066
-0.000424295
0.00496704
-0.00510727
0.00107336
-0.000554412
0.00077251
-0.000972421
-0.00391216
0.000746068
-0.000755019
-0.00436502
0.000761667
-0.000705726
-0.00441129
0.000726566
-0.000792664
-0.00462431
0.000795929
-0.000407905
0.00370993
-0.00375504
0.000845012
-0.000385812
0.000298451
-0.000733113
-0.00253745
0.000497697
-0.000652757
-0.0024327
0.000423567
-0.000602768
-0.0025879
0.000568922
-0.00064191
-0.00216102
0.000526094
-0.000487628
-0.00263662
0.000348348
-0.000537611
0.00314116
-0.00291188
0.000111722
-0.00046105
-9.11377e-05
-0.000439767
-0.00149419
0.000108618
-0.000397136
-0.00126739
0.000136831
-0.000446105
-0.00103005
9.72933e-06
-0.000598095
-0.00186515
2.71755e-05
-0.000572559
-0.00244872
1.40586e-05
-0.000540263
-0.00329545
-0.000165352
-0.000113289
0.0033646
-0.00336124
-0.000223767
-0.000254388
-1.38018e-05
-0.000281589
-0.000916719
-4.92095e-05
-0.000317276
0.000139231
-4.16134e-05
-0.000347359
-6.52203e-05
-5.01214e-05
-0.000440503
-0.00102548
-1.40697e-05
-0.000427261
-0.00171769
-9.60803e-06
-0.000376347
-0.00202208
-5.6642e-05
-0.000210793
-0.0017642
-6.25286e-05
-0.000108699
0.00256768
-0.00258275
-4.92005e-05
-0.000138116
8.10308e-06
-5.17639e-05
0.00154157
-4.01602e-05
-9.69733e-05
0.00163057
-2.67566e-05
-0.000163836
0.00131709
-2.10061e-05
-0.00017931
0.00145396
-1.73418e-05
-0.000209662
0.000712571
-1.4852e-05
-0.000208199
0.000919316
-6.59868e-06
-0.000185444
-0.000295569
1.22804e-05
-0.00014744
0.000135904
9.24677e-06
-8.68499e-05
0.00023663
-0.000131775
-9.76507e-06
-0.000314982
0.005385
-0.00550928
0.00219343
-0.000469288
0.00185767
-0.000512248
-0.00558758
0.00215063
-0.000499356
0.00553806
-0.00538516
0.0017374
-0.000361792
0.00167182
-0.000907822
-0.00628612
0.00205516
-0.000693985
-0.00607102
0.00185508
-0.000107268
0.00594059
-0.00613983
0.00164552
-0.000187445
0.00142283
-0.00138258
-0.00646958
0.00172966
-0.00100972
-0.00650651
0.00173425
-0.000567965
-0.00608887
0.00159252
-0.000286674
0.00594251
-0.00611968
0.00144495
-0.000451994
0.000940182
-0.00113108
-0.00580747
0.00116054
-0.00105211
-0.00563922
0.00120549
-0.000737955
-0.00556684
0.00120764
-0.000424073
-0.00539491
0.00112564
-0.000518476
0.00600708
-0.00578876
0.000965622
-0.000256467
0.000745447
-0.00109751
-0.00346769
0.000733922
-0.000768745
-0.00419957
0.00069661
-0.000726749
-0.00426131
0.000735669
-0.000819804
-0.00448972
0.000769877
-0.000610824
-0.00374545
0.000909529
-0.000383041
0.00255281
-0.00259695
0.000734584
-0.000579822
0.000203141
-0.000671501
-0.00216438
0.000407704
-0.000607701
-0.00222514
0.000500707
-0.0005899
-0.00257976
0.000559227
-0.000670358
-0.0020741
0.000554257
-0.000542343
-0.0025083
0.000367565
-0.000641663
-0.00262748
0.000165355
-0.00031253
0.0035585
-0.00326663
1.9093e-05
-0.000124859
-0.0002087
-0.000487223
-0.00124507
5.52037e-05
-0.00053656
-0.000957527
1.80349e-05
-0.000388291
-0.000837631
-1.46576e-05
-0.00058053
-0.00173661
2.12172e-05
-0.000595261
-0.00224488
-8.66812e-06
-0.000546283
-0.0029159
-0.000195551
-0.000125161
-0.00335371
-0.000258513
-3.02173e-05
0.00412471
-0.00422534
-0.000201618
-0.000105282
-2.9768e-05
-0.00026779
-0.000720091
-5.6495e-05
-0.000299453
0.000344587
-5.20866e-05
-0.000350714
0.000135744
-5.5699e-05
-0.000432061
-0.000796215
-2.66336e-05
-0.000420016
-0.00150175
-1.9657e-05
-0.000381845
-0.00178628
-7.17608e-05
-0.000216031
-0.00171076
-7.94944e-05
-0.000134262
-0.0025773
-8.11529e-05
-0.00014172
0.00208849
-0.00203769
-4.51342e-05
-8.47058e-05
-9.81081e-06
-4.35539e-05
0.00157923
-3.98514e-05
-9.03994e-05
0.00170726
-2.64504e-05
-0.000161615
0.00147124
-1.92922e-05
-0.000170102
0.00162171
-1.86591e-05
-0.000205447
0.000916477
-1.58002e-05
-0.000201216
0.00111261
-6.92959e-06
-0.000182723
-0.00013137
1.19256e-05
-0.000146886
0.000285365
9.70555e-06
-9.63407e-05
-1.55729e-05
-1.06169e-05
-5.07233e-05
0.0010647
-0.000998665
-2.50727e-05
-0.000357284
0.00531642
-0.00532596
0.0025347
-0.00035272
0.00217538
-0.000273519
-0.00563723
0.00233495
-0.000237769
0.00530684
-0.00535027
0.00197526
-0.000332728
0.00173082
-0.00073581
-0.00570201
0.00229343
-0.000570488
-0.00530801
0.00194998
-3.82383e-05
0.00543348
-0.00548141
0.00171629
-0.00025364
0.00169244
-0.00109729
-0.00648466
0.00205596
-0.000821159
-0.00619305
0.00198863
-0.000379398
-0.00619133
0.00171801
-0.00022529
0.0058757
-0.00592428
0.00163272
-0.000303173
0.00139529
-0.00128708
-0.00630123
0.00178857
-0.0010089
-0.00654335
0.00172329
-0.000727427
-0.0060667
0.00170156
-0.000284975
-0.00623247
0.00156621
-0.000348885
0.00489537
-0.00489154
0.00127153
-0.000237539
0.000895897
-0.00130759
-0.00555798
0.00107979
-0.00108753
-0.00539358
0.00123368
-0.000889415
-0.00542101
0.00122232
-0.000616575
-0.00547207
0.00108158
-0.000708258
-0.00554863
0.000982947
0.000176201
0.00458193
-0.00523421
0.00105866
-0.000469994
0.00063218
-0.0010755
-0.00303133
0.000735184
-0.000947233
-0.00383589
0.000709768
-0.000808465
-0.00406207
0.000715932
-0.000865603
-0.00428832
0.000729514
-0.000678329
-0.0036702
0.000830613
-0.000413147
-0.00273961
0.000823672
-0.000540689
0.00268416
-0.00234645
0.000625028
-0.000278362
5.23035e-05
-0.000631722
-0.0019081
0.000390808
-0.000681147
-0.00206759
0.000394738
-0.000547355
-0.00250295
0.000582954
-0.000685014
-0.00196329
0.000552902
-0.000569009
-0.00237013
0.000389837
-0.000634937
-0.00235134
0.000180079
-0.000404728
-0.00293467
0.000112963
-7.09485e-05
0.00438645
-0.00434235
1.57248e-05
1.33688e-05
-0.000181751
-0.00044378
-0.00103492
3.01306e-05
-0.000436988
-0.000710073
-5.47153e-05
-0.000415148
-0.00065848
-9.66823e-05
-0.000551891
-0.00163366
2.2215e-06
-0.000595588
-0.00206237
1.42763e-05
-0.000554463
-0.00257521
-0.000176747
-0.000185507
-0.0033481
-0.00023168
-0.000157143
-0.00422533
-0.000235641
-9.01695e-05
0.00369661
-0.00376456
-0.000185225
-0.000142803
-3.68825e-05
-0.000258226
-0.000527776
-6.2111e-05
-0.000275178
0.000535422
-6.25506e-05
-0.000358775
0.000347092
-6.62741e-05
-0.000416479
-0.000566982
-3.85545e-05
-0.000424411
-0.00127265
-3.6778e-05
-0.000380883
-0.00154694
-7.93249e-05
-0.000225566
-0.00164626
-9.34172e-05
-0.000154356
-0.00255126
-9.80658e-05
-0.000158753
-0.00198525
-7.11832e-05
-0.000125034
0.00172737
-0.00163164
-6.6553e-05
-4.62464e-05
-2.53064e-05
-4.26287e-05
0.00161597
-3.95199e-05
-8.25238e-05
0.00177639
-2.64581e-05
-0.000157995
0.00162033
-1.75466e-05
-0.000162367
0.00178346
-1.86714e-05
-0.000198575
0.00111392
-1.75269e-05
-0.000192997
0.00129615
-6.34539e-06
-0.000183232
3.32094e-05
1.17224e-05
-0.000144813
0.000431931
1.01723e-05
-9.74253e-05
0.000102161
-1.06028e-05
-6.18489e-05
-0.000919599
-2.78366e-05
-3.88611e-05
0.00226498
-0.00222489
-2.63002e-05
-0.000328188
0.00517848
-0.00519433
0.00265219
-0.000305182
0.00251897
-0.000323797
-0.00530986
0.00277308
-2.25284e-05
0.0053362
-0.00532495
0.00230821
-0.000138585
0.001966
-0.000588837
-0.00558729
0.00231895
-0.000196177
-0.00557704
0.00218742
0.000224594
0.00527897
-0.00551059
0.00194404
-0.000171942
0.00175042
-0.000874214
-0.00590844
0.00236002
-0.000305031
-0.00557517
0.00204446
3.50505e-05
-0.00576807
0.00182219
-0.000135574
0.00516828
-0.00527569
0.00173399
-0.000139509
0.00160633
-0.00106997
-0.00659027
0.00209707
-0.000889815
-0.00627875
0.00202258
-0.000600122
-0.00620081
0.00187081
-0.000338984
-0.0059702
0.00181793
-0.000133376
0.00513656
-0.00513665
0.0014173
-0.000117597
0.00126985
-0.00131778
-0.00625845
0.00179457
-0.000973895
-0.00658879
0.00172037
-0.00064643
-0.00625604
0.00166964
-0.000387378
-0.0063055
0.00154539
-0.000513116
-0.00508438
0.00156391
0.000310439
0.00558963
-0.00553667
0.00108434
-7.5801e-05
0.00103651
-0.00134661
-0.00530692
0.00113755
-0.00113444
-0.0053449
0.00121832
-0.000935573
-0.00525565
0.00119543
-0.000689897
-0.00553686
0.0011114
-0.000689349
-0.00532165
0.000865615
7.24561e-06
-0.00574171
0.00107006
-0.000229846
0.00240025
-0.00272895
0.00107652
-0.000599651
0.000549895
-0.000892751
-0.00270411
0.000730271
-0.000934169
-0.00358205
0.000734372
-0.00090404
-0.00369973
0.000704113
-0.000922075
-0.00403172
0.000696388
-0.000763727
-0.00353038
0.000784414
-0.000422363
-0.0029166
0.00079503
-0.000561664
-0.0021006
0.00073476
-0.000325926
0.0035307
-0.00319174
0.00054104
-2.53056e-05
-2.42353e-06
-0.000596633
-0.00167455
0.000392079
-0.000656703
-0.00187188
0.00041481
-0.00055084
-0.00254569
0.000573169
-0.000686896
-0.00181264
0.000567317
-0.000578915
-0.00216847
0.00033456
-0.000594945
-0.00210001
0.000178989
-0.000457082
-0.00265314
0.000170124
-0.000296195
-0.00419687
0.000106531
-0.000102993
0.00514061
-0.0051352
2.31294e-05
-6.90373e-05
-0.000150662
-0.000433343
-0.000824959
-2.99434e-05
-0.00036592
-0.000504187
-8.50132e-05
-0.000394279
-0.00054401
-0.000133681
-0.00053964
-0.00157291
-3.42691e-05
-0.000595149
-0.00186849
-2.09126e-05
-0.000538146
-0.00226944
-0.000134229
-0.000243009
-0.00330993
-0.000197479
-0.000250428
-0.00415198
-0.000208955
-9.59633e-05
-0.00381275
-0.000250235
-0.000137761
0.00279706
-0.0027827
-0.00018686
-0.000126276
-5.66105e-05
-0.000244608
-0.00034903
-6.35997e-05
-0.000249667
0.000710395
-6.99401e-05
-0.000356902
0.000557259
-7.38108e-05
-0.000405606
-0.000339621
-5.03971e-05
-0.000426933
-0.00103638
-4.64567e-05
-0.000371258
-0.00130946
-9.59988e-05
-0.000251683
-0.00155681
-0.000100323
-0.000174002
-0.00250135
-0.000114136
-0.000178234
-0.00191809
-8.44135e-05
-0.00015156
-0.00153635
-7.67667e-05
-0.000141392
0.00221779
-0.00211522
-6.65883e-05
-3.61375e-05
-2.62359e-05
-3.46475e-05
0.0016449
-3.89997e-05
-7.46629e-05
0.00183912
-2.75924e-05
-0.000151518
0.00176383
-1.84339e-05
-0.000151031
0.00193509
-1.81525e-05
-0.00018909
0.00130442
-2.0081e-05
-0.000188587
0.00147304
-5.82904e-06
-0.000183353
0.00019837
1.18472e-05
-0.000142755
0.000576435
9.9745e-06
-9.78758e-05
0.000220959
-1.07497e-05
-6.67048e-05
-0.000835309
-2.81875e-05
-4.92967e-05
-0.00217265
-3.07859e-05
-6.81723e-05
0.00307378
-0.00301475
-1.71606e-05
-0.000321838
0.00480049
-0.00475516
0.00306171
-0.000317196
0.00270915
-0.000345639
-0.00510378
0.0029244
-6.75824e-05
0.00505726
-0.00500744
0.00264742
2.37558e-05
0.0023304
-0.000472142
-0.00539644
0.00272578
-7.12757e-05
-0.00536798
0.00269121
0.000344411
0.00525074
-0.00533133
0.00226898
-5.36791e-05
0.00193571
-0.000600049
-0.00583716
0.00241614
7.97948e-05
-0.00586495
0.00222204
0.000229679
-0.00556619
0.00204839
4.83316e-05
0.00507389
-0.00516126
0.00184751
-4.9819e-05
0.0016965
-0.00101689
-0.00599036
0.0023331
-0.000620204
-0.00572311
0.00223836
-0.000392334
-0.00566374
0.00173235
-5.13757e-05
-0.00564719
0.00190608
0.000161706
0.00476456
-0.00492492
0.00159926
-1.11833e-05
0.00136363
-0.00129658
-0.0065562
0.00214972
-0.000696568
-0.00652818
0.00206917
-0.000500687
-0.006267
0.00194303
-1.61031e-05
-0.00626753
0.00179687
-0.000176786
-0.00531872
0.00166367
0.000388793
0.00543916
-0.00548569
0.00138548
0.000174816
0.00122476
-0.00148178
-0.00614379
0.00176557
-0.00107496
-0.00656314
0.00170944
-0.00081509
-0.00628119
0.00162503
-0.000461357
-0.00641976
0.00155535
-0.000587862
-0.00518237
0.00154189
1.87698e-05
-0.00524814
0.00126386
0.000148605
0.00470752
-0.00538054
0.00137891
-0.000371117
0.000730938
-0.00123237
-0.00503675
0.00108339
-0.00136306
-0.00497584
0.00119738
-0.00106307
-0.00501365
0.00113534
-0.000726676
-0.00564204
0.00110522
-0.000674854
-0.00515109
0.000851961
-0.000184836
-0.00603127
0.000917647
-0.000137009
-0.0033963
0.00131275
-0.0004046
0.00263507
-0.0025181
0.00103822
-0.000319276
0.000497879
-0.000854217
-0.00244684
0.000709919
-0.0010524
-0.00312465
0.000668564
-0.000948046
-0.00327699
0.000708838
-0.00099748
-0.0036522
0.000635174
-0.000725129
-0.00345329
0.000765519
-0.000535312
-0.00295997
0.000768149
-0.000530921
-0.00194394
0.000712207
-0.000478856
-0.00287475
0.000600435
-0.000469833
0.00456131
-0.00418448
0.000531046
4.43835e-05
-1.63332e-05
-0.000468509
-0.00154778
0.000339257
-0.000548652
-0.00169592
0.000398852
-0.000571778
-0.00249998
0.000546603
-0.00070605
-0.00164787
0.000574802
-0.000601136
-0.00192485
0.000329691
-0.000579622
-0.00186223
0.000138255
-0.000508597
-0.00239723
0.000188663
-0.000404777
-0.00401155
0.000139159
-0.000147409
-0.00501491
3.76889e-05
2.63936e-05
0.00458821
-0.00463734
-9.18909e-05
-0.00012379
-0.000163455
-0.000388483
-0.000631042
-7.13247e-05
-0.000331051
-0.000331964
-0.000120784
-0.000448203
-0.000379644
-0.000158079
-0.000552817
-0.00148657
-7.28052e-05
-0.000616767
-0.00165372
-5.92041e-05
-0.000507902
-0.00200795
-0.00014576
-0.000324462
-0.00317117
-0.000200206
-0.000322007
-0.00400608
-0.000195373
-0.000124598
-0.00383637
-0.000238975
-0.000176164
-0.00276967
-0.000238654
-0.00023392
0.00272816
-0.00267146
-0.00015104
-0.000137725
-5.18353e-05
-0.00023001
-0.000175965
-6.76116e-05
-0.000229341
0.000872276
-7.08035e-05
-0.000335263
0.000753893
-8.28286e-05
-0.000386789
-0.000117031
-6.06427e-05
-0.000422487
-0.000789255
-6.41296e-05
-0.0003734
-0.00106713
-0.000103973
-0.000278783
-0.00145128
-0.000106097
-0.000181959
-0.00243475
-0.000127721
-0.000190168
-0.00184332
-9.66192e-05
-0.0001839
-0.00141621
-8.73568e-05
-0.000157686
-0.00201925
-6.43513e-05
-0.00022106
0.00296746
-0.0028454
-3.57663e-05
-6.00697e-05
-1.70694e-05
-3.02574e-05
0.00167062
-3.95233e-05
-6.77638e-05
0.00189591
-2.80245e-05
-0.000144549
0.00189983
-1.90497e-05
-0.000140378
0.00207786
-2.08269e-05
-0.000178892
0.00148476
-1.95965e-05
-0.000177358
0.00163655
-6.22909e-06
-0.000182733
0.000363066
1.22074e-05
-0.000140607
0.000719512
9.37716e-06
-9.63175e-05
0.00033834
-1.10891e-05
-6.94923e-05
-0.000748762
-2.7805e-05
-5.38179e-05
-0.00211682
-3.02009e-05
-8.61976e-05
-0.00293835
-2.09956e-05
-0.000101625
0.00337811
-0.00326791
-2.57303e-05
-0.000201093
0.00454135
-0.0046116
0.00320805
-0.000280427
0.0030656
-0.000322058
-0.00473103
0.00337155
9.54e-06
0.00487206
-0.00487311
0.00298565
-0.000122066
0.00268657
-0.000280848
-0.00521932
0.00296927
-4.71275e-05
-0.00504423
0.00293704
0.000179638
0.00523867
-0.00505274
0.00262627
3.69348e-05
0.00231829
-0.000428437
-0.00550489
0.00278486
-7.65272e-05
-0.00521098
0.00272511
0.0002404
-0.00533555
0.00268471
0.000166716
0.00471035
-0.00477523
0.00221548
0.000133314
0.0018144
-0.000742653
-0.00594471
0.00224519
-0.000465598
-0.00577983
0.00217642
-0.000242615
-0.00565512
0.00216125
0.000148736
-0.00551761
0.00220463
0.000354043
0.00517917
-0.005227
0.001703
8.05515e-05
0.00153452
-0.00118063
-0.00604223
0.00244021
-0.00063996
-0.00584665
0.00240003
-0.000438967
-0.00553532
0.00204821
0.000120769
-0.00580197
0.00175026
-1.80823e-06
-0.00498562
0.0017918
0.000524587
0.00460367
-0.00472625
0.00158605
0.000595899
0.00141688
-0.0013908
-0.00655907
0.00213369
-0.000908838
-0.00661332
0.00206875
-0.000694053
-0.00621721
0.00189834
-0.000127566
-0.00647764
0.00181934
-0.000158362
-0.00575845
0.0018071
0.000102833
-0.0053892
0.00148312
0.000524742
0.00366193
-0.00435158
0.001699
0.000118904
0.00123215
-0.00139692
-0.00605297
0.00164163
-0.00138477
-0.0064392
0.00166333
-0.00106499
-0.00620123
0.00163141
-0.000845212
-0.00625471
0.00157852
-0.000543864
-0.00528805
0.00153004
-0.000149246
-0.00506145
0.00131961
0.000172481
-0.00581836
0.00139218
3.83542e-05
0.00364946
-0.00376694
0.00105343
-0.000607582
0.000685233
-0.0013001
-0.00469237
0.00111864
-0.00137888
-0.00472493
0.00115895
-0.00116064
-0.00471592
0.00111225
-0.000825023
-0.00565307
0.000973914
-0.000598332
-0.00509722
0.000924553
-0.000455796
-0.00603313
0.000774306
-5.90935e-06
-0.00422388
0.00122022
-0.00042565
-0.00259795
0.00133939
-0.000598146
0.0040193
-0.00376178
0.000909016
-0.000342583
0.000480171
-0.000714445
-0.00218507
0.00071772
-0.000932165
-0.00272389
0.00069267
-0.00107745
-0.00280493
0.000702176
-0.00102286
-0.00319552
0.000568973
-0.000739517
-0.00341141
0.000731666
-0.000598903
-0.00293303
0.000757861
-0.000513125
-0.00186425
0.000692982
-0.000478498
-0.00262419
0.000535364
-0.000538292
-0.0037872
0.000594042
4.56756e-06
0.00477154
-0.00460793
0.000389261
0.000102462
-8.42708e-05
-0.000450478
-0.00140226
0.000317312
-0.000538359
-0.00149618
0.000346831
-0.000697713
-0.00234412
0.000492501
-0.000728365
-0.0014982
0.000572481
-0.000642491
-0.00164537
0.000321044
-0.000565791
-0.00162075
0.000146099
-0.000564892
-0.0022173
0.000198756
-0.000517116
-0.00380929
0.000181506
-7.50602e-05
-0.00494974
2.44548e-05
-1.8728e-05
-0.00463833
-0.000118763
-8.25009e-05
0.00325626
-0.0032681
-0.000231471
-0.000238115
-0.00014895
-0.000359014
-0.000454731
-0.000128171
-0.000295833
-0.000191301
-0.000145496
-0.000438163
-0.000220887
-0.000176641
-0.000579405
-0.00138121
-7.08228e-05
-0.000618902
-0.00140535
-0.000124765
-0.00051503
-0.0017639
-0.000161619
-0.000425558
-0.0029902
-0.000179956
-0.000353396
-0.00380659
-0.000228257
-0.000161984
-0.00382586
-0.000234068
-0.000204453
-0.00274719
-0.000240903
-0.000256443
-0.00262738
-0.000183974
-0.000263924
0.0026273
-0.00256277
-0.000172704
-0.000216544
-3.24883e-05
-0.000208384
-1.81611e-05
-7.18897e-05
-0.000215506
0.00102109
-6.86801e-05
-0.000311579
0.000932054
-8.19349e-05
-0.000363565
9.45437e-05
-7.12155e-05
-0.0004084
-0.000540235
-8.01556e-05
-0.000356491
-0.000835218
-0.00011691
-0.000298701
-0.00132839
-0.000110893
-0.000204865
-0.00233918
-0.000137407
-0.000185986
-0.00177081
-0.000110562
-0.000187427
-0.0013045
-9.03935e-05
-0.000171809
-0.00191838
-7.02427e-05
-0.000262363
-0.00270053
-3.30569e-05
-0.000172649
0.00305373
-0.00293845
-8.00236e-05
-9.47411e-05
-2.55873e-05
-1.72852e-05
0.0016828
-3.85539e-05
-5.88485e-05
0.0019433
-2.80674e-05
-0.000135921
0.00202821
-2.04759e-05
-0.000133467
0.00221449
-2.22126e-05
-0.000167091
0.00165178
-2.07623e-05
-0.000167048
0.00178809
-4.09168e-06
-0.000179895
0.000524565
1.21672e-05
-0.000137146
0.000860222
8.64223e-06
-9.39009e-05
0.000453153
-1.15352e-05
-7.07363e-05
-0.000660579
-2.8536e-05
-6.45529e-05
-0.00204965
-3.04209e-05
-8.65574e-05
-0.00286345
-1.85361e-05
-0.000122151
-0.00313421
-3.25494e-05
-0.000122379
0.00353655
-0.00340081
-3.90991e-05
-0.000221147
0.00446267
-0.00451616
0.0034685
-0.000352933
0.00322966
-0.000223043
-0.00467637
0.0035709
6.03468e-05
0.0046778
-0.00463309
0.00311253
3.26547e-05
0.00296647
-0.00014597
-0.00481752
0.00338239
-7.30732e-05
-0.00479297
0.00331734
5.77933e-05
0.00494287
-0.00477397
0.00293859
0.000252628
0.00258348
-0.000343554
-0.00522549
0.00301019
-8.06427e-05
-0.00503917
0.00296832
0.000119028
-0.00490602
0.00291169
0.000351736
0.00484831
-0.00499141
0.00258435
0.000279259
0.00225487
-0.000522007
-0.00564062
0.00286517
-0.000321343
-0.00532505
0.00275468
-6.47746e-05
-0.00544688
0.0026586
0.000185278
-0.00473326
0.0026062
0.000388864
0.00508405
-0.00502416
0.00212077
0.00033466
0.00167476
-0.000985684
-0.00589148
0.00230528
-0.000515624
-0.0059374
0.00227843
-6.46237e-05
-0.00588725
0.0020342
-7.85378e-05
-0.00529017
0.00213311
0.000103517
-0.00528249
0.00215479
0.000598383
0.00450153
-0.00470831
0.00183598
0.00066199
0.00155991
-0.00122434
-0.00613576
0.00239095
-0.000581385
-0.00607595
0.00234205
-0.000330836
-0.00569791
0.0021994
-6.92534e-05
-0.00580742
0.00199535
0.000173496
-0.00536374
0.00179653
0.000341691
-0.0049001
0.0017268
0.000604948
0.00388166
-0.00411463
0.00173881
0.000664034
0.00102897
-0.00128119
-0.00656338
0.00210926
-0.00108578
-0.00678086
0.00200223
-0.000739641
-0.00637873
0.00190492
-0.000693964
-0.00656943
0.00183888
-0.000307296
-0.00595479
0.00177912
-3.87057e-05
-0.00522685
0.0015342
0.000536327
-0.00501614
0.00178384
0.000619901
0.00357456
-0.00378413
0.00132702
-2.62614e-05
0.000817178
-0.00152368
-0.00581846
0.00155408
-0.00138761
-0.00636303
0.00157418
-0.00103307
-0.00624902
0.00158355
-0.00094314
-0.0061164
0.00161122
-0.000477494
-0.00537978
0.00154942
-0.00033381
-0.00511034
0.00145694
0.000205296
-0.00593322
0.00122327
3.60567e-05
-0.00428339
0.00144693
2.26788e-05
0.0033068
-0.00359812
0.000723925
-0.000475761
0.000771334
-0.0011384
-0.00439488
0.000985238
-0.00137331
-0.00429382
0.00112869
-0.00122243
-0.004429
0.001017
-0.000856355
-0.00557271
0.000865391
-0.000606243
-0.00514489
0.000888312
-0.000539136
-0.00584719
0.000678848
-8.04918e-05
-0.00499305
0.00111084
-0.000402855
-0.00278357
0.0013302
-0.000703469
-0.00339652
0.00113931
8.08789e-05
0.00515714
-0.00511088
0.000786441
0.000179113
0.000383802
-0.000657297
-0.00194981
0.00063764
-0.000933605
-0.0022641
0.000653177
-0.00114827
-0.0023602
0.000698492
-0.00102898
-0.0027524
0.000559673
-0.000840886
-0.00330914
0.000665104
-0.000662085
-0.00286985
0.000764781
-0.000440688
-0.00192945
0.000698859
-0.000562596
-0.00240092
0.000515196
-0.000311993
-0.0035758
0.0005609
-7.47151e-05
-0.00438898
0.000431085
0.000296582
0.00344773
-0.0034243
-1.3252e-05
-9.19571e-05
-0.000199653
-0.000329913
-0.00131341
0.000239473
-0.000468832
-0.00130639
0.000300523
-0.000752379
-0.00209996
0.000416892
-0.000805571
-0.0012427
0.000463171
-0.000659688
-0.00133628
0.000304178
-0.000575454
-0.00139004
0.000150756
-0.000618727
-0.00211704
0.00023901
-0.000620916
-0.00356243
0.000219418
-0.000118912
-0.00486666
5.53561e-05
-4.79089e-05
-0.00464041
-0.000130013
-0.000112058
-0.00325306
-0.00027819
-0.000242258
0.00214967
-0.00209953
-0.00030327
-0.000256106
-0.000182343
-0.000319767
-0.000340152
-0.000107214
-0.000280962
-9.47495e-05
-0.000159267
-0.000410059
-0.00012432
-0.000143582
-0.000630898
-0.00118629
-0.000104233
-0.000639975
-0.00109609
-0.000148509
-0.000476753
-0.00155587
-0.000212537
-0.000489504
-0.00279099
-0.000170023
-0.00037801
-0.00358623
-0.000227173
-0.000177993
-0.00381994
-0.000242173
-0.000226245
-0.00270898
-0.000233462
-0.000284406
-0.00256526
-0.000190424
-0.000298077
-0.00252638
-0.000184651
-0.000221007
0.00274496
-0.00265692
-0.000212379
-0.000161816
-8.57652e-05
-0.000185211
0.000129986
-7.4002e-05
-0.000185952
0.00114728
-7.09796e-05
-0.00029179
0.00109956
-8.0321e-05
-0.000360197
0.000314002
-7.46633e-05
-0.000405528
-0.000278023
-9.49897e-05
-0.000331252
-0.000625124
-0.000126045
-0.000303193
-0.00120536
-0.000116646
-0.000216807
-0.00222818
-0.000142231
-0.000184808
-0.00169835
-0.000118957
-0.000185804
-0.00120352
-9.64722e-05
-0.000187754
-0.00182576
-5.98042e-05
-0.000275687
-0.00255212
-2.95154e-05
-0.000203171
-0.00279693
-9.35592e-05
-0.000223716
0.00348888
-0.00333814
-0.000129424
-0.000107526
-3.87611e-05
-7.6128e-06
0.0016849
-3.83087e-05
-4.9507e-05
0.00198235
-2.80913e-05
-0.000124943
0.00214533
-2.02509e-05
-0.000127331
0.00234488
-2.35295e-05
-0.000155346
0.00180697
-2.20518e-05
-0.000156187
0.00192715
-3.63746e-06
-0.000176153
0.000684489
1.21376e-05
-0.000132563
0.000997007
7.94511e-06
-9.23902e-05
0.000566013
-1.18275e-05
-7.37283e-05
-0.0005695
-2.88858e-05
-6.84545e-05
-0.00197892
-3.08097e-05
-9.22471e-05
-0.00278247
-1.91569e-05
-0.000130467
-0.0029953
-2.69767e-05
-0.000139271
-0.00324789
-4.61977e-05
-9.39766e-05
0.00355789
-0.00345849
-4.45235e-05
-0.000215592
0.00434002
-0.0043065
0.00349147
-0.000321573
0.00338807
-0.000221132
-0.00456454
0.00389941
-7.1343e-05
0.00435728
-0.00427304
0.00351595
0.000226444
0.00308517
-6.9643e-05
-0.00470719
0.00359597
-0.000103928
-0.00457468
0.00354334
-9.1328e-06
0.00470192
-0.00463084
0.00310837
0.00033688
0.00287821
-4.6748e-05
-0.00505151
0.00339465
-7.01093e-05
-0.00477339
0.00335228
3.12036e-05
-0.00461636
0.00324756
0.000491965
0.00453146
-0.00466018
0.00292708
0.000523532
0.00259341
-0.000435879
-0.00525921