/*--------------------------------*- C++ -*----------------------------------*\
  =========                 |
  \\      /  F ield         | OpenFOAM: The Open Source CFD Toolbox
   \\    /   O peration     | Website:  https://openfoam.org
    \\  /    A nd           | Version:  7
     \\/     M anipulation  |
\*---------------------------------------------------------------------------*/
FoamFile
{
    version     2.0;
    format      ascii;
    class       volVectorField;
    location    "10";
    object      U;
}
// * * * * * * * * * * * * * * * * * * * * * * * * * * * * * * * * * * * * * //

dimensions      [0 1 -1 0 0 0 0];

internalField   nonuniform List<vector> 
18720
(
(-0.597476 -0.516498 -1.04494)
(-1.04091 1.23139 0.0297888)
(-0.640667 -0.513284 -1.01167)
(-0.581956 -0.511272 -1.05181)
(-0.629854 -0.514851 -1.16308)
(-1.32283 1.28387 1.40957)
(-1.02883 1.30081 0.145401)
(-0.962218 1.1965 0.0157793)
(-1.2497 0.642834 0.0711076)
(-0.632352 -0.509203 -1.17657)
(-0.553926 -0.525553 -1.07803)
(-0.672739 -0.52113 -1.07643)
(-1.49285 -0.192808 -0.618998)
(-1.32328 1.97357 1.94462)
(-1.31818 1.25478 1.5548)
(-1.27511 1.28978 1.26535)
(-1.29619 1.19631 1.44056)
(-1.32578 0.650616 0.120753)
(-0.906443 1.1512 -0.0389034)
(-1.19709 0.568937 -0.0245465)
(-1.51261 0.536393 0.183017)
(-1.51859 -0.185085 -0.667375)
(-0.519282 -0.558516 -1.10036)
(-0.724308 -0.534203 -0.985124)
(-1.4758 -0.164368 -0.509146)
(-1.69343 -0.258789 -0.556729)
(-1.35264 2.57459 2.09519)
(-1.20616 2.06744 2.01978)
(-1.04169 2.01308 1.88171)
(-1.56563 1.48239 1.88098)
(-1.33882 1.30536 1.41156)
(-1.13659 1.31173 1.16671)
(-1.18851 1.07636 1.36051)
(-1.45647 1.01499 0.573251)
(-1.55308 0.553661 0.188182)
(-0.834219 1.11205 -0.120081)
(-1.1604 0.577927 -0.0548275)
(-1.45759 0.521574 0.0801174)
(-1.53321 0.951132 -0.0958136)
(-1.71169 -0.287588 -0.569872)
(-0.519875 -0.556058 -1.07268)
(-0.751099 -0.55551 -0.939345)
(-1.46969 -0.182014 -0.434911)
(-1.67059 -0.246698 -0.534881)
(-1.70061 0.0547202 -0.178995)
(-1.0891 3.17216 2.13046)
(-1.46357 2.55143 2.16494)
(-1.30026 2.52531 2.02622)
(-1.14969 2.1613 1.91532)
(-1.44471 1.56645 2.07452)
(-0.903407 1.87543 1.87025)
(-1.34671 1.48626 1.84261)
(-1.31191 1.4695 1.67865)
(-1.48263 1.03491 0.500305)
(-1.06829 1.29828 1.03581)
(-1.18031 1.21387 1.12565)
(-1.44799 1.00944 0.609233)
(-1.75754 1.20008 0.0648748)
(-1.55613 0.95532 -0.0133052)
(-0.729473 1.02991 -0.232924)
(-1.17387 0.54445 -0.0838218)
(-1.39513 0.524189 0.0395036)
(-1.51043 0.951028 -0.154837)
(-1.64726 1.15162 0.371144)
(-1.70603 0.041476 -0.179441)
(-0.521589 -0.568203 -1.06551)
(-0.822707 -0.534182 -0.856391)
(-1.47622 -0.186075 -0.400274)
(-1.64325 -0.22455 -0.516206)
(-1.69953 0.0630694 -0.196962)
(-1.85135 -0.145748 -0.257096)
(-1.25254 3.25842 2.57675)
(-0.999251 3.20836 2.26351)
(-1.10977 3.15895 2.04605)
(-0.887831 3.0604 2.17978)
(-1.54315 2.06042 2.03181)
(-1.25765 2.46612 1.926)
(-0.858004 2.32394 1.75907)
(-1.11262 2.26908 1.91893)
(-1.31951 1.42853 1.72198)
(-0.770756 1.82658 1.77148)
(-1.30062 1.50198 1.74636)
(-1.18574 1.52042 1.60196)
(-1.09496 1.19405 2.02224)
(-1.77207 1.17193 0.112588)
(-1.09225 1.28936 0.830569)
(-1.43562 1.17205 0.785391)
(-1.19972 0.803935 1.1016)
(-1.74956 1.21225 -0.00296271)
(-1.58456 1.37144 0.423572)
(-1.71275 1.12582 0.374037)
(-0.650046 0.931844 -0.321235)
(-1.16005 0.438191 -0.197553)
(-1.35961 0.491018 -0.176985)
(-1.48713 0.931017 -0.231806)
(-1.60083 1.14255 0.284983)
(-1.57762 1.21232 -0.0559295)
(-1.88073 -0.160154 -0.246446)
(-0.53907 -0.592333 -1.03317)
(-0.857053 -0.527582 -0.811448)
(-1.47125 -0.176552 -0.406215)
(-1.61509 -0.232098 -0.483985)
(-1.68806 0.0645418 -0.216265)
(-1.81396 -0.137714 -0.257383)
(-1.57689 0.291537 0.108649)
(-0.42614 3.01173 2.5735)
(-0.96755 3.24034 2.61506)
(-1.10584 3.30331 2.55149)
(-0.226268 3.33048 2.5057)
(-1.27384 2.77227 2.35126)
(-0.790444 3.31374 1.93613)
(-0.433653 3.0397 2.39355)
(-1.10136 2.7243 2.19516)
(-1.07054 2.30434 1.95245)
(-1.06092 2.36873 1.96543)
(-0.699584 2.34764 1.66329)
(-1.04266 2.30725 1.79642)
(-1.37063 2.23198 1.54331)
(-1.40772 1.15149 1.86914)
(-1.02132 1.78891 1.50172)
(-1.41227 1.52719 1.41655)
(-1.13266 1.43698 1.52516)
(-1.26397 1.16607 1.85728)
(-1.28759 1.33788 0.979184)
(-1.61421 1.37109 0.452936)
(-1.08732 1.23836 0.62705)
(-1.30064 0.996845 0.703644)
(-1.26448 0.929033 0.49132)
(-1.69232 1.20493 -0.0848169)
(-1.50638 1.37493 0.560246)
(-1.19502 1.83608 -0.0425289)
(-1.57994 1.19212 -0.0510042)
(-0.58568 0.869622 -0.367035)
(-1.04437 0.407046 -0.236573)
(-1.2984 0.479083 -0.272137)
(-1.44782 0.929929 -0.311477)
(-1.49457 1.16608 0.324785)
(-1.52736 1.2349 -0.163582)
(-1.33261 0.882316 -0.241964)
(-1.64821 0.251292 0.209502)
(-0.5726 -0.605946 -0.998643)
(-0.881388 -0.506574 -0.771587)
(-1.46865 -0.170401 -0.413924)
(-1.57771 -0.21672 -0.500018)
(-1.67818 0.0596177 -0.249789)
(-1.78092 -0.125582 -0.277495)
(-1.52155 0.304358 0.0330626)
(-1.38506 -0.00169531 0.47953)
(-0.675054 2.69793 2.42331)
(-0.766116 2.89688 2.44249)
(-0.418539 3.14023 2.75675)
(-0.661898 3.05343 2.45118)
(-0.681054 3.17224 2.45924)
(-0.675362 3.59502 2.4239)
(-0.781505 3.31824 2.62087)
(-0.767809 2.959 2.65955)
(-1.11467 2.61478 2.17351)
(-0.769617 3.18216 2.12321)
(-0.718813 3.09873 2.33214)
(-0.96299 2.79669 2.24373)
(-0.819063 2.40068 2.34666)
(-1.31097 2.17115 1.66871)
(-1.08604 2.30846 1.82149)
(-0.404589 2.27313 1.75163)
(-0.921542 2.30505 1.71709)
(-1.35245 2.39523 1.43102)
(-0.474903 1.83684 2.26341)
(-1.41154 1.20961 0.933365)
(-0.86342 1.62125 1.47748)
(-1.30713 1.54493 1.08837)
(-0.91496 1.46102 1.45557)
(-0.990322 1.21309 1.94074)
(-1.20136 1.34585 1.12431)
(-1.28774 1.51759 0.670623)
(-1.26678 1.90696 0.036445)
(-0.944548 1.21634 0.499886)
(-0.83575 1.02135 0.833329)
(-1.24253 0.834462 0.385437)
(-1.64827 1.23997 -0.180981)
(-1.44225 1.42656 0.54294)
(-1.15099 1.71505 -0.182461)
(-0.467356 1.63656 -1.00908)
(-1.50589 0.818521 -0.0881541)
(-0.557105 0.798764 -0.400841)
(-1.03316 0.363677 -0.25557)
(-1.23915 0.441863 -0.314863)
(-1.41111 0.907089 -0.364052)
(-1.46644 1.12988 0.255106)
(-1.46157 1.19991 -0.313487)
(-1.20597 0.917253 -0.359476)
(-0.691161 1.26269 -0.438157)
(-1.38133 -0.0151867 0.466929)
(-0.592653 -0.600023 -0.981203)
(-0.898485 -0.498439 -0.754293)
(-1.46719 -0.172971 -0.404458)
(-1.54456 -0.254616 -0.457408)
(-1.65889 0.0659995 -0.287835)
(-1.7487 -0.161949 -0.278573)
(-1.49099 0.311773 -0.016629)
(-1.38219 0.0197124 0.492122)
(-0.797469 0.0581849 -0.0868772)
(-0.381889 2.5946 2.50152)
(-0.726338 2.69452 2.41756)
(-0.537314 2.80043 2.58912)
(-0.579698 2.58992 2.41426)
(-0.750324 3.10869 2.42333)
(-0.799958 3.18833 2.82165)
(-0.662397 3.00839 2.62864)
(-0.227198 2.89476 2.54327)
(-0.456081 2.86116 2.66379)
(-1.02777 3.45597 2.73693)
(-0.851775 3.29812 2.67825)
(-0.475232 3.01149 2.71105)
(-0.446452 2.94246 2.18)
(-0.914812 2.34672 2.4082)
(-0.69104 3.20582 2.13148)
(-1.16018 3.04622 2.16679)
(-0.727433 2.89909 2.24359)
(-0.801346 2.68269 2.16092)
(-0.999964 2.85318 2.0645)
(-0.526672 1.78951 2.14199)
(-0.939698 2.22188 1.77047)
(-0.274476 2.39387 1.51693)
(-0.703821 2.28607 1.74945)
(-1.19757 2.39607 1.58815)
(-0.650531 1.88014 2.12442)
(-1.14028 1.20778 2.02646)
(-1.47089 1.34427 0.942978)
(-0.532238 1.47502 1.52792)
(-0.649837 1.45074 1.45861)
(-0.617462 1.49346 1.35748)
(-0.921894 1.21029 1.97421)
(-1.04627 1.3931 1.2222)
(-1.38075 1.34729 0.966688)
(-0.152398 1.65789 0.0445661)
(-0.72624 1.61141 -0.847064)
(-0.958537 1.15742 0.281003)
(-1.07987 0.951724 0.421146)
(-1.18754 0.84374 0.267509)
(-1.57037 1.27649 -0.288399)
(-1.50451 1.38723 0.409858)
(-1.05773 1.65136 -0.470625)
(-0.237352 1.6876 -1.21146)
(-0.275113 2.06606 -1.0839)
(-0.809723 1.19974 -0.222508)
(-0.527915 0.737239 -0.429195)
(-1.01984 0.326859 -0.289311)
(-1.20961 0.439362 -0.321276)
(-1.35879 0.886243 -0.445509)
(-1.39405 1.16095 0.176853)
(-1.37604 1.16719 -0.438934)
(-1.08209 0.97716 -0.479139)
(-0.59434 1.30165 -0.615919)
(-0.6328 0.989527 -0.408912)
(-0.792584 0.0610072 -0.0825302)
(-0.54602 -0.628445 -0.977473)
(-0.909947 -0.499045 -0.743296)
(-1.45654 -0.146102 -0.411143)
(-1.50601 -0.264982 -0.458093)
(-1.6334 0.0724484 -0.331042)
(-1.72954 -0.075482 -0.294946)
(-1.47479 0.333101 -0.0464435)
(-1.3831 0.0317766 0.515533)
(-0.800225 0.0577854 -0.0903471)
(-0.354164 0.475138 -0.374091)
(-0.311251 2.57508 2.58938)
(-0.613054 2.60641 2.48298)
(-0.141267 2.82215 2.43966)
(-0.505011 2.57279 2.48415)
(-0.55518 2.72283 2.34257)
(-0.404523 2.81214 2.8048)
(-0.515086 2.62952 2.48897)
(-0.191247 2.64503 2.12617)
(-0.538737 2.84206 2.5134)
(-0.868186 3.26293 2.82794)
(-0.677542 3.0903 2.71695)
(-0.606099 3.12707 2.33964)
(-0.370263 2.87636 2.25378)
(-0.76155 2.81 2.20796)
(-0.781259 3.40658 2.91366)
(-0.516403 3.3481 2.67226)
(-0.524212 3.03205 2.79143)
(-0.0484812 3.11191 2.26021)
(-0.671031 2.34239 2.72271)
(-0.715186 2.9515 1.52701)
(-1.00867 3.27129 1.85628)
(-0.927499 2.98561 2.20202)
(-0.769652 2.86147 2.34175)
(-0.720748 2.79212 2.20666)
(-0.984858 2.77834 2.03414)
(-0.083193 2.48122 1.87764)
(-1.26751 1.18661 1.69536)
(-0.983485 2.061 1.75264)
(-0.70829 2.18661 1.53637)
(-0.74141 2.33305 1.73556)
(-1.18007 2.3841 1.58432)
(-0.803498 1.93177 1.88922)
(-1.05546 1.35808 2.03112)
(-1.34653 1.1428 1.70008)
(-0.181094 1.78447 0.285196)
(-0.732749 1.39936 1.29279)
(-1.10007 1.49727 0.867224)
(-0.26904 1.39371 1.4358)
(-0.76578 1.21217 2.04375)
(-0.91611 1.38865 1.37308)
(-1.31819 1.39755 0.98435)
(-0.261675 1.50754 0.0350364)
(-0.0308925 2.14667 0.105032)
(-0.298888 1.99214 -1.09319)
(-0.867103 1.08647 0.171527)
(-0.961694 0.894142 0.195289)
(-1.28817 0.871158 -0.318962)
(-1.49031 1.29333 -0.384342)
(-1.38927 1.41235 0.471085)
(-1.04535 1.52311 -0.501628)
(-0.268241 1.66572 -1.15365)
(-0.280961 2.09705 -0.917156)
(-0.638003 1.83326 -0.793873)
(-0.65196 0.982746 -0.297456)
(-0.511384 0.671533 -0.484464)
(-1.00145 0.262673 -0.366126)
(-1.23597 0.411897 -0.43783)
(-1.30758 0.849528 -0.523266)
(-1.3703 1.13171 0.0887694)
(-1.28976 1.14692 -0.504579)
(-0.998136 1.01074 -0.549681)
(-0.531066 1.33243 -0.73892)
(-0.588625 1.00283 -0.592299)
(-0.531756 0.804541 -0.308327)
(-0.353508 0.489202 -0.379498)
(-0.576966 -0.598211 -0.969695)
(-0.90557 -0.498604 -0.739322)
(-1.46181 -0.143197 -0.415844)
(-1.49577 -0.27494 -0.404912)
(-1.59935 0.0643855 -0.393345)
(-1.71763 -0.139319 -0.298076)
(-1.46793 0.36602 -0.048634)
(-1.37136 0.0487733 0.536408)
(-0.800742 0.053225 -0.0939504)
(-0.360744 0.46213 -0.365839)
(-0.224618 1.08687 -0.79861)
(-0.365716 2.54716 2.46312)
(-0.442165 2.59185 2.55282)
(-0.120912 2.59133 2.57188)
(-0.0594439 2.61669 2.60389)
(-0.572346 2.57579 2.46026)
(-0.297193 2.76971 2.62403)
(-0.234797 2.57141 2.45162)
(-0.0404377 2.61926 2.10252)
(-0.494043 2.59594 2.15156)
(-0.304885 2.91652 2.87612)
(-0.376139 2.75949 2.60004)
(0.0742223 2.75408 2.0943)
(-0.282025 2.52762 2.2532)
(-0.485937 2.7999 2.38858)
(-0.42627 3.46229 2.86489)
(-0.616973 3.18442 2.71981)
(-0.515623 3.06736 2.61737)
(-0.353162 2.88761 2.2708)
(-0.284026 2.49627 2.54978)
(-0.534189 2.3757 2.52987)
(-0.469624 3.4217 2.94893)
(-0.437409 3.42093 2.71025)
(-0.484939 3.18358 2.75094)
(-0.256556 3.11225 2.44745)
(-0.664487 2.45235 2.6199)
(0.40339 2.79838 1.70709)
(-0.382172 2.06954 2.15524)
(-0.663809 3.06473 2.10873)
(-0.769476 3.07872 2.17053)
(-0.666965 2.87803 2.39213)
(-0.54311 2.81353 2.20459)
(-0.720455 2.75085 1.87234)
(0.0652178 2.77371 1.55819)
(-0.541481 1.21443 2.32454)
(-1.37002 1.27606 1.50001)
(-0.53667 1.84171 1.95341)
(-0.31538 2.12739 1.58419)
(-0.787108 2.23902 1.82184)
(-1.24789 2.40748 1.49883)
(-0.879573 1.9311 1.74546)
(-0.915628 1.5114 1.91586)
(-1.30219 1.12605 1.75653)
(-0.478361 1.65285 1.3439)
(0.0216294 2.15654 0.0372068)
(-0.539957 1.28885 1.2278)
(-0.569499 1.37051 1.05129)
(-0.205813 1.36995 1.40041)
(-0.560449 1.15491 2.1305)
(-0.88826 1.32792 1.33433)
(-1.22248 1.27555 0.924317)
(-0.331027 1.38455 0.108819)
(-0.399107 2.10174 0.687117)
(0.106817 2.52723 0.0329814)
(-0.803333 1.73692 -0.591625)
(-0.808923 1.04134 -0.153666)
(-0.864302 0.789778 0.0782117)
(-1.3307 0.910346 -0.693786)
(-1.35293 1.36141 -0.49264)
(-1.36392 1.40315 0.396122)
(-1.01672 1.42105 -0.351203)
(-0.284432 1.72757 -0.930188)
(-0.283524 2.0965 -0.737184)
(-0.539334 1.8747 -1.02502)
(-0.623946 1.36005 -0.92905)
(-0.534443 0.814229 -0.273891)
(-0.499185 0.615031 -0.498586)
(-0.97581 0.218067 -0.389726)
(-1.25181 0.406929 -0.516577)
(-1.26299 0.820969 -0.560732)
(-1.33778 1.1008 0.000680635)
(-1.19521 1.13121 -0.669867)
(-0.959562 1.03398 -0.583004)
(-0.474099 1.3509 -0.854517)
(-0.571345 1.01742 -0.698159)
(-0.540769 0.785914 -0.414422)
(-0.502296 1.01052 -0.723115)
(-0.265475 1.08516 -0.803922)
(-0.559087 -0.627794 -0.952347)
(-0.903478 -0.500491 -0.740409)
(-1.49813 -0.162538 -0.417923)
(-1.48419 -0.363022 -0.317088)
(-1.55599 0.0427213 -0.465395)
(-1.69189 -0.115625 -0.307127)
(-1.48283 0.381676 -0.00858109)
(-1.35214 0.0585757 0.532139)
(-0.80055 0.041459 -0.101406)
(-0.364844 0.448873 -0.365228)
(-0.177177 1.06811 -0.832533)
(-0.277312 1.50639 -0.43596)
(-0.246859 2.30495 2.66572)
(-0.470741 2.45982 2.50637)
(-0.174532 2.5032 2.56256)
(-0.142262 2.39405 2.52174)
(-0.124597 2.57609 2.58293)
(-0.0915433 2.65037 2.58726)
(0.100381 2.59154 2.59568)
(0.277818 2.61314 2.22178)
(-0.247814 2.50494 2.10171)
(-0.219637 2.78372 2.54436)
(0.432434 2.96087 2.22476)
(0.147011 2.82503 2.07175)
(-0.0759539 2.45236 2.32295)
(-0.306932 2.51159 2.30064)
(-0.217135 3.13828 2.80989)
(-0.14591 2.69771 2.79521)
(-0.0262744 2.83191 2.28347)
(-0.111956 2.55696 2.17694)
(-0.17077 2.36943 2.24392)
(-0.201298 2.52731 2.37677)
(-0.437438 3.54171 2.98583)
(-0.134118 3.29516 2.78899)
(0.0849795 3.09444 2.7401)
(0.0277348 3.05545 2.45679)
(-0.236473 2.4915 2.5803)
(0.201723 2.64077 1.69082)
(-0.254481 2.64471 1.82557)
(-0.547535 3.40997 2.84885)
(-0.28277 3.52605 2.71863)
(-0.319316 3.26257 2.7147)
(-0.205573 3.20292 2.42862)
(-0.530796 2.57827 2.44831)
(0.0716977 2.58126 2.27593)
(-0.115487 2.49179 2.04692)
(-0.853813 1.10542 2.00047)
(-0.329651 3.07346 1.94864)
(-0.907455 3.03051 2.1609)
(-0.676793 2.8455 2.39518)
(-0.29868 2.88589 2.10835)
(-0.59332 2.68257 2.00803)
(0.15329 2.88774 1.30848)
(-0.303872 1.50602 2.29466)
(-0.768497 1.21028 2.11143)
(-0.541767 1.74006 1.18583)
(-0.563561 1.73162 1.75752)
(-0.639436 2.11147 1.38107)
(-0.727213 2.07537 1.90691)
(-1.33365 2.41671 1.34893)
(-0.791785 1.9637 1.68515)
(-0.70275 1.60272 1.86448)
(-1.3058 1.10607 1.74621)
(-0.718563 1.42519 1.48524)
(-0.700135 2.07919 1.42795)
(0.121536 2.52898 -0.0386109)
(-0.50687 1.22525 1.02152)
(-0.322642 1.14925 1.12901)
(0.0886161 1.3818 1.36695)
(-0.516105 1.10052 2.12064)
(-0.789792 1.30295 1.3717)
(-1.07186 1.21161 0.624461)
(-0.421312 1.28754 0.151996)
(-0.582297 2.06106 0.903284)
(0.288687 2.45551 0.00781153)
(-0.189253 2.25446 0.117397)
(-0.76229 1.30911 -0.786296)
(-0.738925 0.963068 -0.220665)
(-0.794102 0.719417 -0.115014)
(-1.29098 0.930018 -0.832495)
(-1.26398 1.39317 -0.443242)
(-1.34856 1.43455 0.205005)
(-0.918022 1.37784 -0.583092)
(-0.388746 1.72581 -0.740964)
(-0.279843 2.10014 -0.688829)
(-0.51404 1.94758 -0.984764)
(-0.604826 1.36768 -1.04285)
(-0.80724 1.28066 -0.746367)
(-0.555109 1.06908 -0.598864)
(-0.48622 0.551568 -0.557154)
(-0.956877 0.153997 -0.39339)
(-1.24143 0.35008 -0.615778)
(-1.19823 0.787456 -0.592288)
(-1.28424 1.08299 -0.134072)
(-1.17926 1.05191 -0.725704)
(-0.915943 1.06099 -0.65604)
(-0.439077 1.36133 -0.920196)
(-0.549209 1.02513 -0.805691)
(-0.548273 0.773421 -0.48681)
(-0.507054 1.03393 -0.666929)
(-1.06788 1.39355 -0.341226)
(-0.306442 1.48691 -0.41699)
(-0.605807 -0.594233 -0.977518)
(-0.894557 -0.497081 -0.742357)
(-1.48761 -0.13324 -0.474156)
(-1.41488 -0.316024 -0.340647)
(-1.51096 0.0293207 -0.519396)
(-1.6503 -0.0798225 -0.354178)
(-1.48214 0.404008 0.0317234)
(-1.33162 0.0618552 0.513724)
(-0.799045 0.0310101 -0.113124)
(-0.371692 0.435614 -0.367108)
(-0.155208 1.05651 -0.846896)
(-0.199777 1.47912 -0.485155)
(-0.844234 1.60344 -0.349294)
(-0.294586 2.19283 2.57334)
(-0.423428 2.31907 2.67176)
(-0.112916 2.25951 2.68096)
(-0.104443 2.35569 2.59704)
(-0.292867 2.4477 2.5382)
(-0.0582557 2.50458 2.59767)
(-0.0306297 2.48735 2.45004)
(0.115487 2.50055 2.42875)
(-0.313087 2.52934 2.25919)
(0.151329 2.68632 2.65799)
(0.215291 2.53746 2.57468)
(0.342739 2.52962 2.48613)
(0.021584 2.34426 2.44676)
(-0.236399 2.45085 2.27538)
(-0.0839595 3.13896 2.36267)
(-0.0419645 2.83677 2.48987)
(-0.125837 2.59383 2.40462)
(0.204604 2.6368 2.22421)
(0.336471 2.58264 1.97419)
(-0.296032 2.29053 2.11942)
(-0.186115 3.04777 2.82771)
(0.173956 2.97086 2.79038)
(-0.11868 2.83614 2.45803)
(0.557395 2.95685 1.8191)
(0.044044 2.38676 2.28975)
(0.360384 2.26404 1.91092)
(0.251627 2.65125 1.66361)
(-0.347261 3.5299 3.06043)
(-0.0866991 3.36364 2.83937)
(-0.0630466 3.12536 2.8472)
(0.230621 3.09668 2.55193)
(-0.197292 2.75538 2.34617)
(0.0992022 2.74296 1.94601)
(0.363807 1.98999 2.36387)
(-0.351799 2.12015 2.39303)
(-0.130299 3.4942 2.64697)
(-0.369291 3.51305 2.71904)
(-0.277289 3.28108 2.67974)
(-0.161469 3.25112 2.39253)
(-0.246605 2.66904 2.50168)
(-0.154625 2.52976 2.34464)
(0.183872 2.76715 1.67834)
(-0.343969 1.79511 2.61222)
(-0.864296 1.29049 1.0664)
(-0.148242 2.77887 2.03527)
(-0.738975 2.97253 2.09846)
(-0.707069 2.81914 2.34799)
(-0.0551061 3.01753 1.88338)
(-0.231486 2.61916 2.09174)
(-0.127184 3.04849 1.13859)
(0.0267578 1.93154 2.04501)
(-0.677032 1.2375 2.5232)
(-1.13103 1.82395 2.07054)
(-0.406324 2.29257 1.32126)
(-0.0818161 1.35111 1.89885)
(-0.459668 1.86688 1.51847)
(-0.950787 2.08185 1.80821)
(-1.36389 2.29115 1.27311)
(-0.81765 2.02997 1.55467)
(-0.638919 1.65121 1.84884)
(-1.28532 1.15094 1.6784)
(-0.684058 1.40259 1.42359)
(-0.675149 1.88327 1.3139)
(0.186152 2.29214 1.24949)
(-0.190724 2.20966 -0.0624256)
(-0.318799 1.12659 0.937679)
(-0.204887 1.04779 1.04162)
(-0.173997 1.45102 1.19335)
(-0.573504 1.10139 2.00937)
(-0.786325 1.24154 1.44738)
(-0.905617 1.21116 0.561298)
(-0.579261 1.27149 0.199681)
(-0.669256 2.02181 0.964264)
(0.397489 2.39251 -0.0299553)
(-0.0902884 2.26255 0.191949)
(-0.541431 1.57485 -0.688915)
(-0.884281 1.26683 -0.663894)
(-0.689309 0.859589 -0.518702)
(-0.732814 0.681736 -0.416712)
(-1.16423 0.877268 -0.940155)
(-1.14828 1.39522 -0.539399)
(-1.30894 1.42022 -0.171215)
(-0.901781 1.29825 -0.718967)
(-0.494048 1.72566 -0.627496)
(-0.152731 1.99748 -0.957597)
(-0.431171 1.97407 -0.950891)
(-0.708089 1.42125 -0.987667)
(-0.662061 1.32477 -0.892207)
(-0.834639 1.2393 -0.677697)
(-1.14511 1.3736 -0.219682)
(-0.464003 0.48294 -0.597826)
(-0.938072 0.152728 -0.393394)
(-1.2142 0.340515 -0.644608)
(-1.12748 0.689065 -0.612391)
(-1.25445 1.02449 -0.250245)
(-1.08379 1.01926 -0.8523)
(-0.893086 1.07669 -0.721342)
(-0.41823 1.36124 -0.938585)
(-0.493384 1.02004 -0.929754)
(-0.51987 0.757641 -0.549904)
(-0.490201 1.004 -0.740045)
(-1.07514 1.36972 -0.252873)
(-0.840899 1.43605 -0.223327)
(-0.862941 1.60507 -0.362136)
(-0.56961 -0.689414 -0.938691)
(-0.902396 -0.499314 -0.743826)
(-1.46692 -0.113703 -0.483724)
(-1.42516 -0.352232 -0.329773)
(-1.4663 -8.82024e-05 -0.586968)
(-1.64674 -0.116965 -0.276443)
(-1.4684 0.42162 0.0506556)
(-1.31355 0.0637015 0.492273)
(-0.79506 0.0208014 -0.126233)
(-0.378162 0.422702 -0.372702)
(-0.183068 1.04991 -0.831117)
(-0.134291 1.4605 -0.423172)
(-0.840298 1.57685 -0.363382)
(-0.998011 1.695 -0.88894)
(-0.0756557 2.19198 2.48337)
(-0.335567 2.18218 2.55037)
(-0.115654 2.25614 2.57791)
(-0.0236729 2.246 2.47381)
(-0.325075 2.34358 2.57495)
(0.170433 2.31077 2.6998)
(0.129169 2.32147 2.58292)
(-0.036992 2.33242 2.52496)
(-0.0943015 2.52443 2.4688)
(0.134281 2.57084 2.6474)
(0.14561 2.41441 2.51693)
(0.153649 2.36617 2.53956)
(0.0647108 2.37575 2.49234)
(0.0152316 2.22985 2.49608)
(0.259775 2.65618 2.76614)
(0.224301 2.59875 2.6191)
(0.246719 2.63918 2.52627)
(0.199717 2.22171 2.57624)
(0.0842753 2.45991 2.16655)
(0.0285482 2.49962 1.92087)
(-0.125248 3.02297 2.73047)
(0.0717673 2.77516 2.47241)
(0.349483 2.87741 2.1277)
(0.193774 2.60736 2.18718)
(0.118609 2.46446 2.40215)
(0.478087 2.28915 1.95529)
(0.451963 2.26487 1.83826)
(0.0138394 3.20948 2.79676)
(0.109486 3.00498 2.93187)
(0.0413691 2.59597 2.86591)
(0.446861 2.67715 2.45363)
(0.40912 2.46602 2.26664)
(0.209316 2.31119 1.9651)
(0.536597 1.96458 2.196)
(0.324269 1.69352 2.51839)
(-0.023662 3.5834 3.06793)
(-0.239673 3.62786 2.72192)
(-0.223515 3.24705 2.78607)
(-0.284141 3.31711 2.32252)
(-0.000721725 2.99666 2.33777)
(0.325232 2.49843 2.51659)
(0.418098 2.16364 2.10945)
(0.362142 1.74714 2.64074)
(-0.956664 1.7759 1.81545)
(-0.318854 3.35617 2.57244)
(-0.12849 3.55355 2.55932)
(-0.121924 3.30959 2.53761)
(-0.231076 3.2367 2.4609)
(-0.0607213 2.72692 2.59815)
(-0.145842 2.47897 2.28042)
(0.448083 2.91288 1.80472)
(-0.211415 1.903 2.525)
(-0.481135 1.65854 1.09185)
(-1.29292 1.9115 1.68902)
(-0.1712 2.69578 1.6517)
(-0.484876 2.82127 2.12709)
(-0.669633 2.77886 2.30624)
(0.116511 2.88047 1.85116)
(0.00349367 2.62019 1.80542)
(-0.0923298 3.02714 1.32163)
(0.386528 2.18991 1.71902)
(-0.538855 1.38321 2.4293)
(-0.927888 1.70878 2.36649)
(-0.385308 2.55468 1.71334)
(0.239579 2.33581 1.12684)
(-0.0874346 1.42306 1.61058)
(-0.510815 1.74527 1.41435)
(-1.02321 2.03611 1.78825)
(-1.29648 2.18179 1.34351)
(-0.820392 2.10314 1.38766)
(-0.617253 1.6766 1.83543)
(-1.21611 1.18064 1.66884)
(-0.855443 1.37217 1.42455)
(-0.264074 1.80821 1.07879)
(0.204087 2.19672 1.35234)
(0.173294 1.66538 0.760442)
(-0.667188 1.51807 -0.45989)
(-0.245477 1.05782 0.757353)
(-0.0981044 0.891246 0.999984)
(-0.207478 1.43908 0.97219)
(-0.730722 1.15164 1.88545)
(-0.782275 1.13684 1.54244)
(-0.929308 1.08487 0.439309)
(-0.814183 1.34948 0.315533)
(-0.682663 2.03968 0.992382)
(0.404995 2.37222 0.161089)
(0.120442 2.26558 0.168016)
(-0.508221 1.60093 -0.859853)
(-0.66003 1.00695 -0.871465)
(-0.878345 1.21062 -0.720453)
(-0.582922 0.78943 -0.471223)
(-0.701027 0.609671 -0.619958)
(-1.01861 0.819662 -0.847501)
(-1.03914 1.41353 -0.60914)
(-1.20877 1.3228 -0.0495002)
(-0.798821 1.2508 -0.896392)
(-0.516689 1.69403 -0.653004)
(-0.185733 1.93368 -0.85799)
(-0.231529 1.98124 -1.0237)
(-0.624121 1.46607 -1.00376)
(-0.652804 1.33041 -0.961172)
(-0.800723 1.25523 -0.673317)
(-0.590599 1.25668 -0.883386)
(-0.903976 1.42653 -0.290212)
(-0.438545 0.406801 -0.610744)
(-0.92892 0.086756 -0.413263)
(-1.21626 0.29131 -0.628834)
(-1.10713 0.657406 -0.557919)
(-1.22894 0.996002 -0.389414)
(-1.02125 0.943639 -0.968637)
(-0.863815 1.07541 -0.792451)
(-0.372467 1.34028 -0.942816)
(-0.425087 1.01871 -1.04276)
(-0.473721 0.728802 -0.625463)
(-0.501816 1.00812 -0.717742)
(-1.05823 1.37029 -0.261993)
(-0.799754 1.42206 -0.208794)
(-1.00723 1.63349 -1.00272)
(-1.01711 1.67762 -0.846134)
(-0.521645 -0.691892 -0.938561)
(-0.899048 -0.516181 -0.747015)
(-1.45802 -0.129261 -0.497523)
(-1.47095 -0.356782 -0.38763)
(-1.42414 -0.067 -0.669819)
(-1.61124 -0.110441 -0.239868)
(-1.44753 0.436653 0.0641089)
(-1.3006 0.0597912 0.474395)
(-0.794631 0.0128928 -0.13684)
(-0.3844 0.410888 -0.38195)
(-0.113035 1.01613 -0.87646)
(-0.121455 1.42781 -0.453128)
(-0.825761 1.57524 -0.337044)
(-0.946944 1.63042 -0.965996)
(-0.832085 1.68603 -0.955018)
(-0.293259 2.13648 2.38864)
(-0.489084 2.07737 2.50257)
(0.0208571 2.17105 2.57323)
(-0.0463073 2.01596 2.57372)
(-0.045542 2.22787 2.49159)
(0.113294 2.24573 2.6032)
(-0.0723755 2.19848 2.54344)
(-0.0427159 2.25782 2.45475)
(-2.00809e-06 2.40619 2.46951)
(0.21988 2.3896 2.71891)
(0.201962 2.26749 2.62116)
(0.131132 2.23787 2.5913)
(0.283008 2.22878 2.53147)
(-0.00939903 2.34614 2.39816)
(0.1962 2.56472 2.74757)
(0.165579 2.4668 2.53913)
(0.16507 2.36564 2.54915)
(0.18905 2.38453 2.43338)
(0.323725 2.33124 2.37226)
(0.065129 2.43477 2.16003)
(0.357889 2.88431 2.80812)
(0.32261 2.5794 2.66002)
(0.460381 2.60214 2.58085)
(0.159862 2.38466 2.53216)
(0.199952 2.40699 2.31606)
(0.380236 2.14372 2.25166)
(0.391392 2.15805 1.94261)
(0.1205 2.94742 2.70847)
(0.739579 3.09469 2.24473)
(0.651081 2.87012 2.23468)
(0.274025 2.53264 2.18647)
(0.397454 2.61462 2.24238)
(0.489928 2.21096 2.11943)
(0.451525 2.002 2.26478)
(0.64206 1.86638 2.2106)
(0.399958 3.33176 3.03732)
(0.485133 3.01916 2.83961)
(0.625111 2.96334 2.73303)
(0.30905 2.87648 2.40818)
(0.34697 2.63546 2.2952)
(0.0566582 2.37759 2.05171)
(0.631971 2.03188 2.09425)
(0.754782 1.72494 2.2363)
(0.609171 1.80219 0.574645)
(0.186788 3.61313 3.16973)
(-0.0056786 3.72407 2.68563)
(0.189914 3.29419 2.77441)
(0.0506307 3.4459 2.38888)
(0.289424 2.87078 2.62158)
(0.260014 2.42895 2.54187)
(0.578158 2.64672 1.69305)
(0.452978 1.94809 2.54983)
(0.384731 1.90513 1.43264)
(-0.22689 1.44711 0.962234)
(0.418567 3.17679 2.44208)
(-0.0483295 3.53369 2.36417)
(0.0550141 3.3597 2.4143)
(-0.167035 3.21933 2.47421)
(-0.0155707 2.7055 2.65661)
(0.0438582 2.57725 2.30724)
(0.234527 2.82693 2.27672)
(-0.0147397 2.26728 2.01082)
(-0.564135 1.91034 2.0371)
(0.416026 1.87057 1.43274)
(-0.212549 2.45417 1.56286)
(0.254159 2.55298 1.56408)
(-0.409411 2.62231 1.97579)
(-0.609441 2.71706 2.20935)
(0.266471 2.82371 1.55307)
(0.0280988 2.72643 1.42825)
(-0.0309848 2.92523 1.43342)
(0.794041 2.61162 1.25888)
(-0.461611 1.54952 2.28508)
(-0.400344 1.6632 2.44107)
(-0.350079 2.39336 1.88149)
(0.70445 2.10236 1.57553)
(0.0812673 1.68711 0.868775)
(0.193711 0.928177 1.75284)
(-0.373838 1.56696 1.35146)
(-1.16169 1.81726 1.7065)
(-1.34607 2.18151 1.35172)
(-0.799236 2.09585 1.32707)
(-0.518656 1.72732 1.7023)
(-0.955476 1.3493 1.72805)
(-1.06136 1.40859 1.45349)
(-0.193257 1.75395 1.01639)
(0.125968 2.00179 1.40092)
(0.254568 1.66568 0.688156)
(-0.332647 1.0356 -0.838722)
(-0.715708 1.00266 -0.889272)
(-0.144536 0.981182 0.415803)
(-0.0792382 0.857398 0.703531)
(-0.21798 1.32947 0.742961)
(-1.03831 1.24923 1.65357)
(-1.00011 1.16584 1.01847)
(-0.764594 1.04327 0.226988)
(-0.952173 1.41041 0.458149)
(-0.577794 1.92061 1.12872)
(0.444249 2.32599 0.377176)
(0.181308 2.25121 0.161366)
(-0.459939 1.62334 -0.888465)
(-0.573457 1.00797 -0.805421)
(-0.691647 0.999831 -1.1141)
(-0.595086 1.3019 -0.929372)
(-0.488829 0.725391 -0.40873)
(-0.534626 0.533665 -0.460865)
(-0.915301 0.780264 -0.762235)
(-1.07465 1.37165 -0.425673)
(-1.20296 1.26272 -0.226585)
(-0.656343 1.12563 -1.20668)
(-0.44192 1.63505 -0.924316)
(-0.169822 1.86714 -0.772641)
(-0.143781 2.00729 -1.06486)
(-0.538231 1.47013 -1.01902)
(-0.621171 1.35378 -0.882754)
(-0.737932 1.30771 -0.640121)
(-0.553418 1.30461 -0.840544)
(-0.92425 1.61157 -1.09169)
(-0.962038 1.64007 -1.03248)
(-0.406802 0.321902 -0.635735)
(-0.903331 0.0619203 -0.432959)
(-1.17268 0.265875 -0.650184)
(-1.08702 0.613369 -0.540085)
(-1.21675 0.944291 -0.510565)
(-0.949892 0.893541 -1.04076)
(-0.840985 1.07488 -0.812286)
(-0.315273 1.31107 -0.944385)
(-0.381021 1.0117 -1.10829)
(-0.471984 0.727788 -0.629593)
(-0.4826 1.0002 -0.730136)
(-0.968024 1.41648 -0.129912)
(-0.767452 1.40423 -0.149567)
(-0.848225 1.61706 -1.11034)
(-0.760079 1.60915 -0.960922)
(-0.815979 1.68299 -0.971504)
(-0.508025 -0.719559 -0.943477)
(-0.884064 -0.520051 -0.749161)
(-1.45301 -0.127184 -0.501024)
(-1.49176 -0.404062 -0.373632)
(-1.41563 -0.0922352 -0.673244)
(-1.55339 -0.1442 -0.231887)
(-1.43336 0.434455 0.0561721)
(-1.29123 0.0604926 0.462767)
(-0.800029 0.00213815 -0.147499)
(-0.390268 0.400975 -0.386206)
(-0.126297 1.00538 -0.873143)
(-0.11408 1.40386 -0.433923)
(-0.80737 1.56463 -0.346502)
(-0.953388 1.66295 -0.808359)
(-0.868809 1.68806 -0.932684)
(-0.42732 1.38373 -1.0859)
(-0.0624838 2.06861 2.38351)
(-0.247639 2.01441 2.39658)
(-0.0922723 1.98111 2.57862)
(-0.149641 2.04371 2.37201)
(-0.103692 2.15512 2.42197)
(0.249803 2.20592 2.59172)
(0.0952721 2.06522 2.6161)
(-0.103835 2.01204 2.59842)
(0.000105788 2.2755 2.3993)
(0.497367 2.2721 2.59994)
(0.151093 2.20828 2.5951)
(0.0534129 2.15582 2.55896)
(0.204855 2.1684 2.45667)
(0.295248 2.18826 2.48044)
(0.392177 2.46662 2.67984)
(0.291585 2.36109 2.64569)
(0.286702 2.21903 2.58832)
(0.321686 2.22682 2.49014)
(0.334161 2.18735 2.4716)
(0.296051 2.24435 2.41534)
(0.306241 2.59788 2.78104)
(0.358316 2.44495 2.66031)
(0.28097 2.33336 2.55832)
(0.58466 2.41832 2.39116)
(0.247405 2.29733 2.40456)
(0.520652 2.17238 2.34477)
(0.474515 2.02547 2.20459)
(0.5966 2.93946 2.82587)
(0.322139 2.62491 2.72298)
(0.474006 2.53992 2.637)
(0.283157 2.42196 2.57581)
(0.52659 2.24507 2.47251)
(0.619079 2.23787 2.1451)
(0.548762 1.9128 2.45153)
(0.359662 1.86044 2.50776)
(1.10159 3.12915 2.66064)
(0.256624 2.91201 2.73067)
(0.30378 2.77655 2.54517)
(0.467217 2.60881 2.21774)
(0.316015 2.48642 2.36246)
(0.565812 2.4666 2.09378)
(0.674625 2.0192 2.1982)
(0.974841 1.93083 2.23319)
(0.812719 1.78145 2.04907)
(0.982418 2.92827 3.54177)
(1.0039 3.21262 2.79968)
(0.34985 2.72445 3.12514)
(0.551132 3.08141 2.37183)
(0.450182 2.58376 2.56048)
(0.340553 2.53685 2.02783)
(0.814425 2.16619 2.03779)
(0.799155 1.81997 2.34209)
(1.043 1.89343 1.41226)
(0.488518 1.92181 -0.487397)
(0.618239 3.66265 2.87728)
(0.207803 3.82908 2.60851)
(0.311978 3.53542 2.7472)
(0.0974184 3.42198 2.47043)
(0.302979 3.0184 2.5033)
(0.401979 3.01677 1.98616)
(0.398023 2.3399 2.4859)
(0.772205 2.24577 1.8387)
(0.325838 1.51028 2.2595)
(1.21361 1.46519 -0.656543)
(1.20579 1.73604 0.723138)
(0.565922 3.16105 2.07254)
(0.372669 3.33158 2.31381)
(0.229238 3.47692 2.29162)
(-0.0984016 3.21275 2.46632)
(0.240688 2.7795 2.67656)
(0.0492061 2.66765 2.50395)
(0.0566555 2.7615 2.35112)
(0.623556 2.60309 1.80587)
(-0.193522 2.05203 2.52048)
(-0.291933 2.16026 2.06902)
(1.8192 1.66274 0.708968)
(0.556018 2.07169 1.88582)
(0.0901049 2.3176 1.5296)
(-0.0848638 2.48943 1.69422)
(-0.429365 2.5549 2.1473)
(0.706117 2.67993 1.34649)
(0.221244 2.73156 1.31691)
(0.125843 2.9333 1.35969)
(0.3347 2.80182 1.45711)
(-0.0490184 1.7777 2.16572)
(-0.159221 1.50534 2.23706)
(0.00238459 1.94891 2.06735)
(0.995468 2.10592 1.30105)
(0.498892 0.924194 -0.535319)
(-0.258229 1.04979 -0.894594)
(0.256663 0.833527 1.5646)
(-0.421491 1.35468 1.2017)
(-0.82321 1.7887 1.52758)
(-1.43857 2.17478 1.36177)
(-0.611573 2.09509 1.36212)
(-0.491466 1.74149 1.68448)