/*--------------------------------*- C++ -*----------------------------------*\
  =========                 |
  \\      /  F ield         | OpenFOAM: The Open Source CFD Toolbox
   \\    /   O peration     | Website:  https://openfoam.org
    \\  /    A nd           | Version:  7
     \\/     M anipulation  |
\*---------------------------------------------------------------------------*/
FoamFile
{
    version     2.0;
    format      ascii;
    class       volVectorField;
    location    "10";
    object      U_0;
}
// * * * * * * * * * * * * * * * * * * * * * * * * * * * * * * * * * * * * * //

dimensions      [0 1 -1 0 0 0 0];

internalField   nonuniform List<vector> 
18720
(
(-0.599228 -0.520963 -1.04521)
(-1.03871 1.24109 0.0303221)
(-0.64223 -0.518429 -1.01394)
(-0.586937 -0.51692 -1.05068)
(-0.628239 -0.520308 -1.17254)
(-1.31414 1.29149 1.41823)
(-1.02605 1.30906 0.14385)
(-0.964004 1.20478 0.0110186)
(-1.24978 0.645347 0.0678092)
(-0.634257 -0.508669 -1.17908)
(-0.554785 -0.530651 -1.07766)
(-0.677028 -0.520159 -1.07221)
(-1.49278 -0.189224 -0.638319)
(-1.31554 1.98036 1.95169)
(-1.3117 1.26107 1.56122)
(-1.27565 1.29495 1.27103)
(-1.29524 1.21284 1.431)
(-1.3235 0.647598 0.102953)
(-0.907223 1.15932 -0.0401254)
(-1.1962 0.569016 -0.0275205)
(-1.51294 0.541197 0.190814)
(-1.51911 -0.183524 -0.686306)
(-0.524057 -0.556259 -1.09652)
(-0.726531 -0.541964 -0.9836)
(-1.47497 -0.158909 -0.513536)
(-1.69042 -0.255767 -0.547899)
(-1.3428 2.57389 2.1045)
(-1.18841 2.07107 2.03276)
(-1.05446 2.01837 1.88315)
(-1.55964 1.49213 1.89314)
(-1.33718 1.31434 1.39363)
(-1.1374 1.31797 1.169)
(-1.18431 1.08048 1.36648)
(-1.4554 1.02464 0.552194)
(-1.55236 0.55984 0.186577)
(-0.839854 1.11903 -0.115954)
(-1.15749 0.579992 -0.0581264)
(-1.45872 0.526152 0.0894254)
(-1.52962 0.943499 -0.0876434)
(-1.70773 -0.284511 -0.561662)
(-0.517991 -0.566855 -1.07686)
(-0.76424 -0.550058 -0.921785)
(-1.46842 -0.176658 -0.438023)
(-1.66768 -0.24287 -0.524934)
(-1.69649 0.0498097 -0.184419)
(-1.06292 3.17636 2.14253)
(-1.4551 2.55189 2.17294)
(-1.28109 2.5352 2.03236)
(-1.17279 2.14755 1.93311)
(-1.42366 1.57811 2.09011)
(-0.903165 1.88583 1.87364)
(-1.34903 1.49088 1.84758)
(-1.30065 1.46802 1.68573)
(-1.48017 1.04435 0.481483)
(-1.0621 1.30528 1.04132)
(-1.16882 1.2205 1.1247)
(-1.44882 1.01962 0.588978)
(-1.74749 1.21478 0.0600677)
(-1.55421 0.945579 -0.00293822)
(-0.736167 1.04326 -0.223319)
(-1.16561 0.544281 -0.0888501)
(-1.39582 0.528513 0.0479304)
(-1.50587 0.943393 -0.146394)
(-1.64732 1.15133 0.378529)
(-1.70189 0.0360618 -0.186729)
(-0.519041 -0.56727 -1.07041)
(-0.830909 -0.542386 -0.851606)
(-1.47421 -0.184478 -0.403453)
(-1.64012 -0.221195 -0.505883)
(-1.69565 0.0573688 -0.201785)
(-1.85255 -0.15193 -0.253376)
(-1.23242 3.25651 2.58361)
(-0.992998 3.2004 2.28616)
(-1.09586 3.15192 2.06102)
(-0.931194 3.0366 2.18819)
(-1.54969 2.05829 2.05177)
(-1.2442 2.47211 1.93097)
(-0.867482 2.31292 1.7741)
(-1.09863 2.27753 1.93044)
(-1.30574 1.43507 1.71755)
(-0.753351 1.833 1.78314)
(-1.28925 1.50684 1.76043)
(-1.18169 1.52713 1.60643)
(-1.09791 1.20217 2.01327)
(-1.76242 1.18605 0.110463)
(-1.08154 1.29785 0.838947)
(-1.41637 1.18396 0.800948)
(-1.20639 0.816185 1.09151)
(-1.74151 1.22569 -0.00838312)
(-1.58488 1.38482 0.41147)
(-1.7137 1.12422 0.366018)
(-0.653144 0.940064 -0.316886)
(-1.1596 0.443489 -0.196245)
(-1.35979 0.496002 -0.164537)
(-1.48311 0.923841 -0.222644)
(-1.60375 1.14106 0.285523)
(-1.57911 1.20024 -0.0484221)
(-1.87696 -0.161721 -0.239677)
(-0.545264 -0.598059 -1.02835)
(-0.8637 -0.530834 -0.807529)
(-1.46994 -0.17442 -0.405669)
(-1.61102 -0.228316 -0.476613)
(-1.68416 0.0581022 -0.221792)
(-1.81603 -0.140785 -0.254993)
(-1.58736 0.290793 0.135933)
(-0.427731 3.01144 2.56029)
(-0.939097 3.24245 2.62017)
(-1.08826 3.30002 2.55928)
(-0.195313 3.32699 2.50275)
(-1.27829 2.75913 2.36036)
(-0.792436 3.32025 1.91974)
(-0.431812 3.04002 2.38386)
(-1.09588 2.71601 2.19577)
(-1.05579 2.31221 1.95175)
(-1.03786 2.37338 1.97158)
(-0.709145 2.34418 1.6646)
(-1.03998 2.30962 1.8105)
(-1.35389 2.22383 1.5572)
(-1.41214 1.15306 1.86006)
(-1.00709 1.80247 1.50719)
(-1.40489 1.52867 1.4414)
(-1.12964 1.44041 1.53326)
(-1.26609 1.16703 1.85563)
(-1.29707 1.34133 0.962168)
(-1.61214 1.38455 0.448097)
(-1.08412 1.24769 0.631263)
(-1.31583 1.00292 0.692382)
(-1.26141 0.93809 0.492469)
(-1.68846 1.21788 -0.0899518)
(-1.50739 1.38844 0.548339)
(-1.18796 1.8617 -0.0311936)
(-1.5833 1.17635 -0.0506254)
(-0.587267 0.877464 -0.364274)
(-1.04489 0.410449 -0.23562)
(-1.29924 0.483392 -0.263219)
(-1.4451 0.922882 -0.302104)
(-1.49566 1.16567 0.324105)
(-1.53341 1.22494 -0.137216)
(-1.35354 0.877249 -0.210222)
(-1.6553 0.259452 0.230754)
(-0.57602 -0.609079 -0.99549)
(-0.888948 -0.510864 -0.770639)
(-1.46736 -0.166958 -0.409747)
(-1.57335 -0.214748 -0.490834)
(-1.6732 0.0539879 -0.254857)
(-1.78163 -0.125896 -0.273588)
(-1.52752 0.310495 0.0543518)
(-1.37788 0.000605723 0.478145)
(-0.668846 2.69661 2.41982)
(-0.765911 2.90059 2.44113)
(-0.396683 3.14026 2.74443)
(-0.65076 3.06312 2.4476)
(-0.69457 3.16169 2.46326)
(-0.662715 3.58759 2.42209)
(-0.729225 3.32673 2.61766)
(-0.756828 2.95256 2.6595)
(-1.1019 2.60512 2.17805)
(-0.747506 3.18819 2.11229)
(-0.683039 3.09181 2.34214)
(-0.969341 2.79182 2.23967)
(-0.80726 2.39412 2.36018)
(-1.28873 2.16137 1.69313)
(-1.06848 2.31415 1.82589)
(-0.405048 2.26724 1.75832)
(-0.933378 2.30517 1.7199)
(-1.35287 2.38919 1.42893)
(-0.459493 1.82638 2.26896)
(-1.41277 1.2113 0.932609)
(-0.874063 1.63739 1.46804)
(-1.33114 1.55003 1.08028)
(-0.921182 1.46123 1.46379)
(-0.993768 1.21653 1.9364)
(-1.20193 1.35385 1.11504)
(-1.2773 1.54126 0.653814)
(-1.2625 1.92852 0.0257322)
(-0.94155 1.22609 0.502788)
(-0.832607 1.02909 0.832888)
(-1.24359 0.844536 0.381224)
(-1.64551 1.25178 -0.182526)
(-1.43122 1.44136 0.550997)
(-1.14874 1.73676 -0.143228)
(-0.515761 1.63315 -0.96681)
(-1.53619 0.804354 -0.0447401)
(-0.557207 0.806306 -0.398095)
(-1.03157 0.367929 -0.252734)
(-1.23962 0.446723 -0.307382)
(-1.40944 0.900722 -0.354792)
(-1.46405 1.12921 0.262362)
(-1.46994 1.19334 -0.286287)
(-1.22166 0.909529 -0.331361)
(-0.713566 1.2481 -0.383784)
(-1.37354 -0.012613 0.466607)
(-0.582654 -0.608472 -0.983226)
(-0.91082 -0.502487 -0.749859)
(-1.46707 -0.170456 -0.399662)
(-1.53955 -0.255098 -0.446981)
(-1.65299 0.0604011 -0.293688)
(-1.74916 -0.161473 -0.27246)
(-1.4933 0.317196 0.00126574)
(-1.37518 0.0217453 0.48921)
(-0.798325 0.0601426 -0.0806902)
(-0.383162 2.5903 2.50171)
(-0.730831 2.69523 2.41684)
(-0.533393 2.7984 2.57777)
(-0.565664 2.59553 2.41147)
(-0.740746 3.11854 2.42475)
(-0.771327 3.18982 2.81614)
(-0.651592 3.0165 2.61511)
(-0.216749 2.88994 2.55292)
(-0.410962 2.85851 2.65829)
(-0.997794 3.46885 2.71339)
(-0.858217 3.29728 2.68337)
(-0.467426 3.01155 2.70507)
(-0.485043 2.92101 2.18989)
(-0.916115 2.35679 2.40599)
(-0.680751 3.20538 2.12678)
(-1.11875 3.04857 2.18069)
(-0.728573 2.89632 2.23615)
(-0.798223 2.66657 2.17109)
(-0.971496 2.86927 2.04358)
(-0.535298 1.77593 2.12408)
(-0.918338 2.22927 1.77238)
(-0.239736 2.39548 1.52193)
(-0.698716 2.28561 1.74875)
(-1.19211 2.39557 1.58678)
(-0.617996 1.86608 2.15146)
(-1.1551 1.20037 2.00993)
(-1.47679 1.34922 0.970005)
(-0.526938 1.49055 1.52442)
(-0.640993 1.45791 1.46503)
(-0.628715 1.49598 1.35949)
(-0.925358 1.21204 1.97116)
(-1.06345 1.39994 1.19509)
(-1.37432 1.36591 0.933789)
(-0.124902 1.68184 0.0467882)
(-0.739553 1.61002 -0.830592)
(-0.954906 1.16857 0.284043)
(-1.07077 0.958221 0.432829)
(-1.18349 0.852329 0.276033)
(-1.56864 1.28869 -0.291993)
(-1.49049 1.40311 0.426418)
(-1.04864 1.67455 -0.442636)
(-0.229851 1.69105 -1.2099)
(-0.260837 2.05825 -1.0934)
(-0.83146 1.18301 -0.171732)
(-0.527446 0.743948 -0.426)
(-1.01829 0.331333 -0.285238)
(-1.20852 0.443643 -0.314105)
(-1.35824 0.880316 -0.434797)
(-1.39133 1.16065 0.181546)
(-1.38586 1.16153 -0.417625)
(-1.09813 0.969099 -0.452589)
(-0.611238 1.28863 -0.572225)
(-0.633047 0.988247 -0.372439)
(-0.79306 0.0627588 -0.0759886)
(-0.546155 -0.631349 -0.978154)
(-0.909895 -0.50034 -0.741192)
(-1.45803 -0.143737 -0.404468)
(-1.50402 -0.259166 -0.444575)
(-1.62671 0.0665544 -0.337992)
(-1.73017 -0.0721692 -0.288602)
(-1.47474 0.338146 -0.0310628)
(-1.37884 0.0314961 0.512571)
(-0.801524 0.0593756 -0.0841895)
(-0.349397 0.480269 -0.370925)
(-0.311973 2.57409 2.59157)
(-0.621516 2.60557 2.48057)
(-0.129604 2.81867 2.43363)
(-0.510718 2.57338 2.48254)
(-0.541686 2.73239 2.33794)
(-0.396144 2.81119 2.79609)
(-0.505746 2.62989 2.48014)
(-0.18304 2.64765 2.12624)
(-0.53436 2.84357 2.51304)
(-0.868077 3.25943 2.825)
(-0.664268 3.09073 2.71469)
(-0.579656 3.12715 2.3403)
(-0.365415 2.87425 2.26155)
(-0.755402 2.80952 2.2135)
(-0.772524 3.40957 2.90515)
(-0.495765 3.34658 2.67546)
(-0.499442 3.03093 2.79015)
(-0.0472153 3.10576 2.25206)
(-0.652426 2.34429 2.71568)
(-0.665983 2.96427 1.47498)
(-0.978858 3.2739 1.86102)
(-0.919143 2.98529 2.20223)
(-0.752117 2.86172 2.33342)
(-0.716815 2.7901 2.20396)
(-0.985475 2.79535 2.04127)
(-0.0895959 2.4429 1.91438)
(-1.29451 1.18325 1.65381)
(-0.969264 2.0735 1.74579)
(-0.688989 2.19024 1.53385)
(-0.731095 2.33267 1.73364)
(-1.16952 2.38258 1.5883)
(-0.780344 1.92287 1.91228)
(-1.06793 1.34685 2.03202)
(-1.33803 1.1621 1.68407)
(-0.164212 1.80743 0.303306)
(-0.728899 1.41455 1.28787)
(-1.09286 1.50441 0.879366)
(-0.269103 1.39635 1.43577)
(-0.765963 1.21363 2.04182)
(-0.923182 1.39689 1.35707)
(-1.31253 1.41496 0.959116)
(-0.231757 1.53035 0.0193131)
(0.00322472 2.15632 0.0660186)
(-0.295545 1.9757 -1.08829)
(-0.865135 1.09684 0.177222)
(-0.961669 0.903235 0.196062)
(-1.28385 0.878944 -0.302836)
(-1.49005 1.30535 -0.390323)
(-1.37705 1.42534 0.481066)
(-1.03178 1.54338 -0.501067)
(-0.256602 1.66541 -1.17245)
(-0.264407 2.09193 -0.956466)
(-0.648104 1.8212 -0.753762)
(-0.648392 0.983656 -0.283756)
(-0.510604 0.678074 -0.480715)
(-0.99975 0.267657 -0.360747)
(-1.23422 0.416398 -0.430678)
(-1.30748 0.843975 -0.514134)
(-1.36614 1.13265 0.0935566)
(-1.29815 1.14162 -0.488119)
(-1.00572 1.00495 -0.532811)
(-0.542127 1.32126 -0.701229)
(-0.587744 1.00147 -0.561731)
(-0.526211 0.808596 -0.289898)
(-0.348807 0.494516 -0.376459)
(-0.582669 -0.599727 -0.968621)
(-0.906037 -0.500155 -0.739049)
(-1.46642 -0.143781 -0.407651)
(-1.49569 -0.277067 -0.375795)
(-1.59152 0.0576238 -0.402567)
(-1.71801 -0.14303 -0.287527)
(-1.46841 0.365964 -0.0335202)
(-1.36875 0.0500707 0.537892)
(-0.802377 0.0551287 -0.0872757)
(-0.355941 0.467306 -0.361771)
(-0.226025 1.09027 -0.795323)
(-0.365212 2.54588 2.46197)
(-0.435001 2.5905 2.55528)
(-0.111755 2.59152 2.57195)
(-0.0444495 2.61908 2.60163)
(-0.556926 2.57547 2.4555)
(-0.280405 2.77229 2.62037)
(-0.244034 2.56359 2.45526)
(-0.0426991 2.61469 2.10022)
(-0.505193 2.59425 2.15602)
(-0.30028 2.90506 2.88046)
(-0.374078 2.75973 2.58891)
(0.0773867 2.75101 2.09047)
(-0.289815 2.52152 2.26514)
(-0.481658 2.79627 2.39682)
(-0.429396 3.45641 2.85872)
(-0.609937 3.18446 2.71775)
(-0.525633 3.07257 2.60575)
(-0.353059 2.88209 2.27211)
(-0.273428 2.49739 2.54385)
(-0.511184 2.38154 2.50969)
(-0.463544 3.42428 2.94648)
(-0.427183 3.41334 2.70805)
(-0.476468 3.17675 2.75697)
(-0.239082 3.10349 2.44219)
(-0.660958 2.44279 2.63481)
(0.39611 2.80823 1.68147)
(-0.398706 2.03105 2.17471)
(-0.682142 3.07422 2.09822)
(-0.757253 3.07159 2.17425)
(-0.650076 2.87771 2.38865)
(-0.559242 2.80751 2.20812)
(-0.712889 2.76189 1.86866)
(0.0684003 2.74672 1.60193)
(-0.557449 1.19484 2.31459)
(-1.35998 1.29386 1.48759)
(-0.533839 1.85064 1.95122)
(-0.299872 2.12701 1.58625)
(-0.776448 2.25029 1.80734)
(-1.22919 2.40338 1.51261)
(-0.865661 1.92551 1.75929)
(-0.933613 1.4981 1.92201)
(-1.2951 1.13788 1.74659)
(-0.45298 1.67595 1.33106)
(0.0362689 2.16815 0.0248739)
(-0.539055 1.30163 1.22474)
(-0.580572 1.38641 1.03873)
(-0.204818 1.37038 1.3972)
(-0.564073 1.1585 2.12854)
(-0.898475 1.33722 1.31635)
(-1.22254 1.29329 0.911284)
(-0.301816 1.40537 0.0915495)
(-0.347262 2.11759 0.623911)
(0.108422 2.52584 0.035065)
(-0.807474 1.72286 -0.569926)
(-0.807703 1.05296 -0.149523)
(-0.864235 0.798742 0.0795974)
(-1.32837 0.91826 -0.682379)
(-1.35333 1.37265 -0.505891)
(-1.34753 1.41491 0.413854)
(-1.00369 1.43877 -0.35759)
(-0.264274 1.7259 -0.964495)
(-0.263797 2.09582 -0.770545)
(-0.533878 1.86508 -1.01134)
(-0.62554 1.35873 -0.907812)
(-0.530016 0.819543 -0.255865)
(-0.498165 0.620871 -0.495008)
(-0.974486 0.221865 -0.383965)
(-1.25013 0.410895 -0.510415)
(-1.26373 0.816296 -0.552972)
(-1.33447 1.09962 0.0087116)
(-1.20124 1.12963 -0.652222)
(-0.964414 1.02948 -0.566492)
(-0.481894 1.34049 -0.822999)
(-0.568496 1.01554 -0.672421)
(-0.533956 0.790617 -0.3923)
(-0.496822 1.01734 -0.707663)
(-0.259526 1.08995 -0.799916)
(-0.563364 -0.630983 -0.950846)
(-0.910024 -0.504624 -0.740073)
(-1.4966 -0.15532 -0.421928)
(-1.47826 -0.357883 -0.301052)
(-1.54786 0.0351915 -0.475562)
(-1.69159 -0.114125 -0.301964)
(-1.4726 0.38733 -0.0090232)
(-1.3524 0.0595642 0.539006)
(-0.802287 0.0439991 -0.0939414)
(-0.360019 0.454158 -0.360056)
(-0.191706 1.07816 -0.818162)
(-0.266406 1.51996 -0.424525)
(-0.247185 2.30842 2.66431)
(-0.46903 2.45928 2.50734)
(-0.170786 2.50448 2.55914)
(-0.140282 2.39238 2.52613)
(-0.1283 2.57557 2.57795)
(-0.084676 2.64542 2.58555)
(0.102021 2.59492 2.5963)
(0.257303 2.60947 2.21835)
(-0.244034 2.50736 2.10163)
(-0.210689 2.77506 2.55192)
(0.449227 2.95682 2.21778)
(0.160348 2.8271 2.06409)
(-0.0847887 2.44596 2.32957)
(-0.298971 2.51198 2.30338)
(-0.206272 3.13509 2.81543)
(-0.151714 2.69379 2.78513)
(0.00121771 2.83706 2.2665)
(-0.12597 2.54417 2.19342)
(-0.166427 2.36671 2.23853)
(-0.180921 2.53576 2.35702)
(-0.418361 3.54165 2.98098)
(-0.136575 3.29287 2.78708)
(0.0867779 3.09651 2.73373)
(0.0194804 3.04887 2.44829)
(-0.229343 2.49466 2.57932)
(0.221368 2.63538 1.69145)
(-0.268424 2.63798 1.83784)
(-0.540339 3.40823 2.86236)
(-0.257797 3.5238 2.71677)
(-0.306215 3.2603 2.71798)
(-0.193343 3.19211 2.43245)
(-0.530946 2.57269 2.45342)
(0.119521 2.59987 2.24463)
(-0.115522 2.47398 2.0656)
(-0.870847 1.09935 1.95963)
(-0.342434 3.08177 1.95424)
(-0.881798 3.0342 2.16197)
(-0.654741 2.84669 2.39547)
(-0.301055 2.87962 2.11741)
(-0.588991 2.69298 1.99094)
(0.18775 2.87641 1.32313)
(-0.320453 1.46785 2.31043)
(-0.767958 1.21469 2.06692)
(-0.535399 1.7624 1.17361)
(-0.561938 1.74223 1.75799)
(-0.616369 2.11889 1.3811)
(-0.707593 2.08204 1.90176)
(-1.31318 2.41793 1.37125)
(-0.778089 1.95609 1.6983)
(-0.709394 1.59344 1.86926)
(-1.29784 1.11266 1.74033)
(-0.70307 1.43953 1.48043)
(-0.668111 2.10439 1.42051)
(0.137178 2.52119 -0.0435336)
(-0.509411 1.24073 1.01277)
(-0.322916 1.16423 1.12333)
(0.0973989 1.3824 1.36264)
(-0.509649 1.10249 2.12846)
(-0.797614 1.31187 1.34932)
(-1.07386 1.22205 0.625789)
(-0.397814 1.30344 0.139857)
(-0.555558 2.07534 0.884695)
(0.286031 2.46296 0.00798539)
(-0.182131 2.25058 0.106308)
(-0.762399 1.30586 -0.772922)
(-0.737624 0.973027 -0.217058)
(-0.793274 0.727364 -0.111992)
(-1.28964 0.938586 -0.822723)
(-1.26229 1.40505 -0.455311)
(-1.33357 1.44495 0.229833)
(-0.905167 1.39433 -0.583236)
(-0.364204 1.72867 -0.763028)
(-0.260625 2.0999 -0.706148)
(-0.509597 1.93837 -0.989128)
(-0.590301 1.36451 -1.03705)
(-0.81368 1.28024 -0.725734)
(-0.543049 1.07381 -0.590544)
(-0.485355 0.557833 -0.551926)
(-0.955455 0.159653 -0.387702)
(-1.24008 0.355666 -0.608921)
(-1.20128 0.78142 -0.583315)
(-1.28042 1.08269 -0.121836)
(-1.18511 1.0484 -0.709222)
(-0.921834 1.05474 -0.632765)
(-0.443352 1.3527 -0.897402)
(-0.548128 1.02383 -0.780527)
(-0.542605 0.777045 -0.468762)
(-0.4969 1.03736 -0.655935)
(-1.0665 1.39607 -0.332431)
(-0.293026 1.49195 -0.407118)
(-0.599581 -0.608243 -0.97337)
(-0.898052 -0.499424 -0.742391)
(-1.48611 -0.128814 -0.469312)
(-1.41459 -0.313051 -0.330948)
(-1.50161 0.0214584 -0.533265)
(-1.64777 -0.0869226 -0.33711)
(-1.47602 0.402565 0.0312909)
(-1.33282 0.0639232 0.525314)
(-0.800742 0.033777 -0.104997)
(-0.366669 0.440752 -0.361317)
(-0.15189 1.06117 -0.842842)
(-0.226036 1.48629 -0.487801)
(-0.848428 1.61029 -0.347305)
(-0.292821 2.19301 2.5717)
(-0.421253 2.32026 2.67091)
(-0.108657 2.25988 2.67947)
(-0.103687 2.35739 2.59556)
(-0.287115 2.45376 2.53764)
(-0.0581224 2.50134 2.59392)
(-0.0275099 2.4873 2.44928)
(0.120521 2.5067 2.42525)
(-0.310056 2.52433 2.26175)
(0.153917 2.68269 2.65289)
(0.22553 2.53799 2.5743)
(0.352845 2.52588 2.47978)
(0.0251635 2.34523 2.4458)
(-0.229314 2.4513 2.2763)
(-0.0726327 3.13181 2.35451)
(-0.026013 2.84065 2.48258)
(-0.120991 2.59374 2.40233)
(0.206404 2.63195 2.23238)
(0.346962 2.58594 1.95461)
(-0.286864 2.29253 2.10529)
(-0.176261 3.05062 2.82767)
(0.188222 2.96334 2.78905)
(-0.102299 2.84447 2.44139)
(0.553885 2.9548 1.81221)
(0.0385405 2.38423 2.29014)
(0.377881 2.26261 1.90641)
(0.263135 2.63694 1.68599)
(-0.331356 3.53368 3.06043)
(-0.0632236 3.35452 2.84351)
(-0.0398735 3.12413 2.84345)
(0.235992 3.0974 2.54919)
(-0.191227 2.72774 2.36967)
(0.10867 2.75161 1.90984)
(0.365194 1.97271 2.3823)
(-0.359626 2.09829 2.39346)
(-0.112499 3.49574 2.65931)
(-0.354154 3.51262 2.72296)
(-0.270873 3.27782 2.69017)
(-0.140454 3.24636 2.3953)
(-0.261383 2.65788 2.49793)
(-0.129983 2.54116 2.33825)
(0.156532 2.73634 1.71479)
(-0.357115 1.78538 2.59341)
(-0.862529 1.29857 0.99209)
(-0.141099 2.78814 2.05174)
(-0.739154 2.97759 2.0977)
(-0.684417 2.81856 2.35392)
(-0.0623439 3.0131 1.89238)
(-0.259851 2.62995 2.08866)
(-0.0937062 3.04206 1.13556)
(0.0163733 1.90599 2.06007)
(-0.684993 1.23307 2.51788)
(-1.13677 1.84105 2.04265)
(-0.380351 2.30928 1.31904)
(-0.0813267 1.3597 1.90309)
(-0.450138 1.87698 1.5173)
(-0.924242 2.08535 1.81231)
(-1.35082 2.29984 1.28047)
(-0.801882 2.0181 1.57648)
(-0.644333 1.64292 1.85412)
(-1.28168 1.15163 1.67345)
(-0.672402 1.41048 1.42047)
(-0.684737 1.90075 1.32649)
(0.203823 2.29299 1.2485)
(-0.17393 2.20192 -0.064421)
(-0.321993 1.14067 0.930308)
(-0.201388 1.06113 1.03752)
(-0.155801 1.45295 1.18769)
(-0.564232 1.1011 2.02003)
(-0.794187 1.25547 1.41633)
(-0.900945 1.22487 0.557506)
(-0.542106 1.28498 0.184453)
(-0.646948 2.03693 0.950772)
(0.407236 2.39704 -0.0453344)
(-0.104552 2.26029 0.193026)
(-0.536648 1.57458 -0.661003)
(-0.872891 1.27139 -0.653764)
(-0.689469 0.873241 -0.506506)
(-0.73377 0.69025 -0.407685)
(-1.16404 0.887201 -0.931377)
(-1.14353 1.40629 -0.549366)
(-1.29902 1.43353 -0.142311)
(-0.892283 1.31347 -0.716411)
(-0.469438 1.73112 -0.641432)
(-0.150778 2.01101 -0.941072)
(-0.424705 1.97193 -0.954945)
(-0.702524 1.41642 -0.985551)
(-0.660762 1.32505 -0.873043)
(-0.831552 1.24046 -0.674429)
(-1.13324 1.38168 -0.215978)
(-0.464108 0.488229 -0.59443)
(-0.937644 0.156402 -0.387114)
(-1.21523 0.343079 -0.637955)
(-1.13149 0.687696 -0.607467)
(-1.25079 1.02305 -0.243137)
(-1.08911 1.01774 -0.834273)
(-0.896815 1.07311 -0.698018)
(-0.419699 1.35354 -0.924135)
(-0.496553 1.01881 -0.904017)
(-0.515383 0.760927 -0.533181)
(-0.477877 1.00715 -0.733289)
(-1.06509 1.3761 -0.254645)
(-0.843554 1.43864 -0.222986)
(-0.889232 1.60756 -0.371278)
(-0.570405 -0.694333 -0.936715)
(-0.904117 -0.501681 -0.743603)
(-1.45903 -0.112912 -0.483118)
(-1.43266 -0.351906 -0.324475)
(-1.45077 -0.0140606 -0.613305)
(-1.64327 -0.119366 -0.255594)
(-1.46288 0.420963 0.049148)
(-1.31448 0.0668725 0.505904)
(-0.798039 0.0236934 -0.116392)
(-0.373387 0.427965 -0.36625)
(-0.175105 1.05348 -0.828348)
(-0.13394 1.46362 -0.429119)
(-0.837529 1.58267 -0.360317)
(-1.00771 1.70789 -0.839502)
(-0.0782249 2.18858 2.48285)
(-0.326734 2.18364 2.54947)
(-0.118216 2.25499 2.57662)
(-0.0175474 2.2476 2.47171)
(-0.325316 2.34462 2.57127)
(0.172617 2.30741 2.69818)
(0.128838 2.32434 2.5807)
(-0.0321047 2.33579 2.5214)
(-0.0931716 2.52234 2.46806)
(0.135912 2.56884 2.64231)
(0.154425 2.41198 2.51701)
(0.158734 2.3699 2.53753)
(0.0649255 2.37289 2.4932)
(0.0179226 2.23014 2.49335)
(0.261255 2.65085 2.75668)
(0.229827 2.59811 2.61776)
(0.248368 2.63752 2.5239)
(0.198045 2.22406 2.5722)
(0.0890008 2.46088 2.16079)
(0.0284845 2.49479 1.91951)
(-0.126835 3.02376 2.72147)
(0.0774187 2.76557 2.47868)
(0.334088 2.86653 2.13299)
(0.201702 2.61328 2.18834)
(0.121527 2.45932 2.40013)
(0.48226 2.28642 1.95592)
(0.457483 2.26397 1.84351)
(0.0131763 3.19744 2.79273)
(0.108218 3.00229 2.93826)
(0.0254385 2.59438 2.85528)
(0.469632 2.68091 2.43742)
(0.39991 2.45497 2.27266)
(0.234424 2.30489 1.96205)
(0.539932 1.95659 2.20772)
(0.333946 1.68374 2.50093)
(-0.0400809 3.5843 3.05776)
(-0.223046 3.61916 2.72634)
(-0.206217 3.24894 2.7876)
(-0.247726 3.30121 2.33813)
(-0.0129584 2.99031 2.33145)
(0.333606 2.50695 2.4978)
(0.423948 2.14976 2.12873)
(0.369502 1.73997 2.60445)
(-0.972436 1.76779 1.7662)
(-0.323227 3.36925 2.5771)
(-0.123349 3.55246 2.57453)
(-0.123091 3.30611 2.5521)
(-0.215184 3.23408 2.46298)
(-0.0560041 2.71978 2.59621)
(-0.135635 2.48241 2.27799)
(0.45357 2.91152 1.77811)
(-0.2151 1.87798 2.54828)
(-0.460078 1.64353 1.03863)
(-1.2702 1.91782 1.66775)
(-0.178365 2.6989 1.67227)
(-0.483775 2.83196 2.1328)
(-0.654495 2.7786 2.31504)
(0.116895 2.88436 1.8577)
(0.00937095 2.61417 1.83859)
(-0.0763937 3.03683 1.30633)
(0.334429 2.13862 1.77953)
(-0.546579 1.36293 2.44265)
(-0.939819 1.71278 2.35871)
(-0.373873 2.54826 1.71322)
(0.259308 2.34393 1.10762)
(-0.0867658 1.43335 1.61323)
(-0.50071 1.75517 1.42001)
(-0.999218 2.04592 1.79145)
(-1.28515 2.18637 1.34565)
(-0.807401 2.09452 1.40928)
(-0.618397 1.67223 1.84555)
(-1.2183 1.17832 1.66363)
(-0.825336 1.3834 1.41751)
(-0.26955 1.82379 1.08757)
(0.218591 2.21424 1.33937)
(0.174679 1.66717 0.767737)
(-0.666741 1.51499 -0.438577)
(-0.250443 1.07191 0.750824)
(-0.0937443 0.904969 0.998054)
(-0.197637 1.44803 0.966535)
(-0.717894 1.15084 1.88873)
(-0.780268 1.14272 1.53013)
(-0.928062 1.0967 0.439389)
(-0.790245 1.35811 0.304718)
(-0.661822 2.05611 0.980175)
(0.418299 2.37367 0.145335)
(0.127137 2.26383 0.171338)
(-0.500854 1.60148 -0.849311)
(-0.658191 1.00591 -0.872294)
(-0.875055 1.21192 -0.716275)
(-0.588053 0.800162 -0.479711)
(-0.702948 0.618988 -0.615434)
(-1.01836 0.830264 -0.842925)
(-1.02901 1.42302 -0.624342)
(-1.19642 1.33423 -0.0290723)
(-0.789009 1.26587 -0.894439)
(-0.501895 1.7021 -0.64897)
(-0.165551 1.9381 -0.883454)
(-0.257929 1.97736 -1.01425)
(-0.6254 1.46454 -1.00002)
(-0.644237 1.33077 -0.956789)
(-0.799381 1.25469 -0.670114)
(-0.586864 1.25615 -0.883364)
(-0.908587 1.42813 -0.289094)
(-0.438818 0.411704 -0.608808)
(-0.928461 0.0915347 -0.409097)
(-1.2145 0.298773 -0.623788)
(-1.11179 0.65498 -0.553237)
(-1.22469 0.994412 -0.38265)
(-1.02829 0.940749 -0.946078)
(-0.867129 1.07209 -0.770014)
(-0.378575 1.33519 -0.929814)
(-0.427677 1.01691 -1.02151)
(-0.470067 0.731431 -0.609076)
(-0.490033 1.00987 -0.713949)
(-1.05445 1.37549 -0.263015)
(-0.799492 1.42554 -0.209434)
(-1.00043 1.63495 -1.00214)
(-1.04015 1.67402 -0.802353)
(-0.524382 -0.695445 -0.936983)
(-0.902574 -0.518629 -0.745606)
(-1.45612 -0.123973 -0.491557)
(-1.46594 -0.347956 -0.385866)
(-1.41855 -0.073575 -0.674309)
(-1.60307 -0.120257 -0.225124)
(-1.44293 0.43612 0.060921)
(-1.3012 0.0633702 0.48966)
(-0.798244 0.0150344 -0.126631)
(-0.379488 0.416048 -0.375546)
(-0.124996 1.02697 -0.861226)
(-0.111536 1.43295 -0.453136)
(-0.833477 1.5833 -0.344792)
(-0.960529 1.61761 -0.99759)
(-0.80668 1.68876 -0.95729)
(-0.291705 2.13612 2.38487)
(-0.485289 2.07685 2.50185)
(0.0204776 2.16937 2.57194)
(-0.0468935 2.01622 2.57157)
(-0.04025 2.22964 2.48866)
(0.111528 2.24551 2.60166)
(-0.0689499 2.19861 2.54099)
(-0.0372126 2.25872 2.45299)
(0.00880367 2.4064 2.46783)
(0.223919 2.3863 2.71825)
(0.206402 2.26644 2.6195)
(0.129365 2.23961 2.5897)
(0.290436 2.2263 2.53135)
(-0.00239082 2.33846 2.39869)
(0.202404 2.56214 2.74461)
(0.168784 2.46346 2.53472)
(0.170646 2.36884 2.5474)
(0.186232 2.38459 2.43379)
(0.334715 2.32917 2.37144)
(0.078777 2.43635 2.15681)
(0.3541 2.87341 2.80593)
(0.329052 2.57856 2.6568)
(0.468459 2.6014 2.58021)
(0.166406 2.37712 2.53308)
(0.200307 2.41293 2.30672)
(0.384218 2.13824 2.25477)
(0.39742 2.14812 1.94604)
(0.093783 2.94016 2.71131)
(0.759446 3.09194 2.23227)
(0.661077 2.87181 2.22336)
(0.276377 2.53121 2.18871)
(0.406798 2.61601 2.24301)
(0.501128 2.20409 2.11448)
(0.454429 1.99414 2.27682)
(0.653706 1.86063 2.21547)
(0.389403 3.34027 3.00723)
(0.474176 3.00475 2.85128)
(0.635919 2.96578 2.71924)
(0.318995 2.86905 2.4107)
(0.35168 2.6351 2.28361)
(0.0694777 2.37193 2.04935)
(0.631326 2.03087 2.09743)
(0.765431 1.72499 2.22202)
(0.627039 1.8048 0.487131)
(0.187933 3.61341 3.16971)
(-0.00325848 3.71874 2.68888)
(0.174763 3.28953 2.77668)
(0.0525992 3.44523 2.38456)
(0.295556 2.86994 2.61675)
(0.270927 2.41626 2.55824)
(0.593816 2.64478 1.68004)
(0.446655 1.92784 2.57943)
(0.405054 1.91661 1.33263)
(-0.183176 1.4377 0.95335)
(0.407667 3.18264 2.46179)
(-0.0447633 3.54471 2.37173)
(0.0555306 3.35064 2.42716)
(-0.154932 3.21556 2.48084)
(-0.0113504 2.69964 2.65628)
(0.0434718 2.5749 2.29689)
(0.271637 2.83672 2.25268)
(-0.0290395 2.24327 2.03027)
(-0.575341 1.89953 1.98573)
(0.515887 1.84379 1.34954)
(-0.184091 2.44411 1.55368)
(0.254011 2.56105 1.57272)
(-0.414449 2.62908 1.99792)
(-0.605274 2.71948 2.21814)
(0.254451 2.82923 1.5668)
(0.0254535 2.72087 1.44503)
(-0.0305007 2.93214 1.42763)
(0.804677 2.57966 1.28272)
(-0.456479 1.53919 2.28568)
(-0.424664 1.67365 2.44245)
(-0.346965 2.42254 1.85175)
(0.70297 2.09973 1.59635)
(0.0819546 1.68903 0.872298)
(0.19569 0.940271 1.75683)
(-0.366591 1.57769 1.36006)
(-1.15562 1.83082 1.70998)
(-1.32007 2.18365 1.3561)
(-0.794773 2.09064 1.34193)
(-0.524002 1.717 1.7124)
(-0.96677 1.34299 1.71837)
(-1.04717 1.41109 1.44964)
(-0.181868 1.76477 1.01403)
(0.144443 2.00402 1.41833)
(0.263377 1.66623 0.69058)
(-0.327146 1.03445 -0.848763)
(-0.709499 1.0032 -0.886382)
(-0.144599 0.996469 0.419878)
(-0.0728837 0.870297 0.706799)
(-0.20825 1.33821 0.738187)
(-1.01311 1.24641 1.66136)
(-0.996614 1.17285 1.00692)
(-0.760083 1.05483 0.223373)
(-0.932756 1.41936 0.444078)
(-0.581703 1.94116 1.11862)
(0.44727 2.33849 0.348885)
(0.187114 2.25196 0.158007)
(-0.456207 1.62381 -0.891611)
(-0.571718 1.00439 -0.811752)
(-0.694169 0.998978 -1.11272)
(-0.597989 1.30286 -0.926795)
(-0.490896 0.737474 -0.412536)
(-0.537745 0.544995 -0.462965)
(-0.917772 0.7878 -0.754775)
(-1.06438 1.38194 -0.43528)
(-1.19319 1.27709 -0.228624)
(-0.642881 1.13676 -1.21335)
(-0.433111 1.64021 -0.907634)
(-0.152692 1.87036 -0.794693)
(-0.137363 2.00573 -1.06884)
(-0.532973 1.46817 -1.01941)
(-0.617598 1.35248 -0.887673)
(-0.738071 1.30426 -0.638334)
(-0.552025 1.30322 -0.837843)
(-0.911699 1.60944 -1.0953)
(-0.971135 1.63904 -1.01887)
(-0.408654 0.327604 -0.633102)
(-0.903256 0.0661079 -0.429451)
(-1.1746 0.268397 -0.644332)
(-1.09113 0.612526 -0.534224)
(-1.21217 0.942288 -0.504929)
(-0.955723 0.892339 -1.02117)
(-0.846574 1.07179 -0.791375)
(-0.316712 1.30543 -0.936329)
(-0.380492 1.00938 -1.09567)
(-0.467276 0.728816 -0.613601)
(-0.476416 1.00295 -0.724536)
(-0.974489 1.42067 -0.145041)
(-0.766778 1.40717 -0.151363)
(-0.870154 1.62197 -1.09479)
(-0.762998 1.60791 -0.96271)
(-0.808362 1.68403 -0.971389)
(-0.509743 -0.726082 -0.941363)
(-0.888277 -0.522144 -0.747051)
(-1.45675 -0.124869 -0.496438)
(-1.48733 -0.391326 -0.364142)
(-1.40629 -0.0977675 -0.663576)
(-1.5471 -0.164489 -0.236695)
(-1.42964 0.432836 0.0496099)
(-1.29171 0.0636889 0.479397)
(-0.802652 0.00467413 -0.137192)
(-0.385717 0.405757 -0.38012)
(-0.119816 1.00709 -0.871685)
(-0.108493 1.40618 -0.438705)
(-0.816508 1.57199 -0.3516)
(-0.948189 1.67239 -0.787365)
(-0.86024 1.68453 -0.937024)
(-0.418081 1.38218 -1.08802)
(-0.0613151 2.06662 2.38316)
(-0.239275 2.01168 2.39612)
(-0.0938536 1.98198 2.57534)
(-0.148161 2.04302 2.36979)
(-0.101508 2.15726 2.4191)
(0.248578 2.20384 2.59225)
(0.0936906 2.0608 2.6165)
(-0.102065 2.01413 2.59683)
(0.00490886 2.27601 2.39786)
(0.498856 2.26367 2.60167)
(0.151574 2.20864 2.59225)
(0.0497638 2.15724 2.55656)
(0.210564 2.16748 2.45603)
(0.294763 2.18428 2.47957)
(0.396295 2.4634 2.68056)
(0.29313 2.35713 2.64286)
(0.292159 2.21969 2.58644)
(0.326963 2.22715 2.49051)
(0.340213 2.18646 2.46833)
(0.296437 2.24485 2.41362)
(0.311285 2.59545 2.77899)
(0.357413 2.44255 2.65627)
(0.284949 2.33362 2.55735)
(0.586714 2.41883 2.38832)
(0.251902 2.29731 2.40343)
(0.531041 2.16391 2.34911)
(0.481043 2.01733 2.20379)
(0.596019 2.9387 2.82615)
(0.326772 2.61661 2.71692)
(0.481717 2.54609 2.63079)
(0.28193 2.41575 2.57707)
(0.537489 2.24837 2.46399)
(0.621711 2.23328 2.14778)
(0.553349 1.90601 2.45796)
(0.373288 1.85123 2.51851)
(1.09731 3.12874 2.64411)
(0.255314 2.91788 2.71997)
(0.323103 2.76882 2.54285)
(0.466894 2.60442 2.21466)
(0.325334 2.48971 2.367)
(0.573496 2.4525 2.09463)
(0.672187 2.01676 2.20009)
(0.979586 1.92635 2.24214)
(0.834131 1.79405 2.02952)
(0.969113 2.92862 3.52319)
(1.02031 3.19015 2.80968)
(0.359338 2.73451 3.11347)
(0.555834 3.07013 2.37457)
(0.460684 2.58286 2.55361)
(0.326153 2.53309 2.02423)
(0.819928 2.16208 2.03323)
(0.799602 1.80829 2.35737)
(1.06282 1.90532 1.38038)
(0.506137 1.92039 -0.559394)
(0.593128 3.67049 2.90194)
(0.210224 3.83406 2.59765)
(0.316834 3.53642 2.73943)
(0.0957753 3.42575 2.46568)
(0.313028 3.00618 2.5128)
(0.407863 2.98787 2.01361)
(0.413906 2.35474 2.44519)
(0.765752 2.22806 1.86485)
(0.33875 1.5105 2.21905)
(1.24212 1.45604 -0.680254)
(1.23706 1.7222 0.683789)
(0.57049 3.16578 2.09277)
(0.366559 3.3435 2.32126)
(0.222982 3.46342 2.31215)
(-0.0933434 3.20669 2.47385)
(0.247802 2.76734 2.68041)
(0.0567948 2.67276 2.48529)
(0.0737342 2.76497 2.35656)
(0.591042 2.57754 1.8043)
(-0.216991 2.03718 2.53325)
(-0.263482 2.14936 2.04237)
(1.86194 1.65186 0.64355)
(0.559692 2.06812 1.88999)
(0.097077 2.32002 1.54239)
(-0.0939994 2.49941 1.7063)
(-0.433753 2.55924 2.15704)
(0.690645 2.6875 1.35511)
(0.223757 2.72873 1.31731)
(0.129068 2.93769 1.34707)
(0.363799 2.76978 1.45781)
(-0.0987882 1.73993 2.18458)
(-0.14796 1.50558 2.24927)
(-0.0150852 1.96503 2.07248)
(1.0005 2.11067 1.31102)
(0.498864 0.923161 -0.549916)
(-0.251639 1.05012 -0.899888)
(0.265348 0.837607 1.5692)
(-0.421409 1.3705 1.20351)
(-0.812084 1.79969 1.53577)
(-1.42526 2.17503 1.36861)