/*--------------------------------*- C++ -*----------------------------------*\
  =========                 |
  \\      /  F ield         | OpenFOAM: The Open Source CFD Toolbox
   \\    /   O peration     | Website:  https://openfoam.org
    \\  /    A nd           | Version:  7
     \\/     M anipulation  |
\*---------------------------------------------------------------------------*/
FoamFile
{
    version     2.0;
    format      ascii;
    class       volScalarField;
    location    "9.5";
    object      nut;
}
// * * * * * * * * * * * * * * * * * * * * * * * * * * * * * * * * * * * * * //

dimensions      [0 2 -1 0 0 0 0];

internalField   nonuniform List<scalar> 
18630
(
0.00018665
0.000295447
0.000146312
0.000167074
0.00024787
0.000310511
0.000218523
0.000116348
0.000173887
0.000246629
0.00040984
0.000271758
0.000609262
0.000309531
0.00024477
0.000340324
7.82144e-05
0.000183235
0.000142574
0.000145407
0.000799846
0.0003796
0.00129285
0.000332347
0.000360849
0.000230518
0.000285563
0.000244621
0.000323239
0.00010529
9.51072e-05
0.000181089
0.00012165
0.00010623
0.000210896
0.00109766
0.000911347
0.000743537
0.000524599
0.000868933
0.000607028
0.000284585
0.000324339
0.000156035
0.000160825
0.000279683
0.000222237
0.000352117
3.34172e-05
0.00019708
0.000190736
0.000184155
0.00014999
0.000168712
5.27737e-05
0.000105219
0.000567426
0.000970403
0.00134922
0.00111924
0.000969107
0.000981857
0.000534149
0.000543297
0.000448887
0.000327036
0.000420043
0.000356481
0.00021593
0.000137159
0.000181143
0.000263415
0.000245837
0.000334176
0.000148787
0.000161978
0.000233897
0.000172759
0.000127552
0.000158155
0.000199578
0.000176566
9.51617e-05
9.66587e-05
0.000772001
0.000688047
0.000774373
0.000985321
0.00121077
0.0010988
0.000991687
0.000875959
0.00080189
0.000687184
0.000549146
0.000427619
0.00045853
0.000395738
0.000455344
0.000284461
0.000354257
0.000215993
0.000108817
0.000300485
0.000312919
0.000283749
0.000252554
0.000325874
0.000190569
0.000156313
0.000218891
0.000156266
0.000185036
0.00010175
0.000168194
9.17975e-05
8.55755e-05
9.03762e-05
8.91398e-05
0.000100017
0.000320322
0.000447203
0.000576426
0.000419363
0.000570819
0.000928686
0.000968031
0.00129928
0.0011734
0.00113551
0.000901719
0.000869373
0.000896931
0.000689619
0.000575092
0.000528722
0.000402303
0.00045279
0.000397658
0.000452637
0.000467168
0.000358998
0.000332864
0.000180437
0.000258552
0.000315309
0.000144653
0.000292114
0.000271674
0.00028839
0.000279796
0.000174087
0.000143384
0.000188201
0.000169976
0.000167781
0.000188642
0.000129419
0.000137571
0.000112094
0.000128677
8.51886e-05
8.79392e-05
0.000108688
0.00017084
0.000611567
0.000273896
0.000269808
0.000459347
0.000462166
0.000458935
0.000368025
0.000360458
0.000977248
0.000904268
0.00110958
0.00109151
0.00114942
0.000946834
0.00131003
0.000996606
0.000927114
0.000988511
0.000827008
0.000809614
0.000784533
0.000622049
0.000514515
0.000469336
0.00037613
0.000297407
0.000463068
0.000325093
0.000439712
0.000415069
0.000100848
0.000260517
0.000171153
0.000198242
0.000276236
0.00033782
0.000294354
0.000274807
0.000344142
0.000185573
0.00017162
0.000192534
0.000200983
0.000192141
0.000317593
0.00013927
0.000233723
0.000215426
0.000128024
0.000130941
8.13949e-05
8.87526e-05
0.000112725
0.000175287
0.000316058
0.000495157
0.000379332
0.000582244
0.000323481
0.000503738
0.00039323
0.000384752
0.000464155
0.000557389
0.000556176
0.000457192
0.000344515
0.00105483
0.00112
0.000917843
0.00105629
0.000964051
0.00115931
0.00106645
0.001204
0.000815781
0.00083042
0.000931319
0.000853142
0.000682207
0.000663005
0.00078155
0.000360379
0.000706142
0.000664096
0.000356312
0.000536275
0.00044914
0.000335677
0.000296538
0.000358895
0.000204083
0.000345317
0.000158351
0.000163938
0.000266009
0.000196245
0.000143934
0.000280417
0.000349265
0.000345624
0.000272583
0.000214883
0.000173657
0.000173509
0.000191776
0.000176403
0.000216227
0.000294997
0.000277275
0.000183516
0.000238845
0.000160076
0.000103896
0.00011433
8.1638e-05
9.17225e-05
0.000117973
0.000177682
0.00032243
0.000445404
0.000515876
0.000343066
0.000467517
0.000709243
0.000462893
0.000707007
0.000429043
0.000592584
0.00045049
0.000707418
0.000317382
0.000461172
0.000481989
0.00052093
0.000892113
0.000680768
0.000405373
0.000828229
0.00111903
0.00101361
0.000973641
0.0013192
0.000982471
0.00100627
0.00107773
0.00131866
0.000983958
0.000952349
0.00103418
0.000902619
0.00105503
0.000762314
0.00099812
0.000750359
0.000396612
0.000615579
0.000955117
0.00054284
0.000630928
0.000714068
0.000996688
0.000392521
0.000223073
0.000505921
0.000267124
0.000291035
0.000304329
0.000309224
0.000223128
0.000310603
0.000203514
0.000148419
0.000307942
0.0004789
0.000599029
0.000335698
0.000302054
0.000218442
0.00020682
0.000142514
0.000203588
0.000218476
0.000231566
0.000314922
0.0003772
0.000398379
0.000229368
0.000174514
0.0001158
0.000128925
6.21511e-05
7.68632e-05
9.44877e-05
0.000117736
0.000181794
0.000314391
0.000406214
0.000255067
0.000579187
0.000701789
0.00050516
0.000316418
0.000453187
0.000527616
0.000682546
0.000676779
0.000684545
0.000585859
0.00078844
0.000333701
0.000483115
0.000536455
0.000729227
0.000651115
0.000312075
0.000359937
0.000524151
0.000810142
0.000891279
0.000629942
0.000721166
0.000446987
0.000806343
0.00117815
0.000922215
0.000731264
0.000640361
0.0015337
0.00103929
0.00103585
0.00109076
0.00134352
0.00101438
0.00113886
0.000553499
0.00130955
0.000967884
0.000791204
0.000839118
0.00109156
0.000889674
0.00058618
0.000688823
0.000711678
0.000677835
0.00045961
0.000426652
0.000486193
0.000518016
0.000473521
0.000260594
0.000411763
0.000821901
0.000527431
0.000438972
0.000283154
0.000178943
0.000309567
0.000363723
0.000389105
0.000266339
0.000209107
0.000454223
0.000618389
0.000811111
0.000347542
0.000243066
0.000334216
0.000175856
0.000169168
0.000205653
0.000291027
0.000240848
0.000327213
0.000343479
0.000669619
0.000778411
0.000193599
0.000117076
0.000162391
0.000110393
8.80168e-05
7.42552e-05
9.88374e-05
0.000118352
0.000185473
0.00029146
0.000351595
0.000226724
0.000224574
0.000565338
0.000637397
0.000443976
0.000480018
0.000402012
0.00060247
0.000391517
0.000284273
0.000542119
0.00056017
0.000560438
0.000703407
0.000317772
0.000827594
0.000660112
0.000605431
0.000650453
0.000292935
0.000289789
0.000519829
0.000410287
0.00085637
0.000392789
0.000290385
0.000378936
0.00036352
0.000370432
0.000818206
0.000422695
0.00039268
0.00077772
0.000515149
0.00085321
0.000801182
0.000591931
0.000730628
0.000792641
0.000597464
0.00134914
0.00100287
0.000978348
0.000822791
0.00111536
0.00118751
0.00108359
0.000559034
0.000787024
0.00130621
0.00101487
0.000747412
0.000845418
0.00129733
0.0008659
0.000797272
0.000806169
0.000580249
0.000767033
0.000915698
0.000440331
0.000373372
0.000577894
0.00075716
0.000483197
0.000212221
0.000424415
0.000340776
0.000617156
0.000882919
0.000295635
0.000298274
0.000194741
0.000182178
0.000348529
0.000428685
0.000132732
0.00029004
0.00044111
0.000626591
0.000789245
0.000904585
0.000366051
0.000224132
0.000232893
0.00016502
0.00020226
0.000194838
0.00029186
0.000257907
0.000324266
0.00030022
0.00084791
0.000900343
0.000416375
0.00017318
0.000133779
9.78074e-05
0.000113103
0.000148051
7.44261e-05
0.000105635
0.000118015
0.000185005
0.000264767
0.000299807
0.000224066
0.000181394
0.000127628
0.000395395
0.000558777
0.00036588
0.000551187
0.000404044
0.000494846
0.00058661
0.0003875
0.000309551
0.000292561
0.000237877
0.000354211
0.00041857
0.000408201
0.00032263
0.000328686
0.000448438
0.000622071
0.000245198
0.000523573
0.000529215
0.000784757
0.00038796
0.000478907
0.000361068
0.00047949
0.000336573
0.000575486
0.00050732
0.000597972
0.000700529
0.00068132
0.00037128
0.000340798
0.000130155
0.000548241
0.000577963
0.000616
0.00052658
0.000669205
0.000543474
0.000543376
0.000803465
0.00089191
0.000890652
0.00058189
0.000395291
0.000594698
0.00106215
0.00161526
0.00111325
0.00117899
0.000849384
0.00124384
0.00128889
0.000937289
0.000615347
0.000797002
0.000652722
0.00117364
0.000857074
0.000816462
0.0009707
0.000982864
0.0010473
0.000790311
0.00123866
0.000719153
0.000701482
0.00071631
0.000380569
0.000539025
0.0006299
0.000663786
0.000864029
0.00038425
0.000405239
0.000669981
0.00033968
0.000607848
0.000938488
0.000879126
0.000123283
0.000309599
0.000262423
0.000156086
0.000362981
0.000339849
0.000275934
0.000367804
0.000598505
0.000620291
0.000718015
0.000880403
0.00108286
0.000399806
0.000232374
0.000277156
0.000207229
0.000233884
0.000206291
0.000270902
0.000252233
0.000325835
0.000250817
0.000814712
0.00083723
0.000501538
0.00034004
0.000215504
0.000135516
0.00011557
0.000100194
0.000104636
9.81919e-05
0.000110133
0.000118996
0.000182907
0.000245616
0.000270398
0.000267191
0.000220081
0.000116493
7.9678e-05
0.000471039
0.000479029
0.000315225
0.00057887
0.000462734
0.000426955
0.000460811
0.00043001
0.000346177
0.000384022
0.000332557
0.000640795
0.000454449
0.000360383
0.000372147
0.000308202
0.000574726
0.000382869
0.000376297
0.000355643
0.000372218
0.000536401
0.000416973
0.000538085
0.000379668
0.000737384
0.000382977
0.000538849
0.000580254
0.000390079
0.000612059
0.000906402
0.000685048
0.000442621
0.000476353
0.000661274
0.00051256
0.000547767
0.000531385
0.000864293
0.000597643
0.000519204
0.000286344
0.000361143
0.000109661
0.000703921
0.000304623
0.000888241
0.000451116
0.000580317
0.000811228
0.000542154
0.000663626
0.000844399
0.000768179
0.000921303
0.000803804
0.000337896
0.00068145
0.00108283
0.000871597
0.0018234
0.00137942
0.000853513
0.00097175
0.00121184
0.00111245
0.000863067
0.000680304
0.000905339
0.000844874
0.000873677
0.00135478
0.000912484
0.000873876
0.000866426
0.00120756
0.00110707
0.00104349
0.00124614
0.000864031
0.000783151
0.000836701
0.000618445
0.000431558
0.000702917
0.000501268
0.000557945
0.00037137
0.000477794
0.000827649
0.000906639
0.000473589
0.000546031
0.000689478
0.000763266
0.000901264
0.000140331
0.000318987
0.000195521
0.000148239
0.000392708
0.000334867
0.000401973
0.000324543
0.000577922
0.000783442
0.000626977
0.000952485
0.000938805
0.000598567
0.000419904
0.00023157
0.000314942
0.000188161
0.000126294
0.000284366
0.000185478
0.000274778
0.00035307
0.000278592
0.000655019
0.00077385
0.000716699
0.00031403
0.000205144
0.000122688
0.000137522
9.17085e-05
9.63763e-05
9.93579e-05
9.61264e-05
0.00010701
0.000120467
0.000179055
0.000221449
0.000257525
0.000277842
0.000271337
0.000114138
4.85764e-05
0.00011529
0.00030722
0.000470536
0.000401371
0.000495065
0.00038949
0.000316083
0.000513567
0.000533758
0.000482477
0.000570769
0.000472816
0.000641981
0.000420464
0.000280136
0.000361155
0.00037543
0.000543751
0.000411186
0.0003329
0.000360838
0.000320846
0.000330638
0.00018003
0.000473204
0.000416664
0.000403107
0.000299804
0.000434523
0.000385587
0.000338224
0.000515785
0.000490911
0.000384517
0.0008955
0.000672925
0.000487278
0.000401038
0.000402602
0.00051311
0.000481133
0.00060267
0.000662099
0.00057269
0.00039385
0.000343923
0.000426297
0.000524516
7.04346e-05
0.000200236
0.000653877
0.000474122
0.00053495
0.000530359
0.000428303
9.95491e-05
0.000209861
0.000556787
0.000447565
0.00066127
0.000232913
0.000673773
0.000741863
0.00067331
0.000768021
0.000847059
0.000589629
0.00093397
0.00100986
0.000848414
0.000411658
0.000591611
0.00101106
0.000711617
0.000683443
0.00155906
0.00125384
0.000926839
0.00107954
0.000997424
0.00104818
0.000926968
0.000486331
0.000850214
0.000685742
0.0008169
0.000802731
0.00100693
0.000664152
0.000966547
0.00103708
0.00122894
0.000828512
0.00123492
0.000854055
0.000951399
0.000842583
0.00109998
0.000846076
0.000970481
0.000442962
0.0003579
0.0003132
0.000484277
0.000408779
0.000590882
0.000750985
0.000949916
0.000626104
0.000577316
0.000813526
0.00042527
0.000339574
0.000270926
0.000109341
0.000419385
0.00031886
0.000139635
0.000323704
0.000370047
0.000454455
0.000353053
0.000491227
0.000521713
0.00034592
0.000373573
0.000698214
0.000406846
0.000817224
0.000445856
0.000209434
0.000340347
0.000161478
9.87402e-05
0.000320108
0.000238569
0.000268397
0.000352657
0.000317864
0.000526584
0.00055463
0.000532847
0.000317367
0.000171128
0.00017383
0.000131404
0.000161208
9.24932e-05
0.000112935
0.000111651
9.34741e-05
0.000119017
0.000108226
0.000165183
0.00020355
0.000248707
0.000239252
0.000277943
7.72958e-05
0.000161653
0.000105106
0.000150783
0.000490703
0.000475399
0.000421198
0.000498521
0.000446962
0.000366124
0.000500567
0.000450121
0.000360633
0.000337517
0.000541213
0.000562671
0.000497269
0.000451133
0.000399591
0.00040977
0.000498279
0.000547864
0.000503955
0.000358376
0.000399651
0.000352454
0.00032377
0.000432304
0.000572071
0.000478899
0.000278806
0.000279408
0.000246598
0.000221426
0.000397413
0.000387925
0.000326619
0.000259833
0.000428484
0.000316239
0.000309279
0.000460086
0.00019973
0.000372071
0.000558449
0.000502776
0.000656637
0.000556687
0.000599026
0.000759826
0.00040942
0.000470507
0.000745286
0.000483872
0.000471555
0.000422872
0.000647593
0.000405302
0.000357568
0.000617742
0.000464683
0.000345109
0.000452707
0.000372192
0.000558344
0.000430054
0.000905582
0.000624831
0.000665096
0.000370038
0.000249807
0.000414262
0.000744185
0.000964193
0.000469887
0.000592601
0.000746069
0.000798827
0.00061527
0.000817975
0.000607354
0.000729314
0.000887185
0.000831524
0.000862037
0.000511769
0.000519486
0.000532668
0.000799145
0.000872712
0.00085213
0.000729096
0.00173258
0.00121731
0.00129387
0.000760658
0.000923671
0.00101969
0.000902458
0.000525456
0.000786558
0.000742386
0.00111678
0.000548518
0.000955662
0.000894702
0.000964699
0.000872484
0.000933384
0.00113806
0.000891053
0.00104304
0.000825477
0.00124367
0.00088176
0.000942075
0.000517061
0.000874179
0.000353271
0.000419375
0.000756235
0.000506154
0.000454017
0.00048945
0.000534831
0.000533101
0.000675821
0.000515611
0.000589944
0.000873134
0.000862434
0.000461114
0.000973912
0.000729928
0.000115157
0.000351285
0.000365228
0.000441221
0.000326655
0.00034591
0.00046206
0.00029493
0.000482745
0.000488684
0.000123805
0.000655994
0.000790102
0.000491179
0.00063499
0.000366166
0.000446276
0.000221862
0.000307602
0.000229279
0.000109788
0.000209724
0.000211384
0.000251702
0.000371104
0.000317139
0.000462479
0.000308194
0.000510077
0.000343126
7.27297e-05
0.000216005
0.000135941
0.000139859
0.000171687
8.90239e-05
0.000111932
0.000143844
0.000115142
0.000114697
0.000108138
0.000163745
0.000193522
0.000246068
0.000231349
0.000283181
0.000141081
7.03769e-05
8.88402e-05
0.000191319
0.000164143
0.000651205
0.000523476
0.000508515
0.000486759
0.000511243
0.000471714
0.00042748
0.000450083
0.000403799
0.000269191
0.000477716
0.00039546
0.000415358
0.000512445
0.000288294
0.000448438
0.000411504
0.000419254
0.000416765
0.000357029
0.000263515
0.000301371
0.000277933
0.000331077
0.000546136
0.000448465
0.000553214
0.000382326
0.000448316
0.000221656
0.000315757
0.000557285
0.000450824
0.000440627
0.00030445
0.00025958
0.000375706
0.000326638
0.000200219
0.000223811
0.000328288
0.000283951
0.000328781
0.000404199
0.000501567
0.000389889
0.000445872
0.000495269
0.000191654
0.000351784
0.000390422
0.000635891
0.000530486
0.00067305
0.000516165
0.000600528
0.000630616
0.000649054
0.00035443
0.000373108
0.000526258
0.000278486
0.000431676
0.000542307
0.000522375
0.000625715
0.000820289
0.000414079
0.000477172
0.000536288
0.000722404
0.000413316
0.000495718
0.000493506
0.00044493
0.000777259
0.00067226
0.000494225
0.000306486
0.000411739
0.000428886
0.000645756
0.000623889
0.000396099
0.000731902
0.000826586
0.00075556
0.000851652
0.000945884
0.00101703
0.00120245
0.000835043
0.000692935
0.0010464
0.000613392
0.000468334
0.000583872
0.000578152
0.000681095
0.000768371
0.00077568
0.000648887
0.000853517
0.00163854
0.00113083
0.000661664
0.000812904
0.00119597
0.000935264
0.000627624
0.000478592
0.000824042
0.000761389
0.000766811
0.000859586
0.000867903
0.000652193
0.000773396
0.0012916
0.000827381
0.000992895
0.00149222
0.000735595
0.000906067
0.00146786
0.00130695
0.00091051
0.000900051
0.000868002
0.000628036
0.000326547
0.000511548
0.00041029
0.000994353
0.00064252
0.000506847
0.000324537
0.000486246
0.000488775
0.000536324
0.000626635
0.000568347
0.000885594
0.000596977
0.000506565
0.000737212
0.000620237
0.00120388
6.36895e-05
0.000279104
0.000370223
0.000357636
0.000205076
0.000333517
0.000409452
0.000231947
0.000411732
0.000478833
0.000280464
0.00109658
0.00078767
0.00046849
0.000580945
0.000283112
0.00017022
0.000402095
0.000237253
0.000288345
0.000261
0.000175382
0.00021716
0.000299995
0.000251771
0.00038063
0.000326122
0.000440174
0.000275376
0.000613548
0.000369832
0.000113408
0.000200354
0.000113425
0.000372701
0.000108239
0.00014595
7.79072e-05
8.07903e-05
0.000212363
0.000114738
0.000111989
0.000108949
0.000153213
0.000185423
0.000253495
0.000224118
0.000260739
0.000157589
9.29869e-05
0.000116855
0.000139542
0.000170043
0.000208792
0.00105095
0.000603206
0.000772692
0.000475055
0.000478669
0.000455031
0.000500784
0.000511619
0.00048524
0.000416976
0.000407228
0.000474006
0.000404128
0.000364955
0.000306539
0.000405728
0.000343618
0.000319176
0.000311285
0.000325466
0.000344474
0.000569242
0.000568213
0.000381368
0.000303812
0.000275722
0.000599975
0.000352684
0.000521333
0.000281861
0.00024779
0.000428657
0.000248752
0.000366209
0.000289882
0.000319633
0.000238566
0.000382434
0.000375396
0.000222496
0.000194115
0.000391332
0.000342269
0.000343684
0.000370244
0.000480052
0.000461217
0.000489998
0.000185262
0.000324078
0.000326961
0.000262023
0.000323539
0.000279016
0.000488448
0.000544099
0.000575265
0.000452114
0.000305694
0.000177666
0.000292642
0.000498541
0.000485996
0.000285799
0.00043635
0.000784852
0.000458687
0.000295919
0.000447955
0.000377471
0.000440834
0.000594354
0.000329395
0.0004723
0.000317284
0.000354072
0.000297742
0.000651196
0.000650616
0.000442859
0.000232704
0.00069981
0.000733898
0.000701093
0.000572905
0.000316937
0.000510427
0.000754032
0.00167543
0.000367995
0.000603695
0.000622832
0.000405952
0.000830471
0.000609961
0.000727
0.000669043
0.000642792
0.000437453
0.000781526
0.000729845
0.00106767
0.00108644
0.000641311
0.00112112
0.000975817
0.00100257
0.000807489
0.00108038
0.000753173
0.000650276
0.000534071
0.000554822
0.00083442
0.00065703
0.000417533
0.00064713
0.00117024
0.000926305
0.00101725
0.00105821
0.00107864
0.000913048
0.00102161
0.00107282
0.000575707
0.000506112
0.000637209
0.000805922
0.000903049
0.000639741
0.000738497
0.000847712
0.000463769
0.000932444
0.000784072
0.000974218
0.000964331
0.00124757
0.000864107
0.000921707
0.00140373
0.00118398
0.00101722
0.00123691
0.00083492
0.000649511
0.000260456
0.000555944
0.000519757
0.000530017
0.000547468
0.000571913
0.000615219
0.000477622
0.000670438
0.000531915
0.00046526
0.000625984
0.000477536
0.00110154
0.000441846
0.00020732
0.000457246
0.00029231
0.000829188
0.000729846
0.000137284
0.00018683
0.000372075
0.000544072
0.000386731
0.000371867
0.000566195
0.000190311
0.000354965
0.000383703
0.000300444
0.000935722
0.000559836
0.000360432
0.000519819
0.000271525
0.000162971
0.000442558
0.000373816
0.000271806
0.00031165
0.000234252
0.000299132
0.000262268
0.000285223
0.000237494
0.000367007
0.00031951
0.000440519
0.000240367
0.000507013
0.000344747
9.46807e-05
0.000193358
0.000118765
0.000273516
0.000185805
0.000143338
0.000136588
7.91678e-05
0.000133555
0.000134904
0.00011655
0.000114202
9.73532e-05
0.00013027
0.000186698
0.000259037
0.000217315
0.000226268
9.3425e-05
0.000191394
7.26767e-05
0.000137411
0.000156168
0.000158539
0.000165125
0.00124014
0.00102515
0.00109514
0.000601942
0.000683197
0.0007008
0.000481253
0.000523858
0.000549845
0.000474076
0.000534746
0.000565603
0.000520248
0.000439845
0.000426943
0.000394107
0.000458501
0.000399931
0.000351836
0.000309963
0.000343115
0.000453766
0.000450451
0.000294762
0.000449951
0.000283552
0.000315694
0.000407461
0.00064274
0.000497756
0.000251097
0.000347234
0.000388991
0.000343381
0.000381844
0.00039549
0.000379989
0.000333081
0.00047266
0.000375083
0.000380206
0.000363723
0.000372846
0.000361096
0.000349912
0.00033438
0.000474671
0.000461474
0.000241416
0.000252984
0.000313807
0.000708561
0.000335127
0.000418778
0.000416507
0.000329759
0.000313469
0.000311794
0.000481044
0.000300099
0.000302011
0.000278646
0.000208123
0.000395241
0.000391923
0.000288672
0.000308174
0.000515808
0.000425767
0.000199216
0.000387371
0.00048177
0.000503819
0.000519452
0.000627435
0.000462647
0.000367258
0.000462174
0.000444434
0.000471331
0.000366502
0.000365895
0.000913621
0.000863468
0.000769436
0.000651089
0.000593058
0.000417987
0.000369173
0.00038729
0.000327279
0.000358609
0.000385388
0.000347508
0.00071505
0.000614151
0.000507521
0.000672313
0.000774805
0.000470508
0.000720521
0.000556422
0.00074381
0.000763677
0.000541105
0.000538442
0.000850125
0.000448028
0.000446202
0.000358204
0.000613193
0.000943266
0.000660979
0.000420613
0.000611826
0.00059395
0.00106316
0.00107971
0.00119554
0.000845773
0.00127368
0.00104475
0.00143682
0.000647496
0.000562193
0.000550628
0.000769713
0.000479957
0.000679384
0.000799021
0.000596411
0.000507708
0.000604182
0.000514059
0.00085308
0.000443864
0.00117867
0.00128837
0.00105745
0.000824405
0.000951963
0.00111037
0.000943487
0.000990538
0.000663088
0.000770578
0.000791964
0.000597664
0.000451482
0.000770947
0.00089329
0.000466428
0.000874945
0.000810599
0.000878678
0.00106186
0.00134464
0.000828337
0.000750043
0.000781057
0.00101283
0.00086476
0.00069674
0.000928253
0.0006023
0.000401389
0.000578807
0.000661781
0.00112098
0.000617699
0.000660541
0.000669906
0.000722527
0.000741675
0.000642529
0.000756528
0.000296279
0.000652487
0.000475223
0.000995008
0.000384064
0.00048527
0.000685055
0.000264456
0.000690263
0.000605759
0.000352099
0.000189115
0.000274574
0.00018333
0.000552469
0.000530936
0.000385315
0.000649988
0.000308227
0.000388835
0.000323121
0.00013326
0.000611057
0.000765519
0.000336948
0.000442471
0.000173438
0.000220565
0.000394843
0.000276498
0.000369006
0.000316645
0.000342167
0.000244066
0.000206603
0.000215217
0.000344839
0.000263716
0.000349094
0.000341416
0.000453779
0.000244301
0.000492662
0.000413895
8.46176e-05
0.000191237
0.000143504
0.000266829
0.000197792
0.000320308
0.000112208
0.000128208
8.15919e-05
0.000119141
0.000141778
0.000114716
0.000118938
0.000108825
0.000126824
0.000202963
0.000257829
0.000216995
0.000188717
6.78141e-05
8.23925e-05
5.82096e-05
0.000201767
0.000147498
0.000216673
0.000154846
8.21038e-05
0.000969604
0.00123375
0.0012491
0.000934408
0.00100039
0.00095953
0.000668751
0.000647632
0.000649696
0.000561526
0.000591091
0.0004392
0.000551901
0.000568879
0.000403058
0.000532475
0.000489866
0.000491244
0.000469185
0.000366146
0.000421873
0.000372787
0.000343841
0.000299219
0.000364318
0.000278547
0.00029521
0.000446698
0.000333271
0.000350321
0.00024374
0.000311991
0.000340872
0.000222953
0.000494019
0.000619165
0.000527616
0.000492593
0.000375867
0.000368658
0.000252422
0.00032143
0.00042728
0.00071676
0.000346964
0.000428374
0.000473208
0.00037997
0.000231777
0.000483816
0.000389168
0.000413
0.000347692
0.000276805
0.000217258
0.000251989
0.00033213
0.000425599
0.000265608
0.000527394
0.000453916
0.000380827
0.000369871
0.00022308
0.00026703
0.000369346
0.000393104
0.000355335
0.000339639
0.000461751
0.000395287
0.000338127
0.000198718
0.000226092
0.000254914
0.000364949
0.00039393
0.000270635
0.000474224
0.000198672
0.00026685
0.000303304
0.000559158
0.000386333
0.000304192
0.000367852
0.000333883
0.000656745
0.000453486
0.000355459
0.000368398
0.000457765
0.000608293
0.00058844
0.000479299
0.000510221
0.000659788
0.000688197
0.00075994
0.00081895
0.000499101
0.000511614
0.000410584
0.000384788
0.00117623
0.00049641
0.000435462
0.000274728
0.000213483
0.000624102
0.00036537
0.000259096
0.00059094
0.000476103
0.000551172
0.000595523
0.000564804
0.00089634
0.000769822
0.000687213
0.000639701
0.000323742
0.00072564
0.000403194
0.000534093
0.000709451
0.00130622
0.00046206
0.000365355
0.000450167
0.00063541
0.000783981
0.00090829
0.00101666
0.000963904
0.00094688
0.00118346
0.00117823
0.00109631
0.000642745
0.000688412
0.000809553
0.000530444
0.000786244
0.00072403
0.000627317
0.000687106
0.000799898
0.000420722
0.000594959
0.000566852
0.000396398
0.000807289
0.00128953
0.000930984
0.000918816
0.000796045
0.00093908
0.00102616
0.00114017
0.000837149
0.00105051
0.000702294
0.000763123
0.000874309
0.000703889
0.000566861
0.000587561
0.00109944
0.00070459
0.000958598
0.000746602
0.000778893
0.000941811
0.00104402
0.00138886
0.00080237
0.00064171
0.00104915
0.000918638
0.00100488
0.000723104
0.00067267
0.000798761
0.00075052
0.000578308
0.000445873
0.000823386
0.00108783
0.000599638
0.000607416
0.000535191
0.000688633
0.00067697
0.000549604
0.000788025
0.000292474
0.000722713
0.000667757
0.000827748
0.000389346
0.00040992
0.000404048
0.000363409
0.000803489
0.00046682
0.00035823
0.000385332
0.000168249
0.000220835
0.000645776
0.000829636
0.000396522
0.000404132
0.000735296
0.000587978
0.000457889
0.000389933
0.0003417
0.000482413
0.000857871
0.000327161
0.000365412
0.000142413
0.000117898
0.000379502
0.000218824
0.000479719
0.0003443
0.000330743
0.0003176
0.000155157
0.000308461
0.000173396
0.000459044
0.000311933
0.000322071
0.000369366
0.000496978
0.000283444
0.000494481
0.000456552
0.000128119
0.000176648
0.000175031
0.000258041
0.000213206
0.000276256
0.000129221
0.000128577
0.000104433
9.89091e-05
0.000100755
0.000131876
9.47158e-05
0.000128598
0.000117656
0.000125172
0.000213217
0.000243818
0.000222268
0.000173469
9.54683e-05
0.000206014
5.59202e-05
6.32725e-05
0.000151499
0.000153038
0.000142773
0.000198443
0.000175604
0.00012458
0.0031901
0.00112762
0.00117595
0.00123973
0.00111002
0.00146756
0.000925362
0.000912534
0.000956948
0.000859806
0.000633642
0.0006558
0.000616301
0.000582177
0.000683544
0.000495585
0.000525284
0.000515383
0.000528226
0.000425137
0.000521786
0.000423781
0.000534012
0.000494875
0.00039222
0.000359219
0.00033647
0.000461458
0.000332409
0.0002853
0.000172982
0.000188808
0.000270344
0.000394744
0.000347546
0.000473864
0.00037156
0.000315367
0.000369359
0.000264702
0.000279496
0.0004121
0.000437928
0.000346462
0.000385224
0.000536983
0.000501171
0.000493712
0.000418151
0.000308438
0.000343954
0.000485242
0.000406426
0.000568361
0.000440215
0.00036505
0.00037603
0.000453914
0.000467893
0.000379091
0.000408955
0.000290019
0.000337757
0.000471859
0.000268152
0.000162745
0.000259818
0.000388915
0.000390626
0.000344815
0.000361959
0.00033567
0.000251843
0.000340722
0.000269736
0.000286581
0.000329254
0.000330148
0.000362063
0.000327933
0.000358154
0.000309772
0.000327606
9.61026e-05
0.000240482
0.000451822
0.000393534
0.000398165
0.000380968
0.000268516
0.000338791
0.000526928
0.000395506
0.000410648
0.000409374
0.000404239
0.000352924
0.000392833
0.000266585
0.000386947
0.000414401
0.000480397
0.00050811
0.000484649
0.000551665
0.000597757
0.000662244
0.000413453
0.000287334
0.000303406
0.000535515
0.00071425
0.00059423
0.000562548
0.000634345
0.000659514
0.000417853
0.000544877
0.000997114
0.00114332
0.000416675
0.000296472
0.000276023
0.00051335
0.000361805
0.000719495
0.000908209
0.000607148
0.000393866
0.000426631
0.000326822
0.000501825
0.000846048
0.000556774
0.000653421
0.000635933
0.000629734
0.00069275
0.000560229
0.00096954
0.000721006
0.000652363
0.000591958
0.00140794
0.000665336
0.000348404
0.000350341
0.000586543
0.000720166
0.000889506
0.000880188
0.00102932
0.00093129
0.000746197
0.000522634
0.00134637
0.000691588
0.000620249
0.000924659
0.000608906
0.000704949
0.000521706
0.000664301
0.000818932
0.000797814
0.000805856
0.000534553
0.000528959
0.000557779
0.00064035
0.000439918
0.000710741
0.00124501
0.00142175
0.000930386
0.000857431
0.000719365
0.000929266
0.00132541
0.000899058
0.000964721
0.000474983
0.000859446
0.00148049
0.000759876
0.000688373
0.000750668
0.000696817
0.000516298
0.000951632
0.00110016
0.000882222
0.000805849
0.000986162
0.00104229
0.00131247
0.00104462
0.000506041
0.000779987
0.00116338
0.00125555
0.00075139
0.000778247
0.000577892
0.000225246
0.000689071
0.000489263
0.000753935
0.000691653
0.000542148
0.000506238
0.000747975
0.000577503
0.00104966
0.000521795
0.000418138
0.000806332
0.000874709
0.000749065
0.000809562
0.000822085
0.000407374
0.000287942
0.000470882
0.00055415
0.000679315
0.000590764
0.000237525
0.000209225
0.000472202
0.000199906
0.000236454
0.000134259
0.000850117
0.000234497
0.000450844
0.000643072
0.000675539
0.000522931
0.000341921
0.000388199
0.000448289
0.00060449
0.000261588
0.000316005
0.000133276
8.9775e-05
0.000484106
0.00021976
0.000563381
0.00028196
0.000338254
0.000390631
0.000340552
0.000232513
0.000506261
0.000188624
0.000305109
0.000348309
0.000324578
0.00038191
0.000525951
0.000309523
0.000448452
0.000288373
0.000190724
0.000193457
0.000261469
0.000216668
0.000178167
0.000259153
0.000298634
0.000324066
0.000320282
0.000117498
0.000103823
8.93378e-05
0.00012934
0.000117635
9.9503e-05
0.000129422
0.000112532
0.000132086
0.000212311
0.000214982
0.000232636
0.000201505
9.00624e-05
7.61763e-05
2.13221e-05
8.93346e-05
0.000137744
0.000176338
0.000123552
0.000165013
0.000174072
9.42166e-05
6.58776e-05
0.00328542
0.00285948
0.00121307
0.00127012
0.00131369
0.00125391
0.00105935
0.00129835
0.00137367
0.00083795
0.000864493
0.000808167
0.000809106
0.000936714
0.000670444
0.000657536
0.000668821
0.000545057
0.000489613
0.00055598
0.000560375
0.000566876
0.000549662
0.000527669
0.000443958
0.000375701
0.000475701
0.00044602
0.000438506
0.000446537
0.000402159
0.000342879
0.000315079
0.000502128
0.000453871
0.000368629
0.000320155
0.000268919
0.000247177
0.000240279
0.000334634
0.000368957
0.000436511
0.000390011
0.000481043
0.000302167
0.000355548
0.000441733
0.00033989
0.000370545
0.000484055
0.000446759
0.000405349
0.00038332
0.000536146
0.000403636
0.000404369
0.00053474
0.000453601
0.000362691
0.000514709
0.000409464
0.000505039
0.000494551
0.000502574
0.000373291
0.000492787
0.000427378
0.00039278