/*--------------------------------*- C++ -*----------------------------------*\
  =========                 |
  \\      /  F ield         | OpenFOAM: The Open Source CFD Toolbox
   \\    /   O peration     | Website:  https://openfoam.org
    \\  /    A nd           | Version:  7
     \\/     M anipulation  |
\*---------------------------------------------------------------------------*/
FoamFile
{
    version     2.0;
    format      ascii;
    class       volScalarField;
    location    "9.5";
    object      p;
}
// * * * * * * * * * * * * * * * * * * * * * * * * * * * * * * * * * * * * * //

dimensions      [0 2 -2 0 0 0 0];

internalField   nonuniform List<scalar> 
18630
(
-60.577
-60.8589
-60.5931
-60.488
-60.8238
-60.8753
-61.008
-60.6094
-60.4952
-60.1372
-60.0362
-60.8883
-60.9152
-60.896
-61.0251
-60.696
-60.6233
-60.4997
-60.1202
-59.7655
-59.2992
-60.0502
-60.3204
-60.9292
-60.9477
-60.7796
-60.9198
-61.0444
-60.7096
-60.2152
-60.6335
-60.5028
-60.1027
-59.7337
-59.249
-57.7171
-59.2583
-59.7604
-60.0569
-60.3254
-60.4856
-60.9877
-60.9847
-60.8035
-60.529
-60.9423
-61.0651
-60.7213
-60.192
-59.5547
-60.6504
-60.5022
-60.092
-59.6972
-59.2372
-58.9939
-57.7375
-57.7335
-57.5132
-59.1725
-59.6744
-59.9262
-60.1018
-60.3295
-60.5697
-60.1144
-61.0411
-61.0003
-60.8115
-60.4978
-59.9415
-60.9666
-61.0884
-60.728
-60.1561
-59.5141
-59.1098
-60.6721
-60.4996
-60.0753
-59.6722
-59.2182
-58.9753
-58.9836
-56.5347
-57.6519
-57.5407
-57.8083
-57.5572
-58.5766
-59.0675
-59.5595
-60.0097
-59.7827
-60.1569
-60.3171
-60.6761
-60.1097
-59.4485
-61.0921
-61.0419
-60.8272
-60.4576
-59.915
-59.3953
-60.988
-61.1168
-60.7312
-60.114
-59.4723
-59.0817
-59.1153
-60.6911
-60.4968
-60.0469
-59.6529
-59.2006
-58.9571
-58.9687
-58.9725
-55.8073
-56.5389
-56.2009
-57.6388
-57.5143
-57.1893
-57.8369
-57.669
-58.6577
-59.8653
-59.0691
-59.6304
-60.1906
-59.7867
-59.1112
-60.1991
-60.3655
-60.7127
-60.0768
-59.4124
-59.141
-61.1542
-61.1096
-60.8635
-60.4207
-59.9036
-59.343
-59.1028
-61.0113
-61.1444
-60.7309
-60.0677
-59.4255
-59.0498
-59.0611
-58.9327
-60.7117
-60.4953
-60.0167
-59.6262
-59.1826
-58.9393
-58.9534
-58.9576
-58.6915
-54.6649
-55.7406
-55.5394
-56.4772
-56.2169
-56.2677
-57.6081
-57.542
-57.2543
-57.9558
-57.8827
-57.8425
-58.833
-60.0425
-58.9192
-59.039
-59.7115
-60.3335
-59.8072
-59.045
-59.0897
-60.2543
-60.4384
-60.7426
-60.0298
-59.386
-59.1015
-59.3739
-61.2056
-61.1747
-60.9121
-60.3892
-59.898
-59.2862
-59.0147
-58.869
-61.038
-61.1725
-60.7238
-60.02
-59.3744
-59.0135
-59.0099
-58.8727
-58.6131
-60.7318
-60.4904
-59.9978
-59.6
-59.1627
-58.9216
-58.9379
-58.9435
-58.6781
-58.4233
-53.9528
-54.607
-54.4754
-55.5485
-55.5087
-55.4217
-56.3922
-56.2819
-56.3222
-56.4719
-57.4888
-57.5646
-57.2155
-57.9596
-58.4542
-57.9005
-58.1554
-59.0318
-60.1566
-59.0627
-58.7298
-59.0445
-59.7853
-60.4896
-59.8479
-58.984
-59.0746
-59.6787
-60.3235
-60.4809
-60.7683
-59.9756
-59.3211
-59.0782
-59.2692
-58.9136
-61.2955
-61.2677
-60.9419
-60.3579
-59.8735
-59.2305
-58.9247
-58.7622
-58.1178
-61.0547
-61.1996
-60.7144
-59.9674
-59.3241
-58.9772
-58.9611
-58.8128
-58.5853
-58.4354
-60.7498
-60.4833
-59.9878
-59.5729
-59.1441
-58.9038
-58.9222
-58.9302
-58.6667
-58.4154
-58.0319
-53.1909
-53.8966
-53.6733
-54.4834
-54.4299
-54.3378
-55.3571
-55.3524
-55.3215
-55.4674
-56.3493
-56.2274
-56.3587
-56.5028
-56.5699
-57.27
-57.5644
-57.308
-57.94
-58.439
-58.8492
-57.8083
-58.356
-59.2316
-60.2021
-59.2489
-58.728
-59.7684
-59.0877
-59.9283
-60.5541
-59.8789
-58.8869
-59.0783
-59.6055
-59.0552
-60.4227
-60.5482
-60.7235
-59.9094
-59.3042
-59.0411
-59.148
-58.7879
-57.8863
-61.4463
-61.3386
-60.941
-60.3203
-59.9149
-59.1712
-58.8433
-58.6529
-58.0269
-57.5339
-61.0709
-61.2226
-60.7035
-59.9067
-59.2741
-58.9371
-58.9091
-58.7537
-58.5474
-58.4626
-57.8194
-60.7687
-60.475
-59.9733
-59.5437
-59.1223
-58.8865
-58.9064
-58.9182
-58.657
-58.412
-58.0463
-57.4072
-52
-52.4642
-53.0448
-52.9516
-53.6952
-53.552
-53.5144
-54.3065
-54.2861
-54.2563
-54.2094
-55.2627
-55.224
-55.2742
-55.4182
-55.7585
-56.2876
-56.2116
-56.3677
-56.3893
-56.383
-57.1709
-57.1981
-57.5365
-57.4604
-57.8498
-58.4513
-58.8807
-59.2095
-57.8001
-58.552
-59.4222
-60.0805
-59.331
-58.7056
-59.6024
-59.2579
-59.1163
-60.1591
-60.6643
-59.8819
-58.751
-59.0099
-59.5284
-58.824
-57.6085
-60.5337
-60.6748
-60.6746
-59.8401
-59.3648
-58.9904
-59.0393
-58.6459
-57.7186
-56.8207
-61.5556
-61.3928
-60.922
-60.2783
-59.7323
-59.0841
-58.7503
-58.5193
-57.9856
-57.5165
-57.6192
-61.0887
-61.2447
-60.6803
-59.846
-59.2195
-58.8974
-58.8565
-58.6985
-58.5108
-58.5258
-57.9512
-57.2337
-60.788
-60.4633
-59.956
-59.5146
-59.0992
-58.8683
-58.8908
-58.9073
-58.6491
-58.4126
-58.0549
-57.3887
-57.2638
-51.356
-51.9208
-51.8694
-52.3383
-52.4021
-52.8968
-52.9117
-52.8968
-53.6271
-53.4552
-53.4844
-53.4611
-54.2864
-54.1927
-54.274
-54.1921
-54.3283
-55.1654
-55.1445
-55.2059
-55.3846
-55.6976
-55.5188
-56.212
-56.2654
-56.409
-56.3118
-56.2584
-57.1113
-57.7354
-57.1312
-57.5683
-57.524
-57.787
-58.4117
-58.8536
-58.9474
-58.1799
-58.0904
-58.8231
-59.4875
-59.8974
-59.1806
-58.6639
-59.3743
-58.9618
-57.0653
-59.2055
-60.4055
-60.6614
-59.8347
-58.629
-59.017
-59.4211
-58.6094
-57.3726
-56.0844
-60.6563
-60.8051
-60.6562
-59.76
-59.4005
-58.953
-58.8829
-58.4961
-57.5964
-56.7028
-56.595
-61.6516
-61.4328
-60.8805
-60.2431
-59.6435
-59.0058
-58.6407
-58.3956
-57.9351
-57.4594
-57.7367
-57.0442
-61.1027
-61.2623
-60.6551
-59.7792
-59.1619
-58.8564
-58.8062
-58.6473
-58.5117
-58.5979
-58.0928
-57.2892
-57.2756
-60.8048
-60.4504
-59.9377
-59.4839
-59.078
-58.8479
-58.8751
-58.8977
-58.6426
-58.4157
-58.0587
-57.3753
-57.2396
-57.3776
-50.6576
-50.9007
-51.3477
-51.3494
-51.8137
-51.8816
-51.8364
-52.3123
-52.3238
-52.2841
-52.9268
-52.877
-52.8228
-52.8936
-53.5868
-53.4575
-53.3879
-53.393
-53.4709
-54.2283
-54.2659
-54.2339
-54.1835
-54.3326
-54.4686
-55.0645
-55.1131
-55.2078
-55.3424
-55.5597
-55.3691
-55.6855
-56.1142
-56.2509
-56.3745
-56.26
-56.3318
-57.028
-57.6153
-56.9232
-56.9968
-57.5805
-57.5374
-57.53
-58.1624
-58.7455
-58.7256
-57.8462
-56.6693
-58.2495
-59.0604
-59.7426
-59.6076
-59.0749
-58.5428
-59.127
-58.6194
-56.7851
-55.9134
-59.5363
-60.6299
-60.72
-59.6663
-58.647
-59.0157
-59.331
-58.4024
-57.1212
-55.8881
-55.4452
-60.816
-60.9002
-60.5878
-59.6739
-59.345
-58.9692
-58.7455
-58.3448
-57.4835
-56.5718
-56.3796
-56.8504
-61.7745
-61.4566
-60.8394
-60.1829
-59.6081
-58.9208
-58.5207
-58.2866
-57.886
-57.4627
-57.8974
-57.2121
-57.0757
-61.1082
-61.278
-60.6283
-59.7109
-59.1004
-58.8112
-58.755
-58.6003
-58.5284
-58.6528
-58.2059
-57.3598
-57.2691
-57.8568
-60.8025
-60.4348
-59.9124
-59.454
-59.0567
-58.8311
-58.8595
-58.8898
-58.6363
-58.4197
-58.0539
-57.3648
-57.2169
-57.3625
-57.0967
-50.4456
-50.6213
-50.7372
-50.833
-51.0683
-51.3172
-51.3766
-51.4412
-51.7922
-51.8224
-51.8443
-51.7882
-52.2591
-52.3239
-52.2365
-52.2716
-52.861
-52.7897
-52.7402
-52.752
-52.7316
-53.4527
-53.4287
-53.4211
-53.3845
-53.3284
-53.4548
-54.0757
-54.1342
-54.1265
-54.1219
-54.1415
-54.299
-54.4323
-55.0044
-55.0811
-55.0635
-55.2089
-55.3245
-55.2333
-55.6289
-55.2448
-56.1148
-56.3013
-56.3626
-56.1699
-56.2404
-56.7746
-57.3596
-56.5478
-55.765
-57.0655
-57.6596
-57.7162
-57.522
-58.0381
-58.5701
-58.522
-57.5216
-56.4217
-55.7668
-58.1247
-59.4065
-60.0675
-59.3247
-58.9035
-58.5071
-58.8637
-58.2515
-56.5507
-55.7444
-54.9348
-59.8804
-60.8315
-60.8014
-59.4967
-58.5401
-58.872
-59.1739
-58.1614
-56.871
-55.705
-55.389
-55.6696
-60.9525
-60.9637
-60.5197
-59.5786
-59.3657
-58.9731
-58.6046
-58.2028
-57.3522
-56.5147
-56.3904
-56.9079
-57.2435
-61.8859
-61.48
-60.8331
-60.1051
-59.5518
-58.8145
-58.4208
-58.2055
-57.8461
-57.471
-58.0775
-57.4899
-57.144
-57.8967
-61.1239
-61.2753
-60.5893
-59.6557
-59.0356
-58.7628
-58.7082
-58.5586
-58.542
-58.699
-58.3062
-57.4286
-57.2697
-57.853
-57.6341
-60.7836
-60.4144
-59.8856
-59.4234
-59.0355
-58.8117
-58.8442
-58.8839
-58.6296
-58.4243
-58.0408
-57.359
-57.1976
-57.3479
-57.0909
-57.0511
-50.2535
-50.446
-50.5301
-50.588
-50.7524
-50.7744
-50.9001
-50.9652
-51.0759
-51.3427
-51.3559
-51.4023
-51.4185
-51.7464
-51.8099
-51.7901
-51.7632
-51.8097
-52.204
-52.2526
-52.1724
-52.1529
-52.2944
-52.7164
-52.665
-52.7211
-52.7106
-52.6797
-52.7646
-53.329
-53.3554
-53.2806
-53.3585
-53.2586
-53.3124
-53.3923
-54.0152
-54.0375
-53.9937
-54.1146
-53.9095
-54.095
-54.3059
-54.1084
-54.9564
-54.9851
-55.0105
-55.2566
-55.2304
-55.1198
-55.4153
-55.0973
-54.5591
-56.027
-56.3984
-56.4278
-56.1975
-55.989
-56.5215
-57.2939
-56.243
-55.4994
-54.6459
-57.0352
-57.6131
-57.853
-57.6628
-57.9687
-58.2426
-58.0686
-57.2577
-56.1
-55.5435
-54.7286
-58.9134
-59.7398
-60.3634
-59.1084
-58.7341
-58.3883
-58.5451
-57.9293
-56.4036
-55.5828
-54.8037
-54.5252
-60.2694
-61.1862
-60.8799
-59.3299
-58.3934
-58.8527
-58.9804
-57.9397
-56.6294
-55.5113
-55.2643
-55.6636
-56.1252
-61.0825
-61.062
-60.4651
-59.4628
-59.4058
-58.9211
-58.4515
-57.9981
-57.183
-56.4839
-56.4498
-57.2127
-57.4527
-58.1357
-61.9737
-61.4986
-60.7842
-59.9967
-59.4807
-58.6992
-58.3363
-58.1437
-57.8022
-57.523
-58.2558
-57.844
-57.3094
-57.9574
-58.0271
-61.1453
-61.254
-60.5307
-59.6053
-58.9656
-58.7163
-58.6606
-58.5218
-58.5542
-58.7472
-58.3968
-57.5056
-57.2692
-57.851
-57.6041
-57.5632
-60.7628
-60.3942
-59.8564
-59.3938
-59.0139
-58.7912
-58.8284
-58.8745
-58.6229
-58.4277
-58.0237
-57.3561
-57.1824
-57.3333
-57.0842
-57.0476
-56.8607
-50.2302
-50.2213
-50.2719
-50.4476
-50.5287
-50.5906
-50.5718
-50.6859
-50.7627
-50.81
-50.8826
-50.9014
-50.9755
-51.0672
-51.2187
-51.2849
-51.2886
-51.3532
-51.4015
-51.6963
-51.8247
-51.7474
-51.6793
-51.7208
-51.7635
-52.1009
-52.1442
-52.1219
-52.1276
-52.1933
-52.1766
-52.671
-52.6165
-52.698
-52.6122
-52.7166
-52.6781
-52.6528
-53.3096
-53.3361
-53.2754
-53.2405
-53.3201
-53.2914
-53.2717
-53.2328
-53.941
-54.011
-54.0347
-53.9207
-53.9206
-54.0482
-54.228
-53.917
-53.7053
-54.8244
-54.8258
-54.9335
-55.0972
-55.1701
-55.1951
-55.1613
-54.7618
-54.5066
-54.2015
-55.9779
-56.4035
-56.4625
-56.0686
-55.725
-56.3597
-57.0209
-56.0317
-55.2938
-54.4323
-54.0145
-57.1983
-57.591
-57.7089
-57.4511
-57.7123
-57.9529
-57.7095
-57.0365
-55.8507
-55.3094
-54.5914
-54.0473
-59.3004
-60.1891
-60.3058
-59.0764
-58.2905
-58.1646
-58.249
-57.6438
-56.2149
-55.4343
-54.6431
-54.6227
-54.7563
-60.709
-61.5488
-60.7551
-59.1899
-58.3195
-58.7586
-58.7468
-57.7377
-56.4389
-55.3531
-55.2637
-55.6829
-56.1261
-57.5117
-61.2315
-61.1394
-60.3426
-59.356
-59.3562
-58.8834
-58.2816
-57.8259
-57.0637
-56.4636
-56.4615
-57.3628
-57.6904
-58.2916
-58.2635
-62.0288
-61.4849
-60.6992
-59.8457
-59.3666
-58.6062
-58.2396
-58.0957
-57.738
-57.5875
-58.4828
-58.1995
-57.45
-58.0222
-58.0337
-58.4482
-61.1468
-61.2136
-60.452
-59.548
-58.8969
-58.6889
-58.6163
-58.4893
-58.5616
-58.8008
-58.4771
-57.5824
-57.2763
-57.8527
-57.5758
-57.5636
-57.4386
-60.7423
-60.3732
-59.8266
-59.3656
-58.9964
-58.769
-58.8138
-58.8592
-58.6221
-58.4286
-58.004
-57.3519
-57.1661
-57.3155
-57.0755
-57.0422
-56.8542
-56.0527
-50.0585
-50.2055
-50.2365
-50.1985
-50.2324
-50.2902
-50.4215
-50.5421
-50.5636
-50.6345
-50.5467
-50.6271
-50.7416
-50.7402
-50.8058
-50.8174
-50.8991
-50.9654
-51.0087
-51.0725
-51.2199
-51.286
-51.3138
-51.3928
-51.2254
-51.2882
-51.578
-51.6772
-51.6922
-51.6678
-51.6285
-51.6334
-51.6613
-52.0638
-52.1381
-52.1236
-52.1439
-52.1722
-52.1608
-52.0689
-52.6233
-52.6477
-52.6754
-52.538
-52.6835
-52.6222
-52.6009
-52.4955
-53.2252
-53.2679
-53.2337
-53.1951
-53.2411
-53.2711
-53.2118
-53.0302
-52.7907
-53.8904
-53.965
-53.9158
-53.7861
-53.8849
-53.9947
-54.0794
-53.7449
-53.4922
-53.0636
-54.7621
-54.8209
-54.8351
-54.9936
-54.9797
-55.0907
-55.0877
-54.6334
-54.1977
-54.0269
-53.5855
-55.8887
-56.3325
-56.4046
-55.9083
-55.6281
-56.1281
-56.5074
-55.8059
-54.9106
-54.2165
-53.8078
-53.4561
-57.2053
-57.6465
-57.4636
-57.4965
-57.5278
-57.764
-57.4323
-56.7934
-55.6829
-55.0805
-54.5125
-54.0443
-53.7266
-59.5397
-60.6335
-60.3398
-59.1188
-57.9084
-57.9806
-57.9709
-57.358
-55.9762
-55.2919
-54.532
-54.5158
-54.8683
-55.4313
-61.1611
-61.7438
-60.7591
-58.9916
-58.2344
-58.5863
-58.4035
-57.5699
-56.3239
-55.2311
-55.2642
-55.7675
-56.331
-57.8573
-58.3474
-61.3815
-61.0984
-60.1839
-59.2221
-59.3165
-58.8549
-58.0869
-57.7203
-56.9755
-56.4251
-56.4982
-57.5302
-57.9512
-58.4235
-58.373
-58.1925
-62.0844
-61.4436
-60.6095
-59.694
-59.2604
-58.5344
-58.1291
-58.0501
-57.6706
-57.626
-58.6877
-58.5191
-57.5607
-58.0675
-58.0221
-58.4137
-58.6501
-61.144
-61.1693
-60.3564
-59.4804
-58.8358
-58.6709
-58.5709
-58.4575
-58.5622
-58.8522
-58.5544
-57.6381
-57.2656
-57.8579
-57.5443
-57.56
-57.4185
-56.7178
-60.719
-60.3535
-59.7958
-59.3396
-58.9784
-58.7473
-58.7996
-58.844
-58.6278
-58.4278
-57.9828
-57.3466
-57.1464
-57.2967
-57.0642
-57.0369
-56.8538
-56.0586
-56.1277
-50.1838
-50.0641
-49.9886
-50.2261
-50.2307
-50.2427
-50.1604
-50.1882
-50.2697
-50.3632
-50.4323
-50.5051
-50.5888
-50.6153
-50.6315
-50.5604
-50.6043
-50.7342
-50.7653
-50.7304
-50.7349
-50.8009
-50.8919
-50.9966
-51.0694
-51.0626
-50.8816
-51.1314
-51.2446
-51.3692
-51.3341
-51.2792
-51.2709
-51.2029
-51.5995
-51.6459
-51.5824
-51.6667
-51.6158
-51.6823
-51.5812
-51.4628
-52.0049
-52.0759
-52.0705
-52.066
-52.0695
-52.0865
-52.038
-51.9233
-52.5522
-52.5602
-52.5767
-52.5594
-52.578
-52.5122
-52.5053
-52.3919
-52.271
-53.2488
-53.2277
-53.1984
-53.2066
-53.2187
-53.1622
-53.0529
-52.9169
-52.7079
-52.6407
-53.9886
-53.8612
-53.9156
-53.7825
-53.862
-53.9259
-53.9053
-53.6946
-53.3379
-53.0051
-52.6528
-54.7211
-54.629
-54.7572
-54.8191
-55.013
-54.9322
-54.8474
-54.519
-54.1366
-53.807
-53.3738
-53.0835
-56.1354
-56.2912
-56.4833
-55.98
-55.8826
-56.0161
-56.1698
-55.5089
-54.755
-54.0663
-53.6653
-53.5203
-53.1206
-57.1734
-57.6374
-57.6633
-57.3574
-57.4765
-57.5856
-57.1581
-56.5146
-55.4935
-54.9996
-54.3969
-54.0784
-53.7594
-54.3408
-60.0755
-60.9081
-60.214
-58.8633
-57.8031
-57.8365
-57.6962
-57.1079
-55.7691
-55.1335
-54.419
-54.6107
-54.8559
-55.5442
-56.4425
-61.5508
-61.8757
-60.497
-58.8212
-58.1199
-58.3694
-58.0774
-57.3692
-56.2776
-55.1449
-55.2414
-55.7497
-56.518
-58.0888
-58.6683
-58.2575
-61.4531
-61.0945
-60.054
-59.0757
-59.2324
-58.7128
-57.8817
-57.5747
-56.8728
-56.4128
-56.6052
-57.7931
-58.1696
-58.513
-58.3814
-58.1726
-58.4833
-62.1522
-61.4174
-60.4924
-59.547
-59.1255
-58.4691
-58.0036
-58.0014
-57.6029
-57.683
-58.807
-58.7078
-57.6897
-58.1276
-58.0132
-58.396
-58.4782
-57.5584
-61.1351
-61.1172
-60.2532
-59.4231
-58.7731
-58.6438
-58.5117
-58.4287
-58.5613
-58.8981
-58.6178
-57.678
-57.2606
-57.8639
-57.5126
-57.5543
-57.3922
-56.6831
-56.4477
-60.6913
-60.336
-59.7647
-59.3099
-58.9592
-58.7274
-58.7855
-58.8309
-58.6338
-58.4258
-57.9609
-57.3396
-57.1251
-57.2785
-57.0593
-57.0294
-56.8509
-56.0626
-56.1423
-55.6184
-49.7695
-50.2078
-50.0529
-50.0434
-49.9937
-49.9637
-50.1643
-50.2456
-50.2541
-50.2264
-50.1337
-50.1604
-50.2162
-50.3026
-50.3532
-50.4521
-50.5161
-50.5455
-50.5983
-50.572
-50.5608
-50.5229
-50.635
-50.735
-50.7286
-50.7948
-50.6623
-50.5396
-50.7988
-50.8644
-50.9627
-51.0307
-51.0142
-50.9335
-50.8419
-51.1445
-51.1918
-51.3323
-51.2379
-51.2093
-51.1764
-51.1884
-51.1105
-51.4999
-51.6515
-51.575
-51.6236
-51.5371
-51.5742
-51.6083
-51.4633
-51.4443
-51.9862
-52.0236
-52.0642
-52.0073
-51.9978
-51.9918
-51.9241
-51.9048
-51.6657
-52.4712
-52.5317
-52.5082
-52.5144
-52.5887
-52.4865
-52.3096
-52.3838
-52.2773
-52.0488
-53.0936
-53.1238
-53.1099
-53.0604
-53.1146
-53.1084
-52.9878
-52.8939
-52.6011
-52.5891
-52.2902
-53.7284
-53.8036
-53.8792
-53.7845
-53.7263
-53.8205
-53.7678
-53.571
-53.344
-52.9794
-52.6713
-52.4723
-54.6388
-54.6413
-54.5652
-54.5272
-54.818
-54.8531
-54.6709
-54.3377
-53.9737
-53.7539
-53.3457
-52.9735
-52.6795
-56.1151
-56.1889
-56.4239
-55.9658
-55.6083
-55.7903
-55.9879
-55.476
-54.6225
-53.8792
-53.5962
-53.1845
-53.2984
-52.8484
-57.4649
-57.6013
-57.6095
-57.1344
-57.4026
-57.258
-56.9771
-56.3006
-55.3153
-54.9232
-54.3843
-54.1037
-54.0671
-54.5395
-54.8777
-60.5069
-60.9473
-59.9888
-58.7346
-57.6552
-57.5531
-57.4262
-56.823
-55.6295
-55.0747
-54.3647
-54.6562
-54.9232
-55.7096
-56.6227
-57.5081
-61.8469
-61.8499
-60.2308
-58.6323
-58.0279
-58.2448
-57.8179
-57.1968
-56.2196
-55.145
-55.1457
-55.7809
-56.6631
-58.2617
-58.789
-58.4702
-57.7523
-61.467
-61.0714
-59.9053
-59.0266
-59.1595
-58.563
-57.6568
-57.4681
-56.7815
-56.3824
-56.7118
-58.0291
-58.3626
-58.6315
-58.3889
-58.1343
-58.3297
-58.4292
-62.2017
-61.3616
-60.3731
-59.406
-59.0677
-58.3815
-57.8669
-57.9579
-57.5281
-57.7313
-58.9412
-58.837
-57.8062
-58.1851
-58.0064
-58.3011
-58.3059
-57.4236
-56.7756
-61.1124
-61.0562
-60.1497
-59.3694
-58.7142
-58.6096
-58.4555
-58.4022
-58.5623
-58.9356
-58.6751
-57.706
-57.2633
-57.8609
-57.4757
-57.5431
-57.3577
-56.6372
-56.3902
-56.332
-60.664
-60.3164
-59.7378
-59.2872
-58.9331
-58.7087
-58.7715
-58.8183
-58.6396
-58.4225
-57.939
-57.331
-57.1044
-57.2634
-57.0535
-57.02
-56.8433
-56.0629
-56.1519
-55.6161
-55.9543
-49.8113
-49.8302
-49.7305
-50.2318
-50.1398
-50.0262
-50.0059
-49.9822
-49.9765
-50.0135
-50.1516
-50.2728
-50.274
-50.191
-50.2324
-50.169
-50.1842
-50.2331
-50.2931
-50.3268
-50.3732
-50.4223
-50.534
-50.5386
-50.4965
-50.5766
-50.5122
-50.4184
-50.5213
-50.6341
-50.6583
-50.7184
-50.7159
-50.7085
-50.5732
-50.4441
-50.7581
-50.8616
-50.9776
-50.9581
-50.9487
-50.8523
-50.7823
-50.7401
-51.087
-51.189
-51.2303
-51.2523
-51.1864
-51.1558
-51.1767
-50.9883
-50.9567
-51.4266
-51.5707
-51.6177
-51.5512
-51.5805
-51.4509
-51.4463
-51.3777
-51.3162
-51.1941
-51.8733
-51.9857
-52.0034
-51.971
-51.9331
-51.9889
-51.9504
-51.8696
-51.6111
-51.5635
-52.3662
-52.4595
-52.4647
-52.4976
-52.5097
-52.4028
-52.4006
-52.2418
-52.1752
-51.9288
-51.8149
-53.0012
-53.0621
-53.0605
-52.9805
-53.0357
-53.0259
-52.9501
-52.7276
-52.3676
-52.465
-52.1961
-52.12
-53.6607
-53.6318
-53.7862
-53.6828
-53.6636
-53.7158
-53.6435
-53.5145
-53.1887
-52.7671
-52.5803
-52.3809
-52.2639
-54.5326
-54.7064
-54.5938
-54.433
-54.7308
-54.8306
-54.5057
-54.1925
-53.5099
-53.681
-53.2352
-52.8058
-52.7178
-52.6291
-56.0689
-56.4779
-56.4092
-55.9488
-55.4614
-55.5504
-55.7149
-55.1311
-54.4914
-53.7668
-53.4884
-53.1305
-53.4068
-53.1215
-53.5279
-57.6731
-57.5946
-57.6112
-56.8
-57.1722
-57.0651
-56.6065
-56.0966
-55.2827
-54.7015
-54.3581
-54.0941
-54.1619
-54.7954
-54.9797
-55.125
-60.8344
-60.8492
-59.9286
-58.4992
-57.3896
-57.3334
-57.2259
-56.5735
-55.5111
-54.9248
-54.3623
-54.6424
-55.0031
-55.7936
-56.7642
-57.7233
-57.8486
-62.145
-61.8345
-60.0261
-58.4312
-57.895
-58.1868
-57.5941
-56.9979
-56.0805
-55.12
-55.1532
-55.8595
-56.7154
-58.3937
-58.8276
-58.6074
-57.7505
-57.4937
-61.4675
-60.9981
-59.7679
-58.9632
-59.0862
-58.5203
-57.4713
-57.3639
-56.6863
-56.3738
-56.8055
-58.178
-58.5504
-58.8077
-58.3525
-58.116
-58.157
-58.1897
-57.8271
-62.2189
-61.2996
-60.2257
-59.2343
-59.1066
-58.3025
-57.7742
-57.9162
-57.4702
-57.8026
-59.065
-58.9312
-57.8836
-58.2189
-57.9761
-58.1441
-58.1512
-57.2726
-56.6826
-57.3852
-61.0909
-60.9991
-60.0488
-59.3021
-58.6574
-58.5648
-58.4148
-58.3791
-58.5626
-58.9593
-58.7226
-57.7222
-57.2641
-57.8553
-57.4377
-57.5249
-57.3175
-56.5873
-56.335
-56.2952
-56.6699
-60.6349
-60.2925
-59.7106
-59.2679
-58.9142
-58.6913
-58.7573
-58.806
-58.6451
-58.419
-57.9176
-57.3211
-57.0858
-57.2498
-57.0404
-57.01
-56.8367
-56.0628
-56.1605
-55.6129
-55.9157
-55.6679
-60.581
-49.4657
-49.7925
-49.7423
-49.7971
-49.7667
-49.7209
-50.1339
-50.1801
-50.0656
-50.0288
-50.0049
-50.0292
-49.9892
-49.9919
-50.0238
-50.1545
-50.2485
-50.2733
-50.2124
-50.1688
-50.1735
-50.1244
-50.1383
-50.2181
-50.3049
-50.2854
-50.2926
-50.2195
-50.3937
-50.5356
-50.5365
-50.5286
-50.5186
-50.4809
-50.4016
-50.3336
-50.4855
-50.6054
-50.6326
-50.6923
-50.6678
-50.6572
-50.5502
-50.4625
-50.3881
-50.7586
-50.7923
-50.914
-50.9179
-50.8894
-50.7609
-50.6965
-50.7003
-50.6219
-50.9707
-51.1377
-51.1703
-51.1742
-51.1947
-51.0964
-51.1237
-50.9655
-50.9084
-50.8439
-51.4097
-51.4685
-51.58
-51.5348
-51.4787
-51.4617
-51.3998
-51.3109
-51.1923
-51.1467
-51.0452
-51.8392
-51.958
-51.9625
-52.0161
-51.9665
-51.8558
-51.8447
-51.8196
-51.6178
-51.5264
-51.3749
-52.3381
-52.4122
-52.4053
-52.4216
-52.3957
-52.36
-52.3176
-52.1894
-52.0506
-51.8595
-51.7311
-51.6022
-52.8957
-52.956
-53.0884
-52.9919
-52.9875
-52.9757
-52.7896
-52.5781
-52.2894
-52.3188
-52.1352
-51.9574
-51.8422
-53.6577
-53.6567
-53.745
-53.6503
-53.5314
-53.5642
-53.564
-53.2378
-53.0147
-52.7189
-52.5233
-52.4387
-52.3935
-52.1069
-54.4804
-54.6644
-54.5948
-54.5557
-54.5829
-54.7681
-54.2383
-53.9276
-53.4818
-53.5393
-53.1174
-52.7077
-52.5727
-52.7264
-52.6002
-56.1593
-56.2525
-55.9821
-55.6256
-55.4647
-55.5551
-55.4712
-54.897
-54.3843
-53.684
-53.4482
-53.1971
-53.0796
-53.4906
-53.7768
-54.3614
-57.8975
-57.9159
-57.3588
-56.7058
-56.9256
-56.901
-56.3374
-55.7585
-55.1472
-54.5027
-54.3417
-54.1049
-54.1721
-54.8641
-55.0809
-55.3007
-56.2081
-60.9756
-60.8151
-59.6475
-58.4347
-57.212
-57.1607
-57.0166
-56.3819
-55.3916
-54.7185
-54.3441
-54.634
-54.9564
-55.7014
-56.8106
-57.7515
-57.6978
-56.3586
-62.2502
-61.7717
-59.7179
-58.1485
-57.7538
-58.0254
-57.3485
-56.7775
-55.9456
-55.0759
-55.1643
-55.8844
-56.9108
-58.6507
-58.8366
-58.6312
-57.6614
-57.1755
-57.2916
-61.473
-60.9007
-59.6481
-58.8526
-58.9521
-58.4259
-57.3139
-57.2696
-56.5735
-56.3795
-56.9197
-58.2955
-58.7205
-59.017
-58.2719
-58.0736
-57.9776
-57.9201
-57.6118
-58.6074
-62.2087
-61.2121
-60.1302
-59.0732
-59.1197
-58.2348
-57.7313
-57.8678
-57.4159
-57.8959
-59.1229
-59.0144
-57.9542
-58.2405
-57.9109
-57.9954
-58.0045
-57.1201
-56.5866
-57.1756
-57.1205
-61.069
-60.9303
-59.9435
-59.2253
-58.6328
-58.5113
-58.3743
-58.3664
-58.5597
-58.9686
-58.7522
-57.7253
-57.2561
-57.8495
-57.4017
-57.4992
-57.2656
-56.5303
-56.2802
-56.2605
-56.6123
-55.9568
-60.9912
-60.6076
-60.2653
-59.6789
-59.2451
-58.8992
-58.6737
-58.7444
-58.7948
-58.6507
-58.4158
-57.8968
-57.3102
-57.0691
-57.2347
-57.0266
-56.9995
-56.8303
-56.0609
-56.1649
-55.6092
-55.8827
-55.6379
-55.8517
-60.2124
-49.5265
-49.4819
-49.8255
-49.8632
-49.7945
-49.7913
-49.7521
-49.7896
-49.7495
-50.1403
-50.1317
-50.0515
-49.9856
-49.9523
-49.9796
-49.9812
-49.984
-50.039
-50.016
-50.0076
-50.1178
-50.1756
-50.2027
-50.2474
-50.1678
-50.1378
-50.1255
-50.1494
-50.1616
-50.2053
-50.2296
-50.2852
-50.2707
-50.1851
-50.1211
-50.3589
-50.4546
-50.524
-50.5301
-50.5052
-50.3936
-50.3614
-50.2686
-50.2535
-50.4701
-50.5788
-50.6076
-50.6523
-50.6276
-50.5813
-50.4705
-50.4277
-50.3283
-50.2774
-50.6145
-50.8076
-50.769
-50.8184
-50.8738
-50.8613
-50.6981
-50.6586
-50.5378
-50.478
-50.9765
-51.1045
-51.1767
-51.1548
-51.0999
-51.0898
-50.9816
-50.9399
-50.8905
-50.8316
-50.7191
-51.3374
-51.4215
-51.452
-51.4587
-51.4715
-51.4097
-51.3526
-51.3856
-51.1565
-51.0658
-50.9412
-50.8925
-51.7835
-51.8188
-51.8922
-51.9462
-51.8113
-51.8411
-51.7736
-51.8055
-51.5858
-51.4344
-51.3514
-51.2066
-52.2798
-52.3684
-52.3991
-52.3548
-52.338
-52.2956
-52.2706
-52.1422
-51.9418
-51.8706
-51.6734
-51.5394
-51.3627
-52.8158
-52.8455
-52.9235
-52.9334
-52.9155
-52.8961
-52.7326
-52.4934
-52.5167
-52.1834
-52.1437
-51.7783
-51.9233
-51.6531
-53.5201
-53.4331
-53.4668
-53.6392
-53.5136
-53.5897
-53.4776
-53.2311
-52.939
-52.7028
-52.5009
-52.4906
-52.3153
-52.1898
-52.1677
-54.391
-54.6107
-54.5799
-54.376
-54.3838
-54.6282
-54.2611
-53.8563
-53.4435
-53.3241
-53.1575
-52.6931
-52.4893
-52.5898
-52.7653
-52.7917
-56.0744
-56.2342
-55.9958
-55.3019
-55.4424
-55.3887
-55.2731
-54.8261
-54.2758
-53.6906
-53.5832
-53.242
-53.1464
-53.4302
-53.9174
-54.3294
-53.9514
-57.9575
-57.8349
-57.0983
-56.5777
-56.6561
-56.7024
-56.1528
-55.6191
-54.9059
-54.4717
-54.226
-54.1584
-54.253
-54.726
-55.0982
-55.4077
-56.0336
-56.7571
-61.0569
-60.5599
-59.2831
-58.0292
-57.1022
-56.9551
-56.7399
-56.1003
-55.3232
-54.6372
-54.3833
-54.614
-54.9363
-55.7084
-56.8048
-57.6637
-57.5697
-56.3263
-56.0989
-62.2624
-61.5543
-59.3926
-57.8037
-57.6035
-57.8889
-57.1313
-56.5565
-55.8362
-55.045
-55.2027
-55.8629
-57.0732
-58.784
-58.7302
-58.4651
-57.5556
-56.9037
-56.7293
-57.2584
-61.4537
-60.7512
-59.5309
-58.7771
-58.7745
-58.3602
-57.1716
-57.1626
-56.5422
-56.3835
-56.9697
-58.4321
-58.8143
-59.165
-58.2106
-57.9776
-57.8106
-57.634
-57.2441
-58.2245
-57.3954
-62.1891
-61.0843
-59.9058
-59.0772
-59.0187
-58.173
-57.693
-57.7918
-57.3735
-57.98
-59.1602
-59.1069
-58.0091
-58.2518
-57.7672
-57.8253
-57.7397
-56.961
-56.4889
-56.9617
-57.028
-56.3054
-62.0295
-61.0328
-60.8442
-59.8395
-59.159
-58.6023
-58.4777
-58.3298
-58.36
-58.5477
-58.9619
-58.7687
-57.7179
-57.2419
-57.8202
-57.3479
-57.4694
-57.2118
-56.4722
-56.2261
-56.2217
-56.5393
-55.9036
-56.2154
-60.6443
-60.2407
-59.6475
-59.2248
-58.8806
-58.6565
-58.7324
-58.7842
-58.6559
-58.4111
-57.8763
-57.2984
-57.0531
-57.2186
-57.0153
-56.9872
-56.8229
-56.0587
-56.1677
-55.6047
-55.8524
-55.6231
-55.8163
-55.4311
-59.5874
-49.6055
-49.5686
-49.4782
-49.8577
-49.9373
-49.8135
-49.7735
-49.7517
-49.7435
-49.7564
-49.7973
-49.8239
-50.1266
-50.0904
-50.0455
-50.0059
-49.9245
-50.0351
-49.9912
-49.9853
-49.9652
-49.9971
-50.0064
-49.9705
-49.9455
-50.094
-50.1754
-50.2072
-50.1936
-50.1023
-50.1311
-50.0303
-50.0303
-50.1505
-50.1716
-50.2049
-50.1759
-50.2433
-50.2124
-50.1543
-50.0712
-50.0119
-50.2996
-50.4547
-50.4958
-50.4532
-50.4693
-50.4498
-50.3104
-50.206
-50.1632
-50.1171
-50.47
-50.5923
-50.5774
-50.5231
-50.5374
-50.5451
-50.4413
-50.3757
-50.3004
-50.2363
-50.1576
-50.65
-50.7722
-50.7309
-50.7978
-50.8356
-50.7781
-50.6915
-50.6095
-50.5571
-50.474
-50.3723
-50.9593
-51.0063
-51.0409
-51.0953
-51.0122
-51.0238
-50.9248
-50.9324
-50.8491
-50.7636
-50.6528
-50.6012
-51.3229
-51.3726
-51.4249
-51.3862
-51.4292
-51.359
-51.3875
-51.3014
-51.1968
-50.9879
-50.9344
-50.8505
-50.7481
-51.7462
-51.7427
-51.7943
-51.8648
-51.8652
-51.7618
-51.6739
-51.6157
-51.5414
-51.3984
-51.3359
-51.1463
-51.029
-52.1911
-52.2744
-52.2899
-52.2894
-52.2975
-52.2686
-52.1649
-52.1084
-51.8936
-51.7517
-51.5983
-51.4872
-51.5205
-51.3287
-52.7752
-52.8079
-52.8558
-52.7968
-52.85
-52.8252
-52.6355
-52.5045
-52.4625
-52.1024
-52.1451
-51.8882
-51.6617
-51.571
-51.641
-53.4803
-53.5721
-53.6096
-53.4463
-53.5104
-53.521
-53.3979
-53.1926
-52.9006
-52.5569
-52.5654
-52.5254
-52.3241
-52.2046
-52.1129
-52.35
-54.3575
-54.5392
-54.5544
-54.3567
-54.2262
-54.394
-54.1511
-53.7807
-53.3512
-53.2147
-53.0131
-52.784
-52.3791
-52.5395
-52.8531
-53.0398
-53.161
-56.0929
-56.2996
-55.8698
-55.1923
-55.3263
-55.2229
-55.1883
-54.6504
-54.2061
-53.7157
-53.562
-53.3685
-53.3207
-53.5107
-53.9187
-54.2923
-54.0006
-54.5264
-57.9383
-57.7986
-56.8049
-56.4072
-56.4335
-56.4463
-55.962
-55.4762
-54.7725
-54.3837
-54.1664
-54.1656
-54.2385
-54.7393
-55.1484
-55.2514
-55.8323
-56.4929
-55.3319
-61.0592
-60.2673
-58.9932
-57.7019
-56.9106
-56.8725
-56.4826
-55.8682
-55.3249
-54.5512
-54.4341
-54.6663
-55.0076
-55.6522
-56.6735
-57.4298
-57.1521
-56.1051
-55.8872
-55.9232
-62.227
-61.2558
-58.9824
-57.4861
-57.5213
-57.7198
-56.8732
-56.3438
-55.741
-55.026
-55.2605
-55.8683
-56.9931
-58.7799
-58.5477
-58.3099
-57.4038
-56.613
-56.4999
-56.9413
-56.9204
-61.4454
-60.5491
-59.3745
-58.8219
-58.6273
-58.2406
-57.0712
-57.048
-56.4827
-56.3841
-56.9906
-58.5116
-58.7733
-59.1659
-58.2153
-57.8891
-57.7465
-57.3785
-56.987
-57.7674
-57.1614
-56.4904
-61.2916
-62.1239
-60.9124
-59.6723
-59.0917
-58.8876
-58.1196
-57.6661
-57.7266
-57.3341
-58.0543
-59.1294
-59.1429
-58.0227
-58.2455
-57.689
-57.6801
-57.6194
-56.8353
-56.3955
-56.7722
-56.9232
-56.2014
-56.2128
-60.6807
-60.7464
-59.7401
-59.1019
-58.5544
-58.4405
-58.3009
-58.3517
-58.527
-58.9403
-58.7613
-57.6971
-57.214
-57.7695
-57.2863
-57.4378
-57.1577
-56.4299
-56.1784
-56.1653
-56.4985
-55.8495
-56.1394
-55.6108
-59.5774
-59.6184
-59.2022
-58.8644
-58.6395
-58.7209
-58.7751
-58.6608
-58.4058
-57.8553
-57.2863
-57.0376
-57.2006
-57.0032
-56.9734
-56.8116
-56.0558
-56.1684
-55.6003
-55.8249
-55.6065
-55.7777
-55.3417
-55.2857
-59.1653
-49.5252
-49.5401
-49.5812
-49.5475
-49.8707
-49.824
-49.7964
-49.7622
-49.7629
-49.7258
-49.7819
-49.7712
-49.7902
-49.7431
-49.7699
-50.15
-50.1107
-50.0462
-49.955
-49.9975
-49.8934
-49.7582
-49.9503
-49.9739
-49.9997
-49.9876
-49.962
-49.9677
-49.8836
-49.8966
-50.0517
-50.1296
-50.172
-50.1389
-50.071
-50.0536
-50.0241
-49.9473
-49.8983
-50.1595
-50.1941
-50.1522
-50.109
-50.1891
-50.1733
-50.1174
-50.0326
-49.9675
-49.9475
-50.3416
-50.4491
-50.457
-50.4671
-50.3712
-50.2617
-50.2692
-50.1709
-50.0848
-50.0441
-49.9814
-50.4571
-50.4973
-50.5734
-50.5044
-50.4567
-50.4366
-50.4417
-50.314
-50.2548
-50.1759
-50.052
-50.071
-50.6808
-50.7127
-50.8102
-50.7703
-50.7942
-50.7173
-50.6481
-50.5764
-50.4523
-50.4651
-50.3964
-50.2821
-50.9231
-50.9858
-50.9923
-51.0353
-51.1175
-50.9368
-50.9086
-50.8311
-50.7715
-50.645
-50.577
-50.5911
-50.4874
-51.2698
-51.394
-51.3254
-51.4096
-51.3509
-51.3366
-51.2537
-51.1986
-51.087
-50.969
-50.9329
-50.8225
-50.7842
-50.5741
-51.6824
-51.7952
-51.7979
-51.764
-51.7911
-51.7335
-51.6077
-51.5559
-51.4936
-51.3921
-51.2812
-51.1391
-51.0155
-51.0149
-52.1945
-52.1668
-52.259
-52.1966
-52.2404
-52.1986
-52.1587
-51.9461
-51.8339
-51.7903
-51.6352
-51.4885
-51.3418
-51.3182
-51.2617
-52.8047
-52.8055
-52.8007
-52.7999
-52.7736
-52.6685
-52.6774
-52.4432
-52.3257
-52.0255
-51.9824
-51.924
-51.8103
-51.4784
-51.606
-51.6647
-53.4533
-53.6545
-53.6277
-53.535
-53.3988
-53.4843
-53.3989
-53.0653
-52.8734
-52.509
-52.5022
-52.4366
-52.3418
-52.1983
-52.2103
-52.316
-52.1877
-54.3892
-54.5008
-54.3546
-54.3077
-54.2842
-54.261
-54.0547
-53.7224
-53.3288
-53.0945
-52.8679
-52.8374
-52.5734
-52.6968
-52.9292
-53.1069
-53.1383
-53.3189
-56.1049
-56.2713
-55.8521
-55.2439
-55.1283
-55.1402
-55.0786
-54.469
-54.1336
-53.7482
-53.508
-53.4121
-53.6012
-53.627
-53.9161
-54.2495
-53.7928
-54.3669
-54.8201
-57.817