/*--------------------------------*- C++ -*----------------------------------*\
  =========                 |
  \\      /  F ield         | OpenFOAM: The Open Source CFD Toolbox
   \\    /   O peration     | Website:  https://openfoam.org
    \\  /    A nd           | Version:  7
     \\/     M anipulation  |
\*---------------------------------------------------------------------------*/
FoamFile
{
    version     2.0;
    format      ascii;
    class       surfaceScalarField;
    location    "9.5";
    object      phi;
}
// * * * * * * * * * * * * * * * * * * * * * * * * * * * * * * * * * * * * * //

dimensions      [0 3 -1 0 0 0 0];

internalField   nonuniform List<scalar> 
53739
(
-5.25073e-06
-0.00161762
-6.51002e-05
-1.81644e-05
5.71465e-07
-0.000241503
-9.03033e-06
-0.00161263
-6.54459e-05
-1.5e-05
-0.00161761
-6.69907e-05
-9.23129e-05
0.00240706
-0.000368446
-2.30261e-05
5.59441e-05
-0.000243596
-8.83925e-05
0.000623048
-0.000252355
-1.34623e-05
-0.0016036
-6.56833e-05
-1.97146e-05
-0.00159542
-6.79118e-05
-6.20402e-05
-0.00194694
-6.18867e-05
-0.000194353
0.00343274
-0.000246008
-9.47367e-05
0.00253532
-0.000375601
-0.000345683
0.0029695
-0.00040295
-2.05439e-05
0.000105741
-0.000245688
-9.55125e-05
0.000709813
-0.000254563
-0.000178054
0.000435385
-0.000229715
-1.83242e-05
-0.00158988
-6.5893e-05
-2.35682e-05
-0.00156992
-6.76157e-05
-6.34294e-05
-0.00188919
-6.22335e-05
-6.39345e-05
-0.00174005
-6.36755e-05
-0.000366325
0.00449953
-8.05347e-05
-0.000166101
0.00354608
-0.000291277
-0.000394166
0.0039608
-0.000383118
-7.28994e-05
0.00263975
-0.000376663
-0.000270836
0.0031705
-0.000401284
-0.000196677
0.00210522
-0.000420971
-1.51207e-05
0.000146625
-0.000248171
-8.50777e-05
0.000782823
-0.000257189
-0.000174325
0.000521432
-0.000229714
-0.000134891
-0.000760321
-0.000217956
-2.34019e-05
-0.00157107
-6.6151e-05
-2.78204e-05
-0.00154014
-6.78568e-05
-6.94644e-05
-0.00182562
-6.17195e-05
-7.12984e-05
-0.00166604
-6.49481e-05
-5.11713e-05
-0.00104401
-6.5511e-05
-0.000354943
0.00360916
0.000812739
-0.000320861
0.00465398
-6.42476e-05
-0.000336257
0.00525607
-0.000115695
-0.000170332
0.00371644
-0.000335195
-0.000292194
0.00410196
-0.000411078
-0.000225582
0.00333929
-0.000484102
-3.7584e-05
0.00271879
-0.000389674
-0.000208847
0.00331129
-0.000393684
-0.000238018
0.00218165
-0.000414019
-0.000185072
0.000755557
-0.000409023
-1.58923e-05
0.000183952
-0.000250475
-8.16021e-05
0.000848731
-0.000260297
-0.000172075
0.000596101
-0.000229247
-0.000149876
-0.000695478
-0.00021598
-8.72085e-05
-0.000920077
-0.000212402
-2.96981e-05
-0.00154635
-6.64317e-05
-3.14536e-05
-0.00150666
-6.81804e-05
-7.20374e-05
-0.00175978
-6.16557e-05
-7.86625e-05
-0.00158536
-6.37428e-05
-5.04815e-05
-0.000992476
-6.59972e-05
-5.18771e-05
-0.000495478
-7.13891e-05
-0.000650297
0.00525409
0.00126812
-0.00030775
0.00371157
0.000898356
-0.000360051
0.00523776
0.000575989
-0.000330014
0.00482382
-1.46163e-05
-0.000324496
0.00530775
-8.36249e-05
-0.000278208
0.0048584
-0.000275083
-0.00013033
0.00388299
-0.000339488
-0.000213847
0.00419686
-0.000425094
-0.000280962
0.00342041
-0.000449252
-0.000250623
0.00226424
-0.000437199
-9.50727e-05
0.00285226
-0.000391146
-0.000204247
0.00344166
-0.000397396
-0.000235826
0.00225638
-0.00040467
-0.000197543
0.00079465
-0.000405444
-0.000106325
0.000472903
-0.000393254
-7.19278e-06
0.000207446
-0.000253413
-7.45424e-05
0.000903413
-0.000262068
-0.000165819
0.00066144
-0.000231854
-0.00017541
-0.000614698
-0.000213279
-9.44118e-05
-0.000882732
-0.000209395
-7.36623e-05
-4.62069e-05
-0.000220962
-3.45155e-05
-0.00151725
-6.66023e-05
-3.4867e-05
-0.00146964
-6.85851e-05
-7.52103e-05
-0.00169055
-6.22023e-05
-8.4136e-05
-0.00149961
-6.32634e-05
-6.19498e-05
-0.000928867
-6.54029e-05
-5.28731e-05
-0.000437399
-7.12036e-05
-5.02009e-06
0.000499924
-8.6063e-05
-0.00075736
0.00610993
0.00175823
-0.000579201
0.00530983
0.00145253
-0.000435038
0.00502475
0.00136584
-0.000292686
0.00380536
0.000923697
-0.000357039
0.00547746
0.000691197
-0.000268033
0.00645764
0.00030483
-0.00029642
0.00498478
1.66512e-05
-0.000234098
0.00538844
-7.50542e-05
-0.00017019
0.00490822
-0.00024422
-0.000315763
0.00229209
-0.000303714
-0.000194371
0.00404661
-0.000342495
-0.000237407
0.00430846
-0.000417934
-0.000268772
0.00346152
-0.000433253
-0.000248171
0.00227153
-0.000405918
-0.000154596
0.00228122
-0.000452138
-1.14993e-05
0.00290303
-0.00040018
-0.000169106
0.0035433
-0.000398224
-0.000199122
0.00229954
-0.000407248
-0.000231494
0.000847127
-0.000401063
-0.000119989
0.000484255
-0.000391219
-5.37675e-05
0.000882723
-0.00039518
-1.34789e-05
0.000233344
-0.000256538
-5.76854e-05
0.000937048
-0.00026423
-0.000160171
0.000716335
-0.000232003
-0.000179594
-0.000538086
-0.000213008
-0.000101986
-0.000849305
-0.00020667
-8.58625e-05
-3.52689e-06
-0.000219085
2.37948e-06
0.00134489
-0.000260324
-3.85315e-05
-0.00148456
-6.66848e-05
-3.92817e-05
-0.00142812
-6.88418e-05
-7.78043e-05
-0.00161973
-6.16038e-05
-8.53783e-05
-0.00141272
-6.37188e-05
-6.6456e-05
-0.000860338
-6.53361e-05
-5.48444e-05
-0.000376894
-7.10629e-05
-2.88901e-06
0.000517401
-8.57917e-05
-4.11819e-05
0.000626841
-9.6453e-05
-0.000801739
0.0063844
0.00211451
-0.000777772
0.00633157
0.00184663
-0.000473893
0.00648138
0.00168968
-0.000475703
0.00526969
0.00155234
-0.00050923
0.00513587
0.0014936
-0.000141753
0.00592005
0.00122578
-0.000286748
0.00388277
0.000993747
-0.00029229
0.00566858
0.000790775
-0.000140257
0.00670501
0.000413895
-0.000261154
0.00504724
2.97778e-05
-0.000231083
0.00504421
5.54889e-05
-0.000213277
0.005434
-5.30408e-05
-0.00013285
0.00494485
-0.000247605
-0.000280557
0.0023408
-0.000260542
-0.000245054
0.00186064
-0.000188554
-7.90675e-05
0.00417852
-0.000354342
-0.000203302
0.0043923
-0.000392138
-0.000209383
0.00348105
-0.000427203
-0.000236684
0.00223572
-0.00039225
-0.000181857
0.00237216
-0.000434986
3.3671e-05
0.00211747
-0.000477823
-4.54962e-05
0.00298024
-0.000414244
-0.00012089
0.00360105
-0.00039472
-0.000238292
0.00238837
-0.000408931
-0.000239435
0.000902721
-0.000403001
-0.000109101
0.000488638
-0.000398331
-7.87437e-05
0.000871829
-0.000387443
-2.68152e-05
0.00137286
-0.000389036
-2.8617e-07
0.000242822
-0.000259595
-5.43419e-05
0.000961541
-0.000265971
-0.000156411
0.000762714
-0.000232001
-0.000181974
-0.000462825
-0.000210668
-0.000114776
-0.000809539
-0.000204454
-9.15034e-05
4.3989e-05
-0.000217526
2.26578e-06
0.00137872
-0.000258066
-8.35495e-05
0.00127625
-0.000300831
-4.47726e-05
-0.00144572
-6.67555e-05
-4.5806e-05
-0.00138033
-6.8661e-05
-8.21533e-05
-0.00154469
-6.17282e-05
-9.39684e-05
-0.00131789
-6.24651e-05
-7.51772e-05
-0.000783791
-6.50887e-05
-5.64213e-05
-0.0003149
-7.09092e-05
-4.05933e-06
0.000535925
-8.5527e-05
-3.89672e-05
0.000675787
-9.57701e-05
-2.01653e-05
0.000475849
-9.16081e-05
-0.000735765
0.00657281
0.00236568
-0.000794177
0.00637941
0.00212257
-0.000479386
0.00654439
0.00212055
-0.000618253
0.00650949
0.00185805
-0.000580503
0.00661832
0.00178096
-0.000321946
0.0068575
0.00163954
-0.000411392
0.00525359
0.0016007
-0.000350486
0.00516161
0.00158479
-1.92299e-05
0.00594202
0.0013506
-0.000131283
0.00703605
0.00111377
-0.000290483
0.00408777
0.000990723
-0.000208759
0.00575447
0.000903334
-0.000104684
0.00689734
0.000570278
-0.00021249
0.00524926
0.000143806
-0.000170708
0.00272422
-5.36299e-05
-0.000142752
0.00514747
3.21992e-05
-0.000152191
0.0054712
-3.28235e-05
-0.000143982
0.00505772
-0.000231307
-0.000243199
0.00243654
-0.000336835
-0.000237953
0.00187718
-0.000220986
0.000131087
0.00232143
-0.000284921
-8.17405e-05
0.00427047
-0.000371608
-0.00015119
0.00445222
-0.000383963
-0.000279424
0.00350892
-0.000378878
-0.000248112
0.00219848
-0.000381285
-6.06779e-05
0.00235668
-0.000425191
7.89143e-05
0.0019842
-0.000459377
2.5279e-05
0.00172623
-0.000445193
-1.62772e-05
0.00303796
-0.000430915
-5.97957e-05
0.00358572
-0.000393464
-0.000246588
0.00248277
-0.00039895
-0.000241458
0.000957523
-0.000404248
-0.000115462
0.000492531
-0.000406208
-7.37073e-05
0.000841151
-0.000385449
-5.50192e-05
0.00142458
-0.000381876
-0.000178632
0.00166489
-0.000359586
-4.8753e-06
0.000250169
-0.00026126
-3.28979e-05
0.000958663
-0.000269625
-0.000167638
0.000813179
-0.000230952
-0.000190653
-0.000390413
-0.000207728
-0.000135291
-0.0007585
-0.000201593
-9.91536e-05
9.81238e-05
-0.000215857
-5.66921e-06
0.00141884
-0.000256044
-8.51194e-05
0.00136421
-0.000299877
-0.000135418
0.00207592
-0.000305508
-4.94554e-05
-0.00140228
-6.70759e-05
-4.89647e-05
-0.00132914
-6.89874e-05
-8.5013e-05
-0.00146669
-6.16428e-05
-9.6159e-05
-0.00122114
-6.23136e-05
-8.17946e-05
-0.000699556
-6.49057e-05
-5.86296e-05
-0.000250596
-7.07633e-05
-2.39254e-06
0.000552613
-8.5205e-05
-3.46235e-05
0.000719846
-9.49627e-05
-1.50835e-05
0.000485469
-9.03066e-05
-3.3729e-05
-7.57101e-05
-7.82509e-05
-0.000655425
0.00629979
0.00286927
-0.000706595
0.00649134
0.00239104
-0.000416105
0.00660406
0.0023165
-0.000668634
0.00641721
0.00215752
-0.000497474
0.00646606
0.00211787
-0.00054703
0.00703718
0.00229019
-0.000538246
0.00662749
0.00190563
-0.000466354
0.00673914
0.0018531
-0.000135833
0.0070668
0.00168826
-0.000111745
0.00686934
0.00152803
-0.000364219
0.00518522
0.00167672
-0.000229157
0.0051171
0.00166561
-8.6922e-05
0.00593944
0.00156961
0.000134171
0.00680428
0.00123571
-0.000270742
0.00606453
0.00113579
-0.000226129
0.00430529
0.00100097
-0.000178365
0.00590072
0.000870647
-0.000220789
0.00715632
0.000721158
-0.00026354
0.00554071
0.000299165
-9.24926e-05
0.0026426
7.99701e-05
0.000123783
0.00270656
4.35274e-05
-9.64488e-05
0.00520101
4.22954e-05
-5.02399e-05
0.00548274
-8.02919e-05
-0.000176501
0.005074
-0.000152034
-0.00026089
0.00250325
-0.000285236
-0.000111732
0.00190612
-0.000314722
0.000173701
0.00233867
-0.000333016
1.37729e-05
0.0020225
-0.000370943
-7.24929e-05
0.00435223
-0.000407974
-2.833e-05
0.00444341
-0.000394262
-0.000275397
0.00348843
-0.000334668
-0.000288877
0.00222214
-0.000355128
-0.000160468
0.00243907
-0.00041867
2.82459e-06
0.001925
-0.000442517
-2.88942e-05
0.00166194
-0.000421216
-0.0003968
0.0019618
-0.000373282
5.22032e-05
0.00302273
-0.000455018
2.1732e-05
0.0035103
-0.000410125
-0.000257968
0.00256694
-0.000387299
-0.000266962
0.00103193
-0.000397049
-0.000149673
0.000512675
-0.00041001
-7.32886e-05
0.000798632
-0.000389554
-4.81119e-05
0.00145575
-0.000374177
-0.000183111
0.00174699
-0.000365984
-0.000303555
0.00273656
-0.000317365
-9.17719e-06
0.000259642
-0.000263753
-3.23584e-05
0.000948636
-0.00026784
-0.000143581
0.000832517
-0.000230395
-0.000195133
-0.00031772
-0.00020467
-0.000147001
-0.000702821
-0.000198201
-0.00010617
0.000157843
-0.000213772
4.6773e-06
0.00144923
-0.000253308
-7.69735e-05
0.00144923
-0.000298715
-0.000103216
0.00217089
-0.000306719
-0.000126433
0.00259981
-0.00030441
-5.4795e-05
-0.00135346
-6.73971e-05
-5.04221e-05
-0.00127673
-6.90613e-05
-8.90199e-05
-0.00138463
-6.20306e-05
-0.000101252
-0.00111965
-6.18807e-05
-8.72302e-05
-0.000609899
-6.47396e-05
-6.04588e-05
-0.000184436
-7.06065e-05
-9.5712e-07
0.000567593
-8.47854e-05
-3.04363e-05
0.000759119
-9.40414e-05
-9.52114e-06
0.000488865
-8.88377e-05
-2.76542e-05
-6.20414e-05
-7.63211e-05
3.60146e-05
-0.00076275
-6.96318e-05
-0.000616994
0.00615636
0.00323887
-0.000687021
0.00633056
0.00288247
-0.000468648
0.00607021
0.00292624
-0.000323265
0.00619801
0.00239863
-0.000425803
0.0065769
0.00234653
-0.000444356
0.00675623
0.00235068
-0.00071209
0.00657352
0.00214535
-0.000564631
0.00656345
0.00215841
-0.000416901
0.00715174
0.00228437
-0.000172337
0.00691853
0.00242769
-0.000412411
0.00661652
0.00196487
-0.000410851
0.00684243
0.00198403
-0.000186728
0.00715397
0.00186574
0.000166878
0.00693653
0.00158837
4.60615e-05
0.00674984
0.0014136
-0.000449529
0.0053129
0.00173372
-0.000294789
0.00520618
0.00170406
-0.000177602
0.00587521
0.00168666
-0.000146419
0.00681545
0.00144131
-0.000203319
0.00618432
0.00122674
3.31988e-05
0.00430616
0.00110734
-0.000175994
0.0045786
0.000828715
-4.93069e-05
0.00605813
0.000842632
-0.000252662
0.00732132
0.000781814
-0.000222531
0.00569192
0.000531593
-6.53324e-05
0.00267121
0.000224154
0.000114602
0.00263744
0.00020819
-0.000186768
0.00244551
0.000373016
4.91171e-05
0.00515048
-1.8408e-06
5.86251e-05
0.00556234
-0.000124261
-0.000116745
0.00497418
-0.000139118
-0.000260902
0.00252996
-0.000206714
-0.000243472
0.00197569
-0.000271801
5.26372e-05
0.00233929
-0.000365158
-0.00011638
0.00211451
-0.000337538
-0.000614465
0.0019216
-0.000272251
6.50137e-05
0.00437214
-0.000466144
7.96113e-05
0.00439511
-0.000417555
-0.000240652
0.0033992
-0.000322352
-0.000323541
0.0023078
-0.000363742
-0.000189175
0.00255127
-0.000427831
-1.29209e-05
0.00190434
-0.000458382
3.2524e-06
0.001545
-0.000376942
-0.000393673
0.00207943
-0.000328279
-0.000491707
0.00242527
-0.000241475
0.000112544
0.00294517
-0.000473823
1.45252e-05
0.00342467
-0.000416266
-0.000200433
0.00260689
-0.00039323
-0.00028965
0.00113012
-0.000390968
-1.76662e-05
0.000392699
-0.000406408
-7.77284e-05
0.000750535
-0.000390356
-3.30331e-05
0.00148105
-0.000377146
-0.000200352
0.00185494
-0.000358748
-0.000306018
0.00288865
-0.000315273
-0.000322077
0.00340769
-0.000322712
-3.58885e-06
0.00025781
-0.000264879
-3.78462e-05
0.000940598
-0.00026829
-0.000150942
0.000851062
-0.000224463
-0.000201649
-0.000246567
-0.00020115
-0.000161083
-0.000638479
-0.000195159
-0.000117453
0.000228317
-0.00021168
3.09271e-07
0.00148434
-0.000250149
-7.22028e-05
0.00153376
-0.000296067
-7.91143e-05
0.00224677
-0.000305001
-0.000104837
0.00266295
-0.000292678
0.000130453
0.00104773
-0.000236542
-5.93811e-05
-0.001301
-6.76754e-05
-5.21519e-05
-0.00122265
-6.93259e-05
-9.55101e-05
-0.00129585
-6.23329e-05
-0.000104047
-0.00101559
-6.2045e-05
-9.2176e-05
-0.000515035
-6.45688e-05
-6.1631e-05
-0.000117104
-7.04405e-05
-2.76918e-06
0.000584009
-8.42534e-05
-2.60722e-05
0.000793448
-9.30427e-05
-4.49755e-06
0.000486563
-8.72421e-05
-2.03004e-05
-5.63362e-05
-7.42425e-05
3.25583e-05
-0.000803148
-6.84817e-05
-3.15011e-05
-0.00050602
-5.75132e-05
-0.000209452
0.00588245
0.00379236
-0.000522764
0.00588936
0.00357601
-0.000644831
0.00611481
0.00323008
-0.000432246
0.00577201
0.00321452
-0.000306365
0.00631818
0.00288331
-0.000391388
0.00598854
0.00292972
-0.000411613
0.00604053
0.00294816
-0.00066356
0.00611316
0.00254337
-0.00039699
0.00644377
0.00236411
-0.000440213
0.00672876
0.00239732
-0.00034046
0.0070688
0.00254605
-0.000599545
0.00672681
0.00214088
-0.000706817
0.00677849
0.00222627
-0.000350276
0.00712255
0.00235115
-0.000187789
0.00701599
0.00254158
0.000294336
0.00677539
0.00227904
-0.000506101
0.00653966
0.00206751
-0.000398231
0.00678904
0.00212171
-0.00015368
0.00706758
0.00204649
-0.000119641
0.00691109
0.0018644
-0.000219786
0.00683289
0.00152179
8.83175e-05
0.00720759
0.00150934
-0.000287567
0.00539447
0.00176632
-0.000207739
0.0053771
0.00172123
-0.000252673
0.00579743
0.00178185
-2.45823e-05
0.0067803
0.00152387
-0.000126451
0.00644164
0.00124511
0.000134888
0.00435102
0.0011616
-0.000292268
0.00372489
0.00109785
0.000112459
0.00477315
0.000876241
5.3245e-05
0.00616837
0.000723848
-0.000245649
0.00746795
0.000824901
-0.00038643
0.0058641
0.000735158
-0.000183394
0.00268964
0.000453085
8.58122e-05
0.00243824
0.000390178
-0.000299411
0.00235943
0.0004773
-0.000780649
0.00217347
0.000612287
0.00013186
0.0052275
-0.000138438
0.000174469
0.0055869
-0.000121256
6.22755e-06
0.0047405
-0.000137463
-0.000293213
0.002549
-0.000188493
-0.00025221
0.0021571
-0.000325084
-2.79747e-05
0.00241545
-0.000332902
-0.000141666
0.00219844
-0.000304176
-0.00064514
0.00207488
-0.000239348
-0.000789763
0.00209049
-0.000124836
0.000216861
0.00429466
-0.000499498
7.69917e-05
0.00428806
-0.000421556
-0.000236078
0.00337297
-0.000355682
-0.000383188
0.0024016
-0.000322615
5.16263e-05
0.00261248
-0.000494236
6.82465e-05
0.00182168
-0.000491142
-1.93997e-05
0.00148312
-0.00041013
-0.000437774
0.00222227
-0.000282365
-0.00055463
0.0025502
-0.000204594
-0.00058219
0.00351914
-0.000172165
6.25115e-05
0.00292119
-0.000480407
1.14289e-05
0.00331236
-0.000410787
-0.000182284
0.00260955
-0.000387585
-0.000268968
0.00119263
-0.000388424
-0.000196837
0.000427678
-0.000390194
-8.83737e-05
0.00070536
-0.000390312
-5.5434e-05
0.00152565
-0.000379209
-0.000167618
0.0019236
-0.000350392
-0.000288753
0.0030547
-0.000315154
-0.000288886
0.00359406
-0.00031759
-1.20567e-05
0.00373135
-0.000355841
5.47657e-06
0.000241512
-0.000265116
-3.4882e-05
0.00092886
-0.000270411
-0.000171673
0.000878738
-0.000219804
-0.00020144
-0.000177629
-0.000196008
-0.000170559
-0.000568834
-0.000192412
-0.000127476
0.00030835
-0.000209348
-1.27126e-05
0.00152946
-0.000246863
-5.95807e-05
0.00160901
-0.000291892
-6.47304e-05
0.00231189
-0.000300949
-7.51391e-05
0.00268681
-0.000274025
0.000140841
0.000865804
-0.000219035
0.000125968
0.000895425
-0.000137128
-6.45731e-05
-0.00124425
-6.78381e-05
-5.75757e-05
-0.00116332
-6.943e-05
-9.78575e-05
-0.0012047
-6.26211e-05
-0.000108158
-0.000907038
-6.27295e-05
-9.73366e-05
-0.000414988
-6.47557e-05
-6.28852e-05
-4.85448e-05
-7.02431e-05
-4.23929e-06
0.000601472
-8.3665e-05
-2.19644e-05
0.00082313
-9.19704e-05
-1.04526e-07
0.00047923
-8.56049e-05
-1.40917e-05
-5.74483e-05
-7.20383e-05
2.26554e-05
-0.00083288
-6.71661e-05
-2.56586e-05
-0.000491373
-5.74702e-05
-3.81979e-05
-0.000317309
-3.61624e-05
-0.000259235
0.0057429
0.00374005
-0.000364922
0.00572141
0.00378723
-5.21394e-06
0.00571231
0.00381054
-0.000671131
0.00583826
0.00356384
-0.000336322
0.00561191
0.00352147
-0.000584736
0.00631399
0.00323767
-0.000364706
0.00573657
0.00323884
-0.000314514
0.00572847
0.00318318
-0.000557707
0.0061902
0.00288732
-0.000405382
0.00593762
0.00294262
-0.000427845
0.00599662
0.00296126
-0.000336946
0.00620943
0.00298419
-0.000509166
0.00599487
0.00258663
-0.000519699
0.00631744
0.00248258
-0.000419836
0.00670046
0.00246197
-0.000324507
0.00702521
0.00257762
2.49618e-05
0.00710959
0.00273041
-0.000496026
0.0066699
0.00217497
-0.000598317
0.00688077
0.00223869
-0.000327224
0.00710919
0.00241318
-0.000202641
0.00685022
0.00259992
2.99787e-05
0.00663658
0.00243062
0.000186005
0.00667289
0.00230788
-0.000347969
0.00644798
0.00214174
-0.000271778
0.00671272
0.00220787
-0.000175036
0.00695446
0.00215719
-3.08275e-05
0.00696336
0.00200047
-0.00022755
0.00709886
0.00169952
0.000228682
0.00716923
0.00146636
-0.000338134
0.00626585
0.00172442
-0.000174745
0.00563508
0.00176751
-4.06944e-06
0.00551504
0.0016857
-0.00023756
0.00576242
0.00174815
-0.000201775
0.00673243
0.00164506
-0.000223672
0.00656809
0.0014377
5.08601e-05
0.00442879
0.00120229
-0.000378488
0.00384609
0.00111948
-0.000783894
0.00408774
0.00103693
3.36611e-05
0.00518609
0.000912754
0.000156742
0.00631097
0.000751374
-6.92473e-05
0.00742043
0.000846847
-0.000222906
0.00578743
0.000831265
-0.000195279
0.00272656
0.000641308
-2.92241e-05
0.00231448
0.000578091
-0.000300181
0.00230156
0.00060656
-0.000816646
0.00225543
0.000566841
-0.000924241
0.00273686
0.00053208
0.000161272
0.00547014
-0.000216882
0.000261193
0.00546797
-0.000203706
-0.000130961
0.00462765
-0.000113517
-0.000404165
0.00256471
-0.000132197
-0.00023854
0.00255162
-0.000292852
3.0722e-05
0.00253536
-0.000407469
-0.000181492
0.00223514
-0.000207511
-0.000686553
0.00220455
-0.00018507
-0.000782409
0.0021954
-0.000116475
-0.000808921
0.00318705
-9.62834e-05
0.000126874
0.00422336
-0.000541279
0.000129604
0.00407571
-0.000405323
-0.000208678
0.00330619
-0.000328373
-0.000346749
0.00247556
-0.000351867
-0.000200596
0.00276949
-0.000475866
-2.39155e-05
0.00177409
-0.000511102
-6.47052e-05
0.00143648
-0.000435236
-0.000415588
0.00238252
-0.000322407
-0.000551896
0.00275057
-0.000219592
-0.000522478
0.00375421
-0.000206075
-4.8213e-05
0.00391754
-0.000254275
5.81098e-05
0.00291102
-0.000490695
5.42894e-05
0.00315913
-0.000416347
-0.000230694
0.00261489
-0.000357104
-0.000265472
0.00124822
-0.000379146
-0.000130687
0.000382452
-0.000383071
-5.64869e-05
0.000631726
-0.000387548
-5.85411e-05
0.00155819
-0.00037703
-0.000162339
0.00199554
-0.000348383
-0.000236032
0.00317885
-0.000303247
-0.000223366
0.00375764
-0.00033051
7.60216e-05
0.00385927
-0.000380691
0.000297396
0.002868
-0.000223254
-3.23646e-07
0.000224117
-0.000264853
-4.32174e-05
0.000918488
-0.000269103
-0.000163737
0.000892476
-0.000218269
-0.000213706
-0.000100609
-0.000191275
-0.000186171
-0.000487127
-0.00018888
-0.000134382
0.000394148
-0.000206712
-1.1083e-05
0.00156964
-0.00024268
-5.31343e-05
0.00167914
-0.000285819
-3.63899e-05
0.0023511
-0.000294822
-4.80226e-05
0.00267369
-0.00025389
0.000139344
0.000669972
-0.000194881
0.000155192
0.000628435
-0.000132896
6.50305e-05
0.00136304
-8.79994e-05
-7.00815e-05
-0.00118256
-6.79515e-05
-6.33758e-05
-0.00109845
-6.93276e-05
-0.000105303
-0.00110591
-6.29144e-05
-0.000110941
-0.000795407
-6.33106e-05
-0.000100699
-0.000311776
-6.52433e-05
-6.40539e-05
2.08327e-05
-7.00793e-05
-6.35926e-06
0.000620596
-8.3007e-05
-1.86187e-05
0.000848955
-9.08716e-05
5.28461e-06
0.000465962
-8.39866e-05
-1.06414e-05
-6.25606e-05
-6.98512e-05
1.03125e-05
-0.00084953
-6.5701e-05
-1.94993e-05
-0.000481894
-5.71461e-05
-3.85235e-05
-0.000300372
-3.58836e-05
-2.90181e-05
-0.00133495
-3.43558e-05
-6.79247e-05
0.00519907
0.00447682
-0.000236737
0.00532647
0.00420505
-0.00032527
0.00569872
0.00380502
-0.000113352
0.00570903
0.00383864
-0.000555122
0.00563313
0.00372975
-0.000275945
0.00564466
0.00379451
8.87584e-05
0.00562687
0.00370754
-0.000667751
0.00586201
0.00353282
-0.000432067
0.0057099
0.00353321
-0.000188345
0.00545741
0.00346369
-0.000525206
0.00624094
0.00321689
-0.00042071
0.00570321
0.00328636
-0.000258256
0.00559718
0.00320054
-0.000207112
0.00575502
0.00316031
-0.000356349
0.00601962
0.00287397
-0.000420687
0.00583981
0.00288612
-0.000353833
0.00593338
0.00293986
-0.000305239
0.00617728
0.00297415
-2.10252e-05
0.00622683
0.0030149
-0.00045806
0.00593579
0.00263712
-0.000336169
0.00609827
0.00254364
-0.000292142
0.00664538
0.00250258
-0.000236376
0.00694714
0.00257378
0.000195116
0.00679077
0.0027313
0.000123703
0.0067406
0.00283614
-0.000429255
0.00672274
0.00219201
-0.000386648
0.00687104
0.00229956
-0.000308122
0.0070773
0.00240366
-8.0963e-05
0.00670448
0.00260906
-2.65312e-05
0.00652037
0.00251511
0.000311367
0.00660801
0.00241281
-0.000101954
0.00674417
0.00228832
-0.000435726
0.00653774
0.00219637
-0.000150786
0.00676051
0.00224066
-0.000180143
0.0069057
0.00219921
8.3041e-05
0.00680536
0.00203037
-0.000273747
0.00736637
0.00178303
0.000109587
0.00713924
0.00167079
-0.000441781
0.00623931
0.00155619
-0.000725884
0.0059453
0.00156685
-0.000190071
0.00577049
0.00183042
1.26338e-05
0.00564029
0.00178637
-0.000145382
0.00572575
0.00179851
-8.47521e-05
0.00676111
0.00158132
-0.000162101
0.00675438
0.0014256
-0.000127074
0.00457914
0.00138519
-0.000146444
0.00371484
0.0011798
-0.000790098
0.00415405
0.00102662
-0.00067083
0.00401594
0.000778916
6.91622e-05
0.00568599
0.000757146
0.000226049
0.00651747
0.000741401
-0.000207569
0.00731484
0.000933573
-0.000358351
0.00569234
0.000896119
-0.000281533
0.00285978
0.000741037
-8.55404e-05
0.00238122
0.000690834
-0.000419367
0.00238506
0.00073247
-0.000803194
0.00238887
0.000589767
-0.000833426
0.00285571
0.000499009
-0.000622694
0.00306876
0.000303909
0.000227993
0.00557468
-0.000276235
0.000402687
0.00522972
-0.000251716
-0.000152764
0.00439143
-2.3402e-05
-0.000431776
0.0027066
-0.000170374
-0.000211043
0.00269375
-0.00026388
-0.000120843
0.00268332
-0.000343884
-0.000192039
0.00204093
-8.59177e-05
-0.000693685
0.00236405
-8.89114e-05
-0.000753995
0.00232161
-0.000109182
-0.000728435
0.00335561
-7.90788e-05
-0.000225283
0.00390873
-0.000143366
8.30667e-05
0.00416703
-0.000549205
0.000138305
0.00385498
-0.000404564
-0.000204426
0.00313375
-0.000259158
-0.000364025
0.00260039
-0.00035465
-7.19666e-05
0.0028158
-0.000456903
1.41531e-05
0.00171521
-0.000487629
-8.99203e-05
0.00136928
-0.000412523
-0.000449464
0.00254796
-0.000313555
-0.000473367
0.00290448
-0.000238986
-0.000418108
0.00397752
-0.000248162
4.97694e-05
0.00401984
-0.000282119
0.000156814
0.00442856
-0.000260869
7.05397e-05
0.00288354
-0.000504959
-7.39492e-06
0.00305392
-0.000421313
-0.000233949
0.0026242
-0.000355439
-0.000303301
0.00134301
-0.000362291
-0.000114423
0.000305234
-0.000373676
-8.44364e-05
0.000572311
-0.000373603
-7.43418e-05
0.00161192
-0.000378015
-0.000198434
0.00209611
-0.000332308
-0.000201744
0.00330795
-0.000312123
-0.000165111
0.00390382
-0.000332338
0.000149821
0.00393862
-0.000420336
0.000336967
0.0025605
-0.000254974
0.000291992
0.00302005
-0.000109596
-9.69614e-06
0.000208652
-0.000263726
-4.96524e-05
0.000907537
-0.000267626
-0.000167055
0.000899222
-0.000214097
-0.000216694
-2.6765e-05
-0.00018636
-0.000207397
-0.000385403
-0.000186302
-0.000143804
0.000489479
-0.00020446
-2.75089e-05
0.00162264
-0.000238568
-3.33044e-05
0.00172904
-0.000277895
-7.21087e-06
0.00236538
-0.000287599
-1.85219e-05
0.00262226
-0.00023552
0.000129367
0.000468971
-0.000171943
0.000190428
0.000354826
-0.000131199
9.86297e-05
0.00118177
-8.87777e-05
-7.49001e-06
-0.000228583
-6.79826e-05
-7.32857e-05
-0.00111808
-6.80268e-05
-6.90113e-05
-0.00102818
-6.92159e-05
-0.000112686
-0.000999716
-6.28344e-05
-0.000113019
-0.000681954
-6.33482e-05
-0.000104047
-0.000205272
-6.57669e-05
-6.75946e-05
9.30229e-05
-6.98389e-05
-5.61798e-06
0.000638528
-8.23942e-05
-1.44314e-05
0.000870115
-8.97356e-05
8.00435e-06
0.000449502
-8.24166e-05
-9.31749e-06
-6.94405e-05
-6.77891e-05
-2.38446e-06
-0.000852819
-6.4177e-05
-1.40304e-05
-0.000477251
-5.63136e-05
-3.56618e-05
-0.000286674
-3.51823e-05
-3.04511e-05
-0.00130605
-3.4332e-05
-6.58292e-05
-0.00138527
-4.48938e-05
-0.000203516
0.00493114
0.00443498
-0.000134734
0.00505325
0.00446161
-0.000158513
0.0050025
0.00454687
-0.000409382
0.00533991
0.00420648
-0.00013054
0.00522138
0.00427161
-0.000460827
0.00563702
0.00378507
-0.000286814
0.00560733
0.00391759
0.00013871
0.00556643
0.00397197
-0.000617456
0.00556172
0.00378035
-0.000444948
0.00565304
0.00373424
-7.53984e-06
0.00550207
0.0037385
0.000289999
0.00559391
0.00364789
-0.000621094
0.00588529
0.00360393
-0.000436851
0.00567413
0.00358473
-0.000212085
0.00544954
0.00349492
-5.05505e-05
0.00558528
0.00338093
-0.000311925
0.0061117
0.00321018
-0.000453734
0.0056592
0.00329395
-0.000238024
0.00552466
0.00324307
-0.000222511
0.00571765
0.00315517
-7.87245e-05
0.00576906
0.00322788
-0.00038685
0.00596077
0.00290146
-0.000152476
0.00562334
0.00290675
-0.000170346
0.00575903
0.00293866
-0.000136777
0.00607461
0.00294293
0.000248628
0.00615614
0.00299133
9.43906e-05
0.00613932
0.00308007
-0.000482737
0.00596906
0.0026639
-0.000293829
0.0060948
0.00254778
-0.000316765
0.00663405
0.00256362
-3.12537e-06
0.00679955
0.00257233
-7.16227e-05
0.00667932
0.00273032
0.000289966
0.00663117
0.00286214
2.98504e-05
0.00667064
0.00280507
-0.00041897
0.00666908
0.00219743
-0.000315839
0.00690686
0.00232124
-0.000180373
0.00692034
0.00245675
-0.000176729
0.00675018
0.00261773
-0.000238801
0.00650229
0.00259219
6.77694e-05
0.00666047
0.00250447
-3.84894e-05
0.00640189
0.0023518
-0.000629275
0.00655505
0.0021836
-0.000349937
0.00647014
0.00222341
-0.000176513
0.00686918
0.00227685
-8.53702e-05
0.00688687
0.00219948
5.92544e-05
0.00684736
0.00201321
-0.00013222
0.00739432
0.00197254
-6.02125e-05
0.00701735
0.00183806
-0.000267837
0.00628803
0.00174347
-0.00068416
0.00591303
0.00148252
-0.000345217
0.00615814
0.00138454
-1.85779e-05
0.00583974
0.0018092
4.33686e-05
0.00585955
0.00179385
-0.000146776
0.00569882
0.0017525
-0.000101865
0.00669169
0.00161144
-4.81995e-05
0.0067005
0.00140187
-0.000258539
0.00485721
0.00132054
-0.000378991
0.00381043
0.00124923
-0.000672662
0.00420537
0.000997955
-0.000610374
0.00400144
0.000818066
-0.000454087
0.00454011
0.000528565
0.000108727
0.00621774
0.00073586
0.000321332
0.00681414
0.000541822
-0.000319209
0.00730136
0.000921321
-0.000446641
0.00566865
0.00097213
-7.90461e-05
0.00284435
0.000779552
-0.000148468
0.00234554
0.000804341
-0.000467587
0.00254954
0.000801903
-0.000773177
0.00250632
0.000694507
-0.000747466
0.00292077
0.000518176
-0.000614449
0.0032246
0.000229183
-0.000289661
0.00379198
0.000174317
0.000216918
0.00565645
-0.000346445
0.000299259
0.00505761
-0.000265084
3.32018e-05
0.00398016
-7.808e-05
-0.000429047
0.00280322
-5.49983e-05
-0.000187128
0.00288107
-0.000242528
-0.000204618
0.00293041
-0.000292199
-0.000272524
0.00188439
-4.74774e-06
-0.000723746
0.00248949
6.2919e-05
-0.000710542
0.00253176
-6.18864e-05
-0.000606623
0.00348462
-4.96786e-05
-0.000193706
0.00417377
-0.000100641
5.9414e-06
0.00508561
-0.000135084
8.70311e-05
0.00410601
-0.000542226
-1.43101e-05
0.00370961
-0.000396923
-0.000297039
0.00305415
-0.000261868
-0.000401914
0.00275812
-0.000318277
-9.1275e-05
0.00287223
-0.000434225
-3.96796e-05
0.0016244
-0.000410851
-0.00019331
0.00136679
-0.000366171
-0.000521537
0.00277099
-0.000312445
-0.000451566
0.00306549
-0.000224737
-0.000362876
0.00418803
-0.00025173
9.33491e-05
0.00413425
-0.000306098
0.000144506
0.00461055
-0.000271644
0.000378755
0.00402582
-6.32285e-05
7.60407e-05
0.00284094
-0.000516927
-4.72549e-05
0.00297269
-0.000426123
-0.000216918
0.00259956
-0.000346813
-0.000293717
0.00141892
-0.000354333
-0.000158922
0.000259812
-0.000365344
-0.000148443
0.000564973
-0.000361699
-0.000112912
0.00170262
-0.000378897
-0.000174922
0.00218053
-0.000320814
-0.000133783
0.00342196
-0.000319749
-0.000102758
0.0040199
-0.000343967
0.000184291
0.00399809
-0.000446738
0.000375527
0.00225269
-0.000297618
0.000361043
0.00263581
-0.000133149
0.000126169
0.00124172
-8.71111e-05
-1.02286e-05
0.000187624
-0.000261952
-7.23683e-05
0.000911406
-0.000264239
-0.000186472
0.000915467
-0.000210084
-0.000227441
6.00943e-05
-0.000186534
-0.000225887
-0.000268175
-0.000181749
-0.000166728
0.000604878
-0.000202568
-2.67489e-05
0.00167252
-0.000233209
-2.8633e-05
0.00177337
-0.000268703
-6.82878e-06
0.00238026
-0.000277941
1.69075e-05
0.00252985
-0.000221409
0.000118929
0.000267365