/*--------------------------------*- C++ -*----------------------------------*\
  =========                 |
  \\      /  F ield         | OpenFOAM: The Open Source CFD Toolbox
   \\    /   O peration     | Website:  https://openfoam.org
    \\  /    A nd           | Version:  7
     \\/     M anipulation  |
\*---------------------------------------------------------------------------*/
FoamFile
{
    version     2.0;
    format      ascii;
    class       surfaceScalarField;
    location    "9.5";
    object      phi_0;
}
// * * * * * * * * * * * * * * * * * * * * * * * * * * * * * * * * * * * * * //

dimensions      [0 3 -1 0 0 0 0];

internalField   nonuniform List<scalar> 
53739
(
-5.35802e-06
-0.00162173
-6.50577e-05
-1.76669e-05
-1.35273e-05
-0.000241263
-9.0615e-06
-0.00161678
-6.53994e-05
-1.52896e-05
-0.00162219
-6.68974e-05
-8.79992e-05
0.00239557
-0.000367916
-2.25404e-05
4.12964e-05
-0.000243373
-8.98999e-05
0.000613879
-0.000252236
-1.3412e-05
-0.00160786
-6.56491e-05
-1.99978e-05
-0.00159978
-6.78151e-05
-6.23693e-05
-0.00194862
-6.17126e-05
-0.000187659
0.00342908
-0.000242191
-9.3684e-05
0.00252349
-0.000375954
-0.000363809
0.00297796
-0.000401603
-1.98815e-05
9.04717e-05
-0.000245462
-9.53539e-05
0.000700343
-0.000254482
-0.000177865
0.000430553
-0.000229501
-1.82859e-05
-0.0015943
-6.58551e-05
-2.38235e-05
-0.00157405
-6.7552e-05
-6.34443e-05
-0.00189094
-6.20551e-05
-6.43273e-05
-0.00174176
-6.35552e-05
-0.00036353
0.00450805
-8.01018e-05
-0.000165291
0.00354669
-0.000295329
-0.000411638
0.00396218
-0.00037778
-7.07089e-05
0.00262661
-0.000377119
-0.000265397
0.0031731
-0.000401044
-0.000199469
0.00211175
-0.000420442
-1.4696e-05
0.00013096
-0.000247926
-8.47146e-05
0.000772917
-0.000257144
-0.00017429
0.000516376
-0.000229459
-0.000135686
-0.000758848
-0.000217558
-2.33436e-05
-0.00157566
-6.6103e-05
-2.81568e-05
-0.00154401
-6.77403e-05
-6.94553e-05
-0.00182738
-6.16576e-05
-7.16275e-05
-0.00166725
-6.49362e-05
-5.15588e-05
-0.00104131
-6.54258e-05
-0.000351727
0.00362331
0.000814577
-0.00032055
0.00466298
-6.46769e-05
-0.000331396
0.00524713
-0.000113521
-0.000168587
0.00371829
-0.000336787
-0.000285841
0.00410131
-0.00041401
-0.000230022
0.0033437
-0.000482638
-3.81936e-05
0.00270702
-0.000390119
-0.000207404
0.00331209
-0.000393423
-0.000239561
0.00218948
-0.000413502
-0.000186087
0.000761869
-0.000408452
-1.53927e-05
0.000167837
-0.000250213
-8.1196e-05
0.000838261
-0.000260231
-0.000172288
0.000591076
-0.000229012
-0.000150734
-0.000693627
-0.000215574
-8.79753e-05
-0.000923981
-0.000212037
-2.97434e-05
-0.0015509
-6.63886e-05
-3.1812e-05
-0.00151024
-6.80611e-05
-7.23396e-05
-0.00176129
-6.14871e-05
-7.87148e-05
-0.00158641
-6.37857e-05
-5.08229e-05
-0.000989479
-6.59464e-05
-5.22182e-05
-0.00049375
-7.12633e-05
-0.000643206
0.00525012
0.00127695
-0.000304941
0.00372508
0.000897744
-0.000361187
0.00526047
0.000577624
-0.000329246
0.00483427
-1.57168e-05
-0.000323087
0.00530424
-8.45363e-05
-0.000276613
0.00485735
-0.00027392
-0.000130774
0.00388472
-0.000339978
-0.000212415
0.00419481
-0.000425281
-0.000283425
0.00342164
-0.00044808
-0.000250786
0.00226251
-0.000435824
-9.4328e-05
0.00284032
-0.000391613
-0.000204118
0.00344226
-0.000397365
-0.000236637
0.00226467
-0.000404267
-0.000198752
0.000801325
-0.000404939
-0.000107304
0.000471204
-0.000392462
-7.03559e-06
0.000191139
-0.000253145
-7.38695e-05
0.000892081
-0.000261975
-0.000166036
0.000656087
-0.000231545
-0.000175901
-0.000612582
-0.000212871
-9.49331e-05
-0.000886404
-0.000209041
-7.46045e-05
-4.89231e-05
-0.000220548
-3.47825e-05
-0.00152165
-6.65346e-05
-3.50553e-05
-0.00147309
-6.84898e-05
-7.55306e-05
-0.00169175
-6.20683e-05
-8.45704e-05
-0.00150016
-6.31665e-05
-6.20942e-05
-0.0009258
-6.53709e-05
-5.31965e-05
-0.000435422
-7.10783e-05
-5.25721e-06
0.000501535
-8.58521e-05
-0.000749177
0.00612134
0.00176109
-0.000573534
0.00530079
0.00146095
-0.000436176
0.00502457
0.00137173
-0.000292585
0.00382019
0.000922575
-0.000355606
0.00549786
0.000692873
-0.000262898
0.00647086
0.000304812
-0.000293207
0.00499135
1.6204e-05
-0.000230662
0.00538417
-7.73951e-05
-0.000167188
0.00490064
-0.000244069
-0.000314849
0.00229302
-0.000302455
-0.00019255
0.00404713
-0.000343279
-0.000240338
0.00430836
-0.000417303
-0.000269684
0.0034618
-0.000432396
-0.000249126
0.00226958
-0.000404776
-0.000155143
0.00228341
-0.00045095
-9.59173e-06
0.00288964
-0.00040113
-0.000167329
0.003542
-0.000397893
-0.000200485
0.00230862
-0.000406866
-0.000232583
0.000854326
-0.000400586
-0.000120325
0.000482229
-0.000390573
-5.53233e-05
0.000881725
-0.000394571
-1.33138e-05
0.000216638
-0.000256263
-5.73117e-05
0.000925339
-0.000264146
-0.000160188
0.000710445
-0.000231676
-0.00018047
-0.000535657
-0.00021257
-0.000102807
-0.000852285
-0.000206278
-8.66314e-05
-5.85084e-06
-0.000218678
1.94988e-06
0.00134879
-0.000259633
-3.88267e-05
-0.00148874
-6.67056e-05
-3.94061e-05
-0.00143147
-6.87437e-05
-7.80793e-05
-0.00162066
-6.15073e-05
-8.57998e-05
-0.00141278
-6.36458e-05
-6.66196e-05
-0.000857064
-6.52827e-05
-5.51664e-05
-0.000374689
-7.09377e-05
-3.12875e-06
0.000519168
-8.55821e-05
-4.12679e-05
0.000631864
-9.62885e-05
-0.000794644
0.00638684
0.00211594
-0.000772541
0.00634221
0.00184879
-0.000472319
0.00648819
0.00169298
-0.00047271
0.0052603
0.00155679
-0.000505518
0.00513789
0.00149754
-0.000136593
0.00593035
0.00122924
-0.000286572
0.00390134
0.000992222
-0.000287525
0.00568406
0.000793243
-0.000135184
0.00671453
0.000417201
-0.000262386
0.00503429
3.02562e-05
-0.000225992
0.00504854
5.25012e-05
-0.000214251
0.00542864
-5.43549e-05
-0.000134456
0.00493626
-0.000248244
-0.000280855
0.00234057
-0.000259891
-0.000244685
0.00186323
-0.000188511
-7.49378e-05
0.00417669
-0.000355461
-0.000201752
0.00439155
-0.000392042
-0.000211146
0.00348108
-0.000425927
-0.000238235
0.0022341
-0.000391261
-0.000181762
0.00237405
-0.000433973
3.46163e-05
0.00211842
-0.000477247
-4.66032e-05
0.00296868
-0.000415567
-0.000118253
0.0035961
-0.000394295
-0.000239766
0.00239862
-0.000408311
-0.000240671
0.000910242
-0.000402581
-0.00010953
0.000486031
-0.000397665
-7.94167e-05
0.000870797
-0.000386859
-2.77629e-05
0.00137836
-0.000388667
4.98534e-08
0.000225503
-0.000259276
-5.39334e-05
0.000949529
-0.000265925
-0.000157186
0.000757094
-0.000231689
-0.000182643
-0.000460262
-0.000210228
-0.000115261
-0.000812146
-0.000204068
-9.22759e-05
4.20762e-05
-0.000217095
1.81825e-06
0.00138253
-0.000257364
-8.35926e-05
0.00128275
-0.000300508
-4.49529e-05
-0.00144984
-6.67064e-05
-4.55595e-05
-0.00138403
-6.85912e-05
-8.22533e-05
-0.00154556
-6.15907e-05
-9.42593e-05
-0.00131763
-6.2401e-05
-7.52733e-05
-0.000780391
-6.50453e-05
-5.67301e-05
-0.000312457
-7.07841e-05
-4.37507e-06
0.000537927
-8.53214e-05
-3.89778e-05
0.000680861
-9.56004e-05
-1.97781e-05
0.000480552
-9.15949e-05
-0.00072809
0.00657051
0.00236622
-0.000790144
0.00638225
0.00212408
-0.000477502
0.00654549
0.00212292
-0.00061285
0.00651638
0.00185985
-0.00057781
0.00662568
0.00178359
-0.000316405
0.00687071
0.00164328
-0.000407987
0.00524328
0.00160461
-0.000341616
0.00516033
0.00158845
-1.66045e-05
0.00595216
0.00135714
-0.000130506
0.0070279
0.00111939
-0.000286416
0.00411058
0.000986295
-0.000206374
0.0057675
0.000900905
-0.000108454
0.00690683
0.000574941
-0.000213101
0.00523835
0.000145396
-0.000170784
0.00271058
-5.09662e-05
-0.000137071
0.00515116
2.84675e-05
-0.000148003
0.00546366
-3.62672e-05
-0.000147476
0.00504887
-0.000230629
-0.00024511
0.00243576
-0.00033656
-0.000237209
0.00188026
-0.000221481
0.000132213
0.0023228
-0.000285018
-8.2734e-05
0.0042676
-0.0003736
-0.000147237
0.00444936
-0.000384288
-0.000282436
0.00350915
-0.000377443
-0.000250256
0.00219794
-0.000380184
-6.13741e-05
0.00235906
-0.000424436
7.98017e-05
0.00198405
-0.000458824
2.39535e-05
0.00173049
-0.000445012
-1.35304e-05
0.00302473
-0.00043253
-5.59329e-05
0.00357623
-0.000393693
-0.000248941
0.00249402
-0.000397943
-0.000242605
0.000965707
-0.000403814
-0.000115645
0.000489509
-0.000405675
-7.42284e-05
0.000840119
-0.000385035
-5.5511e-05
0.00143025
-0.00038142
-0.000178489
0.00167007
-0.000360007
-6.00423e-06
0.000233774
-0.000260904
-3.25814e-05
0.000946797
-0.000269522
-0.00016784
0.00080742
-0.000230664
-0.000191256
-0.000387642
-0.000207312
-0.000135928
-0.000760526
-0.000201193
-9.99314e-05
9.66309e-05
-0.000215422
-6.30185e-06
0.00142266
-0.000255303
-8.49116e-05
0.00137074
-0.000299429
-0.000133371
0.00207677
-0.000305618
-4.96175e-05
-0.00140639
-6.69906e-05
-4.95834e-05
-0.00133228
-6.88666e-05
-8.54138e-05
-0.00146726
-6.14734e-05
-9.65862e-05
-0.00122042
-6.22099e-05
-8.19853e-05
-0.000695954
-6.48533e-05
-5.89466e-05
-0.000247918
-7.06382e-05
-2.62738e-06
0.000554773
-8.50034e-05
-3.45862e-05
0.000724915
-9.47894e-05
-1.46736e-05
0.000489915
-9.02901e-05
-3.37784e-05
-7.27307e-05
-7.83428e-05
-0.000648798
0.00629588
0.00287046
-0.000698754
0.00648499
0.00239199
-0.000413638
0.00660361
0.00231839
-0.00066592
0.00642387
0.00215875
-0.000500805
0.0064718
0.00212076
-0.000544607
0.00704552
0.00229351
-0.000530966
0.00662759
0.00190927
-0.000460273
0.00674635
0.00185784
-0.000130947
0.0070758
0.00169284
-0.000107708
0.00687103
0.00153166
-0.000362799
0.00517962
0.00168016
-0.000226869
0.00511699
0.00166845
-9.17248e-05
0.00594708
0.0015768
0.000132197
0.00679736
0.00124238
-0.000271584
0.00605444
0.00113979
-0.00021943
0.0043291
0.000994844
-0.000175324
0.00591856
0.000862549
-0.000228296
0.00716687
0.000721687
-0.000265106
0.0055281
0.000305183
-8.77987e-05
0.00262503
8.15435e-05
0.000122027
0.00270587
4.58446e-05
-9.2148e-05
0.00520024
3.91432e-05
-4.57361e-05
0.00547708
-8.64529e-05
-0.000179483
0.00506056
-0.000150911
-0.00026292
0.0025009
-0.000283109
-0.000113124
0.0019111
-0.000315648
0.00017467
0.00234055
-0.000334095
1.1537e-05
0.00202937
-0.000370733
-6.79508e-05
0.00434702
-0.000411522
-2.22954e-05
0.00443797
-0.000395847
-0.000278066
0.00348763
-0.000333641
-0.000291558
0.0022236
-0.000354156
-0.000161318
0.00244273
-0.000418174
-7.33333e-08
0.00192798
-0.000442522
-2.91543e-05
0.0016658
-0.000420488
-0.000395951
0.00197285
-0.000373851
5.49836e-05
0.0030066
-0.000456839
2.3857e-05
0.00349829
-0.00041103
-0.000257507
0.00257667
-0.000386676
-0.000268559
0.00104163
-0.000396564
-0.000148729
0.000507917
-0.000409422
-7.39131e-05
0.000797549
-0.000389123
-4.77334e-05
0.00146057
-0.000373926
-0.000183183
0.00175271
-0.000365788
-0.000299666
0.0027428
-0.000317907
-9.47698e-06
0.000243398
-0.000263389
-3.30937e-05
0.00093705
-0.000267646
-0.000142852
0.000825394
-0.000230058
-0.000195725
-0.000314923
-0.000204245
-0.000147911
-0.000704112
-0.0001978
-0.00010704
0.00015688
-0.000213348
4.11109e-06
0.00145303
-0.000252522
-7.65744e-05
0.00145568
-0.000298253
-0.000101409
0.00217082
-0.000306739
-0.000126003
0.00260001
-0.000304424
-5.5074e-05
-0.00135737
-6.73191e-05
-5.10788e-05
-0.00127929
-6.89081e-05
-8.94514e-05
-0.0013848
-6.18711e-05
-0.000101599
-0.00111852
-6.1776e-05
-8.74354e-05
-0.000606047
-6.46814e-05
-6.07563e-05
-0.000181533
-7.04814e-05
-1.30145e-06
0.000570022
-8.45857e-05
-3.03886e-05
0.000764167
-9.38673e-05
-9.21487e-06
0.000493161
-8.88207e-05
-2.76042e-05
-5.89988e-05
-7.64178e-05
3.56116e-05
-0.000758413
-6.97484e-05
-0.000613056
0.00614994
0.00323892
-0.000680204
0.00632574
0.0028836
-0.000464049
0.00606993
0.00292767
-0.000319717
0.00618963
0.00240152
-0.000427922
0.00657492
0.00234779
-0.000446513
0.00675597
0.00235385
-0.000709623
0.00658389
0.00214579
-0.000568943
0.00657672
0.0021625
-0.000411251
0.00715865
0.00228794
-0.000173108
0.00691968
0.00243207
-0.000411081
0.0066115
0.00197139
-0.000407633
0.00684468
0.00199171
-0.000187687
0.0071545
0.0018751
0.000165192
0.00693678
0.0015941
4.60397e-05
0.00675107
0.00141496
-0.000445565
0.00531427
0.00173568
-0.000296793
0.00521388
0.00170474
-0.000184277
0.00588073
0.00169078
-0.000153296
0.00681674
0.00144561
-0.000199656
0.00618074
0.00122793
3.527e-05
0.00429461
0.00110885
-0.000165694
0.00460158
0.000817454
-4.37159e-05
0.00607485
0.000836542
-0.000255132
0.00732596
0.000779106
-0.000228776
0.00567754
0.000538106
-6.5125e-05
0.00265293
0.000229277
0.000113557
0.00263628
0.000212252
-0.000188697
0.00244674
0.000373479
5.81314e-05
0.00514807
-8.82075e-06
6.43717e-05
0.00555678
-0.000127226
-0.000115066
0.00495159
-0.000140482
-0.000262435
0.00252482
-0.000203952
-0.000244247
0.00198305
-0.000272124
4.69592e-05
0.00234384
-0.000365973
-0.000119033
0.00212251
-0.000337359
-0.000614498
0.0019346
-0.000272949
7.38181e-05
0.00436118
-0.000469189
8.23498e-05
0.0043867
-0.000418752
-0.000241576
0.00339904
-0.000323189
-0.000327309
0.00231113
-0.000362419
-0.000187979
0.00255601
-0.000428189
-1.32479e-05
0.0019083
-0.000459152
4.50585e-06
0.00154747
-0.000376438
-0.000394208
0.0020907
-0.000327316
-0.000488452
0.00243458
-0.000241861
0.000110945
0.00293096
-0.000474394
1.30697e-05
0.00341191
-0.000416625
-0.000197962
0.00261403
-0.000393279
-0.000290848
0.00114078
-0.000390705
-2.18129e-05
0.000390693
-0.000405438
-7.86422e-05
0.000749649
-0.000389921
-3.36272e-05
0.00148635
-0.000377158
-0.000200196
0.00186083
-0.000358421
-0.00030426
0.00289516
-0.000315299
-0.000321313
0.00341617
-0.00032297
-3.93833e-06
0.000241654
-0.000264476
-3.81201e-05
0.000928953
-0.000268251
-0.000152058
0.00084435
-0.000223996
-0.00020211
-0.000243735
-0.000200735
-0.000161982
-0.000639056
-0.000194754
-0.000118413
0.000227992
-0.000211256
-8.69533e-07
0.00148858
-0.000249332
-7.15783e-05
0.0015398
-0.000295452
-7.80461e-05
0.00224637
-0.000304974
-0.000103981
0.00266199
-0.000292343
0.000129991
0.00104479
-0.000236524
-5.97107e-05
-0.00130456
-6.75736e-05
-5.26784e-05
-0.00122475
-6.91733e-05
-9.5782e-05
-0.00129573
-6.21959e-05
-0.000104442
-0.00101402
-6.19264e-05
-9.24074e-05
-0.000510915
-6.45006e-05
-6.1905e-05
-0.000113994
-7.03155e-05
-3.21459e-06
0.00058681
-8.40543e-05
-2.60138e-05
0.000798464
-9.28692e-05
-4.18571e-06
0.000490707
-8.72277e-05
-2.02301e-05
-5.32456e-05
-7.43439e-05
3.186e-05
-0.000798092
-6.85987e-05
-3.12629e-05
-0.000503959
-5.76537e-05
-0.000204761
0.00587941
0.00379315
-0.000524632
0.0058806
0.00357625
-0.000641842
0.00611082
0.00323006
-0.000426746
0.00576766
0.00321529
-0.00029977
0.0063085
0.0028842
-0.000390879
0.00598595
0.00293054
-0.000411516
0.0060402
0.00294969
-0.000666745
0.00611026
0.00254652
-0.000402052
0.00644179
0.00236776
-0.000440112
0.00673159
0.00240104
-0.000339805
0.00706856
0.00254879
-0.000596032
0.00673276
0.00214357
-0.000705155
0.00678943
0.0022306
-0.000347743
0.00712466
0.00235654
-0.000188931
0.00701524
0.00254649
0.000297899
0.00676849
0.00228232
-0.000504567
0.00653292
0.00207428
-0.000395219
0.00678599
0.0021285
-0.000153251
0.0070601
0.00205509
-0.000127018
0.00691222
0.00187338
-0.00022783
0.00684512
0.00152822
9.13369e-05
0.00720076
0.00150913
-0.000276538
0.00539844
0.00176499
-0.000198177
0.00538484
0.00171918
-0.000253258
0.00580132
0.00178227
-2.92105e-05
0.00678135
0.00152661
-0.000125627
0.00644019
0.00124666
0.000135092
0.00433843
0.00116257
-0.000294678
0.00373145
0.00109846
0.000120154
0.00480154
0.000875388
5.86752e-05
0.00618034
0.000717657
-0.000243017
0.00746401
0.000826441
-0.000388225
0.00584304
0.000739392
-0.000187818
0.00267534
0.000459273
8.23083e-05
0.0024358
0.000394405
-0.000301787
0.00236223
0.000479515
-0.000781733
0.0021783
0.000610053
0.000134004
0.00523475
-0.000146254
0.000178529
0.00557776
-0.000125984
-1.77458e-07
0.00472033
-0.000137371
-0.000300105
0.00254309
-0.000185959
-0.000253418
0.00216893
-0.000324396
-3.02282e-05
0.00242218
-0.000333487
-0.000141991
0.00220577
-0.00030274
-0.000646316
0.00208747
-0.000238125
-0.000788016
0.00209945
-0.000124597
0.000215756
0.00428282
-0.000503647
7.67138e-05
0.0042754
-0.000421532
-0.000237206
0.0033754
-0.00035586
-0.000386002
0.00240504
-0.000321942
4.71321e-05
0.00261855
-0.000493906
6.62715e-05
0.00182723
-0.000492036
-2.11345e-05
0.00148817
-0.000412341
-0.000438854
0.00223428
-0.000281365
-0.000553376
0.00256143
-0.000205052
-0.000580777
0.00353359
-0.000172222
5.95883e-05
0.00291009
-0.000481015
1.20195e-05
0.00329849
-0.000411111
-0.000183696
0.00261568
-0.000386635
-0.000269075
0.00120248
-0.000388016
-0.000196793
0.000424139
-0.000389341
-8.78539e-05
0.000703502
-0.00038985
-5.60436e-05
0.00153071
-0.000379108
-0.000165367
0.00192765
-0.00035019
-0.000287244
0.00306078
-0.000314847
-0.000286702
0.00360141
-0.000317811
-1.11114e-05
0.00373849
-0.000357459
4.70795e-06
0.000225823
-0.000264711
-3.54364e-05
0.000917583
-0.000270348
-0.000172549
0.000872332
-0.000219466
-0.000201881
-0.000174791
-0.000195501
-0.000171384
-0.000568805
-0.000192009
-0.000128438
0.000308701
-0.00020893
-1.37458e-05
0.00153388
-0.000246023
-5.91329e-05
0.00161466
-0.000291069
-6.34587e-05
0.00231085
-0.000300661
-7.37579e-05
0.0026841
-0.000273561
0.000141064
0.000861961
-0.000218715
0.000128189
0.000882209
-0.000137389
-6.4859e-05
-0.00124758
-6.77746e-05
-5.8065e-05
-0.00116499
-6.92685e-05
-9.83167e-05
-0.00120413
-6.24573e-05
-0.000108506
-0.000905089
-6.26227e-05
-9.76304e-05
-0.000410521
-6.46892e-05
-6.31613e-05
-4.52147e-05
-7.01187e-05
-4.67936e-06
0.000604642
-8.34685e-05
-2.19546e-05
0.000828163
-9.17979e-05
2.09414e-07
0.000483225
-8.5596e-05
-1.4076e-05
-5.42514e-05
-7.21459e-05
2.20589e-05
-0.000827215
-6.72797e-05
-2.53168e-05
-0.00048962
-5.76211e-05
-3.85247e-05
-0.000308647
-3.63338e-05
-0.000257053
0.00574275
0.00374084
-0.000367673
0.00571916
0.0037865
-1.84218e-06
0.00570613
0.00381064
-0.000672977
0.00583486
0.00356335
-0.000336286
0.00560937
0.00352096
-0.000576959
0.00630872
0.00323883
-0.000363441
0.00573008
0.0032402
-0.000309107
0.0057267
0.00318305
-0.000558539
0.00617806
0.00288768
-0.000406417
0.00593243
0.00294209
-0.000429099
0.00599811
0.00296161
-0.000333583
0.00621098
0.0029846
-0.000504023
0.00599185
0.00258761
-0.000516918
0.00631616
0.00248391
-0.000418207
0.0067047
0.00246511
-0.000324951
0.00702529
0.00258033
3.28458e-05
0.00710767
0.0027318
-0.000494037
0.0066752
0.00217736
-0.000589789
0.00688424
0.00224333
-0.000318651
0.00710387
0.00241679
-0.000199321
0.00684173
0.00260236
2.24844e-05
0.00662924
0.00243543
0.000191711
0.00667243
0.00230996
-0.000343382
0.0064466
0.00214639
-0.000263727
0.00671425
0.00221157
-0.000175157
0.0069511
0.0021594
-2.84272e-05
0.00696532
0.00200121
-0.000226674
0.00711481
0.00170473
0.000231114
0.00716575
0.00146721
-0.00034548
0.00625085
0.00172469
-0.000170973
0.00564178
0.0017694
1.27985e-06
0.00552093
0.0016863
-0.000236286
0.00576662
0.00174716
-0.000204669
0.00673694
0.00164313
-0.000227691
0.00656702
0.00143965
4.53037e-05
0.00441588
0.00120622
-0.000378438
0.00384929
0.00112138
-0.000782706
0.00408628
0.00103767
3.13336e-05
0.00522353
0.000903786
0.000159669
0.0063261
0.000748489
-7.37584e-05
0.00740556
0.000849686
-0.000221994
0.0057571
0.000834269
-0.000189997
0.00270681
0.000644496
-3.3987e-05
0.00231614
0.000582695
-0.000302487
0.00230791
0.000609217
-0.000817571
0.00226382
0.000565257
-0.000922417
0.002745
0.000530332
0.000166011
0.00547381
-0.000223352
0.000265983
0.00545085
-0.000208608
-0.000137979
0.0046075
-0.000112385
-0.000413451
0.00256401
-0.000130842
-0.000238189
0.00256063
-0.000292333
2.76333e-05
0.00254409
-0.000407666
-0.000184009
0.00223976
-0.000204603
-0.000687662
0.00221627
-0.000182734
-0.000780621
0.00220457
-0.000115999
-0.000807706
0.00320068
-9.54408e-05
0.000120941
0.00421334
-0.000542968
0.000129988
0.00405936
-0.000405572
-0.000209553
0.00330471
-0.000324985
-0.000347244
0.00247955
-0.000352197
-0.000200224
0.00277492
-0.000474879
-2.22973e-05
0.00177905
-0.000511281
-6.50911e-05
0.00144003
-0.000434854
-0.000414008
0.00239525
-0.000324662
-0.000549884
0.00276335
-0.000220644
-0.000517979
0.0037684
-0.000208585
-4.49265e-05
0.00392393
-0.000254192
5.7626e-05
0.00290003
-0.000491383
5.31727e-05
0.003146
-0.000417133
-0.000233701
0.00262192
-0.000356207
-0.000267018
0.00125938
-0.000378397
-0.00012833
0.0003754
-0.00038233
-5.7638e-05
0.000630235
-0.000386874
-5.88738e-05
0.00156301
-0.000377022
-0.000163791
0.00200077
-0.00034757
-0.000232414
0.00318257
-0.000303016
-0.000219737
0.00376333
-0.000330791
8.12051e-05
0.00386331
-0.000382778
0.000298383
0.00285366
-0.00022578
-1.51703e-06
0.000209334
-0.000264423
-4.33846e-05
0.000907128
-0.000268936
-0.000163492
0.000885085
-0.000217925
-0.000214268
-9.76962e-05
-0.000190799
-0.000187335
-0.000486161
-0.00018844
-0.000135325
0.000395132
-0.000206277
-1.21258e-05
0.00157423
-0.000241836
-5.26592e-05
0.00168421
-0.000284869
-3.47384e-05
0.00234919
-0.000294464
-4.70676e-05
0.00266989
-0.000253455
0.000139496
0.000665411
-0.000194447
0.000156063
0.000615229
-0.000133115
6.78004e-05
0.00136309
-8.84161e-05
-7.03275e-05
-0.00118583
-6.78626e-05
-6.3523e-05
-0.00110002
-6.92224e-05
-0.000105805
-0.00110482
-6.27724e-05
-0.00011124
-0.000793124
-6.31828e-05
-0.000100896
-0.000307063
-6.51852e-05
-6.42827e-05
2.43385e-05
-6.99597e-05
-6.72348e-06
0.000624063
-8.28165e-05
-1.86303e-05
0.000854026
-9.07015e-05
5.46493e-06
0.000469944
-8.39822e-05
-1.07284e-05
-5.91594e-05
-6.99595e-05
9.95328e-06
-0.000843509
-6.58055e-05
-1.92633e-05
-0.000480338
-5.72977e-05
-3.86814e-05
-0.00029152
-3.6066e-05
-2.93539e-05
-0.00132928
-3.44181e-05
-6.571e-05
0.0051971
0.00447546
-0.000237794
0.00532516
0.00420523
-0.00032944
0.00569781
0.00380668
-0.000110508
0.00570702
0.00384149
-0.000558171
0.00563152
0.00372947
-0.000280127
0.00564312
0.00379334
8.68416e-05
0.00562141
0.00370827
-0.000661374
0.00586
0.00353427
-0.000430365
0.0057065
0.00353314
-0.000184215
0.00545829
0.00346289
-0.000519143
0.00622849
0.00321771
-0.000420775
0.00569597
0.0032873
-0.000258478
0.0055954
0.00320087
-0.000205478
0.00575521
0.00316053
-0.000352764
0.00600901
0.00287525
-0.000413826
0.00583184
0.00288517
-0.000346788
0.00593001
0.00293877
-0.000303015
0.00617676
0.00297389
-1.37454e-05
0.00622895
0.00301483
-0.00045647
0.00593461
0.00263837
-0.000331019
0.00609977
0.00254522
-0.000285088
0.00665048
0.00250458
-0.000229482
0.00694518
0.00257538
0.000198584
0.00677968
0.00273222
0.000130614
0.00673583
0.00283742
-0.000424545
0.00672712
0.00219283
-0.000381368
0.00687519
0.00230405
-0.000306506
0.00707149
0.00240706
-8.10687e-05
0.00669993
0.00261123
-3.20081e-05
0.00651852
0.00251841
0.000313452
0.00660857
0.00241695
-0.000107085
0.00673273
0.00228929
-0.000433376
0.00653645
0.00219981
-0.000146915
0.0067659
0.00224294
-0.000177855
0.00690519
0.00219905
8.55714e-05
0.00680566
0.00202882
-0.000273166
0.00737432
0.00178717
0.00010196
0.00713333
0.0016805
-0.000448572
0.00623183
0.00155636
-0.000720388
0.0059445
0.00156726
-0.000186563
0.00577308
0.00183114
1.35856e-05
0.00564812
0.0017883
-0.000142849
0.00572567
0.00179634
-8.05958e-05
0.00676734
0.00157535
-0.000152421
0.00675163
0.00142094
-0.000137156
0.00457088
0.00138781
-0.000143394
0.00371427
0.00118215
-0.000788071
0.0041524
0.00102577
-0.00066978
0.00401027
0.000778602
7.5753e-05
0.0057245
0.000750303
0.00022773
0.00653446
0.000733675
-0.000219059
0.00730064
0.00093449
-0.000365394
0.00566103
0.0008977
-0.000281048
0.0028424
0.00074154
-8.75089e-05
0.00238171
0.000694065
-0.000423638
0.00239557
0.000734672
-0.000803716
0.0023981
0.00059099
-0.00082972
0.00286061
0.000498747
-0.000620914
0.00307475
0.000304522
0.000229839
0.00557063
-0.000282398
0.000402597
0.00521028
-0.000255392
-0.000151903
0.0043654
-2.41545e-05
-0.000432684
0.00270649
-0.000169417
-0.000210506
0.00270297
-0.000262904
-0.000122051
0.00269484
-0.000343327
-0.000192559
0.00204362
-8.40549e-05
-0.000694249
0.00237755
-8.56412e-05
-0.000752154
0.00233246
-0.000108353
-0.000724008
0.00336847
-7.77601e-05
-0.000221234
0.00392338
-0.000142222
8.10486e-05
0.00415806
-0.000549893
0.000131728
0.00384254
-0.000404708
-0.000209151
0.00313123
-0.000256644
-0.000366813
0.00260722
-0.000352866
-6.85102e-05
0.00281891
-0.00045601
1.32038e-05
0.00171996
-0.00048663
-9.15397e-05
0.00137322
-0.0004118
-0.000452168
0.00256122
-0.000312454
-0.000468826
0.00291517
-0.000240069
-0.000413383
0.00399135
-0.000249952
5.37225e-05
0.00402663
-0.000283803
0.000153232
0.0044435
-0.000261524
6.92411e-05
0.00287322
-0.000505925
-1.13679e-05
0.00304449
-0.000421885
-0.00023334
0.00262991
-0.00035527
-0.000304652
0.00135511
-0.000361553
-0.000115159
0.000297787
-0.00037296
-8.65196e-05
0.000571734
-0.000372634
-7.5039e-05
0.0016172
-0.000378155
-0.000198531
0.00210072
-0.0003311
-0.000198348
0.00331143
-0.000312823
-0.000162251
0.00390816
-0.000332666
0.000152829
0.00394154
-0.000422349
0.000335906
0.00254841
-0.000257369
0.000299582
0.003003
-0.000111282
-1.06621e-05
0.000194563
-0.000263253
-5.10469e-05
0.000897614
-0.000267386
-0.000167352
0.000891361
-0.000213666
-0.000216954
-2.40013e-05
-0.000185906
-0.000208499
-0.00038348
-0.000185878
-0.000144559
0.000491018
-0.000204048
-2.86988e-05
0.00162766
-0.000237731
-3.25478e-05
0.00173314
-0.000276854
-6.92364e-06
0.00236377
-0.000287059
-1.69844e-05
0.00261698
-0.000235301
0.000128691
0.000464858
-0.00017164
0.000190285
0.000342848
-0.000131613
9.98499e-05
0.00118061
-8.91683e-05
-8.91381e-06
-0.000224837
-6.81064e-05
-7.38097e-05
-0.00112108
-6.7863e-05
-6.93994e-05
-0.00102939
-6.90929e-05
-0.000113249
-0.000998077
-6.27199e-05
-0.000113248
-0.000679421
-6.32267e-05
-0.000104315
-0.000200247
-6.56843e-05
-6.78747e-05
9.67474e-05
-6.97194e-05
-5.79532e-06
0.000642116
-8.2217e-05
-1.43889e-05
0.000875168
-8.957e-05
8.01845e-06
0.000453641
-8.24168e-05
-9.36434e-06
-6.5879e-05
-6.78983e-05
-2.52041e-06
-0.000846673
-6.42747e-05
-1.4044e-05
-0.000475646
-5.64541e-05
-3.56313e-05
-0.000277819
-3.53679e-05
-3.07595e-05
-0.00130018
-3.44032e-05
-6.62384e-05
-0.00138343
-4.49522e-05
-0.00020184
0.00493093
0.00443549
-0.000136543
0.00505085
0.00446071
-0.000158901
0.00499944
0.00454693
-0.000410821
0.00533642
0.00420668
-0.000130299
0.00521963
0.00427222
-0.000461103
0.00563279
0.00378575
-0.000288564
0.00560195
0.00392018
0.000142913
0.00555969
0.00397549
-0.000613329
0.00556086
0.00378192
-0.000443335
0.00565167
0.00373389
-6.25761e-06
0.00549946
0.00373734
0.000288084
0.00558976
0.00364819
-0.000616249
0.00588357
0.00360647
-0.000435791
0.00566866
0.00358713
-0.000212656
0.00544986
0.00349576
-5.15279e-05
0.00558696
0.00338104
-0.000309157
0.00609788
0.00321252
-0.00044872
0.0056538
0.00329478
-0.000232617
0.00552488
0.00324366
-0.000219831
0.00571745
0.00315545
-7.523e-05
0.0057702
0.00322888
-0.000388392
0.00595407
0.0029019
-0.000147041
0.00561563
0.00290748
-0.000166663
0.00575831
0.00293845
-0.000130566
0.00607277
0.00294385
0.000254958
0.00615538
0.00299109
9.81211e-05
0.00614131
0.00308022
-0.000478157
0.00596882
0.00266463
-0.000290581
0.0060998
0.00254755
-0.000313737
0.00663832
0.00256461
2.43068e-06
0.00679122
0.00257505
-8.15931e-05
0.00667334
0.0027313
0.000287027
0.00663078
0.0028637
2.63304e-05
0.00666689
0.00280522
-0.000415898
0.00667081
0.00220013
-0.000310923
0.00690783
0.0023242
-0.000177203
0.0069143
0.00246058
-0.000175072
0.0067479
0.00261973
-0.000240962
0.00650132
0.00259623
5.89188e-05
0.00666242
0.0025076
-4.68283e-05
0.0063921
0.00235583
-0.000621746
0.00655701
0.00218317
-0.000343067
0.00646596
0.0022262
-0.000172172
0.00687275
0.00227871
-7.58306e-05
0.00688414
0.00219696
6.26337e-05
0.0068521
0.00200938
-0.000124875
0.00739888
0.00197672
-6.9756e-05
0.00700953
0.00184357
-0.000265426
0.00628405
0.00175031
-0.000682049
0.00591252
0.00148232
-0.000343255
0.0061456
0.00138752
-1.04956e-05
0.00584399
0.00181048
4.55141e-05
0.00587048
0.00179099
-0.000152958
0.00570124
0.00174663
-0.000101911
0.00669981
0.00160038
-4.07143e-05
0.0066908
0.00139585
-0.000259583
0.00484443
0.00131947
-0.000389458
0.00381648
0.00125142
-0.000671295
0.00420519
0.00099694
-0.000609354
0.00400136
0.000814313
-0.000456289
0.00454706
0.00052813
0.000116252
0.00625072
0.000730787
0.000320889
0.00683136
0.000535113
-0.000318295
0.00728388
0.000916832
-0.000450783
0.00564179
0.000971826
-7.54748e-05
0.00282585
0.000779223
-0.000153861
0.00234803
0.000807029
-0.000469628
0.00256355
0.000803146
-0.000773207
0.00251483
0.000696898
-0.000744538
0.00292454
0.000519449
-0.000612054
0.00323246
0.000229087
-0.000286673
0.00380495
0.000175664
0.00022282
0.00564304
-0.000350025
0.000292996
0.00503357
-0.00026696
3.15274e-05
0.00394787
-7.85354e-05
-0.000430808
0.00280153
-5.52033e-05
-0.000188391
0.00289485
-0.000241416
-0.000206217
0.00294209
-0.000290732
-0.000274186
0.00188743
-4.49741e-06
-0.00072489
0.00250052
6.57009e-05
-0.000708195
0.00254663
-6.04364e-05
-0.000603039
0.00349777
-4.79951e-05
-0.000192032
0.00419343
-0.000102051
4.31505e-06
0.00509364
-0.000131126
8.73878e-05
0.00409472
-0.000542119
-2.13091e-05
0.00369914
-0.000396553
-0.000302133
0.00305734
-0.000262032
-0.000403409
0.0027655
-0.000316161
-9.11125e-05
0.00287543
-0.000433431
-4.14903e-05
0.0016284
-0.00040948
-0.000195562
0.00137214
-0.000365032
-0.000521951
0.0027859
-0.000313053
-0.000448846
0.00307814
-0.000224932
-0.000359252
0.00420052
-0.00025224
9.42298e-05
0.00414241
-0.00030714
0.000148288
0.00461947
-0.000272161
0.00038053
0.00401563
-6.43428e-05
7.50827e-05
0.002831
-0.000517187
-5.05535e-05
0.00296497
-0.000426906
-0.000217084
0.0026046
-0.000346839
-0.00029435
0.00143096
-0.000353718
-0.000160353
0.000252669
-0.000364581
-0.000150993
0.000566024
-0.000360816
-0.000113871
0.0017084
-0.000378661
-0.000173702
0.00218402
-0.00032031
-0.000131131
0.00342378
-0.000319247
-9.85914e-05
0.00402221
-0.000345259
0.00018598
0.00399944
-0.000447862
0.000373262
0.00224281
-0.000299724
0.000362477
0.00261761
-0.000134608
0.000123192
0.00123692
-8.794e-05
-1.15769e-05
0.000174286
-0.000261504
-7.36761e-05
0.000902583
-0.000263946
-0.000188033
0.000908312
-0.000209554
-0.000227557
6.27536e-05
-0.000186113
-0.000226811
-0.000265572
-0.000181317
-0.000167847
0.000607286
-0.000202173
-2.72749e-05
0.00167746
-0.000232369
-2.85339e-05
0.00177716
-0.000267605
-7.09425e-06
0.0023792
-0.000277169
1.73847e-05
0.00252446
-0.000221287
0.000118055
0.000264068