/*--------------------------------*- C++ -*----------------------------------*\
  =========                 |
  \\      /  F ield         | OpenFOAM: The Open Source CFD Toolbox
   \\    /   O peration     | Website:  https://openfoam.org
    \\  /    A nd           | Version:  7
     \\/     M anipulation  |
\*---------------------------------------------------------------------------*/
FoamFile
{
    version     2.0;
    format      ascii;
    class       volVectorField;
    location    "9.5";
    object      U;
}
// * * * * * * * * * * * * * * * * * * * * * * * * * * * * * * * * * * * * * //

dimensions      [0 1 -1 0 0 0 0];

internalField   nonuniform List<vector> 
18630
(
(0.80618 0.0509488 -1.39529)
(-0.000660658 0.0675028 -1.68607)
(0.812486 0.0625062 -1.40213)
(0.823919 0.0540663 -1.54897)
(-1.09656 -0.501559 -1.65471)
(-0.028236 0.0380769 -1.69263)
(-0.257607 -0.228715 -1.99693)
(0.823138 0.0642624 -1.40777)
(0.815808 0.0608496 -1.55223)
(1.078 -0.111874 -1.47532)
(-1.6227 -0.577864 -0.764711)
(-1.14194 -0.61147 -1.6836)
(-1.28874 -0.897539 -1.66842)
(-0.0479132 0.0134064 -1.69791)
(-0.270485 -0.292965 -2.00877)
(-0.0028537 -0.905684 -1.7757)
(0.832534 0.0615665 -1.40781)
(0.820979 0.072248 -1.54772)
(1.03883 -0.0908796 -1.49858)
(0.979345 -0.283013 -1.34355)
(-1.98095 -1.07416 -0.291609)
(-1.63951 -0.668758 -0.758692)
(-1.50063 -1.64846 -0.841448)
(-1.15849 -0.653485 -1.71363)
(-1.28652 -1.0011 -1.67985)
(-0.886433 -0.743729 -1.93307)
(-0.0633847 -0.0157467 -1.70684)
(-0.285183 -0.340521 -2.02315)
(-0.00299996 -0.893598 -1.7839)
(0.534242 -0.538011 -1.66635)
(0.835494 0.0576963 -1.40866)
(0.818081 0.0781154 -1.54821)
(1.04632 -0.118093 -1.48226)
(0.990435 -0.283397 -1.33905)
(0.652342 -0.309695 -1.53354)
(-1.60076 -0.843492 1.86552)
(-2.10016 -1.14043 -0.283762)
(-2.58166 -0.956829 -0.121233)
(-1.64557 -0.705246 -0.889426)
(-1.75571 -1.38901 -1.13225)
(-1.47993 -0.857501 -1.65463)
(-1.1732 -0.666487 -1.77559)
(-1.42008 -1.02892 -1.62613)
(-0.892497 -0.798009 -1.89602)
(-0.258382 -0.571544 -1.85667)
(-0.0715706 -0.0517282 -1.71738)
(-0.285548 -0.391966 -2.03997)
(0.00728409 -0.882697 -1.79409)
(0.537517 -0.59419 -1.63995)
(0.539456 -0.323301 -1.58181)
(0.854425 0.0537031 -1.40929)
(0.816246 0.0916044 -1.54837)
(1.03892 -0.114907 -1.48521)
(0.978206 -0.287396 -1.3211)
(0.616356 -0.247293 -1.55496)
(0.355171 -0.353552 -1.45444)
(-2.42706 -1.1079 1.87472)
(-1.63766 -0.915427 2.04674)
(-2.35861 -1.14016 1.37724)
(-2.04799 -1.36553 -0.0536275)
(-2.44722 -1.06059 -0.0225539)
(-2.22026 -0.919215 -0.45492)
(-1.77556 -0.749557 -0.915481)
(-1.78506 -1.26249 -1.25206)
(-1.39872 -1.21328 -1.52632)
(-0.999987 -0.691414 -1.38911)
(-1.20561 -0.749039 -1.77823)
(-1.38544 -1.05432 -1.65711)
(-0.881638 -0.861208 -1.87267)
(-0.220814 -0.628285 -1.80422)
(-0.174511 -0.365682 -1.77204)
(-0.060648 -0.0899309 -1.73148)
(-0.282694 -0.441413 -2.05118)
(0.0162746 -0.858113 -1.80793)
(0.575419 -0.649962 -1.60622)
(0.558452 -0.330126 -1.56346)
(0.121662 -0.420385 -1.61048)
(0.87256 0.0679942 -1.40858)
(0.813873 0.0974811 -1.54917)
(1.03838 -0.115976 -1.48602)
(1.00189 -0.292955 -1.29492)
(0.628042 -0.315769 -1.51621)
(0.350659 -0.346217 -1.4446)
(-0.208044 -0.141687 -1.80971)
(-2.69179 -1.48817 2.6335)
(-2.38623 -1.16031 2.16335)
(-2.32801 -0.966038 2.36487)
(-1.65619 -0.980098 2.09876)
(-2.39739 -1.31692 1.54737)
(-2.95047 -1.1057 0.862966)
(-2.03079 -1.45076 -0.0185438)
(-2.38108 -1.13865 -0.0108162)
(-2.20956 -1.00052 -0.407193)
(-0.979814 -0.778086 -0.898673)
(-1.63223 -1.19989 -0.92103)
(-1.67974 -1.4021 -1.24369)
(-1.37107 -1.30151 -1.49382)
(-0.963313 -0.775085 -1.27965)
(-1.05036 -0.448771 -1.36164)
(-1.25054 -0.732193 -1.8405)
(-1.41694 -1.08522 -1.65466)
(-0.85671 -0.909918 -1.87648)
(-0.16781 -0.76583 -1.72017)
(-0.135808 -0.389661 -1.78534)
(-0.382463 -0.262903 -1.75287)
(-0.0571994 -0.126621 -1.75009)
(-0.269643 -0.468719 -2.06652)
(0.0260882 -0.849156 -1.80565)
(0.581873 -0.636697 -1.61712)
(0.586501 -0.362243 -1.54283)
(0.132301 -0.423734 -1.57772)
(-0.64137 -0.0977218 -1.76789)
(0.864373 0.0832535 -1.4219)
(0.822132 0.0874527 -1.54693)
(1.04226 -0.111584 -1.48627)
(0.976247 -0.248115 -1.31262)
(0.634288 -0.294959 -1.512)
(0.344092 -0.340257 -1.4361)
(-0.207109 -0.157929 -1.7999)
(-0.208642 -0.395917 -2.11617)
(-2.86938 -1.35406 2.71753)
(-2.70736 -1.61522 2.66622)
(-2.99289 -1.15389 2.45814)
(-2.30503 -1.312 2.43199)
(-2.28483 -1.08909 2.66849)
(-2.80452 -0.838547 2.34149)
(-1.61258 -1.05345 2.09409)
(-2.51159 -1.29273 1.59224)
(-3.10307 -1.03729 1.13506)
(-2.23799 -1.05058 0.291716)
(-2.07322 -1.50588 0.125048)
(-2.36758 -1.37543 0.0984934)
(-2.21441 -1.11252 -0.384368)
(-0.962487 -0.795677 -0.77671)
(-0.821033 -0.607143 -0.544458)
(-1.78444 -1.05616 -0.979513)
(-1.72194 -1.4556 -1.25173)
(-1.40062 -1.19789 -1.46612)
(-0.887912 -0.876322 -1.18677)
(-1.03504 -0.57495 -1.27434)
(-1.05146 -0.315934 -1.53464)
(-1.21823 -0.853567 -1.89309)
(-1.4831 -1.07224 -1.65718)
(-0.832126 -0.952162 -1.87005)
(-0.149456 -0.803128 -1.71401)
(-0.126281 -0.394335 -1.82747)
(-0.344746 -0.38155 -1.7079)
(-0.651279 -0.160486 -1.82691)
(-0.0311067 -0.159536 -1.76304)
(-0.253368 -0.501843 -2.08175)
(0.0525656 -0.832198 -1.80486)
(0.594703 -0.646586 -1.59987)
(0.61962 -0.391942 -1.51993)
(0.144285 -0.449538 -1.55501)
(-0.666339 -0.0906895 -1.74997)
(-0.521061 -0.440134 -2.16545)
(0.88154 0.101367 -1.42072)
(0.85667 0.0508139 -1.52684)
(1.05352 -0.111847 -1.48364)
(0.972905 -0.289359 -1.27816)
(0.632915 -0.330813 -1.49796)
(0.338197 -0.337104 -1.42732)
(-0.206127 -0.167921 -1.79029)
(-0.214663 -0.390847 -2.09793)
(-0.193368 -0.165178 -2.25895)
(-2.97603 -1.34783 2.69429)
(-2.81909 -1.62348 2.68587)
(-3.02779 -1.17502 2.66986)
(-2.84715 -1.58429 2.64674)
(-2.87363 -1.52342 2.66349)
(-3.17041 -0.794127 2.45103)
(-2.25938 -1.47008 2.57777)
(-2.25833 -1.27707 2.71963)
(-2.7829 -0.975092 2.45579)
(-3.35735 -0.798667 1.69871)
(-1.65775 -1.11685 2.08405)
(-2.4653 -1.3106 1.83167)
(-3.16941 -1.19815 1.46194)
(-2.28886 -1.14335 0.439353)
(-1.20089 -0.672731 -0.14708)
(-2.06638 -1.50439 0.154187)
(-2.31704 -1.47951 0.146009)
(-2.16557 -1.23501 -0.380525)
(-0.975583 -0.766451 -0.796353)
(-0.750824 -0.68216 -0.453583)
(-1.17137 -0.017128 -0.397265)
(-1.67335 -1.31494 -1.0614)
(-1.71604 -1.48374 -1.25499)
(-1.19319 -1.47843 -1.27621)
(-0.796392 -0.940521 -1.15267)
(-1.03933 -0.591034 -1.28622)
(-0.928241 -0.382924 -1.50357)
(-0.823466 -0.323162 -1.59224)
(-1.29534 -0.808309 -1.95185)
(-1.41602 -1.11766 -1.71866)
(-0.816623 -1.02548 -1.81913)
(-0.123184 -0.803634 -1.71396)
(-0.0661751 -0.428992 -1.86155)
(-0.308121 -0.411187 -1.7104)
(-0.633217 -0.264984 -1.78735)
(-0.714336 -0.508261 -1.71071)
(0.0121862 -0.2077 -1.76454)
(-0.221498 -0.506625 -2.10431)
(0.0702205 -0.84422 -1.7977)
(0.618822 -0.644143 -1.58116)
(0.646193 -0.426443 -1.492)
(0.155477 -0.46038 -1.53777)
(-0.666024 -0.168588 -1.72898)
(-0.540158 -0.468732 -2.13329)
(-0.90914 -0.452368 -2.34101)
(0.891831 0.105998 -1.42422)
(0.852297 0.0688469 -1.51686)
(1.06492 -0.11841 -1.47876)
(0.966283 -0.253752 -1.27739)
(0.643755 -0.346186 -1.48285)
(0.33185 -0.335734 -1.41893)
(-0.208095 -0.176099 -1.78007)
(-0.221464 -0.38504 -2.07803)
(-0.197024 -0.152107 -2.22989)
(0.0935706 -0.225044 -1.90679)
(-2.91398 -1.17466 2.90291)
(-2.92847 -1.43734 2.71409)
(-3.08121 -0.989823 2.63917)
(-2.74501 -1.7098 2.69826)
(-2.94828 -1.36493 2.70845)
(-3.20487 -1.26928 2.73125)
(-2.83968 -1.63527 2.67801)
(-3.06672 -1.37326 2.66726)
(-3.37322 -0.781973 2.49409)
(-3.16474 -0.905907 2.32095)
(-2.06666 -1.64881 2.72254)
(-2.22429 -1.31511 2.7168)
(-2.69535 -1.09768 2.68091)
(-3.31159 -0.936303 1.98712)
(-2.84766 -0.700192 2.09444)
(-1.71097 -1.15051 2.10042)
(-2.56018 -1.3995 1.78673)
(-3.13478 -1.47593 1.65793)
(-2.38372 -1.3155 0.727859)
(-1.15606 -0.697622 0.191738)
(-1.35038 -0.0522644 -0.0551546)
(-2.0895 -1.52936 0.214094)
(-2.26417 -1.50938 -0.00176584)
(-2.11946 -1.43172 -0.327527)
(-0.961975 -0.876767 -0.715328)
(-0.875999 -0.301125 -0.794074)
(-1.21847 0.127286 -0.658833)
(-0.996117 0.0532154 -1.07827)
(-1.59358 -1.4729 -1.24461)
(-1.78163 -1.33131 -1.27779)
(-1.11673 -1.60282 -1.20279)
(-0.724173 -1.00347 -1.03659)
(-1.02043 -0.64733 -1.24289)
(-0.884129 -0.385129 -1.4166)
(-0.747394 -0.45417 -1.48829)
(-0.76456 -0.829655 -1.22647)
(-1.25971 -0.880051 -2.0856)
(-1.43726 -1.04443 -1.79827)
(-0.729033 -1.19915 -1.7292)
(-0.0581898 -0.857136 -1.65821)
(-0.0314047 -0.543714 -1.87802)
(-0.238024 -0.465215 -1.72122)
(-0.643659 -0.340663 -1.74848)
(-0.69844 -0.58354 -1.66972)
(-1.13001 -1.12887 -1.46403)
(0.0268549 -0.220862 -1.77015)
(-0.188098 -0.532777 -2.11385)
(0.10258 -0.805992 -1.80907)
(0.635273 -0.643844 -1.55853)
(0.680725 -0.438343 -1.45833)
(0.170786 -0.488181 -1.51402)
(-0.679602 -0.192869 -1.70473)
(-0.567102 -0.46227 -2.10536)
(-0.964038 -0.459954 -2.34041)
(-1.1599 -0.618779 -2.29599)
(0.902062 0.116329 -1.42342)
(0.839707 0.091627 -1.51593)
(1.06006 -0.0832136 -1.48888)
(0.95274 -0.265651 -1.26744)
(0.648551 -0.36859 -1.46934)
(0.324681 -0.336069 -1.41097)
(-0.206363 -0.184246 -1.76938)
(-0.227851 -0.37964 -2.05642)
(-0.199073 -0.142248 -2.19694)
(0.0902828 -0.19307 -1.86009)
(0.371915 -0.0182368 -1.65193)
(-2.86099 -1.05112 3.03901)
(-2.78408 -1.37871 2.94093)
(-2.82032 -0.987175 2.95965)
(-2.84623 -1.47572 2.72923)
(-2.98978 -1.19211 2.67241)
(-3.12725 -1.06727 2.62665)
(-2.6565 -1.8483 2.65306)
(-2.76872 -1.67483 2.75021)
(-3.25237 -1.35801 2.67732)
(-3.26522 -0.716344 3.12414)
(-2.84989 -1.65235 2.73651)
(-3.02781 -1.397 2.76632)
(-3.29043 -1.20579 2.67044)
(-3.39718 -0.597829 2.41221)
(-3.15007 -1.17652 2.19636)
(-1.99656 -1.70515 2.88152)
(-2.08009 -1.46625 2.78299)
(-2.50288 -1.46694 2.9025)
(-3.03298 -1.22436 2.48469)
(-2.89349 -0.69793 2.19785)
(-2.05496 -0.381729 1.73094)
(-1.85873 -1.40285 1.68724)
(-2.6043 -1.41058 1.78975)
(-3.13378 -1.77421 1.5743)
(-2.37685 -1.51759 1.13421)
(-1.07374 -0.814819 0.537331)
(-1.30736 -0.218214 0.149508)
(-1.15997 -0.492138 0.198155)
(-2.06534 -1.59989 0.176216)
(-2.30382 -1.47608 -0.0203045)
(-2.04951 -1.49628 -0.418367)
(-0.853849 -1.09608 -0.38309)
(-0.744444 -0.764431 -0.614515)
(-1.11453 -0.286073 -0.789485)
(-1.0145 -0.151892 -1.05026)
(-0.682337 -1.1402 -0.714466)
(-1.7703 -1.2873 -1.41276)
(-1.84774 -1.22862 -1.32036)
(-1.03805 -1.5835 -1.22787)
(-0.64574 -1.12997 -0.82781)
(-0.985403 -0.796711 -1.19579)
(-0.864515 -0.377274 -1.41809)
(-0.683175 -0.407375 -1.45061)
(-0.775454 -0.890144 -1.1703)
(-1.01419 -1.04206 -1.11946)
(-1.17061 -0.966585 -2.1453)
(-1.36366 -1.10401 -1.86031)
(-0.779422 -1.12479 -1.77254)
(-0.0677799 -0.91494 -1.63659)
(0.0800174 -0.5493 -1.85974)
(-0.192865 -0.495892 -1.71773)
(-0.6343 -0.31916 -1.76034)
(-0.712214 -0.632266 -1.61579)
(-1.1232 -0.99846 -1.55268)
(-1.39504 -0.963442 -1.3436)
(0.0683086 -0.240681 -1.76178)
(-0.148178 -0.531946 -2.12965)
(0.159902 -0.875033 -1.75187)
(0.659148 -0.646473 -1.52281)
(0.697422 -0.448656 -1.42801)
(0.183038 -0.514317 -1.48864)
(-0.694137 -0.225171 -1.67876)
(-0.596988 -0.469933 -2.0728)
(-0.997172 -0.449719 -2.3335)
(-1.16439 -0.611328 -2.29244)
(-0.73572 0.811296 -2.27754)
(0.906608 0.137003 -1.4282)
(0.825664 0.113326 -1.5201)
(1.0627 -0.10209 -1.48609)
(0.945493 -0.244227 -1.26199)
(0.6538 -0.388694 -1.45598)
(0.319144 -0.336594 -1.40339)
(-0.205507 -0.193232 -1.75745)
(-0.233039 -0.374874 -2.03306)
(-0.199147 -0.134366 -2.16092)
(0.0874344 -0.163115 -1.81067)
(0.386708 0.0358064 -1.59871)
(0.348442 -0.380287 -1.49374)
(-2.84828 -0.48295 2.94989)
(-2.73023 -0.997813 3.02714)
(-2.75566 -1.20638 2.97034)
(-2.67319 -0.891876 2.96677)
(-2.94189 -1.08917 2.86672)
(-2.75205 -1.12469 2.93255)
(-2.78861 -0.954137 3.0096)
(-2.50289 -1.657 2.85253)
(-2.95635 -1.36497 2.64198)
(-3.06352 -1.15797 2.64577)
(-3.2867 -0.984925 2.71495)
(-2.67664 -1.98737 2.63592)
(-2.72849 -1.92945 2.73683)
(-3.20818 -1.42607 2.72781)
(-3.27052 -0.930735 3.13233)
(-3.39087 -0.119168 3.00699)
(-2.54901 -2.07457 2.81853)
(-2.92569 -1.69735 2.84667)
(-3.23864 -1.39152 2.90386)
(-3.12874 -1.24908 2.74977)
(-3.03262 -1.40148 2.27967)
(-3.46689 -0.701406 1.83378)
(-2.01242 -1.73258 2.99136)
(-2.16457 -1.47852 2.7733)
(-2.45684 -1.67516 2.93059)
(-3.14139 -1.33017 2.68569)
(-2.97318 -0.761203 2.32852)
(-2.00744 -0.427053 1.89355)
(-1.69453 -0.625604 1.92143)
(-1.87602 -1.11028 2.0686)
(-2.6728 -1.51192 1.50175)
(-3.13516 -1.88255 1.46332)
(-2.44927 -1.52941 1.49716)
(-1.08231 -0.92176 1.06674)
(-1.20672 -0.318112 0.392521)
(-0.997097 -0.845584 0.614401)
(-0.802767 -1.30464 1.32782)
(-2.03711 -1.56627 -0.0724286)
(-2.33723 -1.52757 -0.196217)
(-1.87763 -1.51226 -0.613707)
(-0.767314 -1.21464 -0.225485)
(-0.695151 -0.842455 -0.568782)
(-1.08841 -0.499973 -0.757366)
(-1.04935 -0.166233 -1.07157)
(-0.679233 -1.17285 -0.570147)
(-0.697472 -1.38837 -0.5898)
(-1.96971 -1.13364 -1.53187)
(-1.68877 -1.36367 -1.50792)
(-0.946155 -1.47366 -1.30563)
(-0.559467 -1.28275 -0.707632)
(-1.31251 -0.169024 -1.47999)
(-0.828192 -0.422028 -1.5187)
(-0.641523 -0.414409 -1.52643)
(-0.759944 -1.06444 -0.916021)
(-0.868441 -1.32713 -0.87732)
(-1.41333 -1.46378 -0.374513)
(-1.14722 -0.93636 -2.15276)
(-1.20561 -1.17417 -1.95414)
(-0.716599 -1.16873 -1.7396)
(-0.0199011 -0.955694 -1.63)
(0.122216 -0.612931 -1.79647)
(-0.113756 -0.55255 -1.68526)
(-0.620064 -0.435121 -1.7587)
(-0.729045 -0.709685 -1.60783)
(-1.18306 -0.996822 -1.54877)
(-1.53553 -1.01256 -1.21749)
(-1.70565 -0.387579 -1.62881)
(0.115419 -0.258668 -1.74811)
(-0.107117 -0.540247 -2.14348)
(0.243135 -0.86223 -1.72822)
(0.688232 -0.637484 -1.47882)
(0.716809 -0.449774 -1.40543)
(0.194264 -0.527864 -1.4637)
(-0.667136 -0.31921 -1.65904)
(-0.622386 -0.478398 -2.034)
(-1.02535 -0.451208 -2.30873)
(-1.19025 -0.585393 -2.26494)
(-0.671631 0.658385 -2.09695)
(-0.507531 -0.0321312 -1.24811)
(0.911789 0.161626 -1.43468)
(0.833555 0.11283 -1.5147)
(1.06108 -0.080196 -1.48851)
(0.92807 -0.241592 -1.26115)
(0.646141 -0.385079 -1.45898)
(0.311727 -0.341584 -1.39601)
(-0.205664 -0.201447 -1.74457)
(-0.237406 -0.37467 -2.00697)
(-0.197832 -0.127073 -2.12346)
(0.0876826 -0.139212 -1.75986)
(0.400531 0.0717281 -1.54151)
(0.359544 -0.351157 -1.47892)
(0.275244 -0.484933 -1.12712)
(-2.686 -0.594014 2.68089)
(-2.66344 -0.840817 2.94818)
(-2.73492 -0.330164 3.00522)
(-2.57901 -1.18795 3.02007)
(-2.56836 -0.840951 3.01794)
(-2.70643 -1.33193 2.92767)
(-2.6227 -0.985669 2.98189)
(-2.6846 -0.85526 2.96235)
(-2.57129 -1.64972 2.89735)
(-2.61741 -1.23663 2.97273)
(-2.69674 -1.20165 3.00713)
(-2.88481 -0.925973 3.01389)
(-2.47383 -1.71697 2.90378)
(-2.63305 -1.66204 2.80546)
(-2.99093 -1.3726 2.70137)
(-3.2133 -1.21324 2.7762)
(-3.32748 -0.752493 3.035)
(-2.657 -2.0392 2.63982)
(-2.76901 -2.00408 2.73658)
(-3.09813 -1.56514 2.878)
(-3.18861 -1.21129 3.21401)
(-3.15392 -0.819329 3.2715)
(-3.24261 -0.529024 2.87651)
(-2.51207 -2.00837 2.97832)
(-2.75543 -1.84982 3.02867)
(-2.9829 -1.66585 3.18752)
(-3.12782 -1.33839 3.0409)
(-2.94317 -1.5653 2.68866)
(-3.35831 -0.701376 2.02891)
(-2.86681 -1.04653 2.52073)
(-2.24506 -1.61282 2.89612)
(-2.22315 -1.53822 2.7358)
(-2.16812 -1.85584 2.97177)
(-2.63189 -2.03226 2.98287)
(-2.99029 -1.30281 2.37039)
(-2.15018 -0.632747 1.82572)
(-1.73928 -0.727475 1.9565)
(-1.72312 -1.31428 1.84855)
(-2.0728 -1.38156 2.29443)
(-2.71525 -1.48321 1.28043)
(-3.26823 -1.80258 1.272)
(-2.36358 -1.72001 1.80442)
(-0.983039 -0.961846 1.50946)
(-1.06036 -0.474817 0.774329)
(-0.843485 -1.0145 1.07438)
(-0.709984 -1.46922 1.32962)
(-0.991912 -1.55467 1.23291)
(-2.13378 -1.58367 -0.231881)
(-2.27021 -1.615 -0.634578)
(-1.6365 -1.68649 -0.412289)
(-0.601951 -1.37181 -0.0111652)
(-0.841663 -0.830572 -0.633435)
(-1.13883 -0.241275 -1.07333)
(-1.04675 -0.377162 -0.938189)
(-0.664392 -1.29869 -0.374588)
(-0.690575 -1.43327 -0.57586)
(-1.22743 -1.45799 0.00359739)
(-1.54237 -1.47042 -1.7912)
(-1.58737 -1.40092 -1.59186)
(-0.966775 -1.48761 -1.11104)
(-0.608381 -1.21911 -0.823142)
(-0.908273 -1.15868 -1.34785)
(-0.750603 -0.433908 -1.63334)
(-0.559621 -0.472254 -1.6124)
(-0.79465 -0.931696 -1.04217)
(-0.856708 -1.40314 -0.83794)
(-1.44879 -1.46363 -0.383869)
(-1.95235 -0.452306 -0.737643)
(-1.18277 -0.926426 -2.17444)
(-1.12701 -1.19364 -1.98065)
(-0.543448 -1.33907 -1.56974)
(0.0258927 -0.932044 -1.59872)
(0.230293 -0.597786 -1.79043)
(0.00448703 -0.58283 -1.61762)
(-0.58213 -0.516963 -1.77279)
(-0.719787 -0.709077 -1.61073)
(-1.23373 -1.07826 -1.47922)
(-1.55389 -0.991355 -1.21294)
(-1.83509 -0.285612 -1.70438)
(-1.64102 0.676239 -1.49831)
(0.177247 -0.271499 -1.72712)
(-0.0404486 -0.562464 -2.14686)
(0.274009 -0.855759 -1.727)
(0.720952 -0.653062 -1.42678)
(0.767674 -0.48986 -1.36317)
(0.196178 -0.554744 -1.43246)
(-0.643653 -0.414896 -1.63417)
(-0.648302 -0.492354 -1.98401)
(-1.05056 -0.467784 -2.26751)
(-1.19874 -0.566189 -2.2183)
(-0.558832 0.421788 -1.83072)
(-0.405944 0.0778862 -1.14481)
(-0.678947 -0.0829456 -0.812847)
(0.912952 0.175255 -1.44222)
(0.855026 0.106936 -1.50395)
(1.0593 -0.081233 -1.49127)
(0.917644 -0.230533 -1.25532)
(0.622576 -0.369239 -1.4776)
(0.305042 -0.345082 -1.3904)
(-0.207329 -0.209775 -1.73057)
(-0.235981 -0.377922 -1.97945)
(-0.194734 -0.120142 -2.08561)
(0.0919015 -0.123414 -1.70959)
(0.420695 0.079428 -1.48046)
(0.371961 -0.326609 -1.46175)
(0.30155 -0.488667 -1.12972)
(0.711128 -0.105673 -0.540272)
(-2.48999 -0.267721 2.78094)
(-2.50344 -0.482952 2.77893)
(-2.64053 -0.723068 2.69831)
(-2.68718 -0.498644 2.72523)
(-2.51839 -1.11901 2.90734)
(-2.62754 -0.704556 2.96302)
(-2.67205 -0.496392 2.947)
(-2.55033 -1.3402 2.98108)
(-2.55261 -0.969609 3.00017)
(-2.54223 -0.683059 2.95907)
(-2.7419 -1.43805 2.91546)
(-2.52387 -1.18347 3.01186)
(-2.58467 -0.937333 2.98674)
(-2.70728 -0.788837 2.94585)
(-2.54922 -1.67548 2.85039)
(-2.52693 -1.40178 2.9144)
(-2.62385 -1.28895 2.99427)
(-2.79769 -1.0175 3.02841)
(-2.94721 -0.55351 3.06286)
(-2.3448 -1.80784 2.93448)
(-2.52873 -1.78518 2.84285)
(-2.89067 -1.55748 2.78342)
(-3.12385 -1.33571 2.83776)
(-3.30167 -0.911893 3.02)
(-3.24084 -0.535705 3.16691)
(-2.54335 -2.10998 2.69241)
(-2.77233 -1.91299 2.81014)
(-3.04674 -1.66013 2.87905)
(-3.0354 -1.29949 3.21967)
(-3.0328 -1.02137 3.33364)
(-3.17255 -0.605858 2.98484)
(-3.16907 -0.889111 2.93581)
(-2.26657 -2.28135 3.06147)
(-2.80991 -1.75476 3.0653)
(-2.94321 -1.69755 3.2165)
(-3.15489 -1.28714 3.04997)
(-3.18329 -1.77389 2.69308)
(-3.3455 -1.11937 2.10886)
(-2.82733 -1.44751 2.23183)
(-2.53339 -1.47089 2.5747)
(-1.9955 -1.95848 2.99596)
(-2.18172 -1.64935 2.8087)
(-2.1517 -1.95289 2.87009)
(-2.84968 -1.85036 2.83722)
(-2.879 -1.49733 2.46573)
(-1.86295 -0.851422 2.38052)
(-1.68297 -0.684544 2.1435)
(-1.67732 -1.39544 1.86062)
(-1.63062 -1.60787 1.72339)
(-2.13227 -1.82565 1.98482)
(-2.81689 -1.55183 1.18549)
(-2.85616 -2.21194 1.57332)
(-2.06524 -1.99616 2.10491)
(-0.957603 -1.16112 1.55931)
(-0.939379 -0.669098 1.05967)
(-0.771138 -1.01668 1.41714)
(-0.645652 -1.5786 1.38403)
(-0.965196 -1.62161 1.03509)
(-1.13089 -1.78331 0.849187)
(-2.15625 -1.82015 -0.376221)
(-2.20732 -1.56053 -0.858198)
(-1.48105 -1.73577 -0.345246)
(-0.548177 -1.4434 -0.0949162)
(-0.961997 -0.948482 -0.584215)
(-1.10992 -0.753028 -0.852568)
(-0.897032 -0.557394 -0.982788)
(-0.5967 -1.46893 -0.0334165)
(-0.666472 -1.45403 -0.503878)
(-1.25081 -1.42622 0.032384)
(-1.77153 -0.531116 -0.478877)
(-1.30415 -1.65218 -1.85462)
(-1.55854 -1.24513 -1.57568)
(-0.774692 -1.54669 -0.891022)
(-0.557466 -1.27813 -0.84416)
(-1.06158 -0.852416 -1.40666)
(-0.853789 -0.279199 -1.63025)
(-0.522939 -0.470293 -1.60038)
(-0.845257 -1.07226 -1.10911)
(-0.985072 -1.2493 -0.948965)
(-1.4917 -1.36046 -0.511334)
(-1.87486 -0.280535 -0.925331)
(-2.19841 0.0798509 -0.901801)
(-1.13205 -0.988933 -2.24113)
(-0.967904 -1.20536 -2.01626)
(-0.489067 -1.30475 -1.5784)
(0.0852571 -1.0177 -1.4855)
(0.275451 -0.622327 -1.73232)
(0.0725743 -0.595553 -1.52529)
(-0.605186 -0.502723 -1.7787)
(-0.705571 -0.769909 -1.57308)
(-1.25779 -1.00876 -1.44644)
(-1.61614 -1.0092 -1.15518)
(-1.974 -0.179312 -1.82285)
(-1.61687 0.71261 -1.62964)
(-1.61112 0.197519 -0.466565)
(0.24227 -0.280804 -1.70158)
(0.0161823 -0.572494 -2.14719)
(0.392564 -0.88712 -1.68302)
(0.75393 -0.646718 -1.39428)
(0.817143 -0.527188 -1.33273)
(0.21011 -0.584359 -1.41277)
(-0.592151 -0.514699 -1.61339)
(-0.664558 -0.516369 -1.92882)
(-1.06436 -0.471993 -2.21195)
(-1.17462 -0.580921 -2.15984)
(-0.402415 0.217962 -1.5617)
(-0.327737 0.216483 -1.03516)
(-0.627713 -0.0775145 -0.845159)
(0.148424 -0.215283 -0.566597)
(0.900893 0.198334 -1.44915)
(0.880908 0.103093 -1.49011)
(1.06674 -0.0795675 -1.48706)
(0.902164 -0.228903 -1.25067)
(0.5913 -0.353167 -1.49815)
(0.309785 -0.356881 -1.38227)
(-0.211159 -0.216478 -1.71644)
(-0.236815 -0.382872 -1.95039)
(-0.189834 -0.113925 -2.04764)
(0.100451 -0.114096 -1.66165)
(0.445007 0.0571523 -1.4195)
(0.381406 -0.295681 -1.44355)
(0.325897 -0.490939 -1.12172)
(0.708694 -0.0978072 -0.517262)
(0.826896 -0.46856 -0.984931)
(-2.30944 -0.23001 2.59209)
(-2.39048 -0.505984 2.7722)
(-2.37946 -0.260005 2.85732)
(-2.45974 -0.717899 2.78091)
(-2.47567 -0.41478 2.86419)
(-2.58724 -0.959962 2.70728)
(-2.61854 -0.74369 2.79596)
(-2.71007 -0.214663 2.82286)
(-2.43551 -1.26576 2.91057)
(-2.54392 -1.01444 2.8948)
(-2.57872 -0.66254 2.95751)
(-2.70013 -0.389933 2.85684)
(-2.45326 -1.47729 3.00712)
(-2.54229 -1.16061 2.9748)
(-2.5078 -0.830278 2.97903)
(-2.6284 -0.631756 2.88957)
(-2.67498 -1.44371 2.85259)
(-2.4471 -1.31914 2.98621)
(-2.46379 -1.02558 3.0286)
(-2.57948 -0.953674 2.92587)
(-2.66399 -0.679766 2.93378)
(-2.352 -1.72486 2.89651)
(-2.49564 -1.26394 2.92621)
(-2.58474 -1.2278 2.93799)
(-2.77836 -1.11269 2.94533)
(-2.9607 -0.485645 2.99677)
(-2.90061 -0.56314 3.08683)
(-2.22192 -1.89776 2.92948)
(-2.37828 -1.7964 2.90939)
(-2.68618 -1.76411 2.85749)
(-3.06959 -1.37688 2.83511)
(-3.03621 -1.11008 2.97711)
(-3.15959 -0.601795 3.17423)
(-3.17204 -0.667191 3.21734)
(-2.42607 -2.27622 2.67566)
(-2.65587 -2.17901 2.77567)
(-2.81873 -1.98278 2.93924)
(-2.87157 -1.49962 3.18737)
(-2.84233 -1.35612 3.31747)
(-3.08815 -0.846256 3.09282)
(-3.01189 -1.04035 3.05311)
(-2.94735 -1.13596 2.94137)
(-2.31493 -2.2972 3.06282)
(-2.70719 -1.96111 3.10345)
(-2.8899 -1.75179 3.25469)
(-2.85304 -1.61676 3.11171)
(-3.11274 -1.81423 2.74651)
(-3.1715 -1.51051 2.39245)
(-2.62951 -1.16792 2.65222)
(-2.54076 -1.68461 2.32962)
(-2.85823 -0.870455 2.0401)
(-2.13527 -2.00221 3.00284)
(-2.15692 -1.86651 2.87938)
(-1.94314 -1.99669 3.1145)
(-2.45978 -2.00276 3.07608)
(-2.77758 -1.82963 2.35004)
(-2.17991 -1.15015 2.20918)
(-1.52654 -1.12595 2.23219)
(-1.67967 -1.42256 1.87122)
(-1.60618 -1.46447 1.65755)
(-2.08574 -0.634471 0.864865)
(-2.25439 -1.88508 1.81581)
(-3.01701 -1.66719 0.866654)
(-2.64389 -2.43593 1.62153)
(-1.87557 -2.15508 2.17071)
(-0.909602 -1.15842 1.47309)
(-0.886015 -0.798622 1.35447)
(-0.871001 -0.976392 1.56454)
(-0.676623 -1.5361 1.54563)
(-0.903554 -1.6631 1.05589)
(-1.09079 -1.72561 0.902971)
(-1.58357 -0.959619 0.401238)
(-2.04774 -1.96622 -0.638938)
(-1.87252 -1.74422 -1.00083)
(-1.32553 -1.66132 -0.333308)
(-0.461112 -1.57139 0.253981)
(-0.970823 -0.995892 -0.678398)
(-1.02693 -0.912843 -0.745186)
(-0.725196 -0.69815 -0.868657)
(-0.542569 -1.62754 0.596299)
(-0.648517 -1.45983 -0.382071)
(-1.30605 -1.33121 -0.00331369)
(-1.90131 -0.566052 -0.428812)
(-2.43644 -0.419011 -0.25733)
(-1.23485 -1.68047 -1.83468)
(-1.15743 -1.46993 -1.53437)
(-0.516606 -1.56115 -0.874437)
(-0.449003 -1.4566 -0.634504)
(-1.10891 -0.849465 -1.40731)
(-0.711951 -0.412248 -1.43963)
(-0.376562 -0.633428 -1.42209)
(-0.757746 -1.33282 -0.962967)
(-0.995225 -1.3359 -0.811303)
(-1.60559 -1.31876 -0.516268)
(-1.95987 -0.273892 -1.05459)
(-2.17048 0.0352824 -0.901733)
(-2.09476 0.54665 -0.772808)
(-1.02963 -1.06628 -2.28241)
(-0.849746 -1.25299 -2.04384)
(-0.481868 -1.31055 -1.58219)
(0.113002 -1.04131 -1.45795)
(0.426278 -0.620594 -1.68391)
(0.139691 -0.605861 -1.48126)
(-0.545669 -0.595909 -1.74175)
(-0.774387 -0.741998 -1.57648)
(-1.33977 -0.983384 -1.31434)
(-1.67443 -0.967896 -1.24537)
(-2.04917 -0.147877 -1.89774)
(-1.47394 0.821033 -1.8554)
(-1.5154 0.387159 -0.617387)
(-0.666657 0.10031 -0.576013)
(0.303048 -0.269797 -1.67279)
(0.0683696 -0.578289 -2.14143)
(0.506537 -0.913826 -1.64358)
(0.78202 -0.635133 -1.36672)
(0.875895 -0.579591 -1.27995)
(0.243189 -0.642611 -1.39921)
(-0.572311 -0.574883 -1.58637)
(-0.678938 -0.525005 -1.87067)
(-1.05191 -0.51828 -2.13484)
(-1.1188 -0.612279 -2.09592)
(-0.245664 0.0818989 -1.33247)
(-0.265095 0.339373 -0.949144)
(-0.563421 0.0111657 -0.918613)
(0.172317 -0.175549 -0.536859)
(0.74267 -0.260797 -0.418783)
(0.921367 0.218393 -1.44105)
(0.901859 0.1014 -1.47739)
(1.07545 -0.0767664 -1.48223)
(0.8938 -0.226154 -1.24028)
(0.582201 -0.363766 -1.49465)
(0.321197 -0.372909 -1.37275)
(-0.214245 -0.22293 -1.70152)
(-0.23233 -0.383145 -1.92431)
(-0.183869 -0.108941 -2.01018)
(0.113349 -0.108103 -1.61693)
(0.463673 0.0458348 -1.36159)
(0.386105 -0.246099 -1.42541)
(0.36341 -0.497166 -1.09215)
(0.713871 -0.0961812 -0.487308)
(0.80104 -0.453655 -1.00866)
(0.951858 -0.737216 -1.08778)
(-2.08867 -0.34641 2.63753)
(-2.31713 -0.341528 2.58829)
(-2.29366 -0.320723 2.64034)
(-2.28723 -0.729391 2.76811)
(-2.3216 -0.447204 2.83708)
(-2.32378 -0.211 2.88459)
(-2.38832 -0.930652 2.76144)
(-2.39292 -0.637372 2.85321)
(-2.39392 -0.403201 2.92136)
(-2.44108 -1.16325 2.74081)
(-2.51671 -0.926544 2.75472)
(-2.59551 -0.449307 2.85817)
(-2.6706 -0.0887917 2.92905)
(-2.31343 -1.34723 3.00665)
(-2.46719 -1.15636 2.93102)
(-2.49362 -0.845904 2.91862)
(-2.57989 -0.544357 2.87629)
(-2.74923 -0.334496 2.83628)
(-2.42916 -1.53127 2.9907)
(-2.37488 -1.35211 3.04608)
(-2.40641 -0.985412 3.05076)
(-2.56061 -0.785717 2.89765)
(-2.66425 -0.574942 2.83861)
(-2.39117 -1.61356 2.91546)
(-2.36203 -1.35691 2.9943)
(-2.43516 -1.13192 3.0193)
(-2.57114 -0.950637 2.94334)
(-2.69189 -0.726085 2.90751)
(-2.70252 -0.501101 3.00537)
(-2.18916 -1.93775 2.83678)
(-2.30321 -1.41599 2.91531)
(-2.41269 -1.27897 2.93371)
(-2.7058 -1.02452 2.96981)
(-2.7526 -1.02316 3.0142)
(-2.90706 -0.590308 3.06912)
(-2.92404 -0.583811 3.1746)
(-2.12859 -2.03171 2.92885)
(-2.37729 -1.77218 2.92905)
(-2.85218 -1.59553 2.76808)
(-2.79178 -1.61299 2.87417)
(-2.851 -1.43692 2.93802)
(-2.98621 -1.13469 3.13023)
(-3.10751 -0.737773 3.24214)
(-2.86782 -1.28318 3.20135)
(-2.20839 -2.42994 2.67985)
(-2.44882 -2.31686 2.79525)
(-2.67593 -2.08597 3.00861)
(-2.90093 -1.53188 3.21397)
(-2.82194 -1.40354 3.33487)
(-2.98858 -1.15871 3.25447)
(-2.8021 -1.23529 3.16433)
(-2.91641 -1.20612 2.96774)
(-3.32276 -1.16153 2.64513)
(-2.22547 -2.25686 3.11329)
(-2.66223 -2.09868 3.15191)
(-2.76977 -1.95991 3.30537)
(-2.88478 -1.74604 3.04134)
(-3.18324 -1.65005 2.623)
(-2.78592 -1.88051 2.84778)
(-2.7096 -1.61288 2.75937)
(-2.42804 -1.63968 2.46978)
(-2.71531 -1.13173 2.01088)
(-2.30032 -1.31945 2.03587)
(-1.8797 -2.20958 3.10804)
(-2.14506 -2.076 2.79458)
(-1.76234 -2.34099 3.03562)
(-2.44313 -2.4678 2.69422)
(-2.88411 -1.55735 2.22718)
(-1.94156 -1.31086 2.25986)
(-1.39244 -1.5087 2.21844)
(-1.52634 -1.56351 1.98291)
(-1.5995 -1.33895 1.53341)
(-2.02796 -0.864868 1.05176)
(-2.04281 -0.634044 0.945148)
(-2.17924 -2.23714 1.97192)
(-2.87021 -2.02475 0.922312)
(-2.90177 -2.25016 1.19366)
(-1.83137 -2.22797 2.07592)
(-0.830867 -1.17061 1.66461)
(-0.706586 -0.972769 1.56682)
(-0.836948 -1.15771 1.71023)
(-0.589592 -1.56317 1.66834)
(-0.830291 -1.65692 1.29777)
(-1.10376 -1.63155 0.953439)
(-1.66209 -1.08814 0.0452973)
(-2.33879 -0.585465 0.284457)
(-1.85881 -2.11365 -0.799661)
(-1.48331 -1.93159 -1.0779)
(-0.835903 -1.75968 -0.238104)
(-0.397872 -1.63763 0.00102473)
(-0.846562 -1.26438 -0.493043)
(-1.01469 -1.11184 -0.547934)
(-0.452244 -0.899833 -0.707659)
(-0.423269 -1.77651 0.854823)
(-0.722956 -1.48304 -0.272928)
(-1.26871 -1.39653 0.101143)
(-1.96377 -0.689575 -0.244998)
(-2.40139 -0.698863 -0.0874188)
(-2.82507 -0.00056481 -0.378594)
(-1.15833 -1.66372 -1.81207)
(-0.884437 -1.59647 -1.49199)
(-0.438304 -1.59996 -0.858762)
(-0.45173 -1.50731 -0.66594)
(-0.973629 -1.06807 -1.39258)
(-0.458321 -0.710567 -1.26788)
(-0.271257 -0.784639 -1.09677)
(-0.764243 -1.40825 -0.846729)
(-1.04065 -1.22235 -0.938095)
(-1.68615 -1.32067 -0.567765)
(-2.07406 -0.44303 -1.06399)
(-2.36247 -0.124597 -0.954909)
(-2.09176 0.529972 -0.831662)
(-1.33189 0.127444 0.341101)
(-0.983702 -1.08302 -2.27846)
(-0.595429 -1.36339 -2.08562)
(-0.312815 -1.35231 -1.58)
(0.196653 -1.10314 -1.36791)
(0.48951 -0.634556 -1.63137)
(0.260407 -0.681775 -1.44824)
(-0.580256 -0.667225 -1.67586)
(-0.732466 -0.82429 -1.6188)
(-1.30991 -1.11804 -1.18665)
(-1.78063 -0.840894 -1.42279)
(-2.06323 -0.159392 -1.89678)
(-1.40038 0.747069 -2.0465)
(-1.40143 0.464596 -0.751544)
(-0.587362 0.0168705 -0.631717)
(-0.23508 -0.348153 -0.167616)
(0.32338 -0.246359 -1.65417)
(0.125384 -0.586383 -2.13013)
(0.654335 -0.942772 -1.58062)
(0.798048 -0.628021 -1.34244)
(0.874274 -0.567344 -1.29471)
(0.302697 -0.726453 -1.38281)
(-0.603257 -0.586709 -1.55471)
(-0.700947 -0.536954 -1.80287)
(-1.02797 -0.579782 -2.04424)
(-1.06526 -0.607585 -2.0187)
(-0.0958111 -0.0123409 -1.17389)
(-0.184319 0.436331 -0.917057)
(-0.494125 0.124868 -0.965268)
(0.200155 -0.146115 -0.479289)
(0.761705 -0.239188 -0.453178)
(0.535457 -0.467571 -0.787143)
(0.934501 0.212632 -1.43832)
(0.926957 0.101818 -1.46298)
(1.07713 -0.0808424 -1.48099)
(0.895017 -0.23479 -1.22203)
(0.583047 -0.381503 -1.48454)
(0.323917 -0.38505 -1.36656)
(-0.215348 -0.231298 -1.68536)
(-0.235307 -0.379245 -1.90007)
(-0.177334 -0.104036 -1.97372)
(0.128334 -0.105224 -1.57624)
(0.477864 0.0417462 -1.30528)
(0.39399 -0.212484 -1.3999)
(0.395562 -0.494104 -1.05549)
(0.719139 -0.0967471 -0.463369)
(0.819266 -0.478679 -0.971243)
(0.965879 -0.758842 -1.07243)
(1.2297 -1.158 -0.920469)
(-1.98567 -0.147882 2.37945)
(-2.03894 -0.414975 2.64454)
(-2.03178 -0.276297 2.62963)
(-2.21124 -0.500381 2.61986)
(-2.29059 -0.398115 2.6331)
(-2.25184 -0.37946 2.68368)
(-2.16198 -0.791023 2.77811)
(-2.28332 -0.5976 2.77292)
(-2.28298 -0.346818 2.85325)
(-2.28344 -0.151026 2.91666)