/*--------------------------------*- C++ -*----------------------------------*\
  =========                 |
  \\      /  F ield         | OpenFOAM: The Open Source CFD Toolbox
   \\    /   O peration     | Website:  https://openfoam.org
    \\  /    A nd           | Version:  7
     \\/     M anipulation  |
\*---------------------------------------------------------------------------*/
FoamFile
{
    version     2.0;
    format      ascii;
    class       volScalarField;
    location    "6.5";
    object      nut;
}
// * * * * * * * * * * * * * * * * * * * * * * * * * * * * * * * * * * * * * //

dimensions      [0 2 -1 0 0 0 0];

internalField   nonuniform List<scalar> 
18780
(
0.00108815
0.000697985
0.00113842
0.00048614
0.000772725
0.000790317
0.000720203
0.000897682
0.000629761
0.000415271
0.00102247
0.00118772
0.00178034
0.000570686
0.000615231
0.000585813
0.000785386
0.000645393
0.000437727
0.000361944
0.000719394
0.00156206
0.0007564
0.00136464
0.00160287
0.000342434
0.000483121
0.000908122
0.000667226
0.000409776
0.000619407
0.000477138
0.000428371
0.000394329
0.000228118
0.000344955
0.00110362
0.00157287
0.00250375
0.00103252
0.00116711
0.00150421
0.000848605
0.000808125
0.00067939
0.00057012
0.000776649
0.000463358
0.000290298
0.000429561
0.000462895
0.000438211
0.000396464
0.00039337
0.000255982
0.000410143
0.000551151
0.000777398
0.00139237
0.00182735
0.00122679
0.00185802
0.00232114
0.00122988
0.000765179
0.000469815
0.00203409
0.000900294
0.00106448
0.000709259
0.000719677
0.000651932
0.000709078
0.00117183
0.00033958
0.000403876
0.000493051
0.000341776
0.000381079
0.000302946
0.000367364
0.000299235
0.000382727
0.000191522
0.00108721
0.000294703
0.000554433
0.000630115
0.00122034
0.00208829
0.00133038
0.000942829
0.000971217
0.00114269
0.00118911
0.00186535
0.00179167
0.00138733
0.000337885
0.00172434
0.00193329
0.000832834
0.000795295
0.00112631
0.00073437
0.000639647
0.000865034
0.000837662
0.000220929
0.00034853
0.000579193
0.000453137
0.000266469
0.000319918
0.000249872
0.000339647
0.000320798
0.000251506
0.000203235
0.000203402
0.00106376
0.000733
0.000768876
0.000606719
0.000826057
0.000930563
0.000324897
0.000890655
0.00111804
0.00074715
0.0010045
0.00110344
0.000783613
0.000896221
0.000801023
0.000674388
0.00153892
0.00124208
0.00157876
0.000713369
0.000429272
0.000925618
0.00294419
0.00130891
0.00114372
0.00056566
0.00125213
0.000515117
0.00059839
0.00120694
0.000426073
0.000353775
0.000555845
0.000243591
0.000441121
0.000292618
0.000235041
0.0002945
0.000226378
0.000315822
0.000302024
0.000208045
0.000491618
0.000204962
0.000108485
0.000852168
0.00046663
0.00155452
0.00103698
0.00076612
0.000294401
0.000609139
0.000322795
0.000831905
0.00117564
0.000709483
0.000526569
0.000646919
0.000743732
0.000923748
0.000720605
0.000875738
0.000692703
0.0010063
0.00135153
0.00123594
0.000808792
0.000955348
0.00120316
0.00109203
0.000798098
0.000828565
0.000584965
0.000433781
0.000347126
0.00229565
0.00182759
0.000715739
0.00076805
0.000429441
0.00130955
0.000348014
0.000563897
0.00110862
0.000980971
0.000653904
0.00079854
0.000471458
0.000639853
0.000299481
0.000356234
0.000235895
0.000284709
0.000232477
0.0002842
0.000278972
0.000194402
0.000388557
0.000220572
0.000160469
0.000376565
0.000527514
0.000387978
0.000460721
0.00136756
0.000752643
0.000233278
0.000675629
0.00109228
0.00087602
0.00108962
0.000738027
0.000715684
0.000576359
0.000560909
0.000491347
0.000877624
0.000662596
0.000573324
0.00046312
0.000681209
0.00110348
0.00123001
0.000675506
0.000688789
0.000682063
0.00113945
0.00157334
0.000996044
0.000880338
0.000864569
0.000725095
0.00110967
0.00146175
0.000535214
0.0013272
0.000823566
0.000655567
0.000431564
0.00120388
0.00215021
0.00152173
0.000654175
0.00175326
0.000755624
0.000700902
0.000330159
0.000497228
0.000500569
0.00133306
0.00103167
0.00043304
0.000798477
0.000313883
0.000675182
0.000311501
0.000422153
0.000317047
0.000239705
0.000287479
0.000255127
0.000264741
0.00027748
0.000208695
0.000246098
0.0002463
0.000185162
0.000308233
0.000222508
0.000331568
0.000541447
0.000828879
0.00100726
0.000941108
0.00103376
0.000387711
0.00127144
0.000456357
0.00154361
0.000525569
0.000629094
0.000889021
0.00109951
0.000806304
0.00123505
0.000661812
0.00124632
0.00102691
0.000372833
0.000270027
0.00103435
0.000970962
0.000766366
0.000785144
0.000237631
0.000609675
0.0010862
0.00092403
0.00110212
0.000664041
0.000686197
0.000797113
0.00119304
0.000928696
0.0015204
0.000831533
0.000693891
0.000803287
0.000600757
0.00094961
0.00193083
0.000941275
0.00150446
0.00111148
0.000709916
0.00102229
0.000604504
0.000926912
0.00148835
0.00164552
0.000630146
0.00164407
0.00137772
0.00110354
0.000563826
0.000567941
0.000796972
0.0004263
0.00150455
0.00121362
0.00063338
0.000566155
0.000293692
0.000384378
0.000340354
0.000310825
0.000369086
0.000182628
0.000212852
0.000278003
0.000301655
0.000278623
0.000291736
0.000195873
0.000252787
0.000233054
0.000247733
0.000269834
0.000237746
0.000318767
0.000231872
0.000525718
0.000544187
0.000558034
0.000268091
0.000250898
0.000597932
0.000658775
0.00113856
0.000505103
0.000936357
0.000954441
0.000577865
0.00117001
0.000731509
0.000592722
0.00120638
0.000687101
0.00105618
0.000998132
0.000640796
0.000845314
0.000697057
0.000737065
0.000816031
0.000778872
0.000805433
0.000189422
0.00052833
0.001125
0.00146991
0.00129169
0.000680663
0.000757723
0.000129182
0.000576444
0.000751215
0.000766995
0.00103825
0.00056152
0.000894354
0.000705515
0.000689293
0.000945131
0.000819415
0.00162644
0.0011108
0.000385699
0.000528992
0.000539402
0.000571511
0.00152148
0.00127086
0.00144129
0.000701024
0.000991959
0.000457122
0.000878949
0.000474303
0.000332458
0.00057872
0.000881785
0.00186775
0.00106799
0.000677711
0.00078839
0.000591209
0.000519932
0.000548372
0.000382923
0.000396031
0.000346463
0.00122171
0.0016215
0.00109781
0.00113883
0.000253098
0.000624831
0.000294006
0.000364001
0.000445811
9.73405e-05
0.000544552
0.00019137
0.000256021
0.000269572
0.000290939
0.000240361
0.000177289
0.000255613
0.000317851
0.000178123
0.000210931
0.000200103
0.000442665
0.000277052
0.000303247
0.000394619
0.000420196
0.000472224
0.000200787
0.000498232
0.000394193
0.000801001
0.00143542
0.000701321
0.000853894
0.000612774
0.000542243
0.000668656
0.000776355
0.00058322
0.000694376
0.000765615
0.000847544
0.000733089
0.000851976
0.000813641
0.000560128
0.000339384
0.00090675
0.000543045
0.000898876
0.000825323
0.000930451
0.00079841
0.000690442
0.000900953
0.00103815
0.00112483
0.00114137
0.00106688
0.000645039
0.000508407
0.000830423
0.0011827
0.00133433
0.000851029
0.000542495
0.000998134
0.000298298
0.00049844
0.000799966
0.00114269
0.000976028
0.00108684
0.00100954
0.000374268
0.000772066
0.000365985
0.000516654
0.000967197
0.000652018
0.00103058
0.000874153
0.000828424
0.000846428
0.000396426
0.000939842
0.0012466
0.000993653
0.00122629
0.000778595
0.000765818
0.000697776
0.000725284
0.000540961
0.00051654
0.000415088
0.000801806
0.000660741
0.00107657
0.00159233
0.000682305
0.000805915
0.000493237
0.00064881
0.000481234
0.000423387
0.00036554
0.000326718
0.000361171
0.00100264
0.00162025
0.00121671
0.000963582
0.000474316
0.000540115
0.000406319
0.00039913
0.000484903
0.000222153
0.000344655
0.000495973
0.000180065
0.000277235
0.000279934
0.000308812
0.000320644
0.000249833
0.000513287
0.000331122
0.000177227
0.000248862
8.48687e-05
0.000382091
0.000186719
0.000401233
0.000269418
0.000284047
0.000361524
0.000348757
0.000297586
0.00034017
0.000449059
0.000292266
0.000355164
0.00067801
0.00062623
0.000520641
0.000945865
0.000264289
0.000630135
0.000579221
0.000642115
0.000773883
0.000869462
0.00038327
0.000947887
0.000811857
0.000632996
0.000683164
0.000550647
0.000870147
0.000905647
0.000786248
0.000970891
0.00100843
0.000694086
0.000709772
0.000674085
0.000622128
0.000897561
0.000883856
0.000877765
0.000899295
0.000554048
0.000497038
0.000948598
0.000918872
0.00127801
0.000726506
0.000751633
0.000600031
0.000825282
0.000575017
0.000603009
0.000972982
0.00110598
0.000901896
0.00120934
0.000806217
0.000497698
0.000935877
0.000280482
0.00073411
0.00104982
0.00101176
0.000751108
0.000551549
0.000914438
0.00077846
0.000643766
0.000350304
0.000523135
0.00086654
0.000355285
0.00111912
0.000629925
0.000739798
0.000686456
0.00047953
0.000463807
0.000489078
0.000523865
0.000589766
0.00149853
0.000947531
0.00153851
0.000603563
0.000516247
0.000612375
0.000408795
0.000327188
0.00034563
0.0003186
0.000469934
0.000799343
0.0011705
0.000832992
0.000228823
0.000709311
0.000641923
0.000336129
0.000504155
0.000418674
0.000392061
0.00042903
0.000375807
0.000754058
0.00124205
0.00112259
0.000732109
0.000727251
0.000520466
0.000489787
0.000272668
0.000429982
0.000239081
0.000403497
0.000307634
0.000535601
0.000190247
0.000322209
0.000328765
0.000307102
0.000311001
0.000333693
0.000306812
0.000304209
0.000297259
0.000225678
9.29124e-05
0.000276915
0.000103941
0.000389968
0.000221585
0.000432094
0.000370878
0.000358434
0.000257323
0.000595147
0.000449665
0.00037512
0.000168524
0.000384696
0.00100602
0.000640691
0.000578216
0.000523217
0.00041869
0.000448818
0.000485699
0.000475249
0.000565544
0.000692114
0.000506337
0.000635726
0.000467061
0.000834707
0.000591773
0.000811317
0.000409603
0.00103488
0.00068583
0.000858611
0.000653097
0.000779024
0.000718214
0.000468239
0.000473153
0.000698827
0.000721331
0.000580434
0.00100413
0.000771219
0.000473724
0.000547474
0.00101243
0.000892845
0.000828236
0.00116427
0.000735667
0.000824451
0.000485371
0.000866419
0.000583296
0.000849364
0.000920464
0.000899478
0.00087339
0.00086404
0.000734954
0.000588037
0.000928416
0.000573825
0.000863123
0.000581687
0.000950638
0.00136463
0.00106216
0.000688078
0.000710102
0.000478426
0.000946485
0.000387934
0.00047172
0.000847121
0.00134954
0.000990207
0.000799653
0.000595309
0.000511888
0.000379491
0.000450085
0.000503871
0.000505218
0.000817283
0.000345013
0.00162774
0.000837879
0.000710268
0.000350748
0.000391804
0.000357209
0.000429804
0.000414286
0.000160427
0.000525307
0.00149299
0.00139693
0.00193191
0.000960873
0.000663127
0.000712337
0.000507685
0.000408169
0.000281676
0.000447926
0.000258183
0.000430923
0.000875933
0.00103805
0.000838301
0.000383091
0.000921426
0.000250328
0.000370129
0.0003847
0.000361873
0.000449664
0.000515349
0.000359206
0.000338711
0.000564765
0.00118448
0.00122049
0.000794233
0.00042786
0.000339558
0.000397493
0.000255762
0.000401113
0.000381277
0.000149476
0.000311314
0.000382109
0.000780323
0.000199254
0.000296621
0.000292633
0.000296291
0.000331019
0.000322382
0.000548475
0.000389492
0.0001611
0.000119598
0.000188397
0.000174042
5.70999e-05
0.000199435
0.00016659
0.000214991
0.000446636
0.000571499
0.000480785
0.000354769
0.000560871
0.000580078
0.000286067
0.000375119
0.000394208
0.000204852
0.000437441
0.000397418
0.000443966
0.000758012
0.000995373
0.00048832
0.00041461
0.000400978
0.000706462
0.000563748
0.000551519
0.000415543
0.000382833
0.000523492
0.000770669
0.0011584
0.00042487
0.00041642
0.000580913
0.00067875
0.00084505
0.000958362
0.000911829
0.000385254
0.000496368
0.000807768
0.000707008
0.000928781
0.000608417
0.000922023
0.00106974
0.000396196
0.000653599
0.000604979
0.000636853
0.000689626
0.00104759
0.000773203
0.000865701
0.00046943
0.000351145
0.000443534
0.000971473
0.000842539
0.000924447
0.000953147
0.000787108
0.000333082
0.000779715
0.000650258
0.000550692
0.000740113
0.00051133
0.000984792
0.00125602
0.00116146
0.00066751
0.000678407
0.0003817
0.000749786
0.000670016
0.000896156
0.000465606
0.000629829
0.00122037
0.000435247
0.000439381
0.000388838
0.000737096
0.000555254
0.000817727
0.000503965
0.000552518
0.000844384
0.000980006
0.00117123
0.000629852
0.000559631
0.000270122
0.000574316
0.00066954
0.000502588
0.000258759
0.000468212
0.000519607
0.000606427
0.00122697
0.000977689
0.000881826
0.000281623
0.000654822
0.000317951
0.00034571
0.000761372
0.000274218
9.62752e-05
0.000599778
0.000975277
0.00113566
0.00128972
0.00104066
0.000596289
0.000936011
0.000317011
0.000450372
0.000429896
0.00043927
0.000259833
0.000146559
0.000325795
0.000767712
0.0014968
0.000953184
0.000807259
0.00162858
0.000657026
0.000496706
0.000401246
0.000264193
0.000357823
0.000509767
0.000525168
0.00125823
0.000354911
0.0004908
0.00106856
0.00127134
0.000680337
0.000309551
0.000328077
0.000482935
0.000223445
0.000440833
0.000419023
0.000102621
0.000305005
0.000377598
0.00084271
0.000422331
0.000203849
0.000273849
0.000302126
0.000297505
0.00032415
0.00032436
0.00032624
0.000417086
0.000188606
0.000101319
0.000145739
0.000165582
3.62116e-05
0.000184601
0.000483091
0.000363376
0.00032871
0.000383969
0.000727696
0.000282744
0.000446465
0.000744127
0.000528106
0.000357485
0.000505362
0.000362917
0.000587399
0.000295144
0.000317656
0.000468396
0.000831927
0.000781335
0.000507549
0.000507502
0.000560174
0.000780384
0.000794892
0.000521459
0.000557616
0.000354254
0.000462052
0.000425047
0.000623117
0.000562617
0.000438071
0.000567497
0.000385426
0.000616369
0.000541721
0.000915549
0.00100678
0.000348567
0.000405714
0.000448716
0.000409263
0.00067597
0.00091877
0.000696026
0.00118921
0.000386166
0.000399841
0.000604374
0.000616631
0.00103443
0.000742662
0.00109333
0.00131217
0.00127998
0.000461584
0.000334028
0.000782018
0.000767921
0.000741886
0.00128313
0.000957587
0.000423143
0.000868664
0.000555881
0.000342349
0.000353915
0.000809183
0.000955
0.000972302
0.000902668
0.000954896
0.000662718
0.000687423
0.000756189
0.000489777
0.000643721
0.00049145
0.000629178
0.00115269
0.00125653
0.000835793
0.000557126
0.000629697
0.00105835
0.00112583
0.000473864
0.00067025
0.000654297
0.000770425
0.000962274
0.000691038
0.0008417
0.000606447
0.000524244
0.000541174
0.00100255
0.000381713
0.00067404
0.000594868
0.000586553
0.000605845
0.00110829
0.000713371
0.000633502
0.000421366
0.000486546
0.000428566
0.000709714
0.00109775
0.000418516
0.000282071
0.000485145
0.000278176
0.000973502
0.000804034
0.00118487
0.000938495
0.000175787
0.000183432
0.000283036
0.000364822
0.000817726
0.000892657
0.000423312
0.000105572
0.000573918
0.000565163
0.00120348
0.000706977
0.00141093
0.000608216
0.000696706
0.000809916
0.000439317
0.000352181
0.000501753
0.000501796
0.00130866
0.000282102
0.000263181
0.000606414
0.000916776
0.00106195
0.000999871
0.00096838
0.000818782
0.000429339
0.000343266
0.000343422
0.000231925
0.00055663
0.000591309
0.000738119
0.000710725
0.000356482
0.000446447
0.000733194
0.00107608
0.000760819
0.000422903
0.00047684
0.000475212
0.000266114
0.000348767
0.000231697
0.000167618
0.000234732
0.000322099
0.000840408
0.000332887
0.000331579
0.000194411
0.000277628
0.000310115
0.000301512
0.000279231
0.000279852
0.000424582
0.000477047
0.000173689
0.000185663
0.000122803
0.00015872
0.000159784
0.000166546
0.000414097
0.000280213
0.000299517
0.000112721
0.000489102
0.00046689
0.00051748
0.000566851
0.000733473
0.000392525
0.000385483
0.000419232
0.000382099
0.00043349
0.000412553
0.0004803
0.000517259
0.000717498
0.000588123
0.0003831
0.000459603
0.000470078
0.000460421
0.000643693
0.000355975
0.000563039
0.000320022
0.000379265
0.000484329
0.000765071
0.000410429
0.000645561
0.000484775
0.000420942
0.000369579
0.000408293
0.00057549
0.000534103
0.00138894
0.000482878
0.000454561
0.000446424
0.000602747
0.000439949
0.000933888
0.00126114
0.000866646
0.000460946
0.000366643
0.000439462
0.000465998
0.000629076
0.000820714
0.000871505
0.000880346
0.00121742
0.000220932
0.000411222
0.000671306
0.000888919
0.000947248
0.000927366
0.00132388
0.00141046
0.0012698
0.0013737
0.00070101
0.000436518
0.000498841
0.00113083
0.000723716
0.00121072
0.00109209
0.000647556
0.000875207
0.000977843
0.000622205
0.000324264
0.000439397
0.000296058
0.000585575
0.00104383
0.00131903
0.000774767
0.000443278
0.000833295
0.000421485
0.000231794
0.000503882
0.000744658
0.000540973
0.000949067
0.000715817
0.00116143
0.000689212
0.000478468
0.000563725
0.00031393
0.000598924
0.000716463
0.000404876
0.00076711
0.000515489
0.000737399
0.000511157
0.000381067
0.00110093
0.0004254
0.000318918
0.000545985
0.000678937
0.000872854
0.000265877
0.000268163
0.000461572
0.000616029
0.000529216
0.00123898
0.000794942
0.000874897
0.000529543
0.000225854
0.000420257
0.000481717
0.000940022
0.00087618
0.000389111
0.00052636
0.000223597
0.000821488
0.000638692
0.000535121
0.00110078
0.000820622
0.000343729
0.000220789
0.000379085
0.000310833
0.000768205
0.000568506
0.00100636
0.000359173
0.000156214
0.000627197
0.00049156
0.00129209
0.000715465
0.00124268
0.000566591
0.000872129
0.000425412
0.000426728
0.000273848
0.000608966
0.00049056
0.000790552
0.000748378
7.42509e-05
0.000338648
0.000539478
0.000862109
0.00136776
0.000873427
0.000363752
0.000722557
0.00054933
0.000224138
0.000270928
0.000293869
0.000548441
0.000442864
0.00065616
0.00064301
0.000812453
0.000304977
0.000407157
0.000616022
0.000992695
0.000845993
0.00045056
0.000560411
0.000640109
0.000197366
0.000649588
0.00027322
0.000166416
0.000293175
0.000278357
0.000574421
0.000374541
0.000403467
0.00047782
0.000182341
0.000291182
0.000274867
0.000278215
0.000253797
0.000254999
0.000389121
0.000318725
0.000300566
0.000229793
6.04412e-05
0.000201296
0.000107912
0.000154626
0.000225684
0.00010723
0.000198471
0.000196827
0.000100174
0.000909356
0.000518623
0.000699185
0.000603073
0.000279158
0.000469842
0.000424746
0.000562186
0.000421673
0.000208366
0.000524497
0.000679877
0.000420204
0.000678885
0.000337686
0.000456282
0.000467493
0.000828661
0.000536354
0.000667882
0.000603026
0.000521807
0.000420552
0.00021353
0.000964852
0.000623472
0.000669854
0.00102335
0.00055976
0.000524715
0.000503357
0.00037759
0.000371502
0.000374841
0.000544351
0.00174708
0.000332394
0.000438522
0.000430262
0.000514012
0.000558041
0.000394022
0.0013382
0.00153437
0.000214979
0.000464733
0.000295832
0.000346319
0.000288536
0.00064464
0.00108973
0.000771677
0.00107094
0.000350402
0.000561609
0.000406315
0.000527515
0.000865931
0.000857999
0.00104715
0.0012125
0.00136871
0.00113192
0.000442679
0.000378253
0.000432244
0.000685805
0.000896615
0.00104972
0.00155624
0.00143883
0.00130395
0.00102027
0.00093575
0.000506793
0.000417441
0.000379842
0.000707483
0.000861972
0.00103527
0.00144147
0.000609547
0.000832747
0.000920145
0.00105614
0.00045469
0.000475527
0.000301607
0.000452952
0.00048953
0.00105922
0.00165616
0.000562306
0.000650381
0.000630813
0.00104527
0.00117155
0.000511438
0.000552197
0.000417293
0.000427177
0.000638155
0.000627852
0.0013151
0.000844533
0.000594882
0.000751995
0.000591565
0.000650114
0.000294229
0.000442625
0.000292896
0.000640871
0.000582169
0.000695965
0.0009728
0.00109939
0.000838248
0.000449709
0.000262483
0.000582584
0.000191091
0.00170112
0.000546432
0.000358185
0.000310555
0.000492303
0.000651974
0.000537429
0.000872632
0.00123522
0.000739713
0.000427197
0.000274623
0.000370121
0.000543206
0.00121928
0.000382817
0.001042
0.000340626
0.000468238
0.000113183
0.00138052
0.000918908
0.000577394
0.000901514
0.000815816
0.00033196
0.000197968
0.000359055
0.000228418
0.000629403
0.000591924
0.000457568
0.000777553
0.000371565
0.000231337
0.000530161
0.000350292
0.00138468
0.000701205
0.00114007
0.000862433
0.000974127
0.000402874
0.000539676
0.000279045
0.00056142
0.000491984
0.000635518
0.000855288
0.000979607
5.98504e-05
0.000344404
0.000535025
0.000780088
0.0014268
0.000539749
0.000858336
0.000574655
0.000638394
0.000252126
0.000270679
0.000242309
0.000348225
0.000459943
0.000482066
0.000752694
0.0009797
0.000607006
0.000309295
0.000371712
0.000601975
0.000775519
0.000942504
0.000460117
0.000410277
0.000894935
0.000215771
0.000725191
0.000377555
0.00013862
0.000255978
0.000415966
0.00060088
0.000857874
0.000493747
0.000540138
0.000301712
0.000176957
0.000266457
0.000277331
0.00026827
0.000232219
0.000210557
0.000342981
0.000574066
0.000187843
0.000193996
6.16589e-05
0.000163613
5.29108e-05
0.000148214
0.000709415
0.000157761
0.000202525
0.00019112
0.000691154
9.86123e-05
0.0014124
0.000748775
0.000683211
0.000471514
0.000673408
0.000621825
0.000389173
0.000759026
0.000409661
0.000200064
0.000484461
0.000242245
0.000445724
0.000289976
0.000585377
0.000685563
0.000411116
0.000449002
0.00065747
0.000401522
0.000889652
0.000322062
0.000651274
0.000490189
0.000821749
0.000428256
0.000631869
0.000984118
0.000772785
0.000464717
0.00033228
0.00023628
0.000383568
0.000610277
0.000615832
0.00151409
0.000333795
0.000417756
0.000485864
0.000243249
0.000749205
0.000664285
0.000491469
0.00167699
0.00177296
0.000661426
0.000306636
0.000307976
0.000417001
0.000407033
0.000313039
0.000775142
0.00159427
0.00116923
0.000424917
0.00059784
0.000429484
0.000500538
0.000451145
0.000577833
0.000924205
0.0010348
0.00104527
0.000748343
0.000401678
0.000241754
0.000347108
0.000476404
0.00078738
0.000835587
0.00105521
0.00134765
0.00155546
0.00148676
0.00062159
0.000423545
0.000432375
0.000375921
0.00098309
0.000687482
0.000627902
0.00150967
0.00153107
0.00115434
0.00108626
0.000787387
0.00102343
0.000374942
0.000390436
0.000433732
0.000572602
0.000621403
0.000937014
0.00176657
0.00066258
0.000741178
0.000473507
0.00128881
0.000673934
0.000586374
0.000358433
0.00036818
0.000500351
0.000736875
0.000759433
0.00121373
0.00104408
0.000434948
0.000774042
0.000659665
0.000723081
0.000873442
0.00047927
0.000573129
0.000389541
0.000508918
0.000624112
0.0009004
0.00103561
0.000897732
0.000577071
0.000440193
0.00037672
0.000593481
0.000705117
0.0021531
0.000358953
0.000322286
0.000461539
0.000855621
0.000690229
0.000781747
0.000752837
0.000859958
0.000827328
0.000604244
0.000267837
0.00076977
0.000297928
0.00137034
0.00129712
0.000364738
0.000416943
0.000518225
0.000520375
0.000465399
0.000862147
0.00138832
0.000660598
0.000590349
0.00025904
0.00027468
0.000250198
0.000755868
0.0016878
0.00100864
0.000804544
0.000533559
0.000243079
8.53312e-05
0.000699641
0.00094119
0.000694087
0.00119175
0.000875557
0.000559242
0.000196087
0.000371881
0.000309965
0.000409891
0.00135916
0.000561163
0.000557767
0.00045611
0.000628368
0.000388367
0.000319182
0.000496137
0.000881707
0.000932974
0.000927137
0.000932907
0.000780398
0.000430205
0.000353157
0.000339149
0.000581515
0.000603979
0.000457519
0.000827995
0.000762073
0.000661705
0.000169987
0.00028091
0.000463112
0.000865306
0.000915754
0.000652457
0.000922645
0.00059994
0.000595562
0.000170621
0.000400576
0.000248511
0.000305265
0.000413226
0.000290676
0.000816808
0.000943621
0.000692582
0.000387089
0.000344319
0.000322308
0.000579902
0.000846503
0.00104393
0.000495677
0.000313698
0.000745977
0.000247545
0.000289947
0.000209613
0.000453181
0.000224769
0.000452137
0.00056659
0.00079473
0.000565069
0.000581042
0.000538058
0.000331666
0.000181323
0.000290713
0.000274428
0.000285714
0.000225071
0.000210945
0.000348843
0.000294756
0.000265662
0.000210665
0.000223301
7.67062e-05
9.37989e-05
0.000111864
0.000809349
0.000157695
0.000232907
0.000241968
0.000147218
0.00021282
0.000360491
0.00106816
0.00135518
0.00126485
0.00067035
0.000709033
0.000715203
0.000396245
0.000463197
0.000703776
0.000489241
0.000369685
0.000475347
0.000335606
0.000412733
0.000551855
0.000522789
0.000391141
0.000434552
0.000276768
0.000295812
0.000979533
0.00058265
0.00067157
0.0008558
0.000652873
0.000487627
0.000838251
0.00063591
0.000600424
0.000622534
0.000327273
0.000562001
0.000751359
0.000346742
0.000880409
0.00125795
0.000649164
0.000335699
0.000356545
0.000402873
0.000263718
0.000323596
0.000726463
0.00149009
0.00103688
0.000451664
7.57441e-05
0.000381922
0.000232253
0.000369601
0.0005359
0.00099733
0.00161342
0.00157903
0.000874595
0.000340093
0.000753987
0.000350571
0.000350153
0.000256991
0.000416661
0.000632244
0.00116527
0.00122
0.000675832
0.00027178
0.000360443
0.000572511
0.000353609
0.000711599
0.000675234
0.000796169
0.00134043
0.00169755
0.000733327
0.00100076
0.000403195
0.000710224
0.000235512
0.000569636
0.000504609
0.000967695
0.00105044
0.00139199
0.00180789
0.00161378
0.000979186
0.00110232
0.000299527
0.000420787
0.000359796
0.000617506
0.000643458
0.000546138
0.00122631
0.00174992
0.00118929
0.0009171
0.00116451
0.00131153
0.00108603
0.000421971
0.000573222
0.000647418
0.000672257
0.000680349
0.00080481
0.00178598
0.00063638
0.000351257
0.000604458
0.000865526
0.000698106
0.000679656
0.000525571
0.000473053
0.000356893
0.000299017
0.000536605
0.000611663
0.00110342
0.00118118
0.000655532
0.000858241
0.00096649
0.000612707
0.000299996
0.000221215
0.000652373
0.000402489
0.000520903
0.0005564
0.000567032
0.000805585
0.00125593
0.000878606
0.000756019
0.000418865
0.000360338
0.000571313
0.000467259
0.000276646
0.00095405
0.000236237
0.000647991
0.000453939
0.000788237
0.000819661
0.000857091
0.000573435
0.000437498
0.00103493
0.000386376
0.000663454
0.000468627
0.000500138
0.000355934
0.000823879
0.000814343
0.000497821
0.000348315
0.000580651
0.000428815
0.000509981
0.000467474
0.00141605
0.000729096
0.000699818
0.000486827
0.000278786
0.000180722
0.00086455
0.00071549
0.000513096
0.000900962
0.000686661
0.000553008
0.000437415
0.000140513
0.000273555
0.000537241
0.000844606
0.0011713
0.00107833
0.000676493
4.71371e-05
0.000356887
0.000243091
0.000271674
0.000898817
0.000390999
0.00037862
0.000323911
0.000472094
0.000799585
0.000345648
0.000282053
0.000388411
0.000895085
0.00115513
0.000543627
0.00115672
0.000530525
0.000483744
0.00042353
0.000225577
0.000415835
0.000661284
0.000386537
0.000821739
0.000520734
0.000624423
0.000736425
0.000370642
0.000388334
0.000467367
0.000597902
0.000972153
0.00110132
0.000498216
0.00133704
0.00064807
0.0002223
0.000349509
0.000302796
0.000302078
0.000388775
0.000275051
0.000819977
0.000776346
0.000779343
0.000654934
0.000529007
0.000302429
0.000249254
0.000502269
0.000816309
0.000886536
0.000690759
0.000604254
0.000634805
0.000266261
0.000323357
0.000244998
0.000425847
0.000251157
0.000403883
0.000462287
0.000506796
0.000574066
0.000645141
0.000355691
0.000448189
0.00014381
0.000190368
0.000256377
0.000270519
0.000285355
0.00024084
0.000215417
0.000263138
0.000324713
0.00021764
0.000276058
0.000214775
0.000133943
0.000131746
0.000163919
0.000639903
0.000167101
0.000287182
0.000218889
0.000339839
0.000121902
6.97928e-05
0.000137143
0.00335749
0.00102703
0.00120739
0.00129558
0.00109417
0.00120938
0.000803055
0.00073312
0.000602866
0.000757295
0.000354086
0.000400903
0.000608197
0.00061611
0.000785398
0.000319556
0.000441685
0.000520426
0.000241706
0.000482492
0.000949245
0.000525265
0.000332962
0.000457569
0.000393362
0.000486426
0.000975244
0.00078604
0.000443023
0.00070827
0.000542431
0.000526027
0.00100436
0.00070607
0.00122121
0.00102622
0.000625369
0.000705014
0.000421637
0.000646004
0.00028548
0.000218057
0.000632865
0.00130849
0.000901835
0.000279038
0.000382002
0.000263105
0.000200376
0.000302044
0.000416971
0.00104647
0.00157239
0.000996782
0.00112904
0.000759129
0.000744627
0.000195886
0.000426848
0.000358721
0.000239051
0.000946026
0.00110696
0.00127911
0.000876995
0.000969316
0.000365887
0.00013124
0.0005984
0.000231698
0.000610584
0.000589126
0.000805115
0.00145229
0.0013468
0.00110795
0.00140154
0.000446361
0.000473857
0.000368462
0.000256462
0.000697256
0.000446208
0.000753293
0.000708992
0.00160028
0.00130492
0.000906089
0.00041125
0.000209108
0.000219527
0.000304898
0.000253225
0.000565055
0.000473673
0.000819234
0.00132525
0.00200656
0.00150985
0.00140654
0.0006692
0.00137238
0.000385809
0.000359764
0.000471319
0.000616103
0.000661198
0.000694386
0.00116291
0.00127717
0.00130362
0.00062753
0.001057
0.00131472
0.00131964
0.00148236
0.000551134
0.000414372
0.000332439
0.00068719
0.000734202
0.000868866
0.00102394
0.00143582
0.00065675
0.000587595
0.000766501
0.000976521
0.000734957
0.000960949
0.00075098
0.000649847
0.000604886
0.000345692
0.000450262
0.000602627
0.0011003
0.00131072
0.000568699
0.000714063
0.000856148
0.000817484
0.000565006
0.000496159
0.00101745
0.000373831
0.000319213
0.000613574
0.000460315
0.000589911
0.000655548
0.000998493
0.000677177
0.000744228
0.000735807
0.000344164
0.000468144
0.00066293
0.000462748
0.00147209
0.00128729
0.000230501
0.000509308
0.00049778
0.000607805
0.00078296
0.000698622
0.000862627
0.000841473
0.0011049
0.000506526
0.000326509
0.000577655
0.000180193
0.00057629
0.00126928
0.000825785
0.000610705
0.000371006
0.00028394
0.000439017
0.000547965
0.000593916
0.000557973
0.00139635
0.000973829
0.00073051
0.00039813
0.000183596
0.000369493
0.000244638
0.00123629
0.000755497
0.000670867
0.000547616
0.00102197
0.000570036
0.000508094
0.000194425
0.000260457
0.000482139
0.000926458
0.000498529
0.00133473
0.0007469
0.000171538
0.000272474
0.000283472
0.000215459
0.000826712
0.000520949
0.000357262
0.000357994
0.000548848
0.000501502
0.000754701
0.000149295
0.000374412
0.000315235
0.000864274
0.00106808
0.000524795
0.001399
0.000457104
0.000621483
0.000365198
0.000265924
0.000380539
0.000812304
0.000423069
0.000538017
0.000614568
0.000503338
0.000656306
0.000511946
0.000190798
0.000361212
0.000301054
0.000822179
0.00129321
0.000853745
0.000468144
0.00149911
0.000482638
0.000367066
0.00042181
0.000273924
0.000274095
0.000363528
0.000279482
0.000742058
0.000740494
0.000799909
0.000809888
0.000499196
0.000276855
0.000236154
0.000261208
0.000515353
0.00064384
0.00085556
0.000543233
0.000656537
0.000482483
0.000320882
0.000241709
0.000325398
0.00018381
0.000275439
0.000380697
0.000506121
0.000554553
0.00059174
0.00068769
0.000262201
0.000362295
0.000182168
0.000170213
0.000180009
0.000240066
0.000255504
0.00024542
0.000224602
0.000199995
0.000211227
0.00028753
0.000288508
0.000213973
0.000173711
8.1197e-05
0.000124992
0.000170036
0.000614815
0.000196212
0.000156119
0.00020439
0.000399661
9.96473e-05
7.55325e-05
0.00030595
0.000483815
0.00345258
0.00322338
0.0012806
0.00114805
0.00134194
0.00130628
0.0011286
0.00129467
0.00102485
0.000721852
0.000679414
0.000636272
0.000604661
0.000737883
0.000405234
0.000553356
0.000493259
0.000469502
0.000621352
0.000834388
0.000322162
0.000415777
0.000549415
0.000504463
0.000478178