/*--------------------------------*- C++ -*----------------------------------*\
  =========                 |
  \\      /  F ield         | OpenFOAM: The Open Source CFD Toolbox
   \\    /   O peration     | Website:  https://openfoam.org
    \\  /    A nd           | Version:  7
     \\/     M anipulation  |
\*---------------------------------------------------------------------------*/
FoamFile
{
    version     2.0;
    format      ascii;
    class       volScalarField;
    location    "6.5";
    object      p;
}
// * * * * * * * * * * * * * * * * * * * * * * * * * * * * * * * * * * * * * //

dimensions      [0 2 -2 0 0 0 0];

internalField   nonuniform List<scalar> 
18780
(
-70.8765
-70.2211
-70.8049
-71.1173
-69.1406
-70.1072
-70.5104
-70.744
-71.0688
-71.686
-69.0431
-68.9991
-70.1873
-69.9947
-70.3964
-71.4073
-70.6953
-71.0262
-71.6652
-71.8733
-69.0012
-68.8256
-70.7953
-68.8238
-70.07
-71.7842
-69.8873
-70.264
-71.3419
-71.9229
-70.6608
-70.997
-71.6466
-71.8335
-71.9546
-68.0501
-68.5724
-70.4764
-68.6058
-70.6572
-71.8743
-68.5774
-69.9238
-71.8324
-71.7502
-69.7891
-70.193
-71.3203
-71.876
-71.9194
-70.6407
-70.9755
-71.6276
-71.7956
-71.9168
-71.9132
-66.6008
-67.4794
-69.003
-68.0417
-70.143
-70.0093
-68.4826
-70.4479
-71.9475
-70.6606
-68.4525
-69.8665
-71.8128
-71.7257
-71.6283
-69.7143
-70.1312
-71.3332
-71.8673
-71.9207
-71.5394
-70.6341
-70.9604
-71.6101
-71.7597
-71.874
-71.884
-71.2365
-65.0935
-66.3119
-67.227
-67.0937
-68.4663
-68.5389
-67.6141
-69.5671
-69.756
-69.1513
-68.3283
-70.1755
-71.7302
-70.7036
-69.8164
-68.4266
-69.7732
-71.6964
-71.8032
-71.6779
-70.6196
-69.6642
-70.064
-71.3106
-71.8608
-71.8988
-71.5606
-70.6535
-70.6386
-70.951
-71.5938
-71.7239
-71.8298
-71.8483
-71.2031
-70.3993
-63.5769
-64.82
-65.7095
-65.8454
-66.8077
-67.3041
-66.7982
-67.9688
-68.2686
-68.0331
-67.2478
-68.9933
-69.5358
-69.0166
-68.1778
-68.0302
-69.8615
-71.3271
-70.6011
-69.7835
-68.9028
-68.4605
-69.6361
-71.5269
-71.8651
-71.646
-70.8613
-69.5693
-69.6332
-70.0153
-71.2743
-71.865
-71.8865
-71.5585
-70.5907
-69.5823
-70.6505
-70.9455
-71.5814
-71.6896
-71.7831
-71.8101
-71.177
-70.4525
-69.3369
-61.72
-62.2688
-63.4091
-64.1057
-64.7844
-65.327
-65.7091
-65.6676
-66.5198
-66.9259
-66.6807
-66.4049
-67.5578
-67.9531
-67.7597
-67.0106
-67.0274
-68.481
-69.1988
-68.8476
-68.0158
-67.1905
-67.8619
-69.6038
-70.8767
-70.4184
-69.743
-68.8466
-67.8237
-68.6026
-69.5897
-71.4197
-71.857
-71.5796
-70.9155
-69.5996
-68.4546
-69.6135
-69.9697
-71.2495
-71.8845
-71.8794
-71.5337
-70.5251
-69.5468
-68.4757
-70.6681
-70.9427
-71.5704
-71.6559
-71.7332
-71.7704
-71.1361
-70.4851
-69.3221
-68.5573
-61.1629
-61.6228
-62.2579
-62.2884
-62.5508
-63.3682
-63.6119
-63.7952
-64.423
-64.9957
-65.4232
-65.2398
-65.3032
-66.1615
-66.555
-66.359
-65.9049
-66.2162
-67.1971
-67.5794
-67.5256
-66.8352
-65.9993
-67.0227
-67.9664
-68.7664
-68.6292
-67.9863
-67.0289
-66.8006
-67.8747
-69.3536
-70.5719
-70.1386
-69.5782
-68.7529
-67.7619
-67.1165
-68.8038
-69.5721
-71.2857
-71.6993
-71.493
-70.8327
-69.6199
-68.3937
-68.0716
-69.6137
-69.9681
-71.263
-71.8778
-71.8078
-71.4932
-70.4713
-69.5166
-68.4244
-68.0359
-70.6898
-70.9428
-71.5615
-71.6235
-71.6812
-71.7195
-71.0859
-70.5079
-69.3083
-68.5073
-67.8538
-60.6594
-61.2319
-61.0883
-61.8369
-61.6668
-62.1109
-62.3374
-62.4521
-62.8354
-62.6729
-63.5281
-63.7527
-63.7336
-63.8733
-64.6521
-65.1631
-65.0453
-64.5426
-65.2404
-65.8172
-66.1169
-66.1082
-65.6097
-65.3786
-66.0188
-66.9686
-67.3135
-67.24
-66.5472
-65.8371
-65.6933
-66.9859
-67.5285
-68.3516
-68.4135
-67.781
-66.9253
-66.6978
-66.5138
-67.8048
-68.8524
-70.2184
-69.9324
-69.3471
-68.6776
-67.8985
-66.9774
-67.1455
-69.0116
-69.5916
-71.046
-71.4751
-71.3076
-70.8019
-69.6453
-68.3
-67.9077
-67.7589
-69.6636
-70.0028
-71.2089
-71.8827
-71.6878
-71.4592
-70.4757
-69.5044
-68.3797
-67.8716
-67.8956
-70.7154
-70.9446
-71.5554
-71.595
-71.6297
-71.6489
-71.0459
-70.5283
-69.2908
-68.4694
-67.7898
-67.3264
-59.9712
-60.1898
-60.6133
-60.6623
-61.4033
-61.0081
-61.1962
-61.5217
-61.5968
-61.7999
-61.8109
-61.9146
-62.4668
-62.4928
-62.7427
-62.8928
-63.2008
-63.4949
-63.7035
-63.372
-63.8851
-64.276
-64.8211
-64.9256
-64.4408
-64.2268
-65.1712
-65.4699
-65.7184
-66.1083
-65.3503
-65.1173
-64.8709
-66.0385
-66.7465
-67.0363
-66.9325
-66.3148
-65.6065
-65.4296
-65.5266
-66.8729
-67.3094
-67.9952
-68.1213
-67.5007
-66.8522
-66.5079
-66.3528
-66.4549
-67.8016
-68.3743
-69.803
-69.6432
-69.1539
-68.6793
-67.8589
-66.9096
-66.9521
-67.0795
-69.1595
-69.5584
-70.7995
-71.2154
-71.0746
-70.671
-69.7804
-68.2626
-67.755
-67.6145
-67.5882
-69.7369
-70.0407
-71.113
-71.9069
-71.5012
-71.4096
-70.53
-69.4819
-68.2821
-67.7132
-67.7485
-67.6969
-70.741
-70.9478
-71.5512
-71.5714
-71.5815
-71.5769
-71.0003
-70.5422
-69.2672
-68.4089
-67.7396
-67.274
-67.3248
-59.8229
-59.9423
-60.0786
-60.2222
-60.3878
-60.5025
-60.6117
-60.6453
-60.5713
-61.0149
-61.0296
-61.2176
-61.3913
-61.699
-61.5344
-61.7519
-61.8459
-62.0236
-62.5033
-62.2993
-62.4419
-62.4968
-62.8225
-63.3015
-63.2931
-63.4877
-63.2365
-63.3527
-63.8211
-64.0521
-64.5256
-64.6917
-64.2254
-63.8579
-63.8599
-65.0227
-65.2135
-65.4767
-65.7524
-65.1811
-64.938
-64.6156
-64.6855
-66.0147
-66.478
-66.7528
-66.4858
-65.957
-65.6594
-65.0878
-65.2755
-65.7915
-66.959
-67.3083
-67.7931
-67.8568
-67.2391
-66.6673
-66.2951
-66.0473
-66.2915
-66.5302
-67.8715
-68.2194
-69.3952
-69.2341
-68.7853
-68.5473
-67.8311
-66.8435
-66.7464
-66.9202
-67.2792
-69.3354
-69.5154
-70.5726
-70.9289
-70.7789
-70.4874
-69.8655
-68.2691
-67.6331
-67.4686
-67.4238
-67.532
-69.8303
-70.0819
-71.0185
-71.8897
-71.3342
-71.3694
-70.5374
-69.4581
-68.2162
-67.5795
-67.598
-67.5469
-67.5457
-70.7686
-70.9619
-71.5461
-71.5468
-71.5337
-71.5295
-70.9481
-70.5482
-69.2358
-68.3431
-67.689
-67.2226
-67.2809
-67.9188
-59.6648
-59.7961
-59.8734
-59.9808
-60.0991
-60.2262
-60.1445
-60.3183
-60.3233
-60.3561
-60.6774
-60.5522
-60.6812
-60.9934
-61.0111
-61.0645
-61.1388
-61.1923
-61.3883
-61.6438
-61.4637
-61.5387
-61.7681
-61.9162
-62.0061
-62.3647
-62.1717
-62.2884
-62.3631
-62.4312
-62.9706
-63.0844
-63.1393
-63.2729
-63.1489
-63.0184
-63.1367
-63.8295
-63.9554
-64.2011
-64.3477
-64.1264
-63.6229
-63.6764
-63.9902
-64.9643
-65.1033
-65.2097
-65.4206
-65.0699
-64.5756
-64.2761
-64.3595
-64.8652
-65.9097
-66.2229
-66.4436
-66.2146
-65.7505
-65.433
-64.9349
-65.0359
-65.3318
-65.8241
-67.0589
-67.2195
-67.6267
-67.6152
-67.0366
-66.6545
-66.1041
-65.8513
-65.9686
-66.3119
-66.7528
-67.9253
-68.2309
-69.1135
-68.9633
-68.4817
-68.5599
-67.8359
-66.7737
-66.5735
-66.6778
-67.0435
-67.3677
-69.4967
-69.4799
-70.3231
-70.4907
-70.4389
-70.3788
-69.94
-68.3236
-67.5276
-67.3456
-67.2381
-67.3848
-67.6885
-69.9438
-70.1202
-70.9341
-71.7681
-71.2417
-71.3035
-70.5215
-69.4568
-68.1785
-67.4609
-67.45
-67.4102
-67.45
-68.2585
-70.7985
-70.9712
-71.5405
-71.5247
-71.4901
-71.5003
-70.8974
-70.5401
-69.1896
-68.3241
-67.6593
-67.1684
-67.2357
-67.8877
-68.0013
-59.4802
-59.593
-59.7223
-59.7607
-59.8162
-60.0673
-59.9112
-60.0754
-60.1809
-60.1836
-60.034
-60.2723
-60.2708
-60.3302
-60.517
-60.6129
-60.5381
-60.5661
-60.8042
-60.8435
-60.9426
-61.0819
-61.0036
-61.2208
-61.2749
-61.3782
-61.1326
-61.4614
-61.4666
-61.4702
-61.7389
-61.9483
-61.9887
-62.0226
-62.079
-62.1186
-62.1253
-62.2651
-62.5548
-62.9058
-63.0116
-63.0215
-63.0748
-62.9401
-62.7624
-62.9404
-63.3372
-63.8149
-63.8338
-63.9678
-64.2252
-63.9478
-63.2526
-63.4258
-63.8288
-64.583
-64.9794
-64.9405
-65.0607
-65.2022
-64.9679
-64.5194
-64.2939
-64.2708
-64.8499
-65.4231
-65.9429
-66.0897
-66.1967
-66.0545
-65.6368
-65.355
-64.7601
-64.8343
-65.1915
-65.8121
-66.2745
-67.0718
-67.1523
-67.4726
-67.428
-66.8334
-66.5322
-65.9654
-65.6959
-65.8347
-66.1486
-66.5687
-67.1173
-68.0007
-68.2848
-68.9498
-68.8711
-68.6385
-68.4327
-67.8231
-66.7643
-66.3729
-66.4213
-66.8126
-67.2033
-67.6363
-69.6492
-69.507
-70.1794
-70.1055
-70.131
-70.1643
-70.0065
-68.3738
-67.4057
-67.2082
-67.0643
-67.2312
-67.5136
-68.3889
-70.06
-70.171
-70.8741
-71.5954
-71.1902
-71.1645
-70.544
-69.4584
-68.1292
-67.3411
-67.3052
-67.2894
-67.3501
-68.128
-67.9061
-70.8308
-70.9755
-71.534
-71.5046
-71.4417
-71.4688
-70.8492
-70.515
-69.1321
-68.3434
-67.6682
-67.1171
-67.1948
-67.8513
-67.9527
-67.4082
-59.4551
-59.4345
-59.4848
-59.6103
-59.6307
-59.8076
-59.7719
-59.7866
-60.0349
-60.1478
-59.944
-59.9064
-60.1568
-60.0992
-60.4399
-60.1307
-60.1931
-60.2746
-60.2787
-60.6029
-60.4606
-60.532
-60.6419
-60.5591
-60.781
-60.792
-60.7707
-60.8237
-60.9283
-60.8773
-61.1374
-61.2043
-61.4376
-61.3157
-61.3967
-61.4907
-61.3996
-61.4459
-61.7276
-61.6888
-62.2002
-61.945
-61.9751
-62.0166
-61.9477
-61.9356
-61.9899
-62.3295
-62.8859
-62.7743
-62.9863
-62.9844
-62.897
-62.8355
-62.4949
-62.6815
-63.3137
-64.035
-63.7682
-63.7967
-63.8034
-64.0487
-63.8285
-63.1967
-63.1889
-63.565
-64.2513
-64.9746
-64.9154
-64.8488
-64.8374
-64.9367
-64.7249
-64.2477
-64.0679
-63.9945
-64.6761
-65.2809
-66.0909
-66.1033
-66.0776
-66.0541
-65.8368
-65.465
-65.0928
-64.5637
-64.6568
-65.0663
-65.6514
-66.0915
-66.764
-67.1869
-67.3019
-67.3954
-67.2108
-66.6994
-66.2279
-65.791
-65.464
-65.7919
-66.0263
-66.3642
-66.944
-67.4331
-68.0559
-68.3794
-68.7666
-68.6201
-68.2128
-68.1761
-67.882
-66.7129
-66.2242
-66.2157
-66.6348
-67.0133
-67.3991
-68.7564
-69.7619
-69.5755
-70.1196
-70.1352
-69.7322
-69.9691
-70.0503
-68.4948
-67.3202
-67.1021
-66.9248
-67.0809
-67.3384
-68.2256
-68.2563
-70.1912
-70.225
-70.8217
-71.4412
-71.0807
-71.0168
-70.5179
-69.4535
-68.0856
-67.225
-67.1852
-67.1738
-67.2649
-67.9843
-67.8625
-67.0886
-70.8629
-70.9932
-71.5263
-71.4868
-71.3976
-71.4346
-70.8156
-70.4816
-69.0768
-68.3749
-67.6617
-67.0789
-67.1461
-67.8081
-67.9098
-67.4098
-66.0634
-59.4196
-59.347
-59.4516
-59.4638
-59.3098
-59.6071
-59.5967
-59.6385
-59.828
-59.9198
-59.7645
-59.818
-59.9658
-60.0464
-60.1442
-59.8402
-59.9635
-60.1081
-60.1153
-60.3134
-60.5828
-60.0928
-60.169
-60.3127
-60.431
-60.4779
-60.623
-60.4058
-60.5008
-60.6534
-60.5239
-60.7801
-60.7485
-60.865
-60.8354
-60.9004
-61.037
-60.8432
-61.0647
-61.18
-61.3509
-61.8604
-61.3915
-61.3973
-61.4072
-61.2699
-61.3597
-61.3966
-61.4497
-61.9396
-63.1806
-61.911
-62.0541
-62.0767
-61.8166
-61.8545
-61.5605
-62.0748
-62.8502
-63.3875
-62.7347
-62.926
-62.8825
-62.7314
-62.7773
-62.1787
-62.3692
-62.8178
-63.7011
-64.7659
-63.8422
-63.7172
-63.6161
-63.8795
-63.6122
-63.0594
-62.9
-63.2769
-64.1146
-64.8609
-65.4763
-64.7715
-64.8431
-64.6478
-64.6043
-64.4447
-64.1368
-63.8287
-63.6424
-64.5581
-65.0555
-65.7118
-66.2284
-66.1775
-66.0361
-65.9002
-65.6743
-65.2701
-64.7769
-64.3883
-64.4264
-64.8836
-65.4291
-65.9798
-66.5246
-67.5109
-67.2809
-67.2458
-67.3732
-67.0213
-66.4178
-66.1207
-65.6444
-65.2827
-65.5838
-65.8919
-66.1701
-66.7934
-67.257
-68.2465
-68.1566
-68.4501
-68.685
-68.4768
-67.4803
-67.8398
-67.7215
-66.7001
-66.108
-66.0475
-66.4491
-66.8574
-67.1915
-68.4864
-68.2815
-69.859
-69.6607
-70.0493
-69.8862
-69.3703
-69.7377
-69.9622
-68.683
-67.2934
-66.9917
-66.7857
-66.9526
-67.1529
-68.0785
-68.1168
-67.2221
-70.3375
-70.2866
-70.7741
-71.3151
-70.9228
-70.9303
-70.4899
-69.4365
-68.0485
-67.1183
-67.0815
-67.0702
-67.1812
-67.8508
-67.8295
-67.0307
-66.2019
-70.8947
-71.0206
-71.5193
-71.4723
-71.3555
-71.4007
-70.7887
-70.4596
-69.0891
-68.363
-67.6477
-67.0429
-67.0883
-67.7654
-67.8735
-67.4075
-66.0115
-65.5621
-59.3529
-59.3904
-59.3935
-59.2874
-59.2875
-59.4278
-59.4683
-59.6522
-59.6498
-59.7752
-59.5532
-59.6521
-59.6845
-59.895
-59.8687
-59.6428
-59.7388
-59.9999
-59.9673
-60.0664
-60.3421
-59.8259
-59.9474
-60.1137
-60.1593
-60.3053
-60.5566
-60.5956
-60.1461
-60.1694
-60.3828
-60.3857
-60.4416
-60.7052
-60.6085
-60.5755
-60.4941
-60.6224
-60.5582
-60.6776
-60.7979
-60.8093
-61.7184
-60.8886
-60.8902
-61.0442
-60.9562
-60.8799
-60.9318
-61.2272
-61.8961
-63.324
-61.3588
-61.4812
-61.4119
-61.2953
-61.2189
-61.1627
-61.2799
-61.7612
-63.1068
-64.3495
-61.9177
-61.9874
-62.0301
-61.866
-61.792
-61.345
-61.8073
-62.5201
-63.2121
-64.4399
-62.6841
-62.8431
-62.7765
-62.8263
-62.671
-62.0399
-62.1183
-62.5735
-63.6818
-64.6782
-65.5253
-63.5947
-63.6921
-63.5437
-63.6697
-63.6092
-63.0827
-62.7496
-62.9753
-64.0294
-64.7357
-65.5402
-66.1144
-64.934
-64.6904
-64.5391
-64.4695
-64.367
-63.9996
-63.6243
-63.4803
-64.3274
-64.9771
-65.5874
-66.4399
-67.3167
-66.1753
-65.9765
-65.7664
-65.5098
-65.1789
-64.6707
-64.1463
-64.2322
-64.6518
-65.2548
-65.8182
-66.2158
-67.2896
-68.9641
-67.3746
-67.1803
-67.3655
-66.8384
-66.2591
-66.0362
-65.5237
-65.0645
-65.4144
-65.7272
-66.0126
-66.5641
-67.051
-68.3444
-68.0737
-68.2968
-68.5497
-68.6574
-68.352
-67.27
-67.5995
-67.6507
-66.7018
-66.0037
-65.9116
-66.2466
-66.6772
-67.066
-68.2898
-68.1124
-67.2278
-69.9778
-69.7813
-70.0159
-69.6161
-69.1376
-69.4743
-69.7866
-68.8134
-67.1614
-66.889
-66.6897
-66.806
-66.9892
-67.9087
-67.9158
-67.1634
-66.7401
-70.4872
-70.3521
-70.7142
-71.1929
-70.7803
-70.8267
-70.4652
-69.4405
-68.0068
-66.9874
-66.9793
-66.9727
-67.096
-67.7224
-67.7856
-66.9659
-66.172
-65.8828
-70.9325
-71.052
-71.5129
-71.4597
-71.3186
-71.3665
-70.7544
-70.4363
-69.1424
-68.323
-67.6551
-67.0046
-67.0581
-67.7302
-67.8496
-67.3751
-65.9558
-65.5624
-65.165
-59.404
-59.3512
-59.2349
-59.3083
-59.4974
-59.3631
-59.402
-59.3304
-59.4046
-59.5041
-59.4702
-59.5183
-59.6409
-59.6838
-59.7829
-59.5671
-59.6088
-59.684
-59.88
-60.0178
-60.2573
-59.6452
-59.7556
-59.9561
-59.8355
-60.2204
-60.3025
-60.3417
-59.8201
-59.9629
-60.0465
-60.1748
-60.2885
-60.4677
-60.6174
-61.1931
-60.2567
-60.2041
-60.2284
-60.3575
-60.3575
-60.7036
-60.5832
-61.4562
-60.5417
-60.4776
-60.5462
-60.6046
-60.629
-60.7296
-60.7601
-61.5863
-63.3998
-60.8533
-60.8022
-60.9628
-60.9807
-60.9634
-60.8882
-60.9733
-61.5342
-63.0313
-64.8067
-61.3398
-61.3883
-61.3515
-61.4263
-61.265
-61.2706
-61.1038
-61.6843
-62.744
-64.3256
-65.7203
-61.9119
-61.9543
-61.9581
-61.9004
-61.7703
-61.3779
-61.5005
-62.2081
-62.9593
-64.4519
-65.5521
-62.6782
-62.7129
-62.6545
-62.6166
-62.6341
-62.1751
-61.9859
-62.3877
-63.4247
-64.4537
-65.4566
-65.9663
-63.5427
-63.6653
-63.5223
-63.5071
-63.4653
-63.1104
-62.8207
-62.7733
-63.6719
-64.5752
-65.442
-66.0022
-67.1077
-64.9838
-64.7915
-64.4763
-64.2553
-64.3162
-63.9409
-63.5723
-63.3139
-64.124
-64.8626
-65.5114
-66.3056
-66.6181
-67.9605
-66.2443
-66.0693
-65.7251
-65.2844
-65.0746
-64.5631
-64.2126
-64.1033
-64.5324
-65.0839
-65.6368
-66.1484
-66.7362
-68.8553
-67.6192
-67.4567
-67.376
-67.3999
-66.7232
-66.3603
-65.9569
-65.3639
-64.857
-65.2415
-65.6141
-65.8851
-66.3704
-66.8371
-68.1495
-67.6907
-67.3568
-68.389
-68.712
-68.6664
-68.2756
-67.591
-67.3755
-67.4247
-66.6851
-65.9419
-65.7708
-66.1521
-66.5059
-66.8865
-68.0159
-67.7951
-67.1808
-67.0286
-70.11
-69.9082
-69.9899
-69.6034
-69.1959
-69.2204
-69.6192
-68.9097
-67.0764
-66.8103
-66.6364
-66.6491
-66.8737
-67.6773
-67.7703
-67.1147
-66.6605
-66.4283
-70.6347
-70.4238
-70.6627
-71.0428
-70.6317
-70.7199
-70.4496
-69.4582
-67.9679
-66.9083
-66.8834
-66.8689
-67.0153
-67.5809
-67.6993
-66.908
-66.1432
-65.8565
-65.6206
-70.9706
-71.059
-71.5059
-71.4474
-71.2871
-71.3313
-70.7167
-70.4163
-69.1775
-68.2892
-67.6568
-66.9631
-67.039
-67.6914
-67.8312
-67.3481
-65.9241
-65.5454
-65.1211
-64.9027
-59.2309
-59.4675
-59.3386
-59.3245
-59.2914
-59.2342
-59.3794
-59.1991
-59.3531
-59.379
-59.3747
-59.4344
-59.5135
-59.5206
-59.5756
-59.4199
-59.5241
-59.5004
-59.8264
-59.838
-59.9671
-59.5437
-59.5109
-59.6969
-59.8111
-60.0359
-60.0993
-60.3922
-59.6556
-59.8232
-59.8807
-59.9608
-60.2228
-60.3687
-60.4959
-61.0093
-59.9223
-59.9175
-60.0003
-60.1555
-60.127
-60.4445
-60.5542
-61.13
-63.7071
-60.0486
-60.2488
-60.2638
-60.369
-60.3839
-60.6261
-60.7776
-61.3695
-63.4503
-60.4543
-60.4071
-60.4939
-60.5726
-60.607
-60.689
-60.7446
-61.4337
-62.9731
-65.4884
-60.8821
-60.9305
-60.9309
-60.8952
-60.9308
-60.9912
-60.7415
-61.3779
-62.5187
-64.399
-66.1937
-61.3518
-61.339
-61.3083
-61.2265
-61.248
-61.1983
-60.7807
-61.4074
-62.5481
-64.1205
-65.6636
-65.5948
-61.9157
-61.9435
-61.938
-61.8262
-61.8221
-61.273
-61.3032
-61.9157
-62.8154
-64.2856
-65.3958
-65.8908
-62.5482
-62.6943
-62.6333
-62.5787
-62.4963
-62.2535
-61.8697
-62.0679
-63.1642
-64.2729
-65.3959
-65.8809
-66.6935
-63.5234
-63.7023
-63.4637
-63.389
-63.2534
-63.177
-62.6552
-62.5939
-63.4856
-64.4089
-65.3777
-66.0205
-66.7971
-67.0266
-64.8625
-64.8275
-64.5203
-64.1216
-64.1763
-63.8948
-63.4392
-63.191
-64.0592
-64.681
-65.4324
-65.8687
-66.8795
-67.6668
-67.2333
-66.2645
-66.1141
-65.6498
-65.2659
-65.0225
-64.2791
-63.9081
-63.9289
-64.4827
-64.9336
-65.5117
-66.0643
-66.7632
-67.5924
-67.346
-67.2971
-67.3716
-67.3895
-67.4609
-66.706
-66.2898
-65.8361
-65.2838
-64.5913
-65.0486
-65.4804
-65.7685
-66.2002
-66.6753
-67.6048
-67.4089
-67.2682
-67.2886
-68.4728
-68.8492
-68.7132
-68.19
-67.4434
-67.126
-67.2742
-66.6012
-65.8949
-65.6322
-65.9845
-66.3901
-66.6984
-67.6479
-67.5503
-67.1495
-66.9503
-66.6564
-70.2586
-70.0524
-70.0421
-69.6324
-68.9426
-68.9553
-69.4057
-68.9484
-67.0711
-66.7349
-66.5546
-66.5556
-66.7504
-67.4613
-67.6766
-67.0558
-66.5995
-66.3468
-65.9321
-70.7665
-70.5035
-70.6514
-70.9264
-70.5164
-70.6297
-70.4181
-69.5073
-67.9443
-66.8985
-66.7901
-66.7621
-66.9332
-67.4426
-67.5937
-66.8729
-66.1088
-65.8273
-65.6109
-65.2033
-71.0169
-71.0615
-71.4995
-71.4378
-71.2588
-71.2967
-70.6812
-70.3784
-69.1743
-68.2555
-67.676
-66.9179
-67.0157
-67.6463
-67.8143
-67.3192
-65.9075
-65.5351
-65.095
-64.9128
-64.4729
-59.2274
-59.2051
-59.2136
-59.4566
-59.3186
-59.1789
-59.3212
-59.2291
-59.1382
-59.167
-59.4167
-59.318
-59.2983
-59.332
-59.3483
-59.3309
-59.3668
-59.3823
-59.5259
-59.5836
-59.6187
-59.4596
-59.3956
-59.4505
-59.7454
-59.6791
-59.9206
-60.2324
-59.4358
-59.5884
-59.7457
-59.8257
-59.8561
-60.1769
-60.4086
-60.8515
-59.697
-59.7231
-59.824
-59.9138
-60.0623
-60.3628
-60.2824
-60.9682
-63.2342
-59.8502
-59.9531
-60.0251
-60.1558
-60.1782
-60.493
-60.495
-61.0864
-63.4099
-66.6338
-60.0718
-60.0867
-60.2352
-60.3117
-60.341
-60.5824
-60.6938
-61.3685
-63.0593
-66.2862
-60.4995
-60.5007
-60.4804
-60.5732
-60.5251
-60.6409
-60.6625
-61.103
-62.561
-65.1306
-66.8402
-60.8391
-60.7902
-60.8916
-60.8231
-60.8055
-60.7767
-60.6818
-61.195
-62.3478
-64.1046
-66.0108
-66.0366
-61.3527
-61.3989
-61.3247
-61.1816
-61.2777
-61.0174
-60.805
-61.1238
-62.6651
-63.9076
-65.4187
-65.5274
-65.5444
-61.8715
-61.9796
-61.9667
-61.815
-61.7679
-61.5749
-61.3483
-61.7222
-62.8357
-63.9625
-65.2838
-65.7562
-66.1664
-62.5469
-62.599
-62.7198
-62.6192
-62.4183
-62.3366
-61.7268
-61.9434
-62.8279
-64.0542
-65.1398
-65.85
-66.5766
-66.8393
-63.5287
-63.7429
-63.4852
-63.4425
-63.2347
-63.0723
-62.3095
-62.5337
-63.3134
-64.2216
-65.2043
-65.9187
-66.7022
-67.2508
-67.8567
-64.8467
-64.8341
-64.5793
-64.4667
-64.0336
-63.6976
-63.3719
-63.1595
-63.8671
-64.4239
-65.262
-65.9264
-66.6759
-67.7057
-67.2957
-67.2973
-66.2369
-66.1177
-65.6395
-65.3925
-64.8777
-64.2868
-63.9361
-63.7805
-64.2504
-64.7262
-65.3746
-65.9097
-66.4161
-67.5815
-67.4012
-67.2513
-67.2795
-67.3526
-67.3477
-67.4783
-66.7171
-66.1541
-65.582
-65.2663
-64.4309
-64.8643
-65.3064
-65.6151
-66.0636
-66.5297
-67.4126
-67.3695
-67.1762
-67.1684
-66.9326
-68.64
-68.935
-68.7986
-68.1409
-67.113
-66.8714
-67.0296
-66.5243
-65.8897
-65.4794
-65.784
-66.2104
-66.5778
-67.4009
-67.4758
-67.0778
-66.8616
-66.5642
-66.2397
-70.4435
-70.2099
-70.1662
-69.5202
-68.487
-68.7036
-69.2075
-69.0051
-67.0887
-66.5776
-66.4693
-66.4965
-66.632
-67.2651
-67.5565
-66.9934
-66.5593
-66.2576
-65.9422
-65.3822
-70.9083
-70.5813
-70.6539
-70.9267
-70.4237
-70.5509
-70.3477
-69.5349
-67.9223
-66.8847
-66.6996
-66.6604
-66.8551
-67.3199
-67.4791
-66.8364
-66.0819
-65.8035
-65.6153
-65.2171
-65.0208
-71.072
-71.0842
-71.4944
-71.4321
-71.2351
-71.2652
-70.657
-70.3414
-69.1734
-68.236
-67.6904
-66.8787
-66.9944
-67.5941
-67.7919
-67.2682
-65.8975
-65.5276
-65.0853
-64.9309
-64.4976
-64.3866
-58.9174
-59.2372
-59.204
-59.2636
-59.2133
-59.0364
-59.4488
-59.2866
-59.148
-59.0795
-59.272
-59.199
-59.1465
-59.1087
-59.1331
-59.3844
-59.3232
-59.2732
-59.2878
-59.3443
-59.2779
-59.335
-59.4104
-59.3874
-59.5081
-59.4672
-59.6468
-59.8935
-59.4174
-59.4101
-59.511
-59.5292
-59.4924
-59.9284
-59.9098
-60.5576
-59.5021
-59.5239
-59.6758
-59.6653
-59.8605
-60.2741
-60.1894
-60.8672
-62.2426
-59.7049
-59.8026
-59.8038
-59.9071
-59.9601
-60.216
-60.2836
-60.8686
-63.0887
-65.1162
-59.8527
-60.0062
-60.0349
-60.0405
-60.1313
-60.6273
-60.5255
-61.0558
-63.0961
-66.2487
-67.3896
-60.1223
-60.4288
-60.1353
-60.2908
-60.2904
-60.6775
-60.5735
-61.042
-62.8235
-65.8399
-67.2345
-60.5109
-60.6087
-60.5348
-60.5698
-60.5049
-60.7464
-60.7022
-61.0151
-62.3653
-64.6751
-66.7223
-67.1194
-60.8837
-60.9849
-60.8831
-60.8323
-60.7681
-60.8138
-60.7002
-60.9979
-62.2402
-63.7427
-65.7781
-66.2285
-65.2817
-61.3391
-61.375
-61.3696
-61.1477
-61.1802
-61.0081
-60.899
-61.0977
-62.3265
-63.687
-65.3057
-65.7012
-65.7337
-64.6362
-61.9113
-61.8941
-61.971
-61.807
-61.7073
-61.6634
-61.3075
-61.4192
-62.4154
-63.7532
-65.126
-65.6075
-66.0332
-65.8772
-62.591
-62.5751
-62.6163
-62.6905
-62.3575
-62.1983
-61.7731
-61.835
-62.578
-63.8741
-65.0352
-65.8761
-66.4095
-66.5118
-66.8038
-63.5686
-63.6419
-63.4981
-63.5
-63.1344
-62.9488
-62.3423
-62.4991
-63.0577
-64.0171
-65.0163
-65.827
-66.4336
-67.1232
-66.9969
-66.7834
-64.8261
-64.8413
-64.6374
-64.3306
-63.9514
-63.611
-63.3013
-63.0698
-63.5426
-64.1351
-65.0704
-65.717
-66.5404
-67.5624
-67.0735
-67.2266
-67.1412
-66.1813
-66.1292
-65.7323
-65.3444
-64.8803
-64.2102
-63.7211
-63.6675
-64.0556
-64.5293
-65.1918
-65.7626
-66.3949
-67.2427
-67.3085
-67.2769
-67.236
-67.0698
-67.5487
-67.433
-67.5278
-66.7977
-66.1266
-65.2983
-65.2668
-64.5442
-64.7282
-65.1554
-65.5052
-65.9195
-66.406
-67.1764
-67.3148
-67.1703
-67.1426
-66.8398
-66.6436
-68.7681
-68.9798
-68.9395
-68.2449
-67.2082
-66.7582
-66.8803
-66.3951
-65.8926
-65.3245
-65.6561
-66.0173
-66.4654
-67.1607
-67.3462
-67.0507
-66.7783
-66.5009
-66.1718
-65.9834
-70.64
-70.3666
-70.3226
-69.2591
-68.4631
-68.4781
-69.054
-69.0268
-67.1022
-66.4539
-66.3807
-66.3506
-66.4986
-67.0916
-67.415
-66.9437
-66.5263
-66.1958
-65.9679
-65.3869
-65.3727
-71.0619
-70.6526
-70.6411
-70.8008
-70.3416
-70.4731
-70.231
-69.5877
-67.9029
-66.8371
-66.5935
-66.5619
-66.7616
-67.1964
-67.3759
-66.7953
-66.0577
-65.7824
-65.6159
-65.2331
-65.0561
-64.8119
-71.1264
-71.1031
-71.4904
-71.4248
-71.2178
-71.2342
-70.6377
-70.2983
-69.1618
-68.2331
-67.6788
-66.8406
-66.9764
-67.5366
-67.7659
-67.209
-65.8878
-65.5249
-65.0734
-64.9497
-64.5387
-64.3862
-64.2543
-58.9223
-58.8258
-59.173
-59.1241
-58.9776
-59.229
-59.1374
-59.0071
-58.939
-59.4272
-59.3148
-59.0985
-59.0058
-58.9889
-59.2922
-59.1228
-59.1399
-59.1044
-59.0705
-59.0618
-59.4145
-59.3387
-59.2737
-59.2604
-59.2979
-59.2898
-59.5745
-59.3929
-59.3072
-59.2764
-59.3803
-59.4076
-59.6215
-59.6516
-60.0826
-59.4235
-59.3606
-59.4679
-59.4922
-59.6176
-60.0401
-59.776
-60.6251
-61.1922
-59.5752
-59.522
-59.6334
-59.6636
-59.7451
-60.0706
-60.0533
-60.7297
-61.9686
-63.1533
-59.7219
-59.9888
-59.8134
-59.7944
-59.9292
-60.2953
-60.3778
-60.8847
-62.8346
-64.7269
-65.608
-59.972
-60.0225
-59.9626
-60.0241
-60.0974
-60.5178
-60.4256
-61.0035
-62.8458
-65.7274
-66.9128
-66.7445
-60.1941
-60.2934
-60.3668
-60.3094
-60.3185
-60.638
-60.6168
-60.9835
-62.2678
-65.3443
-67.0706
-67.3329
-60.5696
-60.6282
-60.5613
-60.5974
-60.4546
-60.6457
-60.7025
-60.9499
-61.9989
-64.3424
-66.5898
-67.178
-65.1294
-60.9168
-60.9035
-60.8966
-60.7975
-60.7723
-60.7401
-60.6812
-61.0523
-61.7115
-63.1537
-66.2325
-66.489
-65.5214
-64.7939
-61.3962
-61.2528
-61.3998
-61.2803
-61.1049
-60.9839
-60.8907
-61.0572
-61.7992
-63.4577
-65.2803
-65.9049
-65.9003
-65.6418
-64.6277
-61.8677
-61.8801
-61.8821
-61.8282
-61.6744
-61.6442
-61.1928
-61.3211
-62.2414
-63.5276
-64.9217
-65.607
-65.9335
-65.7923
-65.5695
-62.5258
-62.5439
-62.6128
-62.5585
-62.3755
-62.2345
-61.7827
-61.8016
-62.333
-63.6615
-64.8393
-65.6562
-66.2473
-66.4198
-66.3176
-66.1479
-63.4894
-63.5128
-63.4582
-63.2668
-63.1101
-62.8104
-62.1535
-62.3895
-62.941
-63.7783
-64.7399
-65.6449
-66.3177
-66.8641
-67.0401
-66.8258
-66.67
-64.7657
-64.9645
-64.6924
-64.1129
-63.7945
-63.5038
-63.2446
-63.017
-63.448
-63.9335
-64.7415
-65.623
-66.3449
-67.2995
-67.1269
-67.2724
-67.0734
-66.9955
-66.0425
-66.145
-65.787
-65.3526
-64.8539
-64.3205
-63.7537
-63.5638
-63.9035
-64.3761
-65.0242
-65.6064
-66.2436
-67.137
-67.2759
-67.3226
-67.2081
-66.989
-66.8403
-67.6722
-67.5034
-67.562
-66.8674
-66.1468
-65.2459
-65.2066
-64.3939
-64.583
-65.0209
-65.3429
-65.7541
-66.274
-67.0593
-67.1969
-67.1321
-67.1499
-66.7953
-66.561
-66.3802
-68.8607
-69.0109
-69.0941
-68.3165
-67.2036
-66.668
-66.7562
-66.2939
-65.883
-65.2345
-65.4826
-65.8829
-66.356
-66.9554
-67.2362
-67.0528
-66.7784
-66.4906
-66.2059
-65.9469
-65.7579
-70.8258
-70.5208
-70.4246
-69.3476
-68.9327
-68.2597
-68.8316
-68.9532
-67.1364
-66.3985
-66.3178
-66.2065
-66.388
-66.9414
-67.2674
-66.8816
-66.4865
-66.1725
-65.9479
-65.4333
-65.4137
-65.185
-71.2022
-70.7254
-70.6378
-70.6106
-70.2564
-70.3618
-70.1208
-69.6474
-67.9019
-66.7935
-66.5074
-66.4714
-66.6723
-67.0748
-67.2906
-66.7512
-66.0308
-65.7731
-65.611
-65.2537
-65.0911
-64.8585
-64.5875
-71.1789
-71.1224
-71.4875
-71.4149
-71.2003
-71.2058
-70.6172
-70.2418
-69.1238
-68.219
-67.6599
-66.7972
-66.9549
-67.4723
-67.7383
-67.1791
-65.8674
-65.5121
-65.0801
-64.9631
-64.5564
-64.3759
-64.2707
-64.0861
-58.9213
-58.8526
-58.6665
-59.1583
-59.14
-58.8817
-58.823
-59.2198
-59.0347
-58.9553
-58.8308
-58.8385
-59.3779
-59.2402
-59.1084
-58.9833
-58.8738
-58.9338
-59.2508
-59.1534
-59.0787
-59.0688
-59.0184
-59.0309
-59.2766
-59.4027
-59.3337
-59.2019
-59.255
-59.2335
-59.3517
-59.4839
-59.7716
-59.3387
-59.3875
-59.3039
-59.3435
-59.4408
-59.5537
-59.6448
-60.0032
-60.4688
-59.4641
-59.4439
-59.4977
-59.4941
-59.5722
-59.7356
-59.8876
-60.4911
-60.9416
-61.439
-59.5487
-59.5129
-59.5264
-59.6148
-59.6635
-59.8487
-60.0196
-60.609
-61.7556
-62.6203
-63.217
-59.7587
-59.4208
-59.9184
-59.7954
-59.8786
-60.2355
-60.5651
-60.6736
-62.2766
-64.3086
-65.2589
-64.7766
-59.9336
-60.0793
-60.0258
-60.0156
-59.979
-60.1202
-60.4863
-60.8146
-62.0911
-65.1682
-66.7693
-65.8257
-63.7716
-60.2759
-60.3466
-60.259
-60.3598
-60.2563
-60.399
-60.6877
-60.9013
-61.8829
-64.8302
-67.105
-67.4988
-64.8461
-60.6268
-60.5682
-60.5842
-60.5814
-60.443
-60.5455
-60.6583
-60.8978
-61.7475
-63.9769
-66.9739
-67.5266
-65.4589
-63.9248
-60.8758
-60.9248
-60.9251
-60.9573
-60.7993
-60.8294
-60.706
-61.026
-61.6841
-62.9283
-66.1445
-66.8477
-65.9397
-65.1949
-63.8952
-61.4021
-61.327
-61.4223
-61.3153
-61.0872
-61.2516
-60.9139
-60.9455
-61.629
-63.1442
-65.0946
-65.9168
-65.877
-65.3329
-64.6942
-64.6863
-61.7339
-61.8422
-61.8554
-61.7235
-61.6839
-61.5884
-61.2363
-61.345
-62.1157
-63.255
-64.7112
-65.4614
-65.8406
-65.8554
-65.4542
-65.3395
-62.4513
-62.5649
-62.5947
-62.5095
-62.3948
-62.1335
-61.8377
-61.7935
-62.2407
-63.4116
-64.741
-65.4947
-66.0125
-66.259
-66.0374
-66.12
-66.1568
-63.5018
-63.6201
-63.3993
-63.3707
-63.0793
-62.8367
-62.2532
-62.3244
-62.9052
-63.6254
-64.5776
-65.5203
-66.0319
-66.4635
-66.8792
-66.8769
-66.6918
-66.7169
-64.6762
-64.9933
-64.6977
-64.2228
-63.8011
-63.5088
-63.2751
-63.0688
-63.305
-63.8186
-64.5186
-65.4414
-66.1512
-67.0293
-67.0771
-67.3017
-67.0832
-66.8973
-66.7254
-65.9164
-66.1755
-65.8421
-65.3642
-64.8647
-64.3681
-63.7905
-63.5436
-63.8458
-64.1818
-64.8015
-65.4405
-66.1179
-66.9379
-67.1784
-67.2964
-67.2026
-66.9906
-66.7902
-66.4134
-67.6741
-67.5446
-67.5832
-66.902
-66.3399
-65.6719
-65.1557
-64.2846
-64.4333
-64.9487
-65.1684
-65.6159
-66.1473
-66.9498
-67.0919
-67.1029
-67.1324
-66.7264
-66.5369
-66.3643
-66.0338
-68.8979
-69.0325
-69.2389
-68.4189
-67.2236
-66.5765
-66.5726
-66.1337
-65.8652
-65.1553
-65.3776
-65.7816
-66.2046
-66.787
-67.1447
-66.9991
-66.7904
-66.5397
-66.2121
-65.9518
-65.7946
-65.4539
-70.9926
-70.6552
-70.5093
-69.4739
-68.7473
-68.0192
-68.5997
-68.8252
-67.1476
-66.3427
-66.2235
-66.1221
-66.3423
-66.7935
-67.1739
-66.8378
-66.4591
-66.1497
-65.9153
-65.5072
-65.4601
-65.2464
-64.7075
-71.3528
-70.8026
-70.6702
-70.5863
-70.1995
-70.2733
-70.0402
-69.7034
-67.9161
-66.7583
-66.4412
-66.3933
-66.5911
-66.9851
-67.2259
-66.6998
-66.0041
-65.7565
-65.6059
-65.284
-65.1563
-64.9059
-64.6515
-64.2833
-71.1464
-71.4856
-71.4094
-71.1803
-71.1796
-70.6033
-70.2062
-69.0773
-68.2053
-67.6347
-66.7424
-66.929
-67.4008
-67.7127
-67.1373
-65.8454
-65.4904
-65.0956
-64.9649
-64.5644
-64.3864
-64.2857
-64.1168
-63.8172
-58.9638
-58.7604
-58.676
-58.6415
-59.328
-59.0335
-58.8747
-58.8201
-58.6845
-59.1786
-59.0416
-58.8953
-58.773
-58.6773
-58.7902
-59.3595
-59.2206
-59.0935
-58.9615
-58.8763
-58.8521
-59.0672
-59.3648
-59.1795
-59.1166
-59.0887
-59.0533
-59.0901
-59.2632
-59.4396
-59.3639
-59.3777
-59.2148
-59.1838
-59.3019
-59.251
-59.5324
-59.5028
-59.9087
-59.4297
-59.3836
-59.3187
-59.3331
-59.3586
-59.4466
-59.7264
-59.9008
-60.3133
-60.7428
-59.5305
-59.5235
-59.4386
-59.5038
-59.4955
-59.588
-59.9294
-60.2287
-60.8273
-61.296
-62.1107
-59.5612
-59.4387
-59.6062
-59.5592
-59.6033
-59.906
-60.1618
-60.3256
-61.2898
-62.6432
-63.3195
-62.7858
-59.7379
-59.9094
-59.6881
-59.7835
-59.7732
-60.0296
-60.259
-60.3501
-61.7218
-64.0752
-65.2652
-64.5413
-62.8968
-60.0344
-59.9991
-60.0437
-60.0459
-60.0207
-60.1945
-60.5502
-60.6655
-61.9866
-64.4236
-66.7696
-66.3594
-64.137
-62.0846
-60.3696
-60.3437
-60.3121
-60.3485
-60.3007
-60.2796
-60.6377
-60.9048
-61.5985
-64.403
-67.3814
-67.5185
-65.54
-63.1408
-60.4958
-60.6732
-60.5846
-60.5227
-60.5244
-60.5976
-60.6693
-60.8265
-61.6425
-63.7725
-66.8083
-67.6859
-66.0268
-64.3152
-62.9776
-60.8769
-60.971
-60.8636
-61.0104
-60.8429
-60.8917
-60.778
-60.9991
-61.6837
-62.7829
-65.7902
-67.0498
-66.1888
-65.3464
-64.057
-63.766
-61.3072