/*--------------------------------*- C++ -*----------------------------------*\
  =========                 |
  \\      /  F ield         | OpenFOAM: The Open Source CFD Toolbox
   \\    /   O peration     | Website:  https://openfoam.org
    \\  /    A nd           | Version:  7
     \\/     M anipulation  |
\*---------------------------------------------------------------------------*/
FoamFile
{
    version     2.0;
    format      ascii;
    class       surfaceScalarField;
    location    "6.5";
    object      phi_0;
}
// * * * * * * * * * * * * * * * * * * * * * * * * * * * * * * * * * * * * * //

dimensions      [0 3 -1 0 0 0 0];

internalField   nonuniform List<scalar> 
54184
(
0.000111101
-0.00107179
-1.54205e-05
0.000314034
-0.00257547
4.2357e-06
0.000118821
-0.0011745
-7.82607e-06
0.000104534
-0.0010538
-4.14406e-05
0.000542593
-0.00337767
-0.000201838
0.000322365
-0.00272533
3.87329e-05
0.000328933
-0.00208888
-0.000118099
0.000112003
-0.00127097
1.61499e-06
0.000115359
-0.00113581
-4.11781e-05
0.000127726
-0.001174
-8.16194e-05
0.000973869
-0.00246655
-0.00021171
0.000628633
-0.00345646
-0.000295385
0.000461871
-0.00189407
-0.000289315
0.00031087
-0.00284255
4.23547e-05
0.000272124
-0.00209024
-0.000116676
0.000213232
-0.00174274
-0.00024038
0.000105644
-0.00136167
9.07662e-06
0.000110169
-0.00120934
-3.5017e-05
0.000134502
-0.00126405
-8.56349e-05
0.000130838
-0.00115101
-0.000102545
0.00142414
-0.00351543
-1.15614e-05
0.00118566
-0.00271984
-0.000190849
0.000638934
-0.00231137
-0.000344871
0.000669012
-0.00351077
-0.000292697
0.000440739
-0.00194665
-0.000411421
0.000202658
-0.00192083
-0.000379161
0.00029502
-0.00292533
3.45229e-05
0.000242448
-0.00206169
-0.000118474
0.000240307
-0.00169805
-0.000267169
0.000132136
-0.00243539
-0.000270819
9.82169e-05
-0.00144442
1.54803e-05
0.000102065
-0.00127212
-3.02138e-05
0.00014237
-0.00136006
-8.13765e-05
0.000143879
-0.00127064
-0.000109887
0.000121102
-0.00109027
-0.000109096
0.00171129
-0.00472009
0.000334914
0.00165583
-0.00370364
0.000126959
0.00086939
-0.00384425
6.7566e-05
0.00120151
-0.002957
-2.58512e-05
0.00100456
-0.00264573
-0.000420308
0.000522043
-0.00404095
-0.000416167
0.000658676
-0.00350261
-0.000231277
0.00048457
-0.0020225
-0.000458971
0.000263358
-0.00195464
-0.00040066
1.15543e-05
-0.00382784
-0.000325279
0.000259209
-0.00296781
3.74711e-05
0.000267212
-0.00204354
-0.000148774
0.000335405
-0.00175243
-0.000257132
0.000221705
-0.00247767
-0.000302721
9.41785e-05
-0.00298787
-0.000252832
8.66078e-05
-0.00151556
2.06645e-05
9.72912e-05
-0.00132791
-2.60238e-05
0.000129397
-0.00144246
-7.72053e-05
0.000138539
-0.00138422
-0.000106333
0.000126369
-0.00120985
-0.00011668
0.000125615
-0.00102691
-0.000115751
0.00167407
-0.00515326
0.000641006
0.0018841
-0.00500628
0.000496488
0.00112966
-0.00461723
0.00019266
0.00161729
-0.00400489
0.000388094
0.00144288
-0.00441186
0.000256239
0.000740975
-0.00489868
-6.99638e-05
0.00110348
-0.00320611
0.000297513
0.00110371
-0.00301644
-0.000274278
0.000686757
-0.00439404
-0.000490609
-2.63369e-05
-0.00512932
-0.000282552
0.000581167
-0.00341883
-0.000183262
0.000601584
-0.00207686
-0.00051129
0.000478767
-0.0021498
-0.000407172
0.000143348
-0.00377443
-0.000375715
-4.71222e-05
-0.00472595
-0.000242074
0.000197877
-0.00295589
4.94703e-05
0.000251134
-0.0019804
-0.000179516
0.000323805
-0.00182061
-0.000275
0.000210583
-0.0024994
-0.000307448
0.000133679
-0.00301087
-0.000287038
9.21927e-05
-0.00310997
-0.000251565
7.42841e-05
-0.0015756
2.45513e-05
9.37268e-05
-0.00137832
-2.26463e-05
0.000116068
-0.00151091
-7.3646e-05
0.000134157
-0.00149303
-0.000102559
0.000118408
-0.00132076
-0.000113829
0.000145417
-0.001164
-0.00012501
0.000125241
-0.00149594
-0.000107745
0.00134486
-0.00558371
0.00105855
0.00198303
-0.00548113
0.000748941
0.00131852
-0.00537036
0.000462778
0.00177831
-0.00536352
0.000696788
0.00162014
-0.00479842
0.000500423
0.000929081
-0.00507441
5.17649e-05
0.0015174
-0.00450541
0.000752885
0.00157617
-0.00481853
0.000322305
0.00111132
-0.00517438
0.000107373
0.000239461
-0.00505949
-0.000361287
0.000969951
-0.00358046
0.000573633
0.00109575
-0.00319018
-2.29184e-05
0.000830916
-0.00468882
-0.000331649
3.19679e-05
-0.00521999
-0.000288555
-5.803e-05
-0.00603234
-0.000242713
0.000474324
-0.00342109
8.00365e-05
0.000621795
-0.00213151
-0.000499265
0.000626819
-0.00254789
-0.000416216
0.000271305
-0.00385699
-0.000385331
9.90938e-06
-0.00468782
-0.000290067
-0.000124129
-0.00529148
-0.000199338
0.000139632
-0.00291165
8.1043e-05
0.000280545
-0.00192901
-0.000188736
0.000308364
-0.0018877
-0.000304724
0.000288005
-0.00260848
-0.000319764
0.000169315
-0.00307409
-0.000295131
0.000101463
-0.0030728
-0.000280249
0.000105014
-0.00394679
-0.000206931
6.17102e-05
-0.00162305
2.74396e-05
9.35207e-05
-0.00142718
-2.01143e-05
0.000110076
-0.00157283
-7.08071e-05
0.000123358
-0.00159109
-9.89405e-05
0.000115141
-0.00142784
-0.000110615
0.000143319
-0.00129812
-0.000123026
0.000133843
-0.00163576
-0.000119033
6.43488e-05
-0.00231889
-8.5644e-05
0.00108503
-0.00618578
0.00170674
0.00193622
-0.00571665
0.00110726
0.00134738
-0.00606255
0.00102218
0.00170858
-0.00558093
0.000753743
0.00155695
-0.00532877
0.000770538
0.00113317
-0.00547064
0.000264282
0.00167478
-0.00571387
0.000795161
0.00186442
-0.00505165
0.000661769
0.001363
-0.00517661
0.000350937
0.000407776
-0.00575746
-0.000214849
0.00135197
-0.00511179
0.00087321
0.00146876
-0.0049299
0.000491242
0.00116312
-0.00529022
0.000105941
0.000310466
-0.00502578
-0.000204833
8.7214e-05
-0.00585446
-0.000542815
0.000837068
-0.00394723
0.000660272
0.00106945
-0.00326498
0.000200782
0.00103554
-0.00493988
-0.000180578
0.000268001
-0.005316
-0.000232336
-7.66665e-05
-0.0060192
-0.000215119
-0.00017032
-0.00648573
-0.000213028
0.000353185
-0.0034758
0.000217728
0.000664723
-0.00218494
-0.000250713
0.00059573
-0.00294685
-0.000387675
0.000447627
-0.00408592
-0.000346902
0.000157482
-0.00473897
-0.000322348
-0.000154801
-0.00512378
-0.000201502
2.8487e-05
-0.00572833
-0.000196297
8.08416e-05
-0.0028423
0.000115917
0.00028467
-0.00188404
-0.000155074
0.000338095
-0.00199312
-0.000311333
0.000311516
-0.00276357
-0.000337797
0.000163714
-0.00314061
-0.000301823
0.000213981
-0.00314971
-0.000288882
6.10605e-05
-0.00392918
-0.000225071
5.68079e-05
-0.00478473
-0.000172985
5.11064e-05
-0.00165733
2.98627e-05
9.2526e-05
-0.00147431
-1.7958e-05
0.000114608
-0.0016391
-6.84474e-05
0.000124793
-0.0016912
-9.5486e-05
0.00011511
-0.00153361
-0.000108279
0.000141309
-0.00143051
-0.000119531
0.000128404
-0.00176865
-0.000118538
6.28562e-05
-0.00240541
-9.53759e-05
0.00012361
-0.00292375
-6.24163e-05
0.00080717
-0.00577574
0.00260203
0.0010318
-0.00617284
0.0019712
0.00136084
-0.00566084
0.00175696
0.00112468
-0.00645611
0.00165971
0.00172404
-0.00576378
0.0010291
0.0018679
-0.00636825
0.00110201
0.00117555
-0.00630388
0.000945976
0.00187741
-0.00588737
0.000701443
0.0018209
-0.00525376
0.000722261
0.00129322
-0.0052554
0.000625078
0.000636356
-0.00599213
-1.63859e-05
0.00151553
-0.00592818
0.000874286
0.00185135
-0.00536282
0.000723742
0.00155045
-0.00536003
0.000457866
0.000556979
-0.00553597
-0.000117068
0.000418901
-0.00647223
-0.000481153
0.00109453
-0.00547984
0.000798892
0.00133107
-0.00498294
0.000664638
0.00128055
-0.00529769
0.000253694
0.000364977
-0.00498548
-3.1336e-05
6.12033e-05
-0.00578479
-0.000412376
-3.6947e-06
-0.00579278
-0.000529247
0.000703435
-0.00437495
0.000700237
0.000983746
-0.00318653
0.000262799
0.00097398
-0.00496694
-0.000150413
0.000538423
-0.00535299
-0.000234384
6.56356e-05
-0.00599762
-0.000162073
-0.000275226
-0.00639776
-0.000182671
0.000145501
-0.00604749
-0.000255974
0.000239279
-0.00353989
0.000316137
0.000662886
-0.0022964
-4.90298e-05
0.000618386
-0.00322862
-0.000249227
0.00051428
-0.0043778
-0.000298561
0.000166287
-0.00480087
-0.000287578
4.40419e-05
-0.00508511
-0.000191084
-7.90111e-05
-0.0056009
-0.000188856
0.000149984
-0.00534643
-0.000211487
8.70158e-05
-0.00279886
0.000136063
0.0002628
-0.00182924
-0.000109152
0.000364342
-0.00210296
-0.000294973
0.000342288
-0.0029418
-0.000350591
0.000208552
-0.00325493
-0.000316913
9.10208e-05
-0.00311344
-0.00028781
-2.43875e-05
-0.00383973
-0.000225539
2.93358e-05
-0.00479038
-0.000185903
0.000283982
-0.00444007
-0.000159005
3.81692e-05
-0.00168152
3.19724e-05
8.84137e-05
-0.001517
-1.58536e-05
0.000120337
-0.0017111
-6.62953e-05
0.000128432
-0.00179568
-9.24013e-05
0.000111772
-0.00163465
-0.000106225
0.00013311
-0.00155356
-0.000118343
0.000130309
-0.00190229
-0.0001162
5.46116e-05
-0.00248355
-9.50056e-05
0.000126142
-0.00307715
-6.81172e-05
0.000203401
-0.00251806
-4.90444e-05
0.00079418
-0.00577366
0.00278988
0.000989214
-0.0057101
0.00241767
0.00146982
-0.00587454
0.00250374
0.000885773
-0.00567661
0.00213435
0.000958685
-0.0063485
0.00196583
0.0018806
-0.00587964
0.00164928
0.00168768
-0.00628547
0.00176655
0.00103887
-0.00617941
0.00145365
0.00162373
-0.00559243
0.00106278
0.00143196
-0.00606181
0.00111158
0.00113563
-0.00615647
0.00111219
0.0008525
-0.00652617
0.000634202
0.00152099
-0.00604799
0.000812382
0.00194704
-0.00537625
0.000728241
0.00174881
-0.00534706
0.000615557
0.000780773
-0.00578924
0.000198394
0.000646811
-0.00613756
-0.000396401
0.00115232
-0.00609692
0.000918959
0.00166302
-0.00560489
0.000784394
0.00154905
-0.00548521
0.000580421
0.000655036
-0.00550785
0.000139685
8.68657e-05
-0.00619038
-0.000424581
5.34986e-06
-0.00575031
-0.000547466
0.000843487
-0.00572674
0.000848942
0.00120396
-0.0051885
0.000784241
0.00135598
-0.00538285
0.000367802
0.000719703
-0.00505263
0.000139563
0.000259588
-0.00580225
-0.000207826
-0.000183252
-0.00585874
-0.000438394
0.000467757
-0.00520847
-0.000359827
0.00056538
-0.00480424
0.000709563
0.000861926
-0.00320632
0.00052099
0.000850765
-0.00483558
-0.000100935
0.000637736
-0.00537858
-0.000248278
0.000116784
-0.00603154
-0.000150961
-0.000292192
-0.00612267
-0.000100923
3.55028e-05
-0.00609133
-0.000253344
0.000361549
-0.00533114
-0.00020625
0.000240283
-0.00366879
0.0004082
0.000599157
-0.00242215
0.000105531
0.000652809
-0.0034336
-0.000132525
0.000505658
-0.00459922
-0.00019118
0.000368333
-0.00494729
-0.000311928
-0.000155111
-0.00498271
-0.000143845
-0.000283468
-0.00538164
-0.00015127
8.09404e-05
-0.00536351
-0.000223379
0.000551687
-0.00418809
-0.000283567
0.000134628
-0.0028486
0.000182255
0.000233698
-0.00176655
-7.19203e-05
0.000367317
-0.00219064
-0.000268454
0.000378339
-0.0031295
-0.000357187
0.000281735
-0.00343853
-0.00033696
0.000187143
-0.00319011
-0.000294273
-5.15299e-05
-0.00372437
-0.000221337
-7.23177e-06
-0.00477288
-0.000181199
0.000276146
-0.00460705
-0.000168926
0.00041043
-0.00318327
-0.000140622
2.55098e-05
-0.00169306
3.41288e-05
8.17727e-05
-0.00155312
-1.36784e-05
0.000123773
-0.00178643
-6.4292e-05
0.000123173
-0.00189487
-9.02816e-05
0.000108372
-0.00173063
-0.00010479
0.000121583
-0.00166467
-0.000116694
0.00013028
-0.0020351
-0.000115809
4.52128e-05
-0.00254893
-9.60345e-05
0.000116295
-0.00322318
-6.52706e-05
0.000206396
-0.00273981
-5.27639e-05
0.000218319
-0.00112699
-4.75053e-05
0.000868653
-0.00565519
0.0030298
0.000949418
-0.00568797
0.00277691
0.00127697
-0.00545868
0.0026701
0.000841367
-0.00572395
0.00275952
0.000714223
-0.00549002
0.00227762
0.00119902
-0.00616231
0.00231298
0.00205538
-0.00573781
0.00204678
0.00130922
-0.00600702
0.00217134
0.0012196
-0.00649519
0.00177647
0.00117505
-0.00547941
0.0017287
0.00133389
-0.0062366
0.00169848
0.00131434
-0.00631301
0.00172144
0.000965403
-0.00672433
0.00106635
0.00145375
-0.00556561
0.00118325
0.00175932
-0.00582634
0.00101503
0.00142818
-0.00593174
0.00120749
0.00106722
-0.00646404
0.000763617
0.000810108
-0.00611671
6.77944e-05
0.00128215
-0.0061213
0.000846494
0.00179926
-0.00559345
0.000893337
0.0018741
-0.0056569
0.000713042
0.000792427
-0.00556186
0.000250783
0.000281079
-0.00584915
-0.000284228
7.23443e-05
-0.00588252
-0.000554907
0.000785413
-0.00604929
0.000948402
0.00149783
-0.0058613
0.0008815
0.00149507
-0.00545551
0.000615608
0.00100662
-0.00543277
0.000218428
0.000348556
-0.00603699
-0.000102672
4.43558e-05
-0.00582037
-0.000582126
0.000687885
-0.00530359
-0.000294456
0.000618128
-0.00578676
0.000826506
0.000997603
-0.00540238
0.000927144
0.00123298
-0.00549356
0.000512734
0.000851791
-0.00518325
0.000284365
0.000251766
-0.00570629
-9.13801e-05
-0.000230139
-0.00575599
-0.000372621
0.00033371
-0.00551914
-0.00042593
0.000320747
-0.00441995
-0.000255942
0.000485785
-0.00517514
0.000698272
0.000816849
-0.00343865
0.000724194
0.00083436
-0.00467389
0.000177748
0.000661829
-0.00542793
-0.000207762
0.000513626
-0.00628206
-0.000143047
-0.000262599
-0.0060957
-7.04525e-05
-0.000129099
-0.00619242
-0.000154205
0.000294376
-0.00555084
-0.000247075
0.000641236
-0.00400444
-0.000190622
0.000340974
-0.00386766
0.000430553
0.000461951
-0.00252351
0.000281309
0.000603381
-0.0035355
-2.86276e-05
0.000539632
-0.00476289
-0.000130144
0.000554325
-0.00515937
-0.000251681
0.000113578
-0.00497692
-0.000244148
-0.000351608
-0.00509668
-0.000128725
-4.44445e-05
-0.00527312
-0.000204452
0.000579805
-0.00445445
-0.000260676
0.000493164
-0.00285261
-0.000258242
0.000137524
-0.00293491
0.000211777
0.00022408
-0.0017222
-4.39668e-06
0.000362016
-0.002269
-0.000231798
0.000365198
-0.00329563
-0.000344347
0.0003346
-0.00367477
-0.000347173
0.000178554
-0.00329515
-0.000288886
3.59482e-05
-0.00369894
-0.000225372
-4.25747e-05
-0.00472619
-0.000180237
0.000224694
-0.00473628
-0.00016037
0.000462667
-0.00345346
-0.000155012
0.000414584
-0.00191999
-0.000141679
1.60908e-05
-0.00169522
3.58654e-05
7.39946e-05
-0.00158195
-1.10394e-05
0.000125998
-0.00186406
-6.20517e-05
0.00012407
-0.0019948
-8.8431e-05
0.000106402
-0.00182351
-0.000103808
0.00011579
-0.00176868
-0.000116576
0.000119999
-0.00215744
-0.000114352
3.51255e-05
-0.00260277
-9.70913e-05
9.62226e-05
-0.00335057
-6.48716e-05
0.000187583
-0.00294287
-4.97887e-05
0.00023443
-0.00136389
-5.02919e-05
0.000212558
-0.000241124
-3.52624e-05
0.000699248
-0.00514129
0.00367715
0.000742255
-0.00516397
0.0034082
0.000800935
-0.00552342
0.00310298
0.00102778
-0.00547703
0.00315571
0.000891284
-0.00578921
0.00303051
0.000790736
-0.0054706
0.00271232
0.00131896
-0.0058307
0.00255292
0.00182995
-0.00554507
0.00246592
0.00124559
-0.00526381
0.00259693
0.0013052
-0.00612894
0.00215864
0.00141737
-0.005865
0.00204929
0.000794353
-0.00542824
0.00215353
0.00167112
-0.00626425
0.00196679
0.000987281
-0.00600594
0.00200914
0.0013397
-0.00662051
0.00154027
0.00146179
-0.00543341
0.00169254
0.00146486
-0.00593029
0.00171686
0.00137967
-0.00633738
0.00177135
0.00128431
-0.00652094
0.00130095
0.000952911
-0.00645128
0.000726892
0.00136788
-0.0056356
0.001241
0.00164647
-0.00569178
0.00120148
0.00177995
-0.00589413
0.00107156
0.00103369
-0.00631078
0.000812959
0.000840761
-0.00616146
0.000248681
0.000369297
-0.00620246
-0.000222809
0.000834851
-0.00614603
0.00106874
0.00170341
-0.00587199
0.000919454
0.00180253
-0.00574892
0.000677889
0.00117296
-0.00551468
0.000499519
0.00038034
-0.00550176
-0.000128396
0.000288822
-0.00584642
-0.000564795
0.000463703
-0.00526358
-0.000270945
0.000630818
-0.00594976
0.000948427
0.00125247
-0.00611269
0.00094493
0.00143709
-0.00556396
0.000785837
0.00124105
-0.00551368
0.000307273
0.000422063
-0.00587426
-0.000114596
0.000261408
-0.00600678
-0.000407802
0.000499077
-0.00558678
-0.000464312
0.000249668
-0.00417849
-4.85545e-06
0.000460906
-0.00567588
0.000851128
0.000875051
-0.00554572
0.000911637
0.00109346
-0.00547092
0.000645404
0.000962722
-0.00530515
0.000333742
0.000591678
-0.00567282
0.000172846
-0.000195133
-0.00565827
-0.000256566
9.07284e-05
-0.00571847
-0.000393119
0.000431194
-0.00464486
-0.000337833
0.000732545
-0.00385033
-0.000196851
0.000402391
-0.00534137
0.000672571
0.000688912
-0.00378273
0.000815389
0.000795753
-0.00455671
0.000414638
0.00071112
-0.00535619
-6.54803e-05
0.000637655
-0.00641461
-0.000158542
-0.00012778
-0.00594067
-5.67144e-05
-0.000275081
-0.00620787
-0.000131524
0.000165155
-0.00570554
-0.00020911
0.000749167
-0.00416652
-0.000254355
0.000672097
-0.0029828
-0.000273733
0.000313751
-0.00406347
0.000476049
0.000326348
-0.00260943
0.000414203
0.000504822
-0.00351128
0.000114285
0.000526497
-0.00486515
-8.767e-05
0.000639776
-0.0053784
-0.000216297
0.000117614
-0.00496128
-0.000206382
-0.000232656
-0.00491276
-0.00015946
-2.72514e-05
-0.00522936
-0.000187807
0.000510642
-0.00467465
-0.000270202
0.000584131
-0.00300234
-0.000232409
0.000574001
-0.00220749
-0.000239296
9.55055e-05
-0.00300491
0.00023542
0.000213159
-0.00171467
6.50858e-05
0.000357251
-0.00232827
-0.000176382
0.000372728
-0.00347115
-0.000304938
0.000328005
-0.00389935
-0.000341366
0.000227962
-0.00346216
-0.000292345
-3.84533e-05
-0.0036085
-0.00022087
-6.80171e-05
-0.0046718
-0.000176617
0.000170626
-0.00483599
-0.000154931
0.000385272
-0.00366292
-0.000148595
0.000448622
-0.00212949
-0.000159712
0.000409427
-0.000911006
-0.000124958
8.08079e-06
-0.00168707
3.69245e-05
6.50645e-05
-0.00160197
-9.18157e-06
0.000119912
-0.0019356
-5.94103e-05
0.000133332
-0.00210455
-8.5637e-05
0.000114354
-0.00192431
-0.000101983
0.000106501
-0.00186355
-0.000115433
0.000108768
-0.00226853
-0.000114257
2.81671e-05
-0.00264905
-9.62431e-05
7.35406e-05
-0.00345563
-6.55654e-05
0.000163362
-0.00312249
-4.86121e-05
0.00023156
-0.00159775
-4.74931e-05
0.000224612
-0.000478804
-3.72239e-05
0.000186335
-0.000404575
-2.84669e-05
0.000752678
-0.00502228
0.003948
0.000617677
-0.00501128
0.0036189
0.000891558
-0.00517452
0.00376162
0.000661312
-0.00515596
0.00341124
0.00113427
-0.00523165
0.00332721
0.000847831
-0.00555606
0.00344648
0.000829937
-0.005509
0.00309575
0.00110022
-0.00499768
0.00314049
0.00120798
-0.0052349
0.00297954
0.00107896
-0.00539325
0.00311979
0.00110143
-0.00546238
0.00254778
0.00133606
-0.00554883
0.00257948
0.000693182
-0.00546313
0.00253659
0.00162932
-0.00524361
0.00248752
0.000867392
-0.00571097
0.00229885
0.00147107
-0.00592379
0.00208606
0.00170293
-0.00580268
0.00184959
0.00138025
-0.00535524
0.00206662
0.00137668
-0.00601781
0.00199526
0.00149611
-0.00603816
0.00188257
0.001381
-0.00640127
0.00169321
0.00122611
-0.00613563
0.00119007
0.0013574
-0.00544354
0.0017366
0.00176463
-0.00600249
0.00164658
0.00158872
-0.0061752
0.0017459
0.00133625
-0.00652393
0.00147179
0.00129115
-0.00643854
0.000837822
0.00079857
-0.0059682
0.000431179
0.0010515
-0.00579942
0.0013906
0.00168662
-0.00569186
0.00125787
0.00174999
-0.00575522
0.00111511
0.00116674
-0.00606289
0.0008299
0.000797024
-0.00605142
0.000286231
0.000469314
-0.00595529
-0.00017898
0.000288979
-0.00492887
-0.000143234
0.000505913
-0.00581921
0.00127364
0.00148654
-0.00604904
0.00101172
0.00181945
-0.00585463
0.000642803
0.0015181
-0.00567519
0.000561346
0.000581166
-0.00562027
0.000458934
0.000578069
-0.00595798
-0.000333493
0.000468695
-0.005595
-0.000202993
0.000397761
-0.00428078
-1.34901e-05
0.000305463
-0.00564947
0.00106691
0.00102355
-0.0062597
0.000946938
0.00128982
-0.00565851
0.000843125
0.00142825
-0.00572499
0.000531618
0.000678734
-0.00568505
3.10009e-05
-0.000148993
-0.00586866
-0.000298856
0.000151864
-0.00556678
-0.000488933
0.000449168
-0.00436456
-0.000296217
0.00075671
-0.00345226
-7.95602e-05
0.000315021
-0.00548474
0.000902014
0.000729094
-0.00564467
0.000909904
0.00104148
-0.00557351
0.000768505
0.000856741
-0.00514485
0.000339487
0.000732545
-0.00568353
0.000249558
-9.78944e-05
-0.00550177
-1.35457e-05
-0.000221564
-0.00570656
-0.000321995
0.000491687
-0.00507743
-0.000287085
0.000508337
-0.00372753
-0.000219793
0.000707817
-0.0027839
-0.000284383
0.00027653
-0.00533847
0.000676502
0.000470362
-0.00410719
0.000853018
0.000638802
-0.00438422
0.000508915
0.000705035
-0.00518053
6.04435e-05
0.000605312
-0.00631475
-0.000130885
-0.000143765
-0.00578389
-5.3938e-05
-0.000399566
-0.00600445
-9.32245e-05
0.000185878
-0.0058422
-0.000207993
0.000714487
-0.00431804
-0.000261434
0.000620419
-0.00298669
-0.000286752
0.000670059
-0.00243879
-0.000386965
0.000222207
-0.00422759
0.000527936
0.000291746
-0.00267004
0.000458071
0.000434189
-0.00347274
0.000298717
0.00048067
-0.00484485
-1.39603e-05
0.000598122
-0.00551838
-0.000217802
0.000248994
-0.00494587
-0.000252746
-0.00034599
-0.00472692
-8.46851e-05
-7.25474e-05
-0.00521598
-0.000168305
0.00038625
-0.00484855
-0.000229533
0.000507376
-0.00314942
-0.000245224
0.000622363
-0.00235966
-0.000253988
0.000547824
-0.00170478
-0.000282721
6.59176e-05
-0.00306509
0.00025395
0.000186971
-0.00172108
0.000119923
0.000327509
-0.00236941
-0.000101369
0.000383586
-0.00362324
-0.000274546
0.000333026
-0.00410665
-0.000316317
0.000222517
-0.00362028
-0.000299254
-1.40274e-05
-0.00355527
-0.000222774
-0.00011269
-0.0045747
-0.000177119
0.000106002
-0.00489995
-0.000145118
0.000351345
-0.00386553
-0.000140309
0.000441739
-0.00234233
-0.000145926
0.000421396
-0.00113024
-0.000137266
0.00033103
-0.00109665
-0.000139246
1.23557e-06
-0.00167424
3.77639e-05
5.72046e-05
-0.00161496
-7.28355e-06
0.000109301
-0.00199712
-5.69586e-05
0.000121876
-0.0022035
-8.23362e-05
0.000110565
-0.00202095
-9.95595e-05
0.000114285
-0.00196851
-0.000111309
0.000105152
-0.00237552
-0.000113602
2.5047e-05
-0.00269136
-9.69957e-05
6.36918e-05
-0.003551
-6.45641e-05
0.000140719
-0.00327876
-5.00183e-05
0.000227429
-0.00182751
-4.62806e-05
0.000215641
-0.000706562
-3.53767e-05
0.000195319
-0.000604845
-3.22733e-05
0.000151915
-9.68508e-05
-1.00096e-05
0.0008644
-0.0048409
0.00421932
0.000692612
-0.00500189
0.0038166
0.000778573
-0.0051679
0.00410307
0.000644446
-0.00500847
0.00369816
0.00108942
-0.00518807
0.00367731
0.000934582
-0.00494688
0.00391252
0.000813057
-0.00523418
0.00376303
0.00087791
-0.00520279
0.00333441
0.00109673
-0.00512287
0.00346094
0.00092996
-0.00536148
0.00334919
0.0011419
-0.00547677
0.0033513
0.00120009
-0.00514467
0.00314407
0.00111781
-0.00520451
0.00307117
0.000988366
-0.00547634
0.00291401
0.00147101
-0.00519428
0.00293887
0.00108931
-0.00544891
0.00288441
0.00138471
-0.00551272
0.00259804
0.00162698
-0.00528489
0.00236174
0.00123912
-0.00524363
0.00240322
0.0016055
-0.00539779
0.00246195
0.00135722
-0.00557268
0.00248811
0.00141383
-0.00570017
0.00204241
0.00169099
-0.00599227
0.00181076
0.00108932
-0.00518142
0.00171758
0.00135261
-0.00529002
0.00205373
0.00157496
-0.005731
0.00196948
0.00145601
-0.00592971
0.00201952
0.00150502
-0.00628906
0.00160159
0.00153474
-0.00601445
0.00132844
0.00109741
-0.00586496
0.000855517
0.00120481
-0.00560416
0.00178341
0.00148255
-0.00577934
0.00171752
0.00165174
-0.00614978
0.00171942
0.00132079
-0.00635373
0.00142165
0.00135966
-0.00646719
0.000937809
0.000818093
-0.00589681
0.000417651
0.000568722
-0.00470734
0.000225616
0.000572945
-0.0057909
0.0017471
0.00159111
-0.00581757
0.00141174
0.00193751
-0.00577389
0.00115848
0.00131823
-0.00578423
0.00103632
0.000912642
-0.00608191
0.000528914
0.000504102
-0.00551774
-7.73537e-05
0.000541796
-0.00509069
-9.02565e-05
0.000631933
-0.00391977
-1.08637e-05
0.000395543
-0.00584067
0.0015135
0.0011357
-0.00602718
0.00113962
0.00152924
-0.00585275
0.00077042
0.00167679
-0.00566752
0.000386586
0.000801428
-0.005691
0.000509379
2.90607e-05
-0.00585632
0.000179215
0.000254908
-0.00568494
-0.000346604
0.000266765
-0.00439885
9.7488e-05
0.000645148
-0.00311163
-0.000216286
0.000258101
-0.00555764
0.00130694
0.000738662
-0.00621377
0.00101141
0.00125567
-0.00587724
0.000951472
0.00119118
-0.00580506
0.000588758
0.000866624
-0.00547639
0.000188878
0.000111455
-0.00589746
-0.000149557
-0.000259729
-0.00544726
-0.000380209
0.000697345
-0.00469396
-0.000365195
0.00047589
-0.00345554
-0.00026049
0.000702299
-0.00282089
-0.000319075
0.000226268
-0.00533005
0.000958558
0.000493532
-0.00568951
0.000923682
0.000901007
-0.00575708
0.000831275
0.000956303
-0.00504842
0.000420802
0.000684518
-0.00571749
0.000294245
-3.1291e-05
-0.00539994
3.52528e-05
-0.000345299
-0.00561025
-0.000164115
0.000431669
-0.00539896
-0.000246253
0.000602175
-0.00368147
-0.000220838
0.000713264
-0.00278037
-0.000316168
0.000743914
-0.00266608
-0.000416882
0.000225664
-0.00536532
0.000718495
0.000406003
-0.00435441
0.000809468
0.000507964
-0.00429197
0.000687001
0.000677611
-0.00498042
0.000111861
0.000568034
-0.00612265
-0.000101567
2.39134e-05
-0.00565773
-3.19708e-05
-0.000422174
-0.00594522
-3.69876e-05
7.41587e-05
-0.00587725
-0.000204879
0.00063569
-0.00452812
-0.000247346
0.000603214
-0.0030589
-0.000285062
0.00075809
-0.00245113
-0.000410138
0.000659547
-0.00224311
-0.000465865
0.00018678
-0.00438569
0.000541798
0.000265326
-0.00271549
0.00049503
0.000382769
-0.00335542
0.000285499
0.000422001
-0.00467446
8.99141e-05
0.000520452
-0.00551733
-0.000202437
0.000361274
-0.0050578
-0.00024463
-0.000289699
-0.00460063
-0.000103369
-0.000168005
-0.00510652
-0.000138834
0.000258798
-0.0049518
-0.000217853
0.000467828
-0.00329269
-0.000202754
0.000587028
-0.00251949
-0.000230676
0.000569178
-0.00179405
-0.000312495
0.000390145
-0.00141973
-0.000335835
5.74412e-05
-0.00312941
0.000265168
0.00015382
-0.0017223
0.000158555
0.000288596
-0.00238408
-4.47082e-05
0.000341218
-0.00371433
-0.000229614
0.000296109
-0.00425202
-0.000314714
0.000250266
-0.00376801
-0.000304568
-6.28344e-06
-0.00351372
-0.000229375
-0.000126274
-0.00447237
-0.000173774
4.66139e-05
-0.00491698
-0.000143011
0.000291885
-0.00403161
-0.000130197
0.00043872
-0.0025557
-0.000138235
0.000417772
-0.00135715
-0.000121137
0.000349478
-0.00124057
-0.000147506
0.000171014
-0.000567708
-0.000123342
-4.9146e-06
-0.00165511
3.90232e-05
5.18759e-05
-0.00162376
-5.31419e-06
0.000100884
-0.00205136
-5.39291e-05
0.000111953
-0.00229316
-7.92449e-05
0.000116464
-0.00212386
-9.58919e-05
0.00011318
-0.0020712
-0.000110048
0.000110579
-0.00248701
-0.00011039
2.41126e-05
-0.00273169
-9.73844e-05
4.27485e-05
-0.0036256
-6.51426e-05
0.000116538
-0.00340998
-4.98802e-05
0.000218958
-0.00204998
-4.64971e-05
0.000205703
-0.000925024
-3.35215e-05
0.000188484
-0.000796099
-3.26064e-05
0.000164462
-0.000281795
-1.17911e-05
0.00010062
0.00269056
1.51908e-05
0.000721815
-0.00452858
0.00448055
0.000763687
-0.00490327
0.00410132
0.000751805
-0.00494125
0.00428089
0.000637693
-0.00494544
0.00385681
0.000805814
-0.00510837
0.00404068
0.000798958
-0.00495938
0.00435159
0.000720968
-0.00500956
0.00416331
0.00090818
-0.00520057
0.00368039
0.000949849
-0.00496361
0.00384092
1.34666e-05
-0.00488595
0.00415797
0.000776137
-0.00519914
0.00368205
0.00107033
-0.00509478
0.00372658
0.00111206
-0.00501399
0.00331356
0.00112959
-0.00485097
0.00347408
0.00101247
-0.00542715
0.00334531
0.00133722
-0.00534205
0.00334827
0.00132598
-0.00531901
0.00328897
0.00134658
-0.00502245
0.00300013
0.00180647
-0.00491598
0.00284402
0.00125923
-0.00545255
0.00281791
0.00139795
-0.00508856
0.00301584
0.00126784
-0.00533515
0.0029145
0.00129256
-0.00528964
0.00278261
0.00180755
-0.00519851
0.00239511
0.0014872
-0.00516897
0.00193413
0.00131379
-0.00518798
0.0024462
0.00123516
-0.00516308
0.00250831
0.00125129
-0.00538507
0.00247907
0.00157702
-0.00545038
0.00216632
0.00179708
-0.00611257
0.00190037
0.00128446
-0.00521459
0.00165688
0.00091332
-0.00443056
0.00139943
0.00126461
-0.00532121
0.00202205
0.00149508
-0.00564236
0.00195257
0.00163268
-0.00594504
0.00200388
0.00146093
-0.00615674
0.00174705
0.00164871
-0.00600663
0.00130471
0.00117363
-0.0057077
0.000815642
0.000769541
-0.00497765
0.000756092
0.00106221
-0.00600405
0.00193341
0.00149413
-0.00566891
0.00176996
0.00168155
-0.00591852
0.00174221
0.00126216
-0.00602083
0.00144258
0.00128817
-0.00637171
0.000950631
0.000852137
-0.00559692
0.000289881
0.000773316
-0.00484753
0.000326319
0.000849604
-0.00353322
7.4434e-06
0.000723003
-0.00609912
0.00192796
0.00125746
-0.00578188
0.00158965
0.00176984
-0.00598304
0.0013803
0.00152969
-0.00565235
0.0011737
0.000884223
-0.00594193
0.000813553
0.000415654
-0.00562155
0.000246126
0.000542575
-0.00524653
-0.000209184
0.000184449
-0.00416634
0.000238628
0.000805888
-0.00316994
-0.000188416
0.000356176
-0.00589435
0.00164159
0.000772356
-0.0058619
0.00131453
0.00138262
-0.00587704
0.00103696
0.00166552
-0.00585429
0.000482845
0.000937722
-0.00587282
0.000497308
0.000252641
-0.00580806
0.000319937
-1.30799e-07
-0.00548124
-0.000284079
0.00085098
-0.00472842
-0.000170676
0.000966957
-0.00335005
-0.000155161
0.000856122
-0.00273636
-0.000522192
0.000198518
-0.00552999
0.00141422
0.000436085
-0.0060401
0.00119073
0.00116499
-0.00611418
0.000984364
0.00126412
-0.00594739
0.00078598
0.000838214
-0.00540379
0.000362466
0.000209958
-0.00594523
-4.59252e-06
-0.00023489
-0.00541806
-0.000289173
0.00058782
-0.00486488
-0.000365435
0.000587773
-0.00353812
-0.000268211
0.000759938
-0.00271584
-0.000412217
0.000887616
-0.00273154
-0.000469166
0.000258905
-0.00528991
0.00101877
0.000365898
-0.00563506
0.000944217
0.000690151
-0.0058871
0.000871514
0.000819862
-0.00486008
0.000500691
0.00069409
-0.00582519
0.000402449
0.00030314
-0.00561264
0.00022772
-0.000331456
-0.00554129
-0.000124424
0.000360171
-0.00558117
-0.000267919
0.000623718
-0.00372379
-0.000191963
0.000717471
-0.00277631
-0.000339163
0.000825393
-0.00265237
-0.000397187
0.000752795
-0.00252664
-0.000569988
0.000230126
-0.00538976
0.000702079
0.000336938
-0.00447789
0.00077036
0.00039193
-0.00425265
0.000760982
0.000651617
-0.00487809
0.000355059
0.000509122
-0.0059171
-8.23521e-05
0.000331703
-0.00574598
1.62544e-05
-0.000427529
-0.00587938
4.00155e-05
-1.25886e-05
-0.00590731
-0.000162346
0.000446197
-0.00464453
-0.00027587
0.00059944
-0.00316016
-0.000277707
0.000678957
-0.00241012
-0.000417995
0.000706638
-0.00226606
-0.000524646
0.000474952
-0.00197542
-0.000554181
0.000184315
-0.00452835
0.000528908
0.000245081
-0.00279791
0.000532957
0.000310164
-0.00323134
0.000349383
0.000348395
-0.00449066
9.45298e-05
0.00055442
-0.00550301
-0.000182718
0.000519253
-0.0052595
-0.000269721
-0.000211828
-0.00454857
-9.11439e-05
-0.000234967
-0.00498144
-0.000119753
0.000140664
-0.00497471
-0.00020997
0.000348845
-0.00337275