/*--------------------------------*- C++ -*----------------------------------*\
  =========                 |
  \\      /  F ield         | OpenFOAM: The Open Source CFD Toolbox
   \\    /   O peration     | Website:  https://openfoam.org
    \\  /    A nd           | Version:  7
     \\/     M anipulation  |
\*---------------------------------------------------------------------------*/
FoamFile
{
    version     2.0;
    format      ascii;
    class       volVectorField;
    location    "6.5";
    object      U;
}
// * * * * * * * * * * * * * * * * * * * * * * * * * * * * * * * * * * * * * //

dimensions      [0 1 -1 0 0 0 0];

internalField   nonuniform List<vector> 
18780
(
(0.553104 -0.636223 -0.174078)
(1.32377 -1.37143 0.411678)
(0.566504 -0.694841 0.12774)
(0.538133 -0.481981 -0.480252)
(1.70391 -1.2637 -0.834758)
(1.30715 -1.34632 0.702866)
(1.09457 -1.52332 -0.293558)
(0.564347 -0.734268 0.354043)
(0.547349 -0.542575 -0.392704)
(0.603054 -0.842936 -1.41024)
(1.26351 -1.64445 -0.80651)
(1.73223 -1.30419 -0.541523)
(0.988416 -1.16978 -1.03595)
(1.29995 -1.30605 0.904064)
(1.01169 -1.56034 -0.0945389)
(0.892263 -1.46069 -1.53998)
(0.564204 -0.759089 0.561138)
(0.548168 -0.651257 -0.23407)
(0.592936 -0.878344 -1.31482)
(0.607785 -1.24711 -2.3202)
(1.80582 -2.32943 -0.0881468)
(1.23714 -1.9482 -0.579757)
(1.15954 -1.26105 -0.605924)
(1.61894 -1.46957 -0.204085)
(0.939425 -0.525285 -1.92458)
(0.963187 -0.110171 -1.69203)
(1.28292 -1.30505 1.00713)
(0.897184 -1.40104 -0.286616)
(0.85744 -1.42838 -1.54207)
(1.22534 -0.780205 -2.1713)
(0.562574 -0.768755 0.729431)
(0.528783 -0.713122 -0.126309)
(0.584108 -0.911714 -1.22463)
(0.589731 -1.23989 -2.23766)
(0.578057 -1.1589 -2.38142)
(2.35766 -2.44438 0.958437)
(1.67857 -2.67206 0.0611461)
(1.86914 -1.42579 0.0367919)
(1.2035 -2.19275 0.305291)
(1.16557 -1.75788 -0.586249)
(1.98717 -0.946767 -1.7254)
(1.51518 -1.54548 0.334821)
(0.940397 -0.612488 -2.23038)
(0.970464 -0.352325 -1.59219)
(1.96463 -0.222551 -1.65425)
(1.2359 -1.30427 1.1459)
(0.84588 -1.27753 -0.490691)
(0.660609 -1.62688 -1.42541)
(1.18354 -0.916756 -2.18853)
(1.49199 -0.711026 -1.92916)
(0.559194 -0.770327 0.85597)
(0.508758 -0.758375 -0.0271974)
(0.564486 -0.964493 -1.13259)
(0.569859 -1.21079 -2.16026)
(0.563184 -1.16275 -2.33611)
(0.541456 -1.26005 -2.65018)
(2.57187 -2.21071 1.08871)
(2.28005 -2.59851 1.18747)
(2.32618 -1.57214 0.355052)
(1.62597 -2.7956 0.807911)
(2.00522 -2.24777 0.507986)
(2.4305 -1.29176 0.373489)
(1.21288 -2.23927 1.5404)
(1.2621 -2.0962 -0.390919)
(2.08917 -1.12134 -1.94551)
(2.54185 0.221745 -0.876497)
(1.45625 -1.44192 0.705462)
(0.897832 -1.10015 -2.25438)
(0.919887 -0.992567 -1.71121)
(1.84128 -0.824543 -1.62097)
(2.37011 0.144077 -1.33081)
(1.20028 -1.23775 1.28769)
(0.762707 -1.23784 -0.585924)
(0.691461 -1.39966 -1.66554)
(1.17894 -1.01435 -2.20301)
(1.46202 -0.725111 -1.97541)
(1.56313 -0.660834 -1.96789)
(0.553685 -0.76829 0.946889)
(0.484431 -0.791441 0.0626491)
(0.541567 -0.990785 -1.06305)
(0.560454 -1.17209 -2.08718)
(0.546373 -1.17254 -2.28006)
(0.519691 -1.39418 -2.56274)
(0.767234 -1.33429 -2.67084)
(2.88709 -1.69372 1.46354)
(2.6116 -2.32423 1.16288)
(2.71558 -1.46373 1.12305)
(2.36903 -2.57368 1.40711)
(2.23741 -2.46612 0.609756)
(2.55591 -1.12289 0.566149)
(1.68997 -2.62395 1.78091)
(2.11102 -2.57117 0.975112)
(2.44615 -1.85365 0.737851)
(2.53591 -0.0232861 -0.659903)
(1.27126 -2.15644 2.23733)
(1.18415 -2.3552 0.27428)
(2.13109 -1.79274 -1.24698)
(2.56828 -0.0580517 -0.790141)
(2.99114 0.225767 -0.969731)
(1.40947 -1.17742 1.62558)
(0.799013 -1.13005 -2.17578)
(0.95731 -1.29029 -2.09257)
(1.80367 -0.868757 -1.57291)
(2.3224 -0.39848 -1.52047)
(2.64989 0.0869907 -0.866235)
(1.15068 -1.16259 1.42352)
(0.649358 -1.2259 -0.544625)
(0.660818 -1.2348 -1.99437)
(1.09149 -1.14125 -2.2624)
(1.45279 -0.737007 -2.0395)
(1.50126 -0.75642 -2.05941)
(1.9787 -0.508156 -1.88571)
(0.545201 -0.765091 1.01345)
(0.457752 -0.816913 0.133591)
(0.516334 -0.997819 -1.01991)
(0.54874 -1.14515 -2.01702)
(0.527126 -1.20918 -2.21108)
(0.498946 -1.40179 -2.51262)
(0.7429 -1.38045 -2.65937)
(1.12692 -0.733552 -2.28398)
(3.11375 -0.941162 2.14174)
(2.5883 -2.2459 1.29893)
(2.98964 -1.59232 1.64227)
(2.47723 -2.4935 1.24621)
(2.60458 -1.861 1.14923)
(2.76919 -1.29765 0.46674)
(2.34848 -2.68928 1.44785)
(2.17277 -2.78514 1.14627)
(2.48774 -1.66566 1.3324)
(2.9014 -0.604566 -0.231768)
(1.85719 -2.51337 1.87361)
(2.01797 -2.54654 1.64515)
(2.45637 -2.0447 0.574008)
(2.48357 -0.309355 -0.230776)
(2.87554 0.184275 -1.05666)
(1.27399 -2.08861 2.52403)
(1.07544 -2.57579 1.15148)
(2.0477 -2.44763 -0.38582)
(2.55913 -1.09837 -0.565568)
(3.00736 0.0558837 -0.92197)
(3.22611 0.775158 -0.578294)
(1.48222 -0.976209 1.8032)
(0.675362 -1.49072 -0.86651)
(1.07829 -1.567 -1.98818)
(1.78584 -1.58511 -1.27071)
(2.26251 -0.893951 -1.62866)
(2.68691 -0.0759253 -0.897671)
(2.79585 -0.108543 -0.975382)
(1.09235 -1.07453 1.54647)
(0.544675 -1.28505 -0.231451)
(0.629287 -1.23804 -2.14131)
(1.08243 -1.15395 -2.33471)
(1.43697 -0.804654 -2.15098)
(1.47914 -0.853667 -2.12503)
(1.97915 -0.552878 -1.85227)
(2.37074 -0.148062 -1.24152)
(0.533202 -0.755243 1.06672)
(0.430631 -0.840055 0.190483)
(0.494656 -1.00526 -0.991682)
(0.541807 -1.12544 -1.95113)
(0.498088 -1.24285 -2.14517)
(0.478287 -1.4118 -2.46746)
(0.746589 -1.41784 -2.63954)
(1.10138 -0.793528 -2.3194)
(1.45586 -1.16215 -1.66)
(2.81979 -0.445796 2.56244)
(2.98451 -0.920066 2.30647)
(2.87147 -1.60592 1.93331)
(3.31968 -1.01726 2.1582)
(2.88645 -1.79563 1.24604)
(3.08207 -1.71222 1.57231)
(3.00856 -1.34244 1.3378)
(2.49241 -2.49172 1.11635)
(2.35177 -2.4296 1.07136)
(2.5496 -1.92148 1.22595)
(2.98825 -0.40263 0.493904)
(2.37667 -2.61964 1.50535)
(2.17544 -2.74551 1.48681)
(2.39877 -1.9682 1.39047)
(2.70759 -0.798283 -0.0368379)
(3.194 -0.314298 -0.545552)
(2.1081 -2.39124 1.54385)
(1.94022 -2.46541 2.0333)
(2.26148 -2.44166 0.718897)
(2.42994 -0.538158 -0.0699223)
(2.86662 -0.0110352 -0.621737)
(2.80065 0.111991 -1.56538)
(1.51446 -2.02465 2.1944)
(0.929188 -2.51543 1.32989)
(1.98178 -2.27773 0.0489814)
(2.45323 -1.56111 -0.646493)
(2.94172 -0.50936 -0.831178)
(3.20511 0.595393 -0.294554)
(2.965 0.166991 -0.776361)
(1.56062 -0.786429 1.86453)
(0.623837 -1.53333 0.0175671)
(1.04867 -1.99493 -1.17811)
(1.69537 -1.97199 -1.11506)
(2.24642 -1.01107 -1.60824)
(2.30912 -1.12127 -1.0495)
(2.83949 0.0584858 -0.750457)
(2.64228 -0.174223 -0.756979)
(1.06427 -1.03031 1.62535)
(0.422265 -1.30579 0.135089)
(0.549926 -1.48584 -1.93418)
(1.08474 -1.42907 -2.2693)
(1.41561 -0.917499 -2.37159)
(1.4054 -0.960457 -2.1513)
(1.83785 -0.609897 -1.89375)
(2.36924 -0.168241 -1.22746)
(2.18514 -0.785707 -1.38508)
(0.524146 -0.734682 1.1125)
(0.400551 -0.861448 0.244399)
(0.47223 -1.02519 -0.961091)
(0.544763 -1.10879 -1.88961)
(0.482471 -1.25659 -2.08308)
(0.46807 -1.39602 -2.4531)
(0.683167 -1.60822 -2.54572)
(1.0826 -0.838217 -2.34346)
(1.45151 -1.20889 -1.65413)
(1.29496 -1.56683 -1.19552)
(2.83662 -0.232384 2.62238)
(2.83101 -0.602985 2.52981)
(2.80354 -0.970815 2.71915)
(2.99092 -0.948004 2.29798)
(3.11444 -0.967992 2.19682)
(2.59346 -2.04232 1.87234)
(2.84043 -2.03054 2.10601)
(3.05194 -1.03811 2.22963)
(2.18883 -2.49857 1.42304)
(2.8488 -2.09744 1.45721)
(3.10046 -1.1408 1.42185)
(3.19321 -0.969468 1.4949)
(2.41007 -2.51471 0.969257)
(2.20306 -2.74666 1.04359)
(2.35806 -2.42482 1.1691)
(2.84259 -0.817961 0.762874)
(3.10582 -0.689731 -0.542742)
(2.41362 -2.36859 1.59425)
(2.17046 -2.65145 1.7406)
(2.37021 -2.2537 1.2803)
(2.61709 -1.11941 0.321873)
(3.10231 -0.385675 -0.357314)
(2.79068 0.0927436 -1.32634)
(2.12865 -2.29063 1.63801)
(1.89725 -2.4438 2.04563)
(2.07746 -2.63284 1.12193)
(2.26959 -1.42423 0.506458)
(2.86774 -0.384227 -0.0276575)
(2.91171 0.228055 -1.12589)
(2.45569 -0.559833 -1.01983)
(1.63163 -1.98932 1.8905)
(0.729095 -2.56675 1.88172)
(1.91771 -2.25467 0.256765)
(2.28699 -1.74895 -0.89681)
(2.87399 -0.785339 -0.787709)
(3.09876 0.412781 -0.0997219)
(2.96824 0.184727 -0.728207)
(2.58512 -0.516798 -0.834889)
(1.44596 -1.13945 1.80194)
(0.677028 -1.38375 0.840749)
(1.00059 -2.10032 -0.415686)
(1.70252 -2.2269 -0.745966)
(2.12078 -1.65318 -1.284)
(2.49285 -0.338402 -0.826098)
(2.81577 0.515453 -0.452321)
(2.64456 -0.211566 -0.755011)
(2.05879 -1.41325 -1.21799)
(1.07315 -0.952046 1.74413)
(0.35694 -1.27437 0.355839)
(0.436804 -1.68313 -1.65949)
(0.992738 -1.67533 -2.22212)
(1.43604 -0.998386 -2.66598)
(1.3529 -0.9892 -2.17802)
(1.82055 -0.623618 -1.86394)
(2.35418 -0.190913 -1.23625)
(2.21904 -0.804943 -1.32063)
(1.58412 -1.78998 -1.06459)
(0.522978 -0.710867 1.1536)
(0.372074 -0.875313 0.294717)
(0.449176 -1.04827 -0.928339)
(0.548019 -1.09576 -1.83789)
(0.46376 -1.24447 -2.03601)
(0.444962 -1.38512 -2.44629)
(0.662493 -1.591 -2.54047)
(1.08341 -0.873872 -2.361)
(1.45134 -1.2543 -1.63295)
(1.32038 -1.544 -1.14293)
(0.566201 -1.74159 -1.07568)
(2.77447 -0.342877 2.63337)
(2.82555 -0.682106 2.60824)
(2.68608 -0.832821 2.63206)
(2.85433 -0.53249 2.62037)
(2.83291 -0.435173 2.4664)
(3.07788 -0.420592 2.48999)
(2.561 -1.66715 2.27956)
(2.92321 -1.02506 2.15805)
(3.25683 -0.627235 2.31199)
(2.58913 -1.51055 1.91432)
(3.09471 -1.29806 2.03579)
(3.00404 -1.27669 2.09211)
(3.38524 -0.657047 1.47798)
(2.44439 -2.03725 1.49148)
(2.57932 -2.33747 1.39388)
(2.74289 -1.96684 1.52596)
(3.13807 -1.0852 1.56469)
(3.07772 -0.715531 0.424721)
(2.49962 -2.22851 1.20116)
(2.14333 -2.69967 1.52994)
(2.2905 -2.47694 1.29673)
(2.70469 -1.13478 0.760634)
(2.88925 -0.0218265 -0.117664)
(2.92169 0.046473 -0.853286)
(2.42983 -2.11834 1.70701)
(2.20248 -2.57259 1.80609)
(2.19482 -2.5361 1.2516)
(2.51828 -1.61475 0.847325)
(2.92649 -1.0545 0.277407)
(2.85481 0.134016 -1.13024)
(2.55831 -0.85214 -0.959827)
(2.22573 -2.1941 1.88609)
(1.94412 -2.13243 2.22958)
(2.06009 -2.50757 1.6616)
(2.20397 -1.87564 0.612269)
(2.7766 -0.680026 0.166567)
(2.88767 0.0912805 -0.815102)
(2.6735 -0.468277 -0.848708)
(2.18679 -0.768189 -0.775989)
(1.76975 -2.04964 1.66061)
(0.611668 -2.55123 2.25708)
(1.5705 -2.51227 1.32519)
(2.30031 -1.79645 -0.750016)
(2.75727 -1.72496 -0.587588)
(3.08227 0.0842318 -0.0963948)
(3.11278 0.353459 -0.485119)
(2.63086 -0.376932 -0.70143)
(1.99944 -1.56204 -0.533939)
(1.19264 -1.77 1.69715)
(0.722472 -1.29102 1.60684)
(1.00251 -2.04612 0.100482)
(1.58071 -2.42035 -0.601224)
(1.89761 -2.45061 -0.763291)
(2.23145 -1.30789 -1.28576)
(2.62957 0.346672 -0.435291)
(2.59555 -0.243328 -0.700284)
(2.09108 -1.38494 -1.1284)
(1.45283 -1.42527 -1.34783)
(1.13805 -0.927013 1.78036)
(0.281409 -1.1791 0.899512)
(0.316361 -1.82942 -1.35672)
(0.970572 -1.78345 -2.12737)
(1.47965 -1.17106 -2.80416)
(1.40687 -0.965191 -2.1687)
(1.67882 -0.787781 -1.92632)
(2.34854 -0.215097 -1.23494)
(2.25745 -0.814475 -1.27179)
(1.60651 -1.73317 -1.02555)
(0.980512 -1.78651 -1.11299)
(0.520255 -0.689729 1.18759)
(0.346849 -0.876819 0.349005)
(0.425982 -1.07961 -0.887226)
(0.55834 -1.08032 -1.79347)
(0.471181 -1.19877 -2.01667)
(0.423914 -1.35718 -2.45415)
(0.644716 -1.6439 -2.49271)
(1.0701 -0.890119 -2.38808)
(1.45915 -1.19161 -1.68099)
(1.30056 -1.5137 -1.0709)
(0.579359 -1.73196 -1.05937)
(0.122093 -1.67905 -1.09529)
(2.52093 -0.0172794 2.62748)
(2.53497 -0.304982 2.60685)
(2.72761 -0.492634 2.68522)
(2.71119 -0.393032 2.59951)
(2.80914 -0.792809 2.57117)
(2.66178 -0.477938 2.65354)
(2.87939 -0.933876 2.32465)
(2.46306 -1.95788 2.2204)
(2.50422 -1.11586 2.59936)
(2.96573 -1.25092 2.18476)
(2.97943 -0.781878 2.28657)
(2.54385 -1.30302 2.23298)
(2.89803 -1.55416 2.07072)
(2.88452 -1.10472 2.30482)
(3.2707 -0.876893 1.82231)
(2.33041 -1.89901 1.9587)
(2.56101 -2.01214 2.12854)
(3.02674 -1.41831 1.93374)
(3.16187 -1.18101 1.92613)
(3.15623 -0.800507 1.33484)
(2.21388 -2.10368 1.70245)
(2.25762 -2.42665 1.692)
(2.5218 -2.47668 1.35763)
(3.04491 -1.18319 1.69044)
(2.94369 -0.783627 0.509113)
(3.10011 -0.0920524 -0.239385)
(2.61477 -1.89962 1.73554)
(2.1281 -2.7497 1.46152)
(2.36039 -2.44766 1.34929)
(2.46622 -1.85393 0.880132)
(2.71975 -0.432999 0.0740547)
(2.86335 -0.468162 -0.777456)
(2.53053 -0.815342 -1.02943)
(2.4269 -1.94766 1.86656)
(2.2235 -2.57257 1.80297)
(2.03517 -2.57237 1.55232)
(2.34973 -1.86466 1.02105)
(2.7788 -1.09626 0.012307)
(2.97308 -0.00185855 -0.579722)
(2.66346 -0.722122 -1.05638)
(2.03474 -0.206318 -0.233843)
(2.09194 -2.15368 2.11491)
(2.03535 -2.22855 1.91373)
(1.99278 -2.40777 2.09064)
(2.06642 -2.22493 0.72757)
(2.48434 -1.65709 0.728985)
(2.8296 -0.0742549 -0.496805)
(2.75126 -0.419164 -0.901371)
(2.14793 -0.812762 -1.09941)
(1.91796 -0.939428 -0.51319)
(1.79046 -2.20093 1.50408)
(0.818212 -2.19526 2.46579)
(1.36759 -2.49153 2.08937)
(2.11985 -2.03006 -0.0906021)
(2.7055 -2.11361 -0.446646)
(2.97747 -0.571244 -0.270725)
(3.18018 0.367093 -0.333021)
(2.81351 -0.0811717 -0.347331)
(1.94083 -1.70331 -0.793348)
(1.48584 -1.22481 -0.701325)
(1.04259 -1.97764 1.81229)
(0.671139 -1.3977 1.93768)
(0.948503 -1.96232 0.879248)
(1.55117 -2.47079 -0.268444)
(1.71239 -2.93743 -0.466499)
(2.11018 -1.54484 -1.30091)
(2.45071 -0.378257 -0.781787)
(2.56421 -0.268535 -0.622929)
(2.13948 -1.27861 -1.03662)
(1.34101 -1.76765 -0.989923)
(1.08289 -1.58174 -1.00187)
(1.16004 -0.954747 1.80566)
(0.272722 -1.10115 1.27059)
(0.165488 -1.90966 -0.878297)
(0.884188 -2.02699 -1.92081)
(1.42888 -1.42384 -2.68879)
(1.38626 -1.09528 -2.15422)
(1.68249 -0.726968 -1.87396)
(2.33532 -0.283272 -1.21928)
(2.25662 -0.822505 -1.26603)
(1.62025 -1.66771 -0.95918)
(0.933927 -1.82702 -1.1608)
(0.47355 -1.76642 -1.04223)
(0.512028 -0.664892 1.2168)
(0.323211 -0.868421 0.391217)
(0.398419 -1.11442 -0.831531)
(0.570568 -1.08696 -1.74162)
(0.47723 -1.17378 -1.99004)
(0.422405 -1.36385 -2.45384)
(0.623004 -1.59094 -2.49414)
(1.04055 -0.95067 -2.40559)
(1.45807 -1.20056 -1.68382)
(1.31433 -1.44975 -1.04207)
(0.585461 -1.79849 -1.02386)
(0.142289 -1.63209 -1.02775)
(0.214977 -1.49316 -0.51442)
(2.42889 -0.0032792 2.58911)
(2.44147 -0.10163 2.6525)
(2.51521 -0.184992 2.69624)
(2.50094 -0.361175 2.63433)
(2.55614 -0.396184 2.68647)
(2.66866 -0.56862 2.67508)
(2.68232 -0.431266 2.64919)
(2.49416 -0.384595 2.74331)
(2.51925 -1.11501 2.48588)
(2.68538 -0.771568 2.67292)
(2.75315 -0.550001 2.41376)
(2.73564 -0.853629 2.47386)
(2.6392 -0.757008 2.39402)
(2.522 -1.49598 2.3916)
(2.86249 -0.60123 2.26361)
(2.8188 -1.15152 2.31924)
(2.87455 -1.11419 1.95268)
(2.30839 -1.75202 2.0782)
(2.96938 -1.32371 2.20103)
(2.81541 -1.5 2.0365)
(3.07933 -1.19457 1.93014)
(3.04498 -0.742323 1.72604)
(2.11316 -1.96161 1.99072)
(2.63352 -1.93404 2.01965)
(2.7127 -1.92247 1.93385)
(3.03533 -1.4286 2.23552)
(3.0987 -1.03185 1.20575)
(2.91913 -0.506165 0.525535)
(2.25121 -1.9025 1.95078)
(2.18647 -2.4883 1.67936)
(2.33978 -2.67559 1.55834)
(2.79767 -1.71021 1.5063)
(2.88132 -0.944804 0.521335)
(2.92278 -0.427923 0.167975)
(2.40084 -0.139039 -0.397644)
(2.28588 -1.95246 2.16057)
(2.17742 -2.56933 1.66123)
(2.19618 -2.57344 1.48795)
(2.21742 -2.49109 0.707422)
(2.60843 -0.907992 0.773396)
(2.70278 -1.17526 -0.438161)
(2.64796 -0.614397 -0.926656)
(2.01831 -0.341218 0.0934681)
(2.31896 -1.7417 2.25232)
(2.23832 -2.55054 1.6715)
(2.01194 -2.58771 1.78933)
(2.08437 -2.14552 1.40883)
(2.57132 -1.47258 0.214694)
(2.86102 -0.302131 -0.413594)
(2.70763 -0.377244 -0.908577)
(2.08268 -0.685418 -0.656515)
(1.52289 -1.32549 0.2028)
(2.01385 -1.98797 2.29388)
(1.93312 -2.32177 1.84387)
(1.88575 -2.42731 2.28807)
(1.8301 -2.41449 0.922982)
(2.3291 -1.9981 0.837713)
(2.76165 -0.307289 0.118445)
(2.7984 -0.281098 -0.649557)
(2.3215 -1.05466 -0.866342)
(1.77554 -1.19612 -0.439514)
(1.34372 -1.39353 -0.477368)
(1.85018 -2.0595 1.86894)
(1.22842 -1.76942 2.47857)
(1.29513 -2.22605 2.4244)
(1.86101 -2.12546 0.524531)
(2.4917 -2.23494 -0.215597)
(2.79569 -0.633352 -0.506011)
(3.12904 0.270319 -0.0850243)
(2.81114 -0.529625 -0.400859)
(1.89256 -1.73452 -0.923719)
(1.44638 -1.26389 -0.706092)
(1.2254 -1.43775 -1.10871)
(1.163 -1.87833 2.09404)
(0.569616 -1.48587 2.26346)
(0.869987 -1.90922 1.56287)
(1.45713 -2.49721 0.244403)
(1.7091 -2.86162 -0.395833)
(1.83195 -2.02748 -1.37385)
(2.4639 -0.093954 -0.460352)
(2.57622 -0.31821 -0.48222)
(2.18989 -1.1744 -0.976099)
(1.39263 -1.42381 -1.19437)
(1.08606 -1.60148 -0.925375)
(0.813771 -1.56795 -1.17485)
(1.16038 -0.992969 1.84326)
(0.283819 -1.01535 1.59222)
(0.136694 -1.85143 -0.270053)
(0.61521 -2.36384 -1.52071)
(1.31156 -1.8615 -2.31106)
(1.42676 -1.16246 -2.17585)
(1.58673 -0.801275 -1.97469)
(2.28164 -0.324956 -1.22204)
(2.3075 -0.739331 -1.22547)
(1.63866 -1.58428 -0.883781)
(0.934004 -1.84146 -1.13727)
(0.441404 -1.71276 -1.0268)
(0.558946 -1.50506 -0.812518)
(0.508038 -0.65125 1.23513)
(0.304255 -0.864505 0.407981)
(0.381719 -1.11626 -0.79341)
(0.577545 -1.10069 -1.688)
(0.474656 -1.19047 -1.92761)
(0.384467 -1.37752 -2.41142)
(0.573066 -1.62212 -2.43227)
(1.00114 -1.03044 -2.42582)
(1.43916 -1.26646 -1.65452)
(1.30858 -1.41183 -1.06168)
(0.578227 -1.83355 -1.05387)
(0.154942 -1.58316 -0.95641)
(0.220341 -1.45041 -0.518183)
(0.0556496 -1.44139 -0.805574)
(2.31034 -0.0527763 2.63555)
(2.4269 -0.128304 2.57872)
(2.45606 -0.0303458 2.72505)
(2.41871 -0.266239 2.72391)
(2.54406 -0.502451 2.58274)
(2.39053 -0.216492 2.73384)
(2.48398 -0.555311 2.64909)
(2.54069 -0.443647 2.69051)
(2.50321 -0.558509 2.59302)
(2.55401 -0.856789 2.56259)
(2.63618 -0.750921 2.70795)
(2.40198 -0.760089 2.65514)
(2.66865 -0.48664 2.62184)
(2.47562 -1.05955 2.53973)
(2.44668 -1.28276 2.53199)
(2.58056 -0.745015 2.5983)
(2.70062 -0.862693 2.36877)
(2.75296 -0.88337 2.31903)
(2.33036 -1.47994 2.3217)
(2.25295 -1.67267 2.3659)
(2.59409 -1.29771 2.34351)
(2.86747 -1.07504 2.05196)
(2.89639 -1.12809 1.99278)
(2.49693 -0.673272 1.851)
(2.15329 -1.73844 2.15)
(2.23854 -2.27355 2.21471)
(2.70301 -1.68039 2.07676)
(2.97092 -1.4149 1.91652)
(2.89455 -1.3115 1.62381)
(2.87998 -0.780626 1.00912)
(2.19864 -1.87531 2.13156)
(2.33501 -2.19629 2.09352)
(2.67632 -1.98393 1.9082)
(2.93895 -1.5586 2.17621)
(3.04656 -1.16742 1.26764)
(2.88901 -0.627012 0.735883)
(2.27699 -0.312407 0.627438)
(2.50316 -1.46037 2.54146)
(2.11371 -2.52151 1.84075)
(2.00637 -2.8669 1.70744)
(2.42086 -2.0891 1.48855)
(2.83011 -1.30845 0.770099)
(2.68232 -0.621007 0.286047)
(2.41862 -0.58033 -0.627206)
(1.73898 -0.445366 -0.0335)
(2.36969 -1.60186 2.50399)
(2.27216 -2.39459 1.887)
(2.14171 -2.55036 1.57167)
(2.01977 -2.86219 0.541651)
(2.48348 -1.48476 1.08132)
(2.89274 -0.277853 0.709668)
(2.73694 -0.441788 -0.486448)
(2.06492 -0.579566 0.301184)
(1.57702 -0.690838 -0.126145)
(2.18665 -1.70132 2.60814)
(2.27327 -2.36875 1.81675)
(1.89899 -2.7109 1.92432)
(2.41956 -2.0476 1.44819)
(2.29342 -1.78587 0.669607)
(2.80957 -0.714518 -0.0707913)
(2.73333 0.0782482 -0.663474)
(2.12694 -0.915166 -0.89618)
(1.74706 -0.456715 -0.476537)
(1.46064 -0.872218 -0.495585)
(1.93343 -1.9246 2.42905)
(1.89674 -2.32828 1.91783)
(1.96185 -2.33015 2.37584)
(1.65838 -2.44586 1.30276)
(2.21559 -2.05012 0.705892)
(2.62662 -0.471831 0.291867)
(2.82887 -0.0892901 -0.132294)
(2.42018 -1.04274 -0.750154)
(1.67561 -1.27681 -0.430566)
(1.27614 -1.14729 -0.556871)
(1.37915 -1.24474 -0.954444)
(1.7515 -2.01929 2.2035)
(1.36443 -1.80107 2.22866)
(1.24514 -2.10378 2.56879)
(1.77976 -2.09517 0.783899)
(2.27913 -2.3615 -0.0978124)
(2.6219 -1.02734 -0.566507)
(3.14121 0.206788 0.155136)
(2.81866 -0.586253 -0.411108)
(1.97592 -1.51485 -0.876222)
(1.3127 -1.43571 -0.600698)
(1.13602 -1.51603 -1.01395)
(1.12606 -1.31145 -1.38276)
(1.20561 -1.9065 2.25222)
(0.51939 -1.47003 2.45903)
(0.765746 -1.83548 1.62579)
(1.2811 -2.33478 1.08462)
(1.67332 -2.68589 -0.333576)
(1.73949 -2.1966 -1.46423)
(2.2501 -0.484117 -0.801148)
(2.60537 -0.200992 -0.177632)
(2.24163 -1.07853 -0.951285)
(1.36921 -1.49088 -0.933488)
(1.02869 -1.70194 -0.835783)
(0.829456 -1.49037 -1.18001)
(0.719653 -1.09844 -1.35222)
(1.16511 -1.04623 1.87599)
(0.284312 -0.96094 1.82034)
(0.107987 -1.75982 0.187531)
(0.657883 -2.33221 -1.13156)
(1.25478 -1.95502 -2.23059)
(1.31855 -1.49226 -2.22146)
(1.50746 -0.906018 -2.06384)
(2.2532 -0.391732 -1.18274)
(2.3163 -0.720608 -1.24298)
(1.67705 -1.50615 -0.792288)
(0.917053 -1.88524 -1.09914)
(0.458217 -1.7067 -0.863815)
(0.538263 -1.44403 -0.81566)
(0.308285 -0.867304 -1.37755)
(0.503163 -0.640139 1.25477)
(0.257997 -0.874934 0.443118)
(0.347859 -1.13935 -0.728902)
(0.587906 -1.11103 -1.63124)
(0.457743 -1.21765 -1.85043)
(0.427478 -1.322 -2.37568)
(0.500472 -1.72174 -2.31069)
(0.979239 -1.07344 -2.45123)
(1.46018 -1.20457 -1.68842)
(1.3606 -1.40166 -1.06082)
(0.57625 -1.82698 -1.09688)
(0.168667 -1.54723 -0.892667)
(0.225237 -1.4329 -0.519568)
(0.0605789 -1.35311 -0.847991)
(-1.28353 -0.797228 0.358761)
(2.22035 -0.123496 2.60313)
(2.33531 -0.170048 2.57831)
(2.35756 -0.0424465 2.68689)
(2.38267 -0.302832 2.63141)
(2.50421 -0.223405 2.60151)
(2.36982 -0.0815781 2.80628)
(2.36732 -0.473079 2.77092)
(2.5079 -0.445477 2.65672)
(2.40817 -0.279425 2.76127)
(2.34392 0.360522 2.97609)
(2.45602 -0.747882 2.59279)
(2.42528 -0.747131 2.72422)
(2.44557 -0.631346 2.62841)
(2.2977 -0.46594 2.82145)
(2.47895 -1.0454 2.61434)
(2.53829 -1.05515 2.63235)
(2.53213 -0.816712 2.54586)
(2.38339 -0.855242 2.69703)
(2.43011 -0.915005 2.63944)
(2.40267 -1.40071 2.46074)
(2.21601 -1.32966 2.51039)
(2.5549 -1.04889 2.5267)
(2.6077 -0.988253 2.3406)
(2.49326 -1.17097 2.47345)
(2.55767 -0.499593 2.13883)
(2.11118 -1.69943 2.35846)
(2.36004 -1.36893 2.31211)
(2.50853 -1.40394 2.33586)
(2.50442 -1.38035 2.31231)
(2.88828 -1.24904 1.82055)
(2.51561 -0.895711 1.76786)
(2.17762 -0.387846 1.69055)
(2.08095 -1.91135 2.13)
(2.35167 -1.89826 2.17184)
(2.45189 -2.09888 2.00276)
(2.78063 -1.63402 2.14548)
(2.71418 -1.68429 1.47391)
(2.7833 -0.938559 1.17323)
(2.38249 -0.567416 0.95906)
(2.3217 -1.88553 2.46751)
(2.07916 -2.28628 2.10327)
(2.34472 -2.3911 2.05227)
(2.7116 -1.73136 2.15244)
(2.90223 -1.4432 1.22287)
(2.67269 -0.818519 0.955267)
(2.30099 -0.595013 0.259152)
(1.58126 -0.763107 -0.0278846)
(2.30324 -1.89679 2.73203)
(2.05994 -2.2701 2.25117)
(2.10761 -2.61062 2.03493)
(2.24203 -2.29915 1.4676)
(2.6616 -1.54298 1.32239)
(2.64361 -0.734674 0.743967)
(2.45757 -0.626973 -0.486009)
(2.07338 -0.111184 0.380513)
(1.70169 -0.665014 0.0145172)
(2.27792 -1.85381 2.68632)
(2.14387 -2.127 2.3352)
(1.95683 -2.64005 1.7687)
(2.01936 -2.83002 0.866812)
(2.42874 -1.92354 0.693682)
(2.71754 -0.871879 0.53423)
(2.71263 -0.268743 -0.126714)
(2.09493 -1.25002 -0.572097)
(1.52158 -0.803669 -0.0384658)
(1.34346 -0.923115 -0.627703)
(2.09749 -1.77428 2.73611)
(2.31654 -1.96795 2.37871)
(1.8613 -2.76743 2.05435)
(1.94771 -2.49199 1.74467)
(2.17937 -1.85756 0.833268)
(2.693 -1.13026 0.080975)
(2.67861 -0.151554 -0.453491)
(2.207 -1.06995 -0.731476)
(1.59809 -0.853351 -0.468956)
(1.36556 -1.01912 -0.522343)
(1.3711 -1.1016 -0.830903)
(1.79167 -1.97087 2.59853)
(1.76281 -2.37051 2.07581)
(2.01744 -2.24145 2.39135)
(1.41155 -2.57072 1.50267)
(2.21736 -2.06022 0.736806)
(2.50099 -1.09033 0.678375)
(2.74894 -0.322563 -0.0907779)
(2.59574 -0.950757 -0.562432)
(1.5705 -1.43864 -0.365057)
(1.27061 -1.09224 -0.584661)
(1.22954 -1.39622 -0.901853)
(1.20527 -1.28104 -1.12567)
(1.68711 -2.17992 2.18074)
(1.33267 -1.87288 2.15789)
(1.16627 -2.01643 2.55894)
(1.59683 -2.03356 1.72027)
(2.24741 -2.4865 -0.04348)
(2.27165 -1.84858 -0.536247)
(3.09831 -0.0571956 0.399138)
(2.85659 -0.589869 -0.332876)
(1.98993 -1.27712 -0.821751)
(1.3015 -1.38904 -0.573707)
(1.06653 -1.40482 -1.10914)
(1.05181 -1.33951 -1.3997)
(0.984744 -0.948392 -1.58048)
(1.10735 -2.03227 2.25112)
(0.57387 -1.41471 2.44531)
(0.730265 -1.73123 1.75259)
(1.19393 -2.24783 0.882635)
(1.67971 -2.55629 -0.254258)
(1.6467 -2.34208 -1.41476)
(2.18591 -0.644788 -0.644482)
(2.5301 -0.320891 -0.0341806)
(2.23639 -0.999585 -0.994241)
(1.35441 -1.35874 -0.886827)
(0.988704 -1.79634 -0.742694)
(0.733561 -1.56979 -1.0695)
(0.633758 -1.15777 -1.35229)
(0.429636 -0.499218 -1.77225)
(1.14776 -1.12171 1.90686)
(0.271838 -0.931919 1.95634)
(0.0894903 -1.67626 0.496228)
(0.542255 -2.28424 -0.753933)
(1.08186 -2.27441 -1.99679)
(1.17884 -1.74112 -2.33084)
(1.441 -0.974033 -2.12232)
(2.16749 -0.54671 -1.18671)
(2.32419 -0.726847 -1.23593)
(1.69316 -1.4354 -0.758746)
(0.896644 -1.92619 -1.06022)
(0.461198 -1.6774 -0.808978)
(0.50283 -1.42994 -0.7721)
(0.257463 -0.993962 -1.28992)
(-0.903314 -0.990465 -0.446458)
(0.498452 -0.613576 1.28124)
(0.213292 -0.882013 0.484689)
(0.320202 -1.15043 -0.672343)
(0.59089 -1.12267 -1.5746)
(0.469357 -1.21026 -1.78501)
(0.414214 -1.30628 -2.30226)
(0.538717 -1.57589 -2.31467)
(0.931872 -1.13921 -2.46102)
(1.45692 -1.1817 -1.6961)
(1.3481 -1.36015 -1.07319)
(0.584165 -1.81391 -1.10928)
(0.183035 -1.53832 -0.862132)
(0.232905 -1.44074 -0.513803)
(0.070425 -1.29085 -0.869085)
(-1.27505 -0.755127 0.38226)
(-1.94841 -0.691722 0.359163)
(1.87831 0.10771 2.66774)
(2.11857 -0.177069 2.70366)
(2.16705 -0.0203424 2.69755)
(2.37713 -0.215545 2.56997)
(2.37761 -0.151331 2.61833)
(2.36846 -0.0531698 2.70763)
(2.34363 -0.397093 2.65146)
(2.43604 -0.391611 2.60952)
(2.43147 -0.317525 2.80018)
(2.36628 0.338342 3.00518)
(2.40011 -0.54257 2.69287)
(2.44746 -0.564223 2.74091)
(2.39477 -0.503561 2.72994)
(2.35221 -0.460234 2.87272)
(2.48416 -0.625592 2.99065)
(2.38971 -0.982268 2.59088)
(2.36556 -0.993323 2.67466)
(2.41125 -0.852469 2.66113)
(2.3359 -0.729906 2.59518)
(2.552 -0.868114 2.6321)
(2.37901 -1.36621 2.58227)
(2.33944 -1.17781 2.63355)
(2.50745 -1.05687 2.63425)
(2.41607 -0.813482 2.55669)
(2.34886 -1.20818 2.48188)
(2.31829 -1.11711 2.25872)
(2.28168 -1.56216 2.45302)
(2.29094 -1.43456 2.42034)
(2.31936 -1.14799 2.61529)
(2.30513 -1.25276 2.48908)
(2.43802 -1.31174 2.38909)
(2.46359 -0.853713 2.09294)
(1.91182 -0.590221 1.50836)
(2.07163 -1.71699 2.29068)
(2.09442 -1.8144 2.31426)
(2.2595 -1.526 2.36771)
(2.42746 -1.43896 2.36008)
(2.77806 -1.38119 1.81972)
(2.57429 -0.976165 1.71819)
(2.13785 -0.604661 1.62918)
(2.22629 -0.811759 1.23471)
(1.9513 -2.10412 2.19718)
(2.11964 -2.04556 2.15935)
(2.41865 -2.05499 1.98538)
(2.64138 -1.72737 2.23081)
(2.64874 -1.67865 1.56257)
(2.61002 -1.16461 1.30042)
(2.48519 -0.814111 0.504105)
(1.86016 -0.608738 0.770915)
(2.2416 -2.10482 2.5417)
(2.06849 -2.2051 2.21949)
(2.06496 -2.59434 2.16485)
(2.27715 -2.19218 2.08054)
(2.83174 -1.51013 1.29721)
(2.59803 -0.905798 1.05265)
(2.25746 -0.867341 -0.255754)
(1.89159 -0.374007 0.466219)
(1.85439 -0.895084 0.0601413)
(2.38087 -1.98742 2.74476)
(2.12954 -2.04729 2.58985)
(2.10874 -2.52871 2.16184)
(1.93035 -2.60702 1.72638)
(2.41377 -1.74299 1.68598)
(2.56146 -0.964139 0.979028)
(2.55267 -0.5998 -0.0650968)
(1.91389 -0.988196 -0.0659704)
(1.24698 -1.34631 0.261223)
(1.30298 -0.998536 -0.556692)
(2.31156 -1.9843 2.81363)
(2.07628 -2.05261 2.57543)
(1.85459 -2.65339 1.93781)
(1.88467 -2.69231 1.52651)
(2.2937 -2.07509 0.713839)
(2.69266 -1.11423 0.876345)
(2.62169 -0.450864 0.497446)
(2.25144 -1.16146 -0.7174)
(1.5376 -0.924734 -0.00997537)
(1.34854 -0.982556 -0.445819)
(0.909048 -1.20273 -1.18311)
(1.89416 -2.08461 2.77011)
(2.29633 -1.82897 2.61679)
(2.0271 -2.65906 2.20032)
(2.19791 -2.2844 1.74381)
(1.90724 -2.16261 1.27385)
(2.49336 -1.90976 0.543904)
(2.68711 -0.302463 -0.0357507)
(2.19156 -1.29568 -0.6197)
(1.60377 -0.983407 -0.637561)
(1.10654 -1.2602 -0.553392)
(1.21735 -1.13406 -0.981833)
(1.36574 -1.11196 -1.03042)
(1.66468 -2.11579 2.59265)
(1.79624 -2.31795 2.18145)
(2.06597 -2.15343 2.35008)
(1.15217 -2.64165 1.66856)
(2.16639 -2.10206 0.917537)
(2.27595 -1.85903 1.12607)
(2.76067 -0.463283 0.456145)
(2.54655 -0.985299 -0.40496)
(1.68181 -1.20238 -0.705659)
(1.20237 -1.23826 -0.549952)
(1.18811 -1.37568 -0.976053)
(1.23648 -1.3473 -0.908304)
(1.01012 -0.916469 -1.67183)
(1.54631 -2.27512 2.24004)
(1.22444 -2.03203 2.09834)
(1.15802 -1.91535 2.4305)
(1.56506 -1.88589 2.15277)
(1.43328 -2.91506 0.617686)
(1.84274 -2.68171 -0.442615)
(2.9131 -0.565208 0.609261)
(2.92146 -0.468168 -0.0952389)
(2.089 -1.07155 -0.614276)
(1.41234 -1.13095 -0.824232)
(0.948209 -1.43215 -1.10381)
(0.958479 -1.34796 -1.36241)
(0.9389 -0.963982 -1.62822)
(0.720113 -0.456728 -2.11923)
(0.998431 -2.20271 2.13706)
(0.599694 -1.39429 2.36545)
(0.740826 -1.52297 2.08608)
(1.17606 -2.16163 1.30938)
(1.50463 -2.55485 0.00027708)
(1.63378 -2.42716 -1.28587)
(1.91703 -1.23136 -0.969042)
(2.47544 -0.27589 -0.0947976)
(2.24095 -0.958894 -0.992398)
(1.36623 -1.31916 -0.798024)
(0.967885 -1.80186 -0.727268)
(0.675434 -1.63131 -0.969389)
(0.654905 -1.22193 -1.30242)
(0.401689 -0.528754 -1.78124)
(-0.391661 -0.231607 -1.29233)
(1.13797 -1.17531 1.9297)
(0.27099 -0.90194 2.04767)
(0.0834809 -1.55357 0.905451)
(0.546411 -2.18948 -0.292275)
(0.92851 -2.34041 -1.86616)
(1.1176 -1.87694 -2.34519)
(1.4363 -1.05395 -2.15281)
(2.11676 -0.506432 -1.12515)
(2.32691 -0.719736 -1.22316)
(1.74391 -1.36481 -0.684021)
(0.880871 -1.96519 -0.936473)
(0.480128 -1.67684 -0.854754)
(0.482519 -1.44874 -0.720302)
(0.232644 -0.912715 -1.29751)
(-0.883791 -0.980964 -0.6312)
(-1.42554 -0.759665 0.0201354)
(0.504973 -0.59813 1.29494)
(0.188023 -0.871611 0.507226)
(0.298477 -1.14765 -0.631188)
(0.591322 -1.12994 -1.51973)
(0.478448 -1.21767 -1.71686)
(0.407641 -1.30895 -2.20843)
(0.572312 -1.50062 -2.28094)
(0.86407 -1.2188 -2.45412)
(1.4471 -1.19031 -1.69422)
(1.31892 -1.33893 -1.04072)
(0.607861 -1.77216 -1.12245)
(0.200015 -1.56529 -0.872218)
(0.225654 -1.44153 -0.504859)
(0.0690931 -1.29254 -0.858478)
(-1.26487 -0.759554 0.313701)
(-1.91489 -0.688713 0.346534)
(-1.75309 -0.648512 0.0213221)
(1.83918 -0.0179614 2.41268)
(1.95295 -0.0298295 2.54187)
(1.89364 0.146993 2.70203)
(2.1481 -0.401896 2.70452)
(2.0972 -0.0305668 2.73149)
(2.17837 0.103016 2.7737)
(2.38182 -0.407349 2.57192)
(2.36749 -0.321403 2.56213)
(2.33171 -0.0981996 2.79476)
(2.23106 0.106066 2.84627)
(2.30413 -0.688865 2.6494)
(2.46487 -0.609686 2.60799)
(2.36128 -0.551761 2.73949)
(2.50111 -0.0204819 2.93711)
(2.35789 -0.658665 3.10533)
(2.38158 -0.826786 2.6229)
(2.31507 -0.895356 2.73224)
(2.40549 -0.877621 2.69113)
(2.25921 -0.537448 2.84942)
(2.38991 -0.804898 2.92606)
(2.39433 -1.01892 2.80878)
(2.30787 -1.21523 2.60193)