/*--------------------------------*- C++ -*----------------------------------*\
  =========                 |
  \\      /  F ield         | OpenFOAM: The Open Source CFD Toolbox
   \\    /   O peration     | Website:  https://openfoam.org
    \\  /    A nd           | Version:  7
     \\/     M anipulation  |
\*---------------------------------------------------------------------------*/
FoamFile
{
    version     2.0;
    format      ascii;
    class       volVectorField;
    location    "6.5";
    object      U_0;
}
// * * * * * * * * * * * * * * * * * * * * * * * * * * * * * * * * * * * * * //

dimensions      [0 1 -1 0 0 0 0];

internalField   nonuniform List<vector> 
18780
(
(0.551255 -0.640568 -0.205825)
(1.3199 -1.38592 0.365037)
(0.564519 -0.697779 0.0879347)
(0.537372 -0.478391 -0.500732)
(1.69727 -1.2679 -0.869575)
(1.30272 -1.36503 0.657373)
(1.08902 -1.53141 -0.297153)
(0.563338 -0.740027 0.321351)
(0.547801 -0.540079 -0.412933)
(0.604707 -0.839612 -1.41869)
(1.2547 -1.63879 -0.823539)
(1.72817 -1.30147 -0.5867)
(0.984328 -1.19313 -1.01074)
(1.29514 -1.3234 0.873046)
(1.01666 -1.57049 -0.112419)
(0.891381 -1.46555 -1.53826)
(0.562819 -0.766863 0.532102)
(0.548145 -0.651932 -0.252226)
(0.59411 -0.875054 -1.32429)
(0.607764 -1.24339 -2.32744)
(1.80844 -2.32253 -0.0818681)
(1.22914 -1.95278 -0.606317)
(1.16028 -1.23325 -0.607488)
(1.61937 -1.47409 -0.25152)
(0.938588 -0.531496 -1.91039)
(0.96645 -0.0916031 -1.70232)
(1.28096 -1.32093 0.977949)
(0.895278 -1.41946 -0.276958)
(0.872698 -1.40958 -1.55096)
(1.2324 -0.758109 -2.16567)
(0.561314 -0.77754 0.705261)
(0.529486 -0.713326 -0.148959)
(0.585709 -0.907634 -1.23527)
(0.589297 -1.23887 -2.2468)
(0.578183 -1.15456 -2.38383)
(2.35845 -2.43541 0.960147)
(1.67906 -2.67378 0.041347)
(1.8626 -1.36714 0.0013643)
(1.19612 -2.19916 0.212121)
(1.15765 -1.75417 -0.575598)
(1.97969 -0.941516 -1.69787)
(1.51313 -1.56714 0.2965)
(0.942451 -0.593028 -2.22828)
(0.971763 -0.323237 -1.59584)
(1.97628 -0.158378 -1.6572)
(1.23332 -1.32454 1.11901)
(0.845913 -1.28848 -0.492048)
(0.653954 -1.64183 -1.41423)
(1.18606 -0.906023 -2.18582)
(1.50318 -0.703692 -1.91912)
(0.558144 -0.779477 0.835779)
(0.510064 -0.760605 -0.0503447)
(0.566578 -0.961632 -1.14329)
(0.568878 -1.21275 -2.16987)
(0.562888 -1.15906 -2.34031)
(0.541731 -1.24097 -2.65234)
(2.56687 -2.20546 1.0888)
(2.28032 -2.59655 1.1766)
(2.32327 -1.52087 0.341507)
(1.62201 -2.81051 0.74211)
(1.99214 -2.22745 0.482648)
(2.4299 -1.23196 0.346605)
(1.19837 -2.26411 1.4827)
(1.25567 -2.09382 -0.403671)
(2.08035 -1.08733 -1.97557)
(2.5362 0.248175 -0.887906)
(1.45497 -1.47189 0.651933)
(0.897124 -1.08858 -2.27291)
(0.919345 -0.952426 -1.7001)
(1.84735 -0.824407 -1.62091)
(2.37747 0.160694 -1.31747)
(1.19806 -1.2608 1.26616)
(0.767638 -1.24612 -0.594047)
(0.692418 -1.42809 -1.6285)
(1.18449 -1.00313 -2.19715)
(1.47108 -0.722929 -1.96468)
(1.56986 -0.659317 -1.95283)
(0.552903 -0.777624 0.930062)
(0.485632 -0.79482 0.0410357)
(0.544029 -0.990793 -1.07217)
(0.559475 -1.17438 -2.0976)
(0.546518 -1.16343 -2.28805)
(0.519945 -1.38273 -2.56529)
(0.768164 -1.32701 -2.66673)
(2.89067 -1.69382 1.46652)
(2.60529 -2.32526 1.15533)
(2.71592 -1.4607 1.11443)
(2.36332 -2.57687 1.40109)
(2.238 -2.4281 0.591652)
(2.55282 -1.07792 0.471602)
(1.67811 -2.64695 1.74081)
(2.10263 -2.57969 0.942992)
(2.43851 -1.84342 0.743902)
(2.53247 -0.0170925 -0.698108)
(1.25549 -2.18303 2.20819)
(1.18973 -2.35591 0.232073)
(2.13037 -1.76722 -1.28935)
(2.56719 -0.0168982 -0.792023)
(2.98547 0.225185 -0.967319)
(1.40397 -1.21093 1.58938)
(0.80651 -1.1169 -2.24073)
(0.950469 -1.27004 -2.08956)
(1.80636 -0.832476 -1.58534)
(2.33262 -0.316588 -1.49043)
(2.66484 0.101357 -0.85309)
(1.14935 -1.18228 1.40823)
(0.654218 -1.22921 -0.575539)
(0.661356 -1.23979 -1.97712)
(1.09289 -1.13679 -2.25388)
(1.45892 -0.732698 -2.02386)
(1.51263 -0.742247 -2.03866)
(1.97827 -0.514667 -1.88245)
(0.544432 -0.775082 0.998747)
(0.458656 -0.820859 0.114618)
(0.518476 -0.999378 -1.02701)
(0.547637 -1.14611 -2.02851)
(0.528439 -1.19672 -2.22135)
(0.498994 -1.39634 -2.51268)
(0.741743 -1.38029 -2.65474)
(1.1365 -0.713413 -2.2709)
(3.12589 -0.923562 2.15484)
(2.5957 -2.23657 1.31484)
(2.99125 -1.57786 1.64471)
(2.47497 -2.4972 1.24211)
(2.61078 -1.83945 1.15196)
(2.76963 -1.2674 0.446198)
(2.34222 -2.69581 1.43939)
(2.161 -2.79014 1.11501)
(2.48605 -1.65077 1.31354)
(2.90488 -0.596262 -0.25852)
(1.83849 -2.53169 1.88445)
(2.01812 -2.56762 1.60324)
(2.45508 -2.03184 0.589838)
(2.48249 -0.293993 -0.252621)
(2.87385 0.193856 -1.08372)
(1.25323 -2.1136 2.52205)
(1.0835 -2.5921 1.12807)
(2.04136 -2.46861 -0.398007)
(2.56104 -1.02373 -0.560208)
(3.00443 0.0926449 -0.928438)
(3.22651 0.768004 -0.586374)
(1.47672 -1.00644 1.79114)
(0.675867 -1.49161 -0.938068)
(1.07841 -1.5429 -2.03207)
(1.78956 -1.53006 -1.2936)
(2.26536 -0.867697 -1.62113)
(2.70454 -0.0520427 -0.887378)
(2.80508 -0.139067 -0.976985)
(1.09246 -1.08954 1.53265)
(0.549442 -1.28936 -0.271939)
(0.633735 -1.23705 -2.13662)
(1.07905 -1.13552 -2.3358)
(1.44442 -0.790505 -2.12121)
(1.49007 -0.839494 -2.1108)
(1.98872 -0.54673 -1.84718)
(2.371 -0.150834 -1.23057)
(0.532069 -0.767221 1.05285)
(0.431856 -0.843975 0.172603)
(0.496643 -1.006 -0.99816)
(0.539669 -1.12644 -1.96313)
(0.497733 -1.23183 -2.15697)
(0.477224 -1.40809 -2.46487)
(0.743122 -1.4068 -2.64155)
(1.11192 -0.781606 -2.30734)
(1.45435 -1.14871 -1.65563)
(2.82039 -0.446054 2.56449)
(2.98728 -0.928401 2.30682)
(2.88341 -1.58717 1.94779)
(3.33778 -0.97784 2.16267)
(2.87637 -1.81473 1.24763)
(3.08065 -1.71634 1.58402)
(3.01412 -1.3312 1.34269)
(2.48522 -2.50129 1.12413)
(2.36091 -2.40731 1.0721)
(2.5573 -1.89323 1.20812)
(2.99395 -0.384374 0.489377)
(2.36667 -2.64495 1.48786)
(2.16237 -2.7611 1.45805)
(2.39308 -1.95755 1.39775)
(2.70764 -0.804164 -0.0388141)
(3.19483 -0.30818 -0.565837)
(2.09637 -2.41514 1.54516)
(1.93869 -2.47989 2.01599)
(2.26553 -2.42649 0.699971)
(2.42855 -0.511574 -0.0872255)
(2.86301 0.00155476 -0.662394)
(2.78882 0.091339 -1.59454)
(1.49031 -2.04967 2.21991)
(0.936763 -2.52983 1.30633)
(1.98032 -2.31038 0.0308455)
(2.45872 -1.54366 -0.608354)
(2.94656 -0.461373 -0.833454)
(3.20718 0.606664 -0.325326)
(2.96203 0.136534 -0.786336)
(1.56177 -0.802789 1.85706)
(0.617733 -1.54825 -0.000671445)
(1.04691 -1.97449 -1.25713)
(1.69219 -1.94841 -1.14277)
(2.24339 -1.01352 -1.60897)
(2.32128 -1.1244 -1.05378)
(2.8414 0.0225573 -0.763856)
(2.63977 -0.183147 -0.7504)
(1.06327 -1.04814 1.60343)
(0.426174 -1.31665 0.100615)
(0.561492 -1.45717 -1.97049)
(1.09297 -1.38981 -2.2752)
(1.42203 -0.904176 -2.31846)
(1.41303 -0.955405 -2.14055)
(1.84222 -0.614104 -1.89169)
(2.3705 -0.166975 -1.21805)
(2.17935 -0.796035 -1.38118)
(0.522008 -0.748772 1.09921)
(0.401685 -0.866148 0.227562)
(0.474335 -1.02461 -0.968122)
(0.541597 -1.11032 -1.90085)
(0.482089 -1.24991 -2.09538)
(0.465681 -1.3935 -2.44786)
(0.687159 -1.57785 -2.55765)
(1.09017 -0.830326 -2.33338)
(1.44997 -1.18817 -1.65936)
(1.2926 -1.57525 -1.19739)
(2.83667 -0.233801 2.62365)
(2.83191 -0.606085 2.52783)
(2.80792 -0.962681 2.72059)
(3.00008 -0.937758 2.30046)
(3.12028 -0.964104 2.19787)
(2.59362 -2.0496 1.88542)
(2.83067 -2.05498 2.11333)
(3.05948 -1.02393 2.23407)
(2.21138 -2.48099 1.41688)
(2.86742 -2.07365 1.47528)
(3.10666 -1.12964 1.4193)
(3.19846 -0.96187 1.48798)
(2.40101 -2.53955 0.961093)
(2.19946 -2.75144 1.01889)
(2.35806 -2.41821 1.16898)
(2.84961 -0.80562 0.772549)
(3.11464 -0.676539 -0.538188)
(2.40256 -2.40197 1.58301)
(2.15546 -2.67088 1.72457)
(2.37014 -2.24312 1.28897)
(2.62495 -1.08623 0.277801)
(3.10238 -0.3851 -0.367207)
(2.78943 0.0854754 -1.33165)
(2.11865 -2.3099 1.62194)
(1.89216 -2.46707 2.03677)
(2.07129 -2.64425 1.08499)
(2.27198 -1.37869 0.492049)
(2.86972 -0.357135 -0.0603714)
(2.904 0.218078 -1.16011)
(2.43344 -0.568681 -1.04099)
(1.60402 -2.00107 1.92038)
(0.732362 -2.57961 1.84975)
(1.92487 -2.25899 0.224973)
(2.28147 -1.75192 -0.881528)
(2.8711 -0.741771 -0.791639)
(3.10362 0.428539 -0.102374)
(2.96216 0.160182 -0.73664)
(2.57008 -0.544576 -0.849462)
(1.47705 -1.08163 1.80907)
(0.665456 -1.41432 0.753745)
(0.996612 -2.10993 -0.463048)
(1.70568 -2.20293 -0.767572)
(2.14306 -1.52726 -1.35494)
(2.5096 -0.280488 -0.78186)
(2.82965 0.45147 -0.490471)
(2.64505 -0.220794 -0.751331)
(2.04916 -1.4234 -1.21488)
(1.06173 -0.967829 1.73205)
(0.357349 -1.28867 0.320804)
(0.445603 -1.66799 -1.69508)
(0.992791 -1.66514 -2.22469)
(1.43185 -0.990469 -2.60903)
(1.35494 -0.992476 -2.17064)
(1.83598 -0.608281 -1.85388)
(2.35537 -0.191359 -1.22712)
(2.20666 -0.809389 -1.33069)
(1.57425 -1.79299 -1.07078)
(0.520273 -0.725158 1.14152)
(0.372567 -0.881583 0.277648)
(0.450903 -1.04753 -0.935591)
(0.544321 -1.0985 -1.84778)
(0.459952 -1.24749 -2.04319)
(0.443028 -1.38528 -2.43846)
(0.658821 -1.58783 -2.54128)
(1.09142 -0.874977 -2.34956)
(1.44711 -1.25765 -1.62709)
(1.3072 -1.56163 -1.16643)
(0.568829 -1.7439 -1.07245)
(2.77582 -0.344071 2.63025)
(2.82393 -0.682255 2.6107)
(2.68864 -0.837852 2.62849)
(2.85302 -0.530602 2.62377)
(2.83693 -0.432989 2.46661)
(3.07996 -0.409914 2.49046)
(2.57455 -1.66504 2.27685)
(2.92393 -1.01287 2.16454)
(3.26503 -0.620383 2.30898)
(2.59648 -1.51642 1.91299)
(3.10147 -1.29974 2.03744)
(3.00242 -1.27322 2.10283)
(3.39234 -0.653079 1.4622)
(2.4431 -2.0572 1.48161)
(2.59093 -2.33352 1.39541)
(2.75876 -1.92663 1.53494)
(3.14434 -1.08972 1.56321)
(3.08571 -0.708372 0.428763)
(2.48631 -2.26138 1.17454)
(2.13425 -2.7074 1.52044)
(2.28088 -2.4863 1.29162)
(2.71166 -1.12048 0.763744)
(2.89544 -0.0321799 -0.133471)
(2.91991 0.0746297 -0.84988)
(2.42415 -2.14987 1.68922)
(2.19019 -2.58306 1.80022)
(2.19715 -2.53459 1.24317)
(2.51795 -1.60158 0.829334)
(2.93746 -1.02313 0.256748)
(2.8464 0.125202 -1.14286)
(2.54147 -0.863316 -0.9478)
(2.22773 -2.21048 1.8575)
(1.93169 -2.15385 2.23575)
(2.04956 -2.53313 1.6187)
(2.20304 -1.85191 0.621961)
(2.7816 -0.640168 0.1446)
(2.8881 0.0933076 -0.839779)
(2.65692 -0.483638 -0.85045)
(2.17634 -0.755553 -0.779875)
(1.75722 -2.06211 1.6687)
(0.607832 -2.57048 2.2433)
(1.59279 -2.51057 1.23139)
(2.29619 -1.79067 -0.787873)
(2.75731 -1.64814 -0.60305)
(3.08529 0.110525 -0.084124)
(3.09785 0.327361 -0.507765)
(2.61404 -0.407152 -0.722752)
(1.99627 -1.54644 -0.51379)
(1.21837 -1.73929 1.69114)
(0.719064 -1.30187 1.57674)
(0.996047 -2.05815 0.101548)
(1.57701 -2.41952 -0.607092)
(1.92345 -2.34057 -0.830212)
(2.24586 -1.26615 -1.25179)
(2.65222 0.404037 -0.400026)
(2.60082 -0.244351 -0.702413)
(2.07933 -1.39817 -1.13601)
(1.44602 -1.42081 -1.35063)
(1.12835 -0.937097 1.7753)
(0.280211 -1.19751 0.854738)
(0.331446 -1.81883 -1.38841)
(0.971863 -1.77018 -2.13942)
(1.48168 -1.13705 -2.78566)
(1.40125 -0.967239 -2.16767)
(1.6825 -0.794886 -1.92602)
(2.34925 -0.2123 -1.22897)
(2.25249 -0.815364 -1.26895)
(1.59434 -1.74358 -1.03246)
(0.976201 -1.78526 -1.10287)
(0.517919 -0.703328 1.17697)
(0.346377 -0.885264 0.333847)
(0.42779 -1.07766 -0.896381)
(0.554764 -1.08143 -1.80378)
(0.464892 -1.2034 -2.02036)
(0.423982 -1.35629 -2.44684)
(0.641239 -1.64566 -2.49313)
(1.07924 -0.888654 -2.37737)
(1.45251 -1.20976 -1.66728)
(1.29178 -1.54322 -1.09134)
(0.58163 -1.72561 -1.05857)
(0.11712 -1.67832 -1.0988)
(2.52353 -0.0163057 2.627)
(2.53449 -0.306751 2.60639)
(2.72599 -0.495391 2.6852)
(2.70688 -0.393589 2.60157)
(2.80969 -0.784556 2.57506)
(2.66171 -0.475537 2.65227)
(2.88064 -0.921369 2.32567)
(2.46599 -1.95424 2.22806)
(2.5102 -1.09936 2.60296)
(2.96381 -1.26055 2.18941)
(2.98421 -0.775019 2.28562)
(2.54792 -1.30257 2.23824)
(2.89275 -1.5595 2.07096)
(2.88957 -1.0933 2.31406)
(3.26686 -0.885173 1.81872)
(2.33824 -1.90396 1.95746)
(2.57671 -1.9982 2.13643)
(3.02851 -1.41128 1.94239)
(3.17268 -1.16631 1.89828)
(3.16141 -0.785568 1.33428)
(2.20919 -2.123 1.69948)
(2.26589 -2.43029 1.68424)
(2.53144 -2.45643 1.36261)
(3.04881 -1.18055 1.70454)
(2.94709 -0.783419 0.510516)
(3.09715 -0.0923978 -0.245592)
(2.61041 -1.92667 1.70743)
(2.11098 -2.77498 1.44725)
(2.35943 -2.45413 1.34117)
(2.47801 -1.81187 0.884876)
(2.72057 -0.424928 0.0623588)
(2.86389 -0.432613 -0.787498)
(2.52129 -0.82594 -1.02628)
(2.42388 -1.96421 1.8576)
(2.21082 -2.58614 1.80376)
(2.03189 -2.58048 1.52614)
(2.3525 -1.85367 1.00171)
(2.78346 -1.08613 0.0175714)
(2.96526 0.0092559 -0.612191)
(2.65306 -0.742094 -1.06021)
(2.02764 -0.199837 -0.219496)
(2.09458 -2.17703 2.09374)
(2.03379 -2.23208 1.92896)
(1.99009 -2.42459 2.06081)
(2.0651 -2.21888 0.727332)
(2.49481 -1.60268 0.710254)
(2.82878 -0.0694446 -0.533242)
(2.74 -0.434057 -0.903803)
(2.13488 -0.80541 -1.09517)
(1.9132 -0.938412 -0.507422)
(1.78211 -2.20654 1.50412)
(0.782538 -2.24596 2.45241)
(1.36391 -2.51396 2.05968)
(2.12961 -2.01932 -0.155919)
(2.70512 -2.10457 -0.456231)
(2.99246 -0.530226 -0.231703)
(3.17726 0.361504 -0.350313)
(2.80262 -0.0767577 -0.358424)
(1.93921 -1.69814 -0.767903)
(1.47978 -1.23301 -0.692318)
(1.03989 -1.98602 1.78736)
(0.672713 -1.39895 1.91234)
(0.948809 -1.98461 0.756634)
(1.54756 -2.47437 -0.317752)
(1.70306 -2.9269 -0.475153)
(2.13344 -1.49761 -1.28335)
(2.46238 -0.374218 -0.781612)
(2.56605 -0.270121 -0.628799)
(2.12449 -1.30554 -1.04223)
(1.33863 -1.7569 -1.00628)
(1.07492 -1.57954 -1.00868)
(1.15588 -0.959468 1.80105)
(0.266704 -1.11936 1.24031)
(0.166436 -1.9136 -0.945266)
(0.889077 -2.00392 -1.94621)
(1.43723 -1.38805 -2.70875)
(1.38317 -1.08793 -2.15196)
(1.68371 -0.735871 -1.8724)
(2.33929 -0.271187 -1.21657)
(2.24981 -0.828677 -1.26301)
(1.60853 -1.68083 -0.970923)
(0.92887 -1.82684 -1.15751)
(0.471065 -1.76691 -1.04348)
(0.510813 -0.677374 1.2078)
(0.322766 -0.878217 0.380393)
(0.399253 -1.11539 -0.839934)
(0.566498 -1.0866 -1.75211)
(0.471916 -1.1736 -1.99907)
(0.428527 -1.35622 -2.45136)
(0.620778 -1.59663 -2.49712)
(1.05327 -0.934216 -2.39561)
(1.45706 -1.1852 -1.69015)
(1.31035 -1.48788 -1.03781)
(0.586291 -1.78875 -1.01972)
(0.137919 -1.63205 -1.03008)
(0.210259 -1.49407 -0.519993)
(2.42966 -0.000596038 2.58849)
(2.44283 -0.101422 2.65011)
(2.5139 -0.183245 2.69837)
(2.49903 -0.361742 2.63434)
(2.55548 -0.398553 2.6868)
(2.66885 -0.568443 2.67743)
(2.68173 -0.42809 2.64639)
(2.49292 -0.374179 2.74651)
(2.52085 -1.11639 2.48657)
(2.68657 -0.763799 2.677)
(2.75467 -0.560534 2.40873)
(2.73565 -0.846781 2.47916)
(2.64229 -0.764274 2.39307)
(2.52439 -1.48876 2.39794)
(2.87476 -0.59274 2.25548)
(2.80855 -1.16167 2.33121)
(2.86755 -1.11012 1.95764)
(2.3156 -1.7547 2.0788)
(2.96729 -1.33475 2.19797)
(2.8144 -1.49594 2.04379)
(3.08786 -1.18351 1.91954)
(3.0396 -0.750802 1.72345)
(2.11339 -1.96961 1.99295)
(2.64505 -1.93143 2.0232)
(2.72408 -1.91077 1.93784)
(3.03431 -1.434 2.23261)
(3.098 -1.03267 1.20841)
(2.91119 -0.503991 0.518413)
(2.23486 -1.94518 1.91712)
(2.18325 -2.49827 1.67688)
(2.34181 -2.67864 1.55134)
(2.81597 -1.68436 1.52189)
(2.87956 -0.946661 0.517787)
(2.93082 -0.418753 0.153834)
(2.39669 -0.131574 -0.384245)
(2.28968 -1.97897 2.1269)
(2.16291 -2.59137 1.64734)
(2.19374 -2.58603 1.47725)
(2.22122 -2.46523 0.724642)
(2.61562 -0.871734 0.738847)
(2.68696 -1.21528 -0.495017)
(2.63946 -0.626173 -0.9335)
(2.00589 -0.34334 0.0913563)
(2.32308 -1.77781 2.20354)
(2.21805 -2.57878 1.66445)
(2.00573 -2.59218 1.768)
(2.0686 -2.15113 1.39116)
(2.58271 -1.45348 0.190576)
(2.86257 -0.281499 -0.434865)
(2.69982 -0.413456 -0.919094)
(2.07579 -0.673787 -0.631942)
(1.51938 -1.33176 0.198544)
(2.01546 -2.00767 2.28209)
(1.93279 -2.32955 1.8401)
(1.87315 -2.44724 2.27328)
(1.83554 -2.41646 0.904085)
(2.32688 -1.99392 0.858918)
(2.76841 -0.296844 0.0810183)
(2.78492 -0.309531 -0.682868)
(2.30421 -1.05438 -0.877818)
(1.77826 -1.17995 -0.441954)
(1.34103 -1.39981 -0.476074)
(1.8481 -2.08031 1.82575)
(1.1978 -1.79468 2.49852)
(1.29567 -2.26221 2.39375)
(1.8687 -2.13348 0.472768)
(2.51571 -2.22125 -0.231841)
(2.81435 -0.609365 -0.484164)
(3.12724 0.263991 -0.116156)
(2.80704 -0.512639 -0.392453)
(1.88307 -1.74586 -0.919155)
(1.44061 -1.26405 -0.701988)
(1.22514 -1.43513 -1.11034)
(1.14908 -1.89696 2.06635)
(0.571993 -1.49338 2.23885)
(0.871236 -1.92343 1.55076)
(1.44743 -2.50571 0.222438)
(1.6919 -2.89093 -0.401726)
(1.84769 -2.00325 -1.35089)
(2.47347 -0.102503 -0.452314)
(2.57356 -0.329771 -0.499216)
(2.17793 -1.19517 -0.975449)
(1.38522 -1.43516 -1.19616)
(1.07941 -1.60038 -0.925413)
(0.809965 -1.57093 -1.1771)
(1.15776 -0.995183 1.83862)
(0.276007 -1.03574 1.56224)
(0.131827 -1.86548 -0.324992)
(0.632124 -2.32818 -1.61693)
(1.31941 -1.82708 -2.34469)
(1.42647 -1.13745 -2.16725)
(1.60053 -0.789928 -1.95374)
(2.2874 -0.319094 -1.22229)
(2.29446 -0.761192 -1.22472)
(1.62382 -1.59963 -0.897971)
(0.928076 -1.83862 -1.13963)
(0.436159 -1.71158 -1.03583)
(0.554906 -1.50673 -0.819228)
(0.508192 -0.662595 1.22727)
(0.302553 -0.871789 0.403112)
(0.382921 -1.1177 -0.802063)
(0.573333 -1.09936 -1.6993)
(0.473887 -1.18331 -1.94585)
(0.377348 -1.37547 -2.41707)
(0.580717 -1.59471 -2.45928)
(1.01092 -1.01779 -2.41364)
(1.43313 -1.27995 -1.64929)
(1.3049 -1.44079 -1.05411)
(0.583695 -1.83262 -1.03897)
(0.150418 -1.5834 -0.957955)
(0.215563 -1.45035 -0.523025)
(0.0521634 -1.43507 -0.817044)
(2.30953 -0.0512752 2.63634)
(2.42912 -0.125722 2.57619)
(2.4554 -0.0291119 2.72733)
(2.41846 -0.263304 2.72151)
(2.54326 -0.504127 2.58381)
(2.38822 -0.212072 2.736)
(2.48202 -0.553745 2.64995)
(2.53986 -0.447905 2.69074)
(2.50187 -0.558386 2.59182)
(2.5556 -0.855096 2.56347)
(2.63567 -0.750062 2.70719)
(2.39992 -0.762349 2.65612)
(2.67388 -0.477998 2.61819)
(2.47518 -1.05844 2.54088)
(2.45335 -1.27871 2.53419)
(2.58171 -0.739029 2.59702)
(2.70053 -0.864951 2.37099)
(2.75507 -0.874797 2.31831)
(2.33394 -1.47269 2.32523)
(2.24431 -1.68623 2.36856)
(2.5945 -1.29796 2.34518)
(2.87096 -1.07688 2.05059)
(2.88595 -1.13248 1.99925)
(2.49156 -0.663697 1.85026)
(2.15476 -1.74361 2.15052)
(2.25871 -2.25336 2.21771)
(2.70576 -1.67308 2.08141)
(2.97115 -1.41629 1.90645)
(2.89978 -1.28304 1.62998)
(2.87483 -0.773516 1.01101)
(2.18874 -1.88976 2.11711)
(2.34396 -2.19989 2.09599)
(2.6871 -1.97204 1.91102)
(2.9464 -1.55608 2.18196)
(3.04429 -1.17033 1.26738)
(2.88766 -0.626371 0.728548)
(2.27082 -0.314316 0.630964)
(2.50426 -1.46561 2.51959)
(2.1075 -2.53743 1.83388)
(2.01015 -2.87147 1.69882)
(2.43679 -2.06851 1.49944)
(2.8336 -1.29886 0.746661)
(2.68328 -0.622254 0.279532)
(2.41293 -0.5797 -0.621709)
(1.7244 -0.463015 -0.0471951)
(2.36416 -1.61959 2.48258)
(2.26083 -2.41722 1.87437)
(2.13795 -2.55992 1.56252)
(2.01517 -2.86749 0.526665)
(2.48572 -1.45538 1.09789)
(2.89502 -0.271618 0.699626)
(2.72933 -0.463276 -0.515782)
(2.05735 -0.558048 0.319077)
(1.57864 -0.687887 -0.133968)
(2.18757 -1.71156 2.58856)
(2.25744 -2.40187 1.78979)
(1.89165 -2.71558 1.90796)
(2.42428 -2.04088 1.42856)
(2.30489 -1.77667 0.645033)
(2.80632 -0.710568 -0.0757997)
(2.73062 0.0628324 -0.680234)
(2.11869 -0.910434 -0.897927)
(1.74466 -0.457314 -0.465933)
(1.46149 -0.870741 -0.499734)
(1.94022 -1.94364 2.40576)
(1.89968 -2.33622 1.90376)
(1.94534 -2.35246 2.36914)
(1.66727 -2.45045 1.27625)
(2.20605 -2.05574 0.721847)
(2.62555 -0.46855 0.284944)
(2.82576 -0.0960609 -0.1566)
(2.39785 -1.05543 -0.768384)
(1.677 -1.26844 -0.431525)
(1.27224 -1.15615 -0.553362)
(1.37584 -1.2465 -0.956393)
(1.75612 -2.01794 2.19038)
(1.35635 -1.80773 2.24169)
(1.239 -2.12037 2.56822)
(1.78059 -2.11024 0.724714)
(2.29133 -2.35913 -0.0975255)
(2.62425 -1.02362 -0.558585)
(3.13663 0.19431 0.153988)
(2.81292 -0.591453 -0.407983)
(1.96343 -1.54369 -0.876319)
(1.3108 -1.43038 -0.604015)
(1.13332 -1.51964 -1.01152)
(1.12355 -1.31602 -1.38144)
(1.2081 -1.90798 2.24611)
(0.515192 -1.48146 2.45124)
(0.766827 -1.85555 1.61724)
(1.29637 -2.3645 1.03177)
(1.65695 -2.72208 -0.320505)
(1.73876 -2.19714 -1.45351)
(2.26294 -0.462426 -0.797292)
(2.6064 -0.21184 -0.208873)
(2.22982 -1.10118 -0.945756)
(1.36214 -1.49791 -0.944251)
(1.02569 -1.68969 -0.844621)
(0.828396 -1.49183 -1.18333)
(0.716166 -1.10378 -1.35343)
(1.16382 -1.04476 1.87227)
(0.277957 -0.977039 1.80204)
(0.105097 -1.77365 0.144329)
(0.657913 -2.34072 -1.16412)
(1.25149 -1.95149 -2.23683)
(1.33765 -1.44611 -2.19829)
(1.51425 -0.899438 -2.05234)
(2.26032 -0.376923 -1.18453)
(2.31205 -0.726127 -1.23515)
(1.66189 -1.52116 -0.801219)
(0.913758 -1.87734 -1.10356)
(0.45145 -1.70812 -0.870754)
(0.534174 -1.44415 -0.824997)
(0.303749 -0.862495 -1.38612)
(0.502634 -0.652142 1.24534)
(0.268136 -0.877154 0.427958)
(0.349987 -1.13915 -0.739825)
(0.583504 -1.11051 -1.64229)
(0.453715 -1.21644 -1.86956)
(0.417476 -1.33139 -2.38783)
(0.495065 -1.73041 -2.32671)
(0.988672 -1.0624 -2.44057)
(1.44936 -1.22824 -1.68196)
(1.36316 -1.42667 -1.05149)
(0.574372 -1.83216 -1.08669)
(0.164816 -1.54679 -0.893153)
(0.221193 -1.43203 -0.524129)
(0.0567845 -1.34687 -0.858733)
(-1.28808 -0.783633 0.358434)
(2.21905 -0.123243 2.60308)
(2.33446 -0.168381 2.57847)
(2.357 -0.0422214 2.6875)
(2.38477 -0.300542 2.62878)
(2.505 -0.221589 2.60421)
(2.36754 -0.0752027 2.80916)
(2.36623 -0.473417 2.77218)
(2.50936 -0.449197 2.65226)
(2.40656 -0.27271 2.76486)
(2.34441 0.367794 2.98106)
(2.45414 -0.749271 2.59445)
(2.42721 -0.740906 2.72395)
(2.4435 -0.631993 2.62714)
(2.29261 -0.465794 2.8283)
(2.47873 -1.04153 2.6143)
(2.5426 -1.05056 2.63396)
(2.52699 -0.815535 2.54624)
(2.38324 -0.857339 2.69948)
(2.4314 -0.914446 2.6378)
(2.40284 -1.39904 2.46229)
(2.21398 -1.3326 2.51358)
(2.55825 -1.04588 2.52666)
(2.60881 -0.989363 2.33937)
(2.49203 -1.17286 2.47204)
(2.5526 -0.49271 2.13767)
(2.11742 -1.69643 2.35989)
(2.36401 -1.36085 2.31358)
(2.51236 -1.39929 2.33977)
(2.50827 -1.38025 2.30655)
(2.88329 -1.24933 1.82764)
(2.50699 -0.889915 1.77181)
(2.1746 -0.387417 1.68539)
(2.08149 -1.91087 2.12855)
(2.35308 -1.90879 2.17205)
(2.45351 -2.09608 2.00602)
(2.78291 -1.63352 2.13687)
(2.71473 -1.68254 1.47264)
(2.77843 -0.940064 1.17022)
(2.37304 -0.565446 0.976208)
(2.31498 -1.88682 2.4564)
(2.07862 -2.29752 2.10451)
(2.35576 -2.38363 2.04671)
(2.72771 -1.7176 2.15965)
(2.90136 -1.44475 1.22001)
(2.67241 -0.819586 0.949876)
(2.29538 -0.584556 0.285768)
(1.57708 -0.770207 -0.0365887)
(2.29884 -1.89347 2.7259)
(2.04569 -2.30932 2.22218)
(2.09531 -2.63022 2.02636)
(2.25279 -2.28143 1.48018)
(2.6694 -1.53615 1.29909)
(2.64096 -0.732671 0.726518)
(2.44602 -0.634005 -0.506034)
(2.06285 -0.121187 0.372629)
(1.70097 -0.663586 0.00456574)
(2.27234 -1.851 2.67202)
(2.1384 -2.16235 2.30402)
(1.95454 -2.64844 1.75551)
(2.0113 -2.84306 0.839099)
(2.43238 -1.90513 0.714247)
(2.71558 -0.862581 0.524867)
(2.70989 -0.278211 -0.1446)
(2.08513 -1.24712 -0.546485)
(1.51758 -0.810216 -0.0405227)
(1.34273 -0.92437 -0.630227)
(2.10111 -1.7763 2.73042)
(2.30694 -2.00734 2.34087)
(1.84119 -2.78014 2.04314)
(1.93766 -2.50287 1.73621)
(2.18304 -1.85051 0.815399)
(2.70359 -1.06706 0.0498)
(2.67321 -0.148622 -0.469625)
(2.20188 -1.05826 -0.742767)
(1.59463 -0.854198 -0.464116)
(1.36634 -1.01951 -0.522641)
(1.36533 -1.1042 -0.8329)
(1.80307 -1.97179 2.58886)
(1.76707 -2.38245 2.06045)
(1.99668 -2.26836 2.39184)
(1.42063 -2.57435 1.48584)
(2.20843 -2.06607 0.73331)
(2.51084 -1.00884 0.626428)
(2.74178 -0.320033 -0.119391)
(2.58632 -0.957963 -0.573319)
(1.56576 -1.44504 -0.357157)
(1.26953 -1.0909 -0.585255)
(1.22663 -1.39536 -0.903951)
(1.2038 -1.28086 -1.12906)
(1.69433 -2.17754 2.1766)
(1.33536 -1.87069 2.15984)
(1.16158 -2.03682 2.5696)
(1.59368 -2.05598 1.64771)
(2.24538 -2.48896 -0.0434529)
(2.33214 -1.70351 -0.535971)
(3.1076 -0.0109451 0.359486)
(2.84363 -0.611842 -0.350651)
(1.97564 -1.30539 -0.83292)
(1.29206 -1.39366 -0.571027)
(1.06558 -1.40892 -1.1043)
(1.05312 -1.34318 -1.39847)
(0.981898 -0.95659 -1.57555)
(1.11725 -2.02273 2.26401)
(0.564432 -1.42903 2.44749)
(0.725514 -1.7516 1.73358)
(1.18758 -2.27028 0.852347)
(1.66824 -2.57708 -0.25381)
(1.63418 -2.34387 -1.41684)
(2.18714 -0.646081 -0.643071)
(2.53847 -0.329266 -0.0276281)
(2.23061 -1.01738 -0.986118)
(1.34816 -1.36597 -0.893279)
(0.982376 -1.79195 -0.743777)
(0.733255 -1.56709 -1.07679)
(0.632095 -1.15846 -1.35657)
(0.426378 -0.497022 -1.77963)
(1.14694 -1.1204 1.90413)
(0.265564 -0.947223 1.94338)
(0.0833745 -1.68915 0.469142)
(0.531035 -2.29867 -0.81884)
(1.11605 -2.21412 -2.05099)
(1.18949 -1.71716 -2.30664)
(1.44469 -0.970225 -2.11464)
(2.17494 -0.54083 -1.1933)
(2.31934 -0.73063 -1.23073)
(1.67897 -1.44639 -0.766565)
(0.892793 -1.92214 -1.06512)
(0.454792 -1.67846 -0.810863)
(0.499334 -1.4293 -0.781296)
(0.253166 -0.989914 -1.29829)
(-0.900384 -0.981784 -0.464545)
(0.494951 -0.624498 1.27244)
(0.215474 -0.887814 0.471979)
(0.319987 -1.15369 -0.67928)
(0.587111 -1.12221 -1.5856)
(0.460318 -1.21165 -1.80403)
(0.409839 -1.30953 -2.32761)
(0.51372 -1.61704 -2.31538)
(0.944548 -1.12476 -2.45588)
(1.45165 -1.19409 -1.69604)
(1.34095 -1.38142 -1.07389)
(0.578688 -1.82605 -1.09951)
(0.178908 -1.5357 -0.85964)
(0.227138 -1.43989 -0.518)
(0.066574 -1.28444 -0.880162)
(-1.28033 -0.751385 0.368735)
(-1.9434 -0.687196 0.349302)
(1.87497 0.109434 2.67075)
(2.11804 -0.17305 2.70255)
(2.16577 -0.0187361 2.69898)
(2.37706 -0.211729 2.56873)
(2.37677 -0.148447 2.62162)
(2.36674 -0.0461403 2.70719)
(2.34428 -0.396512 2.65038)
(2.43592 -0.391755 2.60955)
(2.43146 -0.312489 2.80396)
(2.36175 0.333737 3.00894)
(2.39772 -0.547305 2.69399)
(2.4494 -0.563383 2.73899)
(2.39132 -0.498363 2.73336)
(2.35367 -0.455114 2.87632)
(2.48475 -0.638867 2.99164)
(2.39075 -0.974856 2.59129)
(2.36451 -0.993852 2.67528)
(2.41139 -0.849492 2.65988)
(2.33525 -0.729101 2.59734)
(2.55813 -0.869353 2.62784)
(2.38001 -1.36199 2.58399)
(2.34194 -1.17467 2.63481)
(2.50758 -1.05653 2.63124)
(2.41116 -0.819321 2.55939)
(2.35064 -1.21059 2.47837)
(2.31777 -1.11858 2.25214)
(2.28158 -1.56254 2.45355)
(2.29065 -1.4299 2.42284)
(2.32406 -1.14457 2.6169)
(2.30835 -1.25155 2.48737)
(2.43445 -1.31597 2.3896)
(2.46021 -0.844213 2.09187)
(1.90451 -0.592381 1.49785)
(2.07347 -1.71494 2.29333)
(2.09628 -1.8166 2.31401)
(2.26304 -1.51925 2.37345)
(2.42673 -1.44289 2.35711)
(2.78002 -1.37954 1.81912)
(2.56446 -0.9781 1.71965)
(2.13511 -0.592405 1.63171)
(2.22414 -0.821305 1.22996)
(1.9384 -2.11568 2.18875)
(2.12757 -2.04413 2.16078)
(2.42431 -2.05011 1.98537)
(2.64133 -1.72827 2.23338)
(2.64531 -1.6801 1.55995)
(2.61468 -1.15645 1.28967)
(2.47707 -0.812532 0.524807)
(1.8628 -0.6104 0.770445)
(2.23665 -2.10006 2.54042)
(2.06497 -2.21849 2.207)
(2.0676 -2.60109 2.15732)
(2.2956 -2.17205 2.09136)
(2.83302 -1.51041 1.28489)
(2.59424 -0.904867 1.04747)
(2.25389 -0.8671 -0.254983)
(1.88234 -0.372615 0.466783)
(1.85685 -0.895697 0.0544101)
(2.377 -1.96767 2.75213)
(2.11579 -2.07184 2.56837)
(2.10677 -2.54079 2.15838)
(1.9351 -2.59729 1.72481)
(2.41632 -1.74027 1.68276)
(2.56144 -0.954568 0.967571)
(2.54612 -0.605427 -0.0820553)
(1.91039 -0.953151 -0.0432489)
(1.24774 -1.34552 0.257408)
(1.30316 -0.997641 -0.561634)
(2.30381 -1.98284 2.81289)
(2.06494 -2.07493 2.54786)
(1.84976 -2.66598 1.9221)
(1.87789 -2.70413 1.49551)
(2.30147 -2.06845 0.711484)
(2.69011 -1.10124 0.889414)
(2.62537 -0.444036 0.460769)
(2.24523 -1.16677 -0.71316)
(1.53198 -0.924627 -0.00704833)
(1.35033 -0.980245 -0.44955)
(0.9132 -1.19683 -1.185)
(1.90369 -2.07103 2.76411)
(2.29345 -1.84801 2.60732)
(2.00363 -2.68646 2.18082)
(2.20611 -2.28217 1.72946)
(1.90879 -2.16203 1.2526)
(2.49338 -1.89641 0.531526)
(2.68085 -0.300505 -0.0547146)
(2.1823 -1.30671 -0.629114)
(1.60339 -0.977038 -0.638409)
(1.10113 -1.26547 -0.553308)
(1.21832 -1.13222 -0.979873)
(1.36083 -1.11643 -1.03073)
(1.67901 -2.11369 2.59234)
(1.79145 -2.33304 2.17504)
(2.05644 -2.1739 2.3526)
(1.15562 -2.64669 1.6554)
(2.16207 -2.10863 0.907262)
(2.28485 -1.81848 1.13146)
(2.75457 -0.462873 0.43166)
(2.54133 -0.989859 -0.427673)
(1.67496 -1.21599 -0.684778)
(1.20947 -1.22923 -0.553108)
(1.18632 -1.37888 -0.97219)
(1.23399 -1.35181 -0.903565)
(1.00944 -0.924601 -1.66955)
(1.5497 -2.27715 2.23374)
(1.22241 -2.03802 2.09764)
(1.15058 -1.92896 2.44939)
(1.54969 -1.91485 2.10909)
(1.47604 -2.90668 0.546193)
(1.85814 -2.63506 -0.457124)
(2.92574 -0.52062 0.631863)
(2.91205 -0.485588 -0.108687)
(2.07342 -1.09354 -0.631083)
(1.40019 -1.14289 -0.818012)
(0.947964 -1.42856 -1.10552)
(0.957392 -1.34951 -1.36547)
(0.937834 -0.97087 -1.62715)
(0.720441 -0.459657 -2.1239)
(0.991098 -2.21213 2.13831)
(0.595531 -1.40077 2.36934)
(0.736414 -1.54559 2.06576)
(1.17202 -2.1813 1.29241)
(1.51197 -2.55942 -0.0211967)
(1.63026 -2.42112 -1.31386)
(1.96466 -1.12127 -0.913862)
(2.47863 -0.289962 -0.0840724)
(2.23443 -0.975106 -0.988133)
(1.35748 -1.32302 -0.804447)
(0.962356 -1.80154 -0.729754)
(0.675069 -1.6315 -0.971892)
(0.653442 -1.22168 -1.30745)
(0.400623 -0.525213 -1.78919)
(-0.392422 -0.214819 -1.30408)
(1.13453 -1.17622 1.92956)
(0.263429 -0.917219 2.03744)
(0.0770246 -1.57242 0.861371)
(0.535996 -2.20452 -0.3431)
(0.938055 -2.3301 -1.90423)
(1.10986 -1.87538 -2.34863)
(1.43135 -1.0458 -2.15034)
(2.12251 -0.500695 -1.13822)
(2.3221 -0.723657 -1.21854)
(1.72777 -1.37398 -0.69395)
(0.875276 -1.96363 -0.947906)
(0.474713 -1.67232 -0.853115)
(0.478034 -1.44858 -0.727487)
(0.22783 -0.913361 -1.3018)
(-0.880536 -0.972278 -0.657325)
(-1.42548 -0.752096 0.007233)
(0.501947 -0.608621 1.28748)
(0.186369 -0.880741 0.499483)
(0.300284 -1.14935 -0.639007)
(0.587283 -1.12993 -1.52998)
(0.472538 -1.21518 -1.73649)
(0.403504 -1.3102 -2.23189)
(0.564702 -1.51001 -2.29713)
(0.880303 -1.20082 -2.45458)
(1.43866 -1.21499 -1.69062)
(1.31144 -1.36053 -1.03974)
(0.608736 -1.7871 -1.11522)
(0.195469 -1.56032 -0.868519)
(0.22187 -1.44126 -0.509853)
(0.0651014 -1.28712 -0.869008)
(-1.26972 -0.764952 0.259306)
(-1.91694 -0.669354 0.31157)
(-1.7548 -0.626088 -0.00651904)
(1.84174 -0.0193022 2.41178)
(1.94994 -0.025723 2.54525)
(1.89426 0.146167 2.70145)
(2.146 -0.399004 2.70529)
(2.09807 -0.027753 2.73236)
(2.17711 0.106162 2.77299)
(2.38379 -0.401943 2.57014)
(2.36604 -0.32015 2.56456)
(2.33254 -0.0959832 2.79516)
(2.22381 0.0938564 2.84797)
(2.30182 -0.687245 2.65082)
(2.4621 -0.615242 2.60845)
(2.36373 -0.544919 2.74269)
(2.49975 -0.0211388 2.94135)
(2.35536 -0.672814 3.10235)
(2.38432 -0.819175 2.62334)
(2.31811 -0.894088 2.73216)
(2.40358 -0.88208 2.69021)
(2.25808 -0.53657 2.8547)
(2.39281 -0.806962 2.92722)
(2.38662 -1.02605 2.81041)