/*--------------------------------*- C++ -*----------------------------------*\
  =========                 |
  \\      /  F ield         | OpenFOAM: The Open Source CFD Toolbox
   \\    /   O peration     | Website:  https://openfoam.org
    \\  /    A nd           | Version:  7
     \\/     M anipulation  |
\*---------------------------------------------------------------------------*/
FoamFile
{
    version     2.0;
    format      ascii;
    class       volScalarField;
    location    "8.5";
    object      nut;
}
// * * * * * * * * * * * * * * * * * * * * * * * * * * * * * * * * * * * * * //

dimensions      [0 2 -1 0 0 0 0];

internalField   nonuniform List<scalar> 
150000
(
0.00054691
0.000836228
0.000472779
0.00148939
0.000635548
0.00144938
0.000938542
0.00167395
0.000812327
0.000294247
0.00141648
0.00142292
0.0015193
0.000765713
0.00176548
0.00141576
0.00367855
0.00178181
0.00106408
0.0016114
0.000893293
0.00245033
0.000837868
0.000436492
0.00134173
0.00132804
0.000929331
0.00146885
0.00138064
0.000836876
0.00259288
0.00137266
0.000838727
0.00196347
0.00145615
0.00110788
0.000739723
0.00126487
0.00135178
0.0011239
0.00133473
0.000691573
0.000434612
0.000915263
0.00206417
0.00114249
0.000529277
0.00115108
0.00119521
0.00107291
0.000173215
0.000804733
0.00134124
0.00120089
0.000789113
0.00238603
0.00248405
0.00168059
0.00297731
0.00138681
0.00156859
0.000438825
0.00109444
0.00238278
0.00148476
0.00166889
0.000898669
0.000627617
0.000782207
0.00268276
0.00225738
0.00113658
0.00115971
0.000911152
0.000389527
0.000347895
0.000422158
0.000790636
0.00102563
0.00124105
0.000521292
0.000924162
0.00103158
0.00118446
0.000359087
0.000146714
0.000200542
0.000620044
0.00118322
0.000978429
0.000637861
0.00260681
0.00244537
0.00111176
0.00237229
0.00218979
0.00176248
0.00137267
0.00208156
0.00292514
0.00191797
0.00166253
0.000748442
0.000766417
0.000831345
0.00132911
0.00232507
0.00127822
0.00170499
0.00117344
0.000836603
0.000432089
0.000794353
0.000903358
0.000667797
0.00179769
0.00112492
0.00135594
0.00141334
0.00040688
0.000352901
0.000332318
0.000548112
0.000512951
0.000722124
0.000738726
0.00123453
0.000469564
0.000902966
0.000889618
0.00124931
0.000486623
0.000159691
0.000315777
0.000300835
0.000276369
0.000449199
0.000955999
0.000663285
0.000396071
0.00259563
0.00237313
0.000981667
0.00254039
0.00253095
0.00137274
0.000979959
0.00121356
0.00240114
0.00207035
0.00152029
0.000839383
0.000889547
0.000975574
0.00194785
0.00284993
0.00201049
0.00227056
0.000627385
0.000958579
0.000874056
0.000793293
0.000952876
0.00193864
0.00196215
0.0013366
0.0012266
0.00113875
0.000963392
0.000459121
0.000399182
0.000597696
0.00078703
0.00174467
0.00445892
0.00204794
0.00112941
0.00152665
0.000690074
0.000518273
0.000366461
0.000312589
0.00034463
0.000327227
0.000555679
0.000561967
0.000708264
0.000340569
0.00105037
0.000441396
0.000916399
0.000790831
0.00124733
0.000533221
0.000298495
0.000253728
0.000110252
0.000341827
0.000365729
0.000170857
0.000320106
0.000688135
0.00026011
0.000225019
0.00236195
0.00257627
0.00101199
0.0024386
0.0023027
0.00128755
0.000410667
0.000960085
0.0022854
0.00208209
0.000955802
0.000903777
0.0010914
0.00184478
0.00128862
0.00243121
0.00275241
0.00212297
0.000608074
0.00040354
0.00056703
0.000916684
0.00287946
0.00173522
0.00293394
0.0014652
0.00237864
0.000973193
0.000989102
0.000874166
0.000564083
0.00079119
0.000630679
0.00159255
0.00145072
0.00170063
0.00144237
0.00105491
0.00103199
0.00112376
0.000652018
0.000525989
0.000749545
0.000519119
0.000578695
0.000797433
0.00110951
0.000686549
0.00238961
0.000966696
0.0013864
0.000476532
0.000509103
0.000321623
0.000391049
0.000370812
0.000186203
0.000385136
0.000404009
0.000391625
0.000515511
0.000730676
0.000579141
0.000861789
0.000476232
0.000809515
0.000701203
0.00116896
0.00056002
0.000147747
0.000247854
7.92791e-05
0.000109093
0.000157845
0.000296259
0.000323708
0.000162971
0.000216692
0.000410474
7.17482e-05
0.000266728
0.00218319
0.00213855
0.00104829
0.00278754
0.00267675
0.000821429
0.000640993
0.000647606
0.00272358
0.00225367
0.000508486
0.00099542
0.00114635
0.00108936
0.00112262
0.00247594
0.00205176
0.00109491
0.0013008
0.00105175
0.000732501
0.00118727
0.000909673
0.00148597
0.00230417
0.00317009
0.00204876
0.000776577
0.000770788
0.000617498
0.00086041
0.000531194
0.00138828
0.00146131
0.00202175
0.00287285
0.00111375
0.00209092
0.00177166
0.000674712
0.000883813
0.000813064
0.000625133
0.000443484
0.000553927
0.000787048
0.0008595
0.00163206
0.00159707
0.00140363
0.00090967
0.000739431
0.00077176
0.000614086
0.000943274
0.000579351
0.000564177
0.000848641
0.00156677
0.000710938
0.000623676
0.000592351
0.000856972
0.00206639
0.000821939
0.00103237
0.000860049
0.00053544
0.000343539
0.000410486
0.000417789
0.000211406
0.000219112
0.000155598
0.000397055
0.000321414
0.00041739
0.000474572
0.000703324
0.000449909
0.000673035
0.000541671
0.000619789
0.000700318
0.00103821
0.000562798
0.000131861
0.000198012
9.47354e-05
9.51546e-05
0.00015369
0.000124606
0.000235489
0.000326712
0.000291477
0.000246302
0.000147274
0.000240399
9.53208e-05
0.000277499
0.00210323
0.00222403
0.000670871
0.00250655
0.00232703
0.000713801
0.000903203
0.000476274
0.00240762
0.0025168
0.000592054
0.000636025
0.000979577
0.00113896
0.00117372
0.0028166
0.00226407
0.00123371
0.000743861
0.000872283
0.000279895
0.00156116
0.00125296
0.000885421
0.00236498
0.00221285
0.00124707
0.000877181
0.00117572
0.000868233
0.000772411
0.000762733
0.00114035
0.0015641
0.00161586
0.00200925
0.00297079
0.00181815
0.00109189
0.00084279
0.000640609
0.000646459
0.00059746
0.00108216
0.000866391
0.000970669
0.00121442
0.00211794
0.00254666
0.00123439
0.00211621
0.00212368
0.000714469
0.000979481
0.00100305
0.000736348
0.00100597
0.000606752
0.000283966
0.000319574
0.000814273
0.000873008
0.00155299
0.00162224
0.00101249
0.000899422
0.000907467
0.00068441
0.000800704
0.000457838
0.000411455
0.000548074
0.000331231
0.000628721
0.000840178
0.000737807
0.000568591
0.000436689
0.000542257
0.00181549
0.0018796
0.000914535
0.000740136
0.000908478
0.000510576
0.000389936
0.000354741
0.000484845
0.000200723
0.000210649
0.000246687
0.000263564
0.000168045
0.000283234
0.000400024
0.0004737
0.000364314
0.000681751
0.000456961
0.00057871
0.000464256
0.000428673
0.000629325
0.000744775
0.000547856
0.000184492
0.000161398
8.09724e-05
7.99024e-05
0.000148637
0.00015665
0.000150128
0.000138074
0.000234528
0.000316598
0.000417747
0.000218965
0.000131336
0.000287229
0.000203869
0.000241312
0.002175
0.00223147
0.000577649
0.00236314
0.0022988
0.00078048
0.000659106
0.000493815
0.00229177
0.00232148
0.000495126
0.000490753
0.00039312
0.000585069
0.000551417
0.00246768
0.002139
0.00091776
0.000311582
0.000786077
0.000568169
0.000979209
0.00117164
0.00109354
0.00286175
0.0023081
0.000499868
0.000346794
0.000582059
0.000928632
0.000901584
0.00104567
0.000916123
0.00128421
0.00131403
0.00230578
0.00216977
0.00073468
0.00104833
0.00103693
0.000783853
0.000908995
0.000432715
0.000701166
0.00045193
0.00113084
0.00222843
0.0011674
0.0019901
0.00279802
0.00182809
0.00116569
0.000956451
0.000558543
0.00075109
0.00066181
0.00047244
0.000762082
0.00097222
0.00101278
0.000921978
0.00118
0.00219282
0.00260576
0.0014228
0.00181823
0.0012664
0.000551361
0.000989585
0.000978458
0.000531788
0.000964153
0.0012673
0.00072234
0.000462372
0.000738198
0.000426696
0.000583342
0.00103594
0.00141496
0.00167897
0.000868531
0.00104118
0.00120738
0.000661016
0.000786597
0.000761821
0.000643917
0.000599176
0.000394571
0.000574506
0.000414747
0.000784487
0.00131674
0.00125246
0.000411511
0.000463508
0.000602573
0.00136222
0.00178237
0.000981409
0.00064511
0.000782875
0.000494604
0.000386428
0.000438286
0.000485564
0.000206186
0.000202612
0.000214993
0.000765798
0.000332451
0.000176815
0.000154419
0.00038068
0.000319645
0.000514144
0.000487246
0.000627623
0.000518497
0.00043807
0.000380313
0.000372716
0.000488274
0.000377488
0.000513871
0.00018588
0.000170016
0.000101593
0.000126787
0.000138552
0.00013547
0.000102821
0.000174581
0.000140149
0.000143447
0.000211346
0.000257044
0.000376999
0.000127989
0.000137496
0.000272908
9.52324e-05
0.000236622
0.00219752
0.00214571
0.000704299
0.00233547
0.00214185
0.00050265
0.000673219
0.000528858
0.00251317
0.00225509
0.000861033
0.000467429
0.000510089
0.000819901
0.000637578
0.00235268
0.00238334
0.000522401
0.000498718
0.000656471
0.000826064
0.000431364
0.000733156
0.000612983
0.00225602
0.00231219
0.000587993
0.00103851
0.000452444
0.000998038
0.000753674
0.000289469
0.000850845
0.000759378
0.00100389
0.00256436
0.00217979
0.000694708
0.00172174
0.000762961
0.000573593
0.000730467
0.000713711
0.0005171
0.00121167
0.00095951
0.00145972
0.00129213
0.00321805
0.00243493
0.000971223
0.000998605
0.00112031
0.000918299
0.000730523
0.00032566
0.000406649
0.000616362
0.000290691
0.000843142
0.00130621
0.00146907
0.00130169
0.00282741
0.00243081
0.00111405
0.000953238
0.000984328
0.00105516
0.00104785
0.000761434
0.000568792
0.000847663
0.000611523
0.000730272
0.000716962
0.000747363
0.00139672
0.00178499
0.00183935
0.00271133
0.00181269
0.00160736
0.000679113
0.000666369
0.000771587
0.000964414
0.000744199
0.000689554
0.00105661
0.000659515
0.00105488
0.000842861
0.000555018
0.000383559
0.000337893
0.000479922
0.00177652
0.00116123
0.00160581
0.000688086
0.000902786
0.00119284
0.000639146
0.000785524
0.000812432
0.000452236
0.000388664
0.000648605
0.000557673
0.000372539
0.000473045
0.000335952
0.000494072
0.000552902
0.00073539
0.000529259
0.000514966
0.000853174
0.00106705
0.00125849
0.000916579
0.000620165
0.00065082
0.000438902
0.000367758
0.000451786
0.000509041
0.000229667
0.000172143
0.000250888
0.000529454
0.000509278
0.00048962
0.000305593
0.000224579
0.000201363
0.00031014
0.000279048
0.000580637
0.000657714
0.000614426
0.000490001
0.00033553
0.000400665
0.000365435
0.000441971
0.000637596
0.000452831
0.000139405
0.000181038
0.000157254
9.10392e-05
0.000135188
0.000119632
9.81906e-05
0.000145147
0.000136987
0.000166528
0.000162966
0.000180028
0.000203778
0.000319439
0.000329906
0.000204311
0.000134016
0.000337318
0.000101252
0.000198301
0.00236278
0.00237707
0.000872795
0.00240935
0.00218137
0.000350727
0.000543618
0.000481627
0.00238873
0.00214887
0.000569864
0.000445185
0.000383964
0.000460849
0.000495493
0.00245559
0.00231763
0.00071262
0.000652872
0.000607416
0.000565722
0.00050824
0.000763052
0.000873536
0.00236593
0.00228704
0.000468149
0.000453477
0.000609836
0.000394488
0.000519505
0.000611242
0.000569497
0.000730077
0.000416123
0.00233489
0.00231398
0.0010487
0.000618779
0.000699969
0.000488013
0.000663801
0.000769719
0.000545353
0.00100311
0.000626648
0.000537947
0.000861905
0.0029243
0.0024444
0.00200136
0.000359831
0.000980567
0.00126408
0.000985919
0.000960108
0.000722685
0.000888802
0.000894432
0.00105019
0.000717333
0.00107995
0.00126915
0.00305827
0.00262657
0.000986932
0.000510424
0.00113317
0.00169543
0.00113117
0.000485018
0.000604972
0.00071468
0.000683675
0.000592115
0.000176357
0.000955678
0.00160148
0.00125131
0.00143793
0.00395179
0.00229019
0.00170382
0.000788927
0.00105308
0.00124534
0.00125784
0.000715728
0.000707307
0.000786513
0.000808227
0.00054155
0.000834711
0.000662843
0.000669062
0.000884374
0.000826212
0.00155479
0.00167152
0.00280102
0.00271467
0.00146375
0.000828538
0.000923575
0.0009344
0.00108652
0.000796963
0.000882888
0.000966157
0.000770294
0.000652467
0.000791157
0.00134528
0.000857547
0.000574209
0.000866023
0.000622406
0.000767493
0.000753745
0.000839676
0.00138916
0.000745313
0.000672224
0.000825574
0.00061473
0.000740108
0.00068056
0.000425539
0.000284945
0.000557627
0.000321344
0.000825165
0.000286894
0.00038374
0.000482498
0.000399411
0.000588757
0.000609502
0.000713106
0.000705264
0.000626259
0.000727351
0.00102042
0.00118909
0.000900074
0.000541945
0.000554154
0.000396748
0.00037331
0.000467742
0.000555506
0.000276573
0.000194519
0.000340589
0.000220574
0.00032113
0.000468398
0.000747569
0.000174583
0.000285953
0.000269674
0.000277791
0.000305564
0.000561765
0.000571479
0.000651146
0.000624464
0.000349261
0.000477787
0.000476509
0.000394728
0.000442155
0.000664528
0.000359109
0.000222477
0.000198067
0.000145472
6.57028e-05
0.000137832
0.000125481
0.000141162
0.000165253
0.000292339
0.0001674
0.000157631
0.000133315
8.58411e-05
0.000123345
0.000284813
0.000335459
0.0003864
0.000109797
0.000129809
0.000269679
0.00030614
0.000168415
0.00232801
0.00237466
0.000247247
0.00256202
0.00216872
0.000385099
0.000211279
0.000699811
0.00243
0.00218686
0.000522936
0.00041977
0.000354627
0.000736156
0.000455759
0.00241418
0.00225488
0.000720421
0.000482469
0.000467751
0.00072958
0.000455344
0.000520088
0.00064244
0.00241338
0.00220541
0.000556623
0.00052878
0.000682119
0.000458141
0.000459742
0.000250812
0.000531332
0.000559496
0.000741887
0.00230034
0.00224489
0.000681457
0.000363279
0.000556768
0.00043673
0.0005541
0.000612631
0.000686818
0.000362956
0.000358305
0.000682817
0.000488893
0.00221076
0.00229742
0.000615949
0.000257976
0.000778145
0.000975139
0.00116517
0.000764934
0.000668224
0.000803166
0.000690109
0.000804973
0.000942837
0.00077365
0.000757726
0.00293936
0.00239907
0.000875043
0.000468
0.000602118
0.00109336
0.00154472
0.000989347
0.00108086
0.000745581
0.00073249
0.000693636
0.000836961
0.000908405
0.000979892
0.000977898
0.00189607
0.00305044
0.00262635
0.000626528
0.000727299
0.000946535
0.00120218
0.00117722
0.00056775
0.000546041
0.00057824
0.000537946
0.000841844
0.000570902
0.000421282
0.000575953
0.00117286
0.00142674
0.00093639
0.00205142
0.0031246
0.00243364
0.00203514
0.000748433
0.00100046
0.00102244
0.000903342
0.000697775
0.000635433
0.000610919
0.000305211
0.000603241
0.000719072
0.000508392
0.00101456
0.000728995
0.000712315
0.000967363
0.00116171
0.00139965
0.00152899
0.00286064
0.00226978
0.00147401
0.000903849
0.000717914
0.000938161
0.00124439
0.00106257
0.000779746
0.000618248
0.000854234
0.000682131
0.00101333
0.000445422
0.000815004
0.000963846
0.000678373
0.000754233
0.000443511
0.000455809
0.00066607
0.000909656
0.000734701
0.00196957
0.000767764
0.000681906
0.000983993
0.000663925
0.000853508
0.000693057
0.000454692
0.000230544
0.000668634
0.000694264
0.000844785
0.000453799
0.000253145
0.000413968
0.000404012
0.000517915
0.000490687
0.000496518
0.000528798
0.000640938
0.000656239
0.000638799
0.000679815
0.00107941
0.00215649
0.000885715
0.000533646
0.000424843
0.000372
0.000374277
0.000485837
0.000574814
0.000317319
0.000213035
0.000267454
0.000383664
0.000325129
0.00032317
0.000366289
0.000530056
0.000350756
0.000287785
0.000240292
0.000265411
0.000552982
0.000321071
0.000356459
0.000488798
0.000558051
0.000509099
0.000283711
0.00058582
0.00041832
0.000388527
0.000358278
0.000671707
0.000421442
0.000196659
0.000154072
0.00018762
6.72529e-05
0.000134004
0.00012426
0.000182304
0.000192151
0.000315267
7.17006e-05
0.000169214
0.000162061
0.00017332
0.000107792
9.41417e-05
8.67022e-05
0.000379249
0.000249911
0.000422765
0.000121212
0.000189804
0.00029372
0.000109207
0.00020066
0.00218989
0.00231162
0.00058744
0.00245336
0.00232602
0.000530357
0.000399688
0.000758209
0.0026057
0.0022269
0.000468304
0.000441396
0.000129323
0.000394589
0.000352214
0.00260962
0.00226645
0.000738804
0.00021603
0.000453999
0.000444861
0.000247213
0.000291257
0.000489325
0.0023094
0.00222881
0.000575142
0.000319619
0.000405533
0.00040532
0.000381785
0.000418166
0.00030956
0.000549885
0.000728365
0.00226714
0.00234608
0.000591137
0.000692818
0.000389637
0.000453432
0.000352576
0.000393261
0.000369687
0.000437279
0.000421381
0.000687848
0.000897545
0.00225023
0.00246189
0.000729276
0.000532411
0.00029099
0.000656792
0.000247892
0.000712815
0.000772104
0.000500149
0.000603315
0.000397262
0.000738956
0.00079903
0.000764095
0.0023834
0.0023766
0.000927561
0.000994966
0.000396586
0.00081932
0.000556529
0.000457979
0.000629061
0.00055823
0.000856777
0.000741135
0.000848773
0.000788575
0.000915112
0.000867346
0.000752297
0.00240652
0.00249288
0.00121596
0.00117055
0.000729913
0.000696078
0.000802917
0.000846918
0.000829102
0.000689195
0.000727507
0.000623502
0.000407283
0.000443543
0.000802844
0.000968339
0.00109604
0.00136882
0.00277283
0.00326899
0.00276788
0.000938896
0.000761644
0.000797094
0.0011258
0.000848442
0.000707719
0.0004969
0.000557351
0.000639592
0.000627764
0.000418636
0.00119045
0.000633396
0.000370697
0.000761721
0.000778976
0.00150011
0.00101987
0.00186016
0.00260568
0.00236316
0.00134868
0.000812772
0.000743797
0.000745274
0.00045983
0.000538455
0.000439155
0.000581461
0.000375339
0.00075697
0.000274403
0.000478724
0.000441162
0.000672918
0.000541937
0.00068215
0.000405613
0.00100694
0.00113003
0.00101023
0.00190009
0.00293789
0.00148869
0.00114782
0.00081075
0.000715619
0.00107587
0.00149021
0.00142753
0.0011191
0.00102929
0.000766903
0.00103745
0.000530197
0.000331839
0.000589009
0.000728269
0.000651946
0.000840543
0.000652325
0.000478729
0.000507044
0.000555018
0.000623551
0.000355952
0.00110594
0.00174769
0.000716734
0.000775722
0.000883165
0.000592843
0.00137542
0.000892778
0.000609097
0.000637686
0.000356303
0.000813595
0.000235497
0.000418642
0.00017728
0.00045404
0.000406557
0.000224108
0.000408394
0.00046025
0.00053781
0.000498062
0.000686016
0.000631653
0.000665454
0.000685978
0.000837943
0.00101665
0.0015251
0.000877714
0.000558016
0.000549207
0.000373315
0.000321027
0.000512886
0.00057914
0.000318103
0.000224665
0.000272345
0.000381802
0.000350756
0.00029983
0.000399499
0.000295979
0.000363575
0.000432942
0.000238728
0.00045531
0.000211699
0.000265289
0.000413436
0.000289521
0.000336905
0.00051728
0.000351974
0.000460494
0.000270425
0.000582035
0.000407693
0.000349017
0.000334411
0.000651783
0.000558149
0.000162576
0.000281866
0.000195186
9.02297e-05
0.000142563
0.000116488
0.000183782
0.000206641
0.000260639
0.000127151
0.000104522
0.000125383
0.000105366
0.000139608
0.000172479
8.76948e-05
0.00010244
0.000106238
0.000347182
0.000245265
0.000340411
0.00015831
0.000189161
0.00027807
0.000239093
0.000249164
0.00212479
0.00225351
0.000537017
0.00235283
0.00231682
0.000418277
0.000596465
0.000743722
0.00261107
0.00240048
0.000502609
0.000331741
0.000414984
0.000526386
0.000793416
0.00264291
0.0021998
0.000382722
0.000326982
0.000409889
0.000620189
0.000406635
0.000432408
0.000590684
0.0024967
0.00220967
0.000408727
0.000328064
0.000354563
0.000277283
0.000269863
0.00029561
0.000205437
0.000497689
0.000679081
0.00238117
0.00235063
0.000552173
0.000605951
0.00042059
0.000437203
0.000303029
0.000312268
0.000428937
8.96653e-05
0.000394607
0.000469822
0.000874491
0.00234613
0.0023201
0.000577339
0.00060865
0.000506898
0.000505409
0.000377873
0.000425002
0.000573527
0.000418031
0.000419983
0.000545365
0.000546679
0.000795541
0.000906901
0.00214578
0.00237919
0.000952095
0.000641472
0.000632893
0.000370648
0.000484517
0.000610767
0.000760644
0.000809795
0.000521317
0.000678103
0.000734515
0.000643836
0.000641885
0.000679009
0.000651942
0.0022556
0.00258898
0.00169171
0.000790405
0.000767148
0.000664884
0.000672914
0.000892572
0.000596463
0.000646194
0.00100424
0.000611025
0.000559264
0.000677352
0.000732543
0.000690348
0.000683689
0.000791079
0.00135307
0.00258897
0.00267535
0.00102871
0.000994581
0.000563702
0.000873411
0.000829836
0.000756042
0.000656771
0.000589882
0.000835103
0.000615209
0.000356838
0.000949962
0.000691164
0.000479481
0.000779904
0.00144036
0.00112257
0.00238594
0.00129294
0.00326918
0.00293017
0.00119156
0.000635618
0.000447321
0.000542766
0.000838179
0.000713681
0.000544479
0.000569971
0.000568691
0.000392166
0.000380294
0.000465665
0.000554204
0.000553062
0.000371784
0.000524799
0.000649476
0.000455439
0.00154197
0.00138397
0.001909
0.00257097
0.00196678
0.000721914
0.00053156
0.000655811
0.000361518
0.000363638
0.000708376
0.000753175
0.000454355
0.000899139
0.000310326
0.000400106
0.000564437
0.000788425
0.000713713
0.000601225
0.000569735
0.000304919
0.000500596
0.000611302
0.000588509
0.00253717
0.00102388
0.00157787
0.00267023
0.00100256
0.00134246
0.00139263
0.000604109
0.000931483
0.00161541
0.00140545
0.00134496
0.000926636
0.000745044
0.0010849
0.000407706
0.000572693
0.000282131
0.000588825
0.000780077
0.00071644
0.000754426
0.000637916
0.000365867
0.00085458
0.000930231
0.000715615
0.00103658
0.000459893
0.00172424
0.00183611
0.000782458
0.000839379
0.000628319
0.000601786
0.00137162
0.000833766
0.000607268
0.000969525
0.000539483
0.000195435
0.00100869
0.000635296
0.000218512
0.00063285
0.000711838
0.00041647
0.000413251
0.000416834
0.000510691
0.000527703
0.000548883
0.000550023
0.000516828
0.000554668
0.000675591
0.000721592
0.00110153
0.001108
0.000602153
0.000838423
0.000615681
0.000586221
0.000420697
0.000363188
0.000507157
0.000538386
0.000328838
0.000230821
0.000273764
0.000337142
0.000484216
0.000350799
0.000388643
0.000259774
0.000285027
0.000267568
0.000330869
0.000303058
0.000331739
0.000502381
0.00027325
0.00025025
0.000416951
0.000326992
0.000484607
0.000587729
0.000314001
0.000398167
0.000283713
0.000533548
0.000384229
0.00045447
0.000263358
0.000595613
0.000782046
0.000200264
0.000301986
0.000167132
0.000124492
0.000157307
0.000134811
0.000153495
0.000200343
0.000241349
0.000148166
0.000105891
9.57163e-05
0.000126037
0.000152921
0.000131825
0.000116785
0.000165091
8.50496e-05
8.28307e-05
4.61479e-05
0.000256883
0.000165627
0.000306504
0.000133984
0.000205679
0.000254197
0.000171921
0.00025569
0.00208618
0.00218767
0.000558906
0.00218951
0.00221737
0.000470678
0.000615722
0.000707717
0.00233591
0.00217763
0.000471576
0.000494564
0.000416197
0.000469917
0.000669972
0.00261977
0.00229667
0.000370502
0.000403348
0.000574811
0.000171753
0.000192978
0.000511399
0.000696645
0.00258117
0.00217372
0.00102483
0.000587512
0.000453397
0.000261682
0.000190394
0.000312962
0.000235807
0.000464523
0.000709348
0.00259441
0.00225542
0.000819298
0.000838914
0.000269503
0.000323821
0.000302536
0.000346197
0.000245088
0.000290441
0.000326618
0.000467848
0.000587142
0.00238574
0.00224889
0.000662441
0.000603925
0.000390071
0.000539741
0.000431716
0.000375612
0.00040296
0.000448946
0.000384343
0.000369323
0.000303737
0.000460343
0.000745602
0.0023538
0.00235463
0.000496219
0.000684275
0.000531801
0.000666097
0.000611938
0.00065856
0.000641328
0.000641152
0.000574757
0.000603568
0.000562041
0.000522117
0.000668274
0.000543678
0.000762747
0.00219464
0.0022927
0.000752901
0.000719676
0.000744983
0.00048216
0.000762864
0.000676853
0.000837011
0.000383193
0.000565811
0.000513842
0.000666984
0.000587897
0.000603244
0.000414772
0.000403783
0.000553591
0.000730947
0.00235075
0.00246717
0.00104978
0.000904964
0.000971364
0.000428165
0.00101544
0.000708089
0.000982536
0.000615216
0.000892628
0.000716757
0.000725476
0.00166531
0.000676115
0.000668545
0.000691919
0.000799968
0.000750919
0.000661962
0.00157336
0.00262475
0.00290651
0.000761817
0.00112735
0.000560573
0.000591333
0.000689881
0.000505153
0.000822287
0.00107993
0.000995683
0.00074362
0.000442814
0.00067488
0.000572651
0.000498201
0.000749213
0.00108815
0.0016504
0.00106695
0.00130518
0.00239661
0.00197307
0.00376693
0.00277131
0.000981919
0.000868213
0.000802693
0.000882955
0.000648167
0.000324718
0.000329398
0.000346871
0.000545479
0.000455646
0.000622984
0.000390973
0.000483502
0.000194561
0.000331409
0.000210583
0.000374703
0.000613695
0.000772554
0.000628126
0.00103597
0.000910946
0.00310659
0.0021252
0.0021302
0.000820875
0.00027956
0.000690311
0.000309778
0.00045261
0.00116766
0.000824332
0.00057258
0.000676111
0.000685183
0.000516393
0.000529411
0.000545083
0.00066785
0.000703282
0.000226526
0.000449631
0.00048824
0.000363527
0.000477073
0.000855439
0.000806865
0.00106406
0.00103233
0.00146957
0.00243227
0.000755702
0.00119816
0.00137538
0.000773528
0.000795017
0.00147374
0.0010189
0.000475843
0.000596652
0.000304921
0.000472457
0.000493461
0.000435265
0.000333005
0.000439993
0.000439592
0.000600002
0.000716482
0.000957171
0.000613246
0.000663873
0.000731078
0.000904602
0.000635017
0.000633224
0.000609633
0.00128576
0.00116654
0.00177888
0.000975586
0.000944716
0.000567443
0.0011544
0.00094232
0.000838737
0.000652534
0.00079655
0.000519356
0.000418257
0.000673683
0.000386042
0.00030445
0.000511155
0.000385979
0.000644289
0.000343553
0.000469558
0.00054349
0.000523683
0.000738728
0.000706414
0.000586559
0.000564463
0.000399556
0.000499573
0.000610469
0.000626455
0.00119529
0.00126333
0.000894686
0.000773946
0.000690871
0.000401899
0.0004619
0.000465657
0.000544556
0.000350204
0.000337919
0.000280224
0.00027556
0.000313202
0.000482286
0.000460618
0.00029111
0.000365621
0.000283401
0.000297962
0.000343109
0.000370779
0.0003352
0.000263026
0.000328146
0.000340151
0.0004446
0.000490174
0.000551331
0.000234264
0.000432065
0.00056153
0.000210653
0.000346714
0.000190583
0.000501704
0.000413802
0.000516629
0.000212477
0.000644301
0.000891154
0.000289031
0.000339225
0.000183367
0.000149455
0.000169531
0.00017573
0.000126967
0.000174584
0.000249441
0.000119808
0.000104091
9.05435e-05
0.000106742
0.000107383
0.000138232
9.33616e-05
0.000163354
0.000130619
0.000155806
7.78369e-05
7.95534e-05
3.45576e-05
0.000214753
0.000176377
0.000303086
0.000125011
0.00035665
0.0002624
0.000163176
0.000203426
0.00209618
0.00202657
0.000201456
0.00215079
0.00215445
0.000311491
0.000386455
0.000452671
0.00215698
0.00214687
0.00038961
0.000564997
0.000203644
0.000458612
0.000630337
0.00234189
0.00230185
0.000597239
0.000337424
0.000344043
0.000365204
0.000334782
0.000347465
0.000582742
0.00263339
0.00227069
0.000285678
0.000300535
0.000236956
0.000347333
0.000348267
0.000574482
0.000425557
0.000423575
0.000520544
0.00261483
0.00224322
0.000792538
0.000343489
0.000259101
0.000254421
0.000275311
0.000281798
0.000426341
7.93768e-05
0.000478988
0.000463698
0.000762871
0.00252455
0.00234987
0.000626999
0.000425825
0.000329348
0.000422356
0.000320416
0.000461818
0.000446247
0.000299849
0.000345244
0.000203538
0.00043758
0.000377465
0.000554723
0.00240857
0.00231416
0.000455434
0.000505434
0.000343544
0.000633002
0.000310779
0.000474314
0.000488543
0.00021428
0.000434683
0.000380331
0.00053753
0.00048426
0.000309397
0.000334993
0.000556661
0.00229691
0.00237974
0.00058994
0.000602054
0.000463016
0.000728797
0.000580247
0.000692342
0.000716937
0.000545018
0.000758688
0.000499125
0.000416548
0.000562504
0.000712009
0.000352143
0.000447581
0.000419383
0.00100469
0.00251154
0.00228768
0.000883709
0.00092252
0.000391942
0.00050829
0.000659861
0.000535031
0.000775613
0.000592492
0.000617391
0.000764755
0.000794056
0.000451396
0.000408428
0.000527364
0.000430541
0.000778187
0.000865616
0.000702746
0.000729755
0.00258325
0.00264265
0.000969172
0.000877441
0.00109722
0.000486196
0.000601568
0.000523329
0.00085473
0.000579804
0.000654059
0.000803774
0.000681644
0.000514502
0.00055308
0.000427509
0.00111191
0.000715398
0.000611042
0.000517487
0.000638584
0.00130116
0.0016594
0.00220109
0.00280295
0.00080947
0.000787849
0.000809753
0.000804895
0.000984503
0.000859228
0.000644027
0.000680589
0.00141118
0.000673463
0.000755315
0.000494857
0.000772251
0.000630051
0.000521433
0.00083177
0.000711911
0.00125194
0.00147263
0.00146657
0.00134222
0.00184399
0.00268915
0.00352046
0.00258503
0.000582776
0.00107219
0.000529557
0.000661742
0.00118376
0.000569021
0.000519854
0.000131722
0.00074425
0.000325036
0.000568325
0.000312886
0.000471494
0.000613876
0.00052472
0.000288497
0.000339993
0.000351315
0.000497322
0.000532423
0.000573543
0.000156367
0.000627426
0.00133306
0.00171209
0.00236175
0.00269922
0.0012681
0.000895135
0.000360137
0.000453569
0.000562122
0.000851697
0.000647111
0.000629248
0.00076337
0.000798685
0.000571862
0.000405926
0.000392324
0.000429966
0.0006233
0.000562742
0.000527138
0.000579109
0.000442104
0.000482287
0.000397434
0.00077865
0.000684629
0.000821736
0.000768605
0.00136848
0.000934105
0.00249954
0.00115674
0.0015175
0.00126335
0.00148048
0.000782186
0.00107111
0.000806332
0.00106677
0.000798064
0.000636149
0.000658866
0.00070699
0.000540927
0.000569693
0.000478159
0.0007193
0.000555366
0.000462142
0.000688771
0.000819723
0.00106385
0.000551176
0.000571452
0.000554537
0.00075718
0.000594524
0.000422837
0.000518416
0.00110499
0.000773194
0.0016334
0.00114094
0.000889794
0.00048395
0.00101735
0.00101402
0.00085
0.000606072
0.000599416
0.000719047
0.000170396
0.00033068
0.000169006
0.000335438
0.00048226
0.000694751
0.000289872
0.000312245
0.000436742
0.000452663
0.000385191
0.000570722
0.00028732
0.000454363
0.000523964
0.000589654
0.00057999
0.000458108
0.000422814
0.000519427
0.000681255
0.00138077
0.00132715
0.000787336
0.000698534
0.000822276
0.000129393
0.000476428
0.000501821
0.000578783
0.000178303
0.00032514
0.000329795
0.000259286
0.000333755
0.000347205
0.000778048
0.000395275
0.000279074
0.000270006
0.000267622
0.000263643
0.00030141
0.000228105
0.000370474
0.000385917
0.000234255
0.000304168
0.000332083
0.000253159
0.000596302
0.000436357
0.000301998
0.000456371
0.00046002
0.000171266
0.000279194
0.000143484
0.000449521
0.000474335
0.00033193
0.000209824
0.000551751
0.000790723
0.000356184
0.0003907
0.000219844
0.000180641
0.000189847
0.000200232
0.000119366
0.000149295
0.000220329
9.65396e-05
8.13197e-05
8.56309e-05
0.000108754
0.000106988
0.000119495
0.000115869
0.000151713
0.000138212
0.000195249
0.000113135
0.000141416
0.000117646
5.84802e-05
8.62926e-05
0.000175522
0.000235609
0.000249959
0.000148941
0.00019517
0.000198746
0.000262188
0.000230926
0.00209812
0.00211799
0.000591462
0.00220693
0.00216592
0.000632043
0.000566311
0.000700997
0.0021249
0.00221162
0.000247879
0.000468339
0.000535581
0.000231852
0.000348565
0.00220075
0.00211653
0.00035896
0.000546244
0.000463233
0.000365074
0.000316145
0.000364802
0.000516202
0.00235163
0.00231293
0.000660531
0.00029714
0.000442263
0.000355663
0.000483648
0.000425881
0.000384233
0.000420469
0.000551504
0.00258544
0.00216754
0.00065393
0.000229017
0.000190743
0.00032378
0.000480635
0.000388503
0.000396386
0.000322044