/*--------------------------------*- C++ -*----------------------------------*\
  =========                 |
  \\      /  F ield         | OpenFOAM: The Open Source CFD Toolbox
   \\    /   O peration     | Website:  https://openfoam.org
    \\  /    A nd           | Version:  7
     \\/     M anipulation  |
\*---------------------------------------------------------------------------*/
FoamFile
{
    version     2.0;
    format      ascii;
    class       volScalarField;
    location    "8.5";
    object      p;
}
// * * * * * * * * * * * * * * * * * * * * * * * * * * * * * * * * * * * * * //

dimensions      [0 2 -2 0 0 0 0];

internalField   nonuniform List<scalar> 
150000
(
-70.1655
-68.1128
-70.2475
-70.5198
-70.1183
-65.5119
-68.1122
-69.2683
-68.1236
-70.3326
-70.7367
-71.6053
-70.3787
-70.1183
-64.7732
-65.7272
-62.4721
-65.3412
-68.1222
-69.4403
-72.0901
-69.1283
-68.1286
-70.4244
-71.0152
-71.8626
-72.9552
-71.4284
-70.3091
-70.17
-63.2946
-64.949
-66.1889
-64.5831
-65.9357
-64.9671
-72.2356
-61.6871
-64.845
-68.1724
-69.686
-72.3465
-73.6108
-71.8411
-69.1082
-68.1804
-70.5435
-71.3236
-72.1522
-73.0924
-73.7881
-72.8453
-71.3361
-70.2937
-70.2529
-62.4919
-63.2547
-66.9458
-63.3055
-64.9952
-66.7062
-70.7572
-65.8892
-64.5555
-66.1036
-66.1915
-72.4318
-72.8342
-71.9833
-53.3748
-64.8112
-68.2767
-69.9807
-72.5593
-73.8428
-73.6327
-73.4208
-71.6767
-69.3498
-68.296
-70.693
-71.653
-72.4322
-73.2675
-73.847
-73.4398
-73.7348
-72.7559
-71.3015
-70.322
-70.3378
-60.3729
-62.4568
-62.7694
-62.4951
-63.4205
-67.0579
-68.7253
-66.3172
-63.1971
-64.9073
-66.58
-70.806
-72.5746
-70.5998
-66.3337
-64.6975
-66.3229
-66.8085
-72.5225
-73.1797
-72.1978
-72.4341
-71.8361
-62.4656
-64.9601
-68.4355
-70.2993
-72.7007
-74.0509
-73.7227
-72.7064
-73.522
-73.2553
-71.5292
-69.5139
-68.4181
-70.859
-71.9114
-72.7089
-73.4737
-73.9072
-73.4704
-73.003
-73.4133
-73.6821
-72.6802
-71.3008
-70.3834
-70.4086
-59.1776
-60.398
-60.6017
-60.4155
-62.6225
-62.4564
-64.7495
-63.0705
-62.3132
-63.2945
-66.9768
-68.4005
-69.3427
-67.961
-65.9796
-63.3324
-64.9768
-66.5614
-70.7374
-72.8053
-71.5196
-72.381
-69.9832
-67.033
-64.9925
-66.579
-67.5131
-72.7292
-73.5846
-72.378
-71.4264
-72.0494
-71.9669
-71.361
-63.1318
-65.1495
-68.6774
-70.6577
-72.8689
-74.2606
-73.7809
-72.7395
-71.9249
-72.6589
-73.4165
-73.0443
-71.341
-69.5541
-68.5276
-71.0176
-72.2357
-72.9061
-73.6921
-73.9697
-73.4811
-73.0358
-72.9771
-72.9655
-73.3931
-73.6246
-72.6114
-71.3071
-70.4193
-70.452
-57.9201
-59.1557
-59.1386
-59.166
-60.3345
-60.8681
-61.4935
-60.5558
-60.2377
-62.8078
-62.9846
-64.6165
-64.7359
-64.6186
-62.8916
-62.1233
-63.1063
-66.5702
-67.9719
-69.1052
-69.2373
-69.2617
-66.5496
-65.8147
-63.4409
-65.0621
-66.764
-70.7906
-72.8415
-71.5272
-70.4387
-71.5478
-72.0948
-69.7746
-67.7527
-65.3861
-66.8009
-68.2694
-72.9907
-73.9213
-72.4764
-71.5828
-71.1172
-71.478
-71.8793
-71.6407
-71.225
-66.2373
-65.4757
-68.9553
-70.9815
-73.0471
-74.4165
-73.8457
-72.7631
-71.9401
-72.5533
-71.9084
-72.6177
-73.2986
-72.8486
-71.175
-69.5871
-68.6378
-71.1479
-72.5584
-73.1681
-73.8817
-74.0243
-73.463
-73.0682
-72.9963
-73.0404
-72.9668
-72.9228
-73.4012
-73.5824
-72.5488
-71.2989
-70.4267
-70.425
-57.0293
-58.0155
-58.2194
-58.0565
-59.218
-59.0983
-59.7949
-59.1464
-58.9833
-60.2558
-61.4834
-61.5924
-61.7562
-61.0014
-60.6044
-60.1921
-62.9437
-63.3021
-64.3796
-64.9595
-65.4821
-64.9098
-65.2905
-62.8982
-61.8078
-63.0137
-66.4894
-67.8811
-68.8555
-69.3701
-68.4233
-69.2056
-68.9245
-66.5661
-65.8211
-63.4191
-64.8437
-67.0909
-70.9768
-72.6153
-71.4883
-70.3087
-70.1824
-70.5969
-71.5206
-71.8723
-69.9078
-67.951
-65.8643
-67.0209
-68.9877
-73.2971
-74.1237
-72.5707
-71.5758
-71.1073
-71.3663
-71.3399
-71.5784
-71.6796
-71.4356
-71.322
-67.9369
-65.8913
-69.2003
-71.2051
-73.1962
-74.5349
-73.8994
-72.796
-71.9664
-72.6097
-72.9103
-72.5081
-71.901
-72.6104
-73.193
-72.6592
-71.0461
-69.6749
-68.746
-71.332
-72.8555
-73.4007
-74.0475
-74.068
-73.4569
-73.0972
-73.0124
-73.0583
-73.2805
-73.0243
-72.9573
-72.8857
-73.4136
-73.5347
-72.4851
-71.265
-70.4562
-70.3107
-56.346
-57.0752
-56.8581
-56.9748
-58.1622
-58.2557
-58.1909
-58.3734
-57.9445
-59.2759
-59.2945
-59.7052
-59.7712
-59.7084
-59.1131
-58.8149
-60.5019
-61.611
-61.232
-62.0114
-62.5631
-61.5199
-61.117
-60.6269
-60.2478
-62.7987
-63.3506
-64.3674
-65.0892
-65.4292
-65.5804
-65.3662
-65.4088
-65.556
-63.2431
-61.8413
-63.1511
-66.9814
-67.6534
-69.0905
-69.2915
-68.3965
-68.0454
-68.5289
-69.195
-69.0073
-67.9119
-65.9996
-63.141
-64.6989
-67.3663
-71.1588
-72.4872
-71.3522
-70.1558
-70.0391
-70.4417
-70.2759
-70.7613
-71.5995
-71.7704
-70.0838
-67.9508
-66.4921
-67.3955
-69.4902
-73.5301
-74.3972
-72.6211
-71.6596
-71.177
-71.4158
-72.3354
-71.3185
-71.3513
-71.5609
-71.4981
-71.2713
-71.0372
-68.1807
-66.1221
-69.4692
-71.3962
-73.3832
-74.5662
-73.92
-72.8173
-72.0022
-72.6685
-72.9404
-73.4214
-72.8845
-72.4715
-71.8783
-72.5737
-73.0831
-72.4825
-70.9507
-69.7329
-68.8183
-71.7533
-73.1091
-73.6166
-74.1573
-74.0986
-73.443
-73.1254
-73.03
-73.08
-73.2918
-73.2452
-73.2707
-73.0058
-72.9392
-72.8434
-73.4024
-73.487
-72.412
-71.2272
-70.5623
-70.2111
-55.8659
-56.4224
-56.3692
-56.2878
-57.0783
-57.084
-57.103
-57.0085
-57.0563
-58.2579
-58.6302
-58.2747
-58.4176
-58.175
-58.2303
-57.9272
-59.4764
-59.296
-60.0261
-59.7864
-60.2406
-59.4379
-59.6366
-59.2435
-58.7974
-60.5214
-61.6941
-61.7585
-62.2378
-62.4074
-62.4664
-62.2659
-61.5584
-61.1161
-60.8449
-59.8994
-62.6101
-63.4976
-64.5565
-65.1775
-65.3716
-65.4588
-65.9047
-65.6341
-65.6464
-65.7457
-66.4672
-63.4287
-62.6686
-63.2724
-67.0437
-67.602
-69.1592
-69.1339
-68.2209
-67.8189
-68.3011
-68.19
-68.704
-69.2277
-69.2637
-67.8577
-66.0766
-63.0621
-64.7324
-67.5906
-71.615
-72.3269
-71.1577
-69.9585
-69.9138
-70.3712
-70.9724
-70.663
-70.4608
-70.8858
-71.7395
-71.7449
-69.8747
-68.0889
-67.1389
-67.632
-69.8776
-73.6872
-74.7412
-72.5957
-71.8072
-71.1909
-71.4809
-72.3881
-72.7497
-72.3114
-71.2967
-71.3468
-71.4917
-71.3244
-71.098
-70.6904
-68.7049
-66.8006
-69.795
-71.5443
-73.552
-74.5471
-73.9481
-72.8266
-72.0501
-72.7225
-72.9771
-73.4442
-73.5246
-73.4009
-72.8641
-72.4365
-71.8505
-72.5382
-72.9533
-72.2827
-70.8631
-69.75
-68.8883
-72.3884
-73.3562
-73.8189
-74.2174
-74.1134
-73.419
-73.1524
-73.0518
-73.0999
-73.3077
-73.2462
-73.1016
-73.2365
-73.2537
-72.9843
-72.9183
-72.7985
-73.3751
-73.4451
-72.3373
-71.1979
-70.7439
-70.1459
-55.4368
-55.907
-55.7966
-55.8734
-56.503
-56.5476
-56.3801
-56.5352
-56.2656
-57.0523
-57.1923
-57.4151
-57.3181
-57.1802
-56.9231
-56.9599
-58.3389
-58.5742
-58.4334
-58.4151
-58.5629
-58.3363
-58.098
-58.2061
-58.0105
-59.518
-59.6084
-60.2421
-59.9059
-60.0989
-60.2434
-60.1568
-59.5833
-59.666
-59.2822
-58.8284
-60.6911
-61.7581
-61.701
-62.4975
-62.5781
-62.2818
-62.5859
-62.4929
-62.252
-61.6601
-60.9851
-60.8928
-59.7341
-62.563
-63.3831
-64.6863
-65.0028
-65.5116
-65.3487
-65.8826
-66.0746
-65.9339
-65.7771
-65.6655
-65.8085
-67.2183
-64.0122
-62.9192
-63.5485
-67.0205
-67.8342
-68.9616
-69.0088
-68.0409
-67.6592
-68.4168
-68.8643
-68.4202
-68.4756
-68.9662
-69.2708
-69.3527
-67.5966
-66.086
-63.1161
-64.9263
-67.8412
-72.1846
-72.3466
-71.0395
-69.786
-69.7598
-70.7436
-70.5623
-71.3311
-70.8807
-70.6368
-70.6239
-71.0399
-71.7923
-71.5298
-69.9032
-68.5094
-67.8865
-67.8335
-70.1937
-73.7982
-74.8391
-72.6101
-71.5575
-71.2335
-71.6019
-72.4889
-72.8582
-72.7767
-72.6672
-72.2986
-71.3418
-71.5238
-71.4148
-71.1184
-70.8774
-70.4334
-69.3463
-67.5628
-70.1572
-71.6672
-73.6796
-74.5764
-73.9824
-72.8439
-72.1202
-72.7814
-73.0172
-73.4636
-73.5202
-73.2981
-73.4953
-73.3823
-72.8501
-72.4068
-71.8322
-72.4786
-72.8047
-72.096
-70.7913
-69.7805
-68.9505
-73.0542
-73.6877
-73.9994
-74.2611
-74.1099
-73.4174
-73.1771
-73.0746
-73.1131
-73.3214
-73.2453
-73.0945
-72.882
-73.1047
-73.2257
-73.2365
-72.968
-72.8983
-72.7632
-73.3357
-73.4012
-72.283
-71.1257
-70.8873
-70.0342
-54.9721
-55.4222
-55.2669
-55.3931
-55.9244
-55.9266
-55.8797
-56.0264
-55.8501
-56.4963
-56.5631
-56.5357
-56.6008
-56.5153
-56.4777
-56.29
-57.0779
-57.2164
-57.4676
-57.3407
-57.4495
-57.3449
-57.213
-56.8806
-56.8998
-58.3254
-58.5124
-58.422
-58.5221
-58.523
-58.6188
-58.634
-58.2665
-58.1605
-58.1289
-58.0409
-59.4425
-59.4556
-59.959
-59.9667
-60.0521
-60.0872
-60.3505
-60.2913
-59.9418
-59.7529
-59.6847
-59.3762
-58.6202
-60.8145
-61.4584
-61.9087
-62.3017
-62.3468
-62.1633
-62.4936
-62.6486
-62.5681
-62.6071
-62.3827
-61.6071
-61.6175
-60.6559
-60.1001
-62.7438
-63.7016
-64.7998
-65.1893
-65.506
-65.2948
-65.9167
-66.0288
-65.7786
-65.756
-66.0467
-65.9494
-65.8446
-65.7463
-67.4585
-64.5922
-63.1183
-63.915
-66.946
-68.384
-68.982
-68.8703
-67.765
-67.5649
-68.4249
-68.9169
-69.1296
-68.9316
-68.5553
-68.7588
-69.0948
-69.3371
-69.2553
-68.0745
-66.2366
-63.2557
-64.8752
-68.2232
-72.4545
-72.4335
-71.0169
-69.707
-69.7541
-71.0578
-70.6409
-71.4438
-71.3581
-71.1223
-70.6029
-70.7339
-70.7472
-71.1432
-71.6788
-71.2665
-69.8534
-68.9912
-68.4405
-68.4081
-70.398
-73.8767
-74.8637
-72.719
-71.5243
-71.2954
-71.7119
-72.5847
-72.9644
-72.7901
-72.5758
-72.7275
-72.599
-72.2927
-71.4182
-71.6247
-71.359
-70.9294
-70.6661
-70.2141
-69.6249
-67.8458
-70.5537
-71.8165
-73.7838
-74.6218
-74.0004
-72.8814
-72.2101
-72.8454
-73.0538
-73.478
-73.5222
-73.2914
-73.0322
-73.2808
-73.4446
-73.3628
-72.8439
-72.3895
-71.8106
-72.4121
-72.6538
-71.9479
-70.7323
-69.8666
-68.9908
-73.8234
-74.0397
-74.1486
-74.3316
-74.0928
-73.4169
-73.2009
-73.1016
-73.1243
-73.3334
-73.2437
-73.0865
-72.8907
-72.5008
-72.8749
-73.0984
-73.2154
-73.2303
-72.9515
-72.8756
-72.727
-73.2903
-73.3619
-72.2235
-71.0711
-71.029
-69.948
-54.4794
-55.019
-55.1363
-54.9371
-55.408
-55.4941
-55.6141
-55.263
-55.4992
-55.8158
-55.8862
-56.016
-56.0036
-55.8294
-55.977
-55.8461
-56.4176
-56.5532
-56.5515
-56.5714
-56.566
-56.6328
-56.4976
-56.4432
-56.2939
-57.1735
-57.3302
-57.4112
-57.3693
-57.4392
-57.5785
-57.4964
-57.2987
-57.206
-57.0016
-56.927
-58.4031
-58.542
-58.5166
-58.3974
-58.5541
-58.5346
-58.7099
-58.6785
-58.4593
-58.257
-58.0735
-57.8608
-57.9676
-59.3869
-59.6573
-60.0065
-59.9115
-59.9039
-60.0233
-60.2065
-60.4482
-60.4769
-60.3602
-60.0435
-59.7802
-59.7901
-59.5411
-58.77
-60.9683
-61.5856
-61.8321
-62.2173
-62.1106
-62.0872
-62.3842
-62.7096
-62.713
-62.6736
-62.7383
-62.5574
-62.5091
-61.1487
-61.7441
-60.6918
-59.2535
-62.9748
-64.0559
-65.016
-65.19
-65.7144
-65.132
-65.7799
-65.887
-66.0294
-65.7924
-65.8484
-65.8892
-66.1711
-66.2414
-66.4736
-66.1067
-67.3986
-64.6328
-63.8635
-64.3527
-67.1224
-68.7617
-69.0871
-68.7704
-67.7659
-67.5631
-68.3039
-69.0666
-69.2829
-69.2929
-69.1849
-69.0135
-68.7093
-68.9061
-69.4025
-69.6799
-69.139
-68.6101
-66.8644
-63.5777
-65.1369
-68.5919
-72.6288
-72.5572
-70.9378
-69.6832
-69.8177
-70.9542
-71.1469
-71.6391
-71.2964
-71.1664
-71.3237
-71.1838
-70.8078
-70.8992
-70.9855
-71.3421
-71.6361
-71.0915
-69.8197
-69.5241
-68.2344
-68.8349
-70.5569
-73.8839
-74.8339
-72.7252
-71.7353
-71.3691
-71.8159
-72.6434
-73.0818
-72.8672
-72.6676
-72.4921
-72.4317
-72.6471
-72.5616
-72.2986
-71.5219
-71.7382
-71.2813
-70.7941
-70.5342
-69.9225
-69.8001
-68.157
-70.9708
-71.9905
-73.919
-74.6601
-74.0131
-72.9406
-72.3215
-72.9138
-73.0862
-73.4853
-73.5258
-73.2815
-73.0225
-72.7192
-73.0437
-73.2663
-73.3823
-73.3483
-72.8393
-72.3782
-71.7868
-72.346
-72.5033
-71.8079
-70.6773
-69.9623
-69.0754
-74.4728
-74.2896
-74.2884
-74.4187
-74.0722
-73.4279
-73.2248
-73.1301
-73.1402
-73.3475
-73.2425
-73.0804
-72.8963
-72.5316
-72.3655
-72.4736
-72.8772
-73.0878
-73.2057
-73.2187
-72.9289
-72.8474
-72.6891
-73.2493
-73.3234
-72.169
-71.0636
-71.1869
-69.9328
-54.2217
-54.6007
-54.5858
-54.4543
-54.9323
-55.1006
-55.0621
-54.7482
-54.9235
-55.3208
-55.4307
-55.5154
-55.5793
-55.4021
-55.5975
-55.4931
-55.8502
-55.8537
-56.0259
-56.0035
-56.028
-56.0288
-56.0239
-55.9109
-55.8679
-56.5188
-56.6045
-56.611
-56.5971
-56.684
-56.7544
-56.6806
-56.5776
-56.4887
-56.4047
-56.3244
-57.2389
-57.3819
-57.314
-57.3811
-57.4863
-57.5678
-57.6896
-57.6652
-57.4909
-57.3616
-57.1112
-56.9982
-56.9358
-58.3963
-58.5178
-58.566
-58.5239
-58.4017
-58.6225
-58.7106
-58.7807
-58.7645
-58.6053
-58.4832
-58.1377
-58.1478
-57.7594
-57.896
-59.3547
-59.6269
-60.2713
-59.8958
-59.8836
-59.9811
-60.116
-60.3098
-60.7087
-60.6343
-60.4536
-60.312
-60.1162
-59.8321
-59.7349
-59.6288
-59
-61.168
-61.4096
-61.818
-62.1874
-62.2991
-62.1947
-62.4424
-62.7062
-62.7006
-62.9105
-62.5205
-62.5564
-62.8237
-62.7943
-62.3933
-61.0785
-61.1558
-61.0836
-58.7589
-63.0911
-64.3315
-65.1402
-65.322
-65.5347
-65.2094
-65.8377
-66.0612
-66.1417
-65.8263
-66.0009
-65.8557
-65.918
-65.8702
-66.1592
-66.4501
-66.635
-65.9118
-66.9039
-65.2151
-63.521
-64.4853
-67.7051
-68.9685
-68.8505
-68.8102
-68.084
-67.6147
-68.3933
-69.0955
-69.5066
-69.3136
-68.8107
-69.2654
-69.1994
-69.2469
-69.1958
-69.2047
-69.6042
-69.7628
-68.8774
-69.3435
-67.2873
-63.8076
-65.8084
-68.7643
-72.8565
-72.7265
-71.0257
-69.6264
-69.8831
-71.0439
-71.4371
-71.7728
-71.3013
-71.1911
-71.0886
-71.12
-71.152
-71.2244
-71.0288
-71.2465
-71.2927
-71.4395
-71.6469
-70.9602
-70.1175
-69.5824
-67.9471
-69.2087
-70.736
-73.8626
-74.7045
-72.7646
-71.9343
-71.4646
-71.9577
-72.7057
-73.151
-73.0266
-72.7941
-72.5341
-72.1326
-72.4639
-72.3559
-72.5269
-72.547
-72.301
-71.6217
-71.8051
-71.1903
-70.6903
-70.4388
-69.5445
-69.8719
-69.0429
-71.4704
-72.1982
-74.0661
-74.6769
-74.0323
-73.014
-72.4564
-72.9901
-73.1221
-73.4879
-73.5305
-73.2912
-73.0156
-72.7336
-72.5233
-72.7065
-73.0391
-73.2292
-73.3287
-73.3368
-72.8389
-72.3612
-71.7733
-72.2747
-72.3607
-71.6927
-70.6227
-70.0232
-69.206
-74.8202
-74.6052
-74.4189
-74.5192
-74.0538
-73.4603
-73.2452
-73.1596
-73.1569
-73.3619
-73.2433
-73.0763
-72.9062
-72.5587
-72.3712
-72.3033
-72.3467
-72.449
-72.8791
-73.0775
-73.1991
-73.1996
-72.9119
-72.8172
-72.6561
-73.2172
-73.2868
-72.1298
-71.0203
-71.2278
-69.9432
-53.9604
-54.2277
-54.227
-54.1156
-54.5299
-54.6324
-54.5299
-54.5315
-54.4073
-54.9627
-55.0634
-55.0763
-55.0491
-55.0537
-54.9047
-54.9798
-55.3815
-55.4062
-55.4816
-55.5448
-55.541
-55.4926
-55.4698
-55.4783
-55.5207
-55.9257
-55.9077
-55.961
-56.018
-56.053
-56.1162
-56.124
-56.0389
-55.9113
-55.8862
-55.7869
-56.552
-56.6105
-56.4322
-56.66
-56.6876
-56.7684
-56.852
-56.7923
-56.6845
-56.5635
-56.5451
-56.3753
-56.3307
-57.2389
-57.2911
-57.3562
-57.4438
-57.4844
-57.5966
-57.6396
-57.7473
-57.7325
-57.6601
-57.4936
-57.2766
-57.1857
-56.9629
-56.9703
-58.4067
-58.4282
-58.5855
-58.5311
-58.5495
-58.5972
-58.6936
-58.7531
-58.9331
-58.8117
-58.704
-58.5551
-58.4515
-58.2114
-58.122
-57.8102
-57.8706
-59.2681
-59.3523
-59.9941
-60.123
-59.8126
-60.0657
-60.2531
-60.3804
-60.4635
-60.7272
-60.6837
-60.7221
-60.5216
-60.3521
-60.1163
-59.8696
-59.6657
-59.881
-58.8168
-61.2474
-61.3729
-62.0987
-62.0014
-62.5205
-62.3282
-62.3137
-62.6764
-62.7994
-62.7663
-63.0741
-62.9682
-62.5233
-62.5656
-62.9575
-62.8502
-62.111
-61.1479
-61.8658
-60.5914
-58.8886
-63.251
-64.525
-65.2574
-65.4944
-65.577
-65.5296
-65.7311
-66.0727
-66.0495
-65.9875
-66.0908
-66.3947
-66.0918
-65.9068
-66.0554
-66.1299
-66.3255
-66.2707
-66.5521
-65.9518
-66.9576
-65.834
-63.7703
-64.941
-68.3549
-69.353
-68.7211
-68.8007
-68.3575
-67.8541
-68.3443
-69.1355
-69.5725
-69.2704
-68.8411
-68.6059
-69.0101
-69.1855
-69.3359
-69.4051
-69.5176
-69.7118
-69.8373
-70.015
-69.0901
-69.2066
-67.7555
-64.2198
-66.0824
-68.6892
-72.8663
-73.0089
-71.267
-69.757
-70.0824
-71.3529
-71.5497
-71.7753
-71.4871
-71.3585
-71.1414
-70.7561
-70.9617
-70.8954
-71.0342
-71.2805
-71.2729
-71.514
-71.497
-71.5215
-71.7176
-70.9354
-70.2312
-69.2036
-67.8102
-69.6526
-70.9697
-73.8752
-74.5597
-72.8345
-72.0116
-71.6666
-72.1156
-72.7583
-73.1629
-73.1614
-72.8559
-72.5253
-72.1626
-72.7834
-72.1333
-72.423
-72.2091
-72.4565
-72.517
-72.3192
-71.7131
-71.8415
-71.1146
-70.6187
-70.3625
-69.186
-69.8442
-69.8151
-72.0374
-72.4667
-74.1973
-74.6705
-74.0631
-73.1051
-72.6203
-73.0874
-73.161
-73.5003
-73.5241
-73.2782
-73.0224
-72.7622
-72.5429
-72.3384
-72.5118
-72.6962
-73.0381
-73.2008
-73.3034
-73.329
-72.8416
-72.3392
-71.7584
-72.1965
-72.2188
-71.6099
-70.6025
-70.0506
-69.3421
-75.1902
-75.0369
-74.5319
-74.6185
-74.037
-73.4789
-73.2734
-73.1923
-73.1726
-73.3764
-73.2456
-73.0741
-72.9201
-72.5819
-72.3684
-72.3108
-72.2506
-72.294
-72.3326
-72.4243
-72.8814
-73.0708
-73.1947
-73.1863
-72.9
-72.7874
-72.6275
-73.1843
-73.2812
-72.0462
-70.9974
-71.1742
-69.8923
-53.7787
-54.0179
-53.9573
-53.9314
-54.2174
-54.2486
-54.2007
-54.0954
-54.1497
-54.616
-54.6278
-54.6176
-54.5964
-54.5973
-54.4873
-54.4214
-55.0776
-55.1322
-55.1003
-55.0329
-55.1444
-55.0827
-54.957
-54.9739
-54.9918
-55.4068
-55.3443
-55.4019
-55.5081
-55.5942
-55.5873
-55.5267
-55.4904
-55.4893
-55.5054
-55.4009
-55.9461
-55.8245
-55.9459
-56.0037
-56.0708
-56.1747
-56.1409
-56.1453
-56.1223
-55.946
-55.9236
-55.8401
-55.8277
-56.5246
-56.6257
-56.49
-56.6342
-56.6315
-56.7229
-56.7866
-56.9033
-56.8649
-56.791
-56.67
-56.6496
-56.4314
-56.3667
-56.3551
-57.2086
-57.337
-57.3682
-57.4461
-57.4703
-57.5523
-57.6445
-57.7247
-57.8319
-57.7881
-57.7151
-57.5431
-57.4196
-57.2807
-57.1834
-57.0281
-56.9306
-58.3392
-58.4528
-58.5143
-58.4396
-58.5068
-58.6071
-58.6212
-58.7526
-58.837
-59.0681
-59.1506
-59.0889
-58.7352
-58.5805
-58.491
-58.2212
-58.1056
-57.5388
-57.7705
-59.4702
-59.5247
-59.8733
-60.142
-60.2462
-59.9415
-60.2297
-60.3437
-60.3842
-60.636
-61.0315
-60.8234
-60.8728
-60.7321
-60.6577
-60.3878
-60.0581
-59.6877
-59.4542
-60.1009
-59.1416
-61.3399
-61.6499
-62.4205
-62.3544
-62.304
-62.4251
-62.4046
-62.6576
-62.8558
-62.8492
-62.9295
-63.1493
-63.0182
-62.8523
-63.1025
-63.088
-63.124
-63.0159
-62.5127
-61.5046
-62.4722
-60.2227
-59.3479
-63.1969
-64.9086
-65.6508
-65.7134
-65.7152
-65.8971
-65.7837
-66.1104
-66.2016
-66.0115
-66.1599
-66.3544
-66.3077
-66.243
-66.0539
-66.0674
-66.1667
-66.3583
-66.559
-66.6861
-67.3178
-66.6974
-66.8387
-66.0095
-63.776
-64.9364
-68.8439
-69.404
-68.7916
-68.797
-68.6281
-67.9266
-68.6018
-69.2406
-69.5297
-69.3235
-68.8231
-68.6525
-68.5149
-68.6613
-69.1222
-69.1685
-69.4613
-69.582
-69.858
-70.0944
-70.0947
-70.3224
-69.4816
-68.9357
-68.0046
-64.6233
-66.5569
-68.6576
-72.575
-73.3548
-71.5498
-70.1547
-70.5057
-71.7305
-71.7402
-72.0173
-71.6798
-71.5178
-71.1836
-70.8196
-70.5513
-70.7188
-70.8837
-70.8783
-71.0414
-71.5039
-71.5481
-71.6365
-71.675
-71.7214
-71.8026
-71.1337
-70.0061
-69.7473
-67.7237
-70.0566
-71.2043
-73.8858
-74.4431
-72.9317
-72.2129
-71.9006
-72.3369
-72.7989
-73.1637
-73.1364
-72.8893
-72.5206
-72.2328
-72.8459
-72.3484
-72.7677
-72.1428
-72.386
-72.1017
-72.4683
-72.506
-72.3492
-71.8224
-71.8475
-71.0589
-70.5757
-70.2968
-69.0229
-69.926
-70.3622
-72.597
-72.8297
-74.2927
-74.6724
-74.1157
-73.2204
-72.8152
-73.1925
-73.2065
-73.5186
-73.5251
-73.2738
-73.0407
-72.8065
-72.5625
-72.3768
-72.3247
-72.3037
-72.4773
-72.679
-73.0419
-73.1899
-73.2961
-73.3147
-72.8386
-72.3241
-71.7445
-72.1207
-72.0755
-71.557
-70.6438
-70.0815
-69.4455
-75.4378
-75.384
-74.6193
-74.7013
-74.0584
-73.4925
-73.3172
-73.2257
-73.1904
-73.393
-73.25
-73.0727
-72.9379
-72.6071
-72.3503
-72.3169
-72.2575
-72.2543
-72.2438
-72.2828
-72.3241
-72.403
-72.8798
-73.0642
-73.1913
-73.1762
-72.8853
-72.7576
-72.6025
-73.1487
-73.2877
-71.9553
-70.9801
-71.0632
-69.7862
-53.6409
-53.8296
-53.7874
-53.7598
-54.0795
-53.9851
-54.0067
-53.9889
-53.9404
-54.2388
-54.2386
-54.2587
-54.3062
-54.2082
-54.105
-54.1254
-54.6249
-54.6037
-54.5969
-54.6341
-54.6661
-54.6469
-54.5396
-54.4841
-54.411
-55.0685
-55.1365
-55.0933
-55.0212
-55.1411
-55.132
-55.0195
-55.0373
-54.9742
-55.0413
-54.9224
-55.4271
-55.3374
-55.4917
-55.512
-55.5929
-55.6043
-55.597
-55.5629
-55.6104
-55.4194
-55.4367
-55.3586
-55.4303
-55.9268
-55.8678
-55.9127
-56.0107
-56.0348
-56.136
-56.1612
-56.1976
-56.204
-56.0936
-56.0365
-55.9481
-55.8728
-55.8908
-55.7988
-56.5199
-56.6222
-56.5253
-56.5679
-56.5446
-56.7803
-56.781
-56.8243
-56.9588
-56.953
-56.851
-56.7666
-56.6377
-56.5137
-56.5112
-56.4274
-56.43
-57.2389
-57.3684
-57.3622
-57.3774
-57.4666
-57.4357
-57.5785
-57.6834
-57.8645
-57.9923
-57.9507
-57.7944
-57.7206
-57.5553
-57.4524
-57.398
-57.1382
-56.8643
-56.7487
-58.3588
-58.6204
-58.5244
-58.4927
-58.5487
-58.5481
-58.6542
-58.6891
-58.9898
-58.9921
-59.2584
-59.2083
-59.3764
-59.2071
-58.7619
-58.6267
-58.3942
-57.9386
-58.02
-57.6228
-57.7616
-59.5305
-59.707
-60.1025
-60.0948
-60.2584
-60.0947
-60.2821
-60.3639
-60.5934
-60.4745
-60.8502
-61.1
-61.0173
-61.0617
-61.0525
-60.774
-60.4691
-60.4451
-60.0208
-60.0336
-59.0708
-60.0966
-59.3293
-61.4378
-61.8056
-62.3098
-62.5249
-62.3261
-62.59
-62.4431
-62.8018
-62.838
-62.9267
-63.0324
-63.255
-63.4945
-62.995
-63.0446
-63.1524
-63.0931
-63.1867
-63.153
-63.2764
-62.8106
-61.328
-63.0513
-60.0777
-59.7421
-63.5383
-65.158
-65.8633
-65.89
-65.7384
-65.7312
-65.9423
-66.1975
-66.4098
-66.3088
-66.2433
-66.4355
-66.3223
-66.3561
-66.4385
-66.04
-66.1138
-66.0735
-66.1875
-66.3102
-66.6312
-67.0393
-67.4605
-67.4252
-66.7208
-66.3366
-63.6762
-64.7653
-69.2556
-69.2997
-69.0167
-68.9401
-68.9468
-68.3563
-69.0454
-69.4215
-69.6338
-69.3239
-68.7883
-68.8306
-68.6161
-68.7388
-68.6363
-68.6355
-69.1967
-69.1609
-69.554
-69.8966
-70.103
-70.3207
-70.5421
-70.4514
-69.6152
-68.4796
-68.2379
-65.0654
-66.8541
-68.6937
-72.2611
-73.6366
-71.7551
-70.6418
-70.9406
-72.1493
-72.008
-72.0019
-71.7729
-71.6296
-71.1826
-70.8755
-70.6103
-70.5903
-70.4965
-70.7285
-70.7471
-70.8473
-71.1002
-71.7479
-71.8877
-71.9052
-71.812
-71.8672
-71.8701
-71.1361
-69.9092
-69.6094
-67.7106
-70.5262
-71.4715
-73.9814
-74.4036
-73.1383
-72.4475
-72.192
-72.5654
-72.8615
-73.1499
-73.0901
-72.9071
-72.5264
-72.3267
-72.8498
-72.453
-72.2314
-72.3038
-72.6834
-72.21
-72.4081
-72.0174
-72.4287
-72.5331
-72.3886
-71.9264
-71.8308
-71.0262
-70.5555
-70.2225
-68.9818
-69.8456
-70.7597
-73.1658
-73.1832
-74.3462
-74.6932
-74.2066
-73.3596
-73.0243
-73.3094
-73.2622
-73.5416
-73.5379
-73.2788
-73.0624
-72.8514
-72.5883
-72.4079
-72.3745
-72.1537
-72.2715
-72.2712
-72.432
-72.6571
-73.0438
-73.1891
-73.2914
-73.2918
-72.8226
-72.3028
-71.7184
-72.0469
-71.9084
-71.5153
-70.6376
-70.0817
-69.5156
-75.5811
-75.7871
-74.6677
-74.7839
-74.1351
-73.4865
-73.3633
-73.2594
-73.2097
-73.4112
-73.2561
-73.0723
-72.9585
-72.63
-72.3306
-72.3213
-72.2648
-72.2593
-72.2922
-72.2505
-72.2359
-72.2706
-72.3113
-72.3865
-72.8742
-73.0575
-73.1884
-73.1637
-72.868
-72.7256
-72.5782
-73.1101
-73.2713
-71.9486
-70.9417
-71.0784
-69.7625
-53.4647
-53.6483
-53.5634
-53.5978
-53.7966
-53.6556
-53.8007
-53.7639
-53.7795
-54.0399
-54.095
-53.9957
-54.0684
-54.0298
-53.9669
-53.9181
-54.2678
-54.2259
-54.2535
-54.2596
-54.3585
-54.2715
-54.2318
-54.0869
-54.0733
-54.6286
-54.5864
-54.6528
-54.6253
-54.6679
-54.7175
-54.6563
-54.582
-54.525
-54.4733
-54.4612
-54.9978
-55.12
-55.0692
-55.077
-55.1264
-55.0875
-55.1317
-55.1001
-55.0403
-54.967
-54.9698
-54.99
-54.8176
-55.4053
-55.4535
-55.4865
-55.4891
-55.5249
-55.5785
-55.6759
-55.6503
-55.6005
-55.5918
-55.5844
-55.397
-55.3848
-55.2986
-55.5222
-55.9164
-55.9016
-55.9659
-55.9617
-56.0271
-56.1278
-56.1665
-56.2408
-56.3042
-56.2804
-56.2266
-56.0817
-56.0077
-55.972
-55.9089
-55.8721
-55.7128
-56.5166
-56.5765
-56.6005
-56.6028
-56.5447
-56.7786
-56.8292
-56.8947
-56.9741
-57.0083
-57.0144
-56.8892
-56.7682
-56.6544
-56.6547
-56.4835
-56.4884
-56.4684
-56.4615
-57.277
-57.2698
-57.4392
-57.3842
-57.4311
-57.4746
-57.6164
-57.6699
-57.8733
-57.9162
-57.9913
-58.0787
-57.9267
-57.8761
-57.6996
-57.6529
-57.3152
-57.3812
-56.9913
-56.8759
-56.8953
-58.4294
-58.4758
-58.4704
-58.5854
-58.5931
-58.6052
-58.7086
-58.7332
-58.8858
-59.0475
-59.3162
-59.5703
-59.3525
-59.331
-58.7747
-58.7835
-58.7765
-58.6526
-58.4771
-57.9602
-58.0307
-57.5549
-57.7343
-59.6395
-59.5527
-59.9403
-60.0398
-60.1257
-59.9704
-60.2775
-60.4675
-60.6032
-60.5602
-60.7768
-61.1515
-61.2666
-61.0604
-61.0536
-61.1963
-60.9482
-60.8139
-60.5572
-60.287
-60.0608
-59.8312
-59.1306
-60.2616
-59.7796
-61.6497
-62.0421
-62.6046
-62.7157
-62.4244
-62.6771
-62.6338
-62.7931
-62.9476
-62.9082
-63.0417
-63.2383
-63.5961
-63.7237
-63.4493
-63.2762
-63.2332
-63.0595
-63.1367
-63.0814
-63.2081
-63.5336
-62.6562
-61.2128
-62.5183
-60.4527
-59.5987
-63.5333
-65.0521
-65.8797
-66.4232
-65.7508
-65.9933
-66.0573
-66.4123
-66.6217
-66.6385
-66.346
-66.4864
-66.2655
-66.2666
-66.3107
-66.5543
-66.4733
-66.0677
-66.2417
-66.1455
-66.2481
-66.381
-66.6879
-67.0475
-67.3808
-67.7901
-66.7947
-66.2176
-63.903
-64.7189
-69.2681
-69.1882
-69.281
-69.1085
-69.2657
-68.9518
-69.2369
-69.7537
-69.7882
-69.4682
-68.8536
-68.9829
-68.8037
-68.8073
-68.5602
-68.6962
-68.7402
-68.9606
-69.1068
-69.3611
-69.8896
-70.2513
-70.3426
-70.6121
-70.8001
-70.6462
-69.625
-68.2416
-68.0001
-65.5114
-67.3077
-68.933
-72.11
-73.6305
-72.0749
-71.2988
-71.3156
-72.3727
-72.1507
-72.0511
-71.862
-71.5814
-71.1842
-70.9438
-70.7073
-70.5789
-70.474
-70.5529
-70.4793
-70.6444
-70.8154
-70.6326
-71.1922
-71.9769
-72.1928
-72.0958
-71.8644
-71.9617
-71.8649
-71.1092
-69.9715
-68.9908
-67.8485
-71.1147
-71.8756
-74.149
-74.3877
-73.4169
-72.7403
-72.5179
-72.8268
-72.9219
-73.1405
-73.0547
-72.8909
-72.5415
-72.3716
-72.8042
-72.5373
-72.3359
-72.0413
-72.1321
-72.1984
-72.5482
-72.2299
-72.4498
-72.1211
-72.3888
-72.5458
-72.4324
-71.9975
-71.8006
-70.9933
-70.5291
-70.1276
-69.028
-70.4754
-71.0307
-73.8111
-73.5458
-74.4114
-74.7449
-74.336
-73.5328
-73.2291
-73.4366
-73.3263
-73.5691
-73.5537
-73.29
-73.083
-72.9053
-72.6143
-72.4322
-72.4217
-72.2214
-71.546
-72.0828
-72.2191
-72.2224
-72.3938
-72.6324
-73.0426
-73.2004
-73.3046
-73.2627
-72.7957
-72.2755
-71.6879
-71.9806
-71.792
-71.4948
-70.5478
-70.0488
-69.565
-76.2433
-76.2656
-74.7192
-74.8364
-74.2212
-73.4889
-73.4107
-73.2942
-73.2308
-73.4294
-73.2628
-73.0734
-72.9825
-72.6648
-72.3198
-72.3234
-72.2719
-72.265
-72.2966
-72.4327
-72.2875
-72.2468
-72.2269
-72.2565
-72.2894
-72.3733
-72.8652
-73.0516
-73.1848
-73.1488
-72.8527
-72.6905
-72.5566
-73.0737
-73.251
-71.9168
-70.9096
-71.2428
-69.747
-53.3118
-53.4779
-53.4044
-53.4458
-53.605
-53.6141
-53.7753
-53.641
-53.6293
-53.8229
-53.7901
-53.813
-53.8315
-53.8368
-53.8175
-53.7709
-54.084
-54.0705
-54.0554
-54.0352
-54.1203
-54.0762
-54.0004
-53.898
-53.9011
-54.273
-54.1581
-54.2515
-54.2538
-54.3278
-54.3832
-54.3291
-54.2545
-54.1828
-54.1437
-54.0895
-54.5782
-54.5624
-54.6709
-54.6955
-54.6738
-54.6838
-54.707
-54.6792
-54.547
-54.5875
-54.4698
-54.4814
-54.3865
-54.9573
-55.0156
-55.086
-55.0407
-55.065
-55.0759
-55.1241
-55.1926
-55.1133
-55.0806
-55.0807
-54.9299
-54.9555
-54.8816
-54.9141
-55.3807
-55.4335
-55.5003
-55.4993
-55.4614
-55.5806
-55.6506
-55.7063
-55.7342
-55.6625
-55.608
-55.5525
-55.4806
-55.4596
-55.3524
-55.3234
-55.4331
-55.836
-55.9502
-55.9374
-55.9834
-56.0094
-56.1007
-56.1907
-56.2551
-56.3143
-56.4127
-56.2986
-56.2692
-56.1706
-56.0034
-56.0362
-55.9092
-55.8899
-55.8462
-55.7306
-56.4214
-56.5498
-56.6027
-56.5889
-56.5868
-56.677
-56.9031
-56.9439
-56.9791
-57.1485
-57.2426
-57.0873
-57.0085
-56.882
-56.7845
-56.6808
-56.5412
-56.54
-56.4942
-56.2888
-56.4527
-57.174
-57.195
-57.3746
-57.3669
-57.3437
-57.4581
-57.5743
-57.7159
-57.6374
-57.8542
-58.1134
-58.1119
-58.0657
-57.9246
-57.7818
-57.8729
-57.7282
-57.5397
-57.3249
-56.9552
-56.9339
-57.1107
-56.9513
-58.6548
-58.3554
-58.4067
-58.5311
-58.4538
-58.6562
-58.7133
-58.7803
-58.9256
-58.9838
-59.3066
-59.4422
-59.7599
-59.6393
-59.3816
-59.1735
-59.1365
-58.9695
-58.78
-58.62
-58.3971
-58.2819
-58.0349
-57.3542
-57.7904
-59.6235
-59.5667
-60.0533
-60.0977
-60.2139
-60.2905
-60.2425
-60.4812
-60.6861
-60.8452
-60.7344
-61.1258
-61.3096
-61.3323
-61.2548
-61.2271
-61.139
-61.131
-61.02
-60.6812
-60.5681
-60.4164
-59.9998
-59.7827
-59.0732
-60.2749
-59.3057
-61.6861
-62.1248
-62.8685
-62.9434
-62.7209
-62.5272
-62.6464
-62.6717
-62.9897
-62.9634
-63.1465
-63.4919
-63.4324
-63.6698
-63.7399
-63.8058
-63.3621
-63.265
-63.0833
-63.0997
-63.1397
-63.1407
-63.408
-63.1673
-63.0004
-61.6492
-62.1976
-60.7728
-59.9628
-63.1749
-65.3432
-66.1014
-66.3805
-66.0935
-66.0485
-66.283
-66.5613
-66.9214
-66.6035
-66.8149
-66.6118
-66.3342
-66.4316
-66.2579
-66.0377
-66.4038
-66.4554
-66.5665
-66.3063
-66.3812
-66.2581
-66.2824
-66.5187
-66.6787
-67.1049
-67.7684
-68.6522
-66.6943
-65.9357
-63.7317
-64.7101
-69.2589
-69.2279
-69.5017
-69.3249
-69.4802
-69.4178
-69.5373
-69.9811
-69.9772
-69.5224
-69.05
-69.156
-68.8958
-68.9985
-68.6786
-68.469
-68.2498
-68.638
-68.5373
-68.9288
-69.1104
-69.6383
-70.0893
-70.5513
-70.5306
-70.7963
-70.9997
-71.0836
-69.9746
-68.1636
-67.9433
-65.9392
-68.0196
-69.3135
-72.0967
-73.3118
-72.2843
-71.7223
-71.73
-72.6391
-72.3311
-72.1018
-71.8683
-71.6135
-71.2704
-70.9801
-70.7736
-70.6442
-70.5958
-70.2985
-70.4941
-70.3728
-70.4691
-70.5962
-70.6692
-70.741
-71.3955
-72.181
-72.421
-72.2567
-71.8849
-71.9569
-71.8683
-71.2036
-69.794
-69.3808
-68.1642
-71.8172
-72.4279
-74.3238
-74.4124
-73.6842
-73.0908
-72.8678
-73.0896
-73.0468
-73.1215
-73.023
-72.8835
-72.6003
-72.4924
-72.737
-72.593
-72.4832
-72.2053
-71.5506
-71.9438
-72.0787
-72.1135
-72.4373
-72.2297
-72.3959
-72.1119
-72.4111
-72.5718
-72.48
-72.0416
-71.7478
-70.9603
-70.5326
-70.0371
-69.1534
-70.4466
-71.23
-74.5288
-74.0271
-74.501
-74.8408
-74.4782
-73.7101
-73.4283
-73.5679
-73.4003
-73.6053
-73.5771
-73.3056
-73.1133
-72.944
-72.6445
-72.462
-72.4722
-72.291
-71.6107
-71.8295
-71.4919
-72.0154
-72.1733
-72.1686
-72.3522
-72.5951
-73.042
-73.2109
-73.3207
-73.2297
-72.7548
-72.2454
-71.6592
-71.9254
-71.7144
-71.5424
-70.4969
-70.0449
-69.5839
-77.2867
-76.6261
-74.8332
-74.8802
-74.306
-73.5334
-73.4574
-73.3283
-73.2538
-73.4479
-73.2693
-73.0738
-73.0103
-72.7068
-72.3182
-72.3244
-72.2792
-72.2733
-72.3009
-72.445
-72.3684
-72.4234
-72.2834
-72.2427
-72.2174
-72.2409
-72.2636
-72.3601