/*--------------------------------*- C++ -*----------------------------------*\
  =========                 |
  \\      /  F ield         | OpenFOAM: The Open Source CFD Toolbox
   \\    /   O peration     | Website:  https://openfoam.org
    \\  /    A nd           | Version:  7
     \\/     M anipulation  |
\*---------------------------------------------------------------------------*/
FoamFile
{
    version     2.0;
    format      ascii;
    class       volScalarField;
    location    "8.5";
    object      p;
}
// * * * * * * * * * * * * * * * * * * * * * * * * * * * * * * * * * * * * * //

dimensions      [0 2 -2 0 0 0 0];

internalField   nonuniform List<scalar> 
18750
(
-70.2493
-69.0827
-71.3495
-70.3143
-69.2908
-70.1144
-69.0239
-71.6043
-71.3486
-70.4131
-68.4797
-71.2269
-68.7917
-70.4405
-70.1006
-68.9992
-72.2654
-71.6977
-71.3783
-70.5802
-64.3268
-72.1215
-67.6258
-70.7298
-70.8065
-68.231
-70.8315
-70.3758
-70.099
-68.9529
-73.0043
-72.305
-71.7703
-71.4566
-70.7649
-62.2991
-68.4696
-64.0174
-71.919
-71.5236
-66.7767
-71.0046
-70.49
-70.3464
-67.5789
-71.0647
-70.8021
-70.3336
-70.0551
-68.9378
-72.889
-72.9887
-72.3762
-71.8439
-71.522
-70.976
-60.5972
-63.373
-62.3612
-67.637
-68.3779
-63.8313
-71.5465
-71.5751
-71.0254
-66.175
-70.305
-70.9429
-69.9633
-69.9385
-67.0001
-71.3272
-71.0595
-70.7691
-70.2966
-70.0434
-69.0134
-72.5088
-72.8981
-72.9613
-72.4532
-71.9132
-71.607
-71.1646
-58.9794
-61.7109
-60.5825
-64.4436
-63.2241
-62.4677
-69.1825
-67.1994
-68.0424
-63.6237
-70.3099
-71.4933
-71.1874
-70.4716
-65.9446
-70.5425
-70.2856
-70.827
-69.6013
-69.6619
-66.5777
-71.0886
-71.2871
-71.1474
-70.7266
-70.2879
-70.0016
-69.1964
-72.4182
-72.5251
-72.9248
-72.9463
-72.4897
-71.9796
-71.6959
-71.2879
-58.2621
-59.445
-58.9624
-61.1993
-61.4595
-60.8745
-65.5188
-64.335
-63.1682
-62.4016
-69.2377
-69.9559
-67.4291
-67.2463
-63.5387
-69.3875
-70.5371
-71.3187
-71.0977
-69.9349
-65.8103
-70.6576
-70.5396
-70.236
-70.7057
-69.3493
-69.5438
-66.4497
-71.6598
-71.1128
-71.2683
-71.1789
-70.7146
-70.3357
-69.9674
-69.3737
-72.5914
-72.4182
-72.5268
-72.9605
-72.9466
-72.4814
-72.0481
-71.7833
-71.4193
-56.9447
-57.9688
-58.3339
-59.9617
-59.4023
-59.0416
-62.4354
-61.1752
-61.5877
-60.8232
-65.7081
-65.3447
-64.1429
-63.1562
-62.2143
-68.4835
-69.6374
-69.1523
-67.0164
-67.1073
-63.4606
-69.5957
-69.4641
-70.4345
-70.89
-70.8224
-69.8433
-65.607
-70.857
-70.593
-70.5374
-70.1554
-70.6115
-69.2152
-69.4714
-66.4547
-71.9049
-71.6582
-71.1338
-71.2882
-71.2295
-70.7159
-70.431
-69.9864
-69.4976
-72.8216
-72.5728
-72.4339
-72.54
-72.9889
-72.9789
-72.4582
-72.1022
-71.9236
-71.58
-56.0328
-57.056
-56.8593
-58.1719
-58.0524
-58.1895
-60.2602
-59.9281
-59.2946
-59.4184
-62.6539
-62.2718
-61.0638
-62.1954
-60.6829
-66.2031
-65.4436
-64.8671
-63.9692
-63.5007
-62.3983
-68.3868
-68.2785
-69.4935
-67.7519
-66.4323
-67.3518
-63.3493
-69.6568
-69.5453
-69.6412
-70.1966
-70.5397
-70.4362
-70.0447
-65.5938
-71.1464
-70.7827
-70.5206
-70.5113
-70.0602
-70.5463
-69.0615
-69.6221
-66.5218
-72.5734
-71.8344
-71.6588
-71.1343
-71.3276
-71.3
-70.7146
-70.5548
-70.0599
-69.5895
-72.9065
-72.7886
-72.5573
-72.4531
-72.5704
-73.0059
-73.0584
-72.4545
-72.1479
-72.0819
-71.7716
-55.3989
-56.0724
-56.0499
-57.0963
-56.9796
-56.9242
-58.4497
-58.1405
-58.1341
-58.0498
-60.6716
-60.2245
-59.9094
-59.3394
-59.4524
-62.8464
-62.7037
-62.0268
-60.9394
-62.0614
-60.5563
-66.8019
-66.3907
-65.2316
-64.5704
-63.9736
-63.1732
-62.5381
-68.7708
-68.3531
-68.0325
-69.2738
-67.6427
-66.5333
-67.3708
-63.2704
-70.2942
-69.5524
-69.5138
-69.6783
-69.9852
-70.322
-70.088
-70.152
-65.9335
-71.5309
-71.0421
-70.6733
-70.435
-70.5036
-70.0217
-70.5207
-69.1279
-69.7062
-66.5467
-72.788
-72.4422
-71.7748
-71.6613
-71.1661
-71.3621
-71.3657
-70.7119
-70.6692
-70.1175
-69.6623
-72.7649
-72.854
-72.7572
-72.5426
-72.4652
-72.5969
-73.0355
-73.1249
-72.469
-72.1867
-72.3003
-71.9968
-54.9395
-55.571
-55.5375
-56.1312
-56.1091
-56.1421
-57.2144
-57.0707
-56.8581
-56.9362
-58.6547
-58.4141
-58.1074
-58.2224
-58.0468
-60.4605
-60.4903
-59.9227
-59.5704
-59.3717
-59.1863
-63.5329
-62.824
-62.6114
-61.9933
-60.8509
-61.8894
-60.6945
-66.9133
-66.735
-66.3291
-65.1035
-64.3965
-63.6824
-62.9016
-62.4729
-69.218
-68.5993
-68.3923
-67.8874
-69.2485
-67.6136
-66.4457
-66.8515
-63.6493
-70.8965
-70.0691
-69.4384
-69.5719
-69.5387
-69.7279
-70.1012
-69.8184
-70.0337
-66.2044
-71.8181
-71.3736
-70.9133
-70.5179
-70.3436
-70.5005
-70.0472
-70.5445
-69.3761
-69.5662
-66.3855
-72.8264
-72.7042
-72.2938
-71.7285
-71.6652
-71.2144
-71.3918
-71.4528
-70.7634
-70.7864
-70.1626
-69.7521
-72.492
-72.7107
-72.7971
-72.7256
-72.529
-72.4693
-72.615
-73.0829
-73.1282
-72.4806
-72.2404
-72.4659
-72.2688
-54.5389
-55.0482
-54.9873
-55.5886
-55.6244
-55.5345
-56.2521
-56.1421
-56.1199
-56.2011
-57.3055
-57.2458
-57.0596
-56.745
-56.9367
-58.6008
-58.6765
-58.3936
-58.0433
-58.2586
-58.0016
-60.8784
-60.4183
-60.3054
-59.8999
-59.7238
-59.3471
-59.0598
-64.0688
-63.5947
-62.8891
-62.57
-61.9277
-60.8783
-61.531
-60.6092
-67.029
-66.8213
-66.8374
-65.9126
-65.1952
-64.111
-63.1575
-62.7091
-62.3638
-69.9541
-68.9424
-68.34
-68.69
-67.9159
-69.3748
-67.9625
-66.2162
-66.1179
-63.6897
-71.1471
-70.6987
-69.8153
-69.3485
-69.5951
-69.5053
-69.5473
-69.8549
-69.2442
-69.6608
-66.3896
-72.3714
-71.6613
-71.2914
-70.7757
-70.406
-70.2745
-70.5311
-70.0925
-70.5033
-69.5083
-69.5262
-66.0339
-72.6962
-72.7209
-72.6049
-72.1597
-71.6949
-71.6619
-71.2592
-71.4373
-71.5326
-70.8277
-70.9754
-70.3456
-69.8817
-71.9501
-72.4316
-72.6589
-72.7426
-72.6972
-72.5162
-72.4818
-72.6434
-73.1286
-73.1399
-72.5125
-72.2983
-72.5355
-72.5857
-54.3059
-54.553
-54.5533
-55.0604
-54.9239
-54.9909
-55.5771
-55.616
-55.7824
-55.615
-56.3215
-56.267
-56.2154
-56.0837
-56.1619
-57.302
-57.3575
-57.166
-57.0316
-57.1736
-57.0227
-59.01
-58.6754
-58.646
-58.3668
-58.0902
-58.2538
-57.821
-61.4539
-60.8864
-60.5338
-60.2923
-59.8693
-59.6412
-59.3068
-58.933
-64.271
-64.1112
-63.4675
-62.7658
-62.4863
-61.8544
-60.711
-61.3299
-60.6819
-67.8253
-66.7256
-66.4445
-66.8459
-65.6725
-65.2805
-64.0371
-62.8819
-62.6876
-62.3158
-70.5709
-69.6489
-68.7506
-68.1427
-68.4872
-68.0368
-69.2318
-67.8067
-65.9767
-65.8029
-63.8673
-71.6117
-70.8445
-70.4536
-69.6859
-69.268
-69.5697
-69.5153
-69.2631
-69.5721
-68.7043
-69.049
-66.3495
-72.8023
-72.2347
-71.5168
-71.1836
-70.6642
-70.2714
-70.2162
-70.5593
-70.0948
-70.3919
-69.6605
-69.358
-65.7607
-72.247
-72.6045
-72.6082
-72.4372
-72.0317
-71.6563
-71.6752
-71.2846
-71.5003
-71.623
-70.905
-71.1908
-70.6451
-70.0206
-71.9785
-71.8717
-72.365
-72.6121
-72.6889
-72.6732
-72.5062
-72.5035
-72.6889
-73.1515
-73.2043
-72.5825
-72.3605
-72.5789
-72.8625
-54.0293
-54.2893
-54.3302
-54.5525
-54.532
-54.6013
-55.0118
-54.9656
-54.9897
-55.0565
-55.5783
-55.5567
-55.6518
-55.8594
-55.732
-56.3315
-56.3733
-56.261
-56.2235
-56.2098
-56.0969
-57.5574
-57.4083
-57.3266
-57.2327
-57.1123
-57.2422
-57.1402
-59.3488
-58.967
-58.6824
-58.6876
-58.4137
-58.0681
-58.239
-57.8262
-61.6213
-61.5628
-60.7946
-60.3788
-60.1495
-59.7871
-59.4942
-59.0782
-58.8933
-64.7894
-64.2028
-63.7948
-63.2638
-62.6384
-62.3525
-61.7785
-60.6948
-61.1922
-60.7824
-68.2002
-67.5809
-66.9172
-66.3408
-66.8876
-65.6896
-65.1989
-63.8058
-62.743
-62.9456
-62.0582
-71.6575
-70.2503
-69.3598
-68.6353
-67.9437
-68.2225
-68.0626
-68.807
-67.094
-65.812
-65.4235
-64.0975
-72.0474
-71.4385
-70.6239
-70.2129
-69.564
-69.2311
-69.5339
-69.4879
-69.0864
-69.3038
-68.3111
-68.7578
-66.175
-72.6205
-72.7654
-72.0704
-71.3633
-71.0554
-70.5628
-70.1345
-70.1764
-70.6345
-70.2601
-70.2131
-69.6098
-69.2038
-66.1318
-72.0356
-72.2402
-72.4856
-72.4845
-72.2384
-71.9362
-71.6483
-71.6937
-71.318
-71.5662
-71.7198
-71.0395
-71.3793
-70.978
-70.1997
-71.9855
-71.9506
-71.796
-72.3073
-72.5661
-72.6347
-72.6501
-72.4975
-72.5185
-72.7319
-73.178
-73.2271
-72.6498
-72.4299
-72.7317
-73.0471
-53.8749
-54.0163
-54.064
-54.2984
-54.3466
-54.3344
-54.573
-54.5492
-54.5992
-54.6774
-55.056
-55.0954
-55.053
-55.0947
-55.1688
-55.5731
-55.653
-55.6337
-55.6742
-55.4451
-55.7377
-56.5083
-56.3768
-56.4039
-56.3088
-56.3213
-56.3795
-56.2006
-57.8102
-57.4701
-57.2071
-57.3061
-57.2752
-57.1829
-57.1738
-57.1083
-59.4265
-59.3853
-59.0445
-58.7638
-58.5064
-58.386
-57.9758
-58.0744
-57.7754
-61.767
-61.6537
-61.4304
-60.8176
-60.1972
-60.1537
-59.6063
-59.5108
-58.972
-58.8866
-65.2507
-64.496
-64.5188
-63.8171
-63.1969
-62.7263
-62.1552
-61.6259
-60.7635
-61.1153
-60.7245
-68.4131
-67.9066
-67.2442
-66.7097
-66.7442
-66.869
-65.5434
-65.0407
-63.7527
-63.4898
-62.8303
-61.988
-71.8495
-71.3745
-70.093
-69.0494
-68.3941
-67.8987
-68.0481
-67.8634
-68.4874
-66.9549
-65.8505
-65.1411
-63.9784
-71.9321
-72.0545
-71.2953
-70.4185
-70.0326
-69.4474
-69.2216
-69.4381
-69.3579
-68.9442
-69.0838
-67.9474
-68.538
-65.8791
-72.2677
-72.6845
-72.7043
-71.8987
-71.2362
-70.9498
-70.4375
-70.0281
-70.1511
-70.8158
-70.463
-70.1065
-69.6204
-68.9744
-66.5835
-72.0202
-72.0266
-72.2122
-72.3579
-72.3568
-72.0761
-71.8647
-71.6795
-71.6982
-71.3595
-71.6106
-71.8249
-71.2072
-71.4338
-71.1985
-70.4493
-72.0936
-71.9735
-71.9145
-71.7319
-72.2619
-72.5215
-72.5869
-72.6296
-72.4904
-72.5242
-72.7784
-73.2118
-73.2277
-72.6704
-72.5101
-72.8757
-73.1689
-53.7373
-53.8855
-53.92
-54.0542
-54.1117
-54.0804
-54.3648
-54.3501
-54.3476
-54.4121
-54.6759
-54.6835
-54.6241
-54.6678
-54.7339
-55.0997
-55.0552
-55.1437
-55.1249
-55.0883
-55.2352
-55.6902
-55.6304
-55.7158
-55.6329
-55.7229
-55.7062
-55.6002
-56.5904
-56.4649
-56.3116
-56.3275
-56.378
-56.2678
-56.3249
-56.3849
-58.0205
-57.716
-57.4552
-57.4468
-57.3454
-57.1611
-57.128
-57.0797
-57.0083
-59.7165
-59.92
-59.6033
-59.0148
-58.7817
-58.5293
-58.2872
-57.8948
-58.0051
-57.7489
-62.0811
-61.3481
-61.7026
-61.4263
-60.939
-60.3656
-60.1147
-59.5825
-59.4209
-58.8379
-58.8203
-65.9998
-65.2589
-64.5649
-64.1686
-63.767
-63.2208
-62.6887
-62.0736
-61.4028
-60.8287
-60.8272
-60.7133
-69.5835
-69.6289
-67.8868
-66.8322
-66.1682
-66.4044
-66.6626
-65.5292
-65.0969
-64.1706
-63.4696
-62.8402
-61.9954
-71.2315
-71.9709
-71.2335
-69.8486
-68.7036
-68.0908
-67.7798
-67.9077
-67.9489
-68.3375
-66.4628
-65.4563
-65.0128
-64.0379
-71.6905
-72.0075
-72.0658
-71.1581
-70.2067
-69.8778
-69.3279
-69.2011
-69.3343
-69.2367
-68.7607
-69.0143
-68.0063
-68.3996
-65.7206
-72.3117
-72.3701
-72.7156
-72.6018
-71.7333
-71.19
-70.8399
-70.3117
-69.9356
-70.168
-70.9836
-70.5379
-70.1379
-69.6759
-68.7681
-66.9365
-71.9763
-72.0439
-72.0223
-72.1594
-72.2258
-72.2
-71.9604
-71.7967
-71.6616
-71.6789
-71.3878
-71.6564
-71.9198
-71.4048
-71.4016
-71.4929
-70.764
-72.1936
-72.0923
-71.9617
-71.8698
-71.6787
-72.2215
-72.4792
-72.5474
-72.6112
-72.4877
-72.547
-72.8113
-73.2472
-73.2309
-72.6855
-72.6038
-73.0469
-73.2359
-53.6519
-53.7532
-53.7529
-53.9208
-53.9179
-53.9148
-54.0561
-54.108
-54.1274
-54.1479
-54.3932
-54.4016
-54.3297
-54.4266
-54.4831
-54.7295
-54.6959
-54.7358
-54.6699
-54.7282
-54.7439
-55.1782
-55.0869
-55.1224
-55.1184
-55.151
-55.109
-55.2954
-55.8235
-55.6796
-55.7509
-55.7101
-55.6933
-55.7209
-55.8366
-55.4571
-56.8494
-56.6061
-56.4285
-56.4004
-56.3671
-56.3517
-56.2621
-56.2618
-56.2587
-57.9734
-58.0387
-57.7273
-57.5617
-57.4064
-57.2885
-57.1356
-57.1123
-57.0182
-56.9049
-59.7367
-59.9373
-59.5422
-59.5492
-59.0506
-58.6943
-58.4992
-58.2038
-57.8237
-57.9934
-57.8033
-63.3144
-62.031
-61.8024
-61.4075
-60.9271
-60.9978
-60.7416
-59.9611
-59.4159
-58.793
-58.6159
-58.6899
-65.5631
-66.1974
-64.9281
-64.3107
-64.4541
-63.3285
-63.0575
-62.5897
-61.9973
-61.2372
-60.321
-60.6757
-60.68
-69.4873
-69.794
-69.0648
-67.7043
-66.5555
-66.1673
-66.2414
-66.4212
-65.5442
-64.9672
-64.0896
-62.9499
-62.8407
-62.1093
-70.762
-71.2685
-71.8787
-71.0483
-69.7073
-68.3946
-67.8914
-67.6387
-67.641
-67.8066
-67.8762
-66.3484
-65.6633
-65.0931
-64.3183
-71.6228
-71.7888
-72.0851
-72.0334
-70.9593
-70.0175
-69.7891
-69.2537
-69.1911
-69.1962
-69.0936
-68.6608
-69.0768
-68.1461
-68.2977
-65.7237
-72.3266
-72.3987
-72.4697
-72.7334
-72.4607
-71.5816
-71.0295
-70.6956
-70.2167
-69.9182
-70.1614
-71.0875
-70.6683
-70.1437
-69.7068
-69.0177
-67.2773
-72.1167
-71.9934
-72.0595
-72.0125
-72.0939
-72.0722
-72.0177
-71.8474
-71.7444
-71.6286
-71.6221
-71.4274
-71.7
-72.0153
-71.5984
-71.3729
-71.7829
-71.164
-72.4031
-72.1987
-72.0918
-71.9491
-71.8213
-71.635
-72.1867
-72.4411
-72.5154
-72.5958
-72.4856
-72.5642
-72.8279
-73.286
-73.224
-72.7307
-72.7113
-73.1856
-73.2435
-53.4593
-53.6909
-53.6687
-53.7151
-53.7033
-53.7742
-53.8418
-53.8835
-53.9463
-53.9506
-54.1228
-54.1158
-54.1033
-54.1713
-54.199
-54.4396
-54.4102
-54.4895
-54.3842
-54.5031
-54.5216
-54.8059
-54.7542
-54.7328
-54.6903
-54.6932
-54.748
-54.735
-55.2488
-55.1521
-55.1625
-55.189
-55.1676
-55.1638
-55.1251
-55.3769
-56.022
-55.8081
-55.7647
-55.5783
-55.6498
-55.7249
-55.7174
-55.8849
-55.5609
-56.9108
-56.5109
-56.4531
-56.4886
-56.4798
-56.3488
-56.344
-56.2374
-56.3074
-56.1437
-58.1418
-57.9522
-57.5127
-57.7068
-57.4207
-57.1856
-57.3177
-57.0927
-57.0944
-56.9784
-56.8511
-59.9103
-59.8554
-59.5572
-59.4438
-59.1929
-58.979
-58.7406
-58.4154
-58.2336
-57.6231
-57.8493
-57.8303
-62.8422
-61.4288
-61.9659
-61.6327
-61.3856
-61.0671
-61.0003
-60.515
-59.9068
-59.1935
-58.8485
-58.4992
-58.6444
-65.7589
-65.8883
-65.5216
-64.8728
-64.1985
-64.2394
-63.0504
-62.9988
-62.3258
-61.6535
-61.4348
-60.6489
-60.6155
-60.6388
-69.37
-69.7658
-69.6192
-68.6924
-67.3026
-66.2707
-65.9435
-66.314
-66.328
-65.2925
-64.2976
-63.5327
-63.0307
-62.6109
-62.2689
-70.8202
-70.7574
-71.322
-71.6992
-70.9264
-69.4756
-68.1406
-67.7967
-67.7418
-67.4206
-67.5785
-67.4679
-66.0668
-65.6517
-65.002
-64.5449
-71.642
-71.7323
-71.8971
-72.1657
-71.9516
-70.7891
-69.8722
-69.7488
-69.1602
-69.1416
-68.9287
-69.0152
-68.5149
-69.103
-68.337
-68.2272
-65.7608
-72.3676
-72.4371
-72.4945
-72.5584
-72.7106
-72.307
-71.4528
-70.7471
-70.5666
-70.1177
-69.901
-70.1627
-71.127
-70.7575
-70.2322
-69.7308
-69.3851
-67.7131
-72.3307
-72.1377
-72.0228
-72.0719
-71.9992
-72.0035
-71.9425
-71.8616
-71.7523
-71.7049
-71.6125
-71.5842
-71.5026
-71.7638
-72.1087
-71.7318
-71.384
-72.125
-71.6292
-72.5163
-72.4156
-72.2043
-72.0919
-71.9352
-71.7733
-71.6015
-72.1572
-72.4091
-72.4898
-72.5823
-72.48
-72.5775
-72.8557
-73.3359
-73.2223
-72.7892
-72.8302
-73.3237
-73.0993
-53.3168
-53.3933
-53.4696
-53.7451
-53.7479
-53.7106
-53.748
-53.7594
-53.7595
-53.7835
-53.9378
-53.9151
-53.9272
-53.9547
-53.9721
-54.1915
-54.1907
-54.1842
-54.1583
-54.2355
-54.2231
-54.5183
-54.5146
-54.3931
-54.4258
-54.4312
-54.5607
-54.5606
-54.8799
-54.8214
-54.7279
-54.7616
-54.7853
-54.8074
-54.7828
-54.6772
-55.3921
-55.1682
-55.2237
-55.12
-55.2194
-55.2326
-55.1989
-55.1658
-55.2376
-56.0531
-55.9128
-55.835
-55.7527
-55.6696
-55.6416
-55.7326
-55.6962
-55.7736
-55.7072
-56.93
-56.8236
-56.5351
-56.4941
-56.5139
-56.2403
-56.3364
-56.2956
-56.2449
-56.2622
-56.1455
-58.2892
-58.0768
-57.6286
-57.7264
-57.6687
-57.087
-57.2387
-57.3442
-57.1753
-57.049
-56.8996
-56.8657
-60.1603
-59.8045
-59.8245
-59.3328
-59.1059
-59.2779
-58.9489
-58.7442
-58.3212
-58.0358
-57.5288
-57.8059
-57.8531
-62.7473
-62.6402
-61.7445
-61.7782
-61.4583
-61.2056
-61.0134
-60.7671
-60.3801
-59.8232
-59.2069
-58.9403
-58.4716
-58.7221
-65.8343
-65.8018
-65.8032
-65.5604
-64.7191
-64.2452
-63.879
-63.4224
-62.9374
-62.4082
-61.8064
-61.1662
-60.3859
-60.6348
-60.6019
-69.3887
-69.4592
-69.802
-69.8136
-68.5078
-67.0642
-66.0853
-65.8133
-66.2275
-65.7932
-64.9216
-64.1421
-63.7952
-62.9972
-62.5061
-62.3803
-71.2195
-70.9573
-70.931
-71.3921
-71.6493
-70.656
-69.19
-68.0025
-67.6659
-67.7433
-67.1993
-67.2918
-67.0816
-66.0393
-65.6703
-64.9677
-64.5077
-71.7734
-71.7579
-71.8797
-72.0204
-72.213
-71.7498
-70.593
-69.8054
-69.6231
-69.0497
-68.9926
-68.651
-69.0193
-68.4818
-69.1377
-68.218
-68.3052
-65.8945
-72.7043
-72.4075
-72.5437
-72.5906
-72.6352
-72.6441
-72.1184
-71.3041
-70.6279
-70.5157
-70.0395
-69.9191
-70.098
-71.1249
-70.8003
-70.3999
-69.7561
-69.5757
-68.1817
-72.4169
-72.3553
-72.1646
-72.0653
-72.0846
-71.9794
-71.8928
-71.8184
-71.76
-71.6956
-71.6628
-71.5936
-71.5745
-71.576
-71.8307
-72.2187
-71.8281
-71.4432
-72.4723
-72.1177
-72.3816
-72.5244
-72.4281
-72.2098
-72.0922
-71.9196
-71.7294
-71.5735
-72.1317
-72.3834
-72.4698
-72.5709
-72.4771
-72.6007
-72.8866
-73.3736
-73.2325
-72.8485
-72.9596
-73.5475
-73.058
-53.1922
-53.3013
-53.3213
-53.6137
-53.4599
-53.4777
-53.5946
-53.7049
-53.7633
-53.7329
-53.8547
-53.7882
-53.788
-53.8051
-53.8076
-54.1441
-53.973
-53.9575
-53.951
-53.9948
-54.0011
-54.2533
-54.1962
-54.1647
-54.2138
-54.1999
-54.2551
-54.2501
-54.5919
-54.5289
-54.4665
-54.4706
-54.4538
-54.5026
-54.5727
-54.6131
-54.9894
-54.8634
-54.8046
-54.7746
-54.7892
-54.8411
-54.8021
-54.809
-54.694
-55.5089
-55.3564
-55.318
-55.2113
-55.183
-55.2031
-55.2553
-55.2609
-55.1849
-55.279
-56.2078
-56.0513
-55.9064
-55.7304
-55.773
-55.6584
-55.716
-55.6975
-55.6697
-55.6132
-55.6884
-57.0797
-57.0443
-56.7028
-56.6242
-56.5657
-56.3872
-56.361
-56.2998
-56.29
-56.2013
-56.2907
-56.0691
-58.4886
-58.0901
-57.8643
-57.7256
-57.7536
-57.5561
-57.4288
-57.4317
-57.1746
-57.124
-56.9312
-56.7778
-56.8461
-60.2858
-60.0812
-59.8653
-59.6766
-59.2763
-59.1845
-59.3219
-58.8819
-58.6953
-58.3092
-58.0262
-57.5
-57.8414
-57.8935
-62.8784
-62.8115
-62.5137
-62.3113
-61.5262
-61.2879
-61.1855
-61.0021
-60.6173
-60.2325
-59.8485
-59.1689
-58.9103
-58.532
-58.8804
-65.9102
-65.8898
-65.861
-65.845
-65.2315
-64.7095
-64.2689
-63.7546
-63.0435
-62.7026
-62.4797
-61.8074
-61.4053
-60.7274
-60.6409
-60.6031
-69.8408
-69.3072
-69.6413
-69.9899
-69.6401
-68.2683
-66.544
-65.841
-65.8274
-65.9307
-65.4327
-65.0096
-63.8642
-63.4435
-62.5958
-62.4767
-62.3139
-71.6743
-71.1793
-71.1287
-71.1335
-71.3979
-71.4634
-70.4693
-68.867
-67.8652
-67.4775
-67.5101
-66.9651
-67.1036
-66.8904
-66.0827
-65.5788
-64.854
-64.3188
-72.2816
-71.7943
-71.9056
-72.1277
-72.1955
-72.1622
-71.5076
-70.333
-69.7612
-69.5379
-68.9354
-68.7705
-68.5561
-68.9768
-68.489
-68.9801
-68.2434
-68.3324
-66.0358
-72.9986
-72.6959
-72.4859
-72.6513
-72.7053
-72.6979
-72.5664
-71.9542
-71.2026
-70.6578
-70.4066
-69.9991
-69.9084
-70.04
-71.1216
-70.8826
-70.487
-69.7744
-69.953
-68.794
-72.4183
-72.468
-72.3818
-72.1982
-72.1087
-72.0937
-71.9529
-71.7816
-71.6776
-71.669
-71.6646
-71.6205
-71.5839
-71.5985
-71.6555
-71.9338
-72.3362
-71.9142
-71.5328
-72.7481
-72.5725
-72.3506
-72.3805
-72.5308
-72.4425
-72.2159
-72.0925
-71.9032
-71.6957
-71.5503
-72.1097
-72.3627
-72.4553
-72.5629
-72.4845
-72.6159
-72.9183
-73.3884
-73.2445
-72.9089
-73.0993
-73.4805
-73.306
-53.1231
-53.1742
-53.2199
-53.3231
-53.2768
-53.3598
-53.5201
-53.5805
-53.492
-53.4968
-53.618
-53.6045
-53.7156
-53.7563
-53.7463
-53.7705
-53.8149
-53.8142
-53.8225
-53.8021
-53.8464
-54.0428
-54.0096
-53.9939
-53.9996
-53.9169
-54.0313
-54.0377
-54.312
-54.2579
-54.2081
-54.205
-54.1277
-54.2195
-54.263
-54.2394
-54.6999
-54.6015
-54.5689
-54.5094
-54.5058
-54.5604
-54.5845
-54.6086
-54.6459
-55.104
-54.9753
-54.9061
-54.8025
-54.8343
-54.8463
-54.8647
-54.8708
-54.8111
-54.7079
-55.6512
-55.4811
-55.3459
-55.1939
-55.2426
-55.203
-55.1718
-55.2271
-55.2163
-55.1832
-55.2284
-56.3607
-56.1608
-56.0394
-55.9062
-55.8022
-55.9297
-55.5975
-55.6526
-55.7234
-55.6241
-55.6404
-55.5417
-57.2515
-57.1155
-56.9245
-56.8878
-56.712
-56.5866
-56.3575
-56.3273
-56.281
-56.2096
-56.1438
-56.1956
-56.083
-58.7338
-58.3756
-58.124
-57.8968
-57.828
-57.6739
-57.6218
-57.5044
-57.2788
-57.1769
-56.8789
-56.8116
-56.7087
-56.7964
-60.272
-60.3486
-60.0042
-59.7303
-59.5534
-59.6929
-59.1591
-58.8546
-58.7433
-58.6447
-58.2478
-58.0241
-57.6225
-57.8853
-57.9844
-63.0507
-62.9103
-62.6982
-62.1953
-62.1207
-61.3935
-61.2629
-61.1462
-60.9049
-60.8439
-60.2707
-59.8315
-59.0981
-58.9099
-58.7219
-58.987
-66.3304
-65.9002
-65.9092
-65.9288
-65.7457
-65.2276
-64.5194
-64.0403
-63.7019
-62.8124
-62.6119
-62.4246
-61.8202
-61.1358
-60.8643
-60.6094
-60.5916
-70.3867
-69.8433
-69.333
-69.6889
-70.0907
-69.4852
-68.0901
-66.3332
-65.7012
-65.7058
-65.6965
-65.232
-64.9412
-64.1569
-63.5077
-62.8004
-62.1962
-62.1377
-72.4076
-71.6261
-71.3241
-71.3933
-71.3582
-71.3881
-71.2482
-70.2519
-68.5436
-67.4048
-67.4758
-67.4131
-66.9493
-67.0571
-66.767
-65.9732
-65.4902
-64.8895
-64.1798
-72.8202
-72.2773
-71.8503
-72.074
-72.304
-72.3267
-72.0102
-71.2404
-70.0791
-69.7224
-69.4626
-68.8393
-68.6611
-68.3509
-68.9885
-68.5941
-68.7601
-68.3163
-68.5736
-66.4224
-72.8742
-73.0321
-72.7027
-72.547
-72.7646
-72.7985
-72.7602
-72.4709
-71.7862
-71.0139
-70.4441
-70.3232
-69.9759
-69.8921
-70.0223
-71.1814
-71.0855
-70.5293
-69.7855
-70.2676
-69.3967
-72.3286
-72.48
-72.5081
-72.4107
-72.2303
-72.1518
-72.0976
-71.921
-71.673
-71.5567
-71.6101
-71.6398
-71.5932
-71.5932
-71.6298
-71.7632
-72.0742
-72.464
-71.9786
-71.6272
-73.1764
-72.8511
-74.3449
-72.2884
-72.3499
-72.3796
-72.535
-72.4539
-72.2227
-72.0927
-71.8858
-71.6706
-71.5366
-72.0917
-72.3482
-72.4442
-72.5607
-72.4934
-72.6312
-72.9521
-73.4146
-73.2534
-72.9813
-73.253
-73.3861
-73.8581
-53.0363
-53.1222
-53.1612
-53.2057
-53.2311
-53.2466
-53.3532
-53.3703
-53.3585
-53.3981
-53.5231
-53.5102
-53.5824
-53.4392
-53.5865
-53.567
-53.7059
-53.6722
-53.7473
-53.776
-53.7191
-53.8669
-53.8267
-53.8226
-53.811
-53.7416
-53.8967
-53.8874
-54.0956
-54.0936
-54.0678
-54.0122
-53.9571
-54.0375
-54.0409
-54.0451
-54.3773
-54.3553
-54.3131
-54.1976
-54.2749
-54.1827
-54.31
-54.2547
-54.2359
-54.7756
-54.7268
-54.5659
-54.5273
-54.5451
-54.573
-54.6297
-54.5031
-54.6137
-54.6273
-55.2121
-55.0988
-54.942
-54.8771
-54.8583
-54.8718
-54.7708
-54.8828
-54.8714
-54.8453
-54.8024
-55.761
-55.5947
-55.5394
-55.38
-55.267
-55.2627
-55.167
-55.1944
-55.2023
-55.2059
-55.0338
-55.1228
-56.5483
-56.4162
-56.202
-55.9807
-55.9128
-55.7889
-55.5445
-55.6162
-55.6146
-55.6648
-55.5574
-55.7131
-55.5182
-57.5344
-57.3405
-57.1095
-56.8823
-56.9504
-56.6368
-56.5005
-56.4228
-56.3322
-56.283
-56.186
-56.1183
-56.0723
-56.0715
-58.8659
-58.5704
-58.3519
-58.0787
-57.8651
-57.8912
-57.5787
-57.5293
-57.4541
-57.3299
-56.9969
-56.8418
-56.7564
-56.795
-56.7804
-60.6015
-60.3601
-60.2489
-60.0651
-59.8743
-59.4935
-59.1683
-59.0974
-58.8254
-58.7503
-58.5977
-57.9986
-57.9396
-57.3303
-58.0287
-58.1573
-63.1986
-63.056
-62.9364
-62.7556
-62.4863
-62.1639
-61.5835
-61.178
-60.9716
-60.8697
-60.6901
-60.1636
-59.7899
-59.1595
-59.1021
-58.7403
-58.9823
-66.6958
-66.2613
-65.9682
-66.0559
-66.1131
-65.6986
-65.2138
-64.2853
-63.8524
-63.5734
-62.6101
-62.7883
-62.3124
-61.6825
-61.1765
-60.8229
-60.7433
-60.292
-70.5574
-70.1248
-69.747
-69.6827
-69.819
-70.0698
-69.2629
-68.0079
-66.1565
-65.5643
-65.7096
-65.4835
-64.9206
-64.7819
-64.0411
-63.6374
-62.9576
-62.3033
-62.0279
-73.3189
-72.3603
-71.7733
-71.5163
-71.5958
-71.6503
-71.3221
-71.0036
-69.9225
-67.996
-67.0208
-67.3083
-67.2733
-66.8237
-67.0674
-66.6627
-65.9397
-65.4631
-64.9669
-64.1534
-73.1296
-72.8979
-72.2582
-71.953
-72.2761
-72.4287
-72.4595
-71.8435
-70.8525
-69.8776
-69.7026
-69.2938
-68.7311
-68.54
-68.2294
-69.0146
-68.6898
-68.8018
-68.4525
-68.7807
-66.9502
-72.4499
-73.044
-73.0536
-72.7255
-72.6085
-72.87
-72.8937
-72.8143
-72.3496
-71.5582
-70.8598
-70.3213
-70.2642
-69.9542
-69.8485
-70.0733
-71.3028
-71.3433
-70.6688
-69.916
-70.7136
-69.9686
-73.8051
-72.5409
-72.4075
-72.5305
-72.542
-72.44
-72.266
-72.198
-72.093
-71.8763
-71.5822
-71.4475
-71.6181
-71.6075
-71.5844
-71.5999
-71.6582
-71.8938
-72.217
-72.6386
-72.036
-71.6995
-73.5394
-72.9895
-73.9082
-74.1048
-72.3198
-72.308
-72.3466
-72.3786
-72.5403
-72.4618
-72.2298
-72.093
-71.868
-71.6518
-71.5236
-72.0779
-72.3386
-72.4369
-72.5651
-72.4979
-72.65
-72.9907
-73.4615
-73.2645
-73.0562
-73.422
-73.3644
-52.9187
-53.0352
-53.0837
-53.1418
-53.1634
-53.1673
-53.2659
-53.242
-53.2942
-53.288
-53.3897
-53.4112
-53.4565
-53.3964
-53.3771
-53.5823
-53.5393
-53.5619
-53.6033
-53.645
-53.5716
-53.7162
-53.6134
-53.7445
-53.6711
-53.7677
-53.7251
-53.7796
-53.9847
-53.8844
-53.8713
-53.8182
-53.8535
-53.9114
-53.9043
-53.8905
-54.2072
-54.1144
-54.0865
-54.0168
-54.067
-54.0041
-54.0519
-54.0419
-54.0412
-54.4391
-54.4228
-54.3556
-54.3045
-54.414
-54.2963
-54.2505
-54.2378
-54.2729
-54.2651
-54.8804
-54.7999
-54.6726
-54.5705
-54.5729
-54.5367
-54.5657
-54.5982
-54.5448
-54.5572
-54.5829
-55.3995
-55.2488
-55.064
-55.0049
-54.8864
-54.9297
-54.8158
-54.8674
-54.8395
-54.8692
-54.8916
-54.8388
-55.9758
-55.8227
-55.6217
-55.5135
-55.419
-55.2776
-55.2247
-55.1157
-55.1131
-55.1415
-55.1355
-55.0717
-55.0635
-56.7836
-56.5395
-56.3419
-56.1517
-56.0168
-55.8775
-55.724
-55.6543
-55.7146
-55.5756
-55.5954
-55.5384
-55.5671
-55.5646
-57.7668
-57.3617
-57.3536
-57.1292
-57.1072
-56.2403
-56.5871
-56.5095
-56.4384
-56.2866
-56.2333
-56.1585
-55.9971
-56.1095
-56.1233
-59.1071
-58.823
-58.6542
-58.3799
-58.1648
-57.8157
-57.7537
-57.6521
-57.4617
-57.3943
-57.2808
-56.999
-56.8668
-56.7641
-56.8768
-56.8158
-60.8394
-60.6291
-60.4732
-60.2791
-60.1267
-59.7804
-59.5563
-59.2654
-58.9489
-58.8126
-58.6515
-58.4812
-57.7476
-57.9895
-57.5432
-58.0998
-58.1982
-63.4353
-63.3013
-63.1763
-62.8796
-62.8373
-62.4917
-62.1954
-61.4539
-61.1554
-60.9492
-60.575
-60.5769
-60.0966
-59.5283
-59.0312
-59.2276
-58.8856
-58.9551
-67.2012
-66.757
-66.139
-66.0952
-66.1774
-65.9423
-65.7552
-65.0519
-63.9982
-63.7102
-63.1503
-62.4482
-62.6857
-62.162
-61.7273
-61.1527
-60.815
-60.59
-59.8801
-70.9112
-70.6737
-69.9733
-69.9213
-69.7652
-69.9847
-70.0012
-69.3535
-67.7138
-65.8575
-65.5395
-65.7432
-65.307
-64.8592
-64.6445
-64.1322
-63.6306
-62.9335
-62.4631
-61.8919
-73.8175
-73.4075
-72.189
-71.7244
-71.7908
-71.8528
-71.6341
-71.1957
-70.6782
-69.6301
-67.7664
-66.8333
-67.1479
-67.1447
-66.7535
-66.7111
-66.6773
-65.9026
-65.4975
-64.9125
-63.8773
-73.2474
-73.3319
-72.8951
-72.2666
-72.1294
-72.4982
-72.5623
-72.4007
-71.6512
-70.54
-69.7491
-69.6929
-69.0987
-68.6926
-68.4311
-68.2404
-68.91
-68.5363
-68.8591
-68.3489
-68.7467
-67.5156
-71.3017
-72.2079
-72.6885
-73.1704
-73.0468
-72.7418
-72.6978
-72.9652
-72.9734
-72.8519
-72.2039
-71.3676
-70.6621
-70.147
-70.1923
-69.9624
-69.8251
-70.0845
-71.5227
-71.536
-71.054
-69.941
-71.3051
-70.5358
-74.7664
-73.3679
-72.1719
-72.6354
-72.4833
-72.5825
-72.5714
-72.4678
-72.3013
-72.236
-72.0862
-71.8092
-71.4869
-71.3787
-71.6213
-71.5771
-71.6005
-71.6049
-71.693
-72.0412
-72.3449
-72.8498
-72.1766
-71.745
-73.9843
-74.0056
-73.5557
-71.7096
-72.3575
-72.328
-72.3431
-72.3783
-72.5472
-72.4718
-72.2378
-72.0935
-71.8505
-71.6388
-71.5058
-72.0693
-72.3313
-72.4344
-72.5771
-72.5054
-72.6737
-73.0388
-73.5118
-73.294
-73.1292
-73.6115
-52.9044
-52.9527
-53.0598
-53.0653
-52.9621
-53.1733
-53.1663
-53.1367
-53.1882
-53.2647
-53.2784
-53.2898
-53.2839
-53.3049
-53.4386
-53.3428
-53.3934
-53.4358
-53.4147
-53.4105
-53.6101
-53.6078
-53.5723
-53.6814
-53.6677
-53.5863
-53.5632
-53.7852
-53.7186
-53.6948
-53.728
-53.6775
-53.6505
-53.7918
-53.7784
-54.0322
-53.9286
-53.9115
-53.8921
-53.8567
-53.9347
-53.9458
-53.9114
-53.907
-54.2717
-54.1914
-54.1449
-54.1003
-54.0834
-54.0771
-53.9642
-54.058
-54.0784
-54.0996
-54.5658
-54.4866
-54.4566
-54.363
-54.33
-54.3383
-54.3244
-54.3116
-54.2617
-54.3024
-54.2523
-54.9946
-54.9121
-54.7836
-54.6932
-54.6558
-54.5987
-54.564
-54.537
-54.5812
-54.5359
-54.5524
-54.5521
-55.5604
-55.4221
-55.2143
-55.1448
-55.0362
-54.9108
-54.867
-54.8516
-54.8613
-54.8003
-54.887
-54.9044
-54.8462
-56.2268
-55.8731
-55.78
-55.6903
-55.5067
-55.4186
-55.3395
-55.25
-55.0988
-55.1348
-55.0953
-55.0733
-55.1045
-55.0628
-57.0133
-56.7194
-56.4493
-56.3203
-56.1562
-55.9662
-55.8821
-55.75
-55.6636
-55.6835
-55.5991
-55.6796
-55.4649
-55.4475
-55.5936
-57.9638
-57.6732
-57.651
-57.3105
-57.1899
-56.9818
-56.8183
-56.6189
-56.4574
-56.3753
-56.3597
-56.3302
-56.0855
-55.9861
-56.1497
-56.1487
-59.1302
-59.1613
-58.7214
-58.3738
-58.1506
-57.9877
-57.9605
-57.7628
-57.6126
-57.5256
-57.3988
-57.2478
-57.0774
-56.88
-56.833
-56.8913
-56.7977
-61.0252
-60.9194
-60.6329
-60.3819
-60.1197
-59.9049
-59.7973
-59.5124
-59.3478
-58.7819
-58.7827
-58.6043
-58.3231
-58.7702
-57.8823
-57.8738
-58.1142
-58.2347
-63.9124
-63.6034
-63.1746
-62.8601
-62.8056
-62.7179
-62.5979
-61.8081
-61.3972
-61.0771
-60.9146
-60.5309
-60.4792
-60.0972
-59.6795
-59.2063
-59.1441
-59.0339
-58.8471
-67.2797
-66.9694
-66.1485
-66.2562
-66.2059
-66.0694
-65.937
-65.6459
-64.7801
-63.905
-63.5923
-63.0626
-62.5074
-62.5519
-62.1931
-61.6716
-61.0542
-60.7824
-60.3364
-59.7045
-70.8038
-71.0497
-70.5407
-70.1065
-69.9812
-69.896
-70.0734
-69.775
-68.9472
-67.2448
-65.879
-65.456
-65.4494
-65.1326
-64.6552
-64.5386
-64.1574
-63.5978
-63.0208
-62.6552
-61.9674
-73.419
-73.9761
-73.102
-72.1578
-71.9958
-72.0143
-72.0966
-71.5549
-71.0127
-70.5613
-69.2231
-67.5257
-66.5351
-67.0584
-67.0227
-66.6569
-66.5247
-66.3063
-65.8154
-65.4514
-64.7398
-63.9326
-68.5815
-72.8338
-73.5739
-73.4175
-72.8696
-72.3175
-72.3093
-72.6829
-72.623
-72.3637
-71.4029
-70.4138
-69.6247
-69.5584
-68.9393
-68.6583
-68.32
-68.0252
-68.6931
-68.3361
-68.1744
-68.2538
-68.7688
-67.7164
-73.035
-70.9642
-71.5591
-72.4385
-72.9217
-73.2779
-73.0241
-72.762
-72.8016
-73.0482
-73.0318
-72.8689
-72.0414
-71.1757
-70.4309
-70.0838
-70.1443
-69.9471
-69.8572
-70.0808
-71.6626
-71.8229
-71.3887
-70.147
-71.7397
-72.1473
-74.3898
-71.3559
-72.305
-72.7328
-72.5614
-72.626
-72.5946
-72.496
-72.3414
-72.2579
-72.078
-71.7228
-71.3738
-71.3368
-71.6247
-71.5825
-71.6343
-71.6269
-71.7337
-72.1601
-72.4813
-73.0293
-72.408
-71.7791
-73.3372
-73.7988
-71.8053
-71.3654
-72.3966
-72.3469
-72.3388
-72.3782
-72.5515
-72.4821
-72.2464
-72.0946
-71.8348
-71.6209
-71.5193
-72.0628
-72.3241
-72.4364
-72.5971
-72.5205
-72.7035
-73.0977
-73.5532
-73.3535
-73.1899
-52.903
-52.9417
-52.9766
-53.0902
-53.0646
-53.0557
-53.1417
-53.1927
-53.2008
-53.1616
-53.2603
-53.1965
-53.3337
-53.2859
-53.3591
-53.309