/*--------------------------------*- C++ -*----------------------------------*\
  =========                 |
  \\      /  F ield         | OpenFOAM: The Open Source CFD Toolbox
   \\    /   O peration     | Website:  https://openfoam.org
    \\  /    A nd           | Version:  7
     \\/     M anipulation  |
\*---------------------------------------------------------------------------*/
FoamFile
{
    version     2.0;
    format      ascii;
    class       surfaceScalarField;
    location    "8.5";
    object      phi;
}
// * * * * * * * * * * * * * * * * * * * * * * * * * * * * * * * * * * * * * //

dimensions      [0 3 -1 0 0 0 0];

internalField   nonuniform List<scalar> 
54125
(
-6.10718e-05
1.03861e-05
-0.00158825
0.000150037
4.65173e-05
-0.000946924
-9.52071e-05
2.31686e-06
-0.00074478
-6.09432e-05
8.71314e-06
-0.00153602
0.000621997
2.61972e-05
-0.00295109
-3.41889e-05
3.66737e-05
0.000101833
0.00015695
5.71336e-05
-0.00122195
-5.08146e-05
-2.38496e-05
-0.000974334
-0.000104676
2.57243e-06
-0.000633963
-4.61525e-05
6.65385e-06
-0.00149652
0.000412662
0.000638607
-0.00579391
0.00040377
-5.17687e-05
-0.000799985
0.000522937
-7.18542e-05
-0.00324523
-2.7448e-05
-7.42279e-06
-0.0011124
1.46409e-05
4.78143e-05
-8.16493e-06
0.000231257
5.89755e-05
-0.00155834
-2.19842e-05
-4.55452e-05
-0.00209229
-6.25505e-05
-2.27171e-05
-0.000886493
-0.00011805
2.31562e-06
-0.000511575
-4.08998e-05
6.83972e-06
-0.00146246
-0.000347996
0.000844705
-0.00592951
0.00052689
0.000682695
-0.00471608
0.000153304
0.000615325
-0.0060396
0.000108701
-8.35428e-05
6.53075e-05
0.000502931
-0.000122027
-0.0012381
0.000507591
-0.000116759
-0.0034048
-5.58152e-05
-2.68853e-05
-0.00197168
-4.93511e-05
-9.19068e-06
-0.0010686
2.84236e-05
6.64917e-05
-0.000162155
0.000248372
5.16662e-05
-0.00189927
-1.69015e-05
-5.5668e-05
-0.00167593
-3.29952e-05
-4.62651e-05
-0.00203575
-7.60299e-05
-2.07456e-05
-0.000787402
-0.000132251
3.09027e-06
-0.000375574
-4.27265e-05
6.5665e-06
-0.0014263
-0.000919027
0.00041398
-0.00523559
-8.01643e-05
0.00108751
-0.00598825
-0.000600404
0.000756077
-0.00593188
0.000421558
0.000623982
-0.00432233
0.000540198
0.000576607
-0.00471463
6.694e-05
0.000568218
-0.00616717
7.03742e-05
-0.000129222
-0.00137518
0.00019193
-8.57546e-05
-0.000212246
0.000517395
-0.00021149
-0.00163234
0.000435651
-0.000133335
-0.00345875
-1.44733e-05
-0.000108025
-0.00261647
-7.1119e-05
-3.22527e-05
-0.00191049
-8.67157e-05
-3.03009e-06
-0.000988388
1.46576e-05
8.5887e-05
-0.000343285
0.000231632
5.46946e-05
-0.00222833
-7.32123e-06
-4.91988e-05
-0.0013939
-2.56927e-05
-5.54266e-05
-0.00164108
-4.19197e-05
-4.64569e-05
-0.00196811
-8.73627e-05
-2.02139e-05
-0.000676735
-0.000142064
5.09697e-06
-0.000232041
-4.52786e-05
4.36676e-06
-0.00138538
-0.00122841
0.000321633
-0.0049512
-0.00054349
0.000619456
-0.00693571
-0.000812091
0.000466589
-0.00549049
0.000296994
0.00107355
-0.00665993
-5.22726e-05
0.00106379
-0.00570349
-0.000723727
0.000704386
-0.0058456
0.000530794
0.000332542
-0.0031373
0.000532604
0.0004345
-0.00452089
0.000541162
0.000575205
-0.00474538
4.80435e-05
0.000530011
-0.00630957
4.32031e-06
-5.78159e-05
-0.00175378
8.0274e-05
-0.000144562
-0.00146777
0.000137741
-7.13917e-05
-0.000576801
0.000502135
-0.000211013
-0.00204214
0.000323905
-6.89669e-05
-0.00348205
8.9727e-05
-0.000125646
-0.00156542
-3.65624e-08
-0.000105453
-0.00256893
-8.14487e-05
1.18108e-05
-0.0018858
-0.000118633
-2.43302e-06
-0.000868798
3.57796e-05
0.000112607
-0.000579041
0.000186821
8.02871e-05
-0.00254071
-2.02021e-05
-4.46024e-05
-0.00159008
-1.00041e-05
-4.90109e-05
-0.00139031
-2.79787e-05
-5.5212e-05
-0.00160434
-5.36608e-05
-4.67452e-05
-0.00188792
-0.000100525
-1.81491e-05
-0.000552965
-0.000142272
5.31958e-06
-9.07219e-05
-5.00081e-05
1.60042e-06
-0.00133698
-0.00144626
0.000256392
-0.00391002
-0.000653772
0.000556731
-0.00584881
-0.00114994
0.000367177
-0.00498053
0.000150196
0.000960416
-0.00771715
-0.000506345
0.000654937
-0.00666998
-0.00116956
0.000458151
-0.00550281
0.000541577
0.000924567
-0.00662011
0.000271752
0.00106726
-0.00640255
0.000163345
0.00103438
-0.00565566
-0.000661755
0.000586349
-0.00572215
0.000118524
4.29819e-05
-0.00160313
0.000594912
0.000106079
-0.00332351
0.000491711
0.000331044
-0.0046307
0.000642313
0.000589455
-0.00494501
-4.32727e-05
0.000565073
-0.00650747
0.000153902
0.00015274
-0.00246207
7.83327e-05
-7.55335e-05
-0.00190118
4.93001e-05
-0.000150546
-0.00151936
7.60007e-05
-1.55817e-05
-0.000966865
0.000480713
-0.000112937
-0.00244311
0.000197578
3.90117e-06
-0.00349671
8.07305e-05
-0.000138449
-0.0016152
9.98421e-05
-0.000126771
-0.00165395
9.86549e-06
-4.68997e-05
-0.00254806
-0.000105511
-1.87574e-05
-0.00181763
-0.000148557
8.21238e-06
-0.00071637
7.82125e-05
0.000139484
-0.000858721
0.000137155
0.000106456
-0.00283433
-1.79829e-05
-4.30186e-05
-0.00143704
-2.91493e-05
-4.38874e-05
-0.00156605
-1.15544e-05
-4.90209e-05
-0.00138494
-4.02111e-05
-5.52301e-05
-0.00155565
-6.21859e-05
-4.71979e-05
-0.00179669
-0.000109388
-1.66444e-05
-0.000421612
-0.000123242
4.08738e-06
3.00336e-05
-5.55525e-05
1.00488e-06
-0.00128243
-0.00139224
3.46241e-05
-0.00439844
-0.000576185
0.000349206
-0.00611295
-0.00133338
0.000321589
-0.00404817
-5.28941e-05
0.000758756
-0.00655836
-0.000412757
0.000548725
-0.00612394
-0.00141951
0.000302876
-0.00503345
0.000601725
0.00116322
-0.00745346
-4.12591e-05
0.000866316
-0.00761552
1.0306e-06
0.0007263
-0.00677582
-0.00122634
0.000469583
-0.00540781
0.000526361
0.000854938
-0.00512393
0.000498434
0.000797709
-0.00625408
0.00028371
0.00129596
-0.00645613
0.000435321
0.000960906
-0.00582323
-0.000590975
0.000565272
-0.00573972
0.000244216
-0.000190238
-0.00193569
0.000209441
-9.82505e-05
-0.0015299
0.000636785
-5.25526e-05
-0.0035274
0.000535558
0.000247952
-0.00474875
0.000255396
0.000663533
-0.00481815
-0.000243422
0.000499532
-0.006566
0.00023513
0.000161669
-0.0021942
0.00016702
2.94805e-05
-0.00263427
9.91533e-05
-7.16004e-05
-0.00206941
1.09307e-05
-0.000142957
-0.00150843
6.59762e-05
7.15589e-05
-0.00136589
0.000501952
1.76775e-05
-0.00288062
7.65497e-05
9.96673e-05
-0.00353577
8.38267e-05
-0.00019394
-0.00194488
9.67371e-05
-0.000130055
-0.0017378
8.60576e-05
-0.000102186
-0.00169628
-1.69e-05
-5.23198e-05
-0.00253781
-0.000127064
-1.42785e-05
-0.00173026
-0.000153979
1.48119e-05
-0.000547108
0.000119089
0.000151419
-0.00114602
0.000101415
8.25578e-05
-0.00307386
1.98576e-06
-5.83009e-05
-0.000937475
-2.68326e-05
-4.28883e-05
-0.0014112
-3.27655e-05
-4.41373e-05
-0.00153817
-1.53183e-05
-4.93637e-05
-0.00137549
-5.38972e-05
-5.48697e-05
-0.00149408
-7.19376e-05
-4.84272e-05
-0.00169297
-0.000112721
-1.57486e-05
-0.000289056
-0.000100296
4.20514e-06
0.00012713
-6.03394e-05
2.48372e-06
-0.00122457
-0.00141342
-3.75258e-05
-0.0042609
-0.000713734
0.000155218
-0.00517688
-0.00119725
1.2918e-05
-0.00454747
-0.000268257
0.000556892
-0.0057824
-0.000361874
0.000385986
-0.00622823
-0.00125708
9.19096e-05
-0.00430251
0.000361567
0.00104403
-0.00681301
-0.000183982
0.000695875
-0.00656279
-2.79044e-05
0.00065656
-0.00644869
-0.00142161
0.000354468
-0.00519264
0.000828858
0.00125046
-0.00725347
0.000288237
0.00117682
-0.00755377
2.32445e-05
0.000817297
-0.00744605
-7.4618e-06
0.000759751
-0.0066232
-0.00115624
0.000299817
-0.00514237
0.000544989
0.000631886
-0.00314197
0.000441382
0.000755254
-0.00531341
0.000721575
0.00112402
-0.00616692
0.000490072
0.000949439
-0.00639917
0.000206131
0.000981057
-0.00618975
-0.000557401
0.000439536
-0.00586528
0.000159181
-0.000248278
-0.00250451
0.000191772
-0.000250532
-0.00180816
0.000241612
-0.00018769
-0.00153723
0.000431195
-0.000205806
-0.00349391
0.0003568
0.000222481
-0.00459853
0.000264358
0.000687703
-0.00476873
-0.000420965
0.000457132
-0.00652562
0.000252731
0.000114706
-0.00243168
0.00028244
1.10746e-05
-0.0023615
0.00013344
-4.23092e-05
-0.00271094
6.93731e-05
-5.86877e-05
-0.00223996
-2.41084e-05
-0.000119936
-0.00141989
8.45346e-05
0.000153802
-0.00174053
0.000424395
9.80328e-05
-0.00318429
-5.06134e-05
0.000168537
-0.00355228
8.93991e-05
-0.000207273
-0.00196033
7.0596e-05
-0.000184722
-0.00198764
9.22826e-05
-0.000109144
-0.00185589
4.89428e-05
-7.18868e-05
-0.00174097
-5.80618e-05
-3.3521e-05
-0.0025144
-0.000158614
-2.20142e-05
-0.00160676
-0.000147776
2.09093e-05
-0.000381543
0.00013355
0.000121868
-0.00141917
7.16546e-05
2.97715e-05
-0.00323562
2.92634e-05
-7.82201e-05
-0.000489196
-3.32164e-06
-5.90635e-05
-0.000917978
-3.70009e-05
-4.32591e-05
-0.00137508
-3.38642e-05
-4.50108e-05
-0.00150866
-2.17264e-05
-4.88867e-05
-0.00135975
-5.29688e-05
-5.50861e-05
-0.00143445
-8.08431e-05
-4.92886e-05
-0.00157858
-0.00011171
-1.52878e-05
-0.000157853
-8.39912e-05
4.93961e-06
0.000208665
-6.66755e-05
1.73306e-06
-0.00115963
-0.00142012
7.31651e-05
-0.00378587
-0.000877724
4.05333e-05
-0.00494133
-0.00124806
-0.000150118
-0.00405997
-0.000296999
0.000286102
-0.00554445
-0.000619867
0.000155695
-0.00506166
-0.00126703
-4.96279e-06
-0.00453256
-7.18907e-05
0.000882175
-0.00577674
-0.000271162
0.000522674
-0.00583191
-0.000280568
0.000327567
-0.00621122
-0.00132213
0.000110241
-0.00451223
0.000794879
0.00133186
-0.00647315
3.62247e-05
0.00110262
-0.00696774
-7.32697e-05
0.000724396
-0.00653411
-0.00012256
0.00075591
-0.00673504
-0.00131983
0.000373354
-0.0054024
0.000786516
0.0013744
-0.00593213
0.000300549
0.00128003
-0.00721584
0.000413612
0.00105194
-0.00748045
0.000230774
0.000829681
-0.00725668
9.29441e-05
0.000673837
-0.00688403
-0.000909132
0.000272906
-0.00506354
0.000298261
0.000329401
-0.0028683
0.000531833
0.000628598
-0.00335538
0.000622687
0.000768454
-0.00533893
0.000427497
0.000959861
-0.00617365
0.0002741
0.000962753
-0.00629817
9.62707e-05
0.00104064
-0.00662276
-0.000602482
0.000304709
-0.00598847
0.000287437
-0.000279748
-0.00276836
0.000280345
-0.000322139
-0.00243081
0.000196254
-0.000263933
-0.00179473
0.000178977
-0.000267242
-0.00158539
0.000401795
-0.00027893
-0.0034184
0.000350696
0.000193249
-0.00437023
0.000239699
0.000635115
-0.00476201
-0.000627297
0.00035939
-0.00630832
0.000216167
-2.63433e-05
-0.00222469
0.000220955
-1.35443e-05
-0.00255742
0.000284411
-0.000151081
-0.00244485
5.002e-05
-4.3357e-05
-0.00272735
4.56877e-06
-4.24489e-05
-0.00238007
-5.66676e-05
-0.000110575
-0.00125746
5.84124e-05
0.000179726
-0.00202841
0.000407146
0.00011548
-0.00340483
-0.000111115
0.000182983
-0.0035525
0.000129041
-0.000236685
-0.00151367
5.41232e-05
-0.000204176
-0.00199832
6.05393e-05
-0.000158031
-0.00203629
7.91289e-05
-7.92899e-05
-0.00196148
6.95695e-06
-3.3155e-05
-0.00177002
-9.26405e-05
-3.21074e-05
-0.00246464
-0.000187481
-2.02232e-05
-0.00145899
-0.000157921
2.28017e-05
-0.000236265
0.0001217
7.46839e-05
-0.00166978
6.22533e-05
1.07821e-05
-0.00337533
6.17847e-05
-7.99211e-05
-0.000552393
3.75231e-05
-7.70878e-05
-0.000508695
-4.87467e-06
-5.88114e-05
-0.000897551
-4.30786e-05
-4.34706e-05
-0.00133354
-3.60409e-05
-4.50833e-05
-0.00147642
-3.0235e-05
-4.84739e-05
-0.00133613
-6.0735e-05
-5.51249e-05
-0.00136788
-8.78817e-05
-4.98069e-05
-0.00145618
-0.000111359
-1.5283e-05
-2.62714e-05
-8.55835e-05
2.99403e-06
0.000292988
-7.67484e-05
3.40414e-07
-0.00108322
-0.00142636
4.69251e-05
-0.00327888
-0.00110817
0.000177433
-0.00440553
-0.00141773
7.93808e-05
-0.00369558
-0.000423997
8.09794e-05
-0.00488939
-0.00082062
-2.43901e-05
-0.00486631
-0.00121223
-0.000151266
-0.00396351
-0.000165588
0.000426591
-0.00559361
-0.000356373
0.00028783
-0.00559137
-0.000405265
0.000143559
-0.00508549
-0.00130821
-4.42178e-05
-0.00450227
0.000279196
0.00124601
-0.00543136
-0.000123124
0.000794941
-0.00588966
-0.000207135
0.000464971
-0.00583545
-0.000221158
0.000229069
-0.00623145
-0.00117617
8.89421e-05
-0.00474483
0.000649556
0.00162854
-0.005949
0.0003631
0.00130943
-0.00674252
2.77391e-05
0.00103408
-0.00689155
0.000183485
0.000764431
-0.00649534
-0.000326151
0.000741159
-0.00668375
-0.00125481
0.00050986
-0.00556659
0.000555362
0.00140375
-0.00476395
0.000775781
0.00131008
-0.00620613
0.000468062
0.00118683
-0.00719612
0.000293775
0.00106624
-0.00758329
2.07913e-06
0.000780828
-0.00709166
-0.000177773
0.000608703
-0.00694579
-0.000827071
0.000240442
-0.0050794
0.000321008
0.000153185
-0.00338851
0.000400388
0.000321265
-0.00268101
0.000520591
0.000595365
-0.00350662
0.000505754
0.000721097
-0.00542694
0.000347433
0.00105749
-0.00621402
0.000232147
0.000931815
-0.0060708
-2.1851e-05
0.000906527
-0.00696303
-0.00074302
0.000350899
-0.00622365
0.000325929
-0.00033281
-0.00251315
0.000415843
-0.000418884
-0.0028665
0.000241139
-0.000314849
-0.00233662
0.000262818
-0.000286357
-0.00198841
0.000142061
-0.000300979
-0.00170084
0.000409681
-0.000342489
-0.00334901
0.000493452
0.000156223
-0.00432638
0.000501265
0.000505204
-0.00500195
-0.000616378
0.000294915
-0.00609798
0.000233237
-0.00018615
-0.00251376
0.000190839
-0.000116443
-0.00225851
0.000176387
-0.000124262
-0.00270008
0.000243109
-0.000186246
-0.00246594
-2.40148e-05
-1.34361e-05
-0.00272539
-6.37223e-05
-2.64569e-05
-0.00249311
-8.39304e-05
-0.000106388
-0.00107489
9.33184e-05
0.000148373
-0.00231255
0.000521583
7.54118e-05
-0.00369714
-4.93351e-05
0.000204311
-0.00364522
0.000177914
-0.000236046
-0.001804
0.000149046
-0.000230909
-0.00159846
6.60229e-05
-0.000172626
-0.00205463
5.48386e-05
-0.000118329
-0.00209517
6.91581e-05
-3.64612e-05
-0.00206337
-4.22594e-05
4.65827e-06
-0.00179476
-0.000157761
-1.9056e-05
-0.00236878
-0.000207202
-2.32388e-05
-0.00129362
-0.000180609
2.14411e-05
-0.000113772
8.56994e-05
4.08053e-05
-0.00187108
8.67442e-05
-2.04757e-05
-0.00351835
5.28167e-05
-7.67046e-05
-0.000332129
7.15472e-05
-7.97257e-05
-0.000621303
4.48241e-05
-7.37315e-05
-0.000538599
-5.34721e-06
-5.8032e-05
-0.000877643
-4.38764e-05
-4.32561e-05
-0.00129149
-3.92081e-05
-4.38774e-05
-0.00144181
-3.89113e-05
-4.97884e-05
-0.00130255
-6.55557e-05
-5.50485e-05
-0.00129708
-9.49538e-05
-5.09711e-05
-0.00132554
-0.000111811
-1.47415e-05
0.000103275
-0.000100633
2.07266e-07
0.000393753
-9.23092e-05
-1.39453e-07
-0.000990775
-0.0015947
-1.5395e-05
-0.00287493
-0.00118322
9.30346e-05
-0.00404083
-0.00163072
0.000108508
-0.0031744
-0.000549078
0.000198863
-0.00457368
-0.000976466
0.00018643
-0.00435673
-0.00132931
8.06139e-05
-0.00365911
-0.000197941
0.000170003
-0.00512731
-0.000430183
0.000105845
-0.00494582
-0.000720393
1.87548e-05
-0.0047212
-0.00129253
-5.60341e-05
-0.00392315
-2.37707e-05
0.000687098
-0.00567912
-0.000252308
0.000387132
-0.00556373
-0.000281024
0.000308984
-0.00568291
-0.000500133
0.000163571
-0.0050143
-0.0011314
-0.000115859
-0.00443119
0.000295397
0.00160236
-0.00541301
0.000215558
0.00113682
-0.0056257
-3.39657e-05
0.000655003
-0.00601799
-4.35817e-05
0.000369788
-0.0057491
-0.000418107
0.000207541
-0.00625809
-0.00128785
2.0095e-05
-0.00473189
0.000390266
0.00183747
-0.00571789
0.000719573
0.00155694
-0.0061403
0.000263351
0.00119765
-0.00670138
-4.70702e-05
0.000926028
-0.0067123
-0.000118291
0.000733178
-0.00636699
-0.000434666
0.000677157
-0.00659415
-0.00123106
0.000322104
-0.0054847
0.000563143
0.00118303
-0.00424382
0.000504364
0.00143601
-0.00499386
0.000704645
0.0012816
-0.00648495
0.000402642
0.00115805
-0.00718481
5.49739e-05
0.0010967
-0.0076067
-8.73829e-05
0.000768488
-0.00693191
-0.000401873
0.000568238
-0.00689356
-0.000853877
0.000290205
-0.00525875
0.000344699
0.000197229
-0.00372312
0.000431072
0.000150313
-0.00323279
0.000287239
0.000362632
-0.00249438
0.000690692
0.000587491
-0.00380089
0.00044179
0.000766111
-0.00543529
0.000265318
0.00097457
-0.00611241
0.000527038
0.000873165
-0.00607102
0.000201851
0.00092008
-0.0072328
-0.000610534
0.000431825
-0.00666132
0.0002355
-0.000346738
-0.00264428
0.000362076
-0.000472354
-0.00263091
0.000205307
-0.00039131
-0.00281896
0.000206886
-0.000305993
-0.00228076
0.00023697
-0.000246538
-0.00230384
0.000125129
-0.000235754
-0.00199642
0.000435931
-0.000306792
-0.00340586
0.000406982
6.19204e-05
-0.00419676
0.000670312
0.00051399
-0.00536975
-0.0005873
0.000221611
-0.00578162
0.000246194
-0.000170239
-0.00253984
0.000214173
-0.000211241
-0.00248409
0.000171249
-0.000145701
-0.0023423
6.94678e-05
-0.000218674
-0.00268228
0.000198311
-0.000141614
-0.00246692
-8.38457e-05
3.82564e-05
-0.00274852
-0.000178033
-1.12314e-05
-0.002568
-7.48423e-05
-9.4126e-05
-0.000964754
7.46755e-05
0.000100133
-0.00259255
0.000499799
-8.23469e-05
-0.00382458
0.000136048
0.000228698
-0.00392322
0.000158821
-0.000233085
-0.00147051
0.000194873
-0.000241182
-0.00191706
0.000174702
-0.000206708
-0.00169426
7.38351e-05
-0.000122025
-0.00213011
5.76077e-05
-8.14249e-05
-0.00215169
5.60005e-05
3.17236e-06
-0.00215709
-9.26564e-05
2.42931e-05
-0.00178436
-0.000182749
-1.85686e-05
-0.00225626
-0.000222861
-3.31437e-05
-0.00111113
-0.000231206
1.70515e-05
2.93763e-05
4.26109e-05
-7.84097e-06
-0.00202696
9.18123e-05
-6.30124e-06
-0.00369617
6.50916e-05
-6.34531e-05
-0.00036221
6.29616e-05
-7.87061e-05
-0.00039611
7.74734e-05
-7.70177e-05
-0.00069549
4.81283e-05
-6.98723e-05
-0.000574887
-1.01921e-05
-5.69918e-05
-0.000853715
-4.18945e-05
-4.20016e-05
-0.00125147
-4.48222e-05
-4.36092e-05
-0.00140317
-4.61115e-05
-5.00255e-05
-0.00126146
-6.27668e-05
-5.67329e-05
-0.00122855
-0.000104566
-5.14998e-05
-0.00118422
-0.000111779
-1.57923e-05
0.000231054
-0.000115348
-1.78374e-06
0.000510745
-0.000108305
-9.59693e-07
-0.00088151
-0.00158035
-6.25796e-05
-0.00240883
-0.00108867
-0.000131535
-0.00372782
-0.00165435
-6.24228e-05
-0.00278887
-0.000473069
2.13787e-05
-0.00424463
-0.00101414
0.000130683
-0.00402533
-0.00156598
0.000104057
-0.00304179
-0.000266482
0.000189969
-0.0047406
-0.000442809
0.00020363
-0.00457825
-0.00105025
0.000237055
-0.00418332
-0.00145172
0.000109877
-0.0036098
-0.000179587
0.000323613
-0.00518188
-0.000248284
0.000173319
-0.0051988
-0.000376563
0.000127681
-0.0049592
-0.000831112
-5.17015e-06
-0.00444108
-0.00120449
-2.04436e-05
-0.00382961
5.81255e-05
0.000994142
-0.00561514
-8.1753e-05
0.000671842
-0.00566652
-0.000123881
0.000407739
-0.00557257
-0.000165555
0.000299965
-0.00569733
-0.000547196
0.000120763
-0.00512183
-0.00128162
-5.1283e-05
-0.00438613
2.18857e-05
0.00194566
-0.00551964
0.000394362
0.00158189
-0.00553286
8.51928e-05
0.00100058
-0.00579312
-0.00022177
0.000454823
-0.00592832
-0.000118797
0.000317743
-0.00585879
-0.00050584
7.1762e-05
-0.00623859
-0.00120686
-3.72774e-05
-0.0047188
0.000559948
0.00196895
-0.00550515
0.000452753
0.00177252
-0.00588187
0.000707398
0.00142718
-0.00637258
8.39175e-05
0.00121336
-0.00666999
-0.000246772
0.000881481
-0.00655886
-7.09191e-05
0.000761328
-0.00646763
-0.000532184
0.000582574
-0.00672431
-0.00118909
0.000323057
-0.00547255
0.000419002
0.00108444
-0.00481908
0.000117757
0.00125667
-0.00375116
0.000331896
0.00142173
-0.00517865
0.000606584
0.00125668
-0.00649947
0.000397626
0.00119439
-0.00723834
-7.537e-05
0.00104231
-0.00753984
1.75336e-06
0.000822905
-0.00666129
-0.000354964
0.000633883
-0.00668043
-0.000662853
0.000227515
-0.00543394
0.000169016
0.00033084
-0.0040858
0.000399895
0.000139606
-0.00375023
0.000388114
0.000243683
-0.00329665
0.000387095
0.000536163
-0.00262326
0.000669086
0.000687544
-0.00415444
0.000449992
0.000754004
-0.00553959
0.000268836
0.000997206
-0.00606936
0.0002277
0.0010625
-0.00603416
0.000176254
0.000829172
-0.00713609
-0.000918683
0.000458196
-0.00678813
0.000269523
-0.000234075
-0.00242873
0.000350017
-0.000372751
-0.00287972
0.000279347
-0.00043223
-0.00269809
9.33374e-05
-0.00035223
-0.0027966
0.000154834
-0.000194931
-0.00228889
0.000125318
-0.000157624
-0.00259113
0.000108462
-0.000233207
-0.0023565
0.000383015
-0.000280673
-0.00352112
0.000638246
3.83697e-05
-0.00428471
0.000683268
0.000553537
-0.00588515
-0.000396694
0.000266649
-0.00551553
0.000215615
-0.000139796
-0.00235082
0.000235867
-0.000187148
-0.00260492
0.000207556
-0.000233114
-0.00242953
0.000179337
-0.000215359
-0.00245111
0.000103655
-0.000206997
-0.00266295
0.000159008
-5.80743e-05
-0.0024736
-0.000155332
6.99741e-05
-0.00276705
-0.000207965
-7.42393e-06
-0.00262948
-6.55534e-05
-8.49547e-05
-0.000936974
8.21742e-05
-0.000101315
-0.00288696
0.000373606
-0.000156301
-0.00377058
0.000212335
0.000285551
-0.00432929
7.79907e-05
-0.000211039
-0.000786668
0.000175738
-0.000241361
-0.0015831
0.000194641
-0.000236172
-0.00200476
0.000199586
-0.000159095
-0.00180864
6.56473e-05
-7.4592e-05
-0.00221278
6.65775e-05
-5.4261e-05
-0.00220273
2.69712e-05
4.28707e-05
-0.00224746
-0.000108266
1.94219e-05
-0.0017602
-0.000179215
-3.08502e-05
-0.0021421
-0.000243809
-3.85832e-05
-0.000916255
-0.000228341
8.12187e-06
0.000129975
2.87354e-05
-1.67622e-05
-0.00216058
6.11397e-05
2.45938e-07
-0.00386586
7.87174e-05
-4.44235e-05
-0.000514881
7.81157e-05
-6.24604e-05
-0.000456572
7.70959e-05
-7.86455e-05
-0.000471579
8.07263e-05
-7.22885e-05
-0.0007738
4.41171e-05
-6.55353e-05
-0.00061046
-1.29856e-05
-5.54791e-05
-0.000827252
-3.72413e-05
-4.03702e-05
-0.00121747
-5.29977e-05
-4.30866e-05
-0.00135711
-4.67062e-05
-5.24387e-05
-0.00121905
-6.10321e-05
-5.88537e-05
-0.00116017
-0.000111883
-5.26127e-05
-0.00103551
-0.00011228
-1.65338e-05
0.000358085
-0.000125956
-3.56946e-06
0.000639311
-0.000116793
-1.88072e-06
-0.000762837
-0.00157633
-2.32891e-05
-0.00235717
-0.00119252
-2.54345e-05
-0.00313335
-0.00157163
-3.77552e-05
-0.00245379
-0.000492696
-8.08584e-05
-0.00410908
-0.00108676
-8.32342e-05
-0.00363439
-0.00156396
-5.08079e-05
-0.00274008
-0.000306387
6.08072e-05
-0.00422434
-0.000377881
3.19033e-05
-0.00421078
-0.00100469
3.62189e-05
-0.00400305
-0.00157556
1.40461e-05
-0.002932
-0.000490994
0.000349774
-0.0045791
-0.000287504
0.000177621
-0.00467537
-0.000361055
0.000198452
-0.00455516
-0.000960243
0.000260635
-0.00420494
-0.00135337
7.07854e-05
-0.0035317
-9.9858e-05
0.000508549
-0.00525816
-0.000188931
0.000316345
-0.00521772
-0.000246563
0.000190591
-0.00513903
-0.000395541
0.000142104
-0.00487649
-0.000391666
-3.82549e-05
-0.0045788
-0.00133224
-3.06547e-06
-0.00377592
-0.000273252
0.00126678
-0.00578267
2.03676e-05
0.00104173
-0.00561103
-0.000192989
0.000613142
-0.00559374
-0.000234275
0.000394649
-0.00565475
-0.00026247
0.000271529
-0.00570442
-0.000659178
8.84672e-05
-0.00510824
-0.00124841
-2.50864e-05
-0.0043195
0.000102098
0.00215362
-0.00520066
9.29878e-05
0.00197815
-0.00555612
0.000371664
0.00141422
-0.00561076
-0.000172791
0.000827331
-0.00590892
-0.000264733
0.000393517
-0.00598614
-0.000174022
0.000330515
-0.00601444
-0.000693039
9.12841e-05
-0.00620629
-0.00106343
-4.12408e-05
-0.00480322
0.000393821
0.00207498
-0.00544363
0.000167371
0.00190889
-0.00569113
0.000269881
0.00164715
-0.00603982
0.00048124
0.00140484
-0.00643872
0.000268753
0.00114117
-0.00680081
-0.000161707
0.00087294
-0.00658414
-7.91153e-05
0.000679096
-0.00648328
-0.000516992
0.00055405
-0.00679327
-0.00100998
0.00026195
-0.00538738
-7.36752e-05
0.00124475
-0.00522755
0.000373804
0.00107144
-0.00460776
0.000532083
0.00125886
-0.00373226
0.000599448
0.00134039
-0.00547471
0.000586041
0.00127034
-0.00649238
0.000353066
0.00120987
-0.00730897
-7.16704e-05
0.00100026
-0.00737669
-9.04353e-05
0.000814198
-0.00652347
-0.000347762
0.000671911
-0.0066008
-0.000978914
0.000135957
-0.00550967
0.000274849
0.000319983
-0.00400348
0.000380369
0.000314141
-0.00429069
0.000293798
0.00028659
-0.00380759
0.000396087
0.000360516
-0.00342375
0.00037014
0.000668913
-0.00281993
0.000517526
0.000698118
-0.00449076
0.000409978
0.000803914
-0.00564781
0.000219055
0.0010745
-0.0059174
0.000582011
0.000810718
-0.00595947
0.000284005
0.000798605
-0.00707723
-0.00100653
0.00037756
-0.00655586
0.000273469
-0.000148092
-0.00217961
0.000299085
-0.000226325
-0.00263837
0.000249688
-0.000354655
-0.00299943
0.000232443
-0.000332194
-0.00277123
9.28742e-06
-0.000218529
-0.00267863
0.000124645
-0.000139213
-0.00227294
0.000243391
-0.000161121
-0.00306194
0.000146656
-0.000229274
-0.00276252
0.00049045
-0.000298992
-0.00373976
0.000749514
5.11782e-05
-0.00444969
0.000597667
0.000589544
-0.0064321
-0.000246967
0.000457583
-0.00551381
2.28188e-05
-9.90051e-05
-0.00187264
0.000237915
-0.000160394
-0.00243975
0.000238063
-0.000211394
-0.00267006
0.000200061
-0.000223998
-0.00242136
0.000162701
-0.000217591
-0.00253757
0.000167099
-0.000159427
-0.00266212
9.86181e-05
-5.64639e-07
-0.0024747
-8.40704e-05
7.09473e-05
-0.00286961
-0.000138153
-2.92717e-05
-0.00272623
-8.1048e-05
-9.26499e-05
-0.0011084
9.77448e-05
-0.000211675
-0.00315768
0.000314677
-0.000114674
-0.0036563
0.000242948
0.000374463
-0.00488556
4.54252e-06
-0.000164089
-0.000517772
0.000146307
-0.000210859
-0.000885361
0.000206191
-0.000241918
-0.00170645
0.000206407
-0.000214107
-0.00207543
0.000195976
-9.27191e-05
-0.00194237
5.65843e-05
-3.68431e-05
-0.00229977
7.07825e-05
-6.06234e-06
-0.00226182
-5.21405e-06
5.71971e-05
-0.00233302
-9.94486e-05
7.31855e-06
-0.00174563
-0.000139889
-3.77089e-05
-0.00206412
-0.000258968
-4.92966e-05
-0.000711752
-0.000216947
-2.12469e-06
0.000220004
4.4903e-05
-1.12104e-05
-0.00231999
2.01543e-05
-7.26365e-06
-0.00399554
2.84932e-05
-3.40211e-05
-0.000346027
9.16591e-05
-4.28606e-05
-0.00062614
8.48529e-05
-5.93847e-05
-0.000560685
8.52685e-05
-7.41865e-05
-0.000554949
8.09937e-05
-6.60132e-05
-0.000854316
3.63932e-05
-6.06672e-05
-0.000641665
-1.14037e-05
-5.34771e-05
-0.000802741
-3.49142e-05
-3.86336e-05
-0.00118701
-5.29012e-05
-4.4607e-05
-0.00131204
-4.67629e-05
-5.37572e-05
-0.00117738
-5.81723e-05
-6.13963e-05
-0.00109321
-0.000117627
-5.25943e-05
-0.000881826
-0.000110711
-1.70518e-05
0.000482278
-0.000132776
-4.86855e-06
0.000775076
-0.000126904
-2.72433e-06
-0.000633209
-0.0015988
1.08917e-05
-0.00221527
-0.00135031
7.83089e-05
-0.00278478
-0.00150793
-5.32127e-05
-0.00236765
-0.000821033
0.000271851
-0.00353624
-0.00115573
-1.21622e-05
-0.00308998
-0.00145255
-2.83346e-05
-0.00253687
-0.000510816
0.000145532
-0.00393405
-0.000523443
-2.66055e-05
-0.00402014
-0.00100145
-0.000116035
-0.00357241
-0.00137362
-0.000151132
-0.00279089
-0.00071406
0.00028455
-0.0043135
-0.000306094
1.8853e-05
-0.0041927
-0.000275391
-3.46666e-05
-0.00422556
-0.000947154
3.12963e-05
-0.00403339
-0.00144401
-4.30986e-05
-0.00279825
-0.000426297
0.000541286
-0.00473444
-0.000322039
0.000317909
-0.00458628
-0.000336255
0.00018317
-0.0045704
-0.00042192
0.000224602
-0.00449275
-0.00049726
0.00016428
-0.00419284
-0.00157015
0.000184094
-0.00347789
-0.000327514
0.00059588
-0.00541332
-7.69937e-05
0.000500392
-0.00534484
-0.000333346
0.000293238
-0.00518002
-0.000280089
0.000200245
-0.00515136
-0.00045032
0.000106094
-0.00483299
-0.000788629
2.95279e-05
-0.00448195
-0.00131383
6.884e-05
-0.00377933
-0.000140735
0.00140639
-0.0057019
-0.000225714
0.00129845
-0.00572069
2.51212e-05
0.000973373
-0.00562472
-0.000248636
0.000571901
-0.00569515
-0.000377827
0.000405753
-0.00567588
-0.000425403
0.000246079
-0.00561065
-0.000920943
9.25204e-05
-0.00499795
-0.00120394
6.33969e-05
-0.00424239
4.81831e-05
0.00219368
-0.00535107
0.000229153
0.00216299
-0.00544728
3.15194e-05
0.00182972
-0.00573327
0.000225779
0.00114869
-0.00567666
-5.65997e-05
0.000861484
-0.00605153
-0.000221214
0.000431874
-0.00602799
-0.000329789
0.000343894
-0.00601638
-0.000862424
0.00013674
-0.00603884
-0.000961555
-7.43182e-05
-0.00477732
-0.000119076
0.00218388
-0.00582543
0.000309386
0.00197199
-0.00544232
0.000512023
0.00177469
-0.00579861
0.000390255
0.00160006
-0.00602585
0.000392639
0.00134726
-0.0064514
0.000185062
0.00109501
-0.00685487
-0.000169455
0.000860084
-0.00666734
-0.000205356
0.000672264
-0.00648657
-0.000633137
0.000528611
-0.00677456
-0.00119372
0.000176466
-0.00534904
-2.17043e-05
0.00142188
-0.00525312
4.68765e-06
0.00118724
-0.00496767
0.000184674
0.0011533
-0.00439308
0.000309721
0.0013329
-0.0036384
0.000567929
0.00130727
-0.00570943
0.000606278
0.00125239
-0.00662365
0.000217578
0.00119049
-0.00730679
-2.22109e-05
0.000945316
-0.00726654
-1.4403e-05
0.000826616
-0.00608176
-0.000202744
0.000731851
-0.00670995
-0.00106273
0.000128626
-0.00558209
0.000322814
0.000296876
-0.00370711
0.000236539
0.000408886
-0.00403567
0.000232312
0.000490823
-0.00447755
0.00032632
0.000292306
-0.00383326
0.000398674
0.000410487
-0.00355471
0.000367701
0.000599104
-0.00296397
0.000663892
0.000620774
-0.00472812
0.000484236
0.000801264
-0.00571216
0.000378153
0.000917784
-0.00591217
0.000629958
0.000804513
-0.00584582
0.00035518
0.000697239
-0.00715443
-0.000883888
0.000330496
-0.00624943
4.33013e-05
-3.99497e-05
-0.00243301
0.000366552
-0.000174473
-0.0023601
0.000240037
-0.000230804
-0.0027642
0.000279649
-0.000308741
-0.00310247
0.0001799
-0.000215248
-0.00279171
9.75682e-05
-0.00015801
-0.0025903
0.000132735
-8.912e-05
-0.00237905
0.000232881
-0.000205107
-0.00340306
0.000268338
-0.000316851
-0.00315115
0.000469872
-0.000278504
-0.003961
0.000708694
0.000176188
-0.00464729
0.000287783
0.000598844
-0.00654647
-0.000121939
0.000405945
-0.00555487
-4.70461e-05
-7.10646e-05
-0.00149946
0.000116523
-0.000149996
-0.00185325
0.000253608
-0.000184211
-0.00251435
0.000239646
-0.000199368
-0.00272793
0.000178112
-0.000206155
-0.00241493
0.000138031
-0.000187835
-0.00259061
0.000114176
-0.000112133
-0.00259394
4.74678e-05
3.05546e-05
-0.00248699
-5.31367e-05
4.05955e-05
-0.00298579
4.03234e-05
-6.50813e-05
-0.00293401
-9.16817e-05
-0.000167373
-0.00131999
8.19008e-05
-0.000216057
-0.00335514
0.000330995
9.48269e-05
-0.00366275
0.000114622
0.000357012
-0.00533704
-2.27371e-05
-0.000151075
-0.000780482
4.44795e-05
-0.000163483
-0.000517968
0.000177887
-0.000210266
-0.00101005
0.000229538
-0.000237855
-0.00182698
0.000224215
-0.000174908
-0.00213646
0.00018611
-4.14553e-05
-0.00208748
6.23324e-05
-6.40029e-06
-0.00237317
6.39506e-05
3.68358e-05
-0.00234032
-2.48015e-05
4.70322e-05
-0.00240084
-8.24589e-05
-2.0697e-06
-0.00174557
-0.000149554
-5.01035e-05
-0.00197193
-0.000268632
-4.84045e-05
-0.000514468
-0.000147182
-7.00076e-06
0.000252265
2.57329e-05
-7.9653e-06
-0.00247779
-2.38067e-05
-3.26435e-06
-0.00409538
2.72328e-05
-2.38821e-05
-0.000112523
3.56367e-05
-3.47716e-05
-0.000389753
0.000102299