/*--------------------------------*- C++ -*----------------------------------*\
  =========                 |
  \\      /  F ield         | OpenFOAM: The Open Source CFD Toolbox
   \\    /   O peration     | Website:  https://openfoam.org
    \\  /    A nd           | Version:  7
     \\/     M anipulation  |
\*---------------------------------------------------------------------------*/
FoamFile
{
    version     2.0;
    format      ascii;
    class       volVectorField;
    location    "8.5";
    object      U_0;
}
// * * * * * * * * * * * * * * * * * * * * * * * * * * * * * * * * * * * * * //

dimensions      [0 1 -1 0 0 0 0];

internalField   nonuniform List<vector> 
18750
(
(1.12874 0.507526 0.0182164)
(0.58027 0.454518 -0.169221)
(0.646641 0.974149 0.378014)
(1.11915 0.626693 -0.0061815)
(1.54482 -2.40852 -0.0924079)
(-0.0345007 0.743371 0.758613)
(0.757291 0.0848705 -0.136581)
(0.770253 0.959254 -0.280497)
(0.5925 1.04849 0.336167)
(1.205 0.743141 0.0198718)
(3.55174 -2.42226 1.80977)
(0.371966 -0.444228 0.29188)
(1.88586 -2.24013 -0.255473)
(0.711676 -0.499374 -0.231142)
(0.0969497 0.816934 0.877094)
(0.824944 -0.652959 -0.291351)
(1.443 0.329529 -0.724387)
(0.768463 0.963185 -0.222413)
(0.689455 1.14683 0.235435)
(1.26203 0.760704 0.0341892)
(3.85957 -0.715758 0.798031)
(2.93193 -2.62604 1.70825)
(3.6923 -2.35289 1.9515)
(-0.000874811 0.843683 -0.638821)
(0.496625 -1.21777 -0.401359)
(1.7485 -2.48055 0.231762)
(1.3129 -0.412053 0.116039)
(0.703288 -0.319322 -0.191027)
(0.257883 0.961259 1.07359)
(0.89581 -1.05094 -0.570181)
(1.16635 -0.112758 -1.23979)
(1.47647 0.364502 -0.744811)
(0.792349 0.980732 -0.137111)
(0.66764 1.2448 0.239434)
(1.29164 0.766079 0.0382509)
(3.68383 1.40655 0.413695)
(4.10901 -0.789502 2.76496)
(4.09078 0.131495 0.555047)
(2.7241 -1.86983 2.50135)
(2.74638 -2.7653 1.47705)
(3.66481 -2.43057 1.70283)
(0.988282 0.937111 -0.0899158)
(0.128197 0.792505 -0.482638)
(0.591126 -1.67733 -1.32526)
(1.67721 -2.5368 0.552855)
(1.84555 0.178523 -0.474096)
(1.27321 -0.407435 0.0408338)
(0.701547 -0.0702151 -0.126962)
(0.503707 1.13806 1.25422)
(1.0071 -1.26547 -0.762103)
(0.961396 0.150823 -1.04251)
(1.1322 -0.172 -1.24738)
(1.46117 0.356185 -0.749118)
(0.809296 0.992255 -0.11264)
(0.697869 1.31461 0.227439)
(1.32773 0.671068 0.0188545)
(3.25163 1.12917 -0.335671)
(4.84661 0.276672 1.03103)
(3.84548 1.11082 0.339493)
(4.46392 -1.16126 2.44027)
(3.8461 -1.22081 2.66861)
(4.19263 0.265768 0.327111)
(1.91721 -1.77015 1.26805)
(2.58454 -2.62328 2.1277)
(2.60783 -2.69212 1.48855)
(3.68719 -2.33004 1.48746)
(1.11202 -0.362742 -0.893371)
(1.09595 0.934581 -0.269781)
(0.399007 0.80969 -0.291662)
(0.680715 -1.91362 -1.81561)
(1.61081 -2.43792 0.898134)
(0.991447 -0.359887 -1.03723)
(1.72687 0.321008 -0.538501)
(1.23697 -0.374404 0.067123)
(0.713407 0.122092 -0.0456304)
(0.77362 1.20615 1.46647)
(1.15623 -1.32822 -0.67082)
(1.09239 0.157178 -0.994099)
(0.959424 0.121356 -1.04531)
(1.10106 -0.233027 -1.25368)
(1.45276 0.349673 -0.759048)
(0.797623 0.997052 -0.0208631)
(0.725999 1.37208 0.156472)
(1.3338 0.635251 0.0148221)
(2.84858 1.85949 0.292297)
(3.99039 0.886787 1.24368)
(3.57847 0.495674 -0.26248)
(5.076 -1.04974 1.28902)
(4.63066 0.0795979 1.327)
(4.07494 1.00712 0.089244)
(4.37183 -1.60851 2.30875)
(4.22851 -1.43645 2.48687)
(3.58186 -1.63221 2.66942)
(4.00372 -0.279009 0.220755)
(1.187 0.198717 0.88756)
(1.85603 -2.09156 0.570186)
(2.55967 -2.56974 2.05565)
(2.60962 -2.58802 1.45149)
(3.85494 -2.07797 1.3275)
(1.49326 -0.793385 0.399663)
(1.0927 -0.887809 -0.847211)
(1.2296 0.829658 -0.375623)
(0.74996 0.741942 0.168659)
(0.705815 -2.44681 -1.67265)
(1.58271 -2.2238 1.2071)
(1.03893 -0.0806427 -0.624483)
(1.02396 -0.410533 -1.06147)
(1.86843 0.219824 0.0791476)
(1.23751 -0.270468 -0.0142458)
(0.731699 0.412447 0.12112)
(0.964793 1.02224 1.7119)
(1.33073 -1.45661 -0.322517)
(1.00081 0.195638 -0.891809)
(1.09287 0.141795 -0.988233)
(0.972296 0.0729729 -1.04829)
(1.06542 -0.240541 -1.2647)
(1.44712 0.328303 -0.768214)
(0.802118 1.0027 0.0588021)
(0.767108 1.40274 0.0425475)
(1.37834 0.64559 0.0351726)
(2.96535 1.3985 0.0244919)
(4.06029 0.241852 0.363659)
(2.90154 1.78848 0.416245)
(4.37105 -0.501286 0.606239)
(3.99016 0.488907 1.32789)
(3.69104 1.35381 -0.607743)
(4.75101 -1.65359 2.24476)
(5.01881 -1.16454 1.1042)
(4.46102 -0.785326 1.56159)
(4.16883 0.861157 0.100093)
(3.30144 -1.28228 1.99337)
(4.41334 -2.05591 2.07686)
(4.10531 -1.84956 2.47165)
(3.01175 -2.83725 2.26763)
(3.81001 -0.643725 0.0192755)
(1.29956 -0.554343 -0.575444)
(1.07307 0.118819 0.213122)
(1.90538 -2.03043 -0.00375923)
(2.58674 -2.37143 2.20683)
(2.714 -2.20523 1.80564)
(4.10591 -1.80836 1.04545)
(1.31042 -1.00436 0.917478)
(1.56689 -1.08522 0.190534)
(1.09338 -1.15553 -0.800639)
(1.30225 0.809367 -0.372183)
(1.02812 0.554168 0.767576)
(0.675848 -2.99779 -1.26956)
(1.68255 -1.94838 1.46643)
(1.26649 -0.17424 -1.35588)
(1.13061 -0.00132594 -0.662033)
(1.04644 -0.48316 -0.817039)
(1.86201 0.291306 -0.210854)
(1.22161 -0.192738 -0.0255526)
(0.749966 0.611915 0.26805)
(0.938932 0.34337 1.77081)
(1.39582 -1.60903 -0.119483)
(0.649907 0.00896655 -0.922714)
(1.01294 0.227954 -0.868695)
(1.08613 0.128363 -0.98895)
(0.971082 0.0521792 -1.04628)
(1.05327 -0.135373 -1.27274)
(1.42689 0.30893 -0.795041)
(0.794198 1.00949 0.125234)
(0.779555 1.40456 -0.0375983)
(1.47632 0.678766 0.0680899)
(2.96823 1.22264 -0.139808)
(3.54503 0.500643 0.0797926)
(3.24896 0.802821 -0.0318121)
(3.82952 -0.161525 0.612888)
(4.09357 -0.571678 0.416607)
(3.22154 1.23004 0.0408225)
(4.29303 -1.4284 1.64041)
(4.35422 -0.252268 0.466374)
(4.12108 -1.07509 1.49534)
(3.96996 1.14207 -0.504531)
(4.49943 -1.92941 2.10549)
(4.80091 -1.72318 2.0715)
(4.86841 -1.3989 1.14679)
(4.29934 -1.39473 1.62609)
(3.94297 0.521524 -0.259896)
(1.91613 -0.980298 1.99474)
(3.20877 -1.84177 1.77135)
(3.18514 -2.63247 3.12026)
(3.64045 -2.61683 2.47448)
(3.65356 -1.85491 2.36782)
(4.07091 -0.591463 -0.944636)
(1.62778 -0.929432 -0.578621)
(1.1567 -0.547129 -0.729864)
(1.07393 0.0821088 -0.198014)
(1.86129 -1.99327 -0.662414)
(2.54937 -2.42727 2.2536)
(2.61289 -2.14015 1.75744)
(4.15406 -1.72699 0.74578)
(1.47302 -1.01881 0.523309)
(1.29825 -1.48398 0.142702)
(1.5912 -1.07586 0.159654)
(1.12676 -1.2104 -0.740183)
(1.35626 0.805022 -0.287786)
(1.2237 0.197153 1.39676)
(0.787753 -2.95726 -0.83136)
(1.78414 -1.73911 1.61235)
(1.26438 -0.315475 -1.30235)
(1.29295 -0.221774 -1.24086)
(1.21372 -0.0787061 -0.602637)
(1.04592 -0.525703 -0.530338)
(1.95057 0.310623 -0.178829)
(1.21549 -0.0793476 -0.0752491)
(0.725642 0.686668 0.40789)
(0.81009 -0.361594 1.3154)
(1.36384 -1.8178 -0.175778)
(0.313419 -0.202056 -1.52938)
(0.644551 0.0213907 -0.95351)
(1.03417 0.304121 -0.871445)
(1.08134 0.088098 -1.01222)
(0.978357 -0.00778127 -1.04521)
(0.982274 -0.230417 -1.30822)
(1.41455 0.296361 -0.81426)
(0.783674 1.00478 0.175865)
(0.722476 1.23648 0.0205764)
(1.5515 0.700825 0.102693)
(2.59686 1.12061 0.0340784)
(3.35219 0.503515 0.0668014)
(2.96496 0.897038 -0.201811)
(3.66824 0.0639003 0.282757)
(3.4813 0.28625 0.0864176)
(3.28684 0.753165 -0.110263)
(3.75245 -0.472603 0.880994)
(3.82725 -0.468729 0.647281)
(4.05415 -0.720292 0.227989)
(3.3346 1.06166 0.34161)
(3.94516 -1.97982 1.68655)
(4.51766 -0.831708 1.61234)
(4.33383 -0.822052 0.674652)
(4.33922 -1.16717 1.52232)
(4.03393 0.856025 -0.394666)
(3.62087 -1.82273 2.51255)
(4.697 -1.33599 2.41774)
(4.56433 -2.36943 1.86682)
(4.62867 -1.8239 1.20915)
(3.99129 -2.20533 1.3749)
(3.67798 -0.230253 0.0764789)
(2.12285 -0.19555 0.900175)
(2.02858 -0.959833 1.81543)
(3.10001 -2.32855 2.04693)
(3.79662 -2.22807 1.82803)
(3.72809 -2.16466 2.39774)
(3.60499 -2.2448 2.82508)
(4.33494 -0.428045 -1.24711)
(1.74108 -1.08036 -0.833969)
(1.52188 -0.950282 -0.798627)
(1.10849 -0.529785 -0.839331)
(1.09963 0.148771 -0.467875)
(1.7775 -1.94278 -0.84092)
(2.21804 -2.39226 2.48195)
(2.56043 -2.01266 1.85677)
(4.18718 -1.47875 0.20845)
(1.27905 -0.919333 0.51953)
(1.49008 -1.03285 0.0750924)
(1.29161 -1.58256 -0.491204)
(1.6426 -0.848608 0.200661)
(1.24861 -1.06328 -0.646987)
(1.39256 0.89677 -0.24732)
(1.36206 -0.137908 1.6938)
(1.03485 -2.64985 -0.370899)
(1.90978 -1.49335 1.66463)
(0.931596 -0.536454 -1.64454)
(1.27515 -0.350659 -1.31587)
(1.31652 -0.259636 -1.03722)
(1.26803 -0.194085 -0.469965)
(1.08759 -0.463394 -0.314728)
(1.96401 0.252953 -0.257755)
(1.20813 0.0379086 -0.116962)
(0.675682 0.673042 0.48686)
(0.807232 -0.683556 0.627076)
(1.31671 -1.97041 0.0041947)
(0.305152 -0.516722 -1.7524)
(0.308441 -0.219207 -1.54493)
(0.63793 0.00787961 -0.964089)
(1.05974 0.364433 -0.893556)
(1.09769 0.0770241 -1.02051)
(0.969442 -0.017503 -1.04243)
(0.974243 -0.178106 -1.32384)
(1.36555 0.273814 -0.84791)
(0.782182 1.00613 0.173945)
(0.709262 1.20466 -0.0425305)
(1.65298 0.742435 0.133436)
(2.37499 1.05845 0.00989944)
(3.01109 0.617052 0.101935)
(2.64902 0.775668 0.0333479)
(3.23815 -0.0469627 0.030555)
(3.3491 0.0970131 -0.122022)
(2.92335 0.7195 -0.208488)
(3.69453 -0.0912402 0.375225)
(3.71796 -0.0927563 0.269889)
(3.41942 -0.212107 0.106434)
(3.26626 0.610343 -0.284561)
(3.52465 -1.06868 1.48675)
(3.79348 -0.673026 0.785407)
(3.80045 -0.804581 0.649725)
(4.04547 -1.08529 -0.0266212)
(3.60077 0.541174 0.348296)
(3.68911 -1.59293 2.44363)
(4.27521 -1.22174 1.87734)
(4.49997 -1.11817 1.49291)
(4.02327 -1.65138 0.998965)
(4.33956 -1.20866 1.46173)
(4.1935 0.26048 0.3722)
(2.90415 -1.53641 2.66087)
(3.67105 -2.23745 2.30188)
(4.38963 -2.18569 2.15447)
(4.53689 -2.2977 1.85466)
(4.44359 -2.04835 1.24785)
(4.21474 -1.84678 0.912973)
(3.48846 -0.794674 0.346339)
(2.30054 -0.715081 0.581513)
(1.65179 -0.971491 1.01704)
(2.05467 -1.22788 1.61706)
(3.07574 -2.41069 2.51049)
(3.50658 -2.39844 1.92856)
(3.57883 -2.49898 2.31574)
(3.85099 -2.75486 2.50111)
(4.53585 -0.11956 -1.00319)
(1.6236 -0.818773 -0.818288)
(1.69615 -1.0817 -1.05468)
(1.37438 -1.07327 -0.776097)
(1.17283 -0.38849 -1.06483)
(1.20957 0.157055 -0.741364)
(1.5988 -1.95032 -1.2647)
(2.18104 -2.17294 2.18373)
(2.37514 -2.48357 1.77616)
(4.1306 -1.62184 -0.216793)
(1.56148 -1.08757 -0.706239)
(1.41447 -0.703323 -0.131656)
(1.55325 -1.11176 -0.714059)
(1.25436 -1.52538 -0.559348)
(1.68877 -0.681075 0.243108)
(1.35904 -0.876266 -0.60541)
(1.40978 0.997625 -0.308061)
(1.58923 -0.219276 1.47273)
(1.18643 -2.50248 -0.290993)
(1.92236 -1.50444 1.59331)
(1.06424 -0.905859 -1.60638)
(0.897723 -0.851097 -1.61855)
(1.26936 -0.434382 -1.186)
(1.32648 -0.345522 -0.760559)
(1.31931 -0.315672 -0.194737)
(1.13303 -0.389321 -0.201568)
(1.96434 0.208091 -0.212147)
(1.18863 0.150783 -0.149476)
(0.625848 0.688205 0.500707)
(0.929282 -0.72934 0.146792)
(1.26006 -2.07681 0.151133)
(0.161267 -0.489828 -1.59732)
(0.302145 -0.61558 -1.71597)
(0.317237 -0.210341 -1.54079)
(0.629753 -0.0138533 -0.958571)
(1.06779 0.348269 -0.905333)
(1.08236 0.0707978 -1.01429)
(0.954909 -0.0631285 -1.04014)
(0.94188 -0.183498 -1.33439)
(1.33941 0.270393 -0.856576)
(0.782682 1.0105 0.163057)
(0.79669 1.22535 -0.133006)
(1.77477 0.792019 0.155725)
(2.0616 1.00204 0.0538175)
(2.70068 0.933673 0.061094)
(2.28296 1.13738 0.0333699)
(3.06006 0.262919 0.225862)
(3.04111 0.539524 0.107028)
(2.65917 0.561536 0.0111331)
(3.37301 -0.21865 0.13048)
(3.24359 -0.193696 0.0748375)
(3.18642 -0.365544 -0.100623)
(2.8901 0.655231 0.0313762)
(3.77076 -0.353334 0.609735)
(3.69734 -0.234783 0.393206)
(3.73338 -0.4243 0.229866)
(3.33804 -0.51859 0.178294)
(3.30116 0.161266 -0.423952)
(3.46437 -0.982571 1.91696)
(3.48786 -1.17769 1.32704)
(3.86724 -0.897995 0.626797)
(3.65975 -1.1448 0.639744)
(4.05236 -0.99996 -0.0757616)
(3.6153 0.383549 0.423575)
(3.61941 -1.0863 2.72354)
(3.66978 -1.79392 2.27186)
(4.23731 -1.43826 1.81884)
(4.30789 -1.46544 1.24913)
(4.1078 -1.18115 1.04812)
(4.25757 -1.28338 1.17133)
(4.26309 0.0192661 -0.114941)
(2.7031 -1.1279 2.55042)
(2.97513 -1.42898 2.62719)
(3.8573 -2.26081 2.21431)
(4.3088 -2.2148 2.18586)
(4.55996 -2.30205 1.71817)
(4.23095 -2.01485 1.43452)
(4.58405 -1.50143 0.513103)
(3.40473 -0.93656 0.30279)
(2.3165 -1.16962 0.0981205)
(1.81355 -1.6034 0.480737)
(1.55931 -0.829493 1.05477)
(1.87886 -2.03625 1.02927)
(2.84689 -2.49469 2.87091)
(3.36697 -2.67775 1.87665)
(2.72774 -3.57096 2.0667)
(3.15506 -3.97823 2.40487)
(4.85068 -0.790757 -0.504558)
(1.65944 -0.716306 -1.12475)
(1.47943 -1.10353 -1.44244)
(1.70185 -0.945489 -1.04176)
(1.28975 -1.03969 -0.690203)
(1.36177 -0.298288 -1.026)
(1.3707 0.174392 -0.747004)
(1.48026 -1.99875 -1.14073)
(1.74644 -2.63272 1.53152)
(1.61477 -3.80215 1.86603)
(3.62942 -2.12371 -1.03176)
(1.52816 -1.21021 -0.790936)
(1.49591 -1.13426 -0.831754)
(1.34234 -0.885172 -0.239022)
(1.51397 -1.17123 -1.00559)
(1.20379 -1.47645 -0.366285)
(1.77992 -0.468672 0.336193)
(1.73341 -0.414894 -0.518907)
(1.41707 1.02069 -0.280215)
(1.79355 -0.163844 1.09635)
(1.34475 -2.47141 -0.0632445)
(1.70141 -1.90319 1.51729)
(0.86535 -0.665019 -1.69417)
(1.0589 -1.11655 -1.59119)
(0.840126 -1.1712 -1.37376)
(1.28213 -0.554666 -0.931289)
(1.32963 -0.47209 -0.472668)
(1.34727 -0.432944 0.219562)
(1.20918 -0.285345 -0.0665305)
(1.93305 0.183743 -0.208004)
(1.16853 0.224314 -0.173479)
(0.616672 0.714003 0.469384)
(1.21945 -0.62467 -0.486393)
(1.31269 -2.10917 0.373502)
(0.149895 -0.672365 -1.61659)
(0.148831 -0.633332 -1.65342)
(0.28901 -0.740414 -1.59358)
(0.341328 -0.181417 -1.52983)
(0.617196 -0.0496786 -0.95241)
(1.05053 0.268325 -0.876749)
(1.08027 0.0682972 -1.04425)
(0.960766 -0.0524822 -1.03917)
(0.858643 -0.212709 -1.38661)
(1.3484 0.310962 -0.819235)
(0.77701 1.02325 0.140522)
(0.890181 1.34166 -0.177384)
(1.91604 0.849565 0.16154)
(1.70667 1.10677 -0.00858027)
(2.49172 0.593762 -0.0829328)
(2.04623 0.993214 -0.010491)
(2.79433 0.214145 0.0976546)
(2.80074 0.39376 0.143121)
(2.37311 0.855381 0.0891553)
(3.13852 -0.0267981 0.141503)
(3.04584 0.0311574 0.254144)
(2.95454 0.441785 0.148231)
(2.62702 0.4908 0.0212504)
(3.37745 -0.301998 0.229223)
(3.38419 -0.334339 0.134379)
(3.24331 -0.505738 0.131843)
(3.02315 -0.258995 -0.141125)
(2.9087 0.312636 0.0607221)
(3.64213 -0.455904 1.06328)
(3.66641 -0.601032 0.505343)
(3.58528 -0.770925 0.47748)
(3.64851 -0.946323 0.237031)
(3.3508 -0.562482 0.132205)
(3.30782 0.197856 -0.279507)
(3.56859 -0.768489 2.39326)
(3.35984 -1.47709 1.84134)
(3.51964 -1.19174 1.1705)
(3.8468 -0.867781 0.377941)
(3.60301 -1.30947 0.631457)
(4.07113 -1.13356 -0.347158)
(3.60143 -0.00790178 0.279842)
(3.22203 -1.53379 2.9587)
(3.58672 -1.5017 2.62895)
(3.77905 -2.15661 1.9918)
(4.06441 -1.73088 1.74847)
(4.23034 -1.20007 1.14997)
(4.05873 -1.39827 1.16195)
(4.21877 -1.46407 1.07387)
(4.17159 -0.131443 -0.00181141)
(3.13233 -0.786143 1.85834)
(2.59195 -0.874138 2.75704)
(3.14552 -1.4282 2.65019)
(3.66847 -2.51092 2.11073)
(4.24439 -2.2638 2.43096)
(4.59398 -2.14603 1.46)
(3.88918 -2.28489 1.70345)
(4.32152 -1.56733 0.76706)
(3.26631 -1.72061 0.179928)
(2.56623 -0.793054 0.836124)
(2.24851 -1.32443 0.177255)
(2.0812 -0.977374 0.634726)
(1.53233 -0.872907 1.51406)
(1.79867 -2.35089 0.925585)
(2.854 -2.82621 2.53907)
(3.17345 -3.10462 1.8048)
(3.02255 -2.8784 2.18176)
(3.1344 -3.9268 2.34097)
(5.24641 -0.851743 -0.293839)
(1.45266 -0.689379 -0.861219)
(1.69615 -0.778357 -1.37931)
(1.59336 -0.985534 -1.35109)
(1.86676 -0.359624 -1.10136)
(1.26751 -0.930101 -0.516949)
(1.59461 -0.452779 -0.66732)
(1.64332 0.0497328 -0.653878)
(1.36839 -2.24983 -1.12948)
(1.48742 -2.83582 1.44413)
(1.33115 -4.28773 2.25145)
(2.44587 -2.91198 -1.08653)
(1.38877 -1.21881 -0.642033)
(1.49605 -1.36263 -0.875575)
(1.39731 -1.18806 -0.955474)
(1.33683 -1.08139 -0.823843)
(1.42646 -1.2743 -0.865577)
(1.15994 -1.43741 -0.0301336)
(1.9322 -0.242919 0.403219)
(1.85977 -0.3015 -0.456477)
(1.48589 1.01861 -0.24517)
(2.42943 -0.0248434 -0.504743)
(1.25722 -2.49837 0.297447)
(1.43519 -2.41893 1.36095)
(0.459051 -0.638193 -1.57899)
(0.892727 -0.788379 -1.79791)
(1.05982 -1.23693 -1.55614)
(0.759604 -1.46705 -0.923098)
(1.32876 -0.534945 -0.709922)
(1.3355 -0.567111 -0.239549)
(1.38188 -0.521754 0.415277)
(1.24471 -0.24953 -0.0303422)
(1.89211 0.104628 -0.338952)
(1.16203 0.322258 -0.189987)
(0.601208 0.751907 0.390857)
(1.40547 -0.605077 -0.512919)
(1.42534 -2.15132 0.369272)
(0.221631 -0.919047 -1.03615)
(0.145481 -0.809716 -1.66477)
(0.126375 -0.751789 -1.68068)
(0.285302 -0.762087 -1.45414)
(0.372221 -0.156737 -1.50724)
(0.595933 -0.0730108 -0.945494)
(1.02677 0.198556 -0.827955)
(1.11837 0.107559 -1.08034)
(0.930735 -0.118256 -1.05654)
(0.81121 -0.276475 -1.44408)
(1.32229 0.332855 -0.840038)
(0.77689 1.03931 0.10132)
(1.01804 1.37875 -0.214429)
(2.09536 0.907682 0.151088)
(1.65603 0.920593 -0.0353431)
(2.11186 0.625242 -0.0854818)
(1.74732 0.989766 -0.0047453)
(2.68202 0.0511489 -0.117341)
(2.50902 0.45948 -0.0775687)
(2.03897 0.894556 0.00109709)
(2.75096 -0.0451273 -0.0583381)
(2.78625 -0.124595 0.0937052)
(2.74973 0.326364 0.0740507)
(2.26447 0.926368 -0.0549721)
(3.04874 0.0442699 0.220016)
(3.11232 -0.232787 0.118218)
(3.02925 -0.178963 0.27999)
(2.92279 0.257657 0.201846)
(2.67026 0.270382 0.059176)
(3.4314 -0.353353 0.472449)
(3.39133 -0.375237 0.235409)
(3.32556 -0.550689 0.14436)
(3.18403 -0.694484 0.12419)
(3.04138 -0.484763 -0.120624)
(2.87025 0.293494 0.0840909)
(3.81504 -0.0160797 1.23068)
(3.60579 -0.699885 1.14525)
(3.5949 -0.738909 0.491907)
(3.59356 -0.783576 0.450803)
(3.62786 -1.10749 0.188745)
(3.43509 -0.753796 0.13113)
(3.25001 0.0256534 -0.227507)
(3.36064 -0.838099 2.80623)
(3.48848 -0.988824 2.4109)
(3.40631 -1.6183 1.64568)
(3.76831 -0.881598 0.883268)
(3.8017 -1.0381 0.241359)
(3.55113 -1.76214 0.539195)
(4.0793 -1.20726 -0.383143)
(3.47289 -0.361413 0.219169)
(3.3579 -1.28699 3.20155)
(3.72736 -0.572294 2.92054)
(3.73433 -1.38077 2.4657)
(3.83346 -2.01553 2.10161)
(3.92884 -2.22936 1.68835)
(4.0899 -1.47112 1.15361)
(3.91704 -1.83069 0.92479)
(4.12412 -1.98865 0.985078)
(4.09871 -0.632687 -0.0385733)
(3.41198 -0.42903 2.14362)
(2.90729 -1.23287 1.88354)
(2.07277 -1.63893 2.70136)
(2.97646 -2.11499 2.58913)
(3.61277 -2.59277 2.06984)
(4.16503 -2.54334 2.49676)
(4.43211 -2.27476 1.3428)
(3.80011 -2.32226 1.70738)
(4.01236 -1.93021 0.690887)
(3.63161 -1.31396 -0.167456)
(2.53199 -0.969266 0.630931)
(2.46359 -1.67827 0.461141)
(2.23744 -1.36441 0.443098)
(1.80227 -1.32136 1.02442)
(1.51912 -0.949747 2.08362)
(2.41824 -2.12347 1.15122)
(2.58093 -2.94817 2.76109)
(2.88576 -2.67344 2.65247)
(2.09406 -3.9303 1.76353)
(2.97359 -4.10371 2.33268)
(5.22454 -1.01168 -0.2265)
(1.33643 -0.505801 -0.548407)
(1.53336 -0.720174 -0.755798)
(1.75742 -0.929825 -1.28845)
(1.54035 -1.06732 -1.10427)
(1.7254 -0.605036 -0.625413)
(1.26895 -0.851589 -0.352925)
(1.76458 -0.482219 -0.749682)
(1.8465 -0.223388 -0.473055)
(1.15825 -2.51018 -1.23337)
(0.871856 -3.55225 1.30528)
(1.95223 -4.08686 2.40117)
(2.10767 -3.20355 0.250901)
(1.24145 -0.202192 -0.538766)
(1.36036 -1.43134 -0.695377)
(1.43461 -1.45477 -0.95404)
(1.27404 -1.28026 -0.988619)
(1.2897 -1.25065 -0.923638)
(1.28189 -1.49757 -0.510258)
(1.18729 -1.2678 0.221398)
(2.00636 -0.33261 0.381413)
(1.78796 -0.402354 -0.406681)
(1.62051 1.00175 -0.266843)
(2.53449 -0.21709 -1.50862)
(1.05805 -2.55766 0.734996)
(1.513 -2.66092 0.861913)
(0.294728 -0.588878 -1.29363)
(0.403842 -0.832235 -1.60134)
(0.853589 -1.07795 -1.78035)
(0.979873 -1.41335 -1.39945)
(0.725056 -1.55777 -0.458419)
(1.36987 -0.588556 -0.522651)
(1.29498 -0.722263 0.0837351)
(1.43878 -0.558733 0.352543)
(1.23903 -0.292569 -0.0682157)
(1.84889 0.0323176 -0.411627)
(1.17069 0.467168 -0.236023)
(0.650143 0.777171 0.237924)
(1.56213 -0.640335 -0.361895)
(1.31 -2.35905 0.142507)
(0.1944 -0.26657 -0.851263)
(0.200259 -1.12045 -0.963938)
(0.133159 -0.920961 -1.66111)
(0.121284 -0.801406 -1.64689)
(0.313167 -0.724242 -1.30507)
(0.386077 -0.183332 -1.46046)
(0.574737 -0.102554 -0.933044)
(1.0227 0.15188 -0.774935)
(1.08374 0.00800962 -1.19309)
(0.888961 -0.152105 -1.09064)
(0.73721 -0.319483 -1.48368)
(1.31982 0.372244 -0.836188)
(0.776799 1.05407 0.0612965)
(1.11921 1.45931 -0.236669)
(2.30619 0.971186 0.140324)
(1.53624 0.885142 -0.0216661)
(1.85252 0.762135 0.00488663)
(1.68681 0.821446 -0.058937)
(2.32112 0.200196 0.053509)
(2.15266 0.502133 -0.0492353)
(1.85883 0.729142 -0.0443962)
(2.57335 0.051864 -0.00163336)
(2.68278 -0.118428 -0.0595303)
(2.49371 0.171203 -0.0774751)
(2.07458 0.596651 -0.000912652)
(2.82812 0.30387 0.160683)
(2.7505 -0.187681 -0.0352451)
(2.72958 -0.442407 0.00207192)
(2.78346 -0.0332827 0.075642)
(2.34393 0.629429 -0.160836)
(3.12764 -0.072619 0.45675)
(2.98336 -0.290478 0.217256)
(2.98632 -0.391358 0.102389)
(3.01157 -0.334869 0.270008)
(2.81441 -0.84922 0.0741586)
(2.61566 0.25056 0.178958)
(3.54096 -0.0895746 0.568761)
(3.42832 -0.506544 0.431131)
(3.37972 -0.44189 0.239474)
(3.33601 -0.761612 0.167703)
(3.12997 -0.767034 0.0504396)
(3.06924 -0.522697 -0.103714)
(2.92523 0.0806583 0.174155)
(3.77753 -0.130389 1.72693)
(3.7142 -0.414097 1.27549)
(3.56905 -0.956707 1.01916)
(3.61974 -0.884434 0.486093)
(3.64291 -1.01071 0.427379)
(3.64671 -1.02372 0.111442)
(3.47645 -0.682692 0.140933)
(3.16968 -0.393104 -0.090928)
(3.52395 -0.570512 3.02418)
(3.36087 -1.08482 2.85345)
(3.47365 -1.09173 2.19675)
(3.42813 -1.67111 1.39977)
(3.64094 -1.46656 0.839275)
(3.673 -1.52456 0.391874)
(3.54473 -1.82354 0.623725)
(4.00742 -1.27224 -0.32985)
(3.32638 -0.943324 0.284829)
(3.77023 -0.0236147 3.327)
(3.37662 -1.15954 3.09061)
(3.45726 -1.56185 2.73758)
(3.51601 -2.07691 2.34676)
(3.61249 -2.35385 1.97855)
(3.85268 -2.42199 1.65451)
(4.01117 -1.84127 1.15082)
(3.84991 -1.98005 0.915187)
(4.10542 -2.09747 0.841537)
(4.16863 -0.51323 -0.179026)
(3.36603 -0.773137 2.49999)
(3.19187 -0.821435 2.10516)
(2.89327 -1.1183 1.98587)
(2.02271 -1.57319 2.57811)
(3.05123 -2.36885 2.61724)
(3.51317 -2.86648 2.0834)
(4.1147 -2.62719 2.45715)
(4.09085 -2.7024 1.30175)
(3.34495 -2.7112 1.89876)
(3.64231 -2.76729 0.700898)
(3.85794 -1.3186 -0.136992)
(2.30775 -1.10735 0.721096)
(2.40859 -1.38009 0.96227)
(2.66465 -1.3798 0.852613)
(2.24095 -1.29393 0.573521)
(2.13598 -0.891769 1.13877)
(1.55925 -1.15814 1.97368)
(1.80612 -2.93063 1.15745)
(2.45121 -3.32265 2.28496)
(2.56467 -3.30609 1.98104)
(1.99729 -4.06712 1.65346)
(2.16945 -4.52699 1.94024)
(4.64816 -1.7038 0.116693)
(1.52958 -0.218913 -0.329906)
(1.37558 -0.645971 -0.642676)
(1.62024 -0.894024 -0.761)
(1.78997 -1.00008 -0.977112)
(1.57756 -1.01096 -0.770407)
(1.45635 -0.962977 -0.45521)
(1.31424 -0.795098 -0.246822)
(1.80478 -1.33636 -0.899504)
(1.78732 -0.830784 -0.475734)
(1.13018 -2.70924 -1.08051)
(0.616306 -3.86716 1.38996)
(2.23796 -3.94032 2.35033)
(1.59541 -3.5686 0.221166)
(1.09537 0.541619 -0.24968)
(1.0978 -0.803378 -0.661945)
(1.28657 -1.59016 -0.838761)
(1.38528 -1.53019 -0.871875)
(1.20803 -1.33513 -0.948279)
(1.26033 -1.3428 -0.897241)
(1.15655 -1.52694 -0.255086)
(1.2428 -1.12574 0.276537)
(1.9751 -0.592276 0.145217)
(1.71996 -1.02026 -0.419892)
(1.7968 0.794639 -0.307628)
(2.54767 -0.587317 -1.87141)
(0.480153 -2.82298 2.18617)
(2.08241 -2.73692 0.0686414)
(0.48391 -0.378622 -1.00553)
(0.23438 -0.661547 -1.28477)
(0.420476 -0.936351 -1.64441)
(0.806767 -1.3504 -1.67187)
(0.852312 -1.67909 -0.943459)
(0.776941 -1.49118 -0.0709995)
(1.37997 -0.722219 -0.281247)
(1.23463 -0.914517 0.426831)
(1.49498 -0.620835 0.220177)
(1.22399 -0.332605 -0.0876145)
(1.76658 -0.0604531 -0.535351)
(1.17814 0.548896 -0.250369)
(0.665324 0.780341 0.158772)
(1.668 -0.794992 -0.261397)
(1.09286 -2.56626 0.0955149)
(0.0433261 -0.210252 -0.57291)
(0.18447 -0.397958 -0.87271)
(0.164267 -1.28469 -0.852496)
(0.126807 -1.00435 -1.54507)
(0.139058 -0.778883 -1.53767)
(0.350239 -0.674733 -1.15772)
(0.388609 -0.209965 -1.39824)
(0.560125 -0.114564 -0.915588)
(1.04085 0.123045 -0.73877)
(1.11528 0.0252164 -1.22283)
(0.829316 -0.21752 -1.18121)
(0.651862 -0.349133 -1.50078)
(1.31064 0.385384 -0.828941)
(0.782554 1.06724 0.0241995)
(1.18957 1.5483 -0.256726)
(2.50448 1.01066 0.131859)
(1.41068 0.894046 0.0232119)
(1.73403 0.684836 0.0367178)
(1.58092 0.690554 0.0311833)
(2.08547 0.592885 0.10309)
(1.95317 0.55759 -0.0155087)
(1.73963 0.664932 0.017622)
(2.29201 0.255472 0.336945)
(2.33696 0.108251 0.0309333)
(2.13139 0.367032 0.00491498)
(1.91398 0.481406 -0.000487473)
(2.56925 0.395658 0.216042)
(2.57888 -0.160064 0.00799275)
(2.58718 -0.329049 -0.103856)
(2.44412 0.0944273 -0.236427)
(2.1105 0.348011 -0.0846648)
(2.88348 0.285044 0.337055)
(2.82113 -0.0705172 0.0636289)
(2.74806 -0.29143 -0.0562626)
(2.71843 -0.553142 -0.00924576)
(2.6529 -0.157994 0.103269)
(2.30661 0.880112 -0.253488)
(3.13816 0.0758443 0.542202)
(3.04825 -0.424023 0.407305)
(2.94324 -0.339386 0.230158)
(2.91589 -0.551345 0.163263)
(2.96238 -0.539424 0.246999)
(2.71901 -0.305652 0.145934)
(2.62557 0.0406565 0.270223)
(3.55636 -0.270287 0.685988)
(3.50834 -0.241438 0.618778)
(3.32301 -0.715837 0.40905)
(3.3436 -0.644264 0.264452)
(3.34465 -0.684415 0.163532)
(3.08587 -0.895337 0.165121)
(3.08759 -0.418144 -0.0426539)
(2.92289 0.0409066 0.208065)
(3.83968 -0.280377 1.62669)
(3.63895 -0.660057 1.78283)
(3.64806 -0.638758 1.27803)
(3.53976 -1.04437 0.91815)
(3.56642 -1.05635 0.55953)
(3.61038 -1.08452 0.445719)
(3.60193 -1.04537 0.108652)
(3.44397 -0.540384 0.216428)
(3.08736 -0.412968 -0.0423736)
(3.87918 -0.422064 2.87594)
(3.41881 -0.936362 3.09487)
(3.21395 -1.55611 2.70392)
(3.6138 -1.2283 1.76383)
(3.28087 -1.51006 1.5733)
(3.67374 -1.60461 0.753644)
(3.62649 -1.67005 0.350473)
(3.56705 -1.81598 0.683113)
(3.93027 -1.33723 -0.467153)
(3.30012 -0.937861 0.17378)
(3.97655 0.173183 3.4929)
(3.77062 -0.225136 3.1616)
(3.57229 -1.10661 2.85032)
(3.60564 -1.27551 2.67306)
(3.36531 -2.29034 2.28233)
(3.48168 -2.6602 1.86475)
(3.85641 -2.43166 1.64568)
(3.94725 -2.05571 1.14444)
(3.80217 -2.18521 0.980317)
(3.9063 -2.28869 0.723357)
(4.17256 -0.787705 -0.220565)
(3.44837 -0.788342 2.74118)
(3.29935 -0.590415 2.41571)
(3.21326 -0.962424 2.26666)
(2.33621 -1.52821 2.36875)
(1.81651 -2.31446 2.43248)
(3.0962 -2.52991 2.5469)
(3.31732 -2.96567 2.13167)
(3.83801 -3.00981 2.28707)
(3.67687 -3.10755 1.19898)
(2.86732 -3.12792 2.05473)
(3.54697 -2.736 0.597762)
(3.8947 -1.51313 -0.0510967)
(2.44711 -0.336098 0.665679)
(2.12687 -1.72526 0.796755)
(2.41413 -1.21756 1.42205)
(2.56278 -1.78736 0.795837)
(2.16421 -1.34966 0.713706)
(2.07026 -1.18713 0.924185)
(1.48988 -1.54668 1.63814)
(2.19586 -2.53317 1.63856)
(2.16602 -3.5937 2.2529)
(2.45019 -3.41305 2.05108)
(1.87459 -3.80693 1.58042)
(2.83122 -4.04496 1.36823)
(4.07882 -1.90247 0.320309)
(1.24787 -0.55863 0.115381)
(1.57068 -0.412943 -0.414611)
(1.43194 -0.794002 -0.657888)
(1.59996 -1.0582 -0.826616)
(1.79878 -1.03464 -0.606794)
(1.59698 -0.964523 -0.554891)
(1.54468 -0.721883 -0.257914)
(1.36388 -0.827502 -0.299114)
(1.69102 -1.60285 -1.49609)
(1.39466 -1.84499 -0.540214)
(1.15108 -2.80546 -0.477193)
(0.602986 -3.77257 1.56721)
(2.38343 -3.87917 2.11904)
(1.52358 -3.61594 0.184766)
(1.02782 0.576373 -0.314103)
(0.987161 0.151737 -0.541164)
(0.981333 -1.16766 -0.731079)
(1.22428 -1.72271 -0.847752)
(1.31132 -1.60732 -0.772149)
(1.12079 -1.51128 -0.768021)
(1.19718 -1.45457 -0.773304)
(1.12188 -1.45425 -0.0316672)
(1.26684 -1.0906 0.28403)
(1.86315 -0.90409 -0.0978435)
(1.79429 -0.982912 -1.0664)
(1.93697 0.594078 -0.111707)
(1.98985 -1.35396 -1.62175)
(0.375481 -2.87615 2.88614)
(2.6987 -2.72668 0.163202)
(0.251921 -0.419549 -1.11928)
(0.439675 -0.405323 -1.01048)
(0.177536 -0.744368 -1.25485)
(0.445186 -0.957085 -1.70346)
(0.771789 -1.47157 -1.59711)
(0.817783 -1.64722 -0.57316)
(0.898461 -1.35567 0.105535)
(1.3052 -0.925348 0.0478648)
(1.22094 -1.00476 0.48036)
(1.49305 -0.741512 0.0926089)
(1.17937 -0.453036 -0.148009)
(1.70213 -0.170934 -0.507057)
(1.17772 0.627994 -0.237113)
(0.698395 0.73931 0.116344)
(1.69029 -0.994508 -0.179912)
(1.04629 -2.636 0.0509596)
(-0.097636 -0.201286 -0.443066)
(0.0551271 -0.209139 -0.589492)
(0.157065 -0.553834 -0.868791)
(0.147518 -1.35521 -0.744173)
(0.14054 -0.989052 -1.38037)
(0.180989 -0.698119 -1.44823)
(0.378067 -0.652919 -1.00256)
(0.394991 -0.226832 -1.32515)
(0.548115 -0.125564 -0.897461)
(1.03456 0.112394 -0.743304)
(1.11463 0.0093837 -1.22131)
(0.833902 -0.215971 -1.22463)
(0.639979 -0.334275 -1.49147)
(1.31779 0.452115 -0.813779)
(0.790001 1.08551 -0.00575932)
(1.24925 1.49921 -0.264958)
(2.63444 1.01246 0.124122)
(1.34975 0.857362 0.0012435)
(1.60221 0.960271 0.0224983)
(1.4375 0.7391 0.0506951)
(1.96784 0.570724 0.0959821)
(1.75527 0.640541 -0.0620729)
(1.61347 0.532061 0.0272525)
(2.05315 0.5073 0.278858)
(2.09233 0.498172 0.199334)
(1.94392 0.518303 -0.0458179)
(1.7666 0.52273 -0.0250936)
(2.26293 0.459952 0.449468)
(2.33585 0.0834709 0.38243)
(2.30178 -0.0708301 0.122282)
(2.08881 0.261915 0.00184912)
(1.90861 0.426383 0.0656316)
(2.61856 0.344469 0.293426)
(2.594 0.267338 0.227937)
(2.57334 -0.172756 0.0250597)
(2.49889 -0.414926 -0.00205025)
(2.38797 0.109341 -0.17278)
(2.07998 0.412067 -0.102941)
(2.84467 0.263439 0.468646)
(2.83637 0.0982081 0.373887)
(2.79664 -0.0377698 0.159201)
(2.6788 -0.424541 -0.093454)
(2.70676 -0.548773 0.0384906)
(2.57964 0.0625937 0.100352)
(2.3658 0.996852 -0.450944)
(3.14585 0.0820471 0.6503)
(3.15262 0.035439 0.552113)
(3.00038 -0.0296601 0.332178)
(2.96497 -0.445796 0.213366)
(2.92137 -0.570355 0.192622)
(2.96444 -0.512263 0.203277)
(2.74972 -0.243761 0.238841)
(2.64085 -0.0193619 0.329067)
(3.67616 -0.155969 0.84047)
(3.56332 -0.45976 0.698005)
(3.36062 -0.561547 0.634581)
(3.30289 -0.988687 0.440435)
(3.33764 -0.7287 0.295567)
(3.28265 -0.785302 0.142838)
(3.04772 -0.957838 0.193893)
(3.12953 -0.334246 0.0120505)
(2.88172 -0.112565 0.234448)
(3.95492 -0.287997 1.61912)
(3.84092 -0.453077 1.7315)
(3.57241 -0.804009 1.58783)
(3.69622 -0.923036 1.12609)
(3.49624 -1.19164 0.85852)
(3.42611 -1.31209 0.632389)
(3.44529 -1.26004 0.460042)
(3.57743 -1.17804 0.117668)
(3.34459 -0.658627 0.306484)
(3.02335 -0.492368 0.0299742)
(4.03876 -0.631524 2.67854)
(3.93137 -0.597677 2.81024)
(2.99942 -2.00433 2.97391)
(3.40358 -1.47288 2.51645)
(3.3542 -1.7634 1.74898)
(3.35007 -1.8895 1.23732)
(3.62039 -1.71751 0.867683)