/*--------------------------------*- C++ -*----------------------------------*\
  =========                 |
  \\      /  F ield         | OpenFOAM: The Open Source CFD Toolbox
   \\    /   O peration     | Website:  https://openfoam.org
    \\  /    A nd           | Version:  7
     \\/     M anipulation  |
\*---------------------------------------------------------------------------*/
FoamFile
{
    version     2.0;
    format      ascii;
    class       volScalarField;
    location    "6";
    object      p;
}
// * * * * * * * * * * * * * * * * * * * * * * * * * * * * * * * * * * * * * //

dimensions      [0 2 -2 0 0 0 0];

internalField   nonuniform List<scalar> 
18750
(
-78.872
-79.3945
-78.9604
-78.6638
-77.7747
-79.5662
-78.9675
-79.1354
-78.5773
-81.7769
-76.4654
-78.3406
-71.2909
-79.6477
-78.9564
-81.8453
-79.3626
-78.8262
-81.615
-82.8099
-74.3748
-76.2685
-74.6547
-79.097
-73.4498
-80.8771
-79.7781
-79.1973
-81.8661
-82.6093
-79.5983
-79.377
-81.4751
-82.7983
-82.6931
-74.2689
-74.8504
-76.5212
-76.3934
-76.5715
-79.3508
-79.8891
-76.0211
-81.8221
-82.1893
-79.9721
-79.4814
-81.908
-82.7097
-81.8322
-79.8083
-80.119
-81.356
-82.7807
-82.6897
-82.2485
-71.739
-74.3802
-74.7661
-75.0904
-77.2445
-78.706
-77.3544
-79.3427
-80.698
-81.1145
-80.825
-78.2982
-82.5265
-82.2564
-81.1978
-80.2729
-79.72
-81.9104
-82.7952
-81.7878
-81.2642
-79.9763
-80.867
-81.2541
-82.7533
-82.6895
-82.2333
-82.8607
-70.1814
-71.7151
-71.7628
-74.577
-75.4394
-74.5848
-75.4631
-78.1151
-79.1986
-79.752
-78.5707
-81.4723
-81.8427
-81.1873
-82.4021
-81.6841
-80.0009
-82.8522
-82.346
-81.2685
-80.2838
-80.6049
-79.9446
-81.8607
-82.8156
-81.7483
-81.2013
-81.5655
-80.0959
-81.4718
-81.223
-82.7064
-82.6948
-82.2215
-82.8393
-83.5435
-69.1583
-70.0559
-70.358
-71.7144
-71.564
-72.2606
-74.6694
-75.5631
-74.8419
-75.4187
-75.8078
-79.4807
-80.4675
-79.4934
-80.5178
-79.6038
-83.153
-82.6131
-81.4879
-82.7004
-81.7371
-82.3787
-81.0515
-82.8697
-82.4219
-81.3208
-80.2716
-80.5233
-80.7565
-80.1487
-81.7958
-82.7483
-81.7186
-81.141
-81.4641
-81.9134
-80.1721
-81.8641
-81.2702
-82.6685
-82.706
-82.2109
-82.798
-83.4889
-83.2587
-68.2511
-69.1111
-68.9317
-69.9812
-70.098
-70.4212
-71.8327
-71.1905
-72.0933
-72.0217
-74.4208
-75.6768
-75.1884
-75.7259
-75.7363
-76.7037
-81.3708
-80.9866
-79.9513
-80.9689
-81.2293
-81.3607
-84.2075
-83.1306
-81.5703
-82.7135
-81.94
-80.9174
-82.8043
-81.4901
-82.7506
-82.4024
-81.3384
-80.2341
-80.4607
-80.9032
-80.6791
-80.3204
-81.7327
-82.5899
-81.6892
-81.082
-81.423
-81.9055
-81.8765
-80.2227
-82.0614
-81.378
-82.6687
-82.7237
-82.2028
-82.7543
-83.4614
-83.215
-83.1361
-67.6417
-68.3408
-68.1405
-69.2619
-69.0833
-69.2494
-69.8891
-70.1226
-70.3055
-70.339
-71.8547
-71.4555
-72.0436
-72.7607
-72.5721
-74.8128
-75.4338
-75.5749
-74.8594
-75.7762
-77.2164
-77.3894
-82.6714
-81.2692
-80.5256
-81.2246
-81.2889
-81.1604
-82.3947
-84.8408
-83.5461
-81.8099
-82.6402
-81.9889
-80.9075
-80.6143
-82.8961
-81.7881
-82.6219
-82.3165
-81.3807
-80.192
-80.3983
-80.8106
-81.3612
-80.5388
-80.4398
-81.6568
-82.4424
-81.6687
-81.0251
-81.423
-81.8579
-81.8554
-81.9242
-80.256
-82.14
-81.5257
-82.667
-82.7326
-82.1993
-82.714
-83.4416
-83.177
-83.1012
-82.5742
-66.9471
-67.6169
-67.482
-68.2137
-68.0877
-68.2422
-69.1874
-69.1878
-69.1562
-69.3512
-69.9087
-70.2331
-70.3948
-70.3254
-70.7344
-72.0625
-71.5263
-72.4981
-72.6286
-72.6064
-72.4333
-74.4821
-75.7017
-75.5986
-74.9973
-76.0357
-77.4004
-77.134
-77.8947
-83.6052
-81.3569
-81.0622
-81.3137
-81.4526
-81.2178
-80.3894
-82.8103
-85.3776
-83.6937
-82.1496
-82.4692
-81.9164
-80.9153
-80.6083
-80.4465
-82.8633
-81.8014
-82.437
-82.19
-81.371
-80.1193
-80.3511
-80.719
-81.2631
-81.3505
-80.3903
-80.4985
-81.5648
-82.3494
-81.6217
-80.9692
-81.4108
-81.7878
-81.843
-81.8943
-81.8473
-80.2751
-82.1585
-81.678
-82.673
-82.7274
-82.1994
-82.6849
-83.417
-83.1233
-83.0485
-82.5603
-82.6256
-66.5826
-66.8424
-66.9535
-66.9087
-67.4411
-67.4205
-67.6506
-68.1355
-68.1304
-68.2364
-68.4148
-69.2404
-69.0726
-69.2817
-69.2971
-69.5937
-69.8874
-70.1365
-70.4241
-70.4391
-70.7055
-71.1406
-72.1933
-71.6438
-72.6873
-72.2071
-72.6799
-73.3485
-73.4476
-74.2112
-75.993
-75.6354
-75.5145
-76.2254
-76.8322
-77.2498
-77.25
-78.0624
-83.884
-81.5655
-81.4019
-81.4021
-81.9175
-81.5
-80.4657
-80.242
-82.6768
-85.5217
-83.526
-82.2167
-82.3014
-81.7502
-80.8782
-80.5877
-80.4037
-80.2429
-82.5132
-81.6205
-82.2286
-82.0501
-81.3207
-80.059
-80.3092
-80.6577
-81.1762
-81.2755
-80.4286
-80.1705
-80.4731
-81.4787
-82.252
-81.552
-80.9306
-81.4081
-81.7719
-81.8352
-81.8824
-81.8704
-81.9116
-80.3045
-82.1251
-81.7767
-82.6383
-82.7195
-82.2007
-82.6786
-83.3906
-83.0939
-82.999
-82.5483
-82.6608
-82.7274
-66.1471
-66.4805
-66.6496
-66.595
-66.8957
-66.9769
-67.0242
-67.0287
-67.5263
-67.4403
-67.5518
-67.5949
-68.1509
-68.1122
-68.1762
-68.4612
-68.6307
-69.0677
-68.9314
-69.0729
-69.2792
-69.5395
-69.7247
-69.9749
-70.2566
-70.3362
-70.4425
-70.7878
-71.0494
-71.733
-72.3269
-71.9758
-73.2415
-72.3187
-72.6189
-73.3586
-73.484
-73.9771
-74.3379
-75.9849
-75.5168
-75.5953
-76.1428
-77.0026
-77.4002
-77.0914
-77.0571
-78.0635
-84.062
-81.1527
-81.5696
-81.374
-81.5501
-81.2815
-80.5641
-80.1571
-80.1997
-82.0279
-84.7252
-83.2069
-82.061
-81.9802
-81.5378
-80.8464
-80.5747
-80.3606
-79.9776
-79.5323
-81.781
-81.3008
-82.0744
-81.9135
-81.2514
-80.0072
-80.2415
-80.6097
-81.1076
-81.2298
-80.4014
-79.9821
-79.9822
-80.3529
-81.4122
-82.1566
-81.5583
-80.8981
-81.3951
-81.7755
-81.8325
-81.8979
-81.8749
-81.9353
-82.0823
-80.367
-82.079
-81.972
-82.5789
-82.7192
-82.2016
-82.6603
-83.3639
-83.0796
-82.9775
-82.5489
-82.6736
-82.7908
-82.5992
-65.8081
-66.1223
-66.1753
-66.1705
-66.555
-66.6254
-66.5768
-66.6287
-67.0103
-67.0212
-66.9895
-67.1007
-67.0794
-67.6066
-67.4286
-67.5445
-67.5616
-67.7267
-68.1756
-68.1416
-68.0188
-68.4603
-68.5931
-68.6255
-69.1468
-68.9614
-68.9799
-69.1759
-69.4696
-69.6832
-70.0104
-70.1232
-70.3784
-70.3568
-70.4359
-70.8071
-71.0988
-71.5968
-72.0002
-72.629
-72.181
-73.1473
-72.5919
-72.6728
-72.783
-73.0322
-73.7175
-74.1837
-74.8226
-75.775
-75.9028
-75.4577
-75.9477
-77.1219
-77.4462
-77.1198
-77.0228
-77.0185
-78.0115
-82.6783
-80.7027
-81.1573
-81.0458
-81.3146
-81.0511
-80.5661
-80.0906
-79.8691
-78.5502
-80.7686
-82.8513
-82.7022
-81.9252
-81.6733
-81.307
-80.8341
-80.5753
-80.3353
-79.7645
-79.4277
-78.7814
-80.9644
-80.9342
-81.9177
-81.7493
-81.1812
-79.9396
-80.1915
-80.5484
-81.0797
-81.1858
-80.4045
-80.1446
-80.8353
-79.8935
-80.2223
-81.3672
-82.0967
-81.5583
-80.8698
-81.3762
-81.7766
-81.8328
-81.9161
-81.9046
-81.9353
-82.1085
-82.353
-80.4165
-82.0827
-82.1986
-82.5955
-82.727
-82.2055
-82.6292
-83.3347
-83.0784
-82.9769
-82.5688
-82.6823
-82.8611
-82.7191
-83.0881
-65.5641
-65.8115
-65.7977
-65.8218
-66.1943
-66.1319
-66.1996
-66.1716
-66.6185
-66.5809
-66.5784
-66.6242
-66.613
-67.0045
-67.0086
-67.0697
-67.0987
-67.1295
-67.0681
-67.6034
-67.4696
-67.5717
-67.4955
-67.7279
-67.8106
-68.339
-68.2365
-68.2991
-68.3809
-68.5606
-68.8358
-68.9987
-69.2876
-69.0972
-69.1349
-69.1173
-69.4448
-69.7152
-69.9595
-70.1611
-70.2843
-70.4963
-70.4557
-70.6303
-70.8645
-71.2332
-71.5318
-71.9516
-72.189
-72.6183
-72.6567
-73.074
-72.5903
-72.8976
-73.4144
-73.3808
-73.5864
-74.039
-73.8052
-74.9942
-75.6724
-75.708
-75.6081
-76.0132
-76.7673
-76.9881
-77.3522
-77.0455
-77.1485
-76.117
-77.7302
-81.023
-80.4563
-80.647
-80.6188
-80.9001
-80.9771
-80.3976
-80.1665
-79.4593
-78.3889
-77.8429
-79.3948
-81.2209
-82.2928
-81.7324
-81.4608
-81.0592
-80.7515
-80.591
-80.301
-79.588
-79.3152
-78.8043
-79.4804
-80.264
-80.5758
-81.725
-81.5756
-81.1264
-79.9206
-80.1784
-80.4876
-81.0183
-81.1244
-80.4487
-80.3097
-80.9642
-81.3555
-79.8468
-80.1623
-81.3547
-82.0568
-81.5179
-80.8721
-81.3625
-81.7757
-81.8461
-81.937
-81.931
-81.978
-82.1538
-82.454
-82.792
-80.399
-82.1153
-82.3585
-82.6482
-82.7333
-82.2012
-82.603
-83.3149
-83.0741
-82.9851
-82.6344
-82.7354
-82.9449
-82.8476
-83.1544
-83.4639
-65.3218
-65.5941
-65.57
-65.5708
-65.8551
-65.7732
-65.836
-65.8248
-65.7966
-66.2064
-66.1712
-66.2037
-66.2018
-66.2082
-66.5676
-66.5735
-66.6236
-66.6355
-66.6813
-66.5809
-67.0219
-66.9876
-67.04
-67.1186
-67.203
-67.2944
-67.0921
-67.6613
-67.6039
-67.6469
-67.5285
-67.781
-67.8447
-67.9787
-68.3893
-68.336
-68.31
-68.402
-68.6498
-68.7973
-68.9565
-69.1619
-69.3299
-69.2029
-69.1668
-69.2401
-69.5394
-69.7271
-69.8658
-70.1528
-70.4777
-70.3455
-70.5977
-70.4991
-70.6425
-70.8992
-71.3436
-71.6311
-71.8957
-72.168
-72.3172
-72.6079
-72.8672
-73.1817
-72.9036
-72.8623
-73.3143
-73.4703
-73.5606
-74.0386
-74.0318
-74.1221
-75.1182
-76.1601
-75.4239
-75.8985
-76.0634
-76.3358
-76.8899
-77.2926
-76.9531
-76.9812
-76.2248
-76.2161
-77.2702
-79.6671
-80.171
-80.3206
-80.2576
-80.5534
-80.6095
-80.3074
-80.1725
-79.3911
-78.4821
-78.1602
-79.2911
-78.3455
-79.9159
-81.5686
-81.648
-81.2679
-80.8174
-80.6376
-80.5973
-80.2353
-79.4972
-79.2196
-78.8666
-79.5378
-79.9638
-79.7168
-80.2832
-81.541
-81.4778
-81.047
-79.999
-80.1585
-80.4738
-80.9344
-81.0367
-80.5287
-80.482
-81.0956
-81.5133
-82.0461
-79.832
-80.1922
-81.3672
-82.024
-81.5814
-80.8887
-81.3601
-81.8099
-81.8675
-81.9681
-81.9548
-82.0035
-82.2081
-82.561
-82.9184
-83.1555
-80.385
-82.1336
-82.4406
-82.6736
-82.7382
-82.187
-82.569
-83.3018
-83.0489
-83.0003
-82.6788
-82.8146
-83.0297
-82.9703
-83.2111
-83.5081
-83.3406
-65.1254
-65.3494
-65.3516
-65.286
-65.5987
-65.578
-65.5726
-65.5769
-65.5318
-65.8418
-65.861
-65.8619
-65.8574
-65.8274
-65.8033
-66.1996
-66.153
-66.2232
-66.2191
-66.2698
-66.1843
-66.594
-66.5553
-66.6566
-66.7232
-66.6877
-66.726
-66.6239
-67.0898
-66.9643
-67.0725
-67.0632
-67.1664
-67.2696
-67.3389
-67.2587
-67.7134
-67.5528
-67.6997
-67.6222
-67.7119
-67.7848
-67.884
-68.1436
-68.4241
-68.3619
-68.298
-68.4809
-68.618
-68.8047
-68.8595
-69.1174
-69.2895
-69.4103
-69.2197
-69.1809
-69.2846
-69.5381
-69.6871
-69.8419
-70.0907
-70.3415
-70.6251
-70.5874
-70.5925
-70.802
-70.7811
-70.8635
-71.2759
-71.6006
-71.8061
-72.1601
-72.3263
-72.4603
-72.8599
-73.0205
-73.3266
-73.1164
-73.0029
-73.3686
-73.3374
-73.7872
-73.8966
-74.0511
-74.161
-74.1693
-75.1377
-75.8661
-75.5413
-75.9594
-76.004
-76.1636
-76.9209
-76.9065
-76.9143
-76.7709
-76.202
-76.4383
-77.8542
-76.8339
-78.5821
-79.3559
-79.9354
-79.8295
-80.3594
-80.3493
-80.1911
-80.2137
-79.2908
-78.4288
-78.2128
-79.4161
-79.4969
-77.5242
-78.9014
-80.7692
-81.0832
-81.2186
-80.6585
-80.4973
-80.5403
-80.1773
-79.4392
-79.1927
-79.0712
-79.6131
-80.0686
-80.5604
-79.3928
-80.0456
-81.3742
-81.4393
-80.9685
-80.0214
-80.1371
-80.4358
-80.8933
-80.9818
-80.6099
-80.6958
-81.1904
-81.7171
-82.2149
-82.4677
-79.8546
-80.2606
-81.3921
-82.0086
-81.6287
-80.9151
-81.3509
-81.8402
-81.8898
-82.0192
-81.993
-82.0509
-82.2706
-82.6831
-83.0547
-83.2787
-83.4397
-80.4128
-82.1289
-82.4833
-82.6659
-82.7546
-82.1771
-82.5297
-83.2634
-83.015
-83.0138
-82.6693
-82.8838
-83.1046
-83.0798
-83.2673
-83.555
-83.4158
-83.6865
-64.9797
-65.1523
-65.1384
-65.0972
-65.338
-65.3727
-65.3069
-65.2896
-65.2709
-65.5965
-65.6326
-65.5862
-65.5864
-65.5805
-65.562
-65.8737
-65.8643
-65.8927
-65.8776
-65.8876
-65.8581
-65.7859
-66.2333
-66.2254
-66.184
-66.2324
-66.2733
-66.2816
-66.2265
-66.6268
-66.6446
-66.6142
-66.6028
-66.6884
-66.711
-66.775
-66.7342
-67.1064
-67.0205
-67.1052
-67.0081
-67.1062
-67.2678
-67.3223
-67.4866
-67.3307
-67.666
-67.6237
-67.635
-67.6886
-67.7104
-67.8306
-67.9456
-68.0831
-68.3061
-68.4654
-68.4536
-68.2973
-68.4719
-68.5529
-68.6891
-68.9566
-69.0455
-69.2804
-69.5117
-69.4444
-69.3494
-69.298
-69.2418
-69.5322
-69.7134
-69.8577
-70.0247
-70.28
-70.5551
-70.8208
-70.826
-70.7621
-71.0435
-70.9627
-70.9382
-71.1801
-71.4905
-71.8282
-72.0951
-72.2278
-72.3881
-72.508
-72.9974
-73.2256
-73.3426
-73.1885
-73.1468
-73.398
-73.662
-73.7464
-73.8716
-73.8454
-74.0266
-74.1495
-74.684
-75.2582
-75.7833
-75.7285
-75.7445
-76.0584
-76.2203
-76.6639
-76.982
-76.7604
-76.7901
-76.0741
-76.6932
-77.8179
-78.1373
-76.4788
-77.9239
-78.6085
-79.289
-79.7693
-80.0165
-80.0256
-80.0978
-80.1241
-79.2986
-78.4785
-78.346
-79.2309
-79.4609
-79.2745
-76.754
-78.2834
-80.1142
-80.4592
-81.0865
-80.4338
-80.3266
-80.4671
-80.1742
-79.3795
-79.1549
-79.3202
-79.7747
-80.3098
-80.9972
-81.2464
-79.3221
-79.8952
-81.2395
-81.4078
-80.8728
-80.0114
-80.1809
-80.3977
-80.8623
-80.9463
-80.6948
-80.6533
-81.3093
-81.898
-82.4043
-82.626
-82.9281
-79.8732
-80.2909
-81.4127
-82.0298
-81.625
-80.9558
-81.3512
-81.8636
-81.9365
-82.0829
-82.0425
-82.1211
-82.3339
-82.8191
-83.202
-83.3991
-83.5517
-84.0085
-80.4533
-82.0878
-82.4754
-82.6658
-82.7575
-82.1805
-82.5036
-83.2004
-82.9844
-83.0173
-82.6912
-83.0488
-83.1914
-83.1804
-83.3331
-83.6007
-83.4767
-83.747
-84.0941
-64.7517
-65.0004
-64.9988
-64.937
-65.1476
-65.176
-65.1418
-65.0994
-65.0797
-65.4012
-65.3711
-65.354
-65.3186
-65.278
-65.2697
-65.6571
-65.6165
-65.624
-65.6394
-65.5988
-65.5838
-65.5248
-65.903
-65.9296
-65.8651
-65.9167
-65.9182
-65.9085
-65.9003
-65.7549
-66.2489
-66.2255
-66.225
-66.2258
-66.2704
-66.3145
-66.3297
-66.2772
-66.6186
-66.6139
-66.6424
-66.6626
-66.7011
-66.8038
-66.7706
-66.9209
-66.7551
-67.1209
-67.0821
-67.0673
-67.1449
-67.1463
-67.301
-67.3258
-67.5071
-67.6472
-67.4741
-67.6974
-67.698
-67.6564
-67.6923
-67.7859
-67.8541
-68.0763
-68.0293
-68.3629
-68.5837
-68.476
-68.5344
-68.4726
-68.4917
-68.5774
-68.6354
-68.91
-69.0712
-69.2963
-69.5214
-69.7176
-69.5012
-69.4581
-69.3847
-69.4461
-69.5446
-69.7076
-69.8428
-70.1201
-70.2938
-70.5043
-70.7803
-71.1266
-71.0274
-70.9743
-71.2075
-71.0254
-71.142
-71.2938
-71.4881
-71.7945
-71.9679
-72.1744
-72.3283
-72.4017
-72.9597
-73.1544
-73.2382
-73.347
-73.1495
-73.4746
-73.5576
-73.7182
-73.8372
-73.8206
-73.7825
-74.0175
-74.473
-74.7023
-75.0836
-75.3321
-75.7383
-75.6832
-76.1715
-76.242
-75.9949
-76.7647
-76.8392
-76.8306
-76.4467
-76.0519
-76.6083
-77.7737
-78.0348
-77.8214
-76.3786
-77.8112
-77.988
-78.6039
-79.6267
-79.8015
-79.7736
-79.9125
-80.0889
-79.222
-78.5821
-78.5702
-79.3202
-79.3121
-79.3319
-79.9353
-76.293
-77.9105
-79.7962
-80.052
-80.7433
-80.2373
-80.1524
-80.3352
-80.0452
-79.3738
-79.1682
-79.2604
-79.8139
-80.4106
-81.4
-81.6101
-81.9281
-79.4273
-79.891
-81.1406
-81.4001
-80.8812
-80.0472
-80.243
-80.3942
-80.8227
-80.9139
-80.784
-80.7905
-81.4744
-82.115
-82.6096
-82.8279
-83.1243
-83.8055
-79.8357
-80.3079
-81.3971
-82.1022
-81.6997
-81.0095
-81.3782
-81.913
-81.9915
-82.147
-82.0992
-82.1897
-82.4159
-82.9788
-83.3517
-83.5242
-83.6678
-84.1664
-84.5169
-80.5265
-82.0284
-82.43
-82.7005
-82.749
-82.2022
-82.5026
-83.1565
-82.9824
-83.0303
-82.7699
-83.2276
-83.281
-83.2784
-83.4077
-83.6493
-83.5323
-83.7989
-84.1612
-84.159
-64.7502
-64.8078
-64.8217
-64.7432
-65.012
-65.0312
-64.9936
-64.9582
-64.8925
-65.1659
-65.1819
-65.1703
-65.1683
-65.0984
-65.0881
-65.4019
-65.3808
-65.3967
-65.3863
-65.3674
-65.315
-65.3021
-65.6642
-65.6381
-65.6097
-65.6453
-65.6164
-65.6467
-65.608
-65.4851
-65.9339
-65.9332
-65.9265
-65.9176
-65.9497
-65.9815
-65.9388
-65.9166
-65.8017
-66.2454
-66.2454
-66.2431
-66.2657
-66.2702
-66.3018
-66.3655
-66.4492
-66.3597
-66.623
-66.608
-66.6201
-66.7048
-66.7182
-66.7818
-66.8246
-66.9094
-67.0327
-66.8994
-67.1384
-67.1405
-67.0122
-67.1434
-67.194
-67.2686
-67.356
-67.4799
-67.6307
-67.7868
-67.5625
-67.71
-67.7048
-67.6782
-67.7237
-67.7969
-67.878
-67.9716
-68.1853
-68.3467
-68.5211
-68.6821
-68.5191
-68.5278
-68.4546
-68.5663
-68.565
-68.7274
-68.8398
-69.0611
-69.2793
-69.4426
-69.6582
-69.8129
-69.6185
-69.6134
-69.4952
-69.443
-69.5938
-69.7747
-69.8878
-70.0412
-70.2815
-70.5783
-70.7442
-71.0418
-71.3168
-71.1646
-71.2825
-71.2645
-71.1702
-71.3072
-71.3347
-71.5337
-71.7679
-71.8591
-72.1196
-72.3627
-72.4557
-72.8993
-73.2326
-73.337
-73.3905
-73.4305
-73.4451
-73.4611
-73.5407
-73.7488
-73.9088
-73.8892
-73.6686
-74.0637
-74.5742
-74.7287
-75.1093
-75.5682
-75.2814
-76.1532
-75.5641
-76.2128
-76.2634
-76.2002
-76.6131
-76.7865
-76.6849
-76.2453
-76.0889
-76.719
-77.6147
-77.9624
-77.8205
-77.7614
-76.4902
-78.053
-77.8416
-78.2804
-79.0365
-79.5594
-79.7163
-79.7309
-80.085
-79.1504
-78.6613
-78.7102
-79.1502
-79.4566
-79.4803
-80.13
-80.3394
-76.2769
-78.2396
-79.6639
-80.043
-80.4694
-80.0452
-79.9454
-80.1957
-79.9241
-79.3855
-79.2344
-79.4164
-79.8621
-80.5371
-81.3583
-81.911
-82.3966
-82.9357
-79.4888
-79.9051
-81.1142
-81.4315
-80.9232
-80.0996
-80.344
-80.5694
-80.7978
-80.9136
-80.8637
-81.0172
-81.6858
-82.4108
-82.8429
-83.069
-83.4011
-83.9461
-84.9823
-79.778
-80.3231
-81.3501
-82.1572
-81.7745
-81.0719
-81.4205
-81.9503
-82.0527
-82.2019
-82.1774
-82.2507
-82.53
-83.1631
-83.5001
-83.6574
-83.7966
-84.3284
-84.7135
-84.8826
-80.6043
-81.9655
-82.3813
-82.7213
-82.7461
-82.2404
-82.5154
-83.1383
-83.0089
-83.1014
-82.9701
-83.3287
-83.3674
-83.3642
-83.4906
-83.6971
-83.5858
-83.8563
-84.2292
-84.1846
-83.7273
-64.6272
-64.7838
-64.7039
-64.7202
-64.8438
-64.846
-64.8294
-64.8248
-64.7463
-64.9923
-65.028
-65.0086
-65.069
-64.9862
-64.9207
-65.1483
-65.1978
-65.1753
-65.1817
-65.1912
-65.1261
-65.0988
-65.3904
-65.396
-65.4059
-65.3845
-65.3747
-65.4201
-65.3476
-65.3145
-65.66
-65.6714
-65.6285
-65.6153
-65.6368
-65.6335
-65.7132
-65.6279
-65.5451
-65.9185
-65.913
-65.9276
-65.9339
-65.9508
-65.9581
-66.0019
-66.034
-65.9632
-65.8809
-66.2676
-66.25
-66.2654
-66.3157
-66.2936
-66.311
-66.3483
-66.476
-66.605
-66.45
-66.6548
-66.6882
-66.59
-66.6845
-66.7008
-66.7607
-66.8569
-66.9443
-67.0587
-67.1468
-67.0201
-67.1424
-67.1365
-66.992
-67.1311
-67.1241
-67.2432
-67.3082
-67.4691
-67.6571
-67.7432
-67.8843
-67.7917
-67.7257
-67.6987
-67.6832
-67.7319
-67.7541
-67.8323
-67.9573
-68.1394
-68.3161
-68.4867
-68.6549
-68.901
-68.5701
-68.6105
-68.414
-68.6366
-68.5569
-68.6682
-68.8633
-68.9313
-69.1491
-69.4218
-69.5605
-69.8551
-70.0554
-69.6214
-69.7389
-69.6826
-69.4702
-69.6404
-69.7688
-69.9305
-70.0535
-70.1171
-70.4848
-70.7249
-70.9984
-71.2116
-71.5621
-71.1719
-71.4565
-71.6103
-71.3685
-71.2322
-71.2802
-71.5136
-71.6769
-71.7455
-71.9943
-72.2108
-72.4496
-72.7644
-73.216
-73.517
-73.5801
-73.6186
-73.5777
-73.7117
-73.2067
-73.3453
-73.7267
-73.8176
-73.9306
-73.7588
-73.9531
-74.7453
-74.6839
-75.139
-75.6526
-75.9368
-75.4117
-76.7698
-75.9269
-76.0419
-76.1864
-76.4015
-76.4734
-76.7453
-76.5913
-76.4849
-76.0325
-76.7713
-77.5741
-77.9176
-77.5131
-77.8578
-78.277
-76.8578
-78.6015
-78.245
-78.321
-78.5414
-79.2318
-79.4788
-79.6406
-79.789
-79.0965
-78.6895
-78.7807
-79.1507
-79.2315
-79.6658
-80.1043
-80.8171
-81.7577
-76.4507
-78.828
-79.7814
-80.219
-80.2543
-79.9092
-79.7755
-80.0311
-79.8221
-79.3375
-79.5777
-79.6607
-80.1051
-80.8944
-81.7217
-82.2571
-82.8397
-83.2951
-84.1553
-79.4933
-79.9322
-81.1146
-81.4633
-80.9165
-80.1895
-80.422
-80.6105
-80.786
-80.9274
-81.003
-81.156
-81.8823
-82.6884
-83.1125
-83.3586
-83.698
-84.1341
-85.1376
-85.2621
-79.7314
-80.3404
-81.3087
-82.2051
-81.8496
-81.1308
-81.4711
-81.9656
-82.1159
-82.2525
-82.2571
-82.3401
-82.6833
-83.3548
-83.647
-83.7971
-83.9217
-84.4699
-84.8344
-84.9459
-84.5937
-80.663
-81.9163
-82.3713
-82.7267
-82.7463
-82.2655
-82.5118
-83.1454
-83.0395
-83.1821
-83.0707
-83.3878
-83.4546
-83.4324
-83.5772
-83.7445
-83.6414
-83.9337
-84.2939
-84.2246
-83.7432
-83.5305
-64.4275
-64.6362
-64.5895
-64.6034
-64.7904
-64.7615
-64.6891
-64.7016
-64.6489
-64.888
-64.8803
-64.864
-64.8498
-64.8249
-64.7838
-65.0073
-65.0099
-65.0425
-65.0537
-65.0259
-65.0004
-64.9497
-65.1678
-65.1608
-65.1921
-65.1975
-65.1878
-65.2344
-65.1804
-65.1302
-65.4174
-65.437
-65.4529
-65.3741
-65.4037
-65.4262
-65.4894
-65.3965
-65.3291
-65.6567
-65.6391
-65.6597
-65.6378
-65.6666
-65.6576
-65.6864
-65.773
-65.6757
-65.5618
-65.9486
-65.9095
-65.9347
-66.0078
-65.9637
-65.9495
-65.9908
-66.101
-66.1906
-66.0566
-65.9966
-66.3241
-66.3211
-66.2569
-66.3195
-66.3205
-66.3179
-66.3488
-66.4773
-66.6054
-66.6824
-66.5726
-66.664
-66.6833
-66.671
-66.6748
-66.6591
-66.7524
-66.8602
-66.9562
-67.0632
-67.1762
-67.2879
-67.1043
-67.1501
-67.1634
-67.1857
-67.1044
-67.171
-67.2424
-67.3868
-67.4346
-67.6217
-67.7888
-67.9458
-68.1298
-67.8868
-67.7078
-67.7634
-67.7632
-67.6976
-67.7987
-67.8824
-68.09
-68.0997
-68.2802
-68.5184
-68.6315
-68.8581
-68.9688
-68.5517
-68.6967
-68.5636
-68.5203
-68.5276
-68.6777
-68.8245
-68.9638
-69.0703
-69.3637
-69.5139
-69.772
-70.029
-70.2438
-69.6457
-69.7676
-69.975
-69.6569
-69.7376
-69.8131
-69.8923
-70.0687
-70.0697
-70.3781
-70.618
-70.8255
-71.2133
-71.5408
-71.8361
-71.1072
-71.3467
-71.6625
-71.5459
-71.3439
-71.3675
-71.4179
-71.472
-71.6087
-71.8919
-72.0608
-72.3617
-72.6801
-73.2013
-73.4087
-73.9812
-73.7111
-73.2508
-73.8051
-73.5351
-73.3405
-73.3192
-73.4893
-73.7118
-73.7509
-73.8243
-73.97
-74.7635
-75.0214
-75.0941
-75.6077
-75.8384
-76.0883
-75.4406
-77.3069
-76.5041
-76.3236
-76.2015
-76.5333
-76.3497
-76.5099
-76.4112
-76.431
-75.9914
-76.5669
-77.6371
-77.8418
-77.6705
-77.9744
-78.5555
-78.7587
-77.3004
-79.5203
-78.7617
-78.6024
-78.3504
-78.8543
-79.2132
-79.3463
-79.6834
-79.2741
-79.1728
-79.0271
-79.0762
-79.3929
-79.6967
-80.3811
-81.2781
-81.9174
-83.0924
-76.7842
-79.1872
-80.0477
-80.4641
-80.2373
-79.8105
-79.697
-79.7779
-79.7048
-79.2991
-79.4527
-79.8132
-80.266
-81.21
-82.2624
-82.8001
-83.26
-83.6587
-84.4953
-85.0897
-79.4604
-79.9807
-81.0777
-81.4727
-80.8637
-80.2938
-80.5329
-80.6566
-80.7812
-80.9526
-81.1399
-81.3293
-82.1629
-82.9477
-83.393
-83.7006
-83.9757
-84.3872
-85.326
-85.338
-84.9876
-79.6944
-80.3687
-81.279
-82.2913
-81.9119
-81.189
-81.5265
-81.9663
-82.18
-82.3165
-82.3293
-82.4539
-82.9021
-83.5218
-83.7773
-83.9479
-84.0501
-84.5684
-84.9369
-84.9999
-84.6394
-84.4104
-80.7006
-81.8919
-82.3955
-82.7286
-82.733
-82.2546
-82.5155
-83.1779
-83.0628
-83.2068
-83.092
-83.4548
-83.5224
-83.4935
-83.6508
-83.7787
-83.6931
-84.0035
-84.3687
-84.2934
-83.7579
-83.5196
-83.0092
-64.3526
-64.4662
-64.4497
-64.4654
-64.6248
-64.618
-64.5743
-64.5358
-64.5153
-64.7562
-64.7841
-64.7336
-64.7101
-64.6643
-64.6751
-64.8902
-64.8943
-64.9038
-64.8709
-64.8699
-64.8674
-64.7822
-65.0341
-65.0251
-65.059
-65.0552
-65.0497
-65.0881
-65.057
-64.9372
-65.1976
-65.1719
-65.1913
-65.196
-65.2297
-65.2653
-65.3215
-65.2282
-65.1313
-65.4131
-65.4208
-65.4578
-65.4075
-65.4467
-65.4726
-65.5059
-65.59
-65.4464
-65.3621
-65.6949
-65.6799
-65.645
-65.6327
-65.6809
-65.6627
-65.7141
-65.7917
-65.8648
-65.7668
-65.7274
-66.0126
-66.0435
-65.9521
-65.9824
-65.9805
-65.962
-66.0281
-66.0775
-66.2028
-66.3056
-66.2135
-66.0808
-66.3308
-66.328
-66.2928
-66.3029
-66.3758
-66.3655
-66.3884
-66.4859
-66.5678
-66.7212
-66.7778
-66.645
-66.6784
-66.6469
-66.6959
-66.6729
-66.7762
-66.8239
-66.8476
-67.0136
-67.0501
-67.1852
-67.3226
-67.4533
-67.2442
-67.1458
-67.1622
-67.1934
-67.0825
-67.2105
-67.3149
-67.4117
-67.5267
-67.6171
-67.7513
-67.9127
-68.2101
-68.2152
-68.0754
-67.7042
-67.7676
-67.831
-67.6959
-67.7573
-67.8588
-68.026
-68.1293
-68.3214
-68.491
-68.6105
-68.8558
-68.9902
-69.2297
-68.5885
-68.5651
-68.6232
-68.6504
-68.6561
-68.6828
-68.7816
-68.9062
-69.0604
-69.3343
-69.4713
-69.7311
-70.0105
-70.349
-70.5003
-69.6094
-69.7657
-69.9337
-69.8172
-69.866
-69.8474
-69.9425
-69.9739
-70.1164
-70.348
-70.5566
-70.7943
-71.0455
-71.5106
-71.8247
-72.1637
-71.0291
-71.4315
-71.536
-71.5696
-71.5399
-71.5201
-71.3282
-71.4006
-71.4716
-71.8067
-72.0375
-72.2916
-72.7118
-73.0267
-73.9
-73.8081
-74.4254
-74.1128
-73.5033
-74.2547
-73.5023
-73.4312
-73.0331
-73.4751
-73.5005
-73.622
-73.7632
-73.8329
-74.6742
-74.9569
-75.3714
-75.5444
-75.8549
-75.9249
-76.5887
-75.3956
-78.2157
-76.6434
-77.0418
-76.5449
-76.2789
-76.4518
-76.2188
-76.3289
-76.3634
-75.9284
-76.7714
-77.5634
-77.7453
-77.7431
-77.9506
-78.3828
-79.0688
-79.9416
-77.6175
-80.3344
-79.4222
-79.0871
-78.4288
-78.784
-78.949
-79.12
-79.4136
-79.1397
-79.6485
-79.2554
-79.276
-79.6517
-80.1529
-80.9375
-81.7542
-82.431
-83.3028
-84.3115
-77.3328
-79.6251
-80.3824
-80.5814
-80.421
-79.7136
-79.6265
-79.6885
-79.5794
-79.2691
-79.5155
-79.7654
-80.4911
-81.473
-82.6151
-83.1234
-83.7155
-84.016
-84.8255
-85.2282
-85.0359
-79.4639
-80.0422
-81.0562
-81.486
-80.8334
-80.3957
-80.6053
-80.7748
-80.8489
-81.0252
-81.2076
-81.5195
-82.4267
-83.1934
-83.6664
-84.0136
-84.2541
-84.6519
-85.5258
-85.4077
-85.043
-85.2586
-79.6653
-80.3961
-81.2689
-82.3969
-81.9591
-81.2513
-81.6037
-82.0136
-82.2505
-82.3988
-82.4283
-82.592
-83.1407
-83.6787
-83.9431
-84.0932
-84.1898
-84.6596
-85.0646
-85.0473
-84.684
-84.4084
-83.7488
-80.7469
-81.878
-82.4197
-82.7225
-82.7161
-82.1999
-82.5427
-83.1838
-83.0864
-83.2461
-83.1374
-83.5209
-83.5846
-83.5586
-83.7237
-83.8088
-83.7433
-84.0463
-84.4539
-84.3582
-83.772
-83.5279
-83.0158
-82.5625
-64.2361
-64.3876
-64.3537
-64.343
-64.5108
-64.4768
-64.4445
-64.4507
-64.461
-64.6252
-64.6078
-64.6173
-64.5594
-64.5731
-64.4649
-64.7577
-64.7668
-64.7748
-64.7243
-64.7462
-64.703
-64.6049
-64.8947
-64.8927
-64.9008
-64.906
-64.9078
-64.9442
-64.8618
-64.7992
-65.0329
-65.0305
-65.0598
-65.0757
-65.088
-65.1255
-65.1202
-65.0799
-64.9836
-65.2486
-65.1744
-65.2404
-65.1878
-65.2504
-65.2626
-65.3349
-65.4021
-65.2532
-65.1991
-65.4585
-65.4629
-65.4625
-65.4071
-65.4297
-65.438
-65.5286
-65.5832
-65.6687
-65.4733
-65.4473
-65.7403
-65.7543
-65.6414
-65.6759
-65.6644
-65.6613
-65.751
-65.7817
-65.8747
-65.984
-65.8876
-65.7957
-66.0248
-66.0513
-66.068
-66.0402
-66.0114
-65.9687
-66.0607
-66.0928
-66.171
-66.2947
-66.3683
-66.2291
-66.173
-66.3464
-66.2954
-66.3441
-66.38
-66.4442
-66.4545
-66.4433
-66.5103
-66.5043
-66.665
-66.7819
-67.2195
-66.7458
-66.6859
-66.6574
-66.646
-66.6638
-66.7422
-66.8504
-66.8877
-66.8949
-67.1002
-67.1691
-67.2532
-67.531
-67.6187
-67.3594
-67.1312
-67.1419
-67.1228
-67.1519
-67.1311
-67.3264
-67.3806
-67.5144
-67.6661
-67.6839
-67.9141
-68.2034
-68.1482
-68.4394
-68.2357
-67.6658
-67.694
-67.8294
-67.8551
-67.7382
-67.8561
-67.9669
-68.0824
-68.2709
-68.4575
-68.5561
-68.8263
-69.0098
-69.2533
-69.6085
-68.5852
-68.6085
-68.5851
-68.7229
-68.6619
-68.6951
-68.8355
-68.8471
-69.0797
-69.3166
-69.3915
-69.6999
-70.028
-70.2668
-70.5912
-70.8736
-69.5597
-69.909
-69.9175
-69.9404
-69.8824
-69.8471
-69.9729
-69.943
-70.101
-70.2688
-70.4411
-70.6878
-71.0569
-71.4288
-71.8263
-72.1441
-72.5945
-71.1612
-71.1205
-71.7255
-71.605
-71.6386
-71.3221
-71.5243
-71.275
-71.3937
-71.6709
-71.8952
-72.3258
-72.6022
-72.865
-73.6562
-73.8217
-74.1789
-74.6318
-74.3253
-74.0772
-74.0783
-74.4913
-73.6971
-73.3271
-73.3698
-73.6236
-73.5043
-73.6911
-73.7994
-74.353
-74.9221
-75.3058
-75.5965
-75.9227
-76.0496
-77.1085
-77.446
-75.2703
-79.276
-77.3139
-76.4635
-76.9955
-76.4991
-76.2912
-76.2462
-76.3931
-76.5015
-76.6961
-77.1422
-77.6942
-77.9001
-77.778
-77.9511
-78.7203
-79.4019
-80.1484
-81.2147
-78.2037
-81.3215
-80.0213
-79.6727
-78.7609
-78.8568
-78.8819
-78.9113
-79.0419
-78.8699
-78.8555
-79.2219
-79.5238
-79.6764
-80.4391
-81.4753
-82.3313
-82.9204
-83.7521
-84.4969
-84.8977
-78.3981
-80.2297
-80.563
-80.6309
-80.6036
-79.7576
-79.6134
-79.6939
-79.5429
-79.3405
-79.7532
-80.0298
-80.8703
-81.8396
-83.0305
-83.5214
-84.1107
-84.416
-85.1662
-85.4021
-85.0945
-85.5336
-79.5067
-80.0993
-81.0119
-81.4999
-80.8157
-80.4837
-80.6596
-80.5606
-80.9478
-81.1215
-81.3584
-81.6957
-82.6698
-83.4666
-83.9279
-84.3512
-84.51
-84.9258
-85.7214
-85.4774
-85.0944
-85.2309
-84.5879
-79.6358
-80.4186
-81.276
-82.5028
-82.0133
-81.3117
-81.6698
-82.0624
-82.3198
-82.4999
-82.5467
-82.7695
-83.3447
-83.83
-84.1008
-84.2265
-84.3413
-84.8166
-85.203
-85.0885
-84.7232
-84.3987
-83.7075
-82.9976
-81.8769
-82.4364
-82.7088
-82.6805
-82.1427
-82.5762
-83.1662
-83.1225
-83.3293
-83.2215
-83.5778
-83.6597
-83.6275
-83.8156
-83.8431
-83.7978
-84.0775
-84.5063
-84.4208
-83.7835
-83.5314
-83.0061
-82.5088
-81.8729
-64.2825
-64.2353
-64.188
-64.4282
-64.3826
-64.3805
-64.335
-64.3066
-64.5676
-64.5439
-64.5273
-64.4675
-64.4519
-64.4561
-64.6544
-64.6418
-64.6462
-64.6243
-64.5589
-64.6047
-64.5275
-64.7911
-64.7469
-64.8189
-64.7635
-64.7434
-64.7426
-64.7293
-64.6812
-64.9158
-64.8802
-64.9257
-64.9355
-64.9327
-64.9409
-64.977
-64.9204
-64.8383
-65.0856
-65.0538
-65.0635
-65.0727
-65.084
-65.1151
-65.1355
-65.1988
-65.0997
-65.014
-65.3141
-65.2679
-65.2297
-65.2198
-65.1934
-65.2499
-65.3366
-65.3874
-65.4642
-65.3161
-65.2241
-65.5088
-65.5449
-65.5124
-65.4848
-65.4093
-65.4272
-65.5313
-65.5935
-65.699
-65.7751
-65.6154
-65.4936
-65.7615
-65.7745
-65.715
-65.7283
-65.7542
-65.7248
-65.7634
-65.8384
-65.8607
-65.996
-66.0987
-66.0103
-65.8752
-66.0409
-66.0573
-66.0288
-66.0507
-66.0107
-66.0206
-66.077
-66.0776
-66.1712
-66.2891
-66.3169
-66.7253
-66.393
-66.2804
-66.3576
-66.3401
-66.2841
-66.3424
-66.4561
-66.4827
-66.4767
-66.5507
-66.5015
-66.6375
-66.8234
-67.0943
-66.9092
-67.0504
-66.6541
-66.6943
-66.6574
-66.6236
-66.7146
-66.8366
-66.9059
-67.0022
-67.0358
-67.1884
-67.2298
-67.5495
-67.6364
-67.9276
-67.6822
-67.1195
-67.1328
-67.1531
-67.1504
-67.0981
-67.202
-67.3712
-67.4807
-67.6377
-67.7156
-67.821
-68.1399
-68.2395
-68.3849
-68.8611
-68.4098
-67.6624
-67.7071
-67.7808
-67.7464
-67.7656
-67.8104
-67.9676
-68.0287
-68.1965
-68.4205
-68.5135
-68.7967
-69.0537
-69.2894
-69.5976
-69.8417
-68.5174
-68.634
-68.5263
-68.723
-68.6034
-68.66
-68.7067
-68.853
-68.9095
-69.2413
-69.2882
-69.6404
-69.9916
-70.2652
-70.4943
-70.8675
-71.192
-69.5159
-69.639
-69.7261
-69.7789
-69.8642
-69.895
-69.8715
-70.0215
-70.0253
-70.2442
-70.2899
-70.6787
-70.9276
-71.4067
-71.6442
-72.1029
-72.5735
-72.9934
-71.0972
-71.0449
-71.8397
-71.2296
-71.3701
-71.667
-71.3818
-71.4538
-71.2962
-71.5388
-71.7458
-72.2311
-72.5531
-73.0702
-73.4244
-73.5031
-74.1453
-74.5192
-75.108
-74.4688
-74.4111
-74.0483
-74.8522
-73.9135
-73.4298
-73.294
-73.4499
-73.5181
-73.801
-73.9107
-74.6038
-75.0629
-75.2594
-75.6275
-76.0481
-75.9488
-76.9491
-77.4598
-78.2045
-75.278
-80.5686
-78.174
-76.958
-77.5926
-76.9413
-76.2831
-76.1914