/*--------------------------------*- C++ -*----------------------------------*\
  =========                 |
  \\      /  F ield         | OpenFOAM: The Open Source CFD Toolbox
   \\    /   O peration     | Website:  https://openfoam.org
    \\  /    A nd           | Version:  7
     \\/     M anipulation  |
\*---------------------------------------------------------------------------*/
FoamFile
{
    version     2.0;
    format      ascii;
    class       volVectorField;
    location    "6";
    object      U;
}
// * * * * * * * * * * * * * * * * * * * * * * * * * * * * * * * * * * * * * //

dimensions      [0 1 -1 0 0 0 0];

internalField   nonuniform List<vector> 
18750
(
(2.28793 -0.89397 -0.488275)
(1.54989 -1.18827 0.0957395)
(1.99972 -0.850665 -0.476683)
(4.55377 0.166289 -1.46142)
(1.11064 1.29321 -1.31891)
(1.14749 -1.01578 0.0236536)
(2.75756 -0.686216 -1.12157)
(1.6935 -0.821027 -0.45477)
(4.46327 0.21953 -1.88583)
(0.460585 0.930084 -0.188661)
(0.479611 4.42391 0.959799)
(0.78182 1.45463 -1.26529)
(0.47933 2.48077 -0.521451)
(0.855618 -1.01278 0.0857422)
(2.40051 -0.68956 -1.05689)
(2.09849 0.577077 1.51027)
(1.39318 -0.808952 -0.423324)
(4.05073 0.241742 -2.17629)
(0.34832 0.882994 -0.0721859)
(-0.729491 0.844613 -0.517283)
(1.05943 3.36561 0.585021)
(0.762503 4.0691 0.752549)
(3.85386 2.67256 1.11075)
(0.671906 1.58019 -1.12611)
(0.487076 1.86743 -0.486452)
(0.264445 -0.0052692 2.27073)
(0.613448 -1.00749 0.122454)
(1.93201 -0.661258 -0.932341)
(2.42618 0.523689 1.303)
(-0.805223 1.38762 1.03307)
(1.11885 -0.811667 -0.390445)
(3.52599 0.203811 -2.29742)
(0.370378 0.793279 -0.197319)
(-0.69242 0.827766 -0.53383)
(-1.25124 0.550464 -0.443694)
(-1.53223 3.18748 -0.241397)
(1.01922 3.32473 0.795889)
(-0.542133 4.23332 2.05403)
(0.894222 4.0067 0.700899)
(4.42098 2.80752 0.245853)
(2.6692 3.17087 1.5867)
(0.634167 1.64053 -0.955697)
(1.14284 1.65257 -0.653634)
(0.78282 -0.182636 1.59648)
(-0.524136 0.850014 2.12631)
(0.436414 -1.02814 0.102874)
(1.52037 -0.587186 -0.818779)
(2.51271 0.456365 0.729855)
(-0.643653 1.46854 0.958364)
(-1.06284 0.661749 0.278993)
(0.883872 -0.824947 -0.364195)
(2.98246 0.127827 -2.31652)
(0.439577 0.789247 -0.290165)
(-0.725562 0.836727 -0.429271)
(-1.2508 0.55746 -0.442977)
(-1.13547 0.325573 -1.11138)
(-1.1763 3.34385 0.00143725)
(-1.93664 3.24601 -0.11541)
(1.70914 3.57555 1.67376)
(0.3586 3.24291 0.965531)
(0.0633422 4.67982 2.39418)
(1.07009 4.51157 2.18814)
(0.863981 4.07418 0.678259)
(3.86049 2.97363 -0.370026)
(2.6055 3.14108 1.32738)
(-0.413849 2.85911 0.397065)
(0.479638 1.65862 -0.768117)
(1.90363 1.1875 -0.853205)
(1.04976 -0.249554 1.10537)
(-0.758336 0.841183 1.72915)
(-0.380326 0.891877 1.47258)
(0.303161 -1.08859 0.0625245)
(1.19419 -0.653603 -0.726706)
(2.5075 0.390548 0.0678909)
(-0.571481 1.51379 0.832849)
(-1.08306 0.680816 0.292362)
(-1.00827 0.172058 -0.23515)
(0.689783 -0.84558 -0.348963)
(2.48725 0.0251016 -2.27935)
(0.571835 0.740564 -0.423069)
(-0.772761 0.848443 -0.247405)
(-1.25413 0.564457 -0.424707)
(-1.13429 0.327723 -1.08725)
(-0.657086 0.399253 -1.2183)
(-2.40788 2.44377 0.167622)
(-1.10095 3.44089 -0.1609)
(-1.19248 3.32856 0.637775)
(-2.55382 3.25714 -0.129343)
(0.377596 4.14088 1.58183)
(1.12479 4.03456 1.67734)
(-0.246439 3.2725 1.17147)
(1.59192 4.84549 1.55313)
(0.954137 4.93068 2.20194)
(1.15086 4.30435 1.47729)
(0.615452 4.03059 0.679816)
(3.0451 2.60929 -0.470727)
(1.85643 2.94522 1.31119)
(-0.820731 2.61573 1.00641)
(-0.807343 1.54024 0.991427)
(0.161242 1.58898 -0.566713)
(2.10504 0.991765 -0.827531)
(1.16153 -0.317271 0.588732)
(-0.816841 0.776522 1.40263)
(-0.411445 0.910139 1.57943)
(-0.0292092 0.38808 1.04761)
(0.248599 -1.13396 -0.000426526)
(0.90164 -0.715221 -0.623048)
(2.40292 0.313604 -0.529789)
(-0.597177 1.54735 0.697615)
(-1.09971 0.681749 0.333589)
(-1.02377 0.195154 -0.19775)
(-0.675439 0.660517 -1.64746)
(0.531689 -0.86544 -0.34624)
(2.07931 -0.0825926 -2.2162)
(0.735657 0.738117 -0.610724)
(-0.716359 0.847355 -0.291662)
(-1.25213 0.575636 -0.423845)
(-1.15999 0.343405 -1.0422)
(-0.642366 0.403117 -1.24745)
(-0.0249164 1.18267 -0.88058)
(-1.79616 2.20131 -0.0177299)
(-2.64749 2.20701 0.809674)
(-0.24501 3.46919 0.353944)
(-1.15887 3.55543 -0.221375)
(-1.54085 3.24762 0.522301)
(0.0289784 3.64922 1.10748)
(-3.20693 2.96341 -0.103284)
(2.21367 3.82093 1.42378)
(1.01958 4.13878 2.03977)
(2.396 3.4603 1.97999)
(-0.785901 3.64175 1.07839)
(2.00172 4.99612 0.678061)
(0.5156 5.25532 2.48497)
(1.18466 4.05722 1.65181)
(1.67199 4.00919 1.05004)
(0.530206 4.10678 0.657665)
(1.97185 2.30896 -0.0329665)
(0.404721 2.40394 1.38194)
(-1.12206 2.25002 1.42675)
(-0.931953 1.47634 1.16498)
(0.935205 0.430416 -0.0757644)
(-0.217856 1.28598 -0.201188)
(1.83784 0.764034 -0.493297)
(0.981714 -0.349107 0.166267)
(-0.477507 0.787048 1.31746)
(-0.457618 0.966283 1.70266)
(-0.027334 0.404522 1.26387)
(-0.153045 0.421789 -1.19587)
(0.110716 -1.11133 -0.0506418)
(0.63784 -0.790645 -0.495298)
(2.10646 0.197595 -0.977027)
(-0.60078 1.52358 0.665621)
(-1.1002 0.685769 0.456304)
(-1.04717 0.2256 -0.144366)
(-0.672727 0.683575 -1.64826)
(-0.355696 1.4892 -1.10197)
(0.405935 -0.877588 -0.352564)
(1.77711 -0.170008 -2.14763)
(0.926665 0.772037 -0.85755)
(-0.650545 0.856159 -0.367393)
(-1.27616 0.581291 -0.511581)
(-1.17192 0.352192 -1.03721)
(-0.644623 0.413474 -1.24315)
(-0.0347327 1.17265 -0.867359)
(-0.0497252 1.62814 -0.583263)
(-2.01955 1.9304 -0.102446)
(-2.01057 2.02824 -0.0303885)
(-0.661562 3.11471 0.131736)
(-2.86775 2.18515 0.280332)
(-1.07199 3.19405 0.454117)
(-0.227861 3.41151 0.378686)
(-1.45765 3.57446 -0.137139)
(-1.83006 3.41702 0.603748)
(-0.648969 3.71393 1.21019)
(-0.0647772 3.50758 1.53113)
(-3.55171 2.89666 -0.398821)
(0.937633 4.32757 1.39287)
(1.0506 4.10175 2.33138)
(0.101997 4.13841 2.4384)
(1.64707 4.1434 1.79585)
(-3.12736 2.9186 1.34112)
(1.82104 5.11564 0.603813)
(0.379847 5.20906 2.52891)
(1.17118 3.9494 1.80968)
(0.917282 3.87719 1.33659)
(0.809592 2.87094 0.332262)
(0.892259 4.24206 0.702017)
(0.428828 1.80009 0.556262)
(-0.479386 1.8348 1.29828)
(-1.31333 1.83522 1.68574)
(-1.18159 1.33206 1.47704)
(0.66817 0.476908 0.268247)
(0.780184 0.520133 -0.118675)
(-0.584963 0.89182 -0.143667)
(1.51519 0.587906 -0.0841883)
(0.593128 -0.421351 -0.0451769)
(-0.608489 0.748976 1.11901)
(-0.73758 0.802834 1.77978)
(-0.125556 0.471955 1.37906)
(-0.16994 0.496807 -1.09877)
(-0.473002 1.09515 -1.03338)
(-0.125808 -1.15789 -0.201218)
(0.412093 -0.87297 -0.352271)
(1.75243 0.0627288 -1.14635)
(-0.589928 1.4718 0.641537)
(-1.17614 0.668361 0.707375)
(-1.07563 0.25629 -0.101049)
(-0.690488 0.698746 -1.62129)
(-0.147994 1.52395 -1.10772)
(-0.219764 1.61489 -1.30857)
(0.315505 -0.884111 -0.365839)
(1.58207 -0.220003 -2.08769)
(1.09518 0.818094 -1.14911)
(-0.635856 0.876276 -0.380442)
(-1.30068 0.586668 -0.621182)
(-1.19304 0.360869 -1.02892)
(-0.669783 0.406265 -1.25422)
(-0.0907786 1.14247 -0.869388)
(-0.133849 1.60715 -0.643825)
(-0.255885 1.55337 -0.579131)
(-1.68584 1.93389 -0.0254117)
(-2.13116 1.69629 -0.0329759)
(-1.16265 2.5428 0.36126)
(-1.76307 2.1989 -0.192192)
(-0.895229 3.11886 0.100281)
(-0.623748 3.24602 0.621028)
(-2.90722 2.1416 0.149828)
(-1.34967 3.23097 0.42424)
(-0.721281 3.42662 0.495762)
(-0.645361 3.44498 0.722662)
(-2.06664 3.31967 -0.0779645)
(-2.55688 3.40061 0.564415)
(-1.36423 3.89429 1.30585)
(-0.575519 3.87084 1.64078)
(-0.273582 3.6578 1.69068)
(-3.94339 2.39471 -0.455819)
(0.0228382 4.35644 1.68325)
(0.398232 4.21092 2.37769)
(-0.160397 3.99626 2.43789)
(0.239731 4.39805 2.32642)
(1.88444 4.04905 2.65206)
(-0.147812 4.61448 0.191983)
(0.265428 4.83664 1.4013)
(0.623784 4.80742 2.62059)
(0.855061 4.09805 2.14356)
(-0.0621203 3.75607 1.32874)
(0.239237 2.88839 0.716131)
(-0.153827 2.57421 1.03428)
(0.398015 3.8749 0.651708)
(-0.459893 1.3793 0.717935)
(-1.01265 1.33747 1.1421)
(-1.58861 1.44067 1.82429)
(-1.30016 1.47708 1.75546)
(0.468348 0.516939 0.499075)
(0.775889 0.564712 -0.00763017)
(0.192613 1.1048 -0.686085)
(-0.82061 0.553291 0.0294551)
(1.11523 0.445822 0.387883)
(0.223264 -0.48484 -0.0273944)
(-0.933602 0.609279 0.856529)
(-0.982881 0.797211 1.65319)
(-0.255599 0.498922 1.38796)
(-0.198592 0.529412 -0.991899)
(-0.467458 1.08794 -1.00205)
(-0.157192 1.18692 -1.38524)
(-0.118349 -1.24807 -0.223633)
(0.28247 -0.889707 -0.219762)
(1.4128 -0.0412269 -1.15976)
(-0.605195 1.3482 0.783886)
(-1.08705 0.708768 1.08016)
(-1.11675 0.295785 -0.074888)
(-0.708625 0.731476 -1.57993)
(-0.0731275 1.54453 -1.13408)
(-0.184141 1.61136 -1.34214)
(0.0433722 1.83174 -0.976894)
(0.234942 -0.875651 -0.380101)
(1.47736 -0.240237 -2.03987)
(1.19717 0.851396 -1.46534)
(-0.592198 0.870214 -0.484539)
(-1.32538 0.610499 -0.662125)
(-1.20384 0.36677 -1.01628)
(-0.698429 0.406972 -1.27641)
(-0.0933072 1.14058 -0.894886)
(-0.117971 1.61852 -0.639492)
(-0.273261 1.54462 -0.587116)
(-0.333338 1.67913 -0.609212)
(-1.42541 1.86556 0.0218223)
(-1.9086 1.69429 -0.00237997)
(-1.06279 2.45633 -0.0774004)
(-2.29546 1.61478 -0.0491139)
(-1.48673 2.52397 0.327482)
(-0.725101 2.91224 0.478272)
(-2.04048 1.88767 -0.0104709)
(-1.39546 3.00394 -0.0636686)
(-1.07635 3.14652 0.66218)
(-1.05558 3.23499 0.810542)
(-2.97474 2.05029 0.139663)
(-1.71194 2.96783 0.431324)
(-0.993793 3.40504 0.503145)
(-0.680943 3.49936 0.740267)
(-0.553048 3.6427 1.13981)
(-2.21903 3.36516 -0.0021566)
(-2.56474 3.73128 0.0197489)
(-0.854474 4.29122 1.34673)
(-0.884016 4.10215 1.37014)
(-0.869168 3.9257 1.5653)
(-0.653435 3.7676 1.8821)
(-4.37215 1.9503 -0.347481)
(-1.33588 4.16932 1.88823)
(-0.289957 4.03774 2.31096)
(-0.511412 4.06059 2.43975)
(-0.431078 4.42722 2.56687)
(-0.825643 4.56706 2.40711)
(-0.531817 4.11619 2.69438)
(-2.43746 4.11014 -0.500087)
(-0.274643 4.69816 1.80757)
(0.543004 4.52706 2.41136)
(0.708649 4.07253 2.64392)
(-0.231934 3.75374 1.3426)
(-0.221653 3.04744 0.864872)
(-0.414055 2.61875 1.02691)
(-0.499446 2.87723 1.39355)
(-1.63809 2.62192 0.70144)
(-0.878684 1.11951 0.85674)
(-1.21351 0.829673 1.11939)
(-1.66821 1.00501 2.00614)
(-1.61462 1.26621 1.91218)
(0.160893 0.604856 0.806266)
(0.650295 0.668388 0.180409)
(0.187012 1.20387 -0.479549)
(0.263631 1.30608 -0.738269)
(-1.22023 0.241962 0.231894)
(0.581086 0.155631 0.598416)
(-0.368237 -0.583467 0.148112)
(-1.0875 0.496499 0.81923)
(-1.11874 0.770417 1.58692)
(-0.313259 0.575514 1.34415)
(-0.253136 0.57835 -0.868432)
(-0.532978 1.01742 -0.938251)
(-0.292374 1.18058 -1.26316)
(-0.105223 1.40218 -1.19928)
(-0.186859 -1.24542 -0.308696)
(0.136202 -0.917648 -0.104079)
(1.0845 -0.127639 -1.14138)
(-0.50985 1.35944 0.765256)
(-1.17213 0.811725 1.04548)
(-1.17083 0.343192 -0.0740775)
(-0.749439 0.753215 -1.56006)
(-0.119132 1.56238 -1.15049)
(-0.193576 1.61114 -1.32936)
(0.0552796 1.7982 -0.938047)
(-0.384303 1.66895 -1.06408)
(0.153692 -0.865646 -0.400785)
(1.42378 -0.226663 -1.99945)
(1.19932 0.834006 -1.77624)
(-0.603443 0.869097 -0.448217)
(-1.36482 0.573166 -0.679935)
(-1.21699 0.364905 -0.997047)
(-0.68275 0.413804 -1.28197)
(-0.136312 1.11232 -0.96753)
(-0.101353 1.62612 -0.634633)
(-0.299341 1.53771 -0.615423)
(-0.288503 1.68055 -0.643988)
(0.27136 1.52825 -0.282727)
(-1.49898 1.62921 0.0532238)
(-1.59831 1.73448 -0.00744285)
(-1.35253 2.27925 0.0206119)
(-1.36065 1.92119 0.0187943)
(-1.73301 1.86438 -0.277455)
(-1.46094 2.29621 -0.0176274)
(-0.478031 2.7051 0.504688)
(-2.42582 1.47217 0.0803965)
(-1.69334 2.44511 0.320728)
(-1.19669 2.7015 0.576944)
(-0.670743 3.17716 0.535129)
(-2.09056 1.98399 0.21562)
(-1.79276 2.72798 -0.0920086)
(-1.17087 3.13211 0.689136)
(-1.42372 3.1237 0.799428)
(-0.672081 3.30443 0.942739)
(-3.2327 1.82172 0.13729)
(-2.06208 2.73086 0.467851)
(-1.26208 3.24178 0.448093)
(-0.994654 3.46255 0.791209)
(-0.680446 3.58041 1.22438)
(-0.558127 3.65798 1.13853)
(-2.29864 3.33506 0.0688303)
(-3.2122 3.39796 -0.0276412)
(-1.03899 4.48341 1.17525)
(-0.790011 4.08913 1.29712)
(-1.18998 4.05059 1.32049)
(-1.37096 4.02721 1.54639)
(-1.21661 4.05537 1.65039)
(-4.65637 1.73255 -0.500825)
(-2.12156 4.12387 1.87979)
(-1.30906 3.76415 2.18193)
(-0.559654 4.29676 2.4344)
(-1.18041 4.49352 2.52023)
(-1.59477 4.37522 2.25158)
(-0.373075 4.2754 2.72674)
(-0.463779 4.44759 2.68311)
(-3.62475 3.6308 -0.393117)
(-0.370016 4.39736 2.86722)
(0.0995309 4.12872 2.45753)
(0.411584 3.93635 2.71818)
(-0.369444 3.80534 1.51964)
(-0.582272 3.1163 1.20181)
(-0.666655 2.62448 1.15244)
(-0.627864 2.88784 1.35555)
(-0.358866 3.21652 1.28897)
(-2.20101 2.28978 0.773608)
(-1.54206 0.673366 0.908124)
(-1.28828 0.540701 1.16924)
(-1.76766 0.534673 2.07486)
(-1.93685 1.12099 1.80328)
(-0.266918 0.644447 1.09771)
(0.537348 0.731808 0.238413)
(0.134282 1.25616 -0.112745)
(0.0902963 1.25969 -0.46886)
(-0.836712 1.51184 0.130655)
(-1.53335 0.0231823 0.586646)
(0.15444 -0.0174722 0.702283)
(-0.661484 -0.634593 0.278611)
(-1.27978 0.422326 0.83079)
(-1.32767 0.680066 1.56072)
(-0.372654 0.667396 1.33459)
(-0.24847 0.640558 -0.793058)
(-0.811601 0.977152 -0.6355)
(-0.35507 1.13412 -1.19381)
(-0.19054 1.4235 -1.13394)
(-0.503593 1.5699 -0.678795)
(-0.295352 -1.19635 -0.400058)
(0.00404181 -0.92091 -0.015209)
(0.774845 -0.226347 -1.0996)
(-0.274631 1.40023 0.739111)
(-0.858776 0.799306 1.37356)
(-1.25257 0.378688 -0.179822)
(-0.77046 0.773942 -1.53516)
(-0.354706 1.5045 -1.24028)
(-0.204771 1.61915 -1.2888)
(-0.100861 1.77666 -0.94201)
(-0.408329 1.70409 -1.01666)
(0.0977219 1.59498 -0.913074)
(0.111768 -0.851168 -0.410664)
(1.37748 -0.167795 -1.97061)
(1.07866 0.75687 -2.03635)
(-0.607639 0.819035 -0.4155)
(-1.38075 0.557082 -0.70149)
(-1.2365 0.374581 -0.977355)
(-0.681913 0.375015 -1.27255)
(-0.0952496 1.12257 -0.99892)
(-0.0842146 1.62897 -0.632676)
(-0.292546 1.54874 -0.617263)
(-0.291422 1.66395 -0.67151)
(0.383798 1.56971 -0.289147)
(0.841639 1.35828 -0.792718)
(-1.29506 1.66861 -0.0637915)
(-1.63213 1.51359 0.0667806)
(-1.15161 2.14539 0.0327528)
(-1.41024 1.69738 0.0756499)
(-1.90796 1.39793 0.0686536)
(-1.69206 1.9721 0.207979)
(-0.673496 2.56943 0.464274)
(-1.15945 2.42402 0.0315186)
(-2.06215 1.42146 0.233768)
(-1.61499 2.24351 0.0273894)
(-0.999912 2.51922 0.392043)
(-1.03773 2.74657 0.230681)
(-2.46145 1.41586 -0.00785167)
(-1.70249 2.44091 0.331008)
(-1.01673 2.75572 0.506391)
(-0.681586 3.14865 0.612735)
(-0.563709 3.16285 0.651724)
(-2.28518 1.93413 0.075528)
(-2.02454 2.55339 -0.0974087)
(-1.35029 2.9575 0.639943)
(-1.48584 3.05704 0.733224)
(-0.897151 3.25463 0.909207)
(-0.39924 3.39207 1.02171)
(-3.47021 1.58023 0.0734648)
(-2.31398 2.70169 0.52032)
(-1.64889 3.23302 0.453347)
(-1.20046 3.44365 0.900532)
(-0.826165 3.51755 1.29215)
(-0.695104 3.59967 1.17963)
(-0.574247 3.83295 1.12824)
(-2.73929 2.93127 0.147548)
(-3.12001 3.61641 0.0920341)
(-1.64272 4.3162 0.95787)
(-0.933557 4.2084 1.26889)
(-1.27137 4.0092 1.37106)
(-1.5906 3.97179 1.37643)
(-1.49257 3.97266 1.52012)
(-1.17408 4.14709 1.68498)
(-4.41604 1.70827 -0.510811)
(-3.23408 3.62791 1.80291)
(-1.7072 4.02056 2.05832)
(-1.29452 4.3136 2.38218)
(-1.55902 4.49715 2.55486)
(0.116895 4.62887 3.02777)
(-0.312934 4.48381 3.04049)
(-0.466222 4.4051 2.80121)
(-0.799215 4.35759 2.8235)
(-4.20723 2.94302 0.463446)
(-0.708515 4.28946 3.24371)
(-1.38032 3.36179 2.40226)
(-0.706962 3.59613 2.56421)
(-0.626584 3.81896 1.81122)
(-0.930799 3.13522 1.53318)
(-0.860678 2.62319 1.24661)
(-0.89994 2.91291 1.39722)
(-0.59796 3.10197 1.28207)
(-1.08053 2.70534 2.24326)
(-2.88052 1.81009 0.772673)
(-2.04462 0.393698 0.726548)
(-1.03282 0.389123 1.44347)
(-1.77574 0.279174 2.10361)
(-2.04712 1.06693 1.90843)
(-0.611948 0.689369 1.32221)
(0.456648 0.788727 0.302839)
(0.103944 1.27124 0.125913)
(-0.110084 1.18603 -0.0235782)
(-0.723268 1.44797 0.085374)
(-2.09398 1.93509 0.914023)
(-1.62181 -0.149462 0.968839)
(-0.220228 -0.156634 0.763253)
(-0.969595 -0.77903 0.14783)
(-1.43981 0.330055 0.774825)
(-1.56755 0.573688 1.47104)
(-0.41901 0.754104 1.29539)
(-0.248592 0.717181 -0.617948)
(-0.952269 0.892972 -0.605209)
(-0.457697 1.20164 -0.931605)
(-0.182351 1.43627 -1.13344)
(-0.443612 1.69062 -0.611319)
(0.486722 1.65125 -0.689914)
(-0.280793 -1.15574 -0.446498)
(-0.133951 -0.915079 0.058414)
(0.52544 -0.281639 -1.01089)
(-0.345237 1.33079 0.816769)
(-0.989513 0.961033 1.39512)
(-1.2925 0.459145 -0.123862)
(-0.784626 0.787701 -1.51841)
(-0.282092 1.63035 -1.18366)
(-0.267929 1.6188 -1.22165)
(-0.0471228 1.78461 -0.866991)
(-0.419447 1.68871 -1.02048)
(0.0280959 1.58013 -0.922232)
(0.45125 1.32977 -1.05121)
(0.0626485 -0.852164 -0.424972)
(1.34546 -0.126448 -1.92172)
(0.901035 0.618092 -2.17518)
(-0.604107 0.776366 -0.453421)
(-1.39191 0.547997 -0.737299)
(-1.24255 0.365653 -0.968426)
(-0.648603 0.433964 -1.24603)
(-0.065501 1.13735 -0.969043)
(-0.0753388 1.62257 -0.649201)
(-0.279338 1.54268 -0.618899)
(-0.269214 1.70556 -0.652904)
(0.434929 1.6253 -0.347416)
(0.884618 1.38237 -0.873618)
(1.27192 0.968382 -0.426843)
(-1.26539 1.53842 -0.0209683)
(-1.43646 1.56594 -0.0444354)
(-0.732778 2.19768 0.0487651)
(-1.14936 1.75294 -0.0930193)
(-1.73908 1.39929 0.0442678)
(-1.37258 2.04124 0.0464776)
(-0.785501 2.43803 -0.0852969)
(-0.827407 2.33742 0.0567534)
(-1.93336 1.39866 -0.172313)
(-1.75617 1.92623 0.270068)
(-0.860347 2.49739 0.408721)
(-0.550623 2.58897 0.453266)
(-0.552147 2.61499 0.513847)
(-2.24834 1.27778 0.0836397)
(-1.77029 2.0597 0.0632356)
(-1.2191 2.43432 0.295163)
(-1.04267 2.68948 0.268879)
(-0.574929 2.90601 0.485231)
(-2.48282 1.3844 -0.091184)
(-2.08577 2.19186 0.38204)
(-1.43918 2.54187 0.462535)
(-0.763489 3.05767 0.614351)
(-0.580661 3.12402 0.615158)
(-0.524282 3.24244 0.737702)
(-2.6419 1.44606 0.108913)
(-2.33404 2.32236 -0.0859428)
(-1.90479 2.60323 0.594842)
(-1.8639 2.7455 0.683247)
(-1.17088 3.13413 0.930348)
(-1.09373 3.24682 0.980808)
(-0.700358 3.47978 1.06458)
(-3.40876 1.75942 -0.0321254)
(-2.62431 2.51864 0.438387)
(-1.50571 3.59778 0.0764464)
(-1.60869 3.55202 0.840429)
(-1.16516 3.46038 1.22834)
(-0.934468 3.58209 1.18895)
(-0.41064 3.75177 1.22158)
(-0.489589 3.82722 1.04667)
(-3.17337 2.50679 0.175477)
(-3.02873 3.56408 0.0879186)
(-1.82711 4.15911 0.937151)
(-1.55613 4.1955 1.13605)
(-1.58125 3.98441 1.34681)
(-1.68578 3.88181 1.37552)
(-1.82279 3.89171 1.352)
(-1.31748 4.10662 1.61846)
(-0.84521 4.20155 1.58348)
(-3.99785 1.54619 -0.28149)
(-3.77227 3.32352 1.87955)
(-2.96579 3.40056 2.05451)
(-2.5243 4.02772 1.99078)
(-2.17907 4.41205 2.4031)
(-2.18784 4.52316 2.46821)
(-1.46285 4.50903 2.73685)
(-1.04441 4.48916 2.59391)
(-0.589519 4.45902 2.82877)
(0.468786 4.60292 2.65894)
(-4.4315 2.6145 0.657362)
(-2.72204 2.97489 2.31945)
(-2.10458 3.10963 2.24725)
(-1.64461 3.26527 2.37775)
(-1.42195 3.52801 2.05147)
(-1.31601 3.1367 1.65505)
(-1.06797 2.70715 1.37758)
(-0.999844 2.95186 1.48178)
(-0.604225 3.17711 1.20041)
(-1.36936 2.61121 2.10371)
(-0.344624 2.57258 2.31321)
(-3.38949 1.17691 0.72884)
(-2.19519 0.228168 0.717168)
(-0.618182 0.319091 1.7967)
(-1.52716 0.18786 2.12931)
(-2.03177 0.913646 2.12035)
(-0.89865 0.711844 1.55999)
(0.255774 0.84575 0.44962)
(-0.0180811 1.22772 0.499445)
(-0.136241 1.18657 0.116869)
(-0.665233 1.42439 0.097992)
(-2.0486 1.90966 0.908684)
(-1.18546 1.67663 0.402166)
(-1.58168 -0.190297 1.17734)
(-0.487205 -0.24756 0.702984)
(-1.13174 -0.839019 0.269334)
(-1.59374 0.275316 0.766884)
(-1.6953 0.57057 1.46209)
(-0.51773 0.847835 1.12751)
(-0.288394 0.757351 -0.554847)
(-0.867381 0.92945 -0.671564)
(-0.39136 1.15432 -1.06212)
(-0.288045 1.47441 -1.07063)
(-0.436938 1.78669 -0.597789)
(0.532156 1.79949 -0.771352)
(0.586197 1.42909 -1.07194)
(-0.279856 -1.10904 -0.45703)
(-0.160691 -0.885996 0.0117131)
(0.250635 -0.380768 -0.857041)
(-0.447386 1.23128 0.807553)
(-1.08682 0.974122 1.34163)
(-1.33227 0.497971 -0.12166)
(-0.828392 0.815705 -1.48139)
(-0.461754 1.5679 -1.22411)
(-0.339622 1.58353 -1.1721)
(-0.118465 1.7389 -0.820477)
(-0.434904 1.68178 -1.03467)
(-0.0331841 1.5687 -0.921294)
(0.446287 1.32521 -1.04649)
(1.22282 0.849242 -1.20149)
(0.0168569 -0.84192 -0.432204)
(1.31685 -0.0419722 -1.87127)
(0.690151 0.450348 -2.22959)
(-0.589497 0.760793 -0.534671)
(-1.40753 0.541891 -0.792308)
(-1.25083 0.378474 -0.952174)
(-0.643528 0.419942 -1.23475)
(-0.125004 1.11068 -0.934429)
(-0.0619672 1.6332 -0.626388)
(-0.264936 1.54144 -0.646512)
(-0.197094 1.7296 -0.664844)
(0.462145 1.60836 -0.377821)
(0.900931 1.40574 -0.957258)
(1.22985 0.969268 -0.532739)
(1.26764 0.0128256 -1.11061)
(-1.13291 1.55496 -0.02229)
(-1.36684 1.46009 -0.00231538)
(-0.962485 1.92082 -0.0378329)
(-1.16372 1.59899 -0.0226885)
(-1.58692 1.43274 -0.0414131)
(-1.10273 2.08703 0.126096)
(-0.868818 2.29559 -0.150226)
(-0.787185 2.1188 0.0398447)
(-1.83338 1.24113 0.0553057)
(-1.55532 1.92659 0.120941)
(-0.954282 2.42118 -0.115416)
(-0.568108 2.48748 0.245403)
(-0.67749 2.49119 -0.0733505)
(-1.99895 1.29641 -0.152352)
(-1.86509 1.74021 0.285532)
(-1.1525 2.35151 0.308582)
(-0.818944 2.45794 0.409228)
(-0.733959 2.65271 0.274138)
(-0.512937 2.5885 0.444099)
(-2.30464 1.19061 -0.0954205)
(-1.79954 2.11288 0.0218671)
(-1.35889 2.37297 0.307299)
(-1.06441 2.68949 0.279174)
(-0.804127 2.80089 0.492716)
(-0.50057 2.97022 0.69402)
(-2.56924 1.26713 -0.178949)
(-2.32902 1.94464 0.41851)
(-1.77122 2.38136 0.491334)
(-1.36322 2.74811 0.430322)
(-0.767096 3.03121 0.732678)
(-0.628042 3.18118 0.652208)
(-0.329223 3.30523 0.80739)
(-2.64271 1.51976 -0.0826963)
(-2.40924 2.25135 -0.102105)
(-1.92025 2.62232 0.565615)
(-1.90159 2.75392 0.731143)
(-1.47185 2.97492 0.989907)
(-1.3386 3.15494 0.954579)
(-0.78835 3.42301 1.06547)
(-0.689754 3.59505 0.97486)
(-3.49709 1.46802 -0.0109566)
(-2.82572 2.39748 0.401044)
(-1.69906 3.52134 -0.0122378)
(-1.60306 3.66254 0.714123)
(-1.41179 3.46209 1.1261)
(-1.2162 3.57464 1.1456)
(-1.14598 3.53282 1.24937)
(-0.950971 3.69131 1.06212)
(-0.467818 3.74714 1.25116)
(-3.4329 2.27217 0.0522706)
(-3.18412 3.2402 0.188968)
(-2.72135 3.35872 0.675893)
(-1.66635 4.05373 1.09339)
(-1.55071 4.0015 1.35779)
(-1.87356 3.94156 1.32312)
(-1.93505 3.93557 1.4091)
(-1.48021 4.06884 1.60174)
(-1.03963 4.08383 1.67499)
(-0.789779 3.92859 1.81204)
(-3.76435 1.38751 -0.218092)
(-3.41209 3.69145 1.31039)
(-3.13199 3.51844 1.57793)
(-2.88779 3.75204 2.0533)
(-2.46011 4.27409 2.37882)
(-2.35376 4.3245 2.52183)
(-1.83824 4.40293 2.70009)
(-1.12935 4.53053 2.76255)
(-1.16871 4.38973 2.83494)
(-1.03212 4.54465 2.73354)
(-0.0242821 4.16314 2.42826)
(-4.44157 2.26595 0.776832)
(-3.98475 1.70016 1.49152)
(-2.6083 2.92276 2.13706)
(-2.21292 3.02387 2.41465)
(-1.55737 3.50633 2.03103)
(-1.40135 3.35269 1.49822)
(-1.3328 2.84378 1.51561)
(-1.18253 3.00029 1.60948)
(-0.969444 3.08716 1.3003)
(-1.51417 2.39674 1.97625)
(-0.758521 2.6372 2.01098)
(1.22205 2.73353 -0.455077)
(-3.50885 0.928408 0.627)
(-2.20726 0.312084 0.764891)
(-0.559255 0.206748 1.7727)
(-1.22971 0.130252 1.97889)
(-1.97148 0.834829 2.18213)
(-1.15041 0.69219 1.86547)
(0.0341841 0.882453 0.728598)
(-0.113305 1.14982 0.713507)
(-0.218177 1.15034 0.412725)
(-0.569157 1.41506 0.212375)
(-1.78858 1.90442 1.06895)
(-0.769049 1.69307 0.336552)
(0.303366 1.3143 -0.361061)
(-1.40138 -0.0732178 1.18751)
(-0.68585 -0.253599 0.565056)
(-1.08141 -0.7791 0.336176)
(-1.65966 0.161011 0.832044)
(-1.82606 0.55478 1.39988)
(-0.607929 0.933362 1.01544)
(-0.348635 0.84203 -0.542578)
(-0.88083 0.856952 -0.740572)
(-0.562035 1.27464 -0.838029)
(-0.4012 1.47616 -0.996481)
(-0.27802 1.87772 -0.63482)
(-0.0194555 1.90133 -0.713823)
(0.326306 1.68875 -0.830039)
(0.61174 1.06234 -1.2103)
(-0.235679 -1.03671 -0.47502)
(-0.203216 -0.854623 -0.0212993)
(0.0220691 -0.49735 -0.678772)
(-0.499741 1.15025 0.790753)
(-1.19527 0.908264 1.23884)
(-1.34712 0.602502 -0.0984048)
(-0.859285 0.825626 -1.46002)
(-0.513387 1.5538 -1.24781)
(-0.411942 1.55705 -1.15352)
(-0.186022 1.73531 -0.764348)
(-0.459176 1.68326 -1.06744)
(-0.0839003 1.5649 -0.929177)
(0.405021 1.35529 -1.01594)
(1.20431 0.89531 -1.16093)
(1.49933 0.534471 -1.27816)
(-0.0944577 -0.827278 -0.462353)
(1.29661 0.0428459 -1.82927)
(0.520612 0.27667 -2.22339)
(-0.572825 0.738205 -0.583125)
(-1.43788 0.528927 -0.793377)
(-1.25996 0.378026 -0.959078)
(-0.632305 0.425724 -1.20462)
(-0.245494 1.0136 -0.987059)
(-0.10215 1.6264 -0.65633)
(-0.311353 1.55886 -0.667146)
(-0.161837 1.70805 -0.670125)
(0.412989 1.59559 -0.491645)
(0.858107 1.41796 -1.05159)
(1.12614 0.966639 -0.658486)
(1.29291 0.0385554 -1.20896)
(1.50425 0.081814 -1.33365)
(-1.03003 1.51175 -0.0770889)
(-1.19531 1.5156 -0.0359643)
(-0.919008 1.85207 -0.0592731)
(-0.966864 1.62813 -0.0127951)
(-1.47857 1.33511 0.0155228)
(-1.15293 1.87959 -0.0483322)
(-0.821242 2.13473 0.101605)
(-0.911544 1.94652 -0.053337)
(-1.07014 1.66908 -0.0237174)
(-1.68725 1.27866 -0.0356032)
(-1.27579 2.00755 0.111028)
(-1.01056 2.25955 -0.12379)
(-0.935878 2.26512 0.215602)
(-0.662333 2.34055 -0.0595508)
(-1.942 1.07558 0.127939)
(-1.67735 1.76678 0.00315486)
(-1.10379 2.3656 -0.0622805)
(-0.69882 2.49858 0.282619)
(-0.754332 2.51195 0.167734)
(-0.60925 2.47364 0.218441)
(-2.14515 1.0367 -0.0256676)
(-1.90156 1.66903 0.264479)
(-1.43376 2.18051 0.199305)
(-0.975326 2.39316 0.399847)
(-0.923099 2.58822 0.271027)
(-0.517046 2.6649 0.734883)
(-0.584863 2.66721 0.326738)
(-2.32707 1.14844 -0.125509)
(-1.90395 2.00056 -0.0433237)
(-1.41357 2.40615 0.26797)
(-1.20986 2.62394 0.282389)
(-0.916358 2.81673 0.45078)
(-0.805625 2.8155 0.672198)
(-0.549116 3.01793 0.648076)
(-2.61339 1.15711 -0.106684)
(-2.52764 1.65529 0.359102)
(-1.93897 2.23343 0.458788)
(-1.78127 2.47996 0.463176)
(-1.10036 2.89306 0.72661)
(-0.697701 3.07375 0.734804)
(-0.154188 3.23034 0.786227)
(-0.539044 3.27906 0.971481)
(-2.82234 1.20946 -0.0173921)
(-2.54438 2.1066 -0.140705)
(-1.94515 2.66929 0.54185)
(-2.06172 2.6968 0.709732)
(-1.61752 2.88752 0.962857)
(-1.27433 3.06222 1.05051)
(-1.12845 3.20669 1.05906)
(-0.758933 3.585 0.941362)
(-0.903062 3.53683 1.05835)
(-3.04572 2.0259 0.157218)
(-2.67887 2.71777 0.34645)
(-1.93316 3.40378 -0.00203496)
(-1.32342 3.71293 0.872475)
(-1.43477 3.44211 1.12561)
(-1.32212 3.49431 1.14469)
(-1.30092 3.51693 1.19017)
(-1.12608 3.60318 1.09485)
(-0.660717 3.70669 1.25189)
(-0.338879 3.73019 1.30227)
(-3.7814 1.64209 0.0347999)
(-3.43332 2.98716 0.278426)
(-2.89077 3.13454 0.692662)
(-2.38672 3.22204 0.938008)
(-1.97293 3.67258 1.19613)
(-1.94631 3.86742 1.22679)
(-1.89321 3.8892 1.42841)
(-1.68472 4.01051 1.51982)
(-1.15753 3.99161 1.67492)
(-0.924446 3.94817 1.85697)
(-0.446937 4.06066 1.89189)
(-3.61725 1.39955 -0.168012)
(-3.99229 2.49267 1.21791)
(-3.40281 3.24852 1.622)
(-3.01622 3.79381 1.78468)
(-2.81107 4.176 2.12524)
(-2.8163 4.14977 2.21516)
(-2.18514 4.44091 2.55564)
(-1.80518 4.58247 2.29485)
(-0.823248 4.58128 2.68384)
(-0.377587 4.5382 2.65566)
(-0.317251 4.2839 2.43187)
(-0.0957596 3.4759 2.13325)
(-4.26311 2.00649 0.719909)
(-4.04332 1.62543 1.11613)
(-2.60296 2.88981 2.16891)
(-2.14895 2.98571 2.66268)
(-1.87744 3.38364 2.11342)
(-1.77427 3.32344 1.66364)
(-1.72669 2.84431 1.69865)
(-1.29849 3.00387 1.84936)
(-0.821001 3.1199 1.56673)
(-1.59428 2.27888 1.7714)
(-0.76456 2.6463 1.86949)
(0.792704 2.68366 -0.128668)
(-0.181575 2.0722 1.04811)
(-3.56309 0.621491 0.37249)
(-2.16408 0.482508 0.948856)
(-0.557232 0.0540099 1.57217)
(-1.11866 0.0529838 1.59151)
(-1.85611 0.745536 2.16861)
(-1.37828 0.699309 1.95042)
(-0.216116 0.931983 1.04167)
(-0.206734 1.10176 0.826219)
(-0.46258 1.16029 0.686011)
(-0.552683 1.42194 0.315086)
(-1.5997 1.90396 1.1362)
(-0.720251 1.7719 0.387474)
(0.254903 1.43411 -0.292413)
(0.216326 1.60488 -0.443626)
(-1.06602 0.295262 1.03256)
(-0.756884 -0.20031 0.546079)
(-1.0554 -0.765922 0.321027)
(-1.6766 0.148728 0.785664)
(-1.84198 0.546599 1.3293)
(-0.707465 1.02787 0.840933)
(-0.452334 0.948589 -0.374996)
(-0.968769 0.811406 -0.887103)
(-0.580046 1.24662 -0.874923)
(-0.469929 1.44841 -0.981125)
(-0.263747 1.95901 -0.643517)
(0.664602 1.84553 -0.845597)
(0.310812 1.67372 -0.799191)
(0.648779 1.1509 -1.16903)
(0.805583 0.97707 -0.950216)
(-0.166579 -0.954481 -0.459026)
(-0.23637 -0.848751 -0.0835144)
(-0.141547 -0.600514 -0.530454)
(-0.676621 0.971624 0.809294)
(-1.26503 0.951066 1.30494)
(-1.36637 0.6773 -0.085748)
(-0.894409 0.837886 -1.43393)
(-0.552318 1.58031 -1.27108)
(-0.293572 1.61993 -1.09155)
(-0.217629 1.73892 -0.76025)
(-0.466863 1.68383 -1.07435)
(-0.0771421 1.55144 -0.963336)
(0.346262 1.3641 -1.03333)
(1.23935 0.931606 -1.13319)
(1.48855 0.560876 -1.37555)
(1.58579 0.679694 -1.23729)
(-0.07278 -0.856915 -0.459029)
(1.25608 0.11596 -1.82037)
(0.375607 0.123085 -2.18016)
(-0.551935 0.720395 -0.561498)
(-1.4302 0.474555 -0.861035)
(-1.26752 0.387507 -0.963517)
(-0.619641 0.450126 -1.1857)
(-0.224911 1.06668 -0.92122)
(-0.134881 1.60683 -0.697655)
(-0.2997 1.55317 -0.675381)
(-0.181088 1.70319 -0.661531)
(0.486682 1.74059 -0.29866)
(0.751089 1.39272 -1.18789)
(0.990424 0.940211 -0.768661)
(1.30731 0.0515829 -1.24859)
(1.55334 0.0940015 -1.345)
(1.4288 0.231198 -1.41165)
(-0.888552 1.40253 -0.0486589)
(-1.06186 1.50149 -0.0604739)
(-0.943448 1.75015 -0.0584159)
(-0.886326 1.54507 -0.120541)
(-1.34539 1.34211 -0.0384367)
(-1.08341 1.7924 -0.0264119)
(-0.960838 1.89048 0.0487545)
(-0.745941 1.88435 -0.0864911)
(-0.838761 1.68274 -0.000245299)
(-1.56273 1.23785 0.013269)
(-1.29796 1.79666 -0.0655396)
(-0.999428 2.07922 0.0802915)
(-1.00821 2.07772 0.0923574)
(-0.795351 2.11104 0.0314019)
(-0.878501 2.02634 -0.0758714)
(-1.76769 1.14954 -0.0316187)
(-1.37306 1.94047 0.0744841)
(-1.00635 2.26004 -0.118717)
(-1.04 2.25903 0.234679)
(-0.846336 2.34989 0.315575)
(-0.7431 2.34119 0.201632)
(-2.03947 0.908162 0.031715)
(-1.87522 1.49154 -0.00313524)
(-1.16353 2.25501 0.0140946)
(-0.755828 2.49421 0.241599)
(-0.800126 2.49001 0.197411)
(-0.596643 2.52052 0.411127)
(-0.719075 2.52604 0.160899)
(-2.20167 0.949492 0.0430126)
(-2.07766 1.49002 0.187439)
(-1.55893 2.11715 0.231689)
(-1.10475 2.30915 0.360659)
(-0.846755 2.58142 0.260362)
(-0.621304 2.61431 0.649327)
(-0.233484 2.77441 0.51567)
(-0.503885 2.6774 0.695994)
(-2.3663 1.04858 -0.0725126)
(-2.16437 1.67786 0.0414605)
(-1.6819 2.12367 0.184575)
(-1.49426 2.41676 0.233322)
(-1.04629 2.74735 0.40176)
(-0.956579 2.76975 0.665584)