/*--------------------------------*- C++ -*----------------------------------*\
  =========                 |
  \\      /  F ield         | OpenFOAM: The Open Source CFD Toolbox
   \\    /   O peration     | Website:  https://openfoam.org
    \\  /    A nd           | Version:  7
     \\/     M anipulation  |
\*---------------------------------------------------------------------------*/
FoamFile
{
    version     2.0;
    format      ascii;
    class       volVectorField;
    location    "6";
    object      U_0;
}
// * * * * * * * * * * * * * * * * * * * * * * * * * * * * * * * * * * * * * //

dimensions      [0 1 -1 0 0 0 0];

internalField   nonuniform List<vector> 
18750
(
(2.31476 -0.876375 -0.476422)
(1.58336 -1.17771 0.0941609)
(2.02352 -0.833062 -0.465571)
(4.55718 0.171924 -1.46272)
(1.11154 1.28538 -1.28721)
(1.17389 -1.01969 0.0280219)
(2.76269 -0.680664 -1.12148)
(1.71388 -0.804078 -0.443846)
(4.46702 0.225259 -1.88698)
(0.452044 0.935526 -0.18636)
(0.529019 4.37397 0.949329)
(0.777582 1.46634 -1.25626)
(0.502201 2.40848 -0.523325)
(0.878476 -1.00613 0.0819301)
(2.40127 -0.683488 -1.05477)
(2.09709 0.578833 1.5323)
(1.40944 -0.792835 -0.412544)
(4.05509 0.248059 -2.17602)
(0.327655 0.889792 -0.0596899)
(-0.707353 0.844018 -0.533052)
(1.25684 3.32807 0.589059)
(0.87107 4.01562 0.721011)
(3.99213 2.66756 1.0119)
(0.691962 1.56745 -1.10344)
(0.53777 1.81869 -0.493586)
(0.259806 -0.0238944 2.27402)
(0.630805 -1.0068 0.12456)
(1.92857 -0.660954 -0.929589)
(2.40468 0.525207 1.32113)
(-0.801515 1.39034 1.02306)
(1.13061 -0.796811 -0.379457)
(3.53107 0.210884 -2.29587)
(0.370359 0.797867 -0.211821)
(-0.694255 0.821514 -0.52272)
(-1.24898 0.549162 -0.435945)
(-1.54359 3.19367 -0.223115)
(0.987164 3.3058 0.818445)
(-0.566884 4.26775 2.21588)
(0.951088 3.99362 0.68504)
(4.40727 2.80894 0.210324)
(2.72657 3.17108 1.47923)
(0.643302 1.63509 -0.933595)
(1.23403 1.64997 -0.680605)
(0.771435 -0.202003 1.59919)
(-0.523508 0.844068 2.09859)
(0.444316 -1.02528 0.111002)
(1.52129 -0.593016 -0.818853)
(2.48159 0.46115 0.748679)
(-0.641298 1.47317 0.925583)
(-1.06158 0.666221 0.284358)
(0.89132 -0.811135 -0.352761)
(2.98804 0.135705 -2.31423)
(0.447441 0.801895 -0.307486)
(-0.745282 0.833783 -0.371939)
(-1.24798 0.556219 -0.434222)
(-1.13352 0.333759 -1.11619)
(-1.13849 3.35573 -0.00837193)
(-1.96456 3.25039 -0.0995371)
(1.78373 3.54614 1.72311)
(0.337435 3.24034 0.977897)
(0.397324 4.73784 2.24314)
(1.04872 4.54591 2.17066)
(0.919413 4.06448 0.652748)
(3.78024 2.94192 -0.407531)
(2.54334 3.12037 1.30902)
(-0.5393 2.78463 0.542443)
(0.467757 1.64152 -0.739788)
(1.97499 1.15245 -0.879226)
(1.02557 -0.256996 1.11355)
(-0.773203 0.846053 1.71581)
(-0.388592 0.884382 1.47474)
(0.282868 -1.09038 0.0736786)
(1.19498 -0.659982 -0.728094)
(2.48435 0.396044 0.0747402)
(-0.580941 1.52007 0.789274)
(-1.08239 0.685207 0.298052)
(-1.00657 0.177609 -0.234835)
(0.693899 -0.832434 -0.337242)
(2.49299 0.0336787 -2.27684)
(0.575463 0.75268 -0.43463)
(-0.773647 0.852725 -0.225566)
(-1.24999 0.564653 -0.419836)
(-1.1341 0.336896 -1.09023)
(-0.647677 0.401954 -1.22674)
(-2.38451 2.46715 0.173485)
(-1.07584 3.45436 -0.172543)
(-1.17758 3.33054 0.632565)
(-2.59671 3.23489 -0.120517)
(0.463538 4.13166 1.56769)
(1.19346 4.03026 1.71166)
(-0.282305 3.30722 1.17616)
(1.65745 4.85163 1.45981)
(0.923304 4.98457 2.23907)
(1.20065 4.2775 1.43655)
(0.652234 4.02365 0.651888)
(2.969 2.55303 -0.456519)
(1.67122 2.8936 1.3418)
(-0.857839 2.55074 1.04906)
(-0.798837 1.48995 1.00431)
(0.13977 1.56174 -0.533362)
(2.1194 0.966891 -0.830256)
(1.13991 -0.317698 0.609136)
(-0.812272 0.780028 1.4102)
(-0.414715 0.903324 1.60086)
(-0.0319317 0.385106 1.05494)
(0.228295 -1.13559 0.00847705)
(0.902283 -0.722367 -0.625279)
(2.40006 0.32736 -0.503759)
(-0.608206 1.5473 0.684418)
(-1.0983 0.684864 0.347413)
(-1.02336 0.201623 -0.196824)
(-0.671448 0.660654 -1.6574)
(0.533433 -0.852277 -0.334746)
(2.08469 -0.0734138 -2.21384)
(0.736575 0.749821 -0.616541)
(-0.68076 0.854066 -0.33635)
(-1.24801 0.576039 -0.430806)
(-1.15983 0.352403 -1.04747)
(-0.637538 0.402762 -1.25441)
(-0.0266353 1.18361 -0.879226)
(-1.807 2.19477 -0.01668)
(-2.63577 2.22685 0.812045)
(-0.296127 3.45607 0.361165)
(-1.1622 3.56277 -0.21673)
(-1.54526 3.2637 0.517663)
(0.0122734 3.66525 1.11648)
(-3.23327 2.95327 -0.109632)
(2.2139 3.8511 1.41212)
(1.03018 4.12262 2.10448)
(2.33196 3.50394 2.06565)
(-0.911614 3.64688 1.06625)
(2.10413 5.01131 0.587596)
(0.530079 5.27515 2.5367)
(1.22942 4.0255 1.67231)
(1.67997 3.98154 1.04587)
(0.634226 4.11161 0.632841)
(1.85895 2.24736 0.0106447)
(0.231361 2.31989 1.40572)
(-1.15101 2.16994 1.4806)
(-0.93702 1.44314 1.18511)
(0.932488 0.425022 -0.0608667)
(-0.24458 1.23139 -0.163125)
(1.83356 0.747492 -0.497421)
(0.972381 -0.337951 0.185595)
(-0.476567 0.79655 1.33471)
(-0.476285 0.958091 1.72564)
(-0.0323094 0.402159 1.27098)
(-0.147072 0.424254 -1.19429)
(0.0978833 -1.11084 -0.0352391)
(0.640392 -0.795085 -0.499227)
(2.11404 0.214853 -0.96655)
(-0.607598 1.52806 0.671922)
(-1.09842 0.690861 0.485826)
(-1.04727 0.232835 -0.143761)
(-0.670902 0.679636 -1.65635)
(-0.326369 1.49724 -1.10768)
(0.405211 -0.86549 -0.341904)
(1.78166 -0.160212 -2.1456)
(0.928678 0.784168 -0.859102)
(-0.643478 0.863817 -0.377487)
(-1.27388 0.581161 -0.527584)
(-1.17335 0.361605 -1.04528)
(-0.645479 0.41408 -1.24916)
(-0.04357 1.17243 -0.869597)
(-0.0501933 1.63333 -0.591106)
(-2.01109 1.93281 -0.0998311)
(-2.00196 2.0354 -0.0249083)
(-0.659193 3.11995 0.129315)
(-2.84803 2.21496 0.259858)
(-1.08582 3.19939 0.454004)
(-0.238165 3.42024 0.376473)
(-1.4985 3.56364 -0.12587)
(-1.87492 3.43966 0.606227)
(-0.701952 3.73874 1.22477)
(-0.0867727 3.53132 1.54399)
(-3.59079 2.83081 -0.415564)
(0.87961 4.3294 1.43429)
(0.9882 4.09264 2.35411)
(0.116479 4.15378 2.43535)
(1.68254 4.17775 1.84919)
(-2.86261 3.08119 1.24462)
(1.77496 5.11611 0.635028)
(0.459001 5.17774 2.56355)
(1.18276 3.92001 1.86565)
(0.748645 3.82953 1.35796)
(0.793958 2.86623 0.371188)
(0.957844 4.21223 0.673818)
(0.274128 1.7133 0.588435)
(-0.540701 1.77145 1.30871)
(-1.35409 1.75642 1.72425)
(-1.18759 1.31267 1.50102)
(0.662466 0.473705 0.284563)
(0.776851 0.523495 -0.105009)
(-0.602124 0.852689 -0.126543)
(1.50581 0.581618 -0.087659)
(0.587465 -0.406141 -0.0335532)
(-0.63589 0.751128 1.11689)
(-0.759097 0.789861 1.80501)
(-0.136999 0.470742 1.37961)
(-0.163573 0.50156 -1.09629)
(-0.470218 1.0943 -1.03702)
(-0.131398 -1.15312 -0.185191)
(0.410832 -0.878909 -0.359935)
(1.76155 0.0807091 -1.14676)
(-0.594235 1.47354 0.66321)
(-1.17365 0.67248 0.749371)
(-1.07596 0.264668 -0.101587)
(-0.681155 0.70493 -1.61709)
(-0.122802 1.5313 -1.11294)
(-0.199205 1.61702 -1.32328)
(0.314003 -0.872558 -0.35578)
(1.58536 -0.210649 -2.08606)
(1.0999 0.831217 -1.1478)
(-0.619055 0.882133 -0.400748)
(-1.29683 0.587537 -0.639669)
(-1.19031 0.369715 -1.03501)
(-0.67721 0.407355 -1.26513)
(-0.0862839 1.14443 -0.878303)
(-0.139556 1.6101 -0.656863)
(-0.254986 1.55748 -0.57872)
(-1.68962 1.93175 -0.0260481)
(-2.12771 1.69559 -0.0291117)
(-1.16835 2.54606 0.364852)
(-1.74534 2.21249 -0.192954)
(-0.912357 3.11583 0.094117)
(-0.642327 3.24589 0.62345)
(-2.89479 2.16041 0.135147)
(-1.35359 3.23509 0.423508)
(-0.751588 3.42692 0.502054)
(-0.643123 3.45001 0.726653)
(-2.08054 3.31947 -0.0734819)
(-2.57522 3.43949 0.521698)
(-1.34019 3.94489 1.31236)
(-0.611529 3.90793 1.61718)
(-0.311375 3.69525 1.68266)
(-3.94468 2.37821 -0.443676)
(-0.122453 4.34797 1.74588)
(0.386501 4.19058 2.37811)
(-0.199164 4.02531 2.44419)
(0.126319 4.42825 2.37403)
(1.72937 4.09365 2.68408)
(-0.0737923 4.69753 0.0438892)
(0.16548 4.8037 1.50251)
(0.693714 4.74551 2.66474)
(0.842655 4.07491 2.21731)
(-0.0710912 3.74527 1.31699)
(0.193424 2.89424 0.75174)
(-0.160092 2.57822 1.04451)
(0.186389 3.71701 0.630781)
(-0.493302 1.34207 0.716491)
(-1.0361 1.28655 1.1653)
(-1.59536 1.38567 1.84782)
(-1.31311 1.45968 1.77438)
(0.469447 0.517021 0.506287)
(0.768435 0.570152 0.0113506)
(0.198236 1.11135 -0.669205)
(-0.844604 0.533533 0.0438305)
(1.09596 0.447136 0.393962)
(0.211035 -0.470157 -0.0231809)
(-0.946606 0.620358 0.867582)
(-1.01424 0.79119 1.66924)
(-0.262112 0.501195 1.38082)
(-0.194018 0.534476 -0.98814)
(-0.462676 1.09037 -1.00179)
(-0.159066 1.18914 -1.3794)
(-0.135101 -1.25065 -0.22163)
(0.283318 -0.889641 -0.224609)
(1.4225 -0.0231262 -1.16369)
(-0.595321 1.36174 0.802395)
(-1.08101 0.722721 1.10214)
(-1.11755 0.305965 -0.0760161)
(-0.700697 0.731026 -1.58033)
(-0.0600513 1.5437 -1.14646)
(-0.172944 1.61252 -1.34553)
(0.0705125 1.8321 -0.954929)
(0.229074 -0.864948 -0.370658)
(1.47819 -0.232015 -2.0386)
(1.20456 0.865565 -1.46343)
(-0.576353 0.871259 -0.49853)
(-1.32726 0.607699 -0.672888)
(-1.20369 0.375536 -1.01499)
(-0.699013 0.408663 -1.28336)
(-0.0870061 1.13937 -0.924568)
(-0.0787439 1.62234 -0.624435)
(-0.279144 1.55262 -0.597131)
(-0.322866 1.68292 -0.629184)
(-1.42434 1.86621 0.0206072)
(-1.91246 1.68846 -0.00154128)
(-1.0711 2.45329 -0.0740719)
(-2.30242 1.60875 -0.0406691)
(-1.49488 2.52676 0.330174)
(-0.730732 2.9101 0.486975)
(-2.03697 1.89532 -0.000427753)
(-1.40481 3.00211 -0.0678045)
(-1.08809 3.14403 0.663955)
(-1.07583 3.23057 0.808508)
(-2.97229 2.06374 0.133869)
(-1.72349 2.95721 0.433617)
(-0.986064 3.40356 0.50165)
(-0.680108 3.50288 0.747063)
(-0.541337 3.64869 1.14035)
(-2.21025 3.37444 0.00787626)
(-2.57598 3.74663 -0.0137863)
(-0.794325 4.33623 1.33295)
(-0.864948 4.12182 1.36104)
(-0.921357 3.96065 1.52505)
(-0.698657 3.7925 1.86987)
(-4.42513 1.92192 -0.345919)
(-1.45867 4.1513 1.90878)
(-0.425749 3.99645 2.30337)
(-0.528526 4.09553 2.44064)
(-0.530299 4.44666 2.57296)
(-0.841225 4.57331 2.3973)
(-0.59195 4.13461 2.68517)
(-2.70818 4.07938 -0.545217)
(-0.290577 4.67899 1.96044)
(0.550323 4.48182 2.41748)
(0.708888 4.04839 2.68235)
(-0.2324 3.75339 1.34719)
(-0.257667 3.05801 0.899147)
(-0.423101 2.62107 1.04401)
(-0.481636 2.87866 1.39665)
(-1.75574 2.54258 0.692172)
(-0.94634 1.05817 0.876255)
(-1.22086 0.783605 1.14375)
(-1.67588 0.942115 2.02179)
(-1.63727 1.24012 1.90836)
(0.151985 0.607435 0.817453)
(0.636223 0.675319 0.196085)
(0.188243 1.208 -0.459554)
(0.264445 1.30312 -0.722849)
(-1.26487 0.229145 0.255333)
(0.556537 0.155526 0.604927)
(-0.381115 -0.571205 0.14596)
(-1.10614 0.507597 0.837051)
(-1.14067 0.766173 1.606)
(-0.315321 0.577807 1.34097)
(-0.247912 0.584604 -0.866549)
(-0.543159 1.01595 -0.925407)
(-0.296468 1.18441 -1.25489)
(-0.0875005 1.41004 -1.19773)
(-0.205662 -1.24081 -0.300127)
(0.136266 -0.914411 -0.112242)
(1.09335 -0.11017 -1.14828)
(-0.477063 1.38483 0.77123)
(-1.16238 0.827995 1.06469)
(-1.17316 0.353707 -0.0800759)
(-0.744115 0.755583 -1.55911)
(-0.135177 1.56079 -1.16608)
(-0.184796 1.61193 -1.32467)
(0.0405678 1.79158 -0.937869)
(-0.38195 1.67271 -1.06066)
(0.147059 -0.858907 -0.392068)
(1.42132 -0.218875 -1.99936)
(1.20803 0.849163 -1.77533)
(-0.607238 0.878064 -0.423927)
(-1.36259 0.568585 -0.696647)
(-1.21467 0.371741 -0.999386)
(-0.669047 0.41817 -1.28391)
(-0.128395 1.11697 -1.00483)
(-0.0777396 1.63499 -0.634436)
(-0.296254 1.54911 -0.623585)
(-0.272835 1.68404 -0.651396)
(0.346952 1.53319 -0.274235)
(-1.49924 1.62907 0.0533082)
(-1.60501 1.7276 -0.00778032)
(-1.35663 2.27352 0.0233342)
(-1.35971 1.92137 0.0177832)
(-1.72523 1.87265 -0.284641)
(-1.46604 2.29594 -0.0128854)
(-0.490779 2.70005 0.50476)
(-2.42056 1.47672 0.079691)
(-1.68516 2.45086 0.321108)
(-1.20221 2.69854 0.578559)
(-0.665613 3.17913 0.537572)
(-2.09481 1.99001 0.222954)
(-1.81588 2.71255 -0.0919419)
(-1.16547 3.13166 0.68693)
(-1.42908 3.12091 0.795818)
(-0.676818 3.30438 0.946493)
(-3.24152 1.82659 0.130103)
(-2.08421 2.72241 0.474528)
(-1.26829 3.24296 0.44485)
(-0.989646 3.46489 0.801331)
(-0.680692 3.57426 1.23563)
(-0.55193 3.65959 1.13525)
(-2.30577 3.32014 0.0726717)
(-3.20422 3.41508 -0.0128484)
(-1.01924 4.49621 1.1561)
(-0.758632 4.11556 1.28767)
(-1.18446 4.05427 1.31608)
(-1.38921 4.03646 1.52107)
(-1.23168 4.06842 1.62993)
(-4.6577 1.72699 -0.519969)
(-2.22256 4.09501 1.87043)
(-1.35025 3.77473 2.17768)
(-0.601883 4.3246 2.42718)
(-1.2133 4.51529 2.52152)
(-1.52316 4.39727 2.28426)
(-0.277906 4.29765 2.77535)
(-0.433313 4.45432 2.69444)
(-3.75602 3.50468 -0.166869)
(-0.343991 4.37348 3.0127)
(-0.0440531 4.04039 2.48498)
(0.303236 3.88819 2.71443)
(-0.390226 3.80426 1.54638)
(-0.603407 3.11921 1.25589)
(-0.678808 2.6294 1.17694)
(-0.635842 2.89185 1.36315)
(-0.362521 3.20968 1.25645)
(-2.28695 2.24476 0.766733)
(-1.59463 0.62761 0.909252)
(-1.28803 0.530634 1.1876)
(-1.77464 0.51133 2.08056)
(-1.94528 1.11188 1.80034)
(-0.273896 0.648439 1.10494)
(0.527514 0.736016 0.249613)
(0.132243 1.25891 -0.0927231)
(0.0816161 1.25575 -0.434795)
(-0.822991 1.50952 0.129431)
(-1.55767 0.0197484 0.609032)
(0.127864 -0.009108 0.710629)
(-0.679433 -0.62214 0.281841)
(-1.30191 0.435941 0.841959)
(-1.35217 0.67688 1.57286)
(-0.376348 0.675908 1.32947)
(-0.241067 0.647988 -0.792373)
(-0.82165 0.978716 -0.625287)
(-0.357207 1.1396 -1.18159)
(-0.180256 1.43021 -1.12903)
(-0.472653 1.58171 -0.678016)
(-0.309 -1.19436 -0.390198)
(0.00365629 -0.917068 -0.0252304)
(0.781758 -0.208461 -1.10865)
(-0.26048 1.41052 0.753365)
(-0.835935 0.810705 1.41451)
(-1.25512 0.391678 -0.184727)
(-0.766526 0.775498 -1.53471)
(-0.36167 1.50611 -1.25203)
(-0.201562 1.62002 -1.28137)
(-0.0912276 1.77608 -0.935164)
(-0.393663 1.70371 -1.01929)
(0.100244 1.59418 -0.913919)
(0.102096 -0.844356 -0.40312)
(1.37219 -0.165592 -1.97249)
(1.08835 0.772259 -2.03643)
(-0.596798 0.81291 -0.43615)
(-1.37576 0.557324 -0.720566)
(-1.23577 0.383131 -0.974078)
(-0.669732 0.379237 -1.27036)
(-0.0819484 1.12632 -1.00248)
(-0.0654565 1.63766 -0.632367)
(-0.274734 1.56128 -0.613954)
(-0.274246 1.66408 -0.667084)
(0.451178 1.5772 -0.319473)
(0.871393 1.35255 -0.836213)
(-1.29753 1.66679 -0.0626158)
(-1.63349 1.5116 0.0660946)
(-1.15866 2.14122 0.0324957)
(-1.40964 1.69706 0.0753853)
(-1.9066 1.39875 0.0634997)
(-1.69292 1.9693 0.211381)
(-0.673525 2.56836 0.463252)
(-1.16264 2.42262 0.0304909)
(-2.07165 1.40836 0.251578)
(-1.61226 2.24542 0.0278681)
(-1.01973 2.51197 0.383394)
(-1.03564 2.74761 0.231297)
(-2.44824 1.42989 -0.00960753)
(-1.70182 2.44308 0.332652)
(-1.0134 2.75818 0.50297)
(-0.672157 3.14774 0.618111)
(-0.565595 3.16181 0.650907)
(-2.30615 1.91547 0.0762365)
(-2.02658 2.55257 -0.0932213)
(-1.38839 2.93311 0.634029)
(-1.49007 3.04872 0.730324)
(-0.906599 3.253 0.909103)
(-0.437038 3.38314 1.02522)
(-3.45697 1.62218 0.0593222)
(-2.3297 2.70545 0.519215)
(-1.63901 3.26811 0.433176)
(-1.20592 3.45893 0.909052)
(-0.825537 3.51576 1.29334)
(-0.691211 3.60003 1.17921)
(-0.559465 3.83562 1.11756)
(-2.78629 2.87575 0.152193)
(-3.0719 3.64596 0.105427)
(-1.69344 4.28711 0.930319)
(-0.975614 4.21477 1.25531)
(-1.2715 4.01522 1.37128)
(-1.60091 3.96658 1.35968)
(-1.50503 3.97568 1.50074)
(-1.17706 4.15838 1.67502)
(-4.33574 1.72079 -0.496092)
(-3.31439 3.59106 1.80587)
(-1.82895 3.99884 2.04966)
(-1.44369 4.31044 2.34191)
(-1.62769 4.51392 2.53559)
(-0.018691 4.64457 3.01857)
(-0.424245 4.50421 3.03671)
(-0.472199 4.42109 2.80643)
(-0.764341 4.37127 2.82653)
(-4.21314 2.93261 0.498503)
(-0.8301 4.24615 3.19372)
(-1.4634 3.33368 2.41485)
(-0.934237 3.51343 2.51699)
(-0.729482 3.79381 1.85016)
(-0.959504 3.14122 1.56352)
(-0.867479 2.63976 1.26738)
(-0.903988 2.92011 1.41286)
(-0.594871 3.09282 1.28739)
(-1.1355 2.66082 2.24334)
(-2.96203 1.74583 0.759992)
(-2.07303 0.391047 0.713312)
(-1.00756 0.391425 1.485)
(-1.77583 0.278055 2.1148)
(-2.04722 1.06061 1.92456)
(-0.61423 0.694172 1.33099)
(0.444251 0.793955 0.316756)
(0.0977644 1.27303 0.158718)
(-0.11184 1.18538 -0.000459168)
(-0.70497 1.45527 0.0810647)
(-2.0812 1.93746 0.918395)
(-1.62721 -0.133967 0.986286)
(-0.237375 -0.139886 0.769328)
(-0.988399 -0.769611 0.147004)
(-1.45761 0.347559 0.784555)
(-1.58278 0.575688 1.48108)
(-0.419865 0.760433 1.28552)
(-0.244893 0.725243 -0.618494)
(-0.955428 0.891059 -0.616384)
(-0.4591 1.20979 -0.916448)
(-0.167222 1.44125 -1.13046)
(-0.412149 1.70254 -0.614302)
(0.530595 1.65757 -0.69542)
(-0.29703 -1.15041 -0.44323)
(-0.1307 -0.911022 0.0467466)
(0.53111 -0.26521 -1.02233)
(-0.358546 1.32946 0.828194)
(-1.01247 0.973737 1.39381)
(-1.28961 0.47439 -0.119442)
(-0.779821 0.788534 -1.51958)
(-0.292906 1.63054 -1.1932)
(-0.273929 1.61624 -1.21275)
(-0.0313269 1.78297 -0.849739)
(-0.406187 1.68905 -1.02154)
(0.0210542 1.57992 -0.925939)
(0.457884 1.32848 -1.05369)
(0.0514153 -0.844919 -0.41882)
(1.33882 -0.127894 -1.9262)
(0.910004 0.633675 -2.1769)
(-0.589593 0.782964 -0.470374)
(-1.38675 0.547305 -0.75955)
(-1.23802 0.371225 -0.966566)
(-0.64447 0.437545 -1.24853)
(-0.0698432 1.13456 -0.959682)
(-0.0540848 1.62457 -0.648359)
(-0.25646 1.55391 -0.615093)
(-0.213968 1.72262 -0.63842)
(0.461757 1.62348 -0.380168)
(0.903929 1.37456 -0.920859)
(1.26594 0.957595 -0.468674)
(-1.26661 1.53725 -0.0207778)
(-1.43839 1.56381 -0.0437228)
(-0.734061 2.19908 0.0504977)
(-1.14943 1.75218 -0.0920723)
(-1.7392 1.39671 0.0450368)
(-1.38271 2.03493 0.0491221)
(-0.784647 2.43829 -0.0831926)
(-0.826929 2.33637 0.0566204)
(-1.93098 1.4017 -0.176011)
(-1.75333 1.92622 0.271062)
(-0.864883 2.49313 0.405673)
(-0.550054 2.58777 0.451296)
(-0.546589 2.61559 0.516364)
(-2.25341 1.27217 0.0766946)
(-1.76693 2.06253 0.0633903)
(-1.21488 2.43617 0.296041)
(-1.0333 2.69317 0.27043)
(-0.578713 2.90213 0.48608)
(-2.4757 1.39285 -0.093054)
(-2.10643 2.17344 0.384709)
(-1.44395 2.53879 0.463116)
(-0.774303 3.04951 0.610153)
(-0.576626 3.12256 0.617601)
(-0.516563 3.24065 0.734527)
(-2.6442 1.44828 0.107121)
(-2.33413 2.32096 -0.0850661)
(-1.89344 2.61015 0.593234)
(-1.86926 2.74204 0.685528)
(-1.18495 3.12645 0.93411)
(-1.08603 3.24859 0.9804)
(-0.698191 3.48039 1.06556)
(-3.39309 1.78461 -0.030754)
(-2.62916 2.52579 0.43555)
(-1.48312 3.62605 0.0452266)
(-1.61011 3.5777 0.820326)
(-1.17821 3.46407 1.21528)
(-0.943567 3.58293 1.18478)
(-0.423626 3.74175 1.22518)
(-0.50316 3.81939 1.04324)
(-3.20624 2.46707 0.166974)
(-2.99567 3.55283 0.10182)
(-1.85211 4.12249 0.926932)
(-1.56604 4.18902 1.13371)
(-1.57275 3.98832 1.34289)
(-1.67223 3.89346 1.36824)
(-1.82567 3.90274 1.34758)
(-1.30828 4.11693 1.61714)
(-0.831849 4.19871 1.59008)
(-3.92207 1.55119 -0.25019)
(-3.73237 3.36392 1.86672)
(-3.01062 3.40202 1.99788)
(-2.62543 3.99572 1.97676)
(-2.19951 4.42822 2.39097)
(-2.16543 4.52816 2.46834)
(-1.49769 4.51391 2.72403)
(-1.08042 4.50486 2.58002)
(-0.598579 4.46533 2.83003)
(0.424126 4.60969 2.66417)
(-4.42092 2.6124 0.677026)
(-3.06376 2.71329 2.11198)
(-2.24364 3.07676 2.22776)
(-1.65274 3.2706 2.3829)
(-1.45782 3.52351 2.05707)
(-1.32855 3.16172 1.6447)
(-1.07807 2.73213 1.40248)
(-0.998483 2.96812 1.50392)
(-0.60221 3.17879 1.19876)
(-1.37636 2.58674 2.09201)
(-0.351273 2.57225 2.26191)
(-3.43446 1.12544 0.709691)
(-2.18179 0.270321 0.716082)
(-0.600539 0.327026 1.81821)
(-1.51674 0.187609 2.13625)
(-2.02737 0.914811 2.1335)
(-0.898025 0.715897 1.57221)
(0.242762 0.850833 0.466865)
(-0.0280802 1.22406 0.530381)
(-0.136135 1.18718 0.142213)
(-0.648596 1.43428 0.10617)
(-2.01349 1.91678 0.920674)
(-1.13379 1.67671 0.399266)
(-1.57791 -0.160336 1.17357)
(-0.49854 -0.226249 0.699951)
(-1.14623 -0.82749 0.26319)
(-1.61039 0.289316 0.785041)
(-1.70514 0.578801 1.47248)
(-0.520889 0.85505 1.11294)
(-0.288584 0.765966 -0.556342)
(-0.863498 0.932854 -0.682365)
(-0.391794 1.1598 -1.06018)
(-0.288133 1.48213 -1.06042)
(-0.401512 1.79834 -0.605005)
(0.479339 1.81291 -0.77393)
(0.603522 1.42471 -1.08873)
(-0.290111 -1.10486 -0.455807)
(-0.163885 -0.880072 0.00808821)
(0.256214 -0.363903 -0.870981)
(-0.461667 1.22946 0.814219)
(-1.09888 0.975291 1.33301)
(-1.32819 0.515378 -0.119595)
(-0.825791 0.818865 -1.48038)
(-0.459313 1.56907 -1.2358)
(-0.349139 1.57847 -1.17134)
(-0.127165 1.73449 -0.804464)
(-0.425051 1.68263 -1.04097)
(-0.027672 1.5734 -0.923121)
(0.44593 1.32999 -1.04496)
(1.2176 0.848829 -1.2041)
(0.00736896 -0.836505 -0.426923)
(1.30213 -0.0443134 -1.88066)
(0.697036 0.469285 -2.23153)
(-0.584191 0.767372 -0.537205)
(-1.40615 0.540278 -0.813624)
(-1.24817 0.386672 -0.95116)
(-0.642833 0.421779 -1.23589)
(-0.166972 1.09104 -0.945879)
(-0.0550483 1.63646 -0.624601)
(-0.251967 1.54415 -0.663855)
(-0.163747 1.74676 -0.658336)
(0.463978 1.59855 -0.40179)
(0.900226 1.39614 -1.00341)
(1.20634 0.957794 -0.581319)
(1.2705 0.00746856 -1.12008)
(-1.13495 1.5533 -0.0223656)
(-1.36696 1.45918 -0.00183375)
(-0.96177 1.92194 -0.0372119)
(-1.16289 1.59897 -0.023176)
(-1.5876 1.43098 -0.0409949)
(-1.10983 2.08444 0.126978)
(-0.870638 2.29563 -0.152261)
(-0.785984 2.11971 0.0400104)
(-1.83362 1.23946 0.0554557)
(-1.55651 1.92443 0.121378)
(-0.952793 2.42194 -0.112787)
(-0.562208 2.48932 0.246663)
(-0.673128 2.49169 -0.0721093)
(-2.00025 1.29317 -0.150634)
(-1.86452 1.73744 0.286357)
(-1.16237 2.3439 0.302166)
(-0.82886 2.45211 0.405293)
(-0.731001 2.65268 0.274246)
(-0.511549 2.58893 0.444757)
(-2.3032 1.19457 -0.0976264)
(-1.79326 2.12037 0.0205311)
(-1.3578 2.37463 0.307753)
(-1.05515 2.69488 0.280207)
(-0.801921 2.80034 0.492944)
(-0.497539 2.9672 0.69278)
(-2.56608 1.26932 -0.177943)
(-2.32862 1.94339 0.416925)
(-1.77701 2.37549 0.493199)
(-1.40441 2.72309 0.423672)
(-0.771799 3.02621 0.73498)
(-0.621492 3.17559 0.651102)
(-0.308099 3.30218 0.80204)
(-2.64799 1.51634 -0.0849075)
(-2.40572 2.24999 -0.104087)
(-1.90609 2.63299 0.563171)
(-1.89536 2.76159 0.735281)
(-1.46952 2.97281 0.992295)
(-1.33755 3.15014 0.957711)
(-0.786745 3.41947 1.06293)
(-0.680381 3.59925 0.973942)
(-3.47091 1.49589 -0.00327434)
(-2.81152 2.42487 0.398868)
(-1.69659 3.52417 -0.0149785)
(-1.57749 3.67223 0.71384)
(-1.40072 3.46983 1.12002)
(-1.21602 3.57704 1.13864)
(-1.16582 3.52924 1.24309)
(-0.975285 3.68122 1.06224)
(-0.457999 3.74711 1.24689)
(-3.46904 2.2119 0.0355168)
(-3.16692 3.22824 0.205704)
(-2.78182 3.27817 0.665801)
(-1.68918 3.99649 1.08941)
(-1.54347 3.98993 1.3484)
(-1.85915 3.94465 1.31761)
(-1.9084 3.94276 1.41742)
(-1.46361 4.07585 1.60228)
(-1.02903 4.07376 1.69047)
(-0.781813 3.92845 1.83148)
(-3.72011 1.40509 -0.209158)
(-3.34905 3.68142 1.23341)
(-3.10664 3.53862 1.57156)
(-2.85263 3.7772 2.0569)
(-2.4905 4.26572 2.36388)
(-2.41637 4.3087 2.47603)
(-1.84789 4.42388 2.68826)
(-1.16784 4.54667 2.72879)
(-1.1182 4.41661 2.82071)
(-1.0546 4.53986 2.73487)
(-0.0854152 4.15643 2.4446)
(-4.41158 2.245 0.786643)
(-3.98348 1.71144 1.44377)
(-2.59711 2.93721 2.16147)
(-2.23227 3.01675 2.45956)
(-1.55422 3.52289 2.02901)
(-1.40301 3.37904 1.49175)
(-1.35553 2.86317 1.54412)
(-1.18481 3.01345 1.64576)
(-0.975651 3.07415 1.33315)
(-1.52054 2.36277 1.9656)
(-0.755622 2.63243 1.97283)
(1.25509 2.72088 -0.486659)
(-3.51386 0.931479 0.601285)
(-2.18157 0.363368 0.769764)
(-0.558021 0.218865 1.76659)
(-1.2288 0.132741 1.96423)
(-1.961 0.833262 2.19114)
(-1.14988 0.695055 1.87373)
(0.0233674 0.88928 0.747366)
(-0.122949 1.14666 0.730966)
(-0.226955 1.15295 0.443645)
(-0.558698 1.42485 0.224126)
(-1.74271 1.91437 1.08968)
(-0.720866 1.69303 0.329887)
(0.301325 1.32909 -0.346435)
(-1.37875 -0.0235059 1.17917)
(-0.691866 -0.230281 0.551781)
(-1.09288 -0.764704 0.329452)
(-1.66851 0.17775 0.853289)
(-1.83064 0.565695 1.41348)
(-0.611155 0.9419 0.997082)
(-0.349258 0.852849 -0.5397)
(-0.881131 0.854711 -0.757281)
(-0.561837 1.28194 -0.836954)
(-0.404309 1.47972 -0.990445)
(-0.247627 1.88704 -0.640838)
(0.0273736 1.89443 -0.724049)
(0.318271 1.70202 -0.810517)
(0.619932 1.06386 -1.21457)
(-0.244706 -1.03311 -0.477064)
(-0.201333 -0.847987 -0.0252769)
(0.0280404 -0.479341 -0.695976)
(-0.513903 1.14706 0.797715)
(-1.20934 0.910946 1.2384)
(-1.33969 0.623089 -0.0951949)
(-0.857978 0.827629 -1.45967)
(-0.508317 1.55911 -1.25774)
(-0.391579 1.56455 -1.15377)
(-0.172269 1.73712 -0.759983)
(-0.44987 1.68439 -1.07502)
(-0.0792758 1.5694 -0.934884)
(0.402504 1.35828 -1.01658)
(1.20435 0.891211 -1.16523)
(1.49432 0.526549 -1.29076)
(-0.101042 -0.820084 -0.456428)
(1.28832 0.0408122 -1.83054)
(0.537335 0.293127 -2.22105)
(-0.559697 0.739198 -0.586008)
(-1.43707 0.522993 -0.818713)
(-1.2604 0.384183 -0.968104)
(-0.631267 0.433938 -1.20429)
(-0.249546 1.01594 -0.986015)
(-0.104071 1.62247 -0.670412)
(-0.309473 1.56967 -0.669957)
(-0.150583 1.70919 -0.676096)
(0.428203 1.60037 -0.49293)
(0.830925 1.40282 -1.10722)
(1.09293 0.948531 -0.699341)
(1.2974 0.0321944 -1.21488)
(1.50917 0.0737122 -1.33382)
(-1.03147 1.51169 -0.0762628)
(-1.19562 1.51428 -0.0355958)
(-0.921062 1.85162 -0.0583788)
(-0.969017 1.62668 -0.0124554)
(-1.47954 1.33333 0.0159683)
(-1.15722 1.87813 -0.0485098)
(-0.82112 2.13607 0.101155)
(-0.908669 1.94655 -0.0523225)
(-1.07125 1.66698 -0.0239791)
(-1.68843 1.27472 -0.0347635)
(-1.27423 2.00848 0.112114)
(-1.00776 2.26111 -0.12478)
(-0.9371 2.26451 0.216983)
(-0.661504 2.34129 -0.0631337)
(-1.94339 1.07275 0.127369)
(-1.68105 1.75925 0.00158007)
(-1.10606 2.3616 -0.0555423)
(-0.695669 2.49896 0.283829)
(-0.751022 2.51189 0.167419)
(-0.603018 2.47434 0.220833)
(-2.14491 1.0362 -0.023624)
(-1.89761 1.67423 0.264085)
(-1.43484 2.1791 0.199119)
(-0.972549 2.39365 0.398106)
(-0.921966 2.58637 0.272506)
(-0.510882 2.66528 0.734839)
(-0.584489 2.66758 0.325821)
(-2.32442 1.15265 -0.127696)
(-1.90987 1.99123 -0.0428496)
(-1.41259 2.40452 0.265634)
(-1.21604 2.61864 0.281132)
(-0.914026 2.81889 0.449811)
(-0.806486 2.81324 0.671719)
(-0.548332 3.01472 0.652765)
(-2.60822 1.16134 -0.103023)
(-2.53108 1.64925 0.355538)
(-1.94151 2.23054 0.456773)
(-1.77567 2.48212 0.463211)
(-1.1157 2.88106 0.723471)
(-0.700115 3.06608 0.738424)
(-0.16612 3.22343 0.78898)
(-0.534466 3.27761 0.967323)
(-2.82582 1.2114 -0.00962346)
(-2.54155 2.10996 -0.139145)
(-1.95057 2.67346 0.538016)
(-2.05321 2.70552 0.713863)
(-1.60856 2.89046 0.961727)
(-1.2451 3.0666 1.05811)
(-1.13634 3.19964 1.05505)
(-0.753884 3.57981 0.938982)
(-0.894137 3.53235 1.05963)
(-3.01912 2.04765 0.163388)
(-2.68338 2.72565 0.325716)
(-1.93905 3.39954 0.00605851)
(-1.29453 3.7147 0.887936)
(-1.42202 3.44556 1.12154)
(-1.32194 3.48649 1.13753)
(-1.30068 3.51621 1.18112)
(-1.11989 3.60444 1.09242)
(-0.663923 3.70444 1.24867)
(-0.347916 3.72535 1.30297)
(-3.78319 1.63446 0.0287206)
(-3.45805 2.95347 0.294101)
(-2.87547 3.11567 0.703081)
(-2.41285 3.16579 0.935958)
(-2.00829 3.6338 1.17352)
(-1.92514 3.85607 1.22696)
(-1.8703 3.88467 1.43069)
(-1.6735 4.008 1.51042)
(-1.14061 3.98538 1.68055)
(-0.901412 3.94726 1.86847)
(-0.428297 4.07176 1.89253)
(-3.58737 1.40971 -0.153153)
(-4.0112 2.38787 1.15619)
(-3.36939 3.26813 1.60523)
(-2.98524 3.83363 1.74553)
(-2.83578 4.18386 2.09813)
(-2.79134 4.17994 2.21875)
(-2.28536 4.4408 2.47408)
(-1.82581 4.58743 2.2798)
(-0.801051 4.58599 2.67799)
(-0.250438 4.53932 2.63317)
(-0.283619 4.27991 2.4329)
(-0.0815292 3.47467 2.13656)
(-4.20218 2.0244 0.681167)
(-4.01887 1.66568 1.07786)
(-2.64994 2.82501 2.17037)
(-2.12223 2.9982 2.6917)
(-1.88734 3.39972 2.12016)
(-1.78081 3.33372 1.68299)
(-1.74924 2.85443 1.7316)
(-1.3092 3.01877 1.88829)
(-0.827997 3.11866 1.59582)
(-1.57705 2.25772 1.74955)
(-0.732163 2.64435 1.81539)
(0.732157 2.67535 -0.038271)
(-0.200532 2.0576 1.04644)
(-3.55852 0.615815 0.371742)
(-2.12949 0.540677 0.965312)
(-0.554145 0.0730526 1.54844)
(-1.12697 0.0643919 1.56738)
(-1.83575 0.751023 2.16227)
(-1.37145 0.703934 1.94966)
(-0.224447 0.942867 1.05976)
(-0.216423 1.10114 0.839867)
(-0.468587 1.16233 0.715414)
(-0.548915 1.42951 0.342791)
(-1.56752 1.90875 1.15228)
(-0.721159 1.77091 0.410518)
(0.261855 1.44418 -0.295036)
(0.200115 1.62774 -0.419782)
(-1.03042 0.363262 1.00214)
(-0.757412 -0.176413 0.53023)
(-1.06156 -0.750217 0.312447)
(-1.6901 0.168171 0.793255)
(-1.8446 0.558941 1.33247)
(-0.712968 1.0409 0.804938)
(-0.454591 0.958196 -0.366813)
(-0.965744 0.818128 -0.908951)
(-0.576828 1.25152 -0.879271)
(-0.464635 1.45418 -0.981177)
(-0.248396 1.96342 -0.653151)
(0.651403 1.86321 -0.834811)
(0.319506 1.67209 -0.796545)
(0.665419 1.1518 -1.17088)
(0.81824 0.973204 -0.955744)
(-0.168906 -0.956199 -0.467039)
(-0.235855 -0.836227 -0.0806613)
(-0.136492 -0.584055 -0.546036)
(-0.699011 0.959952 0.815869)
(-1.28365 0.962612 1.29504)
(-1.36286 0.693255 -0.0923185)
(-0.89553 0.840413 -1.43177)
(-0.5464 1.58307 -1.28441)
(-0.268246 1.6277 -1.08818)
(-0.205905 1.7423 -0.754876)
(-0.452029 1.68775 -1.06706)
(-0.0675602 1.55493 -0.970678)
(0.340684 1.36578 -1.03821)
(1.24645 0.929447 -1.13245)
(1.49181 0.551928 -1.38443)
(1.57754 0.675158 -1.24511)
(-0.0856974 -0.850044 -0.455095)
(1.24785 0.117233 -1.81959)
(0.385563 0.143876 -2.18203)
(-0.545186 0.724537 -0.539893)
(-1.42838 0.46837 -0.890088)
(-1.26796 0.394035 -0.974735)
(-0.628631 0.451298 -1.19224)
(-0.223012 1.07507 -0.912545)
(-0.124466 1.6068 -0.702613)
(-0.282967 1.56435 -0.681629)
(-0.169756 1.69859 -0.679771)
(0.530452 1.75867 -0.290699)
(0.719579 1.37143 -1.23918)
(0.95194 0.922241 -0.799359)
(1.31153 0.0451285 -1.25073)
(1.55838 0.0872541 -1.34329)
(1.43241 0.22002 -1.4109)
(-0.887427 1.40431 -0.0495312)
(-1.06153 1.50224 -0.0604742)
(-0.940721 1.75273 -0.0610312)
(-0.886311 1.54596 -0.120642)
(-1.34892 1.33672 -0.0383332)
(-1.08436 1.79167 -0.025381)
(-0.958365 1.89186 0.0472861)
(-0.747088 1.88422 -0.08703)
(-0.83897 1.68173 8.35399e-05)
(-1.56326 1.23651 0.0132838)
(-1.2964 1.79794 -0.0644953)
(-0.998419 2.08038 0.0786982)
(-1.00594 2.07944 0.0913599)
(-0.791296 2.113 0.0320279)
(-0.874762 2.02598 -0.0751391)
(-1.7677 1.14826 -0.0313879)
(-1.37823 1.93397 0.073231)
(-1.00505 2.25994 -0.118078)
(-1.03566 2.2613 0.236297)
(-0.845998 2.34929 0.315327)
(-0.73763 2.34247 0.202693)
(-2.0395 0.906555 0.0304683)
(-1.87527 1.48928 -0.00265954)
(-1.16221 2.25155 0.0192564)
(-0.756642 2.49188 0.239525)
(-0.796978 2.49035 0.198308)
(-0.591767 2.5203 0.412226)
(-0.719523 2.52567 0.158881)
(-2.19961 0.952622 0.0443295)
(-2.07888 1.48965 0.18338)
(-1.55808 2.11678 0.234074)
(-1.11697 2.30209 0.36072)
(-0.845782 2.58014 0.260628)
(-0.628272 2.61089 0.643517)
(-0.230702 2.77353 0.51423)
(-0.501312 2.67702 0.696565)
(-2.36466 1.04995 -0.0706008)
(-2.16808 1.67202 0.0463893)
(-1.68473 2.11794 0.182528)
(-1.50249 2.40627 0.233118)
(-1.04995 2.74324 0.399775)