/*--------------------------------*- C++ -*----------------------------------*\
  =========                 |
  \\      /  F ield         | OpenFOAM: The Open Source CFD Toolbox
   \\    /   O peration     | Website:  https://openfoam.org
    \\  /    A nd           | Version:  7
     \\/     M anipulation  |
\*---------------------------------------------------------------------------*/
FoamFile
{
    version     2.0;
    format      ascii;
    class       volScalarField;
    location    "3";
    object      nut;
}
// * * * * * * * * * * * * * * * * * * * * * * * * * * * * * * * * * * * * * //

dimensions      [0 2 -1 0 0 0 0];

internalField   nonuniform List<scalar> 
18750
(
0.000823527
0.00092745
0.000908333
0.00101875
0.00201251
0.00227437
0.00101988
0.000481946
0.000830018
0.00122591
0.00199011
0.000259822
0.00135188
0.000712709
0.00137286
0.00107538
0.000251878
0.000445575
0.00080709
0.00131785
0.00202792
0.00152721
0.00149872
0.00106342
0.00255683
0.00111389
0.000401223
0.00093789
0.000449983
0.00102694
0.000166224
0.000274558
0.000425074
0.000834966
0.00129398
0.0021554
0.00153176
0.00168798
0.00115038
0.00209768
0.00118116
0.000578802
0.000797076
0.000135137
0.000814902
0.000450878
0.000271802
0.000854073
0.0012059
0.000871501
9.14083e-05
0.000248809
0.000383205
0.000404468
0.000781493
0.00117256
0.00208674
0.00219446
0.00227487
0.00201662
0.0019552
0.00182912
0.000924787
0.00164802
0.00332716
0.00117899
0.000889691
0.00147745
0.00115354
0.00442956
0.000525253
0.000296754
0.000483224
0.000263525
0.000792299
0.00126357
0.000706105
0.000258488
0.000121167
0.000283639
0.000433016
0.000428934
0.000787972
0.000974868
0.00259658
0.00124298
0.00200842
0.00103063
0.00173434
0.00217917
0.000421446
0.00112543
0.00201426
0.00185507
0.000742403
0.000827429
0.00159217
0.00166193
0.0014766
0.00120165
0.000706529
0.00169894
0.000567456
0.000883316
0.000571729
0.000435218
0.000284316
0.000531493
0.000235808
0.000759679
0.000472852
0.000597907
0.000113332
0.000243202
9.9158e-05
0.000117806
0.00021483
0.000295652
0.000773503
0.000729292
0.00221298
0.00081395
0.00216443
0.00127838
0.00104936
0.00220699
0.00144787
0.0016448
0.00173687
0.00180119
0.000551145
0.000765039
0.00121856
0.00182722
0.00199252
0.00161416
0.00121919
0.000525051
0.00122883
0.00144915
0.00157
0.000958751
0.00075259
0.00128358
0.000378264
0.000599356
0.0019036
0.000796631
0.00029182
0.000596013
0.000323068
0.000478404
0.000368489
0.000509899
0.000546381
0.000495155
0.000171927
0.000110924
0.000212292
0.000141495
0.000231053
0.000196674
0.000215246
0.00073254
0.000506341
0.00254868
0.000864785
0.00235199
0.000276976
0.000942333
0.00223749
0.00141268
0.000815045
0.000712283
0.00190948
0.000308392
0.00140525
0.000844147
0.000908056
0.00205899
0.00195885
0.000318949
0.00110244
0.000904228
0.000845731
0.00204135
0.00195634
0.000421505
0.00122614
0.00102867
0.000389239
0.00158467
0.0014131
0.000600363
0.00075854
0.000888995
0.00110123
0.00116076
0.000960205
0.00131191
0.00060872
0.000449869
0.000296688
0.000818494
0.000434791
0.000333864
0.000611828
0.000588677
0.00079951
0.000518153
0.000238331
0.000166426
0.000112177
0.000173831
0.000136256
0.000218717
0.000190068
0.000196887
0.000547346
0.000375888
0.0023877
0.000797117
0.00250945
0.000340491
0.000930863
0.00231198
0.000869744
0.000328609
0.000790673
0.00229524
0.00135351
0.000625418
0.0011535
0.00116276
0.00198883
0.000376965
0.00129266
0.00162426
0.000772182
0.000557206
0.00209825
0.00138878
0.00126502
0.000653243
0.000684745
0.000590023
0.000838261
0.00215759
0.00111614
0.00114353
0.000780035
0.000723518
0.000683911
0.000414635
0.00103731
0.0015334
0.00028458
0.000687463
0.000713131
0.00154354
0.000939561
0.00101749
0.0012336
0.00129627
0.000869984
0.000473018
0.000384427
0.00030534
0.000780225
0.000568888
0.00025879
0.000327243
0.000506397
0.000926446
0.000480949
0.000124319
0.000257039
0.000157314
0.000119395
0.000218044
0.000298502
0.000233447
0.000179049
0.000360378
0.00043476
0.000317451
0.000617211
0.00224247
0.000610018
0.000822692
0.00238322
0.000657876
0.00063548
0.00101684
0.00239761
0.0010253
0.000746563
0.000332992
0.000661702
0.00240114
0.000788607
0.00112241
0.000806761
0.000495459
0.00112488
0.00204733
0.000976338
0.000547884
0.000531979
0.00121989
0.000770892
0.00112502
0.00197521
0.00122615
0.00195276
0.00071862
0.000735905
0.000700448
0.000377659
0.000559422
0.00226176
0.000346028
0.00137355
0.00049109
0.000955581
0.000564045
0.000403777
0.000169976
0.000744129
0.00162301
0.000378856
0.000271069
0.000698922
0.00104375
0.0014082
0.000624259
0.000755977
0.000416522
0.0015381
0.000877795
0.000206874
0.000449154
0.000342881
0.00027705
0.0008098
0.000441919
0.000247769
0.000493948
0.000516891
0.000554626
0.000467681
0.000106138
0.000133754
0.000267028
0.0001435
0.000138916
0.000243532
0.00023583
0.000264171
0.000209532
0.000415244
0.00040201
0.000293025
0.00226676
0.000578481
0.000748759
0.0020276
0.000562942
0.000610151
0.000867184
0.00238859
0.000460187
0.000342674
0.000594498
0.000951071
0.00246783
0.000772872
0.000841595
0.000549681
0.000535817
0.00110913
0.00257412
0.00100565
0.000703398
0.000859774
0.00150878
0.000478226
0.000443985
0.00200568
0.000684503
0.000825786
0.000577321
0.000943235
0.000654817
0.00031174
0.000984714
0.0022078
0.00119329
0.000619194
0.00126492
0.000790622
0.000737911
0.00033563
0.000718752
0.000390503
0.00220448
0.000703365
0.000805761
0.00150362
0.000590785
0.000810521
0.000772223
0.000419895
0.000275581
0.000694051
0.00169012
0.000487628
0.00043231
0.000355441
0.000797382
0.000906369
0.000948858
0.000792796
0.000552623
0.000526266
0.00123539
0.000818391
0.000271281
0.000221056
0.000385277
0.000311776
0.000263593
0.000648296
0.000287073
0.000330274
0.000590636
0.000478732
0.000684917
0.000433583
0.000164542
8.58826e-05
0.000161249
0.000271793
0.00013974
0.000152527
0.000246795
0.000141767
0.000360481
0.000188395
0.000190093
0.000455195
0.000273287
0.00222229
0.00102089
0.00217669
0.000294998
0.000608867
0.000889565
0.00201953
0.00040382
0.000523903
0.000681657
0.000895327
0.00214445
0.000559076
0.00057686
0.000513986
0.000559421
0.000724633
0.00246391
0.000725409
0.00100525
0.00098629
0.000715164
0.000307936
0.000840035
0.00251764
0.000810884
0.00100464
0.000722007
0.0010137
0.000716408
0.000545672
0.0010811
0.00223948
0.000927106
0.00108449
0.00067759
0.000489142
0.00028065
0.000771237
0.000673998
0.000466899
0.00227044
0.00135734
0.00102304
0.000728555
0.000857148
0.000831841
0.000879645
0.000389053
0.000420239
0.000520102
0.0021791
0.000498055
0.00068568
0.000836137
0.000810331
0.00102152
0.000627279
0.000800573
0.000471136
0.000462894
0.000591826
0.00170138
0.00057072
0.000393466
0.000568034
0.000431084
0.00087239
0.000802013
0.00106304
0.000900402
0.000364964
0.000743495
0.000910367
0.000858698
0.000289753
0.000270382
0.00021494
0.00038763
0.000296956
0.000292552
0.000650262
0.000664637
0.00038721
0.000461842
0.000457337
0.000649464
0.000404333
0.000362313
9.18104e-05
0.000313899
0.000151781
0.000261867
0.000168874
0.000154572
0.00025471
0.000160956
0.000363981
0.00022956
0.000189258
0.000461691
0.000242027
0.00230755
0.000649723
0.00220238
0.000572429
0.000988355
0.00210522
0.00048057
0.000442655
0.000443619
0.000620035
0.00194796
0.00068135
0.000379693
0.000460352
0.000620607
0.000590409
0.00201049
0.000686979
0.000698972
0.000488833
0.00064729
0.000242476
0.00089918
0.00222001
0.000808778
0.00100372
0.000813307
0.000394804
0.00068964
0.000440417
0.000462203
0.00264428
0.000516114
0.000935842
0.000945949
0.000634708
0.000805621
0.000444245
0.00053456
0.000473643
0.00267818
0.000518281
0.000630442
0.000907198
0.000555616
0.000693964
0.000938561
0.000640913
0.000524754
0.000564655
0.00227418
0.000599032
0.000673729
0.000682438
0.000840774
0.000805256
0.000954826
0.000924456
0.000427793
0.000531866
0.000509107
0.00220626
0.000390423
0.000313314
0.000875545
0.000895956
0.00103926
0.0011539
0.00103609
0.000746215
0.000477623
0.000478628
0.000305517
0.00161912
0.000842368
0.000575007
0.000396563
0.000511886
0.000562727
0.000931221
0.000822061
0.000637316
0.000613354
0.000331
0.000789
0.0009842
0.000812426
0.000521843
0.000377632
0.00027122
0.000180864
0.000449701
0.00030233
0.000341069
0.000418295
0.000604483
0.000373594
0.000367852
0.000434352
0.000667353
0.000384238
0.000129312
0.000220327
0.000125328
0.00011501
0.000165895
0.000245164
0.000202719
0.000145542
0.000255404
0.000169811
0.000202849
0.000222768
0.000309291
0.000376996
0.000201066
0.00079165
0.00219317
0.000454029
0.000684423
0.00218371
0.0003185
0.00044462
0.000621306
0.00218334
0.000766917
0.000503581
0.000337546
0.000363865
0.000489413
0.00217239
0.00073651
0.000373953
0.000615465
0.000797602
0.000454191
0.000486716
0.00206012
0.000840176
0.000719464
0.000750028
0.000508097
0.000319305
0.000380464
0.000525468
0.0020736
0.00083861
0.000892361
0.00103559
0.000939317
0.00108248
0.000385625
0.000363131
0.000933638
0.00241595
0.000528999
0.000684175
0.00109673
0.000987672
0.000915463
0.000833556
0.000745213
0.000621424
0.000447187
0.00262898
0.000633975
0.000648316
0.000706831
0.00046658
0.000826733
0.000711097
0.000502409
0.000574143
0.000502234
0.000596773
0.00220541
0.000297375
0.000490252
0.000585119
0.0001336
0.00109895
0.00094392
0.00124248
0.000594645
0.00041764
0.000462774
0.000543159
0.00226524
0.00099053
0.000461799
0.00051587
0.000636098
0.000954025
0.00110197
0.000968452
0.0010739
0.000611826
0.000494817
0.000193331
0.000290389
0.00177364
0.000602737
0.000762138
0.000585767
0.0005117
0.000407529
0.000627388
0.00074831
0.00064196
0.00061385
0.000626242
0.000363041
0.00058984
0.000910289
0.000629611
0.000417587
0.000692974
0.000388955
0.000217601
0.000192862
0.000418974
0.000325437
0.000292786
0.000285732
0.000513741
0.000546586
0.000230017
0.000386691
0.000688665
0.000336107
0.000259352
0.000235617
0.000236009
0.000166755
0.000188275
0.000180525
0.000221979
0.000206355
0.000156747
0.000240714
0.000135789
0.000136588
0.000349048
0.00019704
0.000284827
0.000244072
0.00232029
0.000295572
0.000731533
0.00223801
0.000367851
0.000395018
0.000780337
0.0021856
0.00031127
0.000378297
0.000320039
0.00059398
0.00212576
0.000813144
0.000590487
0.000495539
0.000375677
0.000216787
0.000690174
0.00226415
0.000509859
0.000494742
0.000288188
0.000525748
0.000693061
0.000389025
0.00015941
0.00220242
0.000820547
0.000867684
0.000680934
0.000772056
0.000512953
0.000530612
0.000417652
0.00046542
0.00231364
0.00127813
0.000559747
0.000790553
0.00127213
0.000498777
0.000764074
0.000616573
0.000517973
0.000500798
0.00231881
0.000616253
0.000355837
0.000895646
0.000996945
0.000460968
0.000665091
0.000675419
0.000334294
0.000403685
0.00104997
0.00220346
0.000299945
0.000504463
0.000882317
0.000461594
0.000634105
0.000668282
0.000579411
0.000505565
0.000460965
0.000658029
0.000712217
0.00203383
0.000461709
0.000438782
0.000533848
0.000222158
0.00030281
0.00132878
0.00093524
0.000726184
0.000455411
0.000426206
0.000469533
0.000345242
0.00226301
0.000629422
0.000595365
0.000483719
0.000558752
0.000562126
0.000743257
0.000975657
0.0010046
0.000586285
0.000467233
0.000494697
0.000219534
0.000230836
0.00182385
0.000584834
0.000674583
0.000804941
0.000473981
0.000594803
0.000394823
0.00070225
0.000722981
0.0004708
0.000632024
0.000428424
0.000347456
0.000661921
0.000485468
0.000870257
0.000513121
0.000418462
0.000525252
0.000388224
0.000247214
0.000181978
0.000277294
0.00029351
0.000318753
0.000541071
0.000562139
0.00069571
0.000459174
0.000437656
0.00065346
0.000309341
0.000203192
0.000226731
0.000213943
7.92115e-05
0.000149772
0.000266129
0.000161346
0.000212276
0.000172488
0.000249637
0.00022684
0.000158568
0.000141117
0.000456642
0.000208241
0.000364003
0.000333844
0.00210054
0.000625076
0.00220105
0.00031633
0.00029552
0.000561871
0.00222667
5.31932e-05
0.000362757
0.000348692
0.000699227
0.00222359
0.000488773
0.000519753
0.000295426
0.000312355
0.000597635
0.00217137
0.000632477
0.000601041
0.000453513
0.000532223
0.000584847
0.000259336
0.000678669
0.00220609
0.000665216
0.000930979
0.000549201
0.000727595
0.0006086
0.000456832
0.0004346
0.000547468
0.00229619
0.000750535
0.000790003
0.000782505
0.00103661
0.000680133
0.00062707
0.000518661
0.000341695
0.000376518
0.0021935
0.00128286
0.000707096
0.000751046
0.00101327
0.000503992
0.00120136
0.00107432
0.00085179
0.000464162
0.000532761
0.00248516
0.000559911
0.000329033
0.000791735
0.00100573
0.000943233
0.000672078
0.000874268
0.000688096
0.000420306
0.000562238
0.000725903
0.00222107
0.000288355
0.000267967
0.000457048
0.00061053
0.000787966
0.000617555
0.000869557
0.000421414
0.000812389
0.000410842
0.000513006
0.000721941
0.00214834
0.000521676
0.000553872
0.000567759
0.000419341
0.000647026
0.000884006
0.00133297
0.00083438
0.000943245
0.00027228
0.000408869
0.000424564
0.000403258
0.00248517
0.000876819
0.000946413
0.000856382
0.0003682
0.000472953
0.000548165
0.000689477
0.000791931
0.00102955
0.000539871
0.00042102
0.000512511
0.000445389
0.000255509
0.00177392
0.000454306
0.000615512
0.000602557
0.000703226
0.000387929
0.000486446
0.000483438
0.000819287
0.000863341
0.000353057
0.000534111
0.000536539
0.000438968
0.0010736
0.000344087
0.000794503
0.000319497
0.000421619
0.000478103
0.000575467
0.000425383
0.000210079
0.000192385
0.000378984
0.000324722
0.000422421
0.000266002
0.000442975
0.000659471
0.000763953
0.000563965
0.000568272
0.000332526
0.000188388
0.000223907
0.000202329
0.000146221
0.000151425
0.00013962
0.000284643
0.000170213
0.000210522
0.000188361
0.000285616
0.000198736
0.000145055
0.000190834
0.000386796
0.00019266
0.000348676
0.000189648
0.00216465
0.000388118
0.00208526
0.000502422
0.000693036
0.00220348
0.000271896
0.000494876
0.00024993
0.000400451
0.00219337
0.000313472
0.000290811
0.000194683
0.000307392
0.000465091
0.0022779
0.000658495
0.000450514
0.000489017
0.000181679
0.000305011
0.000499824
0.00210517
0.000844205
0.00104124
0.000602379
0.000656412
0.000609934
0.000676551
0.000379835
0.000449507
0.00231959
0.000562416
0.000748192
0.000766846
0.000613406
0.000710948
0.000637065
0.000482796
0.000478927
0.000811461
0.00239814
0.000434262
0.000788905
0.000791497
0.000519625
0.000807977
0.000421608
0.000628022
0.000594393
0.00066623
0.000684281
0.00220017
0.000659659
0.000997119
0.000738138
0.000999578
0.000939938
0.000900889
0.000698007
0.000474949
0.000404842
0.000454916
0.000999138
0.00246775
0.000715529
0.000734124
0.000442836
0.000626525
0.000804458
0.000812158
0.00082527
0.000617494
0.00076013
0.00053138
0.000968245
0.000653826
0.00238336
0.000357817
0.000461454
0.000469976
0.000643574
0.00146275
0.000998466
0.000684671
0.000598165
0.00100837
0.000500653
0.000576131
0.000587839
0.000514876
0.00205113
0.00020459
0.000469297
0.000576055
0.000619333
0.000259831
0.00089322
0.00121119
0.00100774
0.000461597
0.000736016
0.000399527
0.000504584
0.000353439
0.000403865
0.00232873
0.000437845
0.00103165
0.000495442
0.000432672
0.000485207
0.000442557
0.000670282
0.000716308
0.000901057
0.00121564
0.00058661
0.000606412
0.000527038
0.000641435
0.00049241
0.00208105
0.000446379
0.000672245
0.000345438
0.000607367
0.000571214
0.000333892
0.000514477
0.000736892
0.00094785
0.00104396
0.000615118
0.000627552
0.000570323
0.000384727
0.000880525
0.000429096
0.000884129
0.000381301
0.000290835
0.000372807
0.000437545
0.000668004
0.00045487
0.00024346
0.000152377
0.000420752
0.000370607
0.000473416
0.000203192
0.00069727
0.000613759
0.000743373
0.000485673
0.000481202
0.000291664
0.000116707
0.000190821
0.00024115
0.000192989
0.000237944
0.000144774
0.000138553
0.000266928
0.000172361
0.000183794
0.000195837
0.00024762
0.000191352
0.000104862
0.000263558
0.000387559
0.000179167
0.00026072
0.000209273
0.00213414
0.000662227
0.00214209
0.000339179
0.000393822
0.002133
0.000281694
0.000377841
0.000504339
0.0022203
0.000691004
0.000385263
0.000287686
0.000336174
0.000366556
0.00214374
0.000709097
0.000444661
0.000439296
0.000298278
0.000235202
0.000461207
0.002317
0.000663484
0.000364407
0.000865135
0.000405622
0.000301997
0.000176028
0.000292727
0.00222815
0.000426176
0.000935356
0.000490172
0.000406317
0.000331037
0.000559143
0.000466797
0.000276819
0.000481481
0.00216286
0.000448635
0.00060461
0.000441599
0.000263106
0.000742344
0.000418047
0.000573243
0.000430508
0.00049236
0.00033465
0.00241271
0.000229162
0.000942158
0.000995542
0.000485872
0.00119102
0.000262785
0.000809573
0.000504611
0.000655246
0.000594147
0.000760108
0.00233428
0.000692055
0.00122359
0.000574242
0.000701783
0.000796161
0.000742072
0.000722629
0.000425819
0.00070922
0.000470745
0.000775708
0.00060666
0.00225218
0.000674118
0.000728164
0.000467192
0.000593228
0.000850198
0.000723152
0.000984744
0.00077212
0.00045198
0.000598112
0.000385423
0.000727218
0.000785238
0.00240777
0.000363833
0.000503325
0.00059472
0.00036692
0.000661158
0.000982424
0.0023046
0.000778064
0.000510878
0.00060213
0.000129946
0.000721145
0.000386688
0.000522905
0.00209303
0.000468624
9.50503e-05
0.000632474
0.000580145
0.000850309
0.000323081
0.000479236
0.00117978
0.00155437
0.00038397
0.000518733
0.000407891
0.000236091
0.000215021
0.000335232
0.0026027
0.000479646
0.000442113
0.000504989
0.000659205
0.000669171
0.000784704
0.000404336
0.000512929
0.00118544
0.000872465
0.000899067
0.000376051
0.000476631
0.00030053
0.000517589
0.000646523
0.0021658
0.000345205
0.00040756
0.00056205
0.000466768
0.000803298
0.000641076
0.000369491
0.000459903
0.000984437
0.00106264
0.000630108
0.000662692
0.000683926
0.000651092
0.000471488
0.000683741
0.000475598
0.00105169
0.000566815
0.000254604
0.000313055
0.000339683
0.000340329
0.00032636
0.000405147
0.000230779
0.000160695
0.000428771
0.000405269
0.000504842
0.000134628
0.000533108
0.000513821
0.000567038
0.000435665
0.00045457
0.000321287
0.000277412
0.000120931
0.000183599
0.00022994
0.000173129
0.000188242
0.000166999
0.000121284
8.52392e-05
0.000194842
0.000161333
0.000188385
0.000213019
0.000188445
0.000232761
0.000202466
0.000452841
0.000257595
0.000184633
0.00031675
0.00207845
0.000166476
0.00208935
0.000506747
0.000732384
0.00204446
0.000445387
0.00027137
0.000233368
0.00213417
0.000661948
0.000354027
0.000335184
0.000630929
0.00221682
0.000642146
0.000460707
0.00059137
0.000145114
0.000287218
0.000323633
0.0021809
0.000519855
0.000409636
0.000313889
0.000323306
0.000302687
0.000283601
0.000252364
0.0021788
0.000634171
0.000903928
0.000289021
0.000554799
0.000329075
0.000567304
0.000299962
0.00037954
0.00224126
0.000546446
0.000527707
0.000473026
0.0012569
0.000500668
0.000470244
0.000755084
0.000362085
0.000270748
0.000386621
0.00221959
0.000679632
0.000609399
0.000378058
0.000818721
0.000386118
0.000428856
0.000371253
0.000369066
0.000388526
0.000255749
0.000352026
0.00235382
0.000789355
0.000728304
0.000631187
0.000664259
0.000706418
0.00052565
0.000486129
0.000709703
0.000612569
0.000531261
0.000494041
0.000499649
0.00235659
0.00062248
0.000996159
0.000552547
0.00079241
0.000798874
0.000741813
0.000700444
0.000603106
0.000879237
0.000789939
0.000607929
0.00085647
0.000628527
0.00239457
0.000703645
0.000537389
0.000594567
0.000605792
0.000485288
0.000852746
0.00107593
0.000672016
0.000664272
0.000736994
0.000291105
0.000826529
0.000424451
0.000853393
0.00218196
0.000393063
0.000401342
0.00059917
0.000398671
0.000227232
0.000511056
0.000835352
0.000384814
0.000481752
0.000873467
0.000425249
0.000467397
0.000532102
0.000177884
0.00091963
0.00211556
0.000394052
0.000512599
0.000498862
0.00101492
0.000715778
0.000417424
0.000452668
0.000833025
0.00119955
0.0011252
0.000413182
0.000525694
0.000507843
0.000314683
0.000239409
0.000590276
0.00305955
0.000459232
0.000448907
0.000730753
0.00125877
0.000850175
0.000915621
0.000471538
0.000270457
0.000618559
0.00193077
0.000805208
0.000875376
0.000691213
0.000517492
0.000364897
0.000488596
0.000835321
0.00193122
0.000546658
0.000346171
0.000464431
0.000464778
0.000252895
0.000431099
0.000332348
0.0002871
0.000302652
0.000854754
0.000997433
0.00115857
0.00046077
0.000730166
0.000881214
0.000547878
0.00082686
0.000490363
0.00108918
0.000303828
0.000358719
0.000391402
0.000235833
0.00035359
0.000304922
0.000490517
0.000393178
0.000208737
0.000259763
0.000488547
0.000391986
0.000434297
0.000120957
0.000393011
0.000456823
0.00045907
0.000519603
0.000413353
0.000363307
5.15989e-05
0.000175549
0.000120482
0.000172515
0.000213909
0.000179029
0.00021316
0.000140738
0.000122913
4.50846e-05
0.00022407
0.000115828
0.000169474
0.0001706
0.000175527
0.000314119
0.00013779
0.000526667
0.000244163
0.000163464
0.0002249
0.00214373
0.000390097
0.00204352
0.000457571
0.000348972
0.00205104
0.000298459
0.000475927
0.000553019
0.00211325
0.000725045
0.00050028
0.000384479
0.000322062
0.00220692
0.000498855
0.000258471
0.000231211
0.000237026
0.000411507
0.00207952
0.000488413
0.000761071
0.000446028
0.000400138
0.000342136
0.000321498
0.000172945
0.00222238
0.000301309
0.000751462
0.000204587
0.000917608
0.00049603
0.000371408
0.000298348
0.000356879
0.00230833
0.000531793
0.00125258
0.000511598
0.000490151
0.000126928
0.000379154
0.00029998
0.000346664
0.000328761
0.00226711
0.000568948
0.000430498
0.000564474
0.000433941
0.000513609
0.000388163
0.000524332
0.000370483
0.000412304
0.000422347
0.000387981
0.00227041
0.000479577
0.000371231
0.000381188
0.000740635
0.000294802
0.000890296
0.000581926
0.000609441
0.000626804
0.000529921
0.000337655
0.000360788
0.00235897
0.000821583
0.000444417
0.000912508
0.000766196
0.000439895
0.000832082
0.000440925
0.000753307
0.000786794
0.000702008
0.000701357
0.000837642
0.000585398
0.00223813
0.000604736
0.000729753
0.000692014
0.000723034
0.00101535
0.00122237
0.000609879
0.000760145
0.000670867
0.000759334
0.000671571
0.000496069
0.000658993
0.00107393
0.00244051
0.000683216
0.000591959
0.000497188
0.000740216
0.000679507
0.000509138
0.000794125
0.00160178
0.00104204
0.000801343
0.000466201
0.000519871
0.000446818
0.000434362
0.00102057
0.00223606
0.000748273
0.000549264
0.00071984
0.000482336
0.000145998
0.000870729
0.00023344
0.00054322
0.0018626
0.000220239
0.00063518
0.000521074
0.000603004
0.000474017
0.000224781
0.000678475
0.00188362
0.000466388
0.000280356
0.000245302
0.000321922
0.000178391
0.000634909
0.000291231
0.000141661
0.000353929
0.00127356
0.000733841
0.000423699
0.000305882
0.000402269
0.000393098
0.000429873
0.0011553
0.00282113
0.000497143
0.000550429
0.000416646
0.000485694
0.000725263
0.000993813
0.000557251
0.000368064
0.000218068
0.000581865
0.000994282
0.00082821
0.0013106
0.000386415
0.000611164
0.000717819
0.000767958
0.00126539
0.0016763
0.000561591
0.000424151
0.000521564
0.000503074
0.000461575
0.000248304
0.000938733
0.000340151
0.000322169
0.000335424
0.000535028
0.000736645
0.00142297
0.000472079
0.000515376
0.000713853
0.000564346
0.000856156
0.00050557
0.00112802
0.000154521
0.000343961
0.000301765
0.000398792
0.00044537
0.000393856
0.000314643
0.000459936
0.000374684
0.000197358
0.000328642
0.000532265
0.000312265
0.000366024
0.000169937
0.000448404
0.000371154
0.000401272
0.000428083
0.00033699
0.000405676
0.000432714
6.89511e-05
0.000228308
0.000129413
0.000191213
0.000221831
0.000186455
0.000219025
0.000136452
0.00013334
0.000181914
0.000198371
0.000158468
0.000179366
0.000152758
0.000167807
0.00025723
0.000195472
0.000484344
0.000134982
0.000177908
0.000227327
0.00207194
0.000505343
0.00215717
0.000290621
0.000150765
0.00202303
0.000327422
0.000404955
0.000404148
0.00204276
0.000199173
0.000289323
0.000301544
0.000365861
0.00212569
0.000536222
0.000454566
0.000267661
0.00022028
0.000250902
0.00205255
0.000679789
0.000309262
0.000497818
0.00028275
0.000365136
0.000475287
0.00213315
0.000300842
0.000488852
0.000396797
0.000474923
0.000281485
0.000465855
0.000318072
0.000235649
0.00218849
0.000642555
0.000532365
0.000302343
0.000341085
0.000385725
0.000413196
0.000491553
0.000262705
0.00033004
0.00221349
0.00034557
0.000428669
0.000421792
0.00067963
0.000342221
0.000328681
0.000491212
0.000445634
0.000568895
0.000489981
0.00239637
0.000431663
0.000425732
0.000637209
0.000515145
0.000641326
0.000605267
0.000466387
0.000418445
0.000427125
0.000372139
0.000399039
0.000365245
0.00232316
0.000607416
0.000728832
0.000654765
0.000515718
0.000560179
0.000585142
0.000410365
0.000465305
0.000799709
0.000629904
0.000651489
0.000612064
0.00035295
0.00239776
0.000411804
0.000475831
0.000777961
0.000335549
0.000757452
0.00054335
0.000679773
0.000686971
0.000827148
0.000483875
0.000590574
0.000545729
0.000701056
0.000834757
0.00228614
0.00052153
0.000640793
0.000651413
0.000385314
0.000695816
0.000701827
0.000823394
0.00107594
0.000705546
0.000569076
0.000499171
0.000436459
0.000762423
0.000801251
0.000856372
0.0023135
0.000527759
0.000508294
0.000690582
0.000874689
0.000643092
0.000700035
0.000421669
0.000892569
0.00081979
0.000491228
0.000742274
0.00056382
0.000500538
0.000285189
0.000899493
0.000893836
0.00266075
0.0004462
0.000807539
0.000359506
0.000432777
0.000562234
0.000411797
0.000811073
0.000997882
0.000637797
0.000303227
0.000670583
0.000398437
0.000468817
0.000576492
0.000463912
0.000895669
0.000785816
0.0018983
0.000455092
0.000409725
0.000393483
0.000259003
0.000434506
0.000785489
0.000277632
0.000370091
0.000442268
0.00035507
0.0006733
0.000568914
0.000336957
0.000626366
0.000318958
0.000287925
0.000703799
0.00124631
0.00236271
0.000453166
0.000556722
0.000503576
0.000504281
0.000467747
0.000388342
0.00104993
0.00060884
0.000491358
0.00017403
0.000622447
0.000449432
0.000727598
0.000381124
0.000307184
0.000560483
0.000555857
0.00106606
0.000890156
0.0012042
0.00020094
0.000678087
0.000396214
0.000362703
0.000404888
0.000380749
0.000192885
0.000702211
0.000402497
0.000298199
0.000447002
0.000366103
0.000743788
0.000626007
0.000489717
0.000502634
0.000627364
0.000663668
0.000779699
0.000518541
0.000893434
0.000302922
0.00015244
0.000409547
0.000422006
0.000541206
0.000447103
0.00036555
0.000317501
0.000486566
0.000300905
0.000175338
0.000234089
0.000494416
0.000258542
0.000365088
0.000142821
0.000322722
0.000355511
0.000383526
0.000382435
0.00028727
0.000409275
0.000395499
0.000529457
0.000111624
0.000151662
0.000135867
0.000205586
0.000247934
0.000168992
0.000167473
0.000102023
0.000142781
0.000146558
0.000153089
0.000108475
0.000171874
0.000130366
0.000177471
0.000117681
0.000229769
0.000326458
0.000247088
0.000182365
0.000261062
0.00214812
0.000442387
0.00204331
0.000342733
0.000385798
0.0021222
0.000421042
0.000430523
0.000160214
0.00206772
0.000385598
0.000281802
0.000387031
0.00022342
0.0020737
0.000183944
0.000564148
0.000548507
0.000290882
0.000677382
0.00204135
0.000265156
0.000406629
4.08147e-05
0.000273412
0.000284081
0.000345622
0.00214071
0.000316448
0.000408306
0.000698375
0.000363367
0.000466913
0.000393894
0.000347874
0.00221006
0.000588283
0.000334745
0.000459566
0.000259544
0.000228188
0.000415346
0.000479929
0.000317071
0.000320119
0.00222082
0.00056906
0.000450974
0.000630726
0.000714953
0.000491411
0.000333638
0.000413693
0.00026589
0.000464554
0.000315019
0.00224564
0.000595185
0.00063006
0.000467593
0.000521258
0.000437637
0.000384442
0.000289852
0.000329039
0.000372727
0.000426041
0.000534211
0.00230258
0.000487453
0.000560405
0.000501041
0.00060217
0.000372525
0.000524139
0.00038956
0.000461128
0.000538652
0.000545055
0.000620045
0.000555451
0.000563808
0.00247812
0.000244442
0.000602785
0.000340703
0.000561541
0.000330438
0.000433126
0.00062769
0.000552448
0.000464182
0.00037078
0.00062754
0.000554885
0.000503391
0.000685899
0.00222971
0.000561743
0.000737465
0.000465048
0.000645231
0.000639388
0.000369438
0.000822512
0.000530076
0.000635476
0.000450109
0.000676512
0.000567406
0.000648461
0.000656436
0.000740785
0.00224192
0.000484766
0.000835349
0.000747953
0.000381432
0.00062793
0.000907501
0.000840393
0.000656697
0.000708752
0.000946493
0.000658609
0.000273919
0.000429479
0.000767627
0.000937947
0.00115912
0.00233501
0.000543341
0.000798728
0.000701119
0.000846057
0.000672556
0.000610453
0.000682634
0.000829942
0.000783559
0.000815069
0.00097762
0.000324982
0.000662974
0.000417278
0.000667015
0.000803187
0.000636899
0.00289302
0.00050283
0.000390062
0.00039908
0.000322973
0.000348157
0.000335922
0.000299407
0.000218529
0.000362158
0.000431326
0.000543681
0.000849247
0.000757334
0.000541479
0.00030716
0.00030062
0.00064436
0.00128561
0.0021745
0.000506647
0.000592696
0.000525421
0.000763572
0.000462191
0.000297638
0.000364028
0.000610069
0.000388395
0.000342089
0.00045364
0.000791963
0.000438958
0.000699108
0.000503349
0.000372521
0.000581766
0.00163611
0.001599
0.00230398
0.000423022
0.000423332
0.000621096
0.000374302
0.000402541
0.000444354
0.00047489
0.000607427
0.000604613
0.000236164
0.000421554
0.000554646
0.000412216
0.000813235
0.000603096
0.000714635
0.000617367
0.000664771
0.000628443
0.000883622
0.00129741
0.000728116
0.000346184
0.000598189
0.000395315
0.000558054
0.000315801
0.000422282
0.000295093
0.000618151
0.000302979
0.000314736
0.000346572
0.00050385
0.000896343
0.000428992
0.00049539
0.000545891
0.000605095
0.000707191
0.000792809
0.000509896
0.000778199
0.000468908
0.000413736
0.000133534
0.000415968
0.000362006
0.000471258
0.000506498
0.000304024
0.000280404
0.000420229
0.000298456
0.00022569
0.00058939
0.000426007
0.00019882
0.000265847
0.000176701
0.000344482
0.000402825
0.000386329
0.000392769
0.000312219
0.000400686
0.000159279
0.000259013
0.000526505
0.000101388
0.000196472
0.000142482
0.000236771
0.000254025
0.000159627
0.000159549
0.000154328
0.000121729
0.000116393
0.000155196
0.000117902
0.000172622
0.000120004
0.000182846
0.000144192
0.000165381
0.000195392
0.000268734
0.000209828
0.00023751
0.00199741
0.000475498
0.00211002
0.000452799
0.000476505
0.0020436
0.000295494
0.000532707
0.000356862
0.00214364
0.000655338
0.000372479
0.000298654
0.000305971
0.00211958
0.000389778
0.000341827
0.000338466
0.000484715
0.00039956
0.00212669
0.000279709
0.000290209
0.000303379
0.0004717
0.000375711
0.000284455
0.00207195
0.000397423
0.00022223
0.000304989
0.000408792
0.000423318
0.000578758
0.000555754