/*--------------------------------*- C++ -*----------------------------------*\
  =========                 |
  \\      /  F ield         | OpenFOAM: The Open Source CFD Toolbox
   \\    /   O peration     | Website:  https://openfoam.org
    \\  /    A nd           | Version:  7
     \\/     M anipulation  |
\*---------------------------------------------------------------------------*/
FoamFile
{
    version     2.0;
    format      ascii;
    class       surfaceScalarField;
    location    "3";
    object      phi;
}
// * * * * * * * * * * * * * * * * * * * * * * * * * * * * * * * * * * * * * //

dimensions      [0 3 -1 0 0 0 0];

internalField   nonuniform List<scalar> 
54095
(
0.000280901
-7.88696e-05
-0.000383752
0.00019694
-7.78281e-07
-0.00138376
0.000105875
-8.80003e-05
-0.000316878
0.000269472
-7.08165e-05
-0.000582407
-7.51519e-05
-8.3167e-05
-0.00243427
3.59452e-05
3.95935e-05
-0.00245059
0.000144243
1.7586e-05
-0.00127611
3.88669e-05
-5.70249e-05
-0.00083895
9.20533e-05
-8.51511e-05
-0.000394597
0.00024305
-6.26595e-05
-0.000762797
-0.000180214
0.000338665
-0.0057055
0.000513983
0.000332137
-0.00442867
-0.00010658
-0.000165317
-0.00201813
0.000121623
0.000105504
-0.00167245
-0.000102323
4.92093e-05
-0.00228783
9.34322e-05
3.00021e-05
-0.0011565
6.37578e-06
-3.15169e-05
-0.00176642
3.72902e-05
-5.68294e-05
-0.000904562
8.34005e-05
-8.09288e-05
-0.000459728
0.000210169
-5.31967e-05
-0.000919769
-0.000208313
0.000264595
-0.00647869
0.00112934
0.000652449
-0.00320207
-0.000282038
0.000217584
-0.00574762
0.000416991
0.000438583
-0.0031883
0.000538108
0.00037684
0.00281901
-0.0001201
-5.77333e-05
-0.00174686
-5.98349e-05
0.000152592
-0.00163718
0.00011287
0.000115726
-0.00181454
-0.000121427
6.49056e-05
-0.00211791
4.66693e-05
3.60813e-05
-0.00102908
4.13155e-05
-2.97864e-05
-0.00176502
2.47835e-06
-3.12982e-05
-0.00179443
2.95701e-05
-5.60302e-05
-0.000959031
9.11474e-05
-7.41992e-05
-0.000529873
0.000176326
-4.51558e-05
-0.00105094
-0.000598588
0.000177665
-0.00502755
0.000712725
0.000978527
-0.00571856
-0.000509138
0.000241327
-0.00649292
0.000835673
0.000743597
-0.00456181
0.00103619
0.000563815
-0.00404638
-0.000273097
0.000202048
-0.00579667
0.000196916
0.000465678
-0.00321397
0.000380639
0.000414484
-0.00349371
0.000314681
0.000327241
0.00199793
-0.00015257
-3.57266e-05
-0.0015119
4.32553e-05
0.000129163
-0.00221215
-5.65657e-05
0.000161781
-0.00162419
7.80947e-05
0.000125807
-0.00192397
-9.66018e-05
6.06281e-05
-0.00195471
2.05457e-05
3.41738e-05
-0.000907473
1.76875e-05
-3.04142e-05
-0.00144892
3.57956e-05
-2.9336e-05
-0.00180278
1.44913e-06
-3.30877e-05
-0.00181882
2.87446e-05
-5.69126e-05
-0.00100506
0.000109217
-6.73519e-05
-0.000616894
0.00014603
-3.82048e-05
-0.00115876
-0.00108611
0.000334296
-0.00332041
-0.000242603
0.000625884
-0.00617904
-0.000918134
0.000218377
-0.00483694
0.000856949
0.00111606
-0.00603034
0.000639907
0.000490881
-0.00557184
-0.00051122
0.000122221
-0.00637702
0.000636226
0.000535722
-0.00445657
0.000850537
0.000708626
-0.00517652
0.000686641
0.000459966
-0.00467626
-0.000270223
0.000195866
-0.00587489
0.000218169
0.000521399
-0.00209731
0.000189484
0.000458488
-0.00350402
0.000313324
0.000250364
-0.00365207
0.000198247
0.000385242
0.00128211
-0.000125566
4.33428e-05
-0.00140913
4.20027e-05
0.000109868
-0.00279647
1.83741e-05
0.000129167
-0.00216211
-2.13253e-05
0.000158919
-0.00163453
4.71185e-05
0.000118093
-0.00199981
-1.75712e-05
2.46496e-05
-0.0018184
1.98986e-06
3.64931e-05
-0.000799926
-7.50097e-05
-2.80371e-05
-0.00027697
9.90968e-06
-3.22208e-05
-0.00145594
3.50291e-05
-3.09286e-05
-0.00183996
4.08263e-06
-3.67234e-05
-0.00184309
3.17207e-05
-5.62493e-05
-0.00104789
0.000105635
-6.06737e-05
-0.000700061
0.00012098
-3.29163e-05
-0.00124683
-0.00155945
0.000402696
-0.00300834
-0.000829927
0.000814722
-0.00523742
-0.00128982
0.000342187
-0.00329091
0.00034626
0.000948868
-0.00665134
-0.000308278
0.000671396
-0.00568387
-0.00072996
9.86331e-05
-0.00471683
0.000978881
0.000963291
-0.00519322
0.000767273
0.000640928
-0.00609713
0.000358798
0.000604755
-0.00572653
-0.000600952
0.000175183
-0.00622147
0.000579458
0.000183398
-0.00360266
0.000680682
0.000562771
-0.00480192
0.00052769
0.000592847
-0.00552377
0.000179682
0.000496016
-0.00495784
-0.000295969
0.00022669
-0.00593117
0.000299496
0.000390779
-0.00187453
0.000171119
0.000574599
-0.00236617
0.000247043
0.000288387
-0.00381041
0.000110155
0.000226405
-0.00355627
0.000123961
0.000430403
0.000753517
-0.000209315
6.84297e-05
-0.00126625
-8.34277e-06
6.48728e-05
-0.00188562
1.05051e-05
0.000106271
-0.00277417
3.71008e-05
0.000125965
-0.00213123
6.14778e-06
0.000144721
-0.00166322
2.81178e-05
8.69088e-05
-0.00205846
-3.8753e-05
2.07702e-05
-0.00165828
1.98578e-06
3.69386e-05
-0.00071787
-5.5985e-05
-3.14311e-05
-8.24541e-05
-7.37424e-05
-2.98131e-05
-0.000205636
3.9806e-06
-3.36921e-05
-0.00145716
2.81073e-05
-3.3078e-05
-0.00187172
2.93555e-06
-3.72274e-05
-0.00186505
3.85216e-05
-5.33499e-05
-0.00109373
8.78389e-05
-5.62954e-05
-0.000764521
0.000102516
-2.92766e-05
-0.00132007
-0.00170216
6.3883e-05
-0.00344684
-0.000985008
0.000571821
-0.00493319
-0.00153131
0.000366051
-0.0031329
-0.000113611
0.00109709
-0.00513378
-0.000856984
0.000642993
-0.00498952
-0.00108875
0.000316364
-0.00324849
0.000738372
0.00119327
-0.00664463
1.8976e-05
0.000811531
-0.00604318
-0.000504695
0.000649791
-0.00537154
-0.000890711
0.000149118
-0.00457619
0.00102646
0.000688075
-0.00474891
0.000624621
0.000892863
-0.0053891
0.000330906
0.000932483
-0.00622807
-0.000209834
0.000532197
-0.00569403
-0.000775113
0.000228672
-0.005971
0.000568234
2.46927e-05
-0.00386728
0.000581804
0.00024077
-0.00369135
0.00051411
0.000638618
-0.00511475
0.000188389
0.000609547
-0.00571553
3.9893e-05
0.000485531
-0.00513262
-0.000452608
0.000250459
-0.00593834
0.000263491
0.000187936
-0.00210712
0.00029664
0.000457103
-0.00204317
0.000144939
0.000516919
-0.00270254
0.000222709
0.000165302
-0.00396587
4.06711e-05
0.000283976
-0.00342239
-3.35549e-05
0.000500115
0.000316633
-0.00021427
9.89809e-05
-0.00114898
-8.89047e-05
3.69295e-05
-0.000594412
1.86338e-05
6.99141e-05
-0.00194164
3.0289e-07
0.000110473
-0.002755
6.35737e-05
0.000119936
-0.00214191
-9.6094e-06
0.000141032
-0.0017048
9.49821e-06
7.27886e-05
-0.00208146
-7.23798e-05
4.6316e-05
-0.00150744
1.92435e-05
4.06899e-05
-0.000675288
-2.14114e-05
-2.45735e-05
0.00012203
-5.63448e-05
-3.07177e-05
-2.52046e-05
-6.77772e-05
-3.15023e-05
-0.000140048
-2.76661e-06
-3.5647e-05
-0.00145182
1.68949e-05
-3.19938e-05
-0.00189385
4.81316e-06
-3.44265e-05
-0.00188878
3.45533e-05
-5.15504e-05
-0.00113303
6.35932e-05
-5.2465e-05
-0.000804925
8.98386e-05
-2.69895e-05
-0.00138292
-0.00173401
6.93665e-05
-0.00340817
-0.00123592
0.000242798
-0.00447744
-0.00154658
3.92481e-05
-0.00347081
-0.000310127
0.000680017
-0.00493017
-0.000956364
0.000510383
-0.00497814
-0.00144926
0.000377537
-0.00314993
0.000224446
0.00125367
-0.00602187
-0.000266883
0.000946761
-0.00515169
-0.000826031
0.000598096
-0.00494992
-0.00110695
0.000292156
-0.00332441
0.00102013
0.00125988
-0.00632186
0.000151659
0.00111989
-0.00648003
-9.73445e-05
0.000956513
-0.00592165
-0.000677825
0.000557602
-0.00531203
-0.00113552
0.000237358
-0.00445313
0.000807831
0.000178887
-0.00455776
0.000750582
0.000868263
-0.00489309
0.000477668
0.00100517
-0.00542534
9.49868e-05
0.000762268
-0.00636474
-0.000363617
0.000520709
-0.00558256
-0.000861213
0.000244542
-0.00580694
0.000613286
0.000173601
-0.00387498
0.000647553
0.000102327
-0.00407975
0.000499737
0.000380364
-0.00378789
0.000346914
0.000674619
-0.00530403
3.45954e-06
0.000581123
-0.00577391
-0.000133982
0.000467569
-0.0052493
-0.000518459
0.000261607
-0.00589576
-6.40988e-05
3.50321e-05
-0.000721295
0.000384147
0.000225545
-0.00224107
0.000280948
0.000452139
-0.00225903
0.000189221
0.000376755
-0.00303964
0.000107267
0.000160209
-0.00395898
3.06086e-05
0.000365182
-0.00330857
-0.000111558
0.000416369
3.84233e-05
-0.000160638
0.000124574
-0.00109367
-6.20351e-07
-1.34865e-05
-0.000647107
-8.93527e-05
4.76864e-05
-0.000539176
3.37421e-05
7.68068e-05
-0.0020095
2.32165e-05
0.000121162
-0.0027822
6.0652e-05
0.000125839
-0.00217047
-9.07358e-06
0.000133484
-0.00175161
-1.27904e-05
7.57433e-05
-0.00206354
-0.000115807
7.01199e-05
-0.00135747
1.50872e-05
1.95084e-05
-0.000620045
-1.30275e-05
-5.6515e-06
0.000954986
-2.29132e-05
-2.40405e-05
0.000138266
-5.60993e-05
-3.01772e-05
2.95696e-05
-5.44487e-05
-3.28052e-05
-8.84412e-05
-7.51853e-06
-3.59497e-05
-0.00144035
1.01967e-05
-3.17858e-05
-0.00190668
3.14427e-06
-3.29717e-05
-0.00191051
3.69352e-05
-5.00134e-05
-0.00117242
7.39714e-05
-5.1375e-05
-0.000854511
8.07352e-05
-2.57431e-05
-0.00143791
1.30185e-05
-0.00302936
-0.00136207
0.000130639
-0.00387029
-0.00146613
-3.68156e-06
-0.00348494
-0.000390951
0.000406137
-0.00487295
-0.00114726
0.000192722
-0.00444002
-0.00148033
2.54375e-05
-0.00346518
-3.44861e-05
0.000688815
-0.00508917
-0.000277854
0.00062335
-0.00503217
-0.000837481
0.000439352
-0.00502851
-0.00144425
0.000369985
-0.0031826
0.00043134
0.00158237
-0.00621313
0.000106148
0.00122799
-0.00625758
-0.000355951
0.000732109
-0.0050271
-0.000827105
0.000643832
-0.00515231
-0.00126304
0.000273975
-0.00347087
0.000809798
0.00131427
-0.00585879
0.000546427
0.00141558
-0.0064134
-0.000206599
0.00106502
-0.00590427
-0.000162608
0.000836654
-0.00594311
-0.000649437
0.000561625
-0.00535048
-0.00123207
0.000255561
-0.00433784
0.000959295
-8.30204e-05
-0.00507372
0.00079911
0.000693414
-0.00453446
0.000706717
0.000933377
-0.00502827
0.000402348
0.000937532
-0.00565604
-0.000106695
0.000643166
-0.00637704
-0.000406092
0.000561861
-0.00562776
-0.000923599
0.000283734
-0.00568553
0.00017752
0.000378461
-0.0019682
0.000747666
0.000207217
-0.00434339
0.000629671
0.000150778
-0.00419889
0.00041015
0.000531573
-0.00386577
0.00014299
0.000670775
-0.00542941
-9.15034e-05
0.000541183
-0.00572541
-0.000256297
0.000448935
-0.00529189
-0.000506685
0.000290686
-0.0058404
1.38562e-05
1.48546e-05
-0.000183077
-5.28396e-05
5.43483e-05
-0.000586612
0.000413313
0.000236398
-0.0024049
0.000308831
0.00033577
-0.00250366
0.000213088
0.000245445
-0.00327731
5.75721e-05
0.000161486
-0.00382193
2.28053e-05
0.000315326
-0.00324312
-0.000148244
0.000394342
-0.000198908
-0.000193189
0.000130647
-0.00101604
6.3719e-05
-2.80979e-05
0.000109262
-4.2728e-06
-5.39374e-06
-0.000612668
-9.1776e-05
5.63318e-05
-0.000483025
6.23664e-05
8.32888e-05
-0.00208844
4.19118e-05
0.00013024
-0.00283604
4.84872e-05
0.000138422
-0.0022137
-1.34325e-05
0.000116669
-0.00177595
-1.6711e-05
8.63244e-05
-0.0020261
-8.15493e-05
4.3723e-05
-0.00122617
1.02137e-05
2.4367e-05
-0.00057389
-3.63689e-05
-5.67938e-06
0.000852389
-9.38574e-07
-5.27011e-06
0.000937154
-2.38394e-05
-2.36283e-05
0.000155557
-5.50782e-05
-2.98458e-05
8.16884e-05
-4.51865e-05
-3.35062e-05
-4.56984e-05
-6.45927e-06
-3.80518e-05
-0.00142763
2.35427e-06
-3.36579e-05
-0.00190835
-4.33074e-06
-3.18411e-05
-0.00192435
3.99845e-05
-5.06075e-05
-0.00121317
5.94302e-05
-5.19511e-05
-0.000887733
7.47473e-05
-2.46151e-05
-0.00148804
8.37598e-05
-0.00364706
-0.00148395
-2.7716e-05
-0.00298383
-0.000436072
0.000157528
-0.0045112
-0.00136152
9.44126e-05
-0.00375412
-0.00151199
-2.48294e-05
-0.00342845
-0.000262884
0.000541062
-0.00473492
-0.000460712
0.000379388
-0.00487676
-0.000954018
4.64629e-05
-0.00434451
-0.00149191
6.65906e-05
-0.00348411
7.73569e-05
0.000990376
-0.00579349
-5.17609e-05
0.000590464
-0.00489838
-0.000417957
0.000575085
-0.0051059
-0.000839481
0.000495247
-0.00514139
-0.00140114
0.000345396
-0.00338989
0.000612442
0.00170114
-0.00595296
0.000230001
0.00155308
-0.00622179
-0.000505734
0.000937858
-0.0061642
-0.000142699
0.000741939
-0.00514511
-0.000676648
0.000517464
-0.00536859
-0.00132561
0.000255967
-0.0036333
0.000766884
0.00132891
-0.00584492
0.000745894
0.0014282
-0.0058182
0.000688096
0.00121689
-0.00654664
-4.68599e-05
0.00102029
-0.00563869
-0.000388904
0.000690217
-0.00578949
-0.000649122
0.000597124
-0.00544901
-0.00132132
0.000277874
-0.004218
0.000517359
0.000210143
-0.00583446
0.00100264
0.000298192
-0.00493347
0.000763761
0.000925353
-0.00466053
0.000570706
0.000989571
-0.00524087
0.000239267
0.000849796
-0.00595895
-0.00030962
0.000672276
-0.00626934
-0.000308787
0.000514674
-0.00580621
-0.000894047
0.000276884
-0.00557505
1.9126e-05
0.000439533
-0.00117945
0.00033539
0.000358562
-0.00250777
0.000763292
9.35515e-05
-0.00463615
0.000549578
0.000235371
-0.00414343
0.000333203
0.000624959
-0.00394007
1.84722e-05
0.000670489
-0.00551961
-7.88726e-05
0.000497702
-0.0056725
-0.00037175
0.000470303
-0.005248
-0.000537584
0.000313334
-0.00580934
5.74146e-05
0.000121444
-0.000485863
7.21805e-05
5.5196e-06
-0.000210702
7.82798e-05
6.86872e-05
-0.000588957
0.000381278
0.000206978
-0.00259502
0.00036023
0.000193051
-0.00276958
0.000212428
0.000126513
-0.00340628
1.54804e-05
0.000178241
-0.00371376
-1.36957e-05
0.000368789
-0.00322059
-0.000233
0.000415899
-0.00033271
-0.000193829
0.00015828
-0.000970281
-6.13659e-05
-1.26889e-05
0.000318742
9.66659e-05
-2.30995e-05
2.93633e-05
-8.47954e-06
3.99574e-06
-0.000575691
-9.46458e-05
6.3731e-05
-0.000423899
6.4173e-05
8.47828e-05
-0.00215234
3.84542e-05
0.000139276
-0.0028818
9.95894e-06
0.000142115
-0.00224675
-3.54082e-05
0.000116047
-0.0017746
-1.88131e-05
8.67239e-05
-0.0020103
-0.000127513
4.70515e-05
-0.00106191
1.14848e-05
2.07032e-05
-0.000531331
-3.93629e-05
-3.87556e-06
0.00174664
-2.87039e-05
-6.0894e-06
0.000881913
1.05213e-05
-4.81942e-06
0.000907824
-2.41858e-05
-2.33404e-05
0.000173237
-5.52014e-05
-3.00646e-05
0.000133448
-2.59369e-05
-3.44412e-05
-2.33721e-05
-9.97606e-06
-4.08063e-05
-0.0014105
-1.55553e-06
-3.37064e-05
-0.00190493
-1.60177e-05
-3.34816e-05
-0.00192546
4.7885e-05
-5.24643e-05
-0.00126054
6.10913e-05
-5.21548e-05
-0.000921285
6.84225e-05
-2.33318e-05
-0.00153313
-0.00161303
-3.31545e-07
-0.00277136
7.33948e-05
-0.00401955
-0.00159448
9.16773e-05
-0.00353349
-0.00155398
1.17033e-05
-0.00295354
-0.000498308
0.000326762
-0.00470851
-0.000537909
0.000117845
-0.00445744
-0.00111234
0.000121726
-0.00374236
-0.00142562
-2.22409e-05
-0.0034725
-9.20883e-05
0.000722614
-0.00465239
-0.000225111
0.000487749
-0.00466993
-0.000445286
0.000247928
-0.0050509
-0.000833712
3.9419e-05
-0.00432311
-0.0013597
6.12916e-05
-0.00358685
0.000432841
0.0012953
-0.00572528
1.23515e-05
0.000817707
-0.00580308
-0.000228676
0.000540594
-0.00514094
-0.000234608
0.000641513
-0.00516025
-0.000800087
0.000422508
-0.00509507
-0.00140803
0.000210072
-0.00351754
0.000570895
0.00173711
-0.00595425
0.000585846
0.00168543
-0.00592526
0.000417519
0.00142538
-0.00643874
-0.000425735
0.000866822
-0.00591021
-0.000424569
0.000589948
-0.00518193
-0.000652397
0.000452943
-0.00556229
-0.00139434
0.000255801
-0.00381608
0.00033363
0.00151644
-0.00654553
0.000875863
0.00140399
-0.00569394
0.000673444
0.00150085
-0.00601184
0.000213831
0.00116646
-0.00633594
6.60927e-05
0.000907427
-0.00568273
-0.000468003
0.000663689
-0.00569768
-0.000530127
0.000579891
-0.00552969
-0.0012209
0.000231269
-0.00412241
0.00024571
0.000622715
-0.00541108
0.000722357
0.000229998
-0.00615323
0.000964123
0.000620188
-0.00482913
0.000674717
0.00102304
-0.00481913
0.000407955
0.00101625
-0.00548207
-5.18656e-06
0.000797851
-0.00606087
-0.000306375
0.000641275
-0.00616844
-0.000568431
0.000460128
-0.00579278
-0.000864785
0.000285213
-0.00553306
-0.000161293
0.000601572
-0.00205638
6.20065e-05
0.000434564
-0.00124528
0.000527894
0.000238968
-0.0031028
0.000671793
3.744e-05
-0.00472873
0.000504483
0.000343305
-0.00400603
0.000237103
0.000619671
-0.00391393
-4.2006e-05
0.000663888
-0.00562831
-0.00014427
0.000497731
-0.00556936
-0.00043678
0.000492273
-0.00522316
-0.000515495
0.000350663
-0.00583833
-0.000156196
0.000227729
-0.000224393
7.16384e-05
0.00012744
-0.000582755
3.16185e-05
-9.15521e-06
-0.000172958
0.000101748
8.02901e-05
-0.000658663
0.000322491
0.000158512
-0.0028188
0.000385684
0.000105971
-0.00309627
0.000152835
0.000105573
-0.00347649
2.54519e-06
0.000279648
-0.00366257
-6.04055e-05
0.000384433
-0.00314753
-0.000297971
0.000431098
-0.000435069
-0.000209471
0.000172504
-0.000921829
-7.77891e-05
8.74552e-06
0.000456866
-3.54001e-05
-3.17439e-06
0.000305514
0.000125191
-1.50719e-05
-6.62383e-05
-1.54203e-05
1.63781e-05
-0.000537104
-0.000103949
6.78592e-05
-0.000358228
8.46406e-05
8.1849e-05
-0.00220549
1.23559e-05
0.000138088
-0.00290011
-2.8102e-05
0.000137891
-0.00224205
-4.8186e-05
0.000126588
-0.00178229
-3.00527e-05
9.24213e-05
-0.00197774
-0.000118527
4.47484e-05
-0.000906335
7.617e-06
1.70816e-05
-0.000487607
-4.57011e-05
7.59892e-07
0.00230904
-3.02043e-05
-5.03697e-06
0.00177579
-1.98489e-05
-4.47731e-06
0.000901419
1.7802e-05
-4.3007e-06
0.000870982
-2.39089e-05
-2.34488e-05
0.00019053
-5.58269e-05
-3.09854e-05
0.000185819
-1.97557e-05
-3.55849e-05
-8.83787e-06
-1.08775e-05
-4.3026e-05
-0.0013903
-1.08887e-05
-3.54485e-05
-0.00189207
-2.16978e-05
-3.58414e-05
-0.00192038
4.51614e-05
-5.37998e-05
-0.00130406
6.263e-05
-4.95198e-05
-0.000957727
6.21216e-05
-2.171e-05
-0.00157354
-0.00177237
0.000193977
-0.00236388
-0.00155061
0.000158732
-0.00315026
-0.00162295
8.65208e-05
-0.00278892
0.000151665
-0.00423933
-0.000531394
7.95289e-05
-0.00401391
-0.00109117
0.000101778
-0.00364473
-0.00151584
0.000147432
-0.00301075
-0.000265083
0.000458291
-0.00462583
-0.000542036
0.000333961
-0.0046077
-0.000531206
0.000123082
-0.00437287
-0.000777882
8.48827e-05
-0.00390532
-0.00129107
-5.9812e-05
-0.00348131
0.000206601
0.00101184
-0.00469125
-0.000126853
0.000576301
-0.00460174
-0.000408536
0.000463634
-0.00470578
-0.000362487
0.000189634
-0.00507323
-0.000798437
0.000109332
-0.0043728
-0.00140917
0.000113124
-0.00369885
0.000491593
0.00152291
-0.00586154
0.000221359
0.00119357
-0.00573666
-8.99163e-06
0.000815484
-0.00565146
-0.000190619
0.000521064
-0.00525561
-0.000420358
0.000535784
-0.00527774
-0.000713078
0.000302476
-0.00512679
-0.00135703
0.000216419
-0.00377127
0.000329838
0.00180484
-0.00629844
0.000626973
0.00177498
-0.00579491
0.000515956
0.00166569
-0.00600808
-0.000288742
0.00125317
-0.00632251
-0.000217068
0.000869969
-0.00590707
-0.000442268
0.000509268
-0.00526399
-0.000731156
0.000445722
-0.00555119
-0.00132149
0.000260819
-0.00397631
0.000288105
0.00150646
-0.00637599
0.000400281
0.00158143
-0.0064009
0.000856755
0.00153968
-0.0056254
0.000605827
0.00148714
-0.00626363
0.000468903
0.00107988
-0.00656934
-0.00027608
0.000914099
-0.00566225
-0.00052477
0.00065707
-0.00555646
-0.000667315
0.000393166
-0.0055927
-0.0011517
0.000228427
-0.00406393
-8.65973e-05
0.000723913
-0.0041908
0.000111912
0.000562457
-0.00579345
0.000753931
0.000355068
-0.00611415
0.000896251
0.000774545
-0.0048051
0.000524733
0.00109606
-0.00491919
0.000141374
0.0010094
-0.00559789
-0.00022226
0.000781733
-0.00602107
-0.000355772
0.000607739
-0.00610455
-0.000624171
0.000439106
-0.00575928
-0.000882463
0.00036004
-0.00552614
-0.000310821
0.000745547
-0.00211412
-9.2261e-05
0.000596506
-0.00205442
7.81759e-05
0.000432575
-0.00148545
0.000509331
0.000176736
-0.00364968
0.000615415
7.26623e-05
-0.00475101
0.000501712
0.000417701
-0.00392009
0.000150216
0.000729228
-0.00397665
-7.55219e-05
0.000678768
-0.00573128
-0.000212901
0.000500028
-0.00542462
-0.000462317
0.000506362
-0.00521451
-0.000523644
0.000346668
-0.00587083
-9.10633e-05
0.000246282
-0.000890783
-9.73911e-05
0.000239208
-0.00027417
5.54931e-05
0.000117543
-0.000639756
7.12577e-05
-3.05989e-05
-0.000148747
0.000122792
9.2738e-05
-0.000819629
0.000279145
0.000149681
-0.00305702
0.000321797
4.78453e-05
-0.00334799
6.54999e-05
0.000114844
-0.00340529
2.25995e-05
0.000304459
-0.00365338
-0.000139549
0.00041027
-0.0030172
-0.000329039
0.000420378
-0.000472431
-0.000191829
0.000195646
-0.000918029
-5.88768e-05
4.19095e-05
0.000748035
-6.9949e-05
1.41877e-05
0.000479249
-1.40366e-05
4.98032e-06
0.000279649
0.000150596
-5.65954e-06
-0.000176995
-2.64597e-05
2.97077e-05
-0.000496402
-0.000112959
6.95464e-05
-0.000288793
6.28781e-05
7.1225e-05
-0.00222126
-1.92271e-05
0.000102253
-0.00285612
-5.23597e-05
0.000138529
-0.00221252
-6.20406e-05
0.000136981
-0.00178651
-4.72e-05
9.6474e-05
-0.0019371
-0.000115957
4.1923e-05
-0.000752589
9.92184e-06
1.61917e-05
-0.000451599
-3.17083e-05
1.26063e-05
0.00238183
-3.65421e-05
3.91223e-07
0.00234016
-1.97614e-05
-3.86019e-06
0.00179493
-1.18836e-05
-3.66239e-06
0.000912665
2.05892e-05
-4.17763e-06
0.000831122
-2.39116e-05
-2.40908e-05
0.000207547
-5.70101e-05
-3.23856e-05
0.00023963
-6.12927e-06
-3.68971e-05
-8.83748e-06
-1.72326e-06
-4.38844e-05
-0.00138014
-1.6889e-05
-3.75916e-05
-0.00187344
-2.83137e-05
-3.84258e-05
-0.00190744
4.06334e-05
-5.35923e-05
-0.00134062
6.5242e-05
-4.80146e-05
-0.000996664
5.61285e-05
-2.04918e-05
-0.00160918
-5.22373e-05
-0.00247107
-0.00138181
0.000156193
-0.00307843
-0.00172575
0.00010309
-0.00236418
-0.0006801
0.000298982
-0.00373744
-0.00113868
0.000262474
-0.0032787
-0.00160289
0.000110483
-0.00281235
0.000313928
-0.00430204
-0.000747781
0.00015872
-0.00411277
-0.000482183
8.29952e-05
-0.00404415
-0.000893756
0.000209585
-0.00359101
-0.00144388
0.000114633
-0.00297257
-0.000145648
0.000674392
-0.0045436
-0.000312877
0.000495847
-0.00460169
-0.0007362
0.000325424
-0.00448238
-0.000491144
6.25646e-05
-0.0042219
-0.000876271
8.00161e-05
-0.00396731
-0.00139023
-0.00017622
-0.00332402
0.000325967
0.00113392
-0.00478197
-3.19652e-05
0.0008691
-0.00473072
-0.000133531
0.000588424
-0.00460199
-0.000358078
0.000397744
-0.00474643
-0.000528072
0.000181953
-0.00503814
-0.00091124
0.000196898
-0.00425841
-0.00140067
0.000117842
-0.00377305
0.000282696
0.00166462
-0.00583083
0.000311673
0.00146891
-0.00582159
0.00020537
0.00115024
-0.00576083
-0.000292835
0.000713821
-0.00584012
-0.000230151
0.000534365
-0.00524111
-0.000551102
0.000448158
-0.00531459
-0.000800814
0.00024282
-0.00508353
-0.00129863
0.000149736
-0.00394387
0.000334532
0.00180903
-0.00643901
0.000343442
0.00182721
-0.00629383
0.000586341
0.00178686
-0.00564567
0.000454003
0.00159446
-0.00619755
0.000130424
0.00117132
-0.00628538
-0.000523681
0.000663819
-0.00581402
-0.00053357
0.000629526
-0.005439
-0.000789524
0.000431878
-0.00560004
-0.00120783
0.000340003
-0.00426018
0.000314087
0.00123599
-0.00617111
0.00016428
0.00156304
-0.00640997
0.000523323
0.00159559
-0.0062262
0.00080996
0.00161578
-0.00566775
0.000256779
0.00142099
-0.00633678
-0.000164052
0.00107988
-0.00642969
-0.000380488
0.000868185
-0.00571513
-0.000485337
0.000569067
-0.0056028
-0.000948726
0.000412638
-0.00545236
-0.00107865
0.000201021
-0.00406876
-0.000230051
0.000774725
-0.00483563
3.36297e-05
0.000736859
-0.0044911
0.00021432
0.000540531
-0.00611505
0.000688921
0.000452517
-0.00597171
0.000777791
0.000903924
-0.00477534
0.000397757
0.00119268
-0.00499852
-7.87065e-05
0.00100121
-0.00558845
-0.000289206
0.000765572
-0.00596522
-0.000486381
0.000592014
-0.00598397
-0.000586123
0.00050647
-0.0057819
-0.00086659
0.000337288
-0.00552048
-0.000179841
0.000741544
-0.00222689
-0.000180598
0.000759442
-0.00219385
-0.000123947
0.000572737
-0.00201515
0.000149259
0.00041496
-0.00180167
0.000533312
0.000188822
-0.00417636
0.000572545
0.000214981
-0.00484169
0.000418644
0.000578895
-0.00386661
3.39724e-05
0.000840113
-0.00410647
-9.90399e-05
0.000658773
-0.00576839
-0.000301724
0.000522655
-0.00527874
-0.000544671
0.000475819
-0.00512803
-0.000471519
0.00035615
-0.00594729
-0.000119116
0.000415214
-0.0013695
-9.93709e-05
0.00028834
-0.000910494
-5.23771e-05
0.00026414
-0.000382426
7.27736e-05
9.8136e-05
-0.000690669
5.4706e-05
-3.64587e-05
-0.000100716
0.000118286
0.000112181
-0.00101338
0.000221571
0.000130032
-0.0032979
0.000180395
-3.29859e-06
-0.00342946
2.81758e-05
0.000174361
-0.00335572
1.51853e-05
0.000344348
-0.00366469
-0.000179445
0.000397977
-0.00286256
-0.00031755
0.000409604
-0.000484796
-0.00019247
0.000201011
-0.000916649
-0.00012537
0.00015086
0.00253175
-5.50376e-05
4.42721e-05
0.000736446
-6.77791e-05
2.09207e-05
0.000511326
1.18283e-06
9.34092e-06
0.000251582
0.000162602
4.38507e-06
-0.000293685
-3.84976e-05
4.17457e-05
-0.000454015
-0.000116359
6.9813e-05
-0.000228033
8.68875e-05
3.54374e-05
-0.00224746
2.64409e-05
0.000101805
-0.00284756
-4.28394e-05
0.000125898
-0.00217549
-6.57244e-05
0.000139691
-0.00179232
-5.63666e-05
0.000100128
-0.0018983
-0.000113299
4.5501e-05
-0.000603357
1.93142e-05
1.32002e-05
-0.000427985
-0.000117833
2.47553e-05
0.00204417
-1.45896e-05
1.27222e-05
0.00238409
-2.77298e-05
2.3489e-07
0.00236379
-1.51558e-05
-3.59305e-06
0.00181002
-3.01579e-06
-3.41261e-06
0.000914915
2.14871e-05
-4.00885e-06
0.000789553
-2.41489e-05
-2.48996e-05
0.00022421
-5.80383e-05
-3.36404e-05
0.000294412
-1.01874e-05
-3.72419e-05
-5.29262e-06
-4.54426e-06
-4.45099e-05
-0.00136868
-2.13152e-05
-3.93921e-05
-0.00185115
-2.97909e-05
-3.87743e-05
-0.00189247
4.12962e-05
-5.56919e-05
-0.00137424
6.71927e-05
-4.69963e-05
-0.00103735
5.11475e-05
-1.98432e-05
-0.00164049
-4.32905e-05
-0.00318366
-0.00160578
-5.16247e-05
-0.00253942
-0.000745485
0.000232599
-0.00347354
-0.00115598
0.000127452
-0.00308549
-0.00166519
0.000122023
-0.0024239
-0.000721361
0.000230278
-0.00372268
-0.000558731
0.000275611
-0.00367403
-0.00115101
0.00025465
-0.00316561
-0.00152815
7.81443e-05
-0.00280622
0.000538117
-0.00417216
-0.000615053
0.000355429
-0.00419658
-0.000843335
0.000143921
-0.00406656
-0.000482922
9.94226e-05
-0.00394221
-0.00104549
8.24505e-05
-0.00338961
-0.00147885
0.000109873
-0.00299383
-2.75927e-05
0.000842306
-0.00458827
-0.000163862
0.000662761
-0.00457862
-0.000425059
0.000488424
-0.00447316
-0.000799744
0.000349964
-0.00432811
-0.000631294
6.30573e-05
-0.00410172
-0.00116031
-9.19207e-05
-0.00380254
-0.0014521
-5.00935e-06
-0.00326757
8.13489e-05
0.00119374
-0.00491397
0.000107167
0.00111351
-0.00482187
-6.67266e-05
0.000931977
-0.00480218
-0.000198408
0.000415201
-0.00471387
-0.000355029
0.000385288
-0.00482488
-0.000715015
0.000221457
-0.00489879
-0.000918245
0.00019402
-0.00421716
-0.00142387
7.13668e-05
-0.00371917
0.000363528
0.00163869
-0.00579756
0.000328916
0.00157799
-0.00592537
0.000291273
0.00139681
-0.00577309
6.24715e-05
0.00110821
-0.00576369
-0.000267573
0.000719024
-0.00562679
-0.000428747
0.00047799
-0.00536588
-0.000642942
0.000397378
-0.00535977
-0.00104367
0.000217481
-0.00489713
-0.00121079
9.59415e-05
-0.00403686
0.000170264
0.00178889
-0.00641698
0.00018277
0.00180727
-0.00643757
0.000354292
0.00178885
-0.00612678
0.000606959
0.00176601
-0.00561422
4.27421e-05
0.00141596
-0.00622815
-0.000468478
0.000966658
-0.0062838
-0.00044095
0.00076927
-0.0058933
-0.000573395
0.0006754
-0.00559446
-0.00108926
0.000568919
-0.00568842
-0.00110692
0.00017506
-0.00440696
4.76435e-05
0.00103372
-0.00643604
0.000258367
0.00122024
-0.00605304
0.000123633
0.00162309
-0.00634678
0.000565492
0.00165825
-0.00614524
0.000715577
0.00160348
-0.00578803
0.000102089
0.00134335
-0.00630459
-0.000227211
0.00102875
-0.00644176
-0.000465531
0.000803947
-0.00577369
-0.000627621
0.000624519
-0.00567344
-0.000746466
0.000418478
-0.00550947
-0.00109383
0.000231667
-0.00407319
-0.000228897
0.000837095
-0.00500151
-0.000108004
0.00076662
-0.00493798
-5.08873e-06
0.00066403
-0.00473345
0.00023436
0.000487482
-0.00623512
0.000600427
0.000540589
-0.00567549
0.000577737
0.00106624
-0.00465409
0.000193203
0.00123426
-0.00500613
-0.000202057
0.00100685
-0.0055937
-0.000317605
0.000758321
-0.00591296
-0.00045476
0.000574691
-0.00589916
-0.000634479
0.00046979
-0.0058246
-0.000871201
0.000361417
-0.00548221
-0.000378817
0.00080863
-0.00340918
-0.00017231
0.000798523
-0.00219304
-0.000190194
0.000738761
-0.00222206
-8.91335e-05
0.000550338
-0.00198862
0.000204981
0.000406828
-0.00216995
0.000498197
0.00021828
-0.00455957
0.000485758
0.000306663
-0.00483365
0.000174424
0.000698616
-0.00371914
1.18449e-05
0.000840091
-0.00427145
-0.000160111
0.000660307
-0.00573074
-0.000336065
0.000513987
-0.00516028
-0.000518567
0.000472093
-0.00504296
-0.000487923
0.000378247
-0.00603008
-0.000323456
0.000453815
-0.00303253
-0.000115579
0.000468997
-0.00148961
-0.000127821
0.000329549
-0.000915861
-3.70963e-05
0.000286632
-0.000532644
9.76665e-05
9.26376e-05
-0.00075483
5.38817e-05
-2.87919e-05
-5.21214e-05
0.000107605
0.000134991
-0.0012423
0.000188475
0.000113256
-0.00351604
0.000162519
5.06716e-05
-0.00344185
5.05317e-05
0.000183878
-0.00328862
-1.71957e-05
0.000333882
-0.00364912
-0.000187502
0.000394467
-0.00271629
-0.000296839
0.000393814
-0.000494059
-0.000116013
0.000214414
-0.000995736
-0.000312034
0.000199914
-0.000720365
-0.000109864
0.000158132
0.00251317
-6.13617e-05
4.638e-05
0.000744619
-4.87748e-05
2.5552e-05
0.000528734
1.81223e-05
9.51476e-06
0.000225314
0.000161193
1.08068e-05
-0.000402451
-5.4404e-05
5.264e-05
-0.000406587
-0.000119106
6.81085e-05
-0.000199637
7.20707e-05
3.4293e-05
-0.00226221
2.48722e-05
6.48222e-05
-0.0028159
-4.0593e-05
0.000107726
-0.00212425
-7.24719e-05
0.000128635
-0.00177814
-3.85631e-05
9.82231e-05
-0.00187117
-0.000102865
4.32423e-05
-0.000463341
2.43908e-05
1.05181e-05
-0.000411747
-0.000107532
1.63986e-05
-6.02042e-05
-0.000108417
2.49705e-05
0.00214034
-5.61361e-06
1.28992e-05
0.00237704
-1.7978e-05
-1.55553e-07
0.00237833
-7.61338e-07
-3.18546e-06
0.00181056
5.83775e-06
-4.21161e-06
0.00090928
2.12116e-05
-3.49042e-06
0.000746932
-2.49572e-05
-2.60901e-05
0.000241617
-5.91966e-05
-3.40691e-05
0.000350436
-5.05046e-06
-3.84243e-05
-6.32777e-06
-1.10548e-05
-4.48754e-05
-0.00135214
-2.64835e-05
-4.01084e-05
-0.00182334
-3.42965e-05
-3.95316e-05
-0.00187433
4.08766e-05
-6.00457e-05
-0.00140206
6.65625e-05
-4.47056e-05
-0.00107905
4.61193e-05
-2.11409e-05
-0.00166546
-0.00162443
-1.22679e-06
-0.00242859
2.01434e-05
-0.00340844
-0.00104501
-6.6619e-05
-0.00327964
-0.0015636
-6.91789e-05
-0.00257183
-0.000867618
0.000348725
-0.00356773
-0.000636471
0.000246512
-0.00351486
-0.000946193
9.83336e-05
-0.00326662
-0.00160951
0.0001596
-0.00250214
-0.000837121
0.000318617
-0.00392176