/*--------------------------------*- C++ -*----------------------------------*\
  =========                 |
  \\      /  F ield         | OpenFOAM: The Open Source CFD Toolbox
   \\    /   O peration     | Website:  https://openfoam.org
    \\  /    A nd           | Version:  7
     \\/     M anipulation  |
\*---------------------------------------------------------------------------*/
FoamFile
{
    version     2.0;
    format      ascii;
    class       surfaceScalarField;
    location    "3";
    object      phi_0;
}
// * * * * * * * * * * * * * * * * * * * * * * * * * * * * * * * * * * * * * //

dimensions      [0 3 -1 0 0 0 0];

internalField   nonuniform List<scalar> 
54095
(
0.000280362
-7.92338e-05
-0.000384253
0.000199353
-2.09927e-06
-0.00140783
0.00010423
-8.80757e-05
-0.000309604
0.000269649
-7.13224e-05
-0.000582579
-6.62854e-05
-8.60855e-05
-0.00245222
3.88916e-05
3.94959e-05
-0.00245219
0.000146137
1.67443e-05
-0.00130106
3.81417e-05
-5.70675e-05
-0.000836645
9.22782e-05
-8.54597e-05
-0.000387745
0.000243703
-6.32802e-05
-0.000763001
-0.000157969
0.000359543
-0.00568042
0.000524569
0.000332335
-0.00443772
-0.000102074
-0.000163094
-0.00204092
0.000122136
0.000104759
-0.0016574
-9.31301e-05
4.8769e-05
-0.0022988
9.46122e-05
2.89087e-05
-0.00118088
5.76252e-06
-3.16811e-05
-0.00176833
3.61442e-05
-5.66801e-05
-0.000901569
8.79511e-05
-8.15067e-05
-0.00045747
0.000211239
-5.38682e-05
-0.000920373
-0.000164989
0.000262833
-0.00644445
0.0011381
0.000665937
-0.00310319
-0.000273801
0.000219886
-0.00572858
0.000415758
0.000441658
-0.00317567
0.000558868
0.000390733
0.00278663
-0.000123629
-5.564e-05
-0.00176704
-6.16533e-05
0.000150741
-0.00162378
0.000112194
0.000115787
-0.00180047
-9.75751e-05
6.31331e-05
-0.0021475
4.75179e-05
3.61831e-05
-0.00105334
4.14249e-05
-2.98522e-05
-0.00176659
9.08292e-07
-3.08989e-05
-0.00179502
2.9793e-05
-5.54568e-05
-0.000957412
9.18559e-05
-7.5165e-05
-0.000528029
0.000177386
-4.58346e-05
-0.00105192
-0.000553015
0.000181815
-0.00504476
0.000688955
0.00100188
-0.00571933
-0.00048884
0.000253333
-0.00648274
0.000810228
0.000747921
-0.00449764
0.00106422
0.000562128
-0.00395078
-0.000282571
0.000200579
-0.00577022
0.00019759
0.000467319
-0.00317009
0.000380883
0.000428111
-0.00348173
0.000339653
0.000326523
0.00196724
-0.000153511
-3.42515e-05
-0.00153176
4.6459e-05
0.000129074
-0.00221243
-5.83947e-05
0.00016163
-0.00161032
8.18679e-05
0.000126347
-0.00191576
-8.68177e-05
5.86364e-05
-0.00199128
2.11547e-05
3.47342e-05
-0.000931843
1.8695e-05
-3.02781e-05
-0.00145929
3.47983e-05
-2.92195e-05
-0.00180307
-2.15308e-07
-3.13364e-05
-0.00181893
2.851e-05
-5.63225e-05
-0.00100476
0.00010762
-6.81275e-05
-0.000613356
0.000147126
-3.88662e-05
-0.00116018
-0.0010531
0.000340538
-0.0033376
-0.000263921
0.000629714
-0.00623639
-0.000908566
0.000223666
-0.0048487
0.00083072
0.00113738
-0.00601919
0.000648078
0.000528649
-0.00557851
-0.000507666
0.000127708
-0.00638535
0.000628432
0.000524154
-0.00439742
0.000859311
0.000707193
-0.00512114
0.000744031
0.000464302
-0.00461888
-0.000272862
0.000195658
-0.00584652
0.000222497
0.000511509
-0.0020561
0.000187906
0.00046408
-0.00345236
0.000330949
0.000271403
-0.00367569
0.000217724
0.000375779
0.00125267
-0.000126914
4.30985e-05
-0.00142679
4.71884e-05
0.000110147
-0.00279267
1.85637e-05
0.000129187
-0.00216375
-3.14563e-05
0.00016045
-0.00161318
5.14274e-05
0.000118188
-0.00199823
-1.86227e-05
2.73933e-05
-0.0018577
2.1694e-06
3.63179e-05
-0.000823204
-7.49927e-05
-2.79589e-05
-0.000285574
1.01293e-05
-3.202e-05
-0.00146662
3.4106e-05
-3.01678e-05
-0.00183834
1.8507e-06
-3.53184e-05
-0.00184178
3.0838e-05
-5.6461e-05
-0.00104727
0.000106109
-6.13085e-05
-0.000697023
0.000121995
-3.3434e-05
-0.00124874
-0.00155373
0.000411381
-0.00300275
-0.000822951
0.000826738
-0.00525281
-0.00128944
0.000344076
-0.0033008
0.000361872
0.000958218
-0.00670948
-0.000300418
0.000671552
-0.00573578
-0.000722674
0.000101974
-0.00473567
0.000966282
0.000963415
-0.00516985
0.000787313
0.000657563
-0.0060761
0.00040746
0.000611285
-0.00572552
-0.000592389
0.000167029
-0.00623286
0.000579066
0.000169425
-0.00359596
0.000682243
0.000551382
-0.00473595
0.000561943
0.000602499
-0.00549033
0.000223405
0.000489062
-0.00491796
-0.000292994
0.000221579
-0.00590202
0.000291343
0.000377549
-0.00185206
0.000175156
0.000574548
-0.00232316
0.000236649
0.000319844
-0.0037689
0.000134256
0.000216549
-0.00359929
0.000138419
0.000422571
0.000716151
-0.00020448
7.04984e-05
-0.00129064
-1.24295e-05
6.45652e-05
-0.00187161
1.29928e-05
0.000105384
-0.00277173
3.30617e-05
0.000126308
-0.00212857
5.24303e-06
0.000146452
-0.00164484
2.97423e-05
9.13353e-05
-0.00206107
-3.48108e-05
1.75394e-05
-0.001698
1.54372e-06
3.66788e-05
-0.000739432
-5.60952e-05
-3.14457e-05
-8.26453e-05
-7.45466e-05
-2.97195e-05
-0.000213328
4.48909e-06
-3.37507e-05
-0.00146753
2.93125e-05
-3.28498e-05
-0.00187012
2.71807e-06
-3.80082e-05
-0.00186295
3.73403e-05
-5.44173e-05
-0.0010915
8.93955e-05
-5.66295e-05
-0.000763223
0.000103496
-2.96381e-05
-0.0013226
-0.00169992
6.55046e-05
-0.00343892
-0.000982509
0.000577282
-0.00492678
-0.00153402
0.000369764
-0.00312793
-9.95134e-05
0.00110161
-0.00513963
-0.000858331
0.000652882
-0.0050037
-0.00108495
0.000315335
-0.00325386
0.000728921
0.00121458
-0.00666268
3.31102e-05
0.000815977
-0.0060997
-0.000492115
0.000658497
-0.00539272
-0.0008716
0.000140009
-0.00459647
0.00100495
0.00065383
-0.00473508
0.000658726
0.000889473
-0.00537824
0.000369592
0.000930521
-0.00620299
-0.00016074
0.000539611
-0.00571396
-0.000762074
0.000224354
-0.00598813
0.000544131
1.02374e-05
-0.00385659
0.000582799
0.000222613
-0.00367483
0.000537719
0.000626048
-0.00506057
0.000237255
0.00060728
-0.00571154
5.84676e-05
0.000488843
-0.00510527
-0.000440733
0.000247093
-0.00591286
0.000241505
0.000182275
-0.00209709
0.000298962
0.000448693
-0.00201218
0.000143711
0.000528961
-0.00264293
0.000236236
0.000175136
-0.00395848
4.25653e-05
0.000269457
-0.003459
-2.57767e-05
0.000495484
0.000282131
-0.000219714
9.57568e-05
-0.00116513
-8.94645e-05
3.64202e-05
-0.000596096
1.57225e-05
6.89481e-05
-0.00192544
4.06085e-07
0.000108591
-0.00274993
6.12185e-05
0.000117885
-0.00213191
-7.93821e-06
0.000141904
-0.00168475
1.10836e-05
7.31361e-05
-0.00209041
-6.6449e-05
4.17213e-05
-0.0015472
1.97136e-05
4.07296e-05
-0.000696379
-2.14864e-05
-2.46767e-05
0.000125596
-5.64872e-05
-3.07219e-05
-2.51556e-05
-6.93141e-05
-3.14297e-05
-0.000146334
-2.19739e-06
-3.56963e-05
-0.00146249
1.76038e-05
-3.28494e-05
-0.00189289
4.84759e-06
-3.56052e-05
-0.00188661
3.4744e-05
-5.18297e-05
-0.00113104
6.41535e-05
-5.32071e-05
-0.000803807
9.07897e-05
-2.7219e-05
-0.00138617
-0.00173948
7.00649e-05
-0.00340351
-0.00123055
0.000245019
-0.00447788
-0.0015556
4.22611e-05
-0.0034596
-0.000301725
0.00068131
-0.00492684
-0.000960481
0.000513476
-0.00496834
-0.00144697
0.000379694
-0.00314561
0.000211535
0.00124897
-0.00603855
-0.000257144
0.000974641
-0.00517113
-0.000834902
0.000595843
-0.00494142
-0.00109528
0.000293439
-0.00332362
0.000992102
0.00127632
-0.00631507
0.000238643
0.00113042
-0.00655704
-8.73904e-05
0.00095206
-0.00593628
-0.000666371
0.000564088
-0.00531117
-0.00112017
0.000232357
-0.00447073
0.000802449
0.000130997
-0.00459731
0.000762314
0.000856181
-0.0048813
0.000491004
0.000998028
-0.00539903
0.000131668
0.000787275
-0.00634506
-0.000353387
0.000514902
-0.00559265
-0.00085236
0.000240545
-0.00581705
0.000590747
0.000167108
-0.00383361
0.000643715
9.09297e-05
-0.00406966
0.000512277
0.000356345
-0.00377369
0.000378419
0.00067398
-0.00526945
1.54197e-05
0.00058708
-0.00578264
-0.000119073
0.000469888
-0.00523477
-0.000521882
0.000257896
-0.00586859
-6.51493e-05
3.34949e-05
-0.00072266
0.000374225
0.000220103
-0.002227
0.000283544
0.00045392
-0.00222027
0.000183577
0.000395745
-0.0029859
0.000118705
0.000158402
-0.00397407
2.91686e-05
0.000354544
-0.00333615
-0.000107779
0.000417332
1.8851e-06
-0.000162891
0.00012188
-0.00110441
-8.12435e-07
-1.41434e-05
-0.000647088
-9.01267e-05
4.73756e-05
-0.000540883
3.09072e-05
7.59708e-05
-0.00199304
1.97667e-05
0.000117042
-0.00277105
6.23712e-05
0.000122147
-0.00215692
-9.55464e-06
0.000135276
-0.00173249
-1.01291e-05
7.305e-05
-0.00207687
-0.000113951
6.57999e-05
-0.00139416
1.58453e-05
1.95374e-05
-0.000640972
-1.31898e-05
-5.77649e-06
0.000955796
-2.29939e-05
-2.41428e-05
0.000142011
-5.62972e-05
-3.017e-05
2.98819e-05
-5.63167e-05
-3.27807e-05
-9.29334e-05
-8.13961e-06
-3.59271e-05
-0.00145127
1.07191e-05
-3.14477e-05
-0.00190776
2.74132e-06
-3.33051e-05
-0.00190788
3.72892e-05
-5.02121e-05
-0.00117133
7.43194e-05
-5.14126e-05
-0.000853933
8.1761e-05
-2.58821e-05
-0.00144205
1.33034e-05
-0.00302593
-0.00135727
0.000132234
-0.00387234
-0.00147295
-1.79799e-06
-0.00348436
-0.000384912
0.000405578
-0.00486902
-0.00115481
0.000199028
-0.00444032
-0.0014803
2.89637e-05
-0.00345523
-4.36958e-05
0.000694553
-0.00511898
-0.000272242
0.000622517
-0.00502078
-0.000848628
0.000441333
-0.00501625
-0.00144144
0.000374587
-0.00317403
0.000428208
0.00158171
-0.00623563
0.000169584
0.00124991
-0.00624475
-0.000363659
0.000734777
-0.0050338
-0.000839127
0.000648211
-0.00512344
-0.00125313
0.000274253
-0.00346491
0.000811661
0.0013145
-0.00586711
0.000571674
0.00141822
-0.00641223
-0.00021816
0.00107058
-0.00596639
-0.000144663
0.000851554
-0.00594742
-0.000653405
0.000558578
-0.00533737
-0.00122096
0.0002519
-0.00435403
0.000957612
-9.71932e-05
-0.00511014
0.000803097
0.000636999
-0.00453751
0.0007173
0.000924518
-0.00501281
0.000420395
0.000950593
-0.00560433
-8.04343e-05
0.000647249
-0.00638156
-0.00041638
0.000557978
-0.00561278
-0.000920256
0.000282437
-0.00570111
0.000152263
0.000377141
-0.00191919
0.000733446
0.00020701
-0.00430891
0.000638595
0.000144496
-0.00421287
0.000423189
0.000503762
-0.00384309
0.000166431
0.000671623
-0.00540172
-9.25332e-05
0.00055189
-0.00574294
-0.000246746
0.000445448
-0.00528336
-0.000508263
0.000286238
-0.00580946
1.25861e-05
1.37587e-05
-0.000180562
-5.97018e-05
5.2479e-05
-0.000585461
0.000415067
0.000233426
-0.00239067
0.000305414
0.00034936
-0.00245954
0.000214486
0.000259944
-0.00323955
6.26111e-05
0.000157692
-0.00384939
2.37151e-05
0.000311897
-0.00326455
-0.000143279
0.00039131
-0.000238216
-0.000194659
0.000128311
-0.00102222
6.28893e-05
-2.86708e-05
0.000110195
-4.48439e-06
-5.85642e-06
-0.000612366
-9.24425e-05
5.60951e-05
-0.000484862
5.91654e-05
8.27829e-05
-0.00207427
3.98043e-05
0.000126845
-0.0028237
5.10854e-05
0.000135032
-0.00219704
-1.17545e-05
0.000116978
-0.00176192
-1.77454e-05
8.1662e-05
-0.0020377
-8.01487e-05
4.31382e-05
-0.0012633
1.07485e-05
2.39639e-05
-0.000593923
-3.65958e-05
-5.76897e-06
0.000851088
-1.07763e-06
-5.40138e-06
0.000938132
-2.39191e-05
-2.37246e-05
0.000159485
-5.53204e-05
-2.98179e-05
8.22394e-05
-4.70722e-05
-3.3426e-05
-4.83623e-05
-7.37162e-06
-3.74152e-05
-0.00143793
2.87345e-06
-3.33671e-05
-0.00191057
-3.74372e-06
-3.23444e-05
-0.001922
3.87259e-05
-5.01577e-05
-0.00121131
5.96222e-05
-5.13722e-05
-0.000888065
7.58303e-05
-2.48156e-05
-0.00149307
8.43602e-05
-0.00364916
-0.00148371
-2.84035e-05
-0.00298677
-0.000431735
0.000160326
-0.00451275
-0.00136468
9.24249e-05
-0.0037567
-0.00151358
-2.40332e-05
-0.00342705
-0.000272091
0.00054151
-0.00473714
-0.000457003
0.000384182
-0.00486941
-0.000956788
4.99326e-05
-0.00435312
-0.00149691
6.74423e-05
-0.0034672
8.22856e-05
0.000997461
-0.00579958
-4.14545e-05
0.000596869
-0.00488229
-0.000421768
0.000574816
-0.00509616
-0.000844571
0.000495395
-0.00513162
-0.00140252
0.00035095
-0.00337559
0.000617529
0.00169984
-0.0059605
0.000235145
0.00155465
-0.00620385
-0.000498985
0.000957249
-0.0061864
-0.000136002
0.000748246
-0.00514249
-0.000686617
0.00052293
-0.00533891
-0.0013192
0.000256555
-0.00362323
0.000759778
0.00132975
-0.00588013
0.000755071
0.00141372
-0.00581458
0.000699329
0.00123297
-0.00655666
-6.18386e-05
0.00102698
-0.00565958
-0.000369532
0.000698343
-0.00579809
-0.00066505
0.000593321
-0.00543012
-0.00131999
0.000281243
-0.00423554
0.000494868
0.000219195
-0.00580224
0.000994243
0.000239944
-0.00497388
0.000770775
0.000905862
-0.00465103
0.000590594
0.000984008
-0.00521363
0.000268849
0.000859903
-0.0059194
-0.000299274
0.000670025
-0.00628686
-0.000300338
0.000517997
-0.00579474
-0.000895774
0.000277216
-0.00559082
4.08962e-06
0.00044175
-0.0011817
0.000314228
0.000362914
-0.00244902
0.000769146
0.000101418
-0.00461991
0.000559983
0.000211112
-0.00417479
0.000346159
0.000617301
-0.00392044
3.00878e-05
0.000676949
-0.00549425
-8.0174e-05
0.000498206
-0.00569181
-0.00036528
0.00046324
-0.00523836
-0.000539181
0.000309767
-0.0057747
5.62082e-05
0.000119551
-0.000482552
7.13415e-05
4.82258e-06
-0.000208731
6.92452e-05
6.69785e-05
-0.000580701
0.000386844
0.000209656
-0.00257864
0.0003595
0.000205376
-0.00272466
0.000214981
0.000137483
-0.00338324
2.08782e-05
0.000168817
-0.00373894
-9.48514e-06
0.000361015
-0.00324252
-0.000226269
0.00040995
-0.000373736
-0.000197554
0.000156428
-0.000970341
-6.22819e-05
-1.31398e-05
0.000314549
9.58455e-05
-2.37248e-05
3.11402e-05
-8.61048e-06
3.47556e-06
-0.000575055
-9.49826e-05
6.3538e-05
-0.000425955
6.24938e-05
8.48732e-05
-0.00214186
4.02025e-05
0.000137086
-0.00287333
1.63307e-05
0.000140828
-0.00223435
-3.27804e-05
0.000113874
-0.00176509
-1.9664e-05
8.47781e-05
-0.00202095
-0.000127007
4.60616e-05
-0.00109876
1.182e-05
2.0685e-05
-0.000550598
-4.00637e-05
-4.20435e-06
0.00174834
-2.88543e-05
-6.25481e-06
0.000880796
1.03554e-05
-4.93529e-06
0.000908988
-2.42577e-05
-2.34277e-05
0.000177352
-5.52872e-05
-2.99634e-05
0.000134064
-2.69931e-05
-3.42929e-05
-2.44915e-05
-1.00763e-05
-4.01823e-05
-0.00142104
-1.54653e-06
-3.4338e-05
-0.00190703
-1.61064e-05
-3.27238e-05
-0.00192333
4.67958e-05
-5.20265e-05
-0.00125745
6.07133e-05
-5.21337e-05
-0.000921461
6.95944e-05
-2.35725e-05
-0.00153909
-0.00161167
-3.6389e-06
-0.00277509
7.35932e-05
-0.00402043
-0.00159385
9.03312e-05
-0.00353873
-0.00155503
7.90619e-06
-0.00295322
-0.000498554
0.00032544
-0.00471142
-0.000534145
0.000117494
-0.00446067
-0.00111837
0.000120481
-0.00373963
-0.0014304
-2.24619e-05
-0.00347111
-8.50657e-05
0.000731138
-0.00465385
-0.000219605
0.000490701
-0.00466551
-0.000450832
0.00025401
-0.00504442
-0.000840941
3.67943e-05
-0.00432611
-0.00136435
6.62804e-05
-0.00357166
0.000448496
0.00129835
-0.0057237
1.60188e-05
0.000823841
-0.00580742
-0.000224213
0.000541398
-0.00512365
-0.000231801
0.000642325
-0.00514729
-0.00080459
0.000432132
-0.00509483
-0.00140977
0.000214272
-0.00349929
0.000571015
0.00172996
-0.00597826
0.000589713
0.00168614
-0.00592663
0.000433685
0.00144253
-0.00642348
-0.000446742
0.000873572
-0.00592682
-0.000414169
0.000598212
-0.00517314
-0.000655747
0.000458984
-0.00555064
-0.00139572
0.000253946
-0.00380145
0.000339404
0.00150549
-0.00655819
0.000858946
0.00139558
-0.00572669
0.000682655
0.00149668
-0.00599017
0.00024574
0.00117248
-0.00635731
8.30821e-05
0.000910934
-0.00568641
-0.000466753
0.000663992
-0.00570128
-0.000531099
0.00059599
-0.00551411
-0.00122834
0.000231761
-0.00413474
0.000243392
0.000631446
-0.00533832
0.000693664
0.000224429
-0.00616616
0.000971641
0.000591944
-0.00486246
0.000693044
0.00101479
-0.00481488
0.000435517
0.00101559
-0.00545868
2.02193e-05
0.000801058
-0.00604056
-0.000312624
0.000643018
-0.00617943
-0.000555324
0.000465224
-0.00579271
-0.000862383
0.000282755
-0.00555037
-0.000160279
0.000603133
-0.00205551
5.17826e-05
0.000436861
-0.00123609
0.000517921
0.000245968
-0.00304225
0.000679263
3.74036e-05
-0.00473862
0.000513146
0.000333416
-0.00404455
0.000248524
0.000612031
-0.00388906
-3.35084e-05
0.000661998
-0.00560366
-0.000139397
0.000497259
-0.00559591
-0.000431
0.000488152
-0.00521201
-0.000517208
0.000348769
-0.00580382
-0.000156519
0.000224767
-0.000223399
7.09375e-05
0.000126074
-0.000578895
3.11448e-05
-9.27594e-06
-0.000172232
9.73404e-05
7.87308e-05
-0.000642099
0.000330485
0.000161576
-0.00280283
0.000388919
0.000113843
-0.00304974
0.0001648
0.000104631
-0.00346752
-3.18164e-06
0.000265854
-0.00367338
-5.05523e-05
0.000376026
-0.00317771
-0.00029474
0.000427114
-0.000476689
-0.00021267
0.000171088
-0.000916939
-7.81648e-05
8.15802e-06
0.000458896
-3.63972e-05
-3.60753e-06
0.000301975
0.000124006
-1.58621e-05
-6.31725e-05
-1.54331e-05
1.58274e-05
-0.000536169
-0.00010349
6.80274e-05
-0.000360907
8.43727e-05
8.26382e-05
-0.00219878
1.48869e-05
0.000137218
-0.00289468
-2.34158e-05
0.00013631
-0.00223491
-4.88004e-05
0.000124273
-0.00177189
-2.91006e-05
9.07721e-05
-0.00198976
-0.000118884
4.38497e-05
-0.000942331
7.65871e-06
1.67781e-05
-0.00050544
-4.6588e-05
2.63895e-07
0.00230705
-3.07069e-05
-5.3207e-06
0.00177811
-2.00946e-05
-4.17209e-06
0.000900128
1.76874e-05
-4.4347e-06
0.000872307
-2.40034e-05
-2.35118e-05
0.000194904
-5.59086e-05
-3.08364e-05
0.000186516
-2.0118e-05
-3.53902e-05
-9.16568e-06
-1.17588e-05
-4.26713e-05
-0.00140095
-1.08373e-05
-3.50948e-05
-0.00189383
-2.14838e-05
-3.49966e-05
-0.00191888
4.52339e-05
-5.37604e-05
-0.00130106
6.22135e-05
-4.98333e-05
-0.000957413
6.32971e-05
-2.19415e-05
-0.00158044
-0.00177179
0.000194037
-0.00236354
-0.00155319
0.000154817
-0.00314706
-0.00162214
8.3038e-05
-0.00279101
0.000151082
-0.00424456
-0.000529121
7.80381e-05
-0.00401316
-0.00110617
9.94731e-05
-0.00364249
-0.00151572
0.00014479
-0.00301269
-0.000261541
0.000457633
-0.00462577
-0.000535769
0.00033529
-0.00461305
-0.000534923
0.00012354
-0.00437964
-0.000787106
8.34053e-05
-0.00389933
-0.00129118
-5.97143e-05
-0.00348456
0.000219776
0.00102034
-0.00468787
-0.000123449
0.000578794
-0.00460248
-0.000401898
0.000465057
-0.00469887
-0.000358548
0.000191328
-0.00507221
-0.000794564
0.000105709
-0.00437556
-0.00140912
0.000113797
-0.0036861
0.0005023
0.00152605
-0.00585661
0.000226128
0.00120019
-0.00573646
7.28041e-06
0.000819476
-0.0056591
-0.000193407
0.000518819
-0.00525348
-0.000412984
0.000544481
-0.00526082
-0.000714788
0.000309259
-0.00513077
-0.00136158
0.000218828
-0.00375225
0.000329648
0.00179779
-0.00629586
0.000616483
0.00177127
-0.00582092
0.000523099
0.00166858
-0.00599313
-0.000247914
0.00126997
-0.00632623
-0.000208276
0.000878942
-0.0059162
-0.000445445
0.000505798
-0.00524126
-0.000725041
0.000445221
-0.00554797
-0.00132804
0.000255435
-0.00395718
0.000311384
0.00149106
-0.00636677
0.000381487
0.00158164
-0.00643208
0.000858452
0.00152902
-0.00564583
0.000627697
0.00149028
-0.00624262
0.000471969
0.00108805
-0.00657088
-0.00025718
0.000918105
-0.00566312
-0.000534547
0.000665775
-0.00554914
-0.000646445
0.000396218
-0.00558744
-0.00115481
0.00022741
-0.00406972
-8.57077e-05
0.000728432
-0.00414883
0.000106642
0.000573767
-0.00574252
0.000748244
0.000345083
-0.00614963
0.000907497
0.000753395
-0.0048293
0.000543389
0.0010823
-0.00491183
0.000168597
0.00101248
-0.00559018
-0.000204556
0.000783218
-0.00600972
-0.000344794
0.000613683
-0.0061225
-0.000620687
0.000436816
-0.00575708
-0.000877373
0.00035638
-0.00554658
-0.000303449
0.000744874
-0.00210149
-9.08256e-05
0.00059939
-0.00205628
6.68904e-05
0.000434883
-0.00146075
0.000502466
0.000179081
-0.00358905
0.000620012
6.57592e-05
-0.00476049
0.000507142
0.000396035
-0.00394677
0.000163801
0.00071099
-0.00393705
-7.97962e-05
0.000681663
-0.00571145
-0.000201328
0.000496736
-0.00545372
-0.000463757
0.000508216
-0.00520244
-0.000530886
0.00034567
-0.00583127
-9.0168e-05
0.000241687
-0.000882469
-0.000100767
0.000236311
-0.000269267
5.52768e-05
0.000117048
-0.00063649
6.94285e-05
-3.09234e-05
-0.000147439
0.000120841
9.08137e-05
-0.000795667
0.00028092
0.000148916
-0.00303445
0.000337797
5.60533e-05
-0.00332407
7.44602e-05
0.000106716
-0.00340626
1.57335e-05
0.00029477
-0.00365665
-0.000130428
0.000404844
-0.00305411
-0.000328301
0.000418402
-0.000514586
-0.000196566
0.000193684
-0.000906398
-5.96787e-05
4.09645e-05
0.000757488
-6.99141e-05
1.36178e-05
0.000480878
-1.52476e-05
4.19663e-06
0.000277069
0.00014943
-6.57376e-06
-0.000172514
-2.62932e-05
2.90936e-05
-0.000494945
-0.000112617
6.98406e-05
-0.000291401
6.59417e-05
7.1984e-05
-0.00221961
-2.07813e-05
0.000105606
-0.00285495
-5.25082e-05
0.000138376
-0.00220735
-6.09205e-05
0.000135058
-0.00177674
-4.53526e-05
9.50115e-05
-0.00195034
-0.000116382
4.02659e-05
-0.000787223
9.7808e-06
1.59005e-05
-0.000467825
-3.03882e-05
1.22457e-05
0.00237877
-3.7113e-05
-2.71175e-08
0.00233887
-2.15939e-05
-3.6278e-06
0.00179916
-1.19933e-05
-3.80609e-06
0.000911492
2.05716e-05
-4.32448e-06
0.000832548
-2.39747e-05
-2.41161e-05
0.000212158
-5.70632e-05
-3.22333e-05
0.000240422
-7.88906e-06
-3.66769e-05
-7.27108e-06
-3.60456e-06
-4.37577e-05
-0.00138868
-1.69905e-05
-3.66336e-05
-0.0018752
-2.75355e-05
-3.79936e-05
-0.00190711
4.0749e-05
-5.36793e-05
-0.00133796
6.50091e-05
-4.80834e-05
-0.00099628
5.71617e-05
-2.07889e-05
-0.00161682
-4.92435e-05
-0.00246741
-0.00138855
0.000156711
-0.00307098
-0.00172757
0.000106047
-0.00236416
-0.0006785
0.000297628
-0.00374005
-0.00115324
0.000258755
-0.00327571
-0.00160268
0.000110276
-0.00281434
0.000313524
-0.00430731
-0.000743105
0.000158218
-0.0041174
-0.000483131
8.09695e-05
-0.00404644
-0.0008939
0.000208688
-0.00359959
-0.00144241
0.000113182
-0.00297464
-0.000144066
0.000676706
-0.00454665
-0.000305236
0.000496996
-0.00460569
-0.00072782
0.000324779
-0.00448837
-0.000488383
6.31426e-05
-0.00422955
-0.0008656
8.31404e-05
-0.00397115
-0.00138618
-0.000178634
-0.00332887
0.000333061
0.00113628
-0.00478137
-2.66196e-05
0.000870366
-0.00472669
-0.0001275
0.000595183
-0.00459782
-0.000358706
0.000399919
-0.00474216
-0.000517892
0.000182292
-0.00504389
-0.000907897
0.000195714
-0.00426437
-0.00139906
0.000118873
-0.00376749
0.000284042
0.00166712
-0.00581875
0.000314772
0.00147402
-0.00582873
0.000212719
0.00115352
-0.00576013
-0.000281463
0.000719355
-0.00582609
-0.000220295
0.000536143
-0.00523312
-0.000546579
0.000454339
-0.00530477
-0.000790963
0.000246188
-0.00509221
-0.0013055
0.00015428
-0.00392908
0.000331878
0.00180803
-0.00643936
0.00034598
0.00182449
-0.00631358
0.000591036
0.00178487
-0.00566979
0.000476144
0.00160266
-0.00617427
0.00011579
0.00118697
-0.00627808
-0.000521715
0.000668324
-0.00581419
-0.000530481
0.000620408
-0.00542052
-0.000773104
0.000421767
-0.00558764
-0.00121537
0.000343359
-0.00423998
0.000321985
0.00123199
-0.0061748
0.000178019
0.00154693
-0.00640343
0.000496918
0.0015975
-0.00624924
0.000816041
0.00160741
-0.00567151
0.000280937
0.0014341
-0.00632622
-0.000133966
0.00108586
-0.00643607
-0.000367999
0.00087222
-0.00570612
-0.000474975
0.000563926
-0.00558667
-0.000951325
0.00041066
-0.00544006
-0.00108135
0.000200733
-0.00406648
-0.000225227
0.000780271
-0.00481116
3.32783e-05
0.000745487
-0.00444466
0.000196825
0.000547266
-0.00607463
0.000687832
0.000440265
-0.00602186
0.000792814
0.000878531
-0.00479833
0.000416661
0.00118409
-0.00499295
-5.88515e-05
0.00100386
-0.00558816
-0.000286623
0.000768167
-0.00595737
-0.000489719
0.000593796
-0.00599108
-0.000589057
0.000500388
-0.00577579
-0.000872558
0.000336443
-0.00554135
-0.000178932
0.00074062
-0.00222734
-0.000189519
0.000761397
-0.00217474
-0.000125478
0.000576013
-0.00201665
0.000131386
0.000417659
-0.00176129
0.000528791
0.000186165
-0.00411741
0.000579008
0.000193361
-0.0048559
0.000444555
0.000556247
-0.00389879
4.03516e-05
0.000833166
-0.00405445
-9.64029e-05
0.000663528
-0.0057661
-0.000293828
0.000521451
-0.00530356
-0.000545372
0.000478932
-0.00511863
-0.000473883
0.000353098
-0.00590705
-0.000117052
0.000409744
-0.00136256
-9.67289e-05
0.000284704
-0.000904047
-5.48886e-05
0.000261331
-0.000373908
7.04819e-05
9.75161e-05
-0.000685982
5.3943e-05
-3.72602e-05
-9.96016e-05
0.000118036
0.000109969
-0.000987373
0.000225789
0.000132566
-0.00327081
0.00019148
-4.39756e-06
-0.00342522
2.6455e-05
0.000166979
-0.00335744
1.79535e-05
0.000339611
-0.0036703
-0.000175061
0.000394174
-0.00290017
-0.00032454
0.000408169
-0.000520915
-0.000199252
0.000199142
-0.000896507
-0.000125309
0.000150082
0.00253438
-5.51649e-05
4.31297e-05
0.000746028
-6.7849e-05
2.02593e-05
0.00051107
1.61407e-07
8.45123e-06
0.00024989
0.000161804
3.45544e-06
-0.000288108
-3.80883e-05
4.09585e-05
-0.000451949
-0.000116366
7.03271e-05
-0.000230441
8.28118e-05
4.0353e-05
-0.00224505
1.79096e-05
0.000103305
-0.00284139
-4.35404e-05
0.000127488
-0.00217323
-6.72816e-05
0.000139687
-0.00178167
-5.66655e-05
9.85357e-05
-0.00191119
-0.000114519
4.39469e-05
-0.000635741
1.91674e-05
1.2947e-05
-0.000442777
-0.000118595
2.44524e-05
0.00203117
-1.32102e-05
1.23191e-05
0.00237963
-2.83446e-05
-1.20838e-07
0.00236371
-1.50094e-05
-3.71661e-06
0.00181408
-3.0692e-06
-3.67295e-06
0.00091391
2.14445e-05
-4.11225e-06
0.0007911
-2.41928e-05
-2.49215e-05
0.000229039
-5.80396e-05
-3.35041e-05
0.000295289
-1.0461e-05
-3.70069e-05
-3.56089e-06
-4.37401e-06
-4.44671e-05
-0.00137647
-2.05597e-05
-3.87662e-05
-0.00185387
-2.94352e-05
-3.88989e-05
-0.00189245
4.05547e-05
-5.44942e-05
-0.00137211
6.7311e-05
-4.73779e-05
-0.001037
5.21133e-05
-1.96785e-05
-0.00164925
-4.03588e-05
-0.00317774
-0.00160858
-5.07014e-05
-0.00253569
-0.000747077
0.000233878
-0.00347199
-0.00116523
0.000129067
-0.00308202
-0.00166579
0.000121501
-0.00242255
-0.000720095
0.000230217
-0.0037238
-0.000562563
0.00027473
-0.00367659
-0.00115131
0.000255018
-0.00316304
-0.00152623
7.80797e-05
-0.00280859
0.00053803
-0.00417804
-0.000609732
0.000355131
-0.00419973
-0.000839032
0.0001436
-0.00406882
-0.000479389
9.9717e-05
-0.00394647
-0.00104291
8.35857e-05
-0.00339269
-0.00147542
0.000108562
-0.00299396
-2.90476e-05
0.000844189
-0.00459403
-0.000159159
0.000664061
-0.00458118
-0.000419887
0.000489023
-0.00447754
-0.000799218
0.000350056
-0.00433477
-0.000621533
6.24062e-05
-0.00410517
-0.00115613
-9.18139e-05
-0.00380974
-0.00144849
-8.73017e-06
-0.00327071
8.10326e-05
0.00119399
-0.00492185
0.000107799
0.0011113
-0.00481533
-5.6944e-05
0.00094139
-0.00480324
-0.000195215
0.000418505
-0.00470266
-0.000347275
0.000387018
-0.00481991
-0.000705779
0.000222284
-0.00491126
-0.000908848
0.00019406
-0.00422167
-0.00142626
7.35123e-05
-0.00372025
0.000358544
0.00164033
-0.00579273
0.000331128
0.00158062
-0.0059105
0.000298891
0.00140195
-0.00578502
7.63043e-05
0.001114
-0.00575493
-0.000261418
0.000720577
-0.00563331
-0.000420397
0.000480573
-0.00536067
-0.000634334
0.000400981
-0.00535571
-0.00103455
0.000222186
-0.00489867
-0.00121397
9.66331e-05
-0.00402711
0.000182468
0.00178382
-0.00643102
0.000191125
0.00180674
-0.00643471
0.000336462
0.00179073
-0.00615899
0.000597266
0.00176411
-0.00561247
6.8503e-05
0.00144112
-0.00621598
-0.000451363
0.000982218
-0.00627458
-0.000443452
0.00077245
-0.00589078
-0.000570049
0.000673069
-0.00557675
-0.00108859
0.0005675
-0.00567452
-0.00111146
0.000182283
-0.00439215
4.56264e-05
0.00103819
-0.00642386
0.000257952
0.00120815
-0.00606069
0.000117043
0.00161522
-0.00634137
0.00056338
0.00165503
-0.0061724
0.00073127
0.00160481
-0.00578067
0.000125339
0.00135504
-0.00630409
-0.000210139
0.00103658
-0.00644914
-0.00046704
0.000811171
-0.00577295
-0.000631827
0.000626265
-0.00566017
-0.000751777
0.000414922
-0.00549152
-0.00109174
0.000226263
-0.00407356
-0.000227394
0.000843322
-0.00497792
-0.000113912
0.000773066
-0.00491434
-4.95706e-08
0.000673953
-0.00469678
0.000213617
0.000501746
-0.00621835
0.000601152
0.000519206
-0.0057349
0.000603398
0.0010417
-0.00468034
0.00022281
0.00123186
-0.00499921
-0.000204615
0.00101553
-0.00559056
-0.000306447
0.000760752
-0.00591429
-0.000453786
0.000575785
-0.00590652
-0.000634859
0.00046835
-0.00581821
-0.000865754
0.000361211
-0.00551069
-0.000373742
0.000809624
-0.0034269
-0.000171639
0.000795127
-0.00218616
-0.000188972
0.000742692
-0.00220734
-9.5077e-05
0.000553427
-0.00198686
0.000199398
0.000408337
-0.00212891
0.000497768
0.000215906
-0.00451969
0.000493391
0.000297228
-0.00486449
0.000192039
0.000688554
-0.00375474
1.51152e-05
0.000840354
-0.00421994
-0.000155122
0.00066477
-0.00573635
-0.00033572
0.000513897
-0.00517786
-0.000528213
0.000475672
-0.00503753
-0.000492891
0.000375647
-0.00598906
-0.000319954
0.000452058
-0.00304582
-0.000114549
0.000465112
-0.00148358
-0.00012666
0.000326536
-0.000910442
-3.78196e-05
0.000284486
-0.000522897
9.43025e-05
9.17996e-05
-0.00074754
5.33534e-05
-2.97753e-05
-5.12993e-05
0.000109527
0.000133658
-0.00121436
0.000189824
0.000113859
-0.00349608
0.000161527
5.076e-05
-0.00345262
4.9338e-05
0.00018031
-0.00329101
-1.54168e-05
0.000329985
-0.00365797
-0.000189932
0.000389418
-0.00274815
-0.000302792
0.000395281
-0.000528782
-0.000119554
0.000212212
-0.000969998
-0.000309587
0.000201036
-0.000729858
-0.000111111
0.000157257
0.00251816
-6.10325e-05
4.5564e-05
0.000753411
-4.94419e-05
2.47075e-05
0.000529247
1.68597e-05
8.6005e-06
0.000224816
0.000160768
9.63984e-06
-0.000396113
-5.38911e-05
5.22041e-05
-0.000404128
-0.000119267
6.8806e-05
-0.000197666
7.41776e-05
3.62662e-05
-0.00226265
2.49481e-05
7.0286e-05
-0.00281351
-4.15798e-05
0.00010969
-0.00212221
-7.2789e-05
0.000129909
-0.00176969
-4.04337e-05
9.80995e-05
-0.00188436
-0.000104102
4.28473e-05
-0.000494228
2.43608e-05
1.02024e-05
-0.000425227
-0.000106986
1.62858e-05
-5.30417e-05
-0.000109959
2.46118e-05
0.00212884
-4.66436e-06
1.23877e-05
0.00237179
-1.91015e-05
-3.71338e-07
0.00237946
-4.65831e-07
-3.40355e-06
0.00181428
5.70691e-06
-4.19914e-06
0.00090829
2.12905e-05
-3.60925e-06
0.000748497
-2.50151e-05
-2.61463e-05
0.000246697
-5.9274e-05
-3.39068e-05
0.000351463
-5.59535e-06
-3.81772e-05
-4.25542e-06
-9.62828e-06
-4.48775e-05
-0.00136073
-2.66e-05
-3.97794e-05
-0.00182639
-3.43187e-05
-3.88559e-05
-0.00187377
4.10428e-05
-5.873e-05
-0.0014018
6.74176e-05
-4.50184e-05
-0.00107908
4.68415e-05
-2.06447e-05
-0.00167545
-0.00162504
-2.19252e-06
-0.00242997
2.02474e-05
-0.0034079
-0.00105023
-6.65425e-05
-0.00327689
-0.00156427
-6.7537e-05
-0.00256967
-0.000867507
0.000350609
-0.00356892
-0.000638146
0.000246565
-0.0035139
-0.000954032
0.000100528
-0.00325832
-0.0016091
0.000160887
-0.00250057
-0.00083077
0.000319263
-0.00392682
-0.00077709