/*--------------------------------*- C++ -*----------------------------------*\
  =========                 |
  \\      /  F ield         | OpenFOAM: The Open Source CFD Toolbox
   \\    /   O peration     | Website:  https://openfoam.org
    \\  /    A nd           | Version:  7
     \\/     M anipulation  |
\*---------------------------------------------------------------------------*/
FoamFile
{
    version     2.0;
    format      ascii;
    class       volVectorField;
    location    "3";
    object      U;
}
// * * * * * * * * * * * * * * * * * * * * * * * * * * * * * * * * * * * * * //

dimensions      [0 1 -1 0 0 0 0];

internalField   nonuniform List<vector> 
18750
(
(3.49727 0.110837 -1.21418)
(1.96034 0.919759 -0.0713061)
(1.46649 0.167804 -2.11999)
(3.47318 -0.00258978 -0.985548)
(0.240795 1.80758 -0.720402)
(0.541691 1.66001 0.0743313)
(1.79415 0.73866 0.113899)
(0.322433 0.538402 -1.5774)
(1.7506 0.0920425 -2.0207)
(3.26013 -0.0741024 -0.770669)
(-0.689865 3.96286 0.0376008)
(0.114808 4.0056 0.191435)
(-0.0497265 1.53195 -1.07835)
(0.665908 1.0791 0.415334)
(-0.375485 1.69937 0.163352)
(1.51873 0.591766 0.210213)
(0.544418 1.17057 -0.75757)
(0.468213 0.551204 -1.57602)
(1.89756 0.000678844 -1.89887)
(2.94708 -0.107258 -0.584831)
(0.0378661 4.34098 -0.701635)
(3.50435 1.845 1.82596)
(-0.28348 3.972 -0.193174)
(0.750785 2.05615 2.24675)
(-0.105298 0.368792 0.121901)
(-0.227582 1.37177 -0.704029)
(-0.637721 1.14589 1.03777)
(0.529015 1.12225 0.455591)
(-0.646131 1.63739 0.250367)
(1.21322 0.481236 0.265207)
(0.497565 1.16973 -0.574087)
(0.578829 1.15788 -0.766033)
(0.611541 0.541318 -1.53776)
(1.98125 -0.114714 -1.69205)
(2.59332 -0.101529 -0.440985)
(-0.676716 3.51524 -0.117921)
(2.69339 3.66748 1.84351)
(-0.40428 4.47906 -0.386181)
(2.2363 2.75806 2.08348)
(3.61953 1.97359 1.44453)
(0.140244 3.9965 0.005604)
(0.254442 2.06174 1.5667)
(1.0213 2.17732 2.4001)
(-0.473355 -2.81599 0.402138)
(-0.38052 1.20012 -0.802131)
(0.440193 1.48802 1.13033)
(-0.59163 1.16939 1.13927)
(0.244015 1.27318 0.569413)
(-0.494504 1.52194 0.276684)
(0.948265 0.412249 0.258629)
(0.335397 0.957643 -0.686463)
(0.547359 1.16384 -0.559059)
(0.612927 1.14123 -0.775134)
(0.736028 0.512445 -1.47914)
(1.97706 -0.200883 -1.49928)
(2.24388 -0.0623948 -0.352074)
(-1.09649 2.30756 0.147381)
(0.500103 4.4102 0.823267)
(-0.955785 3.30142 -0.168323)
(2.39787 3.7265 2.62075)
(2.73191 3.59141 1.50011)
(-0.201278 4.49243 -0.184929)
(1.251 2.82777 2.37952)
(2.14431 3.08574 1.87379)
(2.42886 2.72086 1.24031)
(0.343724 3.92857 0.105899)
(0.0978942 1.34205 2.2649)
(0.476115 2.17367 1.43071)
(1.22178 2.32824 1.90824)
(0.00826617 -0.595382 0.647305)
(-0.308388 1.19202 -0.464755)
(0.0726181 1.89043 0.675349)
(0.448184 1.45531 1.17844)
(-0.470982 1.19751 1.16522)
(0.184983 1.32388 0.481324)
(0.167555 1.31679 0.244072)
(0.767311 0.326062 0.238343)
(-0.806263 0.223983 -0.622485)
(0.341875 0.954706 -0.688397)
(0.623001 1.15032 -0.633744)
(0.702044 1.10562 -0.877186)
(0.845223 0.46664 -1.40066)
(1.90643 -0.249323 -1.29593)
(1.94151 -0.00401135 -0.279716)
(-2.02666 2.09835 0.376035)
(-1.06561 3.62357 0.851111)
(-1.56883 2.35169 0.221534)
(1.38238 4.55427 1.4486)
(0.637256 3.87374 1.03283)
(-0.634702 3.40723 -0.369147)
(2.24821 3.39276 2.40532)
(3.02733 3.97025 0.665424)
(2.44974 3.33585 0.79973)
(0.165254 4.3796 -0.0321544)
(1.50607 2.32955 0.704764)
(1.33558 3.02076 2.3873)
(1.96932 3.40683 1.3825)
(1.72718 3.0421 1.11805)
(0.813036 3.94327 0.295623)
(0.531186 1.17415 2.03246)
(0.00825714 1.48251 2.31765)
(1.00227 2.41717 0.427688)
(1.17514 2.29944 2.12785)
(-0.0825535 -0.83914 0.959602)
(-0.338474 1.04235 -0.690375)
(-0.710716 1.25612 0.746401)
(0.0681233 1.87709 0.633639)
(0.538401 1.36982 1.13724)
(-0.336309 1.23761 1.15132)
(0.261341 1.36363 0.0362732)
(0.276544 1.1861 0.290185)
(0.668068 0.257957 0.182416)
(-0.540498 0.0879228 -0.478553)
(-0.792487 0.229842 -0.704287)
(0.380207 0.949492 -0.690084)
(0.623496 1.15255 -0.694467)
(0.738501 1.08381 -0.935151)
(0.972573 0.404704 -1.33235)
(1.76237 -0.269848 -1.1475)
(1.70356 0.0570026 -0.235467)
(-1.94526 2.3487 -0.0242519)
(-1.2067 3.3013 0.634297)
(-1.86197 2.26272 0.432126)
(0.12177 3.50484 1.77395)
(-0.976032 3.52955 0.824582)
(-0.894929 2.37666 0.239198)
(2.14066 4.195 2.10977)
(0.990812 4.12501 1.44346)
(0.206621 3.64296 0.7786)
(-0.925718 3.45828 -0.246372)
(1.7218 3.00403 1.97376)
(2.84887 3.26354 2.23831)
(1.92263 3.79475 1.84593)
(0.959591 3.84544 0.900227)
(0.0770039 4.26081 0.0594981)
(1.57531 2.53495 0.31937)
(1.56048 2.29557 0.89356)
(1.61786 3.10428 2.22698)
(1.03333 3.691 1.73084)
(1.48213 3.07026 1.1227)
(0.527702 4.16527 0.428074)
(0.894612 1.34511 1.22529)
(0.40898 1.28333 2.46108)
(0.340316 1.69683 1.88287)
(1.38579 2.41744 -0.0307046)
(1.12084 2.18513 2.22384)
(-0.260123 -0.28186 1.41217)
(-0.182416 0.96996 -0.471241)
(-0.644095 0.434472 0.23463)
(-0.599462 1.34655 0.767195)
(0.0633594 1.87487 0.638431)
(0.572581 1.34992 0.94846)
(-0.218843 1.24991 1.16082)
(0.388049 1.36972 -0.041122)
(0.103069 1.13142 0.355195)
(0.651464 0.177024 0.0975774)
(-0.326555 -0.059642 -0.851336)
(-0.531647 0.0856171 -0.475915)
(-0.774095 0.237196 -0.776528)
(0.358411 0.925911 -0.721695)
(0.609198 1.15053 -0.656948)
(0.720794 1.08203 -0.891908)
(1.00691 0.367373 -1.30626)
(1.59967 -0.267645 -1.04377)
(1.53845 0.104524 -0.225863)
(-1.72119 2.26145 -0.125257)
(-1.11167 3.05598 0.160696)
(-1.71532 2.48731 0.0555282)
(-0.284812 3.22636 0.944869)
(-0.947434 3.39737 0.516622)
(-1.64952 2.40533 0.519303)
(0.666368 4.0893 1.52597)
(-0.191304 3.47416 1.25874)
(-0.827791 3.46879 0.72202)
(-0.808615 2.45016 0.200831)
(2.69406 3.99026 2.12351)
(0.587117 4.70339 1.54162)
(0.778716 3.90601 1.56997)
(-0.123776 3.72206 0.83565)
(-1.15029 3.48654 -0.191602)
(1.62288 3.07824 1.21863)
(2.07388 3.04798 1.842)
(2.14674 3.28293 2.48747)
(1.74197 3.9215 1.4439)
(0.816832 3.67176 1.0504)
(0.144681 4.19857 0.110709)
(0.941754 2.42267 -0.169195)
(1.96594 2.43053 0.470675)
(1.33668 2.32009 1.50261)
(1.4936 3.24425 2.00937)
(0.997368 3.78465 1.66623)
(1.06603 3.33928 1.15312)
(0.602175 4.13873 0.497956)
(-0.107867 0.535846 0.374859)
(1.26665 1.33502 1.35402)
(0.531041 1.35312 2.46131)
(0.842647 1.81032 1.34646)
(1.34162 2.41125 0.368829)
(0.952512 1.89835 2.38633)
(-0.273177 0.0244092 1.44647)
(0.0912087 0.85004 -0.0585287)
(-0.0565122 0.439902 0.266012)
(-0.645558 0.438116 0.284308)
(-0.376329 1.39798 0.821406)
(0.120375 1.86377 0.74551)
(0.50909 1.36869 0.899415)
(0.0811712 1.2219 1.04994)
(0.379703 1.37135 0.229564)
(-0.229742 1.07169 0.519182)
(0.675235 0.0990946 0.0113594)
(-0.491365 -0.603578 -0.191371)
(-0.308105 -0.0501568 -0.829004)
(-0.520323 0.0828665 -0.477581)
(-0.751194 0.24782 -0.829276)
(0.348063 0.910467 -0.716108)
(0.653335 1.13719 -0.583461)
(0.732973 1.07082 -0.84316)
(1.05465 0.317085 -1.25869)
(1.4522 -0.263272 -0.967349)
(1.4336 0.133648 -0.241206)
(-1.66506 1.992 -0.0932891)
(-1.49862 2.65021 0.256774)
(-1.294 2.49336 -0.228698)
(-0.268059 3.20358 0.419624)
(-0.887908 3.07204 0.0410437)
(-1.39186 2.59726 0.144521)
(0.193008 3.41439 0.853689)
(0.0312698 3.35622 0.857017)
(-0.553177 3.50864 0.463208)
(-1.45571 2.49711 0.550121)
(1.13611 4.05843 2.37215)
(0.724139 4.04137 1.55666)
(0.0890273 3.35538 1.21654)
(-0.604882 3.53151 0.716693)
(-1.05915 2.68366 0.198843)
(1.81987 3.80763 2.63752)
(1.70546 4.07677 2.50731)
(1.08814 3.86356 2.00174)
(0.499827 3.94918 1.18644)
(-0.206971 3.80974 1.10643)
(-1.13495 3.63835 -0.222515)
(2.3084 3.31911 -0.432744)
(2.00648 2.79608 2.18811)
(2.27336 2.94865 2.07585)
(1.856 3.35115 2.0933)
(1.42211 4.14088 1.25636)
(0.875296 3.68068 1.0628)
(0.259611 4.1557 0.155331)
(-0.338869 1.17243 1.15509)
(1.65843 2.60979 0.157392)
(2.01556 2.51652 0.697631)
(1.44547 2.28995 1.90675)
(1.18994 3.46018 1.91961)
(1.35314 3.64329 1.50202)
(0.844132 3.56228 1.14971)
(0.991504 3.99067 0.562784)
(0.0899595 0.122123 -0.0596108)
(-0.0614671 0.426984 0.553008)
(1.39865 1.32742 1.32286)
(1.017 1.40211 1.86384)
(1.16422 1.85353 0.926985)
(1.22912 2.32888 0.881473)
(1.02138 2.00953 1.79871)
(-0.300612 0.207072 1.25218)
(0.00763376 0.80642 -0.0474209)
(0.414463 -0.108805 -0.471367)
(-0.111641 0.430408 0.371948)
(-0.640983 0.445261 0.335919)
(0.0570269 1.41459 0.861837)
(0.245282 1.89887 0.878048)
(0.485779 1.40251 0.924025)
(0.241188 1.2168 0.8369)
(0.513525 1.2852 0.378112)
(0.434203 0.886609 0.308851)
(0.687088 0.0217261 -0.0382718)
(-0.512068 -0.544323 -0.0325932)
(-0.467707 -0.564707 -0.193313)
(-0.290398 -0.0441195 -0.809962)
(-0.505885 0.07753 -0.482461)
(-0.70983 0.2588 -0.854333)
(0.412926 0.886947 -0.789456)
(0.658683 1.13177 -0.577979)
(0.771812 1.06308 -0.834879)
(1.07751 0.269847 -1.2963)
(1.35374 -0.263985 -0.912388)
(1.36051 0.154653 -0.263733)
(-1.09807 2.49698 0.115718)
(-1.24514 2.21632 -0.0681172)
(-0.38605 2.99596 0.0314771)
(-1.15199 2.66142 0.22208)
(-1.14631 2.4883 -0.343424)
(-0.0738827 3.16543 0.546599)
(-0.0674847 3.23642 0.392694)
(-0.505102 3.01841 -0.0678771)
(-1.28624 2.65542 0.139392)
(0.350661 3.83998 1.01315)
(0.348293 3.20679 0.85622)
(-0.115253 3.39967 0.745207)
(-0.341135 3.55881 0.410102)
(-1.25914 2.65778 0.584127)
(1.26389 3.86696 2.58134)
(1.02855 4.08936 2.36888)
(-0.514518 4.29216 0.987319)
(0.65133 3.38702 1.33615)
(0.133456 3.73482 0.651111)
(-0.975509 2.93138 0.226764)
(1.86896 3.83905 2.14666)
(1.84895 3.61716 2.83707)
(1.80864 4.11005 1.88629)
(1.51642 3.50046 1.98262)
(0.542151 3.94354 0.974146)
(0.0513355 3.78877 1.20617)
(-1.11201 3.63728 -0.159953)
(1.41447 3.71583 0.00809559)
(2.68927 3.07759 0.922719)
(2.27698 2.70764 2.26394)
(2.07483 3.04316 2.19013)
(1.68525 3.54758 1.74271)
(1.05882 4.09628 1.47656)
(1.08949 3.79232 1.14604)
(0.372297 4.10258 0.102431)
(-0.00610186 0.757167 1.1402)
(-0.179433 1.44018 1.02818)
(2.02878 2.7326 0.2365)
(1.96085 2.3915 1.20796)
(1.59043 2.2786 1.96896)
(1.35006 3.41803 1.84807)
(1.61801 3.51832 1.41842)
(0.940135 3.58096 1.23529)
(1.09198 3.93971 0.590744)
(0.179343 0.287103 0.160598)
(0.16677 0.109837 -0.0630285)
(-0.0539176 0.398663 0.653079)
(1.45067 1.35167 0.948182)
(1.38733 1.42013 1.1907)
(1.35963 1.91707 0.446234)
(1.2248 2.25903 0.986386)
(0.992351 1.99043 1.84646)
(-0.563866 0.530967 1.28929)
(-0.020236 0.864682 0.00404964)
(-0.194165 -0.20478 0.111457)
(0.645343 -0.108554 -0.459453)
(-0.153799 0.427465 0.444111)
(-0.628852 0.453963 0.38852)
(0.33903 1.36821 0.867608)
(0.399258 1.92283 1.02511)
(0.494983 1.43727 0.900286)
(0.193446 1.24884 0.862369)
(0.679375 1.19932 0.236897)
(0.195172 0.783235 0.432163)
(0.697042 -0.10461 -0.123477)
(-0.443065 -1.14365 -0.226987)
(-0.480606 -0.541834 -0.0186191)
(-0.442009 -0.525598 -0.196052)
(-0.273743 -0.0407297 -0.796465)
(-0.488168 0.0705397 -0.494774)
(-0.635826 0.265062 -0.880817)
(0.41866 0.881589 -0.886852)
(0.733244 1.10484 -0.540606)
(0.782467 1.0444 -0.82261)
(1.17389 0.166492 -1.38017)
(1.31744 -0.304066 -0.853482)
(1.30209 0.177074 -0.291781)
(-1.12511 1.95747 0.124772)
(-0.332367 2.63693 0.0480658)
(-1.11889 2.42265 0.0261746)
(-1.26419 2.13176 -0.0353177)
(-0.312089 3.12659 0.283564)
(-0.337924 3.009 -0.0294234)
(-0.788218 2.58665 0.299994)
(-0.934322 2.55701 -0.398571)
(0.049384 3.08559 0.691012)
(0.133143 3.08921 0.510202)
(0.183065 3.29532 0.153833)
(-0.289138 3.01397 0.0383632)
(-1.00973 2.78971 0.0482105)
(0.717287 3.70899 1.6169)
(0.44537 3.79008 0.697928)
(0.281281 3.337 0.794228)
(0.465272 3.41169 0.948218)
(-0.0637632 3.52611 0.347756)
(-1.06204 2.89543 0.375439)
(1.06782 3.9728 2.6756)
(1.47607 3.77504 2.51449)
(1.94178 3.88126 2.00673)
(0.0118265 4.05133 0.950464)
(0.302011 3.46834 1.01783)
(0.354308 3.79342 0.560231)
(-0.917431 3.16416 0.345831)
(0.934159 4.29755 2.72561)
(2.15669 3.63169 2.38258)
(1.89846 3.66291 2.70848)
(1.96972 3.91422 1.74452)
(1.55812 3.53495 1.63494)
(0.526735 3.95896 0.990773)
(0.851212 3.77148 1.1764)
(-0.675245 3.53036 0.02975)
(0.244275 3.33753 1.05692)
(2.40599 3.79651 0.389872)
(2.82415 2.76226 1.92794)
(2.29462 2.68211 2.42372)
(1.94833 3.12719 2.1654)
(1.44336 3.81702 1.62521)
(1.34541 3.98369 1.25974)
(0.922333 3.97391 1.12425)
(0.581729 4.05455 0.0797525)
(0.232321 1.37171 1.40767)
(0.340615 0.752102 1.15851)
(0.974166 1.81289 0.277755)
(2.08102 2.71799 0.23532)
(2.1842 2.17221 1.71471)
(1.6854 2.19601 2.06906)
(1.46341 3.46014 1.66678)
(1.74145 3.37578 1.50966)
(0.929274 3.56443 1.3119)
(1.46899 3.8317 0.597203)
(-0.490606 0.156398 0.900449)
(0.278171 0.32104 0.0955051)
(0.216497 0.105045 -0.0281757)
(-0.0510382 0.431766 0.759836)
(1.384 1.48178 0.416085)
(1.50279 1.54488 0.668238)
(1.21713 2.00749 0.509899)
(1.23285 2.12574 1.42307)
(0.959689 1.95528 1.97296)
(-0.704575 0.847005 1.46455)
(-0.0395703 0.864635 0.0342225)
(-0.435582 -0.274148 -0.317474)
(-0.118519 -0.200157 0.163217)
(0.842202 -0.125613 -0.396824)
(-0.181342 0.423628 0.497613)
(-0.662132 0.467136 0.408086)
(0.852856 1.25978 0.855795)
(0.511819 1.90845 1.09196)
(0.499737 1.45746 0.879921)
(0.100639 1.35005 1.03118)
(0.799023 1.08602 0.162632)
(0.292075 0.60621 0.465635)
(0.701174 -0.166783 -0.155719)
(-0.560783 -1.50117 0.0810901)
(-0.455689 -1.13237 -0.259563)
(-0.454006 -0.530392 -0.00260144)
(-0.416957 -0.485604 -0.197731)
(-0.250564 -0.0420766 -0.797095)
(-0.471182 0.0608043 -0.518192)
(-0.575216 0.272397 -0.909832)
(0.420853 0.845165 -0.943241)
(0.769112 1.06252 -0.62344)
(0.833081 0.988388 -0.820994)
(1.18542 0.180601 -1.4494)
(1.31518 -0.365261 -0.778686)
(1.24621 0.196025 -0.323466)
(-1.32445 1.7073 0.0990201)
(-1.40624 2.00738 -0.123069)
(-0.968075 2.04162 0.0942955)
(-0.509879 2.82006 0.0830421)
(-0.210433 2.67292 0.12525)
(-0.673838 2.51122 0.0606746)
(-1.01302 2.2929 0.022916)
(-0.0473825 3.0358 0.40099)
(-0.0187872 3.07998 0.271485)
(-0.130675 2.98485 -0.054107)
(-0.381373 2.69183 0.34741)
(-0.552981 2.61933 -0.443536)
(0.566029 2.99325 1.05367)
(0.251704 3.02002 0.612288)
(0.202329 3.07164 0.462424)
(0.505336 3.32376 0.0388813)
(-0.100663 3.06901 0.114188)
(-0.812271 2.84772 -0.0582777)
(0.803468 3.76949 1.87009)
(0.940331 3.69957 1.48761)
(0.580348 3.70877 0.692467)
(0.485064 3.42193 0.810864)
(0.440132 3.47765 0.743157)
(0.33406 3.5981 0.18278)
(-0.850144 3.03424 0.361666)
(0.558586 4.07051 2.75301)
(1.65243 3.72861 2.70651)
(1.68612 3.71892 2.49024)
(0.653928 4.23335 1.74943)
(0.906891 3.92302 0.796883)
(0.571341 3.48973 0.91026)
(0.554 3.72142 0.503132)
(-0.62748 3.31652 0.422717)
(0.988871 4.08349 2.94335)
(1.3952 4.14663 2.76252)
(2.24383 3.38404 2.84218)
(1.96354 3.71475 2.65021)
(1.91773 3.91923 1.68423)
(1.30537 3.50695 1.54475)
(0.66628 3.72984 1.01836)
(0.513087 3.97931 0.781858)
(-0.33945 3.47531 -0.00254609)
(-0.989689 2.76931 1.69056)
(0.401282 3.66653 0.755819)
(2.58092 3.70814 0.797615)
(2.70451 2.63441 2.22842)
(2.17682 2.71758 2.57849)
(1.77604 3.28787 2.10022)
(1.53787 3.73728 1.66295)
(1.35085 3.98587 1.07946)
(1.07234 3.87982 1.17176)
(0.796937 4.0347 0.106974)
(-0.581113 1.41247 2.1146)
(0.338078 1.29825 1.39519)
(0.0996488 0.865511 1.19888)
(1.34465 1.98142 -0.0379536)
(2.09511 2.6447 0.396429)
(2.55016 1.93166 1.573)
(1.7437 2.09207 2.24949)
(1.71003 3.40242 1.58801)
(1.73404 3.26598 1.60888)
(1.00874 3.60954 1.4987)
(1.65636 3.76525 0.58772)
(-0.379548 0.598745 0.907758)
(-0.29072 0.196548 1.01798)
(0.386942 0.354611 -0.0677406)
(0.204288 0.0574437 -0.0271315)
(-0.0498432 0.511016 0.878842)
(1.27693 1.57871 0.200381)
(1.39399 1.70811 0.431811)
(1.05166 2.04488 0.952335)
(1.46111 2.0121 1.46205)
(0.846606 1.93825 1.98001)
(-0.703957 0.980513 1.54481)
(-0.0901286 0.864658 0.177568)
(-0.437134 -0.482637 0.463314)
(-0.321517 -0.283223 -0.223238)
(0.00316843 -0.195591 0.204753)
(0.946293 -0.140366 -0.283298)
(-0.203704 0.421206 0.543336)
(-0.714077 0.494236 0.389975)
(1.00744 1.16894 0.760665)
(0.663974 1.85763 1.04054)
(0.428326 1.50294 0.864301)
(0.0759487 1.41654 1.19701)
(0.849087 1.01544 0.10177)
(0.316555 0.477502 0.440848)
(0.66554 -0.252327 -0.187215)
(-0.171999 -1.55954 -0.0480321)
(-0.552046 -1.49781 0.0658795)
(-0.424957 -1.1496 -0.205314)
(-0.427525 -0.518321 0.0124702)
(-0.389713 -0.447401 -0.200957)
(-0.228175 -0.0472715 -0.816286)
(-0.45783 0.0476502 -0.544419)
(-0.527272 0.287706 -0.948618)
(0.420798 0.837903 -0.942098)
(0.794568 1.03043 -0.729992)
(0.804274 1.00835 -0.837516)
(1.14749 0.142971 -1.42902)
(1.32024 -0.440539 -0.68444)
(1.18439 0.21644 -0.360583)
(-1.14821 1.72553 -0.049249)
(-0.917562 2.10206 0.184552)
(-1.25877 1.75972 0.0939668)
(-0.289836 2.47972 0.372842)
(-0.536048 2.3802 0.068895)
(-0.870354 2.08029 0.10118)
(-0.300884 2.83496 0.20456)
(-0.512365 2.7622 0.0391579)
(-0.0655859 2.70997 0.112728)
(-0.0416614 2.53891 0.271339)
(-0.809878 2.31266 0.110203)
(0.0777621 2.94217 0.582372)
(0.068646 3.02816 0.436105)
(-0.126677 3.04605 0.300868)
(0.118781 2.8572 -0.159683)
(-0.0582944 2.81318 0.308844)
(-0.559646 2.61989 -0.181135)
(0.599778 3.04381 1.28806)
(0.277963 3.07135 0.782612)
(0.49435 2.94161 0.613436)
(0.518992 3.08914 0.442768)
(0.503234 3.37577 0.121387)
(0.186613 2.98705 0.35355)
(-0.42327 3.00807 -0.221906)
(0.594545 3.73825 2.18063)
(0.903546 3.72238 1.78531)
(1.05085 3.65481 1.45434)
(0.356899 3.7934 0.568623)
(0.669777 3.39846 0.772592)
(0.609835 3.54905 0.609684)
(0.260378 3.63256 0.208276)
(-0.405452 3.15865 0.274052)
(0.331806 4.1427 2.80086)
(0.844313 4.10888 2.86416)
(1.92139 3.38686 2.7517)
(1.9567 3.60888 2.27916)
(2.09599 3.66648 1.89512)
(0.396259 3.90023 0.665255)
(0.658884 3.60297 0.878014)
(1.04132 3.82481 0.419067)
(-0.290653 3.32077 0.299076)
(0.947865 3.97749 2.54836)
(0.839956 4.10068 3.18435)
(1.90898 3.91603 2.8063)
(2.50523 3.15602 2.93436)
(1.9528 3.78976 2.42957)
(1.53516 3.94016 1.85866)
(0.811548 3.75509 1.47564)
(1.00655 3.72649 0.777385)
(0.579591 3.96861 0.822359)
(-0.194125 3.45294 -0.194389)
(-0.782591 3.14533 1.58897)
(-0.476226 2.84623 1.72909)
(1.08166 3.85189 0.924842)
(2.53191 3.54021 1.2194)
(2.77322 2.49212 2.38756)
(2.12776 2.7069 2.60041)
(1.63946 3.36354 2.03707)
(1.5955 3.68825 1.69079)
(1.39522 3.87811 0.978782)
(1.37244 3.71977 1.50209)
(1.05792 3.95893 0.179001)
(-0.181261 1.49863 2.18587)
(-0.27127 1.41995 2.04679)
(0.233106 1.32886 1.38339)
(0.47612 0.986977 1.13315)
(1.75915 2.15334 0.00828338)
(2.23931 2.5371 1.01881)
(2.50289 1.67515 2.07845)
(1.66032 2.13204 2.44194)
(2.00859 3.34304 1.50176)
(1.57982 3.28817 1.56214)
(1.11852 3.61 1.4742)
(2.10047 3.57119 0.595145)
(-0.183084 0.891675 1.18975)
(-0.421116 0.613666 0.893589)
(-0.183574 0.237592 1.09933)
(0.578108 0.322294 -0.264138)
(0.138416 0.046768 -0.0349216)
(0.0102344 0.635623 1.02333)
(1.1483 1.802 -0.0706956)
(1.24318 1.96915 0.0743091)
(1.11934 1.99369 1.15914)
(1.56529 1.90201 1.66989)
(0.761287 1.9348 1.87496)
(-0.734476 1.05819 1.58198)
(0.033534 0.920007 0.215403)
(-0.76369 -1.60648 0.0895138)
(-0.402303 -0.455479 0.453007)
(-0.247584 -0.285172 -0.150951)
(0.104789 -0.205586 0.214667)
(0.945524 -0.121351 -0.143725)
(-0.234687 0.425295 0.596104)
(-0.78327 0.536794 0.346812)
(1.39197 0.956248 0.300569)
(1.06727 1.60217 1.06675)
(0.435665 1.51632 0.853148)
(0.173177 1.42503 1.31913)
(0.894023 0.947179 0.0943791)
(0.309076 0.326773 0.458012)
(0.655311 -0.322134 -0.215631)
(-1.0433 -1.29077 0.565688)
(-0.117079 -1.56991 -0.0496715)
(-0.540074 -1.49138 0.0562647)
(-0.547258 -1.10032 -0.188006)
(-0.390705 -0.51229 0.0160478)
(-0.356726 -0.415019 -0.208289)
(-0.20119 -0.0577401 -0.854842)
(-0.448827 0.031838 -0.565499)
(-0.484829 0.307071 -0.985171)
(0.429444 0.830057 -0.9336)
(0.792674 0.996791 -0.830467)
(0.849775 0.978744 -0.853025)
(1.16903 0.0535526 -1.46972)
(1.30631 -0.501026 -0.598304)
(1.14956 0.23398 -0.385241)
(-0.780064 2.12764 -0.0224425)
(-0.930848 1.82585 -0.0574228)
(-0.374304 2.30027 0.0787413)
(-0.751563 2.15257 0.0626989)
(-1.06689 1.85607 0.14251)
(-0.381179 2.46838 0.159044)
(0.0100419 2.4588 0.3524)
(-0.533002 2.25711 0.102967)
(-0.670646 2.1444 0.10215)
(-0.180695 2.75185 0.413768)
(-0.145601 2.79308 0.248003)
(-0.42785 2.79152 0.0550374)
(0.0973626 2.65949 0.107647)
(-0.228868 2.43822 0.112938)
(-0.707736 2.33857 0.135725)
(0.327953 2.97994 0.804855)
(0.24447 2.99091 0.615572)
(0.186258 2.98185 0.406907)
(0.0699218 2.95064 0.285973)
(0.145995 2.80304 -0.132538)
(-0.319822 2.81951 -0.202344)
(-0.563403 2.65244 0.0196019)
(0.316075 3.20919 1.38696)
(0.500703 3.07542 1.23852)
(0.580515 3.08706 0.811825)
(0.456446 3.03179 0.465916)
(0.654047 3.10204 0.347192)
(0.463291 3.35525 0.0810237)
(0.447476 2.90601 0.521269)
(-0.304993 2.94969 -0.0240533)
(0.853889 3.69511 2.25583)
(0.892248 3.75405 2.11461)
(0.952824 3.71 1.72735)
(1.09263 3.57086 1.36754)
(0.567765 3.80124 0.666225)
(0.755662 3.50025 0.659634)
(0.758022 3.54703 0.448444)
(0.140298 3.59474 0.145227)
(-0.0128042 3.20444 0.257213)
(0.469884 4.18165 2.85179)
(0.595799 4.14444 2.81123)
(1.25865 3.92533 2.80821)
(1.9021 3.34607 2.79114)
(1.34929 3.89734 1.92331)
(0.870096 4.13654 1.41286)
(1.10893 3.79087 1.10648)
(0.973343 3.68315 0.959385)
(0.409802 4.07014 0.748592)
(0.353262 3.40067 -0.028925)
(0.171964 4.14494 2.04836)
(1.3616 3.8914 2.55059)
(1.16306 4.04898 3.21013)
(2.14284 3.58813 3.03056)
(2.41426 3.27267 2.90592)
(1.93564 3.7135 2.21092)
(1.34498 4.13617 1.78031)
(1.03205 3.84786 1.3678)
(0.89233 3.87054 0.800569)
(0.81804 3.8891 0.906615)
(0.105604 3.47778 -0.276655)
(-0.530674 3.28202 1.84261)
(-0.145786 3.24245 1.61321)
(-0.211819 3.16193 1.50101)
(1.42285 3.87811 0.933222)
(2.66142 3.09253 1.75265)
(2.74296 2.26438 2.84382)
(2.03547 2.80103 2.57575)
(1.49264 3.43486 1.93921)
(1.68491 3.64361 1.71616)
(1.55443 3.78512 0.993676)
(1.40024 3.91983 1.32667)
(1.35056 3.82997 0.245195)
(-0.519628 2.27823 2.24021)
(-0.0606477 1.39539 2.3603)
(0.06855 1.46119 1.90999)
(0.257742 1.29053 1.35813)
(0.583692 1.19604 1.15051)
(2.00293 2.33758 0.223873)
(2.42065 2.48784 1.46589)
(2.07425 1.73373 2.61161)
(1.71936 2.23578 2.43782)
(2.14961 3.21885 1.64587)
(1.66464 3.21952 1.46048)
(1.42898 3.36528 1.51446)
(2.27871 3.42073 0.564724)
(-0.535418 2.01852 2.12929)
(-0.159874 0.945527 1.5617)
(-0.465763 0.692113 1.02632)
(-0.0972652 0.320742 1.13137)
(0.759357 0.266756 -0.308162)
(0.0581175 0.0295985 -0.0114734)
(0.178138 0.741865 1.14287)
(1.22996 1.95812 -0.116701)
(1.41847 1.82759 0.38061)
(1.39582 1.73422 1.32674)
(1.65663 1.83296 1.65711)
(0.746832 1.89304 1.79692)
(-0.692329 1.23435 1.541)
(0.113755 0.826296 0.251013)
(-1.62524 0.551542 1.86028)
(-0.662825 -1.59596 0.135275)
(-0.367182 -0.424628 0.483455)
(-0.0595217 -0.337996 -0.104498)
(0.22232 -0.2275 0.208738)
(0.901163 -0.0815074 -0.025683)
(-0.284555 0.442049 0.655993)
(-0.841445 0.600944 0.280351)
(1.31803 0.960134 0.280774)
(1.1545 1.50335 0.909588)
(0.483519 1.47595 0.785737)
(0.256311 1.41672 1.38258)
(0.92964 0.883466 0.130183)
(0.308191 0.181553 0.438037)
(0.645785 -0.368416 -0.231602)
(-1.12707 0.104964 0.446565)
(-1.03146 -1.30361 0.573486)
(-0.0583757 -1.58301 -0.0448037)
(-0.537596 -1.48286 0.052032)
(-0.41388 -1.14628 -0.177125)
(-0.362815 -0.498392 0.0277325)
(-0.336164 -0.382455 -0.204654)
(-0.173285 -0.0724085 -0.892495)
(-0.470225 0.0342192 -0.554121)
(-0.441958 0.319182 -1.02385)
(0.45629 0.817925 -0.920977)
(0.766488 0.990216 -0.836647)
(0.823776 0.973411 -0.899822)
(1.21051 0.0549989 -1.51508)
(1.25632 -0.530488 -0.539981)
(1.09851 0.239804 -0.409851)
(-0.824314 1.75348 0.00268643)
(-0.37834 2.25965 -0.0466669)
(-0.333171 2.19536 -0.0129424)
(-0.792609 1.88718 -0.0580592)
(-0.369371 2.36756 0.273597)
(-0.166611 2.33032 0.145217)
(-0.508544 2.20146 0.0388869)
(-0.879684 1.96974 0.20378)
(-0.474348 2.66478 0.2217)
(-0.300632 2.49495 0.139209)
(0.144527 2.39635 0.312269)
(-0.381651 2.29508 0.0392064)
(-0.594826 2.21084 0.0525034)
(-0.208274 2.88583 0.558795)
(-0.0100781 2.72991 0.447009)
(-0.133409 2.7645 0.207668)
(-0.429525 2.80576 0.0823331)
(0.100521 2.65345 0.0321542)
(-0.268846 2.43745 0.0769097)
(-0.48246 2.46018 -0.00133844)
(0.0591195 3.08862 0.946994)
(0.348 2.96053 0.768347)
(0.258015 2.99852 0.600762)
(0.478107 2.87892 0.465808)
(0.309909 2.81641 0.26451)
(0.13283 2.8623 -0.00751075)
(-0.23394 2.86355 -0.0304671)
(-0.466538 2.66512 0.059321)
(0.254795 3.39624 1.41054)
(0.601369 3.07424 1.41648)
(0.877164 3.12745 1.35837)
(0.598131 3.03874 0.562737)
(0.764338 3.08235 0.534032)
(0.548429 3.14977 0.482091)
(0.479371 3.22587 -0.0763728)
(0.220991 2.99831 0.193414)
(-0.00127183 2.90354 0.0564928)
(0.235004 3.81403 2.17418)
(0.682404 3.72333 2.12367)
(1.02825 3.77828 1.9977)
(1.49198 3.5497 1.68798)
(1.09023 3.7167 1.23998)
(0.645317 3.77783 0.599031)
(0.781928 3.53213 0.656468)
(0.877062 3.5163 0.424571)
(0.516839 3.6517 0.010573)
(0.14112 3.20445 0.24864)
(0.296013 4.15168 2.71361)
(0.360985 4.15258 2.83503)
(0.64836 4.16284 2.77794)
(1.57705 3.60249 2.73458)
(2.17428 3.34705 2.46577)
(1.31816 3.89024 1.71195)
(1.41448 3.91622 1.31241)
(1.16071 3.84529 1.16854)
(1.15235 3.70844 1.10416)
(1.39982 3.80875 0.559905)
(0.406604 3.51355 0.0434734)
(-0.0844866 4.23443 1.74625)
(0.513436 4.17952 1.99458)
(1.3979 3.76528 2.79994)
(1.44458 3.96567 3.19276)
(1.96279 3.55745 3.07869)
(1.97505 3.38684 2.84062)
(1.72299 3.7936 2.09438)
(1.49269 4.09119 1.64386)
(1.27568 3.71297 1.56122)
(1.3423 3.74611 0.749857)
(1.24831 3.81385 1.09793)
(0.216406 3.52516 -0.232674)
(-1.11868 3.31445 2.0501)
(-0.316085 3.27012 1.84511)
(-0.257898 3.32888 1.49407)
(0.238122 3.11936 1.29759)
(1.9766 3.71762 0.73654)
(2.7151 2.90013 2.07915)
(2.49368 2.21561 3.16624)
(1.45256 2.91109 2.72213)
(1.74529 3.2965 1.88541)
(1.67849 3.63763 1.6224)
(1.73727 3.68102 1.00561)
(1.64162 3.87819 1.36277)
(1.51687 3.75354 0.269895)
(-1.37068 2.60131 2.52483)
(-0.266906 2.21449 2.42369)
(-0.0469053 1.49715 2.41512)
(0.222476 1.45961 1.81935)
(0.346823 1.24948 1.31037)
(0.811324 1.32563 1.12091)
(2.13384 2.49534 0.331211)
(2.50099 2.31184 1.62694)
(2.01099 1.66501 2.63144)
(1.84381 2.27066 2.35026)
(2.18405 3.19467 1.69063)
(1.81406 3.02132 1.46899)
(1.80716 3.01623 1.65231)
(2.94457 2.99895 0.491716)
(-1.15417 2.62191 1.67738)
(-0.495805 1.94033 2.23305)
(-0.236614 1.04588 1.78961)
(-0.465046 0.715585 1.18787)
(-0.0253052 0.420189 1.12888)
(0.864632 0.229678 -0.260705)
(-0.0413852 0.0366687 0.0643405)
(0.352242 0.809246 1.07414)
(1.42485 1.96456 0.00395175)
(1.53811 1.74499 0.291896)
(1.54787 1.59507 1.28714)
(1.71097 1.76959 1.6805)
(0.940077 1.59176 1.77836)
(-0.650273 1.27313 1.56614)
(0.252887 0.81618 0.297671)
(-0.964278 2.12568 1.10783)
(-1.51956 0.566427 1.90952)
(-0.780272 -1.4909 0.135799)
(-0.306004 -0.434249 0.503603)
(-0.0263617 -0.354344 -0.0953947)
(0.339448 -0.271428 0.180315)
(0.85178 -0.0594984 0.0724853)
(-0.354967 0.47166 0.713315)
(-0.833663 0.653392 0.274839)
(1.46889 0.818379 -0.0781532)
(1.141 1.50085 0.72155)
(0.560506 1.4118 0.567644)
(0.35279 1.35042 1.32807)
(0.977568 0.783179 0.12484)
(0.292328 0.0486155 0.408821)
(0.592129 -0.448491 -0.240716)
(-0.45267 0.345233 0.273451)
(-1.13671 0.106709 0.453861)
(-1.06789 -1.30262 0.573265)
(-0.00667059 -1.60187 -0.0551348)
(-0.551623 -1.47259 0.0543769)
(-0.493274 -1.0671 -0.227671)
(-0.333986 -0.489633 0.044437)
(-0.287557 -0.366285 -0.220189)
(-0.15101 -0.0937323 -0.923345)
(-0.44669 0.0101626 -0.582014)
(-0.395524 0.328617 -1.06145)
(0.49768 0.767964 -0.956894)
(0.787961 0.942688 -0.828463)
(0.83363 0.936938 -1.04897)
(1.18889 -0.00406668 -1.48917)
(1.17889 -0.489202 -0.566121)
(1.10846 0.27927 -0.442849)
(-0.90855 1.57272 -0.0714872)
(-0.509352 2.11774 -0.00413376)
(-0.677993 1.78075 0.0173642)
(-0.545329 2.23039 0.0810806)
(-0.115939 2.25498 -0.0898213)
(0.021015 2.23714 -0.0486539)
(-0.614254 1.98426 -0.0927429)
(-0.439839 2.47376 0.251883)
(-0.227178 2.35406 0.234542)
(-0.0216524 2.36749 0.125139)
(0.0212979 2.36796 0.0488724)
(-0.732928 2.03965 0.213574)
(-0.270621 2.58935 0.340403)
(-0.37142 2.56758 0.198497)
(-0.205924 2.54153 0.15615)
(0.0930126 2.41564 0.214442)
(0.0660786 2.40672 0.13198)
(-0.545405 2.25353 0.0572708)
(-0.125682 2.87918 0.886146)
(0.136208 2.77504 0.634052)
(0.205913 2.68074 0.516815)
(-0.0643791 2.73298 0.27573)
(-0.233657 2.76102 0.132603)
(0.0288807 2.696 0.0226235)
(0.249098 2.52985 0.139432)
(-0.498718 2.49966 -0.0277292)
(0.213348 3.11477 1.05262)
(0.369376 3.04247 0.985344)
(0.659296 2.96436 0.804645)
(0.311652 2.90117 0.594565)
(0.582785 2.77323 0.402541)
(0.303781 2.79629 0.207101)
(0.109713 2.91875 0.0835881)
(-0.320765 2.83947 0.0226966)
(-0.361345 2.66525 0.141447)
(0.35673 3.4502 1.5387)
(0.540156 3.26791 1.42339)
(0.883503 3.06714 1.47713)
(0.94797 3.17257 0.919395)
(0.91022 3.02237 0.65735)
(0.741725 3.17375 0.365155)
(0.778135 3.24275 0.467294)
(0.356995 3.19519 0.118417)
(0.193552 3.07509 0.177829)
(0.141693 2.91917 0.0388911)
(-0.109955 3.84598 2.04685)
(1.1636 3.61095 2.17228)
(0.967738 3.72819 2.10237)
(1.29705 3.70657 1.71072)
(1.98985 3.27904 1.41638)
(1.17481 3.75855 1.20314)
(1.38599 3.51751 0.844395)
(1.27842 3.42332 0.743953)
(0.890966 3.64272 0.341667)
(0.297919 3.68636 0.113224)
(0.277181 3.17492 0.203757)
(0.000469001 4.17569 2.43287)
(0.40101 4.15399 2.76699)
(0.7495 4.03204 2.81874)
(1.39934 3.94426 2.58689)
(1.67078 3.51134 2.68761)
(2.10799 3.15159 2.18069)
(1.74469 3.82278 1.55729)
(1.38292 4.15801 0.959922)
(1.28574 3.80759 1.0467)
(1.36901 3.61843 1.02056)
(1.31132 3.80433 0.489648)
(0.589305 3.58159 -0.0078255)
(-0.26607 4.18343 1.53114)
(0.0293264 4.20267 1.67364)
(0.711162 4.02933 2.13644)
(0.772701 3.69154 3.01905)
(1.83108 3.69589 3.06977)
(2.00922 3.51735 3.13316)
(1.8314 3.31632 2.63978)
(1.76627 3.86243 1.86874)
(1.75034 3.75787 1.28015)
(1.43486 3.67126 1.41364)
(1.51225 3.66346 0.783335)
(1.4674 3.81674 1.08928)
(0.325605 3.525 -0.141982)
(-0.909422 3.6068 1.45733)
(-1.03569 3.2655 2.05247)
(-0.0512228 3.26053 1.75195)
(-0.0284196 3.26731 1.31551)
(0.475696 3.09905 1.09937)
(2.02622 3.47315 1.02761)
(2.79993 2.72204 2.62873)
(2.17502 2.33823 3.20559)
(1.87711 2.75737 2.419)
(1.98767 3.16246 1.89124)
(1.79579 3.53453 1.48497)
(1.93437 3.51628 1.10762)
(1.73457 3.76899 1.34461)
(1.68553 3.63245 0.222329)
(-1.06944 3.09018 2.00231)
(-1.59437 2.37576 2.60514)
(-0.383256 2.04226 2.60652)
(0.0743477 1.48223 2.46256)