/*--------------------------------*- C++ -*----------------------------------*\
  =========                 |
  \\      /  F ield         | OpenFOAM: The Open Source CFD Toolbox
   \\    /   O peration     | Website:  https://openfoam.org
    \\  /    A nd           | Version:  7
     \\/     M anipulation  |
\*---------------------------------------------------------------------------*/
FoamFile
{
    version     2.0;
    format      ascii;
    class       volVectorField;
    location    "3";
    object      U_0;
}
// * * * * * * * * * * * * * * * * * * * * * * * * * * * * * * * * * * * * * //

dimensions      [0 1 -1 0 0 0 0];

internalField   nonuniform List<vector> 
18750
(
(3.49777 0.112299 -1.22757)
(1.94395 0.937198 -0.077523)
(1.43024 0.163705 -2.12378)
(3.4803 -0.00300081 -1.0013)
(0.291241 1.81752 -0.738529)
(0.559268 1.65947 0.0658146)
(1.7873 0.756509 0.107895)
(0.30224 0.536329 -1.57593)
(1.71228 0.0906701 -2.02845)
(3.27058 -0.0752548 -0.787584)
(-0.670983 3.94815 0.105588)
(0.130058 4.00953 0.184572)
(-0.0155096 1.54241 -1.0596)
(0.680564 1.06786 0.423526)
(-0.300979 1.68884 0.154415)
(1.52107 0.608802 0.209048)
(0.534541 1.17181 -0.760233)
(0.442257 0.55132 -1.5804)
(1.86236 0.00401324 -1.91034)
(2.95988 -0.109425 -0.600847)
(0.147412 4.30614 -0.717319)
(3.55955 1.78036 1.86155)
(-0.289123 3.968 -0.212177)
(0.740822 2.05044 2.26101)
(-0.10547 0.3775 0.116776)
(-0.210796 1.38193 -0.675955)
(-0.640232 1.13783 1.01876)
(0.540423 1.11057 0.461716)
(-0.45539 1.62401 0.229574)
(1.22437 0.494711 0.269648)
(0.496402 1.17068 -0.579094)
(0.554293 1.16072 -0.75132)
(0.604051 0.540694 -1.54834)
(1.95722 -0.109394 -1.70648)
(2.60765 -0.104898 -0.454832)
(-0.611069 3.52878 -0.112209)
(2.6836 3.66356 1.84898)
(-0.356528 4.45834 -0.429018)
(2.23451 2.70422 2.14001)
(3.75457 1.89138 1.4637)
(0.0919274 3.98665 -0.0338359)
(0.241785 2.0332 1.57966)
(1.00302 2.15176 2.51023)
(-0.455606 -2.79481 0.387754)
(-0.376507 1.21535 -0.775354)
(0.444895 1.48831 1.12372)
(-0.594976 1.16129 1.13285)
(0.257397 1.26105 0.574595)
(-0.432525 1.53799 0.265037)
(0.95849 0.42735 0.262231)
(0.339622 0.964651 -0.684183)
(0.526892 1.16658 -0.558247)
(0.586399 1.14373 -0.738153)
(0.715979 0.516171 -1.50277)
(1.96201 -0.196725 -1.51595)
(2.25892 -0.0665779 -0.362825)
(-1.00671 2.3188 0.141561)
(0.398649 4.4573 0.830471)
(-0.924211 3.30851 -0.15819)
(2.26264 3.74346 2.71992)
(2.7335 3.61412 1.59072)
(-0.203749 4.49665 -0.192914)
(1.25858 2.79453 2.34498)
(2.15164 3.0669 1.85733)
(2.57035 2.63868 1.26128)
(0.331139 3.91925 0.0916441)
(0.130441 1.31218 2.25666)
(0.46144 2.15353 1.43557)
(1.25709 2.34691 1.90871)
(0.0365116 -0.575184 0.628929)
(-0.305275 1.2047 -0.453879)
(0.0983377 1.88504 0.681176)
(0.451848 1.45447 1.18307)
(-0.478779 1.18654 1.16609)
(0.205744 1.3207 0.474489)
(0.149422 1.34247 0.239978)
(0.778271 0.339519 0.242258)
(-0.80502 0.229492 -0.620603)
(0.343437 0.962056 -0.683705)
(0.610569 1.1515 -0.599466)
(0.668282 1.11278 -0.828756)
(0.829856 0.471808 -1.41544)
(1.89752 -0.247626 -1.31486)
(1.95666 -0.00902635 -0.288941)
(-2.01806 2.09882 0.382903)
(-1.03311 3.62475 0.872499)
(-1.56524 2.35899 0.21672)
(1.40738 4.58432 1.45749)
(0.668483 3.91587 1.04013)
(-0.618287 3.40865 -0.366415)
(2.20319 3.38428 2.40592)
(3.07286 3.95451 0.753405)
(2.60765 3.29611 0.833168)
(0.162351 4.38935 -0.0502765)
(1.49796 2.33032 0.671846)
(1.32793 2.97523 2.39304)
(2.04317 3.34402 1.40347)
(1.82001 2.99142 1.12936)
(0.793849 3.91998 0.262825)
(0.557195 1.16266 1.96197)
(0.0055962 1.4544 2.356)
(0.894427 2.38013 0.612893)
(1.20371 2.30822 2.06627)
(-0.0596033 -0.830242 0.944462)
(-0.333985 1.06201 -0.659153)
(-0.712558 1.24642 0.742101)
(0.0776551 1.87446 0.630879)
(0.535489 1.37327 1.15706)
(-0.346537 1.225 1.15729)
(0.259037 1.36139 0.0807411)
(0.306857 1.19825 0.277148)
(0.676632 0.270963 0.187503)
(-0.542516 0.0882255 -0.476945)
(-0.791678 0.235101 -0.702621)
(0.385758 0.956746 -0.691559)
(0.635261 1.14897 -0.685687)
(0.738569 1.08141 -0.931014)
(0.956141 0.409883 -1.34055)
(1.76154 -0.269856 -1.16169)
(1.7189 0.0514287 -0.240977)
(-1.94104 2.34867 -0.0235185)
(-1.2126 3.29864 0.647793)
(-1.86146 2.25612 0.433279)
(0.155095 3.50652 1.796)
(-0.972698 3.54209 0.83366)
(-0.886358 2.38129 0.233602)
(2.12567 4.20957 2.13331)
(1.02625 4.17018 1.43854)
(0.244051 3.6557 0.789577)
(-0.882465 3.46712 -0.257135)
(1.72827 3.0065 1.97309)
(2.86463 3.25526 2.22534)
(2.02638 3.76618 1.83914)
(1.10313 3.81859 0.88169)
(0.102553 4.26555 0.0492196)
(1.4858 2.54232 0.271766)
(1.58771 2.28299 0.821597)
(1.63959 3.06195 2.25791)
(1.17172 3.64617 1.68302)
(1.54756 3.02385 1.12344)
(0.564171 4.13623 0.410448)
(0.855784 1.3432 1.1872)
(0.424623 1.26239 2.42325)
(0.294364 1.66741 1.95573)
(1.38508 2.4123 -0.0423889)
(1.14972 2.20744 2.17586)
(-0.238789 -0.256919 1.39995)
(-0.18915 0.980528 -0.488113)
(-0.643186 0.435626 0.235305)
(-0.622628 1.33781 0.753501)
(0.0698338 1.87279 0.62405)
(0.584983 1.34073 0.968299)
(-0.230986 1.24205 1.1757)
(0.385212 1.37181 -0.0701641)
(0.152061 1.13975 0.339394)
(0.659155 0.190272 0.103558)
(-0.329453 -0.0618558 -0.852982)
(-0.53383 0.0859087 -0.473871)
(-0.773458 0.241656 -0.776142)
(0.376159 0.932125 -0.720738)
(0.608625 1.14893 -0.695027)
(0.732953 1.0787 -0.931427)
(1.00024 0.363411 -1.3068)
(1.60238 -0.269457 -1.05485)
(1.55423 0.0984601 -0.227307)
(-1.72083 2.26155 -0.124171)
(-1.10205 3.05609 0.163112)
(-1.7272 2.47881 0.0528204)
(-0.273526 3.22715 0.947902)
(-0.951491 3.39537 0.523128)
(-1.64261 2.40324 0.513287)
(0.6456 4.11421 1.50986)
(-0.169492 3.48447 1.27993)
(-0.821613 3.47409 0.723593)
(-0.784331 2.44469 0.196726)
(2.59853 4.00867 2.18945)
(0.714853 4.7087 1.5628)
(0.834321 3.91789 1.59061)
(-0.0685938 3.71443 0.812429)
(-1.1161 3.48738 -0.192069)
(1.59406 3.12301 1.064)
(2.04464 3.04098 1.83906)
(2.24546 3.2611 2.48576)
(1.84075 3.86481 1.49251)
(0.850141 3.67948 1.03999)
(0.159556 4.19989 0.104022)
(0.831613 2.39909 -0.202615)
(1.95893 2.42119 0.434429)
(1.36875 2.3042 1.39831)
(1.57095 3.1908 2.04511)
(0.991277 3.7903 1.6861)
(1.12744 3.3019 1.15172)
(0.567693 4.13453 0.484901)
(-0.114644 0.535394 0.367021)
(1.25619 1.32749 1.32357)
(0.519981 1.33287 2.488)
(0.789564 1.78292 1.42847)
(1.37323 2.40557 0.293203)
(0.986653 1.92856 2.36218)
(-0.248815 0.0423649 1.43542)
(0.100891 0.859084 -0.0617326)
(-0.0538401 0.439993 0.258793)
(-0.645254 0.439321 0.28487)
(-0.419534 1.3935 0.809965)
(0.108289 1.86142 0.697249)
(0.52399 1.35621 0.897173)
(0.0539626 1.21367 1.08093)
(0.39706 1.37548 0.187162)
(-0.208122 1.10335 0.504884)
(0.681768 0.111734 0.0168681)
(-0.492396 -0.604156 -0.194201)
(-0.31094 -0.0523074 -0.830613)
(-0.522811 0.0831466 -0.475204)
(-0.750885 0.251299 -0.831975)
(0.349919 0.914471 -0.712915)
(0.653176 1.13771 -0.594876)
(0.721771 1.07122 -0.850515)
(1.06575 0.312516 -1.27555)
(1.45484 -0.264225 -0.976653)
(1.45029 0.126643 -0.240018)
(-1.67531 1.98681 -0.09714)
(-1.49617 2.6521 0.256883)
(-1.30525 2.48892 -0.222609)
(-0.260038 3.20336 0.422618)
(-0.896882 3.0729 0.0497995)
(-1.39596 2.59205 0.156717)
(0.184205 3.43889 0.852699)
(0.0428963 3.34924 0.860189)
(-0.582503 3.49947 0.47304)
(-1.44608 2.49176 0.554734)
(1.13452 4.06745 2.37367)
(0.892854 4.01383 1.61882)
(0.0695268 3.36377 1.20957)
(-0.630822 3.51963 0.724001)
(-1.03791 2.67551 0.189193)
(1.828 3.81348 2.62708)
(1.78314 4.05856 2.52723)
(1.05144 3.9363 1.96559)
(0.543177 3.94001 1.23209)
(-0.197804 3.80265 1.08768)
(-1.10698 3.64004 -0.226464)
(2.30743 3.32132 -0.493706)
(1.99698 2.80805 2.1368)
(2.30319 2.93775 2.04587)
(1.92298 3.30226 2.16049)
(1.48601 4.12379 1.24064)
(0.868872 3.67855 1.05279)
(0.273519 4.16069 0.157989)
(-0.340693 1.15066 1.15154)
(1.59783 2.58981 0.125603)
(2.04368 2.50496 0.660346)
(1.45217 2.27401 1.86736)
(1.22638 3.43495 1.93922)
(1.32435 3.66355 1.51774)
(0.856368 3.55059 1.14019)
(0.964001 3.98371 0.550924)
(0.0852885 0.12078 -0.0649957)
(-0.0694501 0.428463 0.540728)
(1.41369 1.31755 1.31289)
(0.981169 1.37856 1.94227)
(1.15176 1.82585 0.982654)
(1.25846 2.33869 0.814933)
(1.03869 2.00409 1.8121)
(-0.270292 0.224055 1.23277)
(0.0195064 0.804993 -0.0478074)
(0.411905 -0.109187 -0.473807)
(-0.1094 0.429947 0.36778)
(-0.641502 0.446639 0.336389)
(0.00527114 1.4166 0.855456)
(0.226803 1.89307 0.830191)
(0.498156 1.38643 0.917722)
(0.2435 1.2069 0.839741)
(0.499174 1.30705 0.339554)
(0.442729 0.901023 0.299963)
(0.694298 0.0324875 -0.0347298)
(-0.513165 -0.543247 -0.0351499)
(-0.4684 -0.565325 -0.196191)
(-0.293172 -0.0462399 -0.811436)
(-0.508787 0.0778171 -0.479379)
(-0.712722 0.261493 -0.856094)
(0.408851 0.897987 -0.762494)
(0.658929 1.13159 -0.586206)
(0.763511 1.06414 -0.827125)
(1.0715 0.280104 -1.28682)
(1.35435 -0.263841 -0.920746)
(1.37828 0.146801 -0.260923)
(-1.09103 2.49846 0.119964)
(-1.24663 2.21937 -0.0719042)
(-0.380008 2.99703 0.0357332)
(-1.15973 2.66442 0.219747)
(-1.14413 2.49146 -0.339821)
(-0.0890744 3.16808 0.542305)
(-0.0693935 3.23169 0.400234)
(-0.508968 3.02337 -0.0711832)
(-1.29225 2.64823 0.148789)
(0.349961 3.84083 1.03048)
(0.365447 3.20782 0.854297)
(-0.120165 3.39173 0.743003)
(-0.352698 3.55654 0.41631)
(-1.25605 2.64756 0.586752)
(1.26536 3.87352 2.58179)
(1.03583 4.09258 2.37274)
(-0.501913 4.29946 0.9977)
(0.668774 3.38479 1.34515)
(0.102266 3.72058 0.661441)
(-0.962621 2.92129 0.213855)
(1.85817 3.8527 2.15886)
(1.87539 3.61888 2.8283)
(1.81976 4.11156 1.94058)
(1.51888 3.51881 1.99475)
(0.581446 3.93299 0.981304)
(0.00785978 3.79186 1.19662)
(-1.10129 3.64771 -0.172841)
(1.2906 3.68564 0.0115003)
(2.67861 3.11768 0.71583)
(2.28552 2.70254 2.25249)
(2.13174 3.0147 2.18278)
(1.75031 3.48715 1.77893)
(1.09116 4.09793 1.46744)
(1.11395 3.76485 1.14287)
(0.388191 4.10755 0.114319)
(-0.00787155 0.764511 1.1396)
(-0.226572 1.4006 1.05848)
(2.02101 2.71652 0.235422)
(1.97904 2.41605 1.08004)
(1.60236 2.25993 1.95234)
(1.35022 3.3924 1.90148)
(1.61298 3.53508 1.40934)
(0.953918 3.57155 1.21957)
(1.06093 3.93329 0.58368)
(0.172943 0.285433 0.157688)
(0.161821 0.108643 -0.0674549)
(-0.060172 0.396679 0.641706)
(1.47097 1.33553 0.985359)
(1.37306 1.39749 1.25751)
(1.35918 1.89544 0.478167)
(1.24364 2.26704 0.950005)
(1.01123 1.98943 1.83629)
(-0.534033 0.540178 1.2696)
(-0.01298 0.861293 0.00273594)
(-0.198025 -0.201652 0.106501)
(0.642158 -0.109137 -0.462171)
(-0.151958 0.426825 0.441017)
(-0.629701 0.455076 0.388522)
(0.291273 1.3731 0.865221)
(0.387302 1.92041 0.986354)
(0.503707 1.42175 0.897771)
(0.215598 1.22908 0.831881)
(0.66006 1.21586 0.240149)
(0.211131 0.80469 0.419398)
(0.706401 -0.0927049 -0.119533)
(-0.454395 -1.14636 -0.228679)
(-0.481114 -0.541284 -0.0214607)
(-0.442549 -0.526282 -0.198852)
(-0.276326 -0.042933 -0.797736)
(-0.491825 0.0711625 -0.489788)
(-0.639353 0.267487 -0.87979)
(0.426044 0.889702 -0.865423)
(0.716362 1.1065 -0.570802)
(0.767504 1.04923 -0.811569)
(1.16396 0.163771 -1.34957)
(1.31451 -0.300489 -0.866723)
(1.32138 0.168732 -0.286378)
(-1.12303 1.9602 0.124908)
(-0.329804 2.63824 0.046059)
(-1.11705 2.42694 0.0285238)
(-1.26751 2.1312 -0.0404143)
(-0.319324 3.12704 0.283882)
(-0.328193 3.00946 -0.0305644)
(-0.788011 2.5894 0.297428)
(-0.943854 2.55532 -0.396547)
(0.060366 3.08363 0.696133)
(0.140227 3.08879 0.513584)
(0.175987 3.2909 0.165028)
(-0.289483 3.0163 0.0318555)
(-1.0227 2.78081 0.0709729)
(0.730188 3.70714 1.61908)
(0.455908 3.79543 0.712523)
(0.286754 3.32094 0.794557)
(0.465458 3.40674 0.94428)
(-0.0709163 3.52382 0.357764)
(-1.06308 2.88452 0.382419)
(1.05225 3.98577 2.66993)
(1.48136 3.7775 2.51932)
(1.96604 3.85886 2.05736)
(-0.0377382 4.07447 0.956301)
(0.327285 3.46149 1.02543)
(0.338248 3.78803 0.573161)
(-0.919157 3.15451 0.335133)
(0.959415 4.29841 2.72103)
(2.13797 3.66495 2.33706)
(1.91744 3.65053 2.7182)
(1.98926 3.92449 1.75384)
(1.60303 3.53059 1.65914)
(0.544243 3.96735 0.984798)
(0.844422 3.75891 1.20459)
(-0.686245 3.54416 0.0166352)
(0.162346 3.28635 1.09577)
(2.34579 3.80295 0.34207)
(2.86007 2.7828 1.84737)
(2.33213 2.66568 2.40527)
(1.99307 3.0922 2.17383)
(1.48293 3.78379 1.62984)
(1.35079 3.98753 1.27368)
(0.939423 3.96152 1.11687)
(0.597727 4.05288 0.0861299)
(0.231183 1.37116 1.41521)
(0.340716 0.75075 1.15807)
(0.913734 1.78581 0.323641)
(2.09137 2.71928 0.218364)
(2.19333 2.18685 1.68367)
(1.69568 2.1795 2.04798)
(1.48155 3.44225 1.6762)
(1.76036 3.38454 1.4842)
(0.946722 3.54312 1.29777)
(1.42496 3.8327 0.590522)
(-0.495632 0.155909 0.888243)
(0.272109 0.319112 0.095118)
(0.212774 0.104604 -0.0322677)
(-0.0540368 0.424378 0.748652)
(1.41599 1.45864 0.455279)
(1.52061 1.50045 0.729149)
(1.26262 1.97568 0.461505)
(1.23936 2.13806 1.36674)
(0.990349 1.96482 1.94472)
(-0.679427 0.864026 1.45025)
(-0.0362268 0.860778 0.033424)
(-0.4395 -0.275571 -0.319433)
(-0.121055 -0.197201 0.157791)
(0.838433 -0.126508 -0.400468)
(-0.179927 0.422759 0.495262)
(-0.657284 0.467658 0.412442)
(0.829147 1.26415 0.862255)
(0.505945 1.90661 1.07955)
(0.517699 1.44205 0.874644)
(0.116763 1.33139 0.99901)
(0.791545 1.10139 0.163343)
(0.302143 0.629274 0.459575)
(0.710402 -0.158652 -0.153282)
(-0.565023 -1.49433 0.0673169)
(-0.464275 -1.13568 -0.263385)
(-0.4548 -0.529327 -0.00488859)
(-0.417611 -0.486315 -0.200374)
(-0.253872 -0.0441556 -0.797297)
(-0.474747 0.061545 -0.512621)
(-0.578572 0.274734 -0.907253)
(0.429297 0.849284 -0.935899)
(0.75458 1.06939 -0.603613)
(0.832663 0.989082 -0.832038)
(1.18995 0.173886 -1.4372)
(1.31051 -0.361052 -0.796921)
(1.26357 0.186012 -0.316754)
(-1.32307 1.70707 0.099469)
(-1.40696 2.00845 -0.127224)
(-0.966675 2.04295 0.0944068)
(-0.501961 2.82259 0.0841471)
(-0.210707 2.67196 0.121181)
(-0.685124 2.5108 0.0577887)
(-1.01184 2.29462 0.0179633)
(-0.0428505 3.0355 0.3993)
(-0.0118059 3.08175 0.271947)
(-0.137377 2.98898 -0.0526721)
(-0.399257 2.6865 0.344673)
(-0.55296 2.62034 -0.453705)
(0.591909 2.98858 1.06921)
(0.249725 3.02252 0.61473)
(0.205138 3.06635 0.464262)
(0.510451 3.31893 0.0388999)
(-0.102035 3.07175 0.104639)
(-0.823377 2.83993 -0.043579)
(0.818416 3.76261 1.87436)
(0.946651 3.69638 1.49303)
(0.604336 3.70797 0.695751)
(0.477187 3.41709 0.811467)
(0.44272 3.46382 0.761745)
(0.337119 3.59624 0.186628)
(-0.863051 3.02533 0.367508)
(0.553355 4.06746 2.73455)
(1.61533 3.75621 2.7006)
(1.69749 3.71517 2.49812)
(0.74856 4.20671 1.77044)
(0.923614 3.93013 0.813442)
(0.557322 3.47957 0.918532)
(0.54947 3.71299 0.5082)
(-0.640044 3.31015 0.424602)
(1.06289 4.06801 2.90473)
(1.33096 4.16956 2.78086)
(2.2483 3.40084 2.81176)
(1.99541 3.69021 2.66514)
(1.9798 3.90902 1.67081)
(1.37135 3.48466 1.55366)
(0.634947 3.73277 1.04643)
(0.539758 3.96106 0.79615)
(-0.33598 3.4812 0.0056241)
(-0.9826 2.74749 1.69294)
(0.343309 3.62791 0.780493)
(2.59156 3.72181 0.752718)
(2.73636 2.63537 2.21184)
(2.21929 2.70433 2.56838)
(1.81738 3.26176 2.10628)
(1.55326 3.72306 1.66038)
(1.36641 3.99115 1.10387)
(1.08469 3.87734 1.1535)
(0.825152 4.03631 0.119484)
(-0.578456 1.40237 2.11973)
(0.340362 1.29877 1.40252)
(0.098533 0.854967 1.19918)
(1.30617 1.95229 -0.0223611)
(2.10768 2.64441 0.369422)
(2.54611 1.95962 1.54987)
(1.76224 2.0625 2.22632)
(1.65836 3.40272 1.60702)
(1.78698 3.25968 1.59652)
(1.00667 3.59393 1.49521)
(1.6173 3.76299 0.575945)
(-0.377959 0.59432 0.895316)
(-0.29881 0.196118 1.00765)
(0.377076 0.353548 -0.0647608)
(0.202454 0.0575332 -0.0298793)
(-0.0532267 0.498302 0.865853)
(1.29885 1.56264 0.207292)
(1.41933 1.668 0.47415)
(1.07278 2.03054 0.88605)
(1.43529 2.03121 1.41219)
(0.889762 1.94322 1.96303)
(-0.677707 0.99735 1.53503)
(-0.0936374 0.862074 0.169752)
(-0.444596 -0.488537 0.456225)
(-0.325345 -0.284032 -0.224914)
(-0.00122862 -0.192952 0.198022)
(0.943632 -0.142258 -0.288536)
(-0.202111 0.419886 0.541282)
(-0.709231 0.494226 0.395338)
(1.00304 1.16649 0.763208)
(0.634264 1.86954 1.02746)
(0.446473 1.48456 0.865141)
(0.074786 1.4085 1.17278)
(0.848775 1.02671 0.0963709)
(0.330535 0.498597 0.432724)
(0.675185 -0.246804 -0.186462)
(-0.154417 -1.56238 -0.0544842)
(-0.551779 -1.49201 0.055382)
(-0.453635 -1.14634 -0.189335)
(-0.427173 -0.517801 0.00924799)
(-0.390136 -0.448357 -0.20375)
(-0.231524 -0.0492062 -0.81511)
(-0.461394 0.0487682 -0.538788)
(-0.530815 0.289116 -0.944139)
(0.431467 0.840446 -0.942727)
(0.790076 1.03656 -0.684374)
(0.815296 0.999609 -0.850052)
(1.15213 0.140246 -1.42447)
(1.31991 -0.437546 -0.703822)
(1.20578 0.212934 -0.356067)
(-1.14977 1.72373 -0.0484678)
(-0.919733 2.09884 0.184378)
(-1.25843 1.75973 0.0944435)
(-0.286564 2.48086 0.371175)
(-0.55506 2.37526 0.0626615)
(-0.869856 2.08141 0.100623)
(-0.297998 2.83836 0.203417)
(-0.506027 2.76471 0.0392701)
(-0.0640385 2.71079 0.110409)
(-0.0447159 2.54198 0.270389)
(-0.809944 2.31371 0.104261)
(0.0811053 2.94663 0.582661)
(0.0789889 3.02815 0.438363)
(-0.11465 3.0485 0.300069)
(0.12324 2.86239 -0.159578)
(-0.048839 2.81221 0.319722)
(-0.551418 2.62051 -0.193252)
(0.611044 3.04364 1.29241)
(0.282238 3.06722 0.787209)
(0.505181 2.93925 0.615878)
(0.518257 3.0845 0.446588)
(0.515457 3.37331 0.121781)
(0.181498 2.99227 0.341277)
(-0.4284 3.00551 -0.221274)
(0.598276 3.73012 2.1844)
(0.912551 3.72275 1.7922)
(1.05777 3.65727 1.46151)
(0.374615 3.78627 0.568965)
(0.682565 3.39125 0.77765)
(0.606889 3.53942 0.624188)
(0.279705 3.63324 0.208761)
(-0.422004 3.15426 0.280316)
(0.339692 4.14611 2.79773)
(0.845885 4.1086 2.85985)
(1.92826 3.40239 2.74716)
(1.99099 3.58243 2.30909)
(2.04527 3.68555 1.91126)
(0.392412 3.90441 0.644754)
(0.653061 3.59029 0.872928)
(1.07864 3.80337 0.400724)
(-0.307027 3.31718 0.308728)
(0.941855 3.9713 2.52941)
(0.869709 4.09284 3.16517)
(1.87374 3.93664 2.80378)
(2.51541 3.16239 2.92825)
(1.98154 3.76746 2.47251)
(1.59763 3.91346 1.86293)
(0.858834 3.72583 1.48501)
(1.04113 3.70604 0.775879)
(0.57772 3.96277 0.810004)
(-0.18871 3.45315 -0.186839)
(-0.750029 3.13115 1.60393)
(-0.473968 2.81256 1.75241)
(1.02038 3.83392 0.925171)
(2.53706 3.57268 1.13927)
(2.79079 2.51189 2.33764)
(2.1642 2.68705 2.60928)
(1.6848 3.34158 2.04568)
(1.61268 3.66819 1.69586)
(1.40776 3.87927 0.984616)
(1.36397 3.72021 1.47933)
(1.04892 3.97656 0.178956)
(-0.176084 1.5007 2.17735)
(-0.28782 1.40994 2.06067)
(0.243147 1.32838 1.38996)
(0.460229 0.966569 1.13524)
(1.73266 2.11726 -0.00624722)
(2.22591 2.54966 0.910629)
(2.57139 1.66754 1.99197)
(1.67464 2.08859 2.43798)
(1.99166 3.34814 1.49698)
(1.61898 3.28096 1.57285)
(1.10699 3.61253 1.48052)
(2.05703 3.57491 0.587665)
(-0.183882 0.887242 1.1647)
(-0.415737 0.607034 0.880075)
(-0.192825 0.234985 1.09276)
(0.566727 0.322501 -0.264423)
(0.138311 0.0460003 -0.0385348)
(0.00319567 0.62052 1.00972)
(1.17446 1.76431 -0.0451926)
(1.25693 1.95157 0.0746681)
(1.09206 2.01261 1.12146)
(1.57664 1.89958 1.63441)
(0.80052 1.93021 1.86668)
(-0.712644 1.0725 1.57645)
(0.020486 0.91456 0.211228)
(-0.765689 -1.60937 0.0836699)
(-0.409915 -0.460999 0.446011)
(-0.24993 -0.285382 -0.153866)
(0.102052 -0.20341 0.207914)
(0.944208 -0.125384 -0.150264)
(-0.232802 0.423263 0.594284)
(-0.77749 0.536041 0.353808)
(1.35112 0.977832 0.364188)
(1.00805 1.63725 1.06441)
(0.446803 1.50652 0.850231)
(0.162312 1.42113 1.30461)
(0.897377 0.955176 0.0804714)
(0.321346 0.347408 0.451977)
(0.665693 -0.316983 -0.215089)
(-1.06403 -1.28387 0.556773)
(-0.0868299 -1.5731 -0.0543839)
(-0.544211 -1.48825 0.0481788)
(-0.542163 -1.10571 -0.190571)
(-0.389564 -0.5121 0.0123881)
(-0.357503 -0.41577 -0.210893)
(-0.204606 -0.0597113 -0.853544)
(-0.452131 0.0326944 -0.560499)
(-0.48929 0.307962 -0.980512)
(0.431204 0.835269 -0.937781)
(0.808786 0.990159 -0.799987)
(0.849641 0.974846 -0.866953)
(1.16168 0.0592136 -1.45224)
(1.31104 -0.502793 -0.617621)
(1.16283 0.225524 -0.379301)
(-0.79059 2.12321 -0.0191677)
(-0.934795 1.82345 -0.0567986)
(-0.374305 2.30026 0.0794914)
(-0.759328 2.15039 0.0662628)
(-1.0668 1.85557 0.142063)
(-0.378216 2.46947 0.158183)
(0.00640472 2.46097 0.352251)
(-0.527282 2.2601 0.103447)
(-0.666684 2.14504 0.102246)
(-0.180296 2.7566 0.414261)
(-0.139468 2.79497 0.248102)
(-0.421508 2.79227 0.0537551)
(0.100355 2.66126 0.107857)
(-0.213763 2.4415 0.116415)
(-0.705418 2.3383 0.137048)
(0.330917 2.98737 0.808697)
(0.252424 2.99072 0.616552)
(0.189206 2.98416 0.406552)
(0.068909 2.9554 0.28655)
(0.157136 2.80345 -0.136989)
(-0.306044 2.81892 -0.195523)
(-0.55666 2.65334 0.0148557)
(0.316804 3.21677 1.38744)
(0.499253 3.07218 1.23652)
(0.592605 3.08561 0.824884)
(0.461756 3.02383 0.468777)
(0.663539 3.09792 0.348277)
(0.475443 3.35854 0.0896307)
(0.457834 2.90548 0.523846)
(-0.310894 2.95152 -0.0312696)
(0.838091 3.69672 2.25995)
(0.895815 3.74195 2.12182)
(0.964167 3.71207 1.72786)
(1.11462 3.5622 1.37752)
(0.576462 3.79467 0.663858)
(0.764428 3.49212 0.662403)
(0.763694 3.54167 0.457728)
(0.143503 3.5928 0.151885)
(-0.0260737 3.20224 0.259826)
(0.50405 4.18782 2.84947)
(0.613209 4.13983 2.80772)
(1.20418 3.96011 2.8091)
(1.9144 3.35006 2.78562)
(1.39425 3.87409 1.95746)
(0.903385 4.12219 1.44869)
(1.09407 3.79187 1.08163)
(0.962571 3.67197 0.946475)
(0.393195 4.0682 0.748663)
(0.331636 3.39521 -0.0230423)
(0.156203 4.13715 2.05189)
(1.35401 3.90152 2.50896)
(1.14573 4.04851 3.2162)
(2.14445 3.61313 3.00825)
(2.4593 3.25226 2.91243)
(1.97436 3.70298 2.23119)
(1.3761 4.12589 1.78338)
(1.01957 3.85115 1.3522)
(0.863633 3.86748 0.806706)
(0.806762 3.88396 0.898024)
(0.100032 3.47468 -0.279961)
(-0.533226 3.26599 1.85727)
(-0.178498 3.22071 1.62784)
(-0.235421 3.13811 1.52722)
(1.34025 3.87652 0.961032)
(2.6623 3.13452 1.68099)
(2.79385 2.26037 2.79371)
(2.09892 2.76517 2.58327)
(1.4995 3.43208 1.94805)
(1.71145 3.62641 1.71856)
(1.55629 3.78872 0.984487)
(1.40307 3.90505 1.3302)
(1.37585 3.8333 0.253045)
(-0.507505 2.27533 2.24248)
(-0.0488243 1.39258 2.35482)
(0.0581111 1.45164 1.9251)
(0.255141 1.29146 1.36596)
(0.570031 1.17208 1.15094)
(1.99019 2.3059 0.203807)
(2.41074 2.50832 1.41776)
(2.12907 1.72532 2.57538)
(1.71775 2.18948 2.46425)
(2.15869 3.21729 1.6295)
(1.67509 3.22899 1.46872)
(1.37877 3.40348 1.50573)
(2.22765 3.43342 0.559097)
(-0.533931 2.02802 2.10668)
(-0.153571 0.941365 1.54531)
(-0.463837 0.687926 1.00931)
(-0.107625 0.316457 1.12686)
(0.748966 0.266348 -0.311988)
(0.0600086 0.0281183 -0.0165516)
(0.164552 0.726901 1.13837)
(1.22831 1.94337 -0.128609)
(1.39666 1.8439 0.359324)
(1.37271 1.74954 1.31609)
(1.65081 1.8433 1.62719)
(0.764802 1.91187 1.78635)
(-0.675038 1.24999 1.53482)
(0.0996959 0.823125 0.246952)
(-1.6232 0.555252 1.8568)
(-0.676549 -1.59603 0.127094)
(-0.373877 -0.430126 0.476377)
(-0.0639739 -0.33698 -0.109332)
(0.219449 -0.225918 0.201757)
(0.899967 -0.0840682 -0.0350493)
(-0.282948 0.439459 0.655347)
(-0.836304 0.598582 0.288644)
(1.31635 0.959887 0.303634)
(1.15822 1.49751 0.934845)
(0.48417 1.47409 0.798315)
(0.255306 1.41298 1.3738)
(0.933528 0.893098 0.115606)
(0.320647 0.200248 0.432951)
(0.655483 -0.36603 -0.232147)
(-1.12828 0.100733 0.44036)
(-1.06139 -1.29888 0.561722)
(-0.0430945 -1.57786 -0.0507843)
(-0.548402 -1.4797 0.0470339)
(-0.405912 -1.15176 -0.184412)
(-0.362527 -0.49784 0.0257074)
(-0.336897 -0.383328 -0.207189)
(-0.17692 -0.0743433 -0.891213)
(-0.474146 0.035773 -0.548181)
(-0.446534 0.32039 -1.01884)
(0.464466 0.818444 -0.926306)
(0.769681 0.993165 -0.828108)
(0.833109 0.969354 -0.870091)
(1.21134 0.0452291 -1.51174)
(1.26914 -0.546511 -0.542561)
(1.11312 0.238601 -0.404951)
(-0.824711 1.75397 0.00314152)
(-0.380563 2.25961 -0.0453995)
(-0.339578 2.19432 -0.0123929)
(-0.794562 1.88552 -0.0569355)
(-0.370203 2.36856 0.274975)
(-0.169212 2.32928 0.144797)
(-0.515389 2.19815 0.0389442)
(-0.879927 1.96793 0.204245)
(-0.470639 2.66787 0.222338)
(-0.299188 2.49475 0.137894)
(0.148926 2.39727 0.312308)
(-0.392448 2.29045 0.0387661)
(-0.591015 2.21056 0.0522579)
(-0.213886 2.89253 0.558044)
(-0.00814466 2.73191 0.446267)
(-0.124856 2.76521 0.208403)
(-0.425213 2.80748 0.0817551)
(0.109928 2.65262 0.0302996)
(-0.273823 2.43602 0.0729302)
(-0.479303 2.45903 0.000343872)
(0.0581571 3.09612 0.946907)
(0.349515 2.96215 0.769054)
(0.269947 3.00002 0.602268)
(0.479976 2.88244 0.466042)
(0.317558 2.81805 0.267275)
(0.144241 2.85883 -0.0142527)
(-0.22176 2.8633 -0.033199)
(-0.465626 2.66551 0.0551587)
(0.258897 3.40157 1.41103)
(0.60408 3.07883 1.41256)
(0.883005 3.11965 1.3676)
(0.608618 3.03877 0.56783)
(0.769338 3.07291 0.536435)
(0.557778 3.14113 0.476766)
(0.496625 3.22861 -0.0799793)
(0.242441 2.99181 0.206737)
(0.000385986 2.90445 0.0547481)
(0.240017 3.81407 2.17508)
(0.687605 3.71551 2.1251)
(1.03685 3.7741 2.00744)
(1.45278 3.56672 1.6948)
(1.1138 3.69797 1.25095)
(0.657794 3.776 0.60301)
(0.786496 3.52837 0.656297)
(0.886912 3.50887 0.4303)
(0.533376 3.64622 0.00934569)
(0.140275 3.20231 0.251828)
(0.30891 4.15895 2.70365)
(0.37053 4.16021 2.83369)
(0.643188 4.16333 2.78535)
(1.57678 3.62688 2.7305)
(2.17333 3.34047 2.51099)
(1.35423 3.87276 1.72476)
(1.43292 3.89039 1.34628)
(1.16806 3.84303 1.17354)
(1.1571 3.70163 1.09977)
(1.38283 3.80873 0.575555)
(0.411118 3.504 0.0419096)
(-0.0760924 4.23166 1.75939)
(0.520346 4.17265 1.98878)
(1.4415 3.75983 2.76659)
(1.43906 3.96291 3.20427)
(1.9847 3.56713 3.07579)
(2.03718 3.36753 2.86047)
(1.76518 3.76694 2.12348)
(1.47948 4.11205 1.68172)
(1.29126 3.70767 1.56262)
(1.34754 3.73936 0.74603)
(1.22721 3.81145 1.08266)
(0.22948 3.52063 -0.237742)
(-1.10292 3.31566 2.06418)
(-0.327113 3.25886 1.86038)
(-0.241728 3.31848 1.51249)
(0.202649 3.10504 1.33233)
(1.95599 3.72151 0.71584)
(2.72367 2.93714 2.01437)
(2.5554 2.21123 3.14139)
(1.49039 2.88337 2.75495)
(1.73793 3.29034 1.89591)
(1.69301 3.62951 1.63904)
(1.73537 3.68793 0.991688)
(1.65363 3.8723 1.36097)
(1.53818 3.76222 0.282467)
(-1.34677 2.61124 2.53154)
(-0.266017 2.23375 2.40969)
(-0.0435769 1.48797 2.41984)
(0.225142 1.44812 1.83016)
(0.335514 1.25113 1.31623)
(0.796947 1.30569 1.12695)
(2.14048 2.46512 0.322919)
(2.51264 2.33607 1.60154)
(2.04133 1.67749 2.60906)
(1.84442 2.23132 2.39011)
(2.20679 3.17967 1.68275)
(1.81009 3.03594 1.49632)
(1.77373 3.05044 1.64483)
(2.91219 2.99758 0.491166)
(-1.13338 2.62558 1.68451)
(-0.491795 1.94616 2.21868)
(-0.226649 1.04109 1.78229)
(-0.467544 0.712839 1.17443)
(-0.0367181 0.416713 1.12626)
(0.858107 0.226336 -0.264688)
(-0.0394294 0.032626 0.0579654)
(0.337312 0.796644 1.09141)
(1.44309 1.93958 0.0232523)
(1.53723 1.75921 0.275534)
(1.53844 1.60885 1.27495)
(1.71183 1.77974 1.64959)
(0.943024 1.61955 1.78971)
(-0.632619 1.29331 1.55919)
(0.233097 0.809824 0.292707)
(-0.949921 2.13475 1.12732)
(-1.51939 0.57397 1.90667)
(-0.777602 -1.49819 0.132644)
(-0.314373 -0.438089 0.495827)
(-0.0321089 -0.35336 -0.100374)
(0.336278 -0.270281 0.173252)
(0.852104 -0.0649395 0.0666186)
(-0.35348 0.46924 0.71413)
(-0.831562 0.649643 0.282169)
(1.45953 0.825072 -0.0283252)
(1.16382 1.48112 0.738575)
(0.559735 1.41129 0.592284)
(0.335216 1.36139 1.34081)
(0.979867 0.797335 0.125028)
(0.303863 0.067154 0.403904)
(0.602794 -0.446814 -0.242349)
(-0.457231 0.343573 0.275544)
(-1.13822 0.102382 0.448186)
(-1.09637 -1.29144 0.560139)
(-0.0137691 -1.59402 -0.0595512)
(-0.56423 -1.47139 0.0519519)
(-0.503534 -1.06811 -0.224314)
(-0.333231 -0.48957 0.0415737)
(-0.28648 -0.367769 -0.224159)
(-0.155479 -0.0947912 -0.921955)
(-0.45 0.0111058 -0.576008)
(-0.400415 0.329703 -1.05617)
(0.494009 0.781508 -0.949831)
(0.790269 0.944087 -0.828026)
(0.827931 0.936315 -0.990581)
(1.18849 -0.00726383 -1.49991)
(1.1978 -0.515082 -0.551717)
(1.12052 0.27629 -0.435743)
(-0.908697 1.57326 -0.0722577)
(-0.511813 2.11869 -0.00625095)
(-0.677153 1.78174 0.0171991)
(-0.543861 2.23108 0.080038)
(-0.116099 2.25516 -0.0901355)
(0.0140462 2.23628 -0.0471368)
(-0.614652 1.9837 -0.0917214)
(-0.431614 2.47565 0.25329)
(-0.224101 2.35402 0.234876)
(-0.0197478 2.3667 0.128017)
(0.0183798 2.36524 0.0496056)
(-0.731009 2.03927 0.214808)
(-0.27016 2.59241 0.341186)
(-0.371533 2.57064 0.199037)
(-0.203535 2.54055 0.154198)
(0.0996009 2.41322 0.219202)
(0.0615704 2.4035 0.13199)
(-0.542435 2.25358 0.0555675)
(-0.122194 2.88375 0.888777)
(0.130845 2.78076 0.633641)
(0.216906 2.68039 0.51566)
(-0.0556108 2.73292 0.276647)
(-0.236467 2.7637 0.1323)
(0.0323431 2.69486 0.0225736)
(0.242747 2.52644 0.136883)
(-0.497497 2.49847 -0.0256897)
(0.208859 3.11764 1.05416)
(0.358285 3.05116 0.983496)
(0.669544 2.96153 0.807001)
(0.308872 2.90499 0.595361)
(0.593552 2.77324 0.406467)
(0.311641 2.79448 0.210805)
(0.115705 2.9161 0.0794429)
(-0.325408 2.83833 0.0177107)
(-0.357355 2.6643 0.141658)
(0.354206 3.4562 1.5412)
(0.531618 3.27915 1.41863)
(0.884317 3.0579 1.48271)
(0.939168 3.17449 0.942403)
(0.910339 3.01462 0.656417)
(0.738667 3.16718 0.363464)
(0.779914 3.23604 0.474532)
(0.372952 3.19531 0.113827)
(0.195457 3.07279 0.173986)
(0.148686 2.91822 0.0395517)
(-0.152427 3.85962 2.04584)
(1.13396 3.61704 2.17472)
(0.979653 3.71562 2.11)
(1.28846 3.71559 1.72836)
(2.02025 3.27481 1.42987)
(1.18463 3.74723 1.21463)
(1.34697 3.53257 0.827829)
(1.25525 3.42256 0.740901)
(0.912336 3.62737 0.343607)
(0.311442 3.69032 0.115903)
(0.280559 3.17267 0.206147)
(0.0108054 4.18745 2.42058)
(0.416467 4.15149 2.76024)
(0.765248 4.02722 2.82254)
(1.37519 3.96071 2.6037)
(1.68089 3.52025 2.68569)
(2.19483 3.10085 2.20877)
(1.71583 3.79869 1.60054)
(1.38854 4.15467 0.962395)
(1.28871 3.80754 1.04585)
(1.34998 3.62541 1.0248)
(1.31587 3.79168 0.510061)
(0.591752 3.57406 -0.0112934)
(-0.268728 4.17023 1.55975)
(0.0541938 4.19786 1.66727)
(0.705057 4.04423 2.10873)
(0.774258 3.70403 3.00741)
(1.83475 3.71235 3.06639)
(2.01859 3.53524 3.13842)
(1.86389 3.29874 2.66345)
(1.73385 3.86307 1.90536)
(1.70178 3.78771 1.32278)
(1.42876 3.67243 1.425)
(1.49559 3.66443 0.782576)
(1.46744 3.80457 1.11782)
(0.338016 3.51994 -0.14904)
(-0.898382 3.60377 1.47401)
(-1.01894 3.26311 2.06289)
(-0.0808243 3.24931 1.78789)
(-0.0591492 3.2595 1.34071)
(0.45579 3.07572 1.12131)
(2.03955 3.48732 0.960783)
(2.81176 2.73726 2.59393)
(2.23727 2.31108 3.21124)
(1.86907 2.73726 2.45533)
(1.98549 3.15587 1.89469)
(1.803 3.53112 1.49887)
(1.92962 3.5255 1.10014)
(1.74304 3.77207 1.33602)
(1.71854 3.63789 0.239035)
(-1.06707 3.09881 1.99269)
(-1.5428 2.40638 2.61112)
(-0.37093 2.05127 2.60525)
(0.0645469 1.47352 2.47594)