/*--------------------------------*- C++ -*----------------------------------*\
  =========                 |
  \\      /  F ield         | OpenFOAM: The Open Source CFD Toolbox
   \\    /   O peration     | Website:  https://openfoam.org
    \\  /    A nd           | Version:  7
     \\/     M anipulation  |
\*---------------------------------------------------------------------------*/
FoamFile
{
    version     2.0;
    format      ascii;
    class       volScalarField;
    location    "9";
    object      nut;
}
// * * * * * * * * * * * * * * * * * * * * * * * * * * * * * * * * * * * * * //

dimensions      [0 2 -1 0 0 0 0];

internalField   nonuniform List<scalar> 
18750
(
0.000620997
0.00126461
0.000376079
0.000716513
0.00151959
0.000958287
0.00109888
0.000303175
0.000649889
0.000423969
0.00198567
0.00182588
0.00380347
0.001087
0.000644834
0.000965833
0.000306273
0.000266653
0.000545942
0.000180466
0.00201662
0.00198961
0.000693636
0.0015351
0.000748349
0.000936582
0.00150868
0.00141082
0.000818828
0.0003674
0.000304604
0.000504343
0.000621144
0.000215347
0.000251488
0.0017452
0.00241999
0.000868949
0.0020837
0.000705783
0.000560155
0.00120943
0.000840057
0.00127256
0.000494567
0.00146547
0.00144962
0.000954039
0.000483839
0.000563383
0.000319666
0.000682923
0.000627285
0.000297925
0.000261747
0.000245382
0.0026221
0.00201565
0.000527534
0.00260507
0.00124219
0.000415282
0.00199327
0.000766313
0.000777281
0.000201401
0.00106749
0.00101546
0.00143303
0.00052953
0.000624102
0.00126172
0.00122296
0.000751158
0.000570772
0.000572936
0.000680841
0.000347063
0.000801367
0.000560716
0.00041172
0.000281862
0.000250502
0.000368738
0.0026508
0.00259602
0.000695634
0.00200742
0.000861548
0.00106327
0.00222455
0.000894271
0.000543117
0.000281197
0.00191201
0.000788714
0.000796631
0.000314918
0.000323384
0.000789121
0.000658528
0.00161064
0.000270833
0.000578792
0.000791259
0.000919944
0.000836807
0.000541141
0.000643552
0.000722555
0.000954864
0.00137895
0.000355474
0.000847758
0.000570176
0.000489902
0.000306545
0.000257155
0.000254612
0.000339003
0.00254267
0.00256298
0.00065802
0.00244922
0.000437331
0.000169185
0.00243309
0.000758426
0.000455347
0.000477368
0.00293688
0.00108148
0.000696179
0.000761508
0.00087161
0.00188081
0.000914985
0.000778636
0.000380925
0.00016492
0.000249362
0.000761515
0.000776658
0.001738
0.000214654
0.000434205
0.000776288
0.00108612
0.000567335
0.000358242
0.000849465
0.000594076
0.000818107
0.00102467
0.00122335
0.000718467
0.000342954
0.00080711
0.000589601
0.000536427
0.00032377
0.000261866
0.000238415
0.000324528
0.000158065
0.0024023
0.00239857
0.000781373
0.00256901
0.000699831
0.000396251
0.00254326
0.000351584
0.000482243
0.000895717
0.00281846
0.000701468
0.000519082
0.0013218
0.00150111
0.00280866
0.00110035
0.000838744
0.000766073
0.000753226
0.000990383
0.00149642
0.000952801
0.00116269
0.000502634
0.000327597
0.000364584
0.000898429
0.000714513
0.000921862
0.00106503
0.000475124
0.000506998
0.000660261
0.000589951
0.00062578
0.000682375
0.000449154
0.00101151
0.000803029
0.000802537
0.000934511
0.000787941
0.00109982
0.000708871
0.000331753
0.000688576
0.00053867
0.000577537
0.000335352
0.00027097
0.000315879
0.000306654
0.000183351
6.68197e-05
0.00254634
0.00229017
0.000473212
0.00243681
0.000741021
0.000584232
0.0026248
0.000605592
0.000491751
0.000450987
0.00240321
0.00040014
0.000674472
0.000510426
0.000620726
0.00249375
0.000770869
0.000531577
0.000589965
0.00124762
0.00152941
0.00206632
0.00105023
0.000629095
0.000588985
0.000557996
0.000807664
0.000370886
0.00222764
0.0014159
0.001139
0.000577584
0.000357684
0.000385495
0.000832449
0.000739162
0.000829085
0.000766932
0.000685307
0.00108512
0.000760901
0.000911517
0.000617849
0.000760198
0.000557662
0.000802034
0.000403368
0.000949887
0.000508654
0.00084575
0.00089343
0.000718448
0.00113781
0.000742076
0.000434023
0.000327878
0.000538118
0.00054985
0.000519642
0.000359492
0.000283965
0.000326077
0.000300392
0.000216778
0.000125903
0.000301921
0.00230547
0.00261662
0.000615201
0.00240293
0.000542703
0.000454921
0.00252914
0.000664353
0.000514837
0.000738632
0.00261273
0.000540878
0.000582925
0.000591967
0.000775992
0.00239595
0.000358551
0.000386365
0.000446238
0.000508533
0.00108403
0.00343626
0.000830009
0.000649877
0.000545877
0.000965874
0.00101745
0.00108712
0.00330079
0.00144691
0.00089191
0.000711266
0.000730243
0.000224911
0.000410666
0.000430656
0.00215638
0.000924427
0.000475713
0.000569268
0.000499915
0.000442044
0.000671043
0.000527989
0.00073906
0.000909247
0.000330429
0.00055966
0.00212154
0.000649743
0.0010522
0.000620653
0.000542113
0.000475472
0.000360565
0.000802396
0.000395421
0.000657643
0.000737866
0.000976314
0.000804518
0.00107009
0.00106475
0.00138199
0.00093566
0.000883869
0.000335833
0.000377003
0.000507218
0.000445261
0.000400754
0.000296682
0.000398116
0.000295354
0.000277118
0.000185965
0.0002724
0.000249226
0.00218086
0.00242964
0.000541226
0.00254533
0.00254868
0.000648342
0.000449193
0.00230606
0.000601001
0.000405116
0.000732744
0.00236507
0.000736518
0.000412066
0.000603225
0.000614901
0.00268853
0.00057859
0.000764272
0.000506563
0.000690947
0.000665102
0.0025788
0.000305575
0.000497725
0.000538151
0.00067562
0.00050348
0.000889504
0.00254209
0.00148984
0.00090185
0.00139952
0.00137332
0.000757344
0.000659161
0.000671435
0.00344527
0.00153343
0.00106188
0.000331286
0.00120062
0.000876347
0.000577294
0.000478967
0.000380504
0.00219155
0.00104924
0.00216387
0.000834638
0.000336091
0.000605196
0.000712677
0.000781296
0.000779456
0.000700465
0.000884085
0.000219872
0.000486769
0.00172664
0.000408326
0.000804675
0.00031034
0.00052114
0.000587358
0.000460228
0.000730183
0.000781252
0.00045063
0.000431994
0.00108858
0.000810449
0.000732264
0.00131601
0.00105623
0.0018526
0.0010626
0.00131338
0.000719852
0.000352355
0.000240137
0.000467666
0.000367459
0.000419372
0.000299294
0.000447765
0.000290862
0.000365418
0.000141681
0.000180087
0.000322779
0.000448148
0.00209686
0.00232272
0.000634003
0.00237368
0.00234555
0.000586096
0.000318569
0.000725899
0.00258267
0.000381353
0.00029933
0.00049116
0.00228676
0.000432303
0.000578876
0.000357638
0.000865476
0.00244249
0.000744667
0.000601536
0.000340248
0.000599969
0.0002187
0.00262147
0.000763442
0.000569725
0.000393901
0.00058044
0.000384302
0.000538866
0.00252022
0.000520653
0.000392017
0.000372494
0.000607899
0.000851771
0.00127169
0.000716762
0.00249553
0.000745141
0.00142831
0.00074773
0.00115093
0.00105943
0.00189459
0.00048533
0.000326246
0.00236797
0.00101458
0.00128552
0.00109822
0.000380981
0.000546752
0.000578156
0.000408145
0.00050052
0.000804775
0.00206666
0.000823018
0.00205866
0.0010111
0.000589692
0.000649548
0.000781752
0.00111262
0.000719911
0.000321939
0.000707643
0.000924682
0.000389423
0.000521231
0.000584784
0.000570233
0.00075214
0.00021756
0.000218775
0.000582854
0.00111049
0.000978842
0.000809601
0.000702651
0.000386469
0.000381569
0.00100962
0.000515831
0.000895875
0.00141125
0.000970769
0.0019769
0.000809158
0.00147088
0.000965452
0.00138187
0.000371653
0.000177095
0.000431568
0.000293662
0.000432824
0.000291288
0.000456785
0.000296704
0.000442023
0.000233324
0.000276274
0.000145434
0.000364987
0.000123183
0.00205038
0.00212387
0.000509426
0.00230571
0.00215285
0.000617354
0.000532713
0.000655831
0.00244425
0.000609734
0.000410453
0.000570522
0.000599262
0.00259782
0.000439547
0.000342509
0.000616055
0.000595534
0.00224594
0.000606436
0.000615275
0.000324593
0.000632093
0.000555363
0.00246008
0.000827405
0.000466633
0.000600099
0.000640572
0.000261897
0.000550561
0.00248227
0.000682818
0.000460697
0.000310462
0.000343515
0.00102614
0.000571746
0.000789053
0.00236866
0.0005682
0.000416308
0.00140318
0.000574052
0.000957954
0.000683618
0.0009284
0.000354584
0.00281035
0.000770871
0.00137535
0.00203344
0.000869929
0.000528975
0.00108533
0.00101328
0.000771566
0.00063023
0.00311636
0.00225777
0.000861797
0.00107614
0.000663133
0.000911736
0.000307421
0.000746183
0.000197987
0.000830465
0.000892734
0.00269089
0.0012027
0.00100363
0.00110729
0.000958095
0.000946869
0.000816394
0.00100948
0.00152024
0.000642664
0.000539539
0.00102724
0.00114824
0.000411951
0.000367943
0.000777765
0.00113269
0.000854136
0.000513049
0.000736865
0.00052399
0.000951948
0.000860601
0.00100025
0.000744754
0.000610724
0.000406242
0.000360411
0.00120626
0.000620169
0.00107092
0.00130413
0.000501854
0.00168075
0.00104774
0.000989006
0.00110436
0.00104169
0.0012174
0.000388829
0.000170806
0.000317779
0.000303922
0.000413788
0.000276288
0.000448156
0.000291688
0.000473729
0.000406595
0.000388013
0.000171504
0.000290219
0.000198708
0.000132928
0.00200439
0.00204159
0.000417349
0.0021959
0.00209298
0.000601481
0.000391142
0.00060342
0.00241279
0.000744023
0.000448901
0.000514002
0.00057748
0.00267491
0.00035536
0.000592127
0.000521993
0.000677555
0.000684359
0.00250461
0.000638351
0.000244716
0.000547249
0.000714681
0.000681412
0.00226764
0.000570395
0.000550044
0.000447351
0.000348494
0.000675483
0.000791328
0.00250884
0.000909221
0.000551472
0.000492885
0.000580796
0.000800842
0.000498642
0.000581246
0.00264071
0.000772128
0.000476406
0.000400759
0.000338739
0.000296561
0.000634031
0.000866177
0.000566897
0.00251623
0.000926207
0.000468431
0.000475084
0.000972775
0.000474761
0.000429689
0.00105277
0.000777272
0.00110165
0.00307994
0.00228442
0.00099846
0.00166896
0.00119629
0.000883692
0.000200742
0.000919056
0.00032467
0.000551974
0.000718063
0.00462963
0.0018965
0.000909124
0.00129343
0.000625219
0.000643796
0.000634698
0.000598318
0.000698613
0.000821467
0.000550299
0.00073138
0.00273561
0.000685045
0.00126863
0.00108207
0.000829777
0.000933088
0.0011213
0.00114132
0.00110286
0.000321178
0.000532152
0.00109007
0.000851051
0.00180223
0.000362952
0.00026442
0.000907764
0.00126481
0.000872972
0.000542357
0.000423625
0.000723354
0.00068594
0.000897236
0.000734592
0.000778857
0.000940285
0.0004884
0.000504083
0.000308377
0.00122323
0.00103209
0.00118965
0.0010309
0.000556306
0.00127135
0.00161452
0.000817783
0.000925197
0.000633101
0.0014895
0.000884772
0.000397365
0.000142925
0.000234228
0.000328906
0.00038219
0.000250664
0.000419481
0.000271794
0.000482059
0.000515829
0.000495272
0.00031907
0.000345007
0.000198523
0.000174197
0.00013675
0.00200783
0.00196217
0.000422792
0.00211583
0.00204734
0.000445181
0.000620765
0.000471845
0.00222223
0.00200877
0.000440135
0.000383611
0.000687039
0.000531084
0.00232654
0.000526965
0.000399363
0.000574372
0.000618028
0.000522544
0.00238293
0.000486735
0.000428886
0.000332206
0.00064722
0.000307323
0.000599004
0.00243681
0.000728332
0.000263377
0.000251721
0.000847844
0.000577373
0.000493011
0.00243092
0.000721156
0.000573225
0.00044223
0.000601566
0.000700089
0.000397294
0.000615217
0.00248564
0.00114074
0.000570675
0.000486468
0.000619868
0.000740561
0.000452468
0.000717223
0.000744903
0.00263963
0.00101083
0.000449439
0.000834564
0.00062399
0.000360395
0.000369985
0.000776549
0.000962238
0.000731409
0.0026056
0.000761512
0.000725217
0.000597739
0.000808477
0.000396178
0.000998743
0.000718332
0.00093253
0.00064296
0.000866879
0.00261034
0.00109859
0.00119589
0.000495951
0.00112016
0.00083013
0.00121657
0.00063036
0.000624955
0.00022577
0.000516082
0.000845467
0.00347152
0.00153134
0.00195336
0.00163893
0.0013478
0.000959503
0.000461746
0.00101904
0.000775039
0.000897451
0.000558274
0.00063247
0.000474647
0.00258703
0.00107498
0.000807102
0.00123357
0.00102273
0.000562311
0.000711219
0.000918843
0.00075037
0.00047505
0.000742409
0.000792374
0.000863252
0.0010456
0.00139738
0.000556362
0.000290133
0.000882489
0.000638
0.000504683
0.000432051
0.000819015
0.000700558
0.000423554
0.000764591
0.000776826
0.000652329
0.00216826
0.0008238
0.000400402
0.000590426
0.00026284
0.000903953
0.00115254
0.00112464
0.000678573
0.000839442
0.000659533
0.00156689
0.00088174
0.000730276
0.000494427
0.00115109
0.000971197
0.0010212
0.000387195
0.000112573
0.000167413
0.0003306
0.000346583
0.000213437
0.000381556
0.000250452
0.000462731
0.000588668
0.000606335
0.000362781
0.000337095
0.000194416
0.000136305
0.000144639
4.10309e-05
0.00201842
0.00192841
0.000246784
0.00219125
0.00199765
0.000393413
0.000290161
0.000434906
0.00215168
0.00209735
0.00045549
0.000462248
0.000394569
0.000712293
0.000501039
0.00201729
0.000427448
0.000515951
0.000470912
0.00047495
0.000559589
0.0021841
0.000678429
0.00045773
0.000564174
0.000655229
0.000356235
0.000423968
0.00241069
0.000518209
0.000471676
0.000591478
0.000460957
0.000363048
0.000382438
0.000555424
0.00254602
0.00048527
0.000620729
0.000321795
0.000648106
0.000498519
0.000385872
0.000579414
0.00240171
0.000876435
0.000637901
0.000531381
0.000558164
0.000418729
0.000540314
0.000572858
0.000365764
0.0026663
0.000826184
0.000808481
0.000461421
0.000367698
0.000651649
0.00059375
0.000635672
0.000550239
0.000714701
0.00263893
0.0010709
0.000481991
0.000732818
0.000478564
0.000806487
0.000723846
0.000346777
0.000755307
0.000687779
0.0009842
0.0026539
0.000814057
0.00100793
0.000659019
0.00091101
0.00103671
0.000716917
0.000544707
0.000591534
0.000845422
0.00068697
0.00104968
0.00291027
0.00274584
0.0020846
0.000781199
0.00141841
0.00046921
0.000769218
0.000441453
0.000750699
0.000693832
0.000477214
0.000813842
0.000366753
0.00291265
0.00287187
0.00067037
0.00108217
0.00119325
0.00081017
0.00080665
0.000893885
0.00107587
0.000646124
0.000673746
0.000537236
0.000792379
0.00083577
0.00242583
0.00103575
0.000553265
0.000752662
0.00133981
0.000579892
0.000443723
0.00057194
0.00152323
0.000846048
0.000797485
0.00106741
0.00110136
0.00071971
0.00052934
0.00108577
0.000544297
0.000537761
0.00105494
0.00055063
0.000578045
0.00143597
0.000724831
0.000681371
0.00122088
0.0008209
0.00058771
0.00125841
0.00168823
0.00033359
0.000235253
0.0004021
0.000674653
0.000216341
0.00061111
0.00106543
0.000948947
0.000499005
0.000805156
0.000602525
0.0013028
0.000895979
0.000835824
0.000461217
0.00126635
0.000840452
0.00100919
0.000482249
0.000375291
0.000121702
0.000134661
0.000306984
0.000320869
0.000199217
0.000338631
0.000246202
0.000398125
0.000607928
0.000687131
0.000447222
0.000413827
0.00024483
3.48379e-05
7.64974e-05
0.000146384
0.000206598
0.00207659
0.00210629
0.000302413
0.00220198
0.0019334
0.000304346
0.000315014
0.000336609
0.00209863
0.00194312
0.000481417
0.000458963
0.000466826
0.000434908
0.000406123
0.00209618
0.00045087
0.000545363
0.000353522
0.000437303
0.000450234
0.000759109
0.00218108
0.000364274
0.000627134
0.000365016
0.000490169
0.000365742
0.00050433
0.00227246
0.000412684
0.000533787
0.000460662
0.000520732
0.00037184
0.000454436
0.000366427
0.00241445
0.000512758
0.000628049
0.000428002
0.000390051
0.000412532
0.000343998
0.000454648
0.000686964
0.00256771
0.000480094
0.000718098
0.000387057
0.000338234
0.000546688
0.000412038
0.000450742
0.000487352
0.0024127
0.000759969
0.000568313
0.000666746
0.000555821
0.000506768
0.000611354
0.000439693
0.000322464
0.000334165
0.00247272
0.000910325
0.000594911
0.000601864
0.000678676
0.000499483
0.000805975
0.000319852
0.000665901
0.000587482
0.000650902
0.00258917
0.00092988
0.000652062
0.000475594
0.000713293
0.000520358
0.000591971
0.000291139
0.000739729
0.000900912
0.000652037
0.000619198
0.00272306
0.00100982
0.000363769
0.000889232
0.000856193
0.000893728
0.000880831
0.000584637
0.000632026
0.000735389
0.00095384
0.000660558
0.000862465
0.00331408
0.00115424
0.00103282
0.00158036
0.00120321
0.0015517
0.00116304
0.000791421
0.000717222
0.00028336
0.00094599
0.000516672
0.000710493
0.000404725
0.00296856
0.00128343
0.00136495
0.00108126
0.00090015
0.000917154
0.00080766
0.000975521
0.00112996
0.00059021
0.000662853
0.000756284
0.000896813
0.00104903
0.00168676
0.00297339
0.00087968
0.000663753
0.00050412
0.00116936
0.00148883
0.000656242
0.000622555
0.000600271
0.000625965
0.00107223
0.000772663
0.000908372
0.000324564
0.000610586
0.000750109
0.00139459
0.000507509
0.000817403
0.00115088
0.000860538
0.00152905
0.00121747
0.000574122
0.000631057
0.00153544
0.000839744
0.000645957
0.00104391
0.000925443
0.000355678
0.000216933
0.000382636
0.000451303
0.000742098
0.000238979
0.000559907
0.00100155
0.000839391
0.000385331
0.000554605
0.000546457
0.00132307
0.000784165
0.000928989
0.000452757
0.00125597
0.000900317
0.00100481
0.000410668
0.000183989
0.000376
0.000120633
0.000141586
0.000289676
0.000303476
0.000139811
0.000283947
0.000249196
0.00039046
0.000569749
0.000731597
0.000492587
0.000400654
0.000239558
3.26106e-05
0.000117866
0.000103124
0.000106341
0.000307517
0.00200908
0.00211563
0.000326578
0.00217523
0.00213507
0.000437603
0.000217311
0.000393235
0.00217777
0.00191164
0.000417288
0.000487708
0.000275143
0.000187761
0.000280568
0.00192703
0.000343997
0.000820582
0.000360612
0.000256803
0.000481689
0.000553704
0.00205628
0.000397846
0.000705557
0.000431461
0.000263931
0.00026236
0.000355634
0.000494678
0.00218154
0.000695833
0.000571925
0.000424005
0.000263225
0.000238724
0.000240481
0.00029103
0.00223619
0.00104596
0.000493214
0.000361774
0.000555026
0.000423903
0.00034191
0.000473545
0.000594765
0.00252709
0.000781044
0.000340841
0.000287438
0.000349391
0.000538228
0.000394429
0.000457132
0.00030272
0.000590374
0.00252801
0.000610459
0.00035279
0.000529621
0.000438842
0.000671249
0.000452873
0.000629462
0.000767164
0.000558767
0.00232775
0.000725293
0.000466483
0.000767823
0.000713152
0.000514419
0.000539199
0.000505934
0.000657842
0.000683241
0.000362683
0.00254845
0.00107048
0.000825302
0.00100687
0.000538303
0.000430284
0.000583122
0.000498579
0.000666119
0.000889571
0.000654811
0.000753902
0.00250265
0.000587482
0.000949851
0.000590813
0.000559842
0.0009618
0.000777794
0.000849687
0.000427925
0.000560511
0.00071457
0.000511546
0.000495336
0.00294451
0.00058543
0.000714896
0.00127219
0.000854884
0.00153299
0.000563163
0.000754906
0.000560384
0.000414573
0.000523398
0.000192262
0.000500993
0.000624653
0.00337686
0.00138654
0.000939769
0.00193472
0.00118514
0.00146839
0.000437999
0.000486424
0.000609674
0.000601513
0.000368171
0.000218095
0.00049934
0.000763557
0.00170798
0.00257675
0.0011064
0.00115702
0.000704272
0.00100073
0.00125541
0.000823418
0.000995274
0.00108347
0.000856517
0.000633312
0.000617583
0.00118297
0.00125734
0.00154716
0.000285913
0.00266646
0.000907725
0.000629817
0.00078854
0.000557061
0.000963363
0.00104909
0.000389842
0.000602451
0.000695064
0.00170693
0.00109728
0.00110252
0.000632277
0.000607825
0.000685638
0.000454572
0.00129463
0.000607953
0.000987056
0.000993219
0.00061919
0.000904544
0.000792481
0.00145484
0.00105182
0.000809491
0.00182281
0.0008885
0.00196054
0.00104793
0.000383126
0.000433492
0.000387407
0.000456115
0.000563509
0.000777761
0.000267312
0.000582671
0.00115497
0.000695673
0.00034898
0.000334556
0.000418728
0.00109764
0.000616921
0.000924687
0.000577065
0.00104827
0.000778345
0.000724159
0.000458898
0.000202643
0.000181758
0.000402862
0.000135001
0.000140069
0.000273476
0.000251393
0.000107227
0.000270145
0.000246988
0.000484411
0.000463583
0.000723932
0.000506019
0.00031447
0.000343463
0.000119387
0.000148351
6.97433e-05
8.64452e-05
0.000351641
0.000117376
0.00206429
0.00196821
0.000558209
0.00224718
0.00202036
0.000303218
0.000367784
0.000332042
0.0021423
0.00204052
0.000321648
0.00032793
0.000324427
0.000294183
0.000279662
0.00198696
0.000586643
0.000373722
0.000295228
0.000308213
0.000356122
0.000343606
0.00196882
0.000579422
0.000648427
0.000378371
0.000286835
0.00042995
0.000318457
0.00047944
0.00205545
0.000626113
0.000513645
0.000537927
0.000272561
0.000311774
0.000371597
0.000272993
0.000305735
0.0023234
0.00095944
0.00056437
0.000579206
0.000517881
0.000392433
0.000301193
0.000337023
0.00038889
0.00245296
0.000729293
0.000621579
0.000538885
0.000586718
0.00047229
0.000382293
0.00045162
0.000710084
0.000383556
0.00270406
0.000412645
0.000537396
0.000760909
0.000412806
0.000265681
0.000628348
0.000657844
0.000640343
0.000459129
0.00056417
0.00260614
0.000437949
0.000550573
0.000675183
0.000343685
0.000508621
0.000633837
0.000605083
0.000644959
0.000624993
0.000756411
0.00244939
0.000755887
0.000784646
0.0004376
0.000296459
0.00067779
0.000496299
0.000511672
0.000715309
0.000480601
0.000708962
0.000441523
0.0024521
0.000916066
0.00098592
0.00074608
0.000205568
0.000799179
0.000642101
0.000663243
0.000811005
0.000658851
0.000700135
0.000650231
0.000599132
0.00232447
0.000642878
0.000779673
0.000685872
0.000662752
0.000674055
0.000644037
0.000643066
0.000956681
0.000986611
0.00064617
0.00071109
0.000772034
0.000580359
0.00285913
0.0010627
0.00113258
0.00122312
0.00101542
0.000792942
0.000487559
0.000486685
0.000425625
0.000871262
0.000576816
0.000505818
0.000863197
0.00073047
0.000712413
0.00291333
0.00268155
0.000762257
0.00123445
0.00102521
0.00114361
0.00074777
0.000629522
0.000628889
0.000426736
0.000433316
0.000327785
0.00098791
0.000966791
0.00109816
0.00113703
0.00286361
0.00124853
0.000481693
0.00105931
0.00126958
0.00110111
0.00153897
0.00117236
0.0013462
0.000638972
0.000867663
0.000977754
0.00149468
0.0011464
0.00113451
0.000247258
0.000508177
0.00287336
0.00144633
0.00088925
0.000691778
0.000436085
0.000417955
0.00116941
0.000380163
0.000709779
0.000445969
0.000802306
0.001086
0.00111154
0.000911944
0.000415638
0.000469724
0.000433212
0.000590434
0.00138637
0.000755947
0.00102771
0.000750494
0.000602321
0.000624749
0.000960817
0.00110692
0.0016468
0.00155105
0.00227295
0.0012345
0.00251663
0.00084664
0.000654228
0.000560888
0.000438547
0.000496055
0.00066018
0.000653495
0.000796036
0.000341533
0.000639812
0.00111834
0.000630448
0.000385231
0.000298059
0.000454701
0.000903367
0.000551639
0.000786417
0.000765176
0.000730058
0.000924991
0.000441224
0.0004697
0.000231683
0.000213551
0.000215599
0.000371288
0.000161935
0.000118187
0.000267474
0.000220538
0.000104006
0.000245987
0.000236167
0.000567198
0.000350736
0.000672471
0.000513478
0.00022897
0.000327285
0.000105418
0.000262911
0.000135258
9.27319e-05
0.000365204
0.000131243
0.000126762
0.00206431
0.00203171
0.00033809
0.00219511
0.00207314
0.00046053
0.000478354
0.000626371
0.00225839
0.00211158
0.000348107
0.000272204
0.000487123
0.000420932
0.000477101
0.00202379
0.000230121
0.00049629
0.000223256
0.000467342
0.000563907
0.00027978
0.00202194
0.000591552
0.000249313
0.000293429
0.000218442
0.00034645
0.000323887
0.000378329
0.00198056
0.000625763
0.000563744
0.000415659
0.000294365
0.000290454
0.000255711
0.000324096
0.000288426
0.00208337
0.000473301
0.000464096
0.000512903
0.000530715
0.00040785
0.000387115
0.000419717
0.000377394
0.000369738
0.00223157
0.000587377
0.00063104
0.000669502
0.000297308
0.000451226
0.000346041
0.000382431
0.000799538
0.000488846
0.0022074
0.00067752
0.000706286
0.00058904
0.000263325
0.00047922
0.000388604
0.000618571
0.000718941
0.000419701
0.000200556
0.00269172
0.000351488
0.00030342
0.000517921
0.000581169
0.000393334
0.000438174
0.000444668
0.000583083
0.000427327
0.000601366
0.000485304
0.00246676
0.000539604
0.000373193
0.000473056
0.000371725
0.000387269
0.000531069
0.000492537
0.00074605
0.000537593
0.000827409
0.000378221
0.00236153
0.000676733
0.000571927
0.000517553
0.000559106
0.000599785
0.000697656
0.000563249
0.000556498
0.000511065
0.000492245
0.000490684
0.000475546
0.00263842
0.000724652
0.000661975
0.000492741
0.000576219
0.000620548
0.000681337
0.000628145
0.000588026
0.000561068
0.000521911
0.000536392
0.000631382
0.000843537
0.0027077
0.000865355
0.000462998
0.000483326
0.000842756
0.000566493
0.000892922
0.000660238
0.000777208
0.000861838
0.000855477
0.000637047
0.000667861
0.000654984
0.000967446
0.00282437
0.000360047
0.00100703
0.000754561
0.000926682
0.00066961
0.00121082
0.00103069
0.00107137
0.000697763
0.00101594
0.000675274
0.000533564
0.000476624
0.0010448
0.000866209
0.00298223
0.000993251
0.00140695
0.000995637
0.000913512
0.00100392
0.000949087
0.000781511
0.00115907
0.000453982
0.000617877
0.000563298
0.000611813
0.001292
0.00170537
0.00139674
0.000462467
0.00358232
0.00134691
0.000864019
0.00110826
0.000698465
0.000811022
0.00132626
0.00077578
0.00086867
0.000919694
0.000787469
0.000863369
0.000925909
0.001483
0.000238231
0.00029515
0.000274551
0.00052805
0.0027705
0.00139411
0.00122369
0.000614221
0.000298009
0.000846662
0.000872408
0.000661344
0.000299018
0.000967563
0.000812925
0.000885889
0.000954961
0.000743597
0.00046312
8.11374e-05
0.000554678
0.000634357
0.000552997
0.00128898
0.00102356
0.000862008
0.000667071
0.000628023
0.000959177
0.00104199
0.00103422
0.00124385
0.00152943
0.0015126
0.00223997
0.00190095
0.000684093
0.000782692
0.000614444
0.000401036
0.000585863
0.000490879
0.000465186
0.000725878
0.000762372
0.000464257
0.000721308
0.000937683
0.000524169
0.000435629
0.000474262
0.00044224
0.000741006
0.000596294
0.000740337
0.000778282
0.000736832
0.00115447
0.000386823
0.000488388
0.000278325
0.000201277
0.000193751
0.000350566
0.000312951
0.000179891
9.6513e-05
0.000269345
0.000208941
4.9664e-05
0.000198343
0.00021958
0.000614795
0.000403677
0.000564161
0.000481214
0.00041387
0.000209327
0.000190872
0.000187262
0.000110646
0.000120809
0.000363698
0.000140679
0.000126782
0.000141098
0.0020941
0.00203209
0.000405551
0.00217889
0.0020444
0.000318318
0.000344501
0.000341801
0.00224606
0.00208257
0.000303514
0.000588332
0.000250988
0.000569622
0.000570949
0.00212308
0.000408179
0.000234458
0.000354983
0.00085151
0.000543123
0.000623694
0.00210231
0.000376426
0.000580507
0.00026388
0.000363983
0.000369579
0.000364684
0.000694459
0.00205123
0.000538385
0.000246304
0.000308823
0.000118595
0.000305276
0.000534183
0.000439343
0.000370803
0.00202754
0.000660002
0.000543996
0.000316334
0.000367057
0.000219092
0.00020101
0.000302195
0.000482085
0.000290161
0.00209758
0.000577498
0.000423869
0.000558451
0.000364425
0.000376594
0.000236354
0.000377996
0.000283147
0.000591366
0.000405075
0.00204728
0.000689225
0.000465221
0.000686693
0.000504769
0.000386689
0.00037292
0.000428354
0.00016655
0.000688564
0.000780097
0.00279701
0.000712265
0.000520717
0.000910909
0.000733678
0.000475938
0.0004202
0.00047462
0.000476035
0.000835889
0.000486669
0.000459541
0.00277204
0.000374551
0.000460223
0.000681151
0.000401949
0.000555974
0.000318001
0.000644635
0.000599275
0.000770731
0.000420177
0.00051878
0.000571684
0.00240307
0.000489356
0.000531951
0.000610071
0.000420777
0.000530812
0.000332786
0.00068198
0.000441324
0.000810715
0.000384801
0.000431514
0.000561484
0.00248559
0.000702198
0.000709243
0.000708675
0.000727564
0.000478642
0.000470046
0.000708499
0.000515309
0.000489
0.000476236
0.000417188
0.000492692
0.000679402
0.00266317
0.000726603
0.000537472
0.000530571
0.000930474
0.000554705
0.0005245
0.000798687
0.000584596
0.000577538
0.00057351
0.000553229
0.000501987
0.000544202
0.000806958
0.00254053
0.000788283
0.000554936
0.000789071
0.00082407
0.000876269
0.00066628
0.000878557
0.000877887
0.00089905
0.000722905
0.000766885
0.000619607
0.00043981
0.000997547
0.0012933
0.0028447
0.000462933
0.000898101
0.000953387
0.00163047
0.00119237
0.000786915
0.000627166
0.000925123
0.00105096
0.000728142
0.000786594
0.000277715
0.000994828
0.0011172
0.000818787
0.000706992
0.00280431
0.000799817
0.00152066
0.000845962
0.000751572
0.00085908
0.000421556
0.000460338
0.000775416
0.000972913
0.000575703
0.000420522
0.00117774
0.00108137
0.00129436
0.00091364
0.000563262
0.000323094
0.00328736
0.00147286
0.00133408
0.000589916
0.000411086
0.000796727
0.00053019
0.000930014
0.000844659
0.0010227
0.00123002
0.000714552
0.00179443
0.00088239
0.000768332
0.000978117
0.000353465
0.000520393
0.000448499
0.00239422
0.00092935
0.00191776
0.000619671
0.000508943
0.000428872
0.000321553
0.000455443
0.000277835
0.000393532
0.000718853
0.000685818
0.000591862
0.000905782
0.000663218
0.000364278
0.000654554
0.000652958
0.000549296
0.000511659
0.00122618
0.00113701
0.000834665
0.000622329
0.000743999
0.00121245
0.00120886
0.00130976
0.00111445
0.00111555
0.000868288
0.00206048
0.00154469
0.000746084
0.000764647
0.000543495
0.000468023
0.000522101
0.000689413
0.000567776
0.000498335
0.000872736
0.000723269
0.000535846
0.000775313
0.000906509
0.000499317
0.000490099
0.000704707
0.000527022
0.000726492
0.000700943
0.000728183
0.000891697
0.000788592
0.00103517
0.000387259
0.000521697
0.000338957
0.000293877
0.000198021
0.000338455
0.000209939
0.000288495
0.00018549
0.000167318
0.000273161
0.000200751
5.90912e-05
0.000200273
0.000206516
0.000637285
0.000504607
0.000454645
0.000443679
0.000436209
0.000246051
0.000212796
8.22815e-05
6.87595e-05
0.000149987
0.000341242
0.000139031
0.000133179
0.000105664
0.000149693
0.00196442
0.00207213
0.000357409
0.0022351
0.00204065
0.000366463
0.000421652
0.000320629
0.00218594
0.00195176
0.000212135
0.000440049
0.000266889
0.000370515
0.000423995
0.00211447
0.000410937
0.000535812
0.000351736
0.000259197
0.000410756
0.000283036
0.00215767
0.000399444
0.000318361
0.000589664
0.000740979
0.000383824
0.000779058
0.000563728
0.00213463
0.000331805
0.000418519
0.000307814
0.000614379
0.000387121
0.000392991
0.000523787
0.000224539
0.00206563
0.000462643
0.000167885
0.00032323
0.000282805
0.000366559
0.000453134
0.000382517
0.000386404
0.000222528
0.00200823
0.000650855
0.000437899
0.00027481
0.000292861
0.000200947
0.000216852
0.000363443
0.000584482
0.000657999
0.000365856
0.00211373
0.000444963
0.00049377
0.000562707
0.000690179
0.000196953
0.000235816
0.000276465
0.000600966
0.000559608
0.000149835
0.000330328
0.00235042
0.000660811
0.000634032
0.000833046
0.000691755
0.000502087
0.000305743
0.000292778
0.00052113
0.000654035
0.000425678
0.000262364
0.00281488
0.000543813
0.000888313
0.00106466
0.000536642
0.000508532
0.000397394
0.000430003
0.000347036
0.000733212
0.000463904
0.00040474
0.000521435
0.00255102
0.00076908
0.000633928
0.000773626
0.000590563
0.000591222
0.000559523
0.000700035
0.000265549
0.000564503
0.000646229
0.000336516
0.000601584
0.000352368
0.00258708
0.000582244
0.000582055
0.000498763
0.000559101
0.00062588
0.000591326
0.000561154