/*--------------------------------*- C++ -*----------------------------------*\
  =========                 |
  \\      /  F ield         | OpenFOAM: The Open Source CFD Toolbox
   \\    /   O peration     | Website:  https://openfoam.org
    \\  /    A nd           | Version:  7
     \\/     M anipulation  |
\*---------------------------------------------------------------------------*/
FoamFile
{
    version     2.0;
    format      ascii;
    class       surfaceScalarField;
    location    "9";
    object      phi_0;
}
// * * * * * * * * * * * * * * * * * * * * * * * * * * * * * * * * * * * * * //

dimensions      [0 3 -1 0 0 0 0];

internalField   nonuniform List<scalar> 
54095
(
0.000175751
-0.000830435
-4.25892e-05
0.000341495
0.000869197
-9.51697e-05
0.000176798
-0.000960371
-4.68621e-05
0.00021169
0.000179294
-5.27022e-05
0.000142261
0.00408781
-1.86934e-05
0.000389183
0.000759879
-0.000103067
0.000345698
0.000343872
3.25542e-05
0.000163243
-0.00107387
-4.97443e-05
0.000211404
-1.87523e-05
-6.02202e-05
6.21217e-05
0.000881896
-3.59738e-05
-0.000317228
0.00771738
0.00032436
0.000145887
0.00436688
-3.57701e-05
0.000263188
0.00296735
0.000292663
0.000421705
0.000570051
-6.86348e-05
0.000373551
4.33896e-05
3.52686e-05
7.96525e-05
0.00160463
0.000117661
0.000139061
-0.00116609
-4.68374e-05
0.000192274
-0.000193977
-6.67938e-05
7.46255e-05
0.000784696
-3.76453e-05
3.05647e-05
0.000507375
-4.27629e-05
-0.000551858
0.00596785
0.000253464
-0.000175142
0.00773432
0.000304086
6.65931e-05
0.00666053
0.000483914
0.000252346
0.00459493
-5.869e-05
0.000275113
0.00278831
0.000241713
-0.000171343
0.00258819
0.000468554
0.000353499
0.00037914
-2.35272e-05
0.000361881
-0.000242332
4.74807e-05
0.000136405
0.00145491
0.000123208
6.05122e-05
0.00297149
5.43196e-05
0.00011158
-0.00123498
-4.26933e-05
0.00016966
-0.000342133
-6.83416e-05
8.61027e-05
0.000671077
-3.92773e-05
3.6287e-05
0.00047623
-4.27864e-05
-1.75681e-06
-8.94583e-05
-3.72853e-05
-0.000702407
0.00475143
0.000324349
-0.00034931
0.00585986
0.000282152
-0.000371128
0.00673302
0.000511931
-3.74021e-05
0.00773299
0.000291083
0.000103631
0.00664038
0.000495714
-0.000135168
0.00648858
0.000476646
0.00024511
0.00480819
-0.000104872
0.000244265
0.00268741
0.000159824
-9.23601e-05
0.00260817
0.000450496
3.81436e-05
0.004121
0.000461765
0.000302827
0.000169941
1.7953e-05
0.00030899
-0.000452347
4.71576e-05
0.000209005
0.0012608
0.000118685
4.56381e-05
0.00301905
6.6296e-05
1.81727e-05
0.00192921
8.47783e-05
8.55195e-05
-0.00128222
-3.82786e-05
0.000144492
-0.000460936
-6.83828e-05
9.71572e-05
0.000546051
-4.04728e-05
3.99309e-05
0.000439334
-4.2313e-05
1.48075e-06
-9.46676e-05
-3.90579e-05
-3.56897e-05
3.2681e-05
-1.25391e-05
-0.000919075
0.00560176
0.000258734
-0.000711786
0.00483177
0.000282135
-0.00058218
0.00556937
0.000362928
-0.000273978
0.00572831
0.000368131
-0.000469961
0.00704808
0.000540687
-0.000310167
0.00673734
0.000477379
0.000162509
0.00753067
0.000284919
0.000116681
0.00657794
0.000481103
-4.70237e-05
0.00643732
0.000501641
8.31798e-05
0.00630223
0.000436125
0.000357207
0.00486153
-0.000107721
0.000258044
0.00254016
9.33279e-05
2.43993e-05
0.00254305
0.000409555
1.46204e-05
0.00415769
0.000444824
0.000131034
0.00461951
0.000297048
0.000228553
-3.21685e-05
5.90758e-05
0.000252184
-0.000591269
4.91834e-05
0.000275863
0.00102173
0.000107531
5.79501e-05
0.00302932
9.0398e-05
4.07998e-05
0.00185316
0.000103027
-1.576e-05
0.000992778
0.000136586
6.12642e-05
-0.00130949
-3.39927e-05
0.000122874
-0.000555254
-6.68342e-05
0.000100291
0.00041808
-4.07029e-05
4.42578e-05
0.000396006
-4.14026e-05
3.67987e-06
-9.98701e-05
-4.07903e-05
-2.83314e-05
3.35751e-05
-1.16206e-05
-1.99248e-05
0.00050308
-2.0036e-05
-0.000991415
0.0046417
0.000119617
-0.00101832
0.00564873
0.000259558
-0.000593867
0.00580035
0.00026674
-0.000666677
0.00483772
0.000386743
-0.0006957
0.00573398
0.00034327
-0.000401365
0.00569053
0.000463724
-0.000104508
0.00571294
0.000282379
-0.000341069
0.00728245
0.000591506
-0.000319136
0.0069933
0.000556846
0.000183009
0.00674654
0.000459984
0.000270433
0.00732006
0.000297381
0.000151739
0.00647908
0.000490089
0.000146361
0.00626392
0.000532544
0.000172153
0.00621954
0.000426802
0.000203878
0.00629713
0.000348601
0.00036568
0.00486226
-0.000137863
0.000278101
0.00241758
-1.10631e-05
0.000116857
0.00244098
0.000354404
3.04591e-05
0.00417275
0.000421986
0.000145485
0.00466708
0.000292575
0.000230709
0.00366876
3.72458e-05
0.000174037
-0.000236522
9.15806e-05
0.000212933
-0.000673788
5.15351e-05
0.000310238
0.000796956
6.40054e-05
7.76241e-05
0.0029817
0.000121781
4.90858e-05
0.00176798
0.000130172
6.98663e-06
0.000885806
0.000174681
0.000133072
0.00120181
3.72528e-05
4.37157e-05
-0.00132318
-3.00328e-05
0.000104848
-0.000630588
-6.35061e-05
9.76166e-05
0.000293051
-3.9421e-05
5.3532e-05
0.000341747
-3.99757e-05
5.89172e-06
-0.000104569
-4.2595e-05
-1.77692e-05
2.22039e-05
-1.16499e-05
-2.75617e-05
0.000537073
-1.80522e-05
3.87446e-05
0.000102726
-5.84661e-05
-0.00116847
0.00403283
0.00020124
-0.00113384
0.00461802
0.000139202
-0.0007042
0.00587146
0.000246414
-0.000930958
0.00562015
0.000292865
-0.000595901
0.00572695
0.000233156
-0.000366269
0.0062591
0.000288752
-0.000806108
0.00511697
0.000422356
-0.000577163
0.00587554
0.000481275
-0.000388194
0.00557862
0.000524235
9.99605e-06
0.00559766
0.000711027
-0.000197266
0.00590006
0.000280579
-0.000237158
0.0073889
0.000564822
-8.92396e-05
0.00720096
0.000619448
9.43476e-05
0.00683292
0.000548263
0.000262628
0.00690102
0.000489174
0.000141482
0.00731307
0.000231188
0.00013428
0.00642007
0.000500215
0.000221671
0.00607256
0.000576635
0.000209192
0.00613607
0.000437281
0.000276559
0.00622704
0.000365817
0.000273614
0.00562332
0.000338672
0.000342693
0.00484345
-0.000149842
0.000294116
0.00230713
-0.000108597
0.000196032
0.00229112
0.000253004
5.84525e-05
0.00414112
0.000405201
0.000172526
0.00466467
0.000300952
0.00024782
0.00367996
4.05351e-05
0.000368567
0.00365066
-3.81893e-05
0.000130957
-0.000426507
0.000102744
0.000199946
-0.000733528
5.62232e-05
0.000304258
0.000566348
7.55012e-05
0.000115545
0.00287067
0.000113024
6.17941e-05
0.00167474
0.000159115
3.70042e-05
0.000756296
0.000204908
0.000130905
0.0011301
8.79244e-05
0.000224961
0.00125788
-0.000183095
3.13285e-05
-0.0013278
-2.67059e-05
9.22627e-05
-0.000694031
-5.88524e-05
9.14773e-05
0.000174298
-3.6231e-05
5.25397e-05
0.000288014
-3.82273e-05
1.06043e-05
-0.000110521
-4.46284e-05
-7.36428e-06
4.65433e-07
-1.34922e-05
-3.06294e-05
0.000573437
-1.73842e-05
4.00756e-05
0.000103092
-5.84934e-05
6.47288e-06
0.000628028
-7.57049e-05
-0.00138583
0.00393235
0.000154363
-0.00117662
0.00391783
0.000157788
-0.000864698
0.00506134
0.000351545
-0.00116796
0.004717
0.000138029
-0.000748243
0.00593049
0.000232511
-0.000509223
0.00568426
0.00028706
-0.00100232
0.00551824
0.000298124
-0.000575202
0.00577408
0.00024378
-0.00018242
0.00602966
0.000256824
-0.000328183
0.00585206
0.000532814
-0.00093169
0.00539142
0.000459967
-0.000447965
0.00592979
0.000578911
-0.000316867
0.00570799
0.00057954
-0.00017509
0.00567623
0.000715105
0.00010957
0.00571262
0.000871569
-0.000539543
0.00638151
0.000199579
-0.0003436
0.00751598
0.000631385
-3.02161e-05
0.00725481
0.000762852
0.00010078
0.00690282
0.000657966
0.000294096
0.00682392
0.000607827
0.000368009
0.00673582
0.000572312
0.000623049
0.00685484
0.000177876
0.000256544
0.0062547
0.000434126
0.000272163
0.0058879
0.000608738
0.000245827
0.00606005
0.00046528
0.000217971
0.00621133
0.000407547
0.00032409
0.00556237
0.000350499
0.000379285
0.00517241
0.000254296
0.000388904
0.00475501
-0.000169509
0.00034812
0.00214771
-0.000138598
0.000313799
0.0020488
0.000124181
0.000101342
0.00403889
0.000369442
0.000201478
0.00463383
0.000296359
0.000268666
0.00364229
0.000106962
0.000394371
0.00353275
-0.000105021
0.000352348
0.00373312
-2.99143e-05
0.000105362
-0.00059694
9.63994e-05
0.000215884
-0.000812164
5.77583e-05
0.000270933
0.000371168
7.19471e-05
0.000136441
0.00270056
0.00016171
8.98615e-05
0.0015222
0.000186311
7.0959e-05
0.000622235
0.000214853
0.000123633
0.0010469
0.000133852
0.000228585
0.00132225
-0.000164948
0.00020209
0.00116081
-0.000244452
1.96212e-05
-0.00132325
-2.41656e-05
7.99323e-05
-0.000747125
-5.35446e-05
8.29121e-05
6.41123e-05
-3.15787e-05
5.18308e-05
0.000236096
-3.61438e-05
1.61909e-05
-0.000118264
-4.6675e-05
1.84776e-06
-3.05691e-05
-1.54417e-05
-2.48879e-05
0.000603623
-1.87907e-05
4.18234e-05
0.00010277
-5.88853e-05
1.11147e-05
0.000635655
-7.7235e-05
-6.73886e-06
0.000654684
-7.46513e-05
-0.0013721
0.00371311
-4.65799e-05
-0.00124675
0.00388495
0.00011753
-0.000871261
0.00458846
0.000148416
-0.00126115
0.00387469
0.000136324
-0.000891541
0.00504844
0.00031399
-0.000549426
0.00528085
0.000412154
-0.00121836
0.00478055
0.000152478
-0.000739596
0.00598292
0.000249997
-0.000371751
0.00580588
0.000300227
-0.000523125
0.0058347
0.000374467
-0.00110679
0.00543032
0.000263017
-0.000477447
0.00577564
0.000326038
-0.000168216
0.00585759
0.000267198
-0.000351575
0.00579502
0.000490345
-7.504e-06
0.00586072
0.00070263
-0.00104177
0.00537634
0.000517309
-0.000518312
0.00593847
0.000626
-0.000239258
0.00586166
0.000634282
-0.000193183
0.0058297
0.000720026
-0.00012943
0.00593625
0.000915005
0.000203838
0.00594668
0.000929606
5.97684e-05
0.00659238
0.000352415
-0.000164479
0.00766549
0.000471092
3.03607e-05
0.00730625
0.000821755
0.000192119
0.00694049
0.000778881
0.000265539
0.00670922
0.000725101
0.000353389
0.00657529
0.000739056
0.000393535
0.00668623
0.000625401
0.000437206
0.00667121
0.000135334
0.000314867
0.00603785
0.00042798
0.000475896
0.00560596
0.000553975
0.000364269
0.00590394
0.000501916
0.000514426
0.00593803
0.000425639
0.000406767
0.00546531
0.000366503
0.000376682
0.00518311
0.000357481
0.000450328
0.00524903
0.000145309
0.000412947
0.00462877
-0.000181343
0.000427282
0.00191358
-0.000146775
0.000366869
0.00181947
-5.20579e-06
0.000165879
0.00384918
0.000284447
0.000256837
0.00461717
0.00021913
0.000309453
0.00360735
9.28064e-05
0.000409179
0.0034359
-8.17332e-05
0.000457381
0.00347405
-7.47492e-05
0.000347577
0.00370678
-2.8266e-05
0.000101257
-0.000763089
8.45133e-05
0.000212395
-0.000904768
5.65403e-05
0.000229084
0.000220325
6.24296e-05
0.000142818
0.00248917
0.000192347
0.000114507
0.00137392
0.000211672
0.00010002
0.000495431
0.000214942
0.000137018
0.000940313
0.00015953
0.000239483
0.00137372
-0.000115275
0.000220488
0.00103021
-0.000243723
9.53135e-05
0.00229293
-0.000189319
7.93322e-06
-0.00130884
-2.23465e-05
6.80751e-05
-0.00079089
-4.84754e-05
7.60934e-05
-3.89245e-05
-2.66012e-05
5.48292e-05
0.000183604
-3.39159e-05
1.88388e-05
-0.000124807
-4.84396e-05
1.09627e-05
-6.99154e-05
-1.82914e-05
-1.49522e-05
0.000623343
-2.02089e-05
4.47282e-05
9.91015e-05
-5.98506e-05
1.92622e-05
0.000635507
-7.79994e-05
-1.10856e-05
0.000664006
-7.54712e-05
-2.07327e-05
0.00126629
-6.16243e-05
-0.00134443
0.00349311
-0.000118105
-0.00340267
-0.00127916
0.00380176
-5.62533e-05
-0.000993556
0.00440587
0.000140208
-0.00130191
0.00382204
0.000103673
-0.000899539
0.00457911
0.000134884
-0.00050805
0.00480508
0.000147725
-0.00130664
0.00382596
0.000137015
-0.000891267
0.00504311
0.000293317
-0.000528412
0.00535602
0.000395477
-0.000585538
0.0052575
0.000413657
-0.0012582
0.00474807
0.000183899
-0.000607662
0.0060054
0.000260213
-0.000293213
0.00585542
0.000325454
-0.000537009
0.00589702
0.000423342
-0.000168042
0.00603699
0.000460201
-0.00114896
0.00531399
0.000223519
-0.000491718
0.00575463
0.000257442
-0.000203487
0.00577876
0.000369094
-0.000396578
0.00576595
0.000499663
-0.000376136
0.00594262
0.000655151
-0.000125293
0.00598808
0.000826003
-0.00108625
0.00600517
0.000517189
-0.000433709
0.00608023
0.00064478
-0.00021116
0.00608556
0.000643619
-1.28649e-05
0.00581108
0.000857889
0.000218708
0.00576183
0.00094127
4.1585e-06
0.00619404
0.00101687
0.000199018
0.00605103
0.00105682
-0.000311748
0.00700143
0.000339903
-0.000169712
0.00784709
0.000655392
0.000143393
0.00731801
0.000791832
0.00020434
0.00708192
0.000840259
0.000390768
0.00683409
0.000777669
0.000561323
0.00634277
0.000803072
0.000705003
0.00641276
0.000684207
0.00046367
0.0060682
0.000711663
0.000453108
0.00653828
9.27635e-05
0.000458241
0.00583772
0.000304503
0.000527732
0.00533412
0.000538954
0.000454013
0.00566645
0.00050333
0.000380622
0.00589477
0.000421389
0.000418414
0.00537269
0.000409301
0.00041053
0.00528451
0.00026376
0.000572621
0.00526839
0.000222888
0.000338245
0.00554806
0.00010967
0.000355091
0.00454419
-0.000169253
0.000383031
0.00170002
-0.000138421
0.000297324
0.0017292
-0.00012474
0.000189306
0.00363089
0.000166593
0.000298137
0.00455415
0.000163832
0.000345666
0.00355094
2.98952e-05
0.000431389
0.00330711
-7.27724e-05
0.000420732
0.00331563
-0.000104559
0.000381663
0.00345018
2.06747e-05
0.000306424
0.00336858
-9.11327e-05
9.94267e-05
-0.000921628
6.70458e-05
0.000179986
-0.000980964
4.87987e-05
0.000199278
6.67895e-05
8.68909e-05
0.000211086
0.00218327
0.000212072
0.000125501
0.00122133
0.000238275
0.000132044
0.000379467
0.000206555
0.000164668
0.000798464
0.000177172
0.000252164
0.00137594
-5.01355e-05
0.0002417
0.000897616
-0.000205116
8.49429e-05
0.00210595
-0.000152765
4.89895e-05
0.00165012
-0.000181083
-3.45528e-06
-0.00128408
-2.13067e-05
6.06956e-05
-0.000829529
-4.44028e-05
6.85265e-05
-0.000134369
-2.15572e-05
5.7034e-05
0.000132177
-3.22088e-05
2.03662e-05
-0.0001291
-4.99889e-05
1.82469e-05
-0.00011505
-2.15523e-05
1.68873e-07
0.000627182
-2.23001e-05
4.78671e-05
9.26236e-05
-6.15981e-05
2.37826e-05
0.000630256
-7.83827e-05
-2.84925e-05
0.00069023
-7.57311e-05
-1.53716e-05
0.00126857
-6.238e-05
1.70875e-05
0.00138951
-5.91785e-05
-0.00148189
0.00286105
7.97755e-05
-0.00280337
-0.00113158
0.00349087
-0.000145332
-0.00110807
0.00409587
-5.29849e-05
-0.00404647
-0.00153069
-0.000148366
-0.00128119
0.00381773
-3.66895e-05
-0.0010414
0.00438249
0.000108985
-0.000561512
0.00451581
0.000128352
-0.00134176
0.00375134
0.000105818
-0.000909144
0.00456405
0.000136603
-0.000475847
0.00477287
0.000114536
-0.000546904
0.00481546
0.000191188
-0.00138378
0.00382386
0.000127674
-0.000784917
0.00507634
0.000281047
-0.000455676
0.00539761
0.000414198
-0.000678864
0.00541964
0.000375185
-0.000244414
0.00536747
0.000469804
-0.0012437
0.00463775
0.000205065
-0.000526846
0.00593612
0.000288308
-0.000342002
0.00593467
0.000319478
-0.000535378
0.00594197
0.000419306
-0.00034212
0.00592161
0.000504703
-0.000337406
0.00615465
0.000573832
-0.00125738
0.00525132
0.000233807
-0.000465261
0.00572913
0.000280564
-0.000315501
0.00583472
0.00030583
-0.000259607
0.00584772
0.000534069
-0.000106474
0.0061276
0.000639862
-0.000220667
0.00610141
0.000766646
-0.000139374
0.00588257
0.000965988
-0.00103567
0.00625606
0.000473029
-0.00039661
0.00614507
0.000679246
-0.000210009
0.00629155
0.000792187
-0.000115897
0.00602334
0.000751593
-0.000161539
0.00608018
0.00109185
0.000577901
0.00603647
0.00108227
0.000544421
0.00612192
0.00110656
0.000295753
0.00618604
0.00119456
-0.000318216
0.00749836
0.000274387
-0.000276864
0.00827662
0.000645475
0.000164905
0.00763121
0.000705019
0.000684394
0.00678788
0.000855491
0.000329909
0.0068934
0.000831661
0.000271313
0.00642072
0.000846813
0.000481735
0.00640076
0.000743865
0.000583762
0.00599613
0.000745137
0.000361988
0.00580014
0.000763873
0.000295142
0.00649252
0.000105716
0.000470599
0.00583602
6.89862e-06
0.000391436
0.00520026
0.000344253
0.000454775
0.00549775
0.000442188
0.000431327
0.00586045
0.000404456
0.000417236
0.00538065
0.000341855
0.000434278
0.00545182
0.000239099
0.000539596
0.00521519
0.000198089
0.00036798
0.00570896
7.56664e-05
0.000321996
0.00555634
9.04194e-05
0.000392151
0.00440662
-0.000155159
0.000201251
0.00162263
-0.000113123
0.000195344
0.00174039
-0.00014568
0.000258452
0.00341702
4.17709e-05
0.000328996
0.00436726
0.000149989
0.000385934
0.00344307
1.78135e-05
0.000461585
0.00308677
-4.66813e-05
0.000429489
0.00319588
-0.000130345
0.000417624
0.00320888
-3.91823e-05
0.000339724
0.00321326
-7.8778e-05
0.000258794
0.00280552
-0.000306332
9.02072e-05
-0.00107223
5.69386e-05
0.000140669
-0.00102565
3.17599e-05
0.000177213
-9.62784e-05
0.00010318
0.000242976
0.00183766
0.000246562
0.000123206
0.00107042
0.000260146
0.00016225
0.000286585
0.000187153
0.000192658
0.000624016
0.000188514
0.000257106
0.0013133
3.05772e-05
0.000228537
0.000798211
-0.000155485
4.74103e-05
0.00191624
-9.1308e-05
4.79458e-05
0.00156089
-0.000126854
0.000185097
0.000446647
-0.000201433
-1.43426e-05
-0.00124883
-2.09079e-05
5.32644e-05
-0.000862591
-4.1509e-05
5.83069e-05
-0.000218426
-1.86533e-05
5.02041e-05
9.07557e-05
-3.03396e-05
2.53582e-05
-0.000135457
-5.12102e-05
2.57651e-05
-0.00016581
-2.49935e-05
1.81947e-05
0.000612053
-2.4618e-05
5.02596e-05
8.39153e-05
-6.38515e-05
3.00673e-05
0.000619746
-8.11554e-05
-3.27624e-05
0.000720942
-7.63315e-05
-1.07942e-05
0.00126733
-6.36968e-05
2.43442e-05
0.00136371
-6.09247e-05
2.07798e-05
0.00188668
-4.98603e-05
-0.00152617
0.0023792
3.3057e-05
-0.00236798
-0.00122716
0.00285704
9.95936e-05
-0.00110853
0.00352113
6.17203e-05
-0.00350261
-0.00161315
0.000128181
-0.00123945
0.00357067
-0.00012153
-0.0010654
0.00403231
-5.77742e-05
-0.000583235
0.00429285
-9.61595e-06
-0.0043145
-0.00137449
-5.75414e-05
-0.00121137
0.00372039
-3.30479e-05
-0.00107226
0.00442276
8.61582e-05
-0.000489617
0.0045305
0.000108066
-0.000545732
0.00462109
6.39897e-05
-0.00143386
0.00370092
0.000100496
-0.000776357
0.00452494
0.000136374
-0.000390347
0.00474159
0.00010255
-0.000565419
0.0047475
6.90502e-05
-0.00013591
0.004783
0.000278727
-0.00138319
0.00384644
0.000116911
-0.000692929
0.00509601
0.00027408
-0.000521528
0.00545039
0.000407787
-0.000496255
0.0054105
0.000384217
-0.000455345
0.00536717
0.000488702
-0.000357119
0.00534395
0.000495863
-0.00144787
0.00465949
0.00016875
-0.000499337
0.0058718
0.000303456
-0.000411165
0.00598067
0.000337971
-0.000406992
0.00600369
0.000405135
-0.000279177
0.00602606
0.000487564
-5.74681e-05
0.00595357
0.000542588
-0.000354132
0.0060472
0.000725591
-0.00123891
0.00519907
0.000255483
-0.000486495
0.0057303
0.000322525
-0.000310822
0.00589372
0.000322374
-0.000312274
0.00581508
0.000534845
-0.000195957
0.00596552
0.000730569
0.000218144
0.00634564
0.000755388
-8.05762e-05
0.00621698
0.00105724
0.0002106
0.00580716
0.00106658
-0.00106442
0.00651163
0.000490636
-0.000651917
0.00648451
0.000508645
-0.000178043
0.00648458
0.000829168
0.000434619
0.00621158
0.00085373
9.21074e-05
0.00614625
0.000923327
-2.39004e-05
0.00633849
0.00108504
0.000257034
0.00638382
0.00104508
0.000504589
0.00617912
0.00119265
0.000480909
0.00604302
0.00122191
-0.000332841
0.00792547
0.000200875
0.000166171
0.00834356
0.000511877
3.13126e-05
0.00801749
0.000619321
0.000294379
0.00687886
0.000774429
0.000611674
0.00665754
0.000911005
0.000445867
0.00639783
0.000825919
0.000389083
0.00650813
0.000784639
0.000639727
0.00591778
0.000722088
0.000366243
0.0057341
0.00081291
0.000412838
0.00563423
0.000664902
0.000403004
0.0063621
0.000119566
0.000361721
0.00584505
-6.37916e-05
0.000244593
0.0051263
3.16075e-05
0.000461648
0.00537715
0.000261657
0.000524668
0.0057476
0.000359374
0.00050007
0.00536413
0.00030684
0.000490968
0.00559768
0.000166615
0.000492448
0.00538461
6.71978e-06
0.000437372
0.00575035
0.000136956
0.000447798
0.00546383
6.01047e-05
0.000351635
0.00483337
7.24068e-05
0.000317956
0.00430352
-0.000124646
0.000126074
0.00156212
-8.00591e-05
0.000140477
0.00181198
-0.000147976
0.000273056
0.00325225
-1.09959e-05
0.000378433
0.00401402
0.000139785
0.000447557
0.00330236
5.38612e-06
0.000475085
0.00289316
-7.10072e-05
0.000448376
0.00307373
-0.000115809
0.000389793
0.00305338
-0.000136094
0.000302954
0.00308675
-0.000168218
0.000217995
0.00289376
-0.000337066
0.000265717
0.00296151
-0.000385852
5.45247e-05
-0.00118818
4.7085e-05
0.00010289
-0.00104123
2.28962e-05
0.000144788
-0.000250094
9.90937e-05
0.000246701
0.0014757
0.000268644
0.000138458
0.000946861
0.000257018
0.000191727
0.000225844
0.000154926
0.000216258
0.000425091
0.000188015
0.000248914
0.00120123
0.000101932
0.00023007
0.000719024
-9.02382e-05
3.97556e-05
0.00174052
-5.22825e-05
4.72818e-05
0.0014629
-5.13945e-05
0.000222097
0.000328112
-0.000206072
0.000209108
0.00108265
-8.67277e-05
-2.64716e-05
-0.00120163
-2.07237e-05
4.68524e-05
-0.000890566
-3.97856e-05
4.72913e-05
-0.000289454
-1.77721e-05
3.70624e-05
6.49548e-05
-2.99148e-05
2.78377e-05
-0.000141643
-5.19915e-05
3.30368e-05
-0.000221571
-2.84864e-05
3.39956e-05
0.000579806
-2.6742e-05
5.08636e-05
7.44888e-05
-6.6055e-05
3.53196e-05
0.000606453
-8.58779e-05
-2.37724e-05
0.000742895
-7.9336e-05
-4.63864e-06
0.00126097
-6.53296e-05
2.6022e-05
0.0013362
-6.2208e-05
2.89424e-05
0.00184772
-5.09129e-05
5.84079e-05
0.00201754
-3.08054e-05
-0.00143636
0.00229472
-3.82328e-05
-0.00234629
-0.00142305
0.00245472
0.000120372
-0.00119583
0.00314043
4.99468e-05
-0.00307003
-0.00167047
5.92934e-05
-0.00134672
0.00276656
0.000197747
-0.000989641
0.00353031
1.46572e-05
-0.000652593
0.0039336
0.000164275
-0.0039668
-0.00138049
0.000101328
-0.00112582
0.00364286
-0.000157747
-0.00112396
0.00403341
-7.09318e-05
-0.00051584
0.00424626
1.5046e-05
-0.000681503
0.00422518
0.000166309
-0.00426534
-0.000576748
-6.22579e-05
-0.00139639
0.00368842
-5.50114e-06
-0.000946921
0.00447211
8.81586e-05
-0.000477114
0.00458071
0.00012271
-0.000504605
0.00456773
0.000100615
-0.00035518
0.00476207
0.000140464
-0.0014848
0.00377267
2.98629e-05
-0.00069328
0.00446293
0.000162856
-0.000477951
0.00475462
7.97703e-05
-0.000545896
0.00481816
8.15359e-05
-0.00045424
0.0047308
0.000120152
-0.000399909
0.00484231
0.000341628
-0.00141716
0.00377581
3.99162e-05
-0.000674627
0.00513234
0.000255874
-0.000479237
0.00544894
0.000343603
-0.00039265
0.00539562
0.000408326
-0.000357352
0.00534565
0.000483919
-0.00016008
0.00537835
0.000556919
-0.000481121
0.00529739
0.000637683
-0.00143242
0.00470555
0.000147453
-0.000565969
0.00584002
0.000280005
-0.00033069
0.00596482
0.000339166
-0.00043098
0.00605209
0.000408283
-0.000294009
0.00604178
0.00048746
-5.95587e-05
0.00611441
0.000604425
-0.000161441
0.00596333
0.000707323
1.99807e-05
0.00587861
0.000955692
-0.00125737
0.00518152
0.000210497
-0.000453716
0.00548026
0.000307322
-0.000279275
0.00594781
0.000369669
-0.000191251
0.00611464
0.00064868
-0.00014156
0.00597922
0.000754815
-9.00823e-05
0.00624956
0.000892832
-4.03e-06
0.00622987
0.00100356
0.000140298
0.00604332
0.00118537
0.000532295
0.00564289
0.00116197
-0.00101191
0.0067425
0.000448195
-0.000226433
0.00669028
0.000677463
-0.000313343
0.0066005
0.000737379
-8.56843e-05
0.00659896
0.000821846
0.000503892
0.00615405
0.000953704
0.000328051
0.00635933
0.0010203
0.000152194
0.00653644
0.00116931
0.000391545
0.0062444
0.00122797
0.000489074
0.00598167
0.00113116
0.000456798
0.0060082
0.00107201
-0.00016804
0.00815896
0.000337551
0.000199505
0.00830324
0.000403412
6.52285e-05
0.00790713
0.000801599
0.000300724
0.00702954
0.000629569
0.000617274
0.00650661
0.000832751
0.000307151
0.00665293
0.00084883
0.00075578
0.00632747
0.000741764
0.000512261
0.0059194
0.000763197
0.000635076
0.00550548
0.000753009
0.000415465
0.00579617
0.000683302
0.00033503
0.00551288
0.000485295
-4.30057e-05
0.00655262
0.000170437
-3.07588e-05
0.00628338
-0.000161923
0.000183154
0.00506297
-4.31351e-05
0.000369696
0.00517118
0.000140936
0.00058044
0.00556045
0.000246795
0.000513573
0.00544872
0.000208767
0.000567877
0.00569037
0.000121356
0.000492017
0.00560932
-0.000101732
0.000418847
0.00578265
-5.46408e-05
0.000263933
0.00557131
6.84957e-05
0.000282308
0.00479906
3.01054e-05
0.000426112
0.00414871
-7.33552e-06
0.000248598
0.00418919
-7.97387e-05
4.62503e-05
0.00153812
-4.40026e-05
0.000115086
0.00187436
-0.000112743
0.000315502
0.00310537
-6.98945e-05
0.000424972
0.00362388
9.26269e-05
0.000502728
0.00316779
-3.66507e-05
0.000478315
0.00276231
-0.000125822
0.000442845
0.00296355
-0.000154756
0.000408314
0.0029501
-0.000190777
0.000349628
0.00290342
-0.000262642
0.000234328
0.00289413
-0.000355634
0.000265869
0.0030134
-0.000432726
0.000313852
0.00305086
-0.000426937
-3.99595e-05
-0.00121509
4.03967e-05
6.78733e-05
-0.00102997
1.48013e-05
0.000101797
-0.000375401
9.36978e-05
0.000227624
0.00113288
0.000251355
0.00017367
0.000833212
0.000236461
0.000215616
0.000187779
0.000112504
0.000235131
0.000220121
0.000158761
0.000229344
0.00104783
0.000162936
0.000245013
0.000638041
-2.67788e-05
6.94516e-05
0.00158193
-2.48734e-05
6.41758e-05
0.00133263
9.17099e-06
0.000231214
0.000260817
-0.000189291
0.000249962
0.000816578
-0.000161017
0.000194058
0.00280443
2.07754e-05
-3.8693e-05
-0.00114219
-2.07506e-05
4.03057e-05
-0.000912652
-3.89437e-05
3.77616e-05
-0.000348872
-1.81293e-05
2.18948e-05
5.61401e-05
-3.08522e-05
3.18921e-05
-0.000150951
-5.24988e-05
3.91677e-05
-0.000280872
-3.18584e-05
4.49523e-05
0.000535163
-2.87957e-05
5.09243e-05
6.45842e-05
-6.77618e-05
3.66435e-05
0.000595273
-9.15184e-05
-5.49507e-06
0.000747089
-8.45773e-05
3.15167e-06
0.00124665
-6.81644e-05
2.70022e-05
0.00130637
-6.25025e-05
3.94247e-05
0.00179604
-4.99534e-05
5.29293e-05
0.00194516
-3.14623e-05
6.30769e-05
0.00245766
-2.58366e-05
-0.00155808
0.00203269
0.000125569
-0.00203653
-0.00145562
0.00231075
1.65321e-05
-0.00130453
0.00283458
-1.99092e-05
-0.0027442
-0.00160421
-5.49405e-05
-0.00235761
-0.00138674
0.00238098
0.000113765
-0.00101789
0.00325513
3.39236e-05
-0.000815877
0.00359853
0.000197764
-0.00358306
-0.00148216
9.94961e-05
-0.00140259
0.00296014
8.31883e-05
-0.00102876
0.0036181
1.47543e-05
-0.000588708
0.00393494
8.61863e-05
-0.000845887
0.00388179
0.000379702
-0.00393283
-0.000688868
0.000235966
-0.00131665
0.00357677
-1.36523e-05
-0.00105317
0.0040528
-7.08883e-05
-0.00055516
0.00418048
7.28875e-05
-0.000740655
0.00430752
0.000168759
-0.000733465
0.00429407
0.000407297
-0.00415677
-0.000647161
0.000154334
-0.00156151
0.0037564
8.72723e-06
-0.000772108
0.0044443
0.00010114
-0.000488192
0.00454382
0.000135296
-0.000621518
0.00456225
0.000203817
-0.000502919
0.00470719
0.000204176
-0.000746111
0.00473396
0.00039604
-0.00134024
0.00369915
-3.39187e-06
-0.000773757
0.00443982
0.000152106
-0.000342464
0.00469119
8.95145e-05
-0.00045048
0.00483818
0.00011758
-0.00053086
0.0048359
0.000149938
-0.000451002
0.00491928
0.000334099
-0.00062909
0.00494627
0.000517299
-0.0014811
0.00379715
2.73474e-05
-0.000639967
0.00501641
0.000229849
-0.000444495
0.00547642
0.000342199
-0.000418224
0.00536794
0.000358525
-0.000353404
0.00534735
0.000466015
-0.000188535
0.00540395
0.000587293
-0.000379669
0.00535699
0.00071555
-0.000155771
0.00533504
0.000744016
-0.0014176
0.00474556
0.000120228
-0.000575154
0.0058103
0.00029861
-0.000326558
0.0059633
0.00032881
-0.000256466
0.00603396
0.000422509
-0.00021248
0.00605107
0.000469918
-0.000213481
0.00610111
0.00062416
-8.7472e-05
0.00592588
0.000725314
-0.000130075
0.00596004
0.000896271
0.000306185
0.00567251
0.0010848
-0.00119883
0.0051906
0.000177841
-0.000561781
0.00567734
0.000348761
-0.000256877
0.00582777
0.000370899
-0.000285959
0.0060733
0.000611284
-3.47359e-06
0.00626665
0.000868612
0.000129042
0.00628424
0.000919143
3.81046e-05
0.00621534
0.00102145
6.85002e-05
0.00621215
0.00115778
0.000471474
0.00568702
0.00115883
0.000362623
0.00578904
0.00121894
-0.000996413
0.00719772
0.000373158
-0.000423753
0.00704503
0.000716708
-0.000296686
0.00692358
0.000716302
-1.50952e-05
0.00682045
0.000831714
0.000277148
0.00640322
0.000912808
5.43269e-05
0.00653195
0.00103391
0.000802968
0.00641498
0.00109457
0.000259564
0.00641806
0.00124835
0.000566003
0.00596476
0.00131396
0.00036128
0.00619399
0.000999559
0.000432322
0.00588995
0.000849733
-0.00045942
0.00847018
0.0001052
-0.000444969
0.00837554
0.000679463
0.000411278
0.00761819
0.000464233
1.55256e-05
0.00738097
0.000804343
0.00062963
0.00642462
0.000662363
0.000620763
0.0066491
0.000729391
0.000593629
0.00637092
0.000779631
0.000515498
0.00586116
0.00077653
0.000483061
0.00550732
0.00069714
0.000410323
0.00579642
0.000606368
0.00030453
0.00559938
0.000574576
0.000455683
0.00483442
0.000415591
-0.000254703
0.00678189
0.000274028
0.000630594
0.00610337
-0.000233903
3.37511e-05
0.00520234
-0.000219968
0.000445317
0.00497909
1.91346e-05
0.000638773
0.0053481
0.000139489
0.000607215
0.00552433
6.66973e-05
0.000626629
0.00573508
1.57376e-05
0.000481449
0.00587113
-0.000179055
0.00048147
0.00572659
-0.000118825
0.00036674
0.00544272
5.68294e-05
0.000304669
0.00478123
1.5981e-05
0.000273795
0.00421891
-4.80169e-05
0.000335696
0.00439801
-7.0169e-05
-2.94598e-05
0.0041749
3.78872e-06
-2.93392e-05
0.0015802
-2.46038e-05
8.73619e-05
0.00192348
-7.86789e-05
0.000265702
0.00301015
-5.55978e-05
0.000462854
0.00324614
1.86635e-05
0.000548678
0.00299977
-7.24093e-05
0.00049186
0.00260364
-0.000134705
0.000413425
0.00286386
-0.000210209
0.000477983
0.00276273
-0.000200355
0.000343991
0.00276764
-0.000329533
0.000210901
0.00288165
-0.00039689
0.000294268
0.00299993
-0.000405221
0.000375416
0.00285634
-0.000363658
0.000380287
0.00179343
-0.000281505
-0.000123624
-0.00116588
3.57171e-05
1.17358e-05
-0.00097286
1.18547e-05
6.68206e-05
-0.000479454
8.9795e-05
0.000182565
0.000843852
0.000222051
0.000197073
0.000729568
0.000189818
0.00023113
0.000164543
6.77344e-05
0.000238223
2.42844e-05
0.000115071
0.000226073
0.000851747
0.000179691
0.000253822
0.000542703
4.1095e-05
0.000121704
0.00141757
1.03752e-05
8.80305e-05
0.00118186
4.10184e-05
0.000253368
0.000208421
-0.0001648
0.000296479
0.000568362
-0.000198129
0.000155067
0.00259321
-5.19318e-05
0.000214555
0.00266337
-1.04123e-05
-5.0566e-05
-0.00107079
-2.08282e-05
3.43657e-05
-0.000929033
-3.87349e-05
3.15252e-05
-0.000399737
-1.96038e-05
8.13543e-06
6.22223e-05
-3.23469e-05
3.58681e-05
-0.000164847
-5.28238e-05
4.42911e-05
-0.000342643
-3.5019e-05
5.01157e-05
0.00048416
-3.09705e-05
4.67192e-05
5.79727e-05
-6.89033e-05
3.5332e-05
0.000589541
-9.73618e-05
1.36551e-05
0.000733207
-9.12914e-05
1.29457e-05
0.00122127
-7.21442e-05
3.08102e-05
0.00126994