/*--------------------------------*- C++ -*----------------------------------*\
  =========                 |
  \\      /  F ield         | OpenFOAM: The Open Source CFD Toolbox
   \\    /   O peration     | Website:  https://openfoam.org
    \\  /    A nd           | Version:  7
     \\/     M anipulation  |
\*---------------------------------------------------------------------------*/
FoamFile
{
    version     2.0;
    format      ascii;
    class       volVectorField;
    location    "9";
    object      U;
}
// * * * * * * * * * * * * * * * * * * * * * * * * * * * * * * * * * * * * * //

dimensions      [0 1 -1 0 0 0 0];

internalField   nonuniform List<vector> 
18750
(
(1.58575 -0.442091 -0.400739)
(2.67541 0.754475 -0.52101)
(1.43277 -0.447144 -0.366714)
(1.86671 0.256731 -1.54124)
(0.993131 2.67103 -0.00564809)
(2.93 0.801047 -0.599248)
(3.18976 0.447639 -0.851321)
(1.38073 -0.455364 -0.327939)
(1.81347 0.22536 -1.7542)
(0.188239 0.647175 -0.88805)
(-0.317869 5.17967 0.771821)
(0.950973 3.02258 -0.111744)
(0.720779 1.91496 -0.0542254)
(2.60882 0.870976 -0.462172)
(3.28922 0.453825 -0.888325)
(1.51892 1.16589 1.30324)
(1.36066 -0.457385 -0.275057)
(1.7306 0.195951 -1.90438)
(0.183282 0.603169 -1.00805)
(0.244004 0.380281 -0.791758)
(-1.77653 3.96607 -0.035644)
(-0.678655 5.22852 0.740957)
(0.863024 4.49096 1.41597)
(1.44583 3.20008 -0.0527135)
(0.681485 1.78577 -0.117162)
(-1.03235 1.68183 2.44047)
(1.93287 0.785873 -0.152831)
(2.87635 0.364839 -0.529385)
(1.77963 1.22607 1.37514)
(0.40913 2.03779 0.421471)
(1.32907 -0.460046 -0.231675)
(1.68245 0.188124 -1.81628)
(0.168568 0.544343 -1.15149)
(0.230436 0.37769 -0.740659)
(0.137891 -0.0439521 -1.16121)
(-1.15831 3.20765 0.640152)
(-1.18742 3.94516 -0.00854784)
(-0.788155 4.48353 1.23345)
(-0.8432 5.18613 0.778632)
(0.767803 4.52892 1.32496)
(-0.391439 4.3974 1.56782)
(1.10532 3.61028 -0.337984)
(0.637267 2.1452 -0.373765)
(-0.861273 1.6601 2.14127)
(0.062942 2.75752 2.04533)
(1.23531 0.560135 0.176355)
(2.29435 0.22772 -0.182633)
(2.02044 1.25598 1.20675)
(0.451032 2.07549 0.423792)
(-0.332361 1.31113 0.393876)
(1.27956 -0.455851 -0.191382)
(1.61105 0.184281 -1.67266)
(0.146481 0.47483 -1.30023)
(0.198942 0.366803 -0.664329)
(0.137886 -0.0389695 -1.21174)
(-0.0441271 0.0253474 -0.563392)
(-1.69518 3.81532 0.213875)
(-1.27372 3.15588 0.596859)
(-1.26355 3.71094 0.641702)
(-0.775689 3.82394 0.279262)
(-0.97893 4.54781 1.3121)
(-0.676992 4.41762 1.25493)
(-1.07589 5.14891 0.773584)
(0.286632 4.58423 1.14457)
(-0.383424 4.35059 1.72579)
(0.0196281 4.24206 1.52866)
(1.03683 3.70724 -0.328472)
(0.558819 1.92835 -0.513884)
(-0.484626 1.70657 1.75054)
(-0.497936 2.77781 2.06387)
(0.43949 3.08316 2.12999)
(0.648487 0.296443 0.525716)
(1.68735 0.141101 0.115115)
(2.30287 1.30054 0.856557)
(0.454423 2.14244 0.502041)
(-0.306228 1.26669 0.544111)
(-1.0475 0.684704 0.918771)
(1.21893 -0.445658 -0.157624)
(1.47967 0.171456 -1.515)
(0.162155 0.404298 -1.43243)
(0.146632 0.344794 -0.564698)
(0.139335 -0.0342086 -1.26433)
(-0.00899274 0.0327834 -0.58886)
(-0.313701 0.328704 -0.0160405)
(-1.45328 3.08945 -0.0369444)
(-2.0522 3.5055 0.247167)
(-1.21127 3.83332 0.649234)
(-1.68202 3.03177 0.500415)
(-1.88279 3.59096 0.510039)
(-1.02907 3.79652 0.786809)
(0.0275586 3.92575 0.459342)
(-1.05221 4.68509 1.49292)
(-0.800083 4.54463 1.32925)
(0.181728 4.56601 1.12321)
(-0.656827 5.05634 0.830134)
(0.107994 4.54352 1.04936)
(-0.241841 4.3087 1.84014)
(0.0201923 4.26461 1.46241)
(0.345809 4.1835 1.3258)
(0.671652 3.75129 -0.428168)
(0.460949 1.87618 -0.600544)
(-0.182869 1.71275 1.35209)
(-0.692088 2.75622 1.97197)
(0.406848 3.16964 1.98156)
(0.938463 2.47346 0.676847)
(0.182788 -0.00376412 0.861639)
(1.33243 0.00388481 0.413068)
(2.31496 1.30886 0.59358)
(0.500273 2.17486 0.702511)
(-0.304063 1.21394 0.816336)
(-0.915636 0.569033 1.0297)
(-0.109075 0.832165 1.087)
(1.15538 -0.43514 -0.131698)
(1.31512 0.140815 -1.35817)
(0.25525 0.363349 -1.50731)
(0.0753836 0.302727 -0.440806)
(0.143037 -0.028734 -1.31945)
(0.0280425 0.0339058 -0.61048)
(-0.286494 0.335277 0.0638126)
(0.157978 0.0807649 -0.94145)
(-1.56118 2.71355 0.196682)
(-1.76601 2.91916 0.0265943)
(-0.864996 3.89417 0.373505)
(-1.9066 3.62084 0.345926)
(-1.46511 3.74273 0.600493)
(-0.776659 4.18167 0.269651)
(-2.21863 2.9191 0.326592)
(-1.79606 3.66611 0.96982)
(-1.43622 3.66128 0.838334)
(0.310756 3.86595 1.11229)
(-0.274699 4.02397 0.363868)
(-1.36225 4.90522 0.890513)
(-0.405571 4.75914 1.4738)
(0.177629 4.59742 1.46079)
(0.613255 4.64637 1.17307)
(-0.565943 5.01108 0.472136)
(0.0241701 4.5685 1.03677)
(-0.127685 4.24397 2.00173)
(-0.0641069 4.18583 1.50575)
(0.024938 4.24072 1.32816)
(0.604901 3.78928 0.904882)
(0.364038 3.78451 -0.46235)
(0.322661 1.83773 -0.764119)
(0.0685394 1.67691 0.60171)
(-0.860539 2.70039 1.83088)
(0.235821 3.22564 1.85559)
(0.862275 2.545 0.785353)
(1.57371 2.48646 -0.341085)
(-0.0647861 -0.266838 1.04789)
(1.13586 -0.0195898 0.580164)
(2.05666 1.19585 0.317227)
(0.72763 2.2984 0.303858)
(-0.303088 1.13697 1.12875)
(-0.692908 0.453808 1.15888)
(-0.454835 0.773028 1.54117)
(0.837233 0.845544 -0.592966)
(1.09346 -0.425081 -0.115708)
(1.14309 0.0911091 -1.21086)
(0.413844 0.357417 -1.50114)
(-0.00275966 0.246578 -0.3082)
(0.150602 -0.022009 -1.37396)
(0.0684704 0.0315917 -0.631042)
(-0.266727 0.351033 0.0861034)
(0.223533 0.0975772 -0.916656)
(-0.275203 0.407847 -1.74497)
(-1.5886 2.49968 0.17986)
(-1.93652 2.4198 0.154359)
(-1.32792 3.32297 0.306393)
(-2.07789 2.84345 0.00220302)
(-1.0755 3.83596 0.356692)
(-0.625177 3.76805 0.369011)
(-2.25616 3.35395 0.328299)
(-1.60768 3.6687 0.594912)
(-0.77682 4.1318 0.20863)
(-0.54657 3.81102 0.753281)
(-2.62182 2.95976 0.475445)
(-1.60726 3.76952 1.28653)
(-1.37894 3.5972 0.971217)
(-0.522997 3.68814 1.23615)
(0.169517 4.01931 1.69416)
(-1.75213 3.7395 0.509963)
(-1.90253 4.62622 0.958495)
(-0.567436 4.85328 1.88341)
(-0.0412591 4.59991 1.59308)
(0.821801 4.58779 1.22197)
(0.790368 4.62118 1.13421)
(-1.00076 4.91009 0.347797)
(-0.0490454 4.52031 1.00603)
(-0.099024 4.15047 2.12316)
(-0.0748599 4.16938 1.59602)
(-0.0230544 4.22202 1.33458)
(0.394621 3.77455 1.03758)
(1.0013 3.5511 1.18404)
(0.0261376 3.72523 -0.579122)
(0.311491 1.77485 -0.889702)
(0.200689 1.6532 -0.156856)
(-1.04715 2.61764 1.73893)
(0.0971584 3.20162 1.82823)
(0.74417 2.61004 0.958405)
(1.74925 2.52018 -0.525145)
(1.53831 2.58299 0.068889)
(-0.148143 -0.461651 1.04553)
(1.1312 0.0128593 0.573888)
(1.60157 1.02253 0.199552)
(0.741857 2.26795 0.70914)
(-0.227523 1.0699 1.40631)
(-0.452123 0.386774 1.27488)
(-0.667122 0.642714 1.8798)
(0.699665 0.927518 -0.309942)
(0.57813 0.829031 -2.1862)
(1.03322 -0.416046 -0.10655)
(0.985638 0.0315818 -1.08478)
(0.532032 0.364648 -1.42539)
(-0.0832303 0.181078 -0.171692)
(0.164101 -0.0140411 -1.42206)
(0.111914 0.0319437 -0.661895)
(-0.220459 0.372526 0.0288744)
(0.272672 0.119345 -0.906603)
(-0.255488 0.401944 -1.76075)
(-0.0650688 0.438921 -1.80188)
(-1.66706 2.37876 -0.257563)
(-1.51604 2.54979 0.106077)
(-1.07326 3.00825 0.154657)
(-2.04043 2.36105 0.145956)
(-1.67904 3.21001 0.233711)
(-1.07551 3.48636 0.589373)
(-2.27204 2.77076 -0.0299152)
(-1.33924 3.80906 0.37015)
(-0.511689 3.77359 0.352452)
(-0.74087 3.79001 0.475764)
(-2.72016 3.03585 0.237972)
(-1.77868 3.55625 0.634983)
(-1.02766 3.84565 0.227283)
(-0.826993 3.81621 0.699612)
(0.0159679 3.90088 1.01134)
(-3.13784 2.7846 0.668173)
(-1.92468 3.57428 1.2748)
(-1.40628 3.60656 1.07534)
(-0.79963 3.68578 1.28352)
(-0.292604 3.84696 1.69317)
(0.595134 3.96469 1.90555)
(0.658527 4.74519 0.255741)
(-1.76453 4.80255 0.415923)
(-0.884041 4.82941 2.12047)
(-0.406505 4.69922 1.89446)
(-0.0829629 4.65405 1.60414)
(0.734309 4.37388 1.75947)
(0.905916 4.43935 1.57947)
(-0.704685 4.7998 0.223568)
(0.00815909 4.56152 0.731597)
(0.360764 4.23317 1.79584)
(0.0140623 4.21066 1.7458)
(-0.0955425 4.16219 1.38696)
(0.288052 3.77733 1.2677)
(0.702836 3.5286 1.17662)
(0.936561 3.58093 0.479566)
(-0.231235 3.54216 -0.752737)
(0.402803 1.75639 -0.969927)
(0.298678 1.58659 -0.312061)
(-1.0215 2.48883 1.361)
(0.0555767 3.23998 1.61026)
(0.704308 2.62443 0.963432)
(1.69759 2.67143 -0.0760521)
(1.52008 2.56009 -0.433436)
(1.52706 2.54531 -0.313255)
(-0.182247 -0.666815 0.92746)
(1.15845 -0.0235399 0.472615)
(1.15942 0.822538 0.208114)
(0.762181 2.22851 0.805758)
(-0.115007 1.01596 1.67347)
(-0.25546 0.332584 1.39457)
(-0.65968 0.561077 1.93328)
(0.573983 1.00183 0.0878021)
(0.590238 0.788938 -2.24507)
(-0.160378 1.58912 -1.52454)
(0.976581 -0.407226 -0.105562)
(0.864193 -0.0223783 -0.986341)
(0.59746 0.364571 -1.29774)
(-0.151344 0.100127 -0.0366518)
(0.183502 -0.00186212 -1.45934)
(0.158283 0.0337742 -0.700459)
(-0.192082 0.3885 -0.0248009)
(0.317535 0.147411 -0.904751)
(-0.224311 0.398282 -1.77911)
(-0.125442 0.427371 -1.83143)
(-0.354807 0.815969 -1.54774)
(-1.30809 2.21605 -0.181701)
(-1.75324 2.33705 -0.192117)
(-1.05857 2.93507 0.151078)
(-1.85526 2.27418 0.0364478)
(-1.13604 2.9594 0.156533)
(-0.501435 3.16404 0.204152)
(-2.27793 2.12768 0.172564)
(-1.81126 3.12589 0.186341)
(-1.25112 3.3743 0.600814)
(-0.92581 3.37443 0.480567)
(-2.4163 2.62773 0.0184958)
(-1.31791 3.82506 0.440193)
(-0.605635 3.81625 0.388375)
(-0.938482 3.84032 0.506481)
(-0.213921 3.94973 0.625064)
(-3.02069 2.83397 0.122933)
(-2.10393 3.43583 0.614214)
(-1.16649 3.68822 0.486239)
(-1.11748 3.72749 0.668487)
(-0.976255 3.90919 0.932737)
(-0.0827114 3.80182 1.39543)
(-3.53679 2.56679 0.586971)
(-1.98015 3.55989 1.29544)
(-1.40769 3.72905 1.25262)
(-0.611007 3.90373 1.38399)
(-0.0101206 3.91254 1.65229)
(0.0582383 4.05631 1.92188)
(0.608627 3.90694 1.93928)
(-1.52898 4.74393 0.0763663)
(-2.03884 4.71107 1.3173)
(-0.798465 4.91396 1.92901)
(-0.419819 4.75327 1.99011)
(1.23579 4.67137 1.7991)
(0.762699 4.46411 1.90038)
(0.6943 4.46701 1.82151)
(1.40047 4.07686 1.53305)
(-0.65391 4.71839 0.164219)
(0.241484 4.53512 0.570481)
(0.392421 4.18615 1.98439)
(0.0944362 4.17943 1.74441)
(-0.0521748 4.08572 1.48253)
(0.264747 3.74991 1.34562)
(0.44801 3.54883 1.02854)
(1.44471 3.36195 1.06435)
(0.911276 3.69328 0.466096)
(-0.302324 3.5052 -0.832985)
(0.375915 1.63727 -0.910203)
(0.326896 1.48632 -0.287793)
(-1.23536 2.32347 0.464009)
(-0.0400977 3.28095 1.26457)
(0.630527 2.67477 0.538911)
(1.67279 2.66466 -0.13734)
(1.57356 2.52508 -0.643429)
(1.54518 2.5478 -0.226957)
(1.19124 2.38655 0.0319505)
(-0.190408 -0.855898 0.815868)
(1.12092 -0.0233839 0.402869)
(0.887858 0.628071 0.281178)
(0.865797 2.24405 0.657436)
(-0.0773076 0.93988 2.02377)
(-0.0554178 0.296318 1.49453)
(-0.478154 0.487284 1.80404)
(0.49839 1.05478 0.415848)
(0.696994 0.745114 -1.86762)
(-0.271054 1.45795 -1.46711)
(-0.118619 1.1187 -1.38146)
(0.9172 -0.401849 -0.107085)
(0.787488 -0.068648 -0.911663)
(0.602495 0.334311 -1.155)
(-0.180697 0.0355041 0.0575752)
(0.207646 0.0167127 -1.48685)
(0.209259 0.0370147 -0.73732)
(-0.151316 0.414569 -0.110771)
(0.352466 0.175236 -0.910459)
(-0.178262 0.396495 -1.81348)
(-0.172786 0.42304 -1.83059)
(-0.253408 0.810879 -1.5666)
(-0.41971 0.894644 -1.29701)
(-1.2948 1.76122 0.0312866)
(-1.28855 2.24682 -0.193993)
(-1.14437 2.65627 -0.0270177)
(-1.27059 2.2446 -0.196716)
(-1.80966 2.28638 -0.118221)
(-1.39807 2.74893 0.0712016)
(-0.814118 2.90889 0.15354)
(-1.99358 2.15766 0.00667302)
(-1.36421 2.82432 0.188517)
(-0.677701 3.08517 0.163018)
(-0.756233 3.16641 0.120832)
(-2.49713 1.90867 0.164639)
(-1.88272 3.02215 0.163526)
(-1.34909 3.39715 0.595191)
(-1.22978 3.40293 0.393157)
(-0.456946 3.4883 0.60316)
(-2.57184 2.48829 0.0807546)
(-1.43362 3.73578 0.475249)
(-1.0445 3.78069 0.355456)
(-1.25124 3.78193 0.539776)
(-0.879559 3.89876 0.727269)
(-0.497024 3.98033 0.741014)
(-3.12655 2.54441 0.114865)
(-2.21309 3.32637 0.576674)
(-1.51903 3.59509 0.294187)
(-1.12607 3.63817 0.770543)
(-0.457604 3.98062 0.995947)
(-0.871003 3.98772 1.24394)
(-0.200659 3.8013 1.51247)
(-3.69597 2.77482 0.943542)
(-2.17867 3.56987 1.36533)
(-1.62623 3.86645 1.32701)
(-1.08889 3.78582 1.31589)
(-1.20825 3.65236 2.12372)
(0.438633 4.15115 2.05407)
(1.79046 3.99397 2.13488)
(0.405701 4.1316 2.27811)
(-1.75911 4.5364 0.159398)
(-2.09715 4.95854 1.51489)
(-0.967147 4.95183 1.81623)
(-0.489447 4.74333 2.043)
(-0.256896 4.82205 2.03191)
(0.434094 4.46495 2.04343)
(0.679971 4.37078 2.01989)
(1.14463 4.12671 1.58146)
(0.762586 3.91171 1.98251)
(-1.44621 4.36909 0.405565)
(-0.243855 4.43005 0.341646)
(-0.298819 3.83964 1.56715)
(0.0919773 4.07898 1.49431)
(-0.1022 4.10066 1.49798)
(0.220034 3.75149 1.21232)
(0.251744 3.62908 1.19195)
(0.637175 3.77645 0.607119)
(0.752353 3.70699 0.386474)
(0.954564 3.66707 0.264094)
(-0.386948 3.54111 -0.93297)
(0.0960876 1.43065 -0.710069)
(0.262385 1.48483 -0.25886)
(-0.725302 2.23228 -0.759938)
(-0.145991 3.225 1.14916)
(0.600036 2.70411 0.301242)
(1.61223 2.66472 -0.221325)
(1.57154 2.52419 -0.527335)
(1.50915 2.46409 -0.275442)
(0.958018 2.27977 0.416246)
(0.588738 1.86948 -0.875283)
(-0.190069 -1.05591 0.729268)
(1.14235 0.00452873 0.24631)
(0.726547 0.474524 0.235539)
(1.00902 2.13942 0.940123)
(-0.088203 0.820396 2.47919)
(0.0877061 0.282084 1.51718)
(-0.169262 0.458643 1.57186)
(0.445413 1.07707 0.803219)
(0.677488 0.734878 -1.23022)
(-0.770799 1.25999 -1.25268)
(-0.253027 1.07184 -0.917839)
(1.16411 0.377632 -1.44725)
(0.852562 -0.402362 -0.10886)
(0.748667 -0.092403 -0.863268)
(0.556138 0.292 -1.03414)
(-0.177431 -0.0169383 0.144358)
(0.236956 0.0420752 -1.50007)
(0.263946 0.0439874 -0.773169)
(-0.102428 0.430331 -0.217811)
(0.376459 0.203425 -0.914866)
(-0.124761 0.401344 -1.87661)
(-0.257253 0.429948 -1.79389)
(-0.206748 0.820561 -1.57533)
(-0.346643 0.864055 -1.30123)
(-0.218702 1.2391 -1.41447)
(-1.41133 1.47026 0.0318674)
(-1.17084 1.85693 0.0730014)
(-1.05947 2.29115 0.102884)
(-1.16582 1.91502 0.0976134)
(-1.45017 2.06266 -0.0799878)
(-1.221 2.57956 -0.0741275)
(-0.520176 2.80605 -0.0820394)
(-1.10686 2.65143 -0.042196)
(-1.99235 2.14696 -0.0887694)
(-1.52434 2.68831 0.0354161)
(-0.944839 2.90024 0.151373)
(-0.646817 2.96748 0.104469)
(-2.16425 1.96886 -0.021657)
(-1.40704 2.79822 0.225621)
(-0.774752 3.06955 0.134108)
(-1.06245 3.03324 0.0857673)
(-0.356324 3.18267 0.336473)
(-2.57837 1.8854 0.163257)
(-1.9262 2.96943 0.168211)
(-1.47386 3.36618 0.556946)
(-1.39791 3.44567 0.439827)
(-0.744348 3.46988 0.582975)
(-0.662333 3.47141 0.592503)
(-2.96897 2.06038 0.0927539)
(-1.67407 3.61289 0.477728)
(-1.46295 3.70778 0.391388)
(-1.28511 3.74258 0.560716)
(-1.0597 3.81287 0.676859)
(-0.577965 4.0131 0.756792)
(-0.529639 4.0312 0.907818)
(-3.29352 2.28528 0.221314)
(-2.30947 3.20379 0.605582)
(-1.8288 3.5041 0.351589)
(-1.5033 3.64691 0.74897)
(-1.04398 3.88026 1.00073)
(0.380674 4.20477 1.14885)
(-0.438355 3.83086 1.47235)
(0.386527 3.88889 1.67782)
(-4.01152 2.73157 0.426496)
(-3.28103 3.01588 0.835112)
(-1.8501 3.89138 1.47593)
(0.662337 4.26797 1.72389)
(-0.679129 4.06414 1.64713)
(-0.879269 3.98585 2.20137)
(0.14356 4.41386 2.24002)
(0.750206 4.03495 2.40224)
(0.635267 4.05277 2.55094)
(-2.39541 4.48123 0.111643)
(-2.20217 5.29826 1.15587)
(-1.45051 5.06558 1.67136)
(-0.85296 4.62582 1.77928)
(-0.423487 4.72503 2.13911)
(-0.0642781 4.39119 2.12113)
(0.536926 4.4097 2.07177)
(1.28434 4.08249 1.60496)
(0.630879 3.84668 2.07454)
(0.608097 3.72182 1.82716)
(-1.60073 4.27418 0.518735)
(-1.52112 3.77851 0.135464)
(-1.21113 3.33343 -0.0905348)
(-0.246032 3.9904 0.803826)
(-0.26176 4.14098 1.41525)
(0.131599 3.82196 1.09165)
(0.132719 3.84551 0.910871)
(0.383496 3.69206 0.3883)
(0.661033 3.91828 0.665284)
(1.07191 3.70494 0.0655787)
(1.26895 3.19924 0.32052)
(-0.442446 3.50736 -0.985087)
(-0.33868 1.13484 -0.473317)
(0.141822 1.52559 -0.25086)
(-0.632499 2.23549 -1.0274)
(-0.310146 3.03354 1.15389)
(0.620315 2.70839 0.259605)
(1.43582 2.60495 -0.157896)
(1.45103 2.57181 -0.190453)
(1.22485 2.36424 -0.620789)
(0.919052 2.24884 0.000431755)
(0.555718 1.92516 -1.13286)
(0.635264 2.02595 -1.8569)
(-0.184476 -1.25205 0.656318)
(1.09821 -0.00787875 0.179479)
(0.599243 0.314603 0.144985)
(0.869489 1.91613 1.2498)
(-0.0236024 0.782979 2.69248)
(0.221032 0.306466 1.39822)
(0.220426 0.491449 1.25217)
(0.409158 1.05838 1.19591)
(0.704784 0.720293 -0.414999)
(-0.874577 1.04006 -1.13364)
(-0.334649 0.973167 -0.244216)
(1.15009 0.353703 -1.09018)
(0.956751 0.857074 -1.55572)
(0.779898 -0.411383 -0.108721)
(0.728168 -0.105992 -0.841922)
(0.507541 0.228737 -0.938733)
(-0.140095 -0.0363382 0.16235)
(0.267971 0.0743149 -1.49641)
(0.320158 0.0543572 -0.80838)
(-0.0506112 0.442526 -0.332827)
(0.389358 0.229735 -0.908779)
(-0.0569112 0.415468 -1.96431)
(-0.271346 0.428947 -1.82374)
(-0.173626 0.827037 -1.61895)
(-0.299512 0.8271 -1.33836)
(-0.304941 1.19464 -1.50332)
(0.418947 1.35865 -0.83377)
(-1.09384 1.49985 0.0231491)
(-1.30187 1.49467 0.208541)
(-1.00505 1.97995 0.0182632)
(-1.2898 1.60447 0.0544814)
(-1.4059 1.59395 0.247932)
(-1.16162 2.19427 0.0931871)
(-0.698857 2.54814 0.00950225)
(-1.05336 2.31411 0.0984376)
(-1.41129 2.17346 -0.214299)
(-1.45096 2.43985 -0.151995)
(-0.572492 2.7653 -0.0428609)
(-0.622875 2.74039 0.0656474)
(-0.31638 2.82113 -0.0648669)
(-2.22183 1.92145 -0.0254201)
(-1.53662 2.68508 0.012629)
(-0.999339 2.87773 0.14794)
(-0.723347 2.99218 0.0823169)
(-0.106716 3.07263 0.0324152)
(-2.33522 1.79307 -0.0783287)
(-1.48 2.6943 0.244412)
(-1.2131 2.9329 0.0935142)
(-0.822232 3.03945 0.0970023)
(-0.975847 2.97884 0.0853079)
(-0.446298 3.15432 0.303043)
(-2.82109 1.54071 0.0373471)
(-2.01006 2.90488 0.144134)
(-1.6608 3.26451 0.508946)
(-1.39898 3.36283 0.491313)
(-0.853488 3.44787 0.554904)
(-0.279397 3.47763 0.665569)
(-0.642607 3.43868 0.691935)
(-3.10124 1.99658 0.0231248)
(-2.03842 3.34989 0.367944)
(-1.63757 3.65453 0.432243)
(-1.53399 3.70773 0.577769)
(-1.18096 3.78613 0.607)
(-0.84156 3.84115 0.783661)
(-0.551152 3.92032 0.855939)
(0.10453 3.814 1.25322)
(-3.44212 2.0518 0.168509)
(-2.46433 2.9766 0.579883)
(-1.9644 3.45947 0.469079)
(-1.68138 3.62944 0.770216)
(-1.29589 3.74665 1.04072)
(-0.887404 4.04199 1.43744)
(-0.474556 4.07679 1.44869)
(0.347477 3.90247 2.02645)
(0.844354 3.7931 1.99491)
(-4.03683 2.65224 0.307226)
(-2.27625 3.83055 1.38669)
(-2.63496 3.54529 1.25435)
(-1.46849 4.17986 1.70062)
(0.191386 4.35364 1.68214)
(-0.26621 4.24114 2.10886)
(-0.635948 4.27023 2.16297)
(0.354776 4.24096 2.09105)
(0.28747 4.04247 2.39121)
(0.97954 3.89052 2.45409)
(-2.41955 5.14109 -0.455421)
(-1.84481 5.53411 0.794978)
(-1.88624 5.21058 1.45094)
(-0.986615 4.64485 1.42044)
(-0.20268 4.60441 2.05136)
(-0.0256869 4.40075 2.30865)
(0.368018 4.57074 1.85114)
(0.711438 4.16838 1.80627)
(0.694438 3.84519 1.97833)
(0.800642 3.6458 1.99149)
(0.504575 3.50831 1.49293)
(-2.35416 3.70026 0.762029)
(-1.87674 3.61379 0.112264)
(-1.89672 2.92493 -0.434503)
(-0.556205 3.79448 0.454302)
(-0.102954 4.1641 1.00525)
(0.163655 3.94166 0.919887)
(0.0313786 3.9583 0.829569)
(0.297046 3.69651 0.241357)
(0.403459 4.01961 -0.217601)
(0.48074 3.77736 0.164208)
(0.670997 3.22282 0.341048)
(1.28663 2.73227 0.189685)
(-0.689915 3.35535 -0.851267)
(-0.609871 0.834084 -0.128141)
(-0.0873258 1.4883 -0.20944)
(-0.508855 2.2476 -1.09201)
(-0.334397 2.78569 0.977949)
(0.632945 2.72227 0.165532)
(1.11637 2.49803 -0.177012)
(1.21152 2.55084 -0.407368)
(0.996745 2.3417 -0.84222)
(0.753569 2.19373 -0.499401)
(0.44649 2.00002 -1.48316)
(0.963386 2.01437 -1.89208)
(1.1102 2.17266 -1.77517)
(-0.186723 -1.43367 0.604684)
(1.03255 0.00612506 0.102312)
(0.495026 0.157594 0.0868508)
(0.533417 1.52405 1.30752)
(-0.0109396 0.692169 2.70574)
(0.339512 0.361943 1.15716)
(0.556771 0.521695 0.887727)
(0.362751 0.974121 1.51627)
(0.672913 0.713049 0.302087)
(-0.712842 0.943436 -0.994533)
(-0.340598 0.880721 0.303001)
(1.04288 0.356726 -0.649868)
(1.15125 0.747093 -2.00194)
(0.955947 1.975 0.29657)
(0.704889 -0.426787 -0.110883)
(0.718145 -0.119336 -0.830312)
(0.463485 0.170431 -0.871367)
(-0.10064 -0.0325482 0.114876)
(0.29946 0.111382 -1.48564)
(0.376225 0.0686459 -0.840084)
(0.00557444 0.455674 -0.449442)
(0.394062 0.254409 -0.885224)
(0.0146588 0.442266 -2.06064)
(-0.283038 0.4268 -1.92532)
(-0.159365 0.826614 -1.70691)
(-0.318744 0.831909 -1.34255)
(-0.327193 1.16246 -1.52145)
(0.404954 1.35004 -0.818906)
(0.695247 1.66661 -0.57817)
(-1.10233 1.27763 0.00217193)
(-1.2299 1.35564 0.00900344)
(-1.02663 1.76852 -0.0819485)
(-1.03744 1.56517 -0.00174177)
(-1.41744 1.40593 0.139049)
(-0.949219 2.02258 -0.018245)
(-0.583896 2.29832 0.062993)
(-0.991247 2.00648 0.024794)
(-1.48995 1.61769 0.0165618)
(-1.31879 2.141 0.076022)
(-0.839271 2.50112 -0.0659924)
(-0.810997 2.54532 0.271768)
(-0.448919 2.61532 0.064807)
(-1.76622 2.01595 0.0196995)
(-1.50943 2.38003 -0.0887659)
(-0.826451 2.65549 0.0260391)
(-0.786687 2.7117 0.0739941)
(-0.770381 2.72905 0.246367)
(-0.17987 2.79142 -0.0313458)
(-2.35514 1.74509 0.0399917)
(-1.60234 2.62282 0.0125399)
(-1.11006 2.82314 0.172124)
(-1.32234 2.78777 0.0949673)
(-0.594692 3.07724 0.107597)
(-0.61466 3.02987 0.260669)
(-2.35869 1.76829 -0.120826)
(-1.66152 2.50513 0.147834)
(-1.28728 2.89866 0.133266)
(-0.965242 3.03655 0.0812304)
(-1.00715 2.99926 0.0912288)
(-0.751633 3.07818 0.197824)
(-0.777084 3.16952 0.481626)
(-2.93158 1.37208 0.0645722)
(-2.15024 2.77378 0.070828)
(-1.7304 3.23795 0.485695)
(-1.60606 3.18197 0.392187)
(-1.19183 3.30677 0.53837)
(-0.428136 3.51564 0.687117)
(-0.544149 3.3942 0.779474)
(-0.266117 3.41555 0.945056)
(-3.20713 1.7801 0.00830987)
(-2.12678 3.30828 0.381103)
(-1.84745 3.50064 0.460529)
(-1.53814 3.76042 0.546729)
(-1.26845 3.81681 0.596651)
(-1.09317 3.80916 0.824751)
(-0.746476 3.78915 0.931924)
(-0.630467 3.91243 1.16615)
(0.661463 3.57305 1.57132)
(-3.5894 1.84004 0.180865)
(-2.62583 2.75187 0.530631)
(-2.12744 3.35338 0.441845)
(-2.06129 3.44984 0.794462)
(-1.14192 3.77008 1.33555)
(-0.902406 4.04201 1.4508)
(-0.672001 4.10096 1.62987)
(-0.183592 3.96893 1.93279)
(0.78 3.82697 2.03434)
(0.448124 3.87177 2.06924)
(-4.06818 2.72068 0.2972)
(-2.90299 3.62621 1.4092)
(-2.80622 3.48066 1.29722)
(-1.83916 4.14787 1.60724)
(-0.56352 4.30574 1.67571)
(-1.44719 4.10455 2.14237)
(0.612769 4.41985 1.99149)
(-0.0759751 4.07394 2.52866)
(0.884712 3.7722 2.76595)
(0.32767 4.0414 2.19385)
(0.72973 3.79937 1.93146)
(-4.25381 3.87526 0.231795)
(-4.33511 3.88915 2.02056)
(-1.9206 5.07227 1.16277)
(-1.61069 4.40257 2.53056)
(-0.547536 4.52393 1.58466)
(-0.641605 4.61913 2.0252)
(0.400031 4.556 1.81414)
(0.347491 4.19441 1.82615)
(0.421571 3.82017 1.99353)
(-0.0799916 3.92332 1.77391)
(0.340092 3.63335 1.42025)
(0.933529 3.20043 0.88887)
(-2.95782 3.42435 1.05009)
(-2.46226 3.49066 0.072514)
(-2.06067 2.68072 -0.929681)
(-0.652275 3.62601 0.180932)
(-0.0653228 4.18183 0.530048)
(0.115885 4.09809 0.656621)
(0.00271176 4.08458 0.426619)
(0.0745938 3.99361 0.0209528)
(0.321119 4.04436 -0.856984)
(0.555685 3.77451 0.0222761)
(0.584067 3.24681 0.247922)
(0.592658 2.79532 -0.124953)
(1.0746 2.82569 -0.199335)
(-1.45194 2.68435 -0.548114)
(-0.860863 0.62793 0.0863841)
(-0.429515 1.36365 -0.244674)
(-0.34492 2.30346 -0.84132)
(-0.00507242 2.77239 0.478437)
(0.592725 2.72454 -0.0494899)
(0.818386 2.38898 -0.488869)
(0.87662 2.46929 -0.863972)
(1.02572 2.35569 -0.919399)
(0.710384 2.14539 -0.796522)
(0.450062 2.06978 -1.83872)
(1.0414 2.17544 -1.72047)
(1.17697 1.93288 -2.14569)
(1.10867 1.33208 -2.04741)
(-0.197436 -1.60016 0.575745)
(0.946617 0.00406612 0.0509828)
(0.446533 0.0160924 0.0517744)
(0.185925 1.05416 1.29477)
(0.00488794 0.673851 2.39535)
(0.421386 0.423462 0.838775)
(0.759137 0.525068 0.494652)
(0.330476 0.882508 1.45611)
(0.532835 0.662806 0.898383)
(-0.315667 0.956593 -0.751626)
(-0.257122 0.807157 0.570609)
(0.989953 0.374546 -0.206931)
(1.35072 0.668051 -2.21529)
(0.598605 1.82105 -0.340889)
(0.622801 1.81824 0.124111)
(0.630968 -0.449479 -0.114922)
(0.721392 -0.128415 -0.824032)
(0.431908 0.126876 -0.837784)
(-0.0772345 -0.0191442 0.0381489)
(0.325393 0.148411 -1.47107)
(0.430968 0.0865384 -0.865611)
(0.0627319 0.471513 -0.562259)
(0.389674 0.277269 -0.854762)
(0.0861373 0.484453 -2.15102)
(-0.294559 0.413363 -2.064)
(-0.152478 0.826438 -1.82394)
(-0.342672 0.791506 -1.36347)
(-0.318734 1.10817 -1.51798)
(0.431594 1.33452 -0.752137)
(0.727897 1.65969 -0.612984)
(0.527155 1.1137 -0.609765)
(-1.18846 1.20088 0.0325896)
(-1.14081 1.20826 0.0330184)
(-0.99035 1.56464 0.163267)
(-1.01872 1.38288 0.0110963)
(-1.22902 1.37387 0.000249074)
(-1.03403 1.78393 0.0142241)
(-0.844142 2.04043 0.0575361)
(-1.04235 1.78572 -0.0757149)
(-0.971927 1.63928 -0.00597246)
(-1.62203 1.2092 0.0942881)
(-1.10257 1.96035 0.0314373)
(-0.626744 2.29455 0.0692633)
(-0.767394 2.207 0.255818)
(-0.485665 2.33256 0.123147)
(-1.72698 1.51374 0.295315)
(-1.43168 2.10556 0.11569)
(-0.952598 2.42944 -0.0475921)
(-1.06116 2.38795 0.211844)
(-0.754229 2.47145 0.396197)
(-0.752391 2.55689 0.304538)
(-2.14721 1.66087 0.0182264)
(-1.41552 2.40502 -0.0464923)
(-1.05494 2.54186 -0.0360115)
(-0.784654 2.71832 0.102684)
(-0.913946 2.73866 0.241267)
(-1.08168 2.66189 0.499937)
(-0.660792 2.69367 0.282237)
(-2.29572 1.80029 0.0678154)
(-1.85751 2.42858 -0.0258506)
(-1.09763 2.79018 0.190254)
(-1.29554 2.78582 0.0976575)
(-1.0945 2.92188 0.322575)
(-0.813217 3.03478 0.328893)
(-0.805482 2.98536 0.542441)
(-2.50923 1.45267 -0.0762449)
(-1.75106 2.47279 0.112197)
(-1.4899 2.70392 0.191424)
(-1.20383 2.96641 0.0553775)
(-1.03823 3.0701 0.200091)
(-1.01124 3.13817 0.234127)
(-1.02552 3.10611 0.549993)
(-0.354775 3.27169 0.69668)
(-2.96216 1.23603 0.120613)
(-2.44123 2.50922 0.0119596)
(-1.89127 3.11629 0.493871)
(-1.6144 3.21456 0.403346)
(-1.33676 3.30527 0.501043)
(-1.0842 3.38827 0.658258)
(-0.610448 3.45255 0.814334)
(-0.348859 3.43439 1.02683)
(-0.0308275 3.56255 0.983721)
(-3.17223 1.78844 0.208445)
(-2.60504 2.96845 0.332443)
(-2.01716 3.43482 0.476242)
(-1.79903 3.52427 0.498279)
(-1.48247 3.7458 0.657671)
(-0.926856 3.95265 0.76759)
(-0.919617 3.71448 1.00729)
(-0.784081 3.82841 1.17097)
(-0.0490653 3.88333 1.49665)
(0.472686 3.75921 1.62851)
(-3.88856 1.40635 0.115036)
(-3.07681 2.54494 0.38188)
(-2.36351 3.1094 0.586314)
(-2.00237 3.59635 0.813578)
(-1.78484 3.83968 1.22254)
(-1.10267 3.96548 1.56498)
(-0.0650099 4.23068 1.67876)
(-0.703913 4.02908 1.82228)
(0.125319 3.7545 2.02455)
(0.327256 3.84058 1.94685)
(0.624421 3.77433 2.07223)
(-4.07571 3.01238 0.135973)
(-3.57157 3.18165 1.14567)
(-1.8682 4.50521 1.44775)
(-2.90097 3.55833 1.48471)
(-0.664982 4.39761 1.73503)
(-0.203656 4.36095 1.88738)
(-0.738086 4.42808 1.91604)
(-0.371273 4.39131 2.36919)
(-0.105999 4.18706 2.40819)
(0.65496 3.98807 2.52278)
(0.317733 3.87139 1.88787)
(0.865241 3.53487 1.49833)
(-5.0042 3.06516 0.543829)
(-0.739281 6.13969 0.109645)
(-2.83945 4.28408 1.49495)
(-1.88999 4.90481 1.09255)
(-0.786085 4.49398 1.44987)
(-0.669726 4.64808 1.74164)
(0.192697 4.60398 1.55158)
(0.0593185 4.07289 2.05877)
(0.30716 3.77954 1.98624)
(-0.0941447 3.88572 1.50141)
(0.0874323 3.75663 1.24521)
(0.415845 3.0939 1.40879)
(0.652004 3.02059 1.22119)
(-3.9933 2.57419 1.17508)
(-2.92192 3.18617 0.390468)
(-2.27176 2.72193 -1.35656)
(-1.38391 3.15004 -0.391854)
(-0.397325 3.99512 0.0491502)
(0.038318 4.25104 0.395928)
(0.000881407 4.2289 -0.210759)
(-0.314595 4.22558 -0.263752)
(0.463669 4.10662 -1.15138)
(0.180924 3.802 0.123084)
(0.0177645 3.27467 0.364641)
(0.378009 2.86059 -0.153873)
(1.15994 2.9957 -0.223216)
(1.47877 2.55523 -0.192566)
(-2.23777 1.78565 -0.243791)
(-1.26392 0.3075 0.482035)
(-0.674267 1.17641 -0.336023)
(-0.414006 2.29862 -0.507133)
(0.179628 2.71996 0.326344)
(0.529132 2.66075 -0.260338)
(0.566197 2.24818 -0.610909)
(0.737453 2.42929 -0.666413)
(1.14392 2.40963 -0.987913)
(0.630675 2.07874 -0.813924)
(0.43149 2.05765 -2.167)
(1.18253 2.23029 -1.74268)
(1.32147 2.06044 -2.05059)
(0.892625 1.17908 -1.12999)
(1.65971 0.291909 -0.539464)
(-0.241819 -1.72037 0.531329)
(0.843722 0.00273611 0.00780274)
(0.440354 -0.0528464 0.0638213)
(-0.0806941 0.609296 1.27602)
(0.0371163 0.656922 1.96407)
(0.470235 0.483517 0.4575)
(0.803142 0.48921 0.147253)
(0.226565 0.710745 1.20041)
(0.323129 0.5372 1.23867)
(0.210894 1.03755 -0.308169)
(-0.0858999 0.741427 0.839258)
(1.04325 0.416306 -0.00407896)
(1.41968 0.633609 -2.30442)
(0.424584 1.72815 -0.757182)
(0.588502 1.75193 -0.247243)
(1.0274 1.07331 -0.24876)
(0.554561 -0.474762 -0.119053)
(0.717145 -0.125398 -0.819847)
(0.42299 0.0869164 -0.83023)
(-0.0642468 -0.00091737 -0.0534549)
(0.351497 0.186435 -1.45429)
(0.480042 0.107518 -0.886978)
(0.109781 0.488396 -0.670296)
(0.372413 0.296687 -0.831691)
(0.155967 0.539874 -2.22212)
(-0.301594 0.388616 -2.22076)
(-0.150218 0.81423 -1.97056)
(-0.369749 0.750699 -1.401)
(-0.307175 1.06575 -1.48847)
(0.388203 1.31726 -0.738938)
(0.71935 1.66327 -0.655525)
(0.522146 1.09937 -0.627978)
(0.384096 0.920929 -0.644304)
(-0.882118 1.3855 -0.03845)
(-1.3012 1.06632 0.00876532)
(-1.15317 1.47767 0.0610911)
(-1.00732 1.33468 0.0261788)
(-1.19989 1.14375 0.025874)
(-0.95721 1.59089 0.136507)
(-1.01071 1.75138 0.148698)
(-0.908054 1.67379 0.109174)
(-0.938788 1.46884 0.0047334)
(-1.29824 1.33412 -0.0280971)
(-1.02882 1.83151 -0.142921)
(-0.893009 2.03246 0.019472)
(-1.08711 1.93535 0.377338)
(-0.657259 2.09501 0.0992706)
(-0.885923 1.91947 -0.0849601)
(-1.63637 1.17869 -0.0186217)
(-1.01928 2.00651 0.000766074)
(-0.792241 2.18182 0.0537194)
(-0.994547 2.15041 0.247318)
(-0.836687 2.22696 0.406311)
(-0.509186 2.25924 0.28113)
(-1.82917 1.45156 0.122699)
(-1.51211 1.98229 0.00617747)
(-1.03325 2.38294 -0.0626527)
(-1.1258 2.37367 0.202849)
(-1.05833 2.34374 0.381494)
(-0.818808 2.40556 0.541365)
(-0.537549 2.53891 0.417801)
(-2.16107 1.70575 -0.0530494)
(-1.51943 2.42765 -0.0331968)
(-1.15704 2.4816 -0.0410026)
(-1.01991 2.56754 0.161707)
(-1.0405 2.72504 0.199366)
(-1.05991 2.68919 0.479175)
(-1.18639 2.58404 0.540403)
(-0.990985 2.61716 0.535117)
(-2.4315 1.56188 -0.0128702)
(-2.08209 2.23712 -0.00207387)
(-1.15076 2.7287 0.296726)
(-1.24902 2.7724 0.158643)
(-1.56649 2.74919 0.348634)
(-1.08337 2.90435 0.411806)
(-0.900334 3.00931 0.55647)
(-0.54877 3.0335 0.71601)
(-2.62241 1.29137 0.00132744)
(-2.16043 2.18786 0.118746)