/*--------------------------------*- C++ -*----------------------------------*\
  =========                 |
  \\      /  F ield         | OpenFOAM: The Open Source CFD Toolbox
   \\    /   O peration     | Website:  https://openfoam.org
    \\  /    A nd           | Version:  7
     \\/     M anipulation  |
\*---------------------------------------------------------------------------*/
FoamFile
{
    version     2.0;
    format      ascii;
    class       volScalarField;
    location    "3.5";
    object      nut;
}
// * * * * * * * * * * * * * * * * * * * * * * * * * * * * * * * * * * * * * //

dimensions      [0 2 -1 0 0 0 0];

internalField   nonuniform List<scalar> 
18750
(
0.000961239
0.00100043
0.000455374
0.00101044
0.00166509
0.00228905
0.000898396
0.0007871
0.000538762
0.000931321
0.00257258
0.000559126
0.00146079
0.000642349
0.00165109
0.00103606
0.000267561
0.000652133
0.000673876
0.000770618
0.00241727
0.00135987
0.00207697
0.00138999
0.00271359
0.00173446
0.000657641
0.000838755
0.000659554
0.00124014
0.000320012
0.000268963
0.00056367
0.000703254
0.000723963
0.00310353
0.00166748
0.00244638
0.00249299
0.00228976
0.0025637
0.00163857
0.000914169
0.000849962
0.00186259
0.000377483
0.00069718
0.00103859
0.000910566
0.00131859
0.000292439
0.000316107
0.000313667
0.000582914
0.000784906
0.000733663
0.0034418
0.000970821
0.00346911
0.000777988
0.000692766
0.00228276
0.000961795
0.00184098
0.00253813
0.00278072
0.00158875
0.00141764
0.00128532
0.00462253
0.00220049
0.000433319
0.000464944
0.000733322
0.000985134
0.000738707
0.00133565
0.00024917
0.000260779
0.000315098
0.000318292
0.000492935
0.000809092
0.000727985
0.00275295
0.00129753
0.0032998
0.00033219
0.000868169
0.00343723
0.000462488
0.000640269
0.000886362
0.00263804
0.000882556
0.000952086
0.00112251
0.00158589
0.00217038
0.00121034
0.00124147
0.001135
0.000755189
0.00147974
0.00262851
0.000476629
0.000786394
0.000619861
0.000825096
0.000935536
0.000559071
0.00142874
0.000169092
0.000238498
0.000185474
0.000304394
0.000331187
0.000597893
0.000839246
0.000716947
0.00266269
0.00121458
0.00272013
0.00094316
0.00141656
0.0032197
0.00039018
0.000580594
0.00119214
0.00323882
0.00099071
0.000400866
0.000561783
0.000644187
0.00299058
0.000599255
0.00118
0.00116168
0.00103942
0.00149237
0.00218373
0.00146122
0.00130037
0.00109015
0.00118846
0.000645643
0.00144914
0.002724
0.000631976
0.000418138
0.00113792
0.000689069
0.000814917
0.00106209
0.000526573
0.00148639
0.00015431
0.000168624
0.000203783
0.000117233
0.00029692
0.000357264
0.000745702
0.000827852
0.000695093
0.00254192
0.00092567
0.0025137
0.000935615
0.000856074
0.00280601
0.00111736
0.00138869
0.00179846
0.00311007
0.000766807
0.00104771
0.000761688
0.00125604
0.00357535
0.000907647
0.000722283
0.000636128
0.000615927
0.00138439
0.00337187
0.000762628
0.00076145
0.000898107
0.00118509
0.00103532
0.00115054
0.00181931
0.000845704
0.000605476
0.0013622
0.000958032
0.00118236
0.000992246
0.00170745
0.0021351
0.000455906
0.00054649
0.00071266
0.000678849
0.000584262
0.00082882
0.0010589
0.000535209
0.00134836
0.000320023
0.000237528
0.000163785
0.000198178
0.000184732
0.000295265
0.000403616
0.000699747
0.000802345
0.000659722
0.00248774
0.000676936
0.00241446
0.000695256
0.00107055
0.00246874
0.000720541
0.000912113
0.00102906
0.00268758
0.000822514
0.00119609
0.00135876
0.00162504
0.00321097
0.000763472
0.000809179
0.000721246
0.000996026
0.00121971
0.00307758
0.000653243
0.00136
0.00069168
0.000887612
0.000936344
0.00161009
0.0031804
0.00107586
0.000813619
0.000899814
0.000717802
0.000826206
0.000949015
0.000830404
0.00188416
0.000925573
0.00139932
0.00131159
0.00116545
0.00105559
0.00140113
0.00133909
0.00143663
0.0011589
0.000485833
0.000431339
0.000309451
0.000392924
0.000442865
0.00050226
0.000843309
0.000917776
0.000546779
0.00103723
0.000323363
0.000354228
0.000236096
0.000117041
0.000192119
0.000107264
0.000294261
0.000463545
0.000652148
0.000770612
0.000608562
0.000803579
0.00238037
0.000401063
0.000657586
0.00242499
0.000616725
0.00051082
0.000798073
0.00256805
0.0016376
0.00138964
0.00103912
0.0014259
0.0025592
0.000591314
0.00124993
0.000878033
0.00153219
0.00147487
0.00340284
0.000645377
0.000484152
0.000834476
0.00075096
0.00169591
0.00203027
0.00430837
0.000568708
0.000586671
0.000653484
0.000609643
0.00147382
0.0013266
0.0018608
0.00296487
0.00160263
0.000798022
0.000776066
0.000881077
0.000740897
0.000740815
0.00103988
0.000514402
0.00171364
0.000590419
0.0011537
0.00134341
0.00145039
0.000829435
0.00155687
0.00168964
0.00131615
0.00121294
0.00173998
0.000437331
0.000383787
0.000540159
0.000263859
0.000354188
0.000745914
0.000611796
0.000828831
0.000912532
0.0005612
0.0007016
0.00020402
0.000284591
0.00030531
0.000138798
9.39951e-05
0.00017252
7.05414e-05
0.000292996
0.00052829
0.000594933
0.000742858
0.000544565
0.00240151
0.000612444
0.000662659
0.00239672
0.000502309
0.000509723
0.000700355
0.00242758
0.00104983
0.000838245
0.000541059
0.000576246
0.0025861
0.000905204
0.00177066
0.00158692
0.000845009
0.000937714
0.00250389
0.00050983
0.000535374
0.000563148
0.000430492
0.00138686
0.00189636
0.00301647
0.000518149
0.000360617
0.000989764
0.00056638
0.00106225
0.00134439
0.000874117
0.00519717
0.000724276
0.000482715
0.000343509
0.00064893
0.00076956
0.000776871
0.00147931
0.00360757
0.00531527
0.00148387
0.00130231
0.000441429
0.000985396
0.000829407
0.000744487
0.00065805
0.00127545
0.00150704
0.00218683
0.00063718
0.000650166
0.00112277
0.000781233
0.000927114
0.000859272
0.00109229
0.00125302
0.00106204
0.00181825
0.00137802
0.000121803
0.000483411
0.000365583
0.000591381
0.000268038
0.000456329
0.000566377
0.000597687
0.000773886
0.000972581
0.000527439
0.000559803
0.000333644
0.000418093
0.000311109
0.000201665
0.000109809
0.000203669
0.000133181
8.64602e-05
0.000286837
0.000564535
0.000599841
0.000712698
0.000483056
0.00235026
0.000558803
0.00233182
0.000484954
0.00060582
0.000680838
0.00238882
0.00112718
0.000798688
0.000534452
0.000560658
0.00244091
0.00131684
0.000618765
0.000686742
0.000586379
0.000784472
0.00240866
0.000942995
0.00112494
0.000674568
0.000724665
0.00114546
0.000998769
0.00258915
0.00072974
0.000239912
0.00061435
0.00112195
0.00207524
0.00191791
0.00224324
0.0031103
0.000673598
0.000653337
0.000294769
0.000834726
0.00124013
0.000667183
0.000778853
0.000667173
0.00403741
0.000996554
0.000435358
0.000807511
0.00032841
0.000505795
0.000702822
0.000926644
0.00141654
0.0021955
0.00485547
0.000584671
0.000756738
0.000836536
0.000668472
0.000729122
0.00074099
0.000702964
0.000658924
0.000989021
0.00369826
0.00392611
0.000594811
0.000618796
0.00103667
0.00115089
0.000836743
0.000859768
0.000910677
0.000821825
0.00107041
0.000980759
0.00219199
0.00169086
0.000249788
0.000353684
0.00036512
0.00048227
0.000631216
0.000358484
0.00030487
0.000345876
0.000511818
0.000655098
0.000764193
0.000384628
0.000415922
0.00020993
0.00019132
0.000494591
0.00026051
0.000210984
0.000153167
0.000331102
0.000117977
0.000123518
0.0002714
0.000537135
0.000635139
0.000668192
0.000427279
0.00225663
0.000373518
0.00233852
0.000520934
0.000408909
0.00229256
0.000695632
0.000452964
0.000441984
0.000489417
0.00236663
0.000969866
0.000913393
0.000796903
0.000734246
0.000740387
0.00249622
0.000924089
0.00125389
0.00201034
0.000874254
0.000608386
0.000722275
0.00237303
0.000788803
0.000425696
0.0008389
0.000750721
0.000782176
0.0011586
0.000504428
0.00250214
0.000721845
0.000627159
0.000881387
0.000305343
0.000656446
0.0013354
0.00143824
0.00276278
0.00343847
0.00111316
0.00051815
0.000331194
0.00094369
0.000965805
0.000810556
0.00109739
0.0013978
0.00214939
0.0041238
0.00184736
0.00114797
0.00036368
0.00080336
0.0015814
0.00143904
0.000690943
0.00096373
0.000592949
0.000692259
0.00314933
0.000865697
0.000750408
0.000676312
0.00096738
0.00102319
0.000685454
0.000555806
0.000674237
0.000749048
0.0009615
0.00296267
0.00296455
0.000611803
0.00057612
0.000726512
0.000983446
0.00067312
0.00104141
0.000806828
0.000567683
0.000840961
0.000865225
0.000680043
0.00245201
0.00262285
0.000393043
0.000351934
0.000438662
0.000418254
0.000525068
0.000516139
0.000347276
0.0002547
0.000406688
0.000475136
0.000561052
0.00065466
0.000430416
0.000435243
0.000158226
0.000240722
0.000233871
0.000503238
0.000323799
0.000226278
0.000339467
0.000106745
0.000109101
0.000148689
0.000246771
0.000457464
0.000671533
0.000597999
0.000386515
0.000539135
0.00221905
0.000309857
0.000599173
0.00237983
0.000316366
0.000231825
0.000260542
0.00227487
0.000902819
0.00065862
0.000556744
0.000429882
0.000490048
0.00239013
0.000721189
0.000995489
0.000803467
0.000655927
0.000725221
0.000631139
0.00250437
0.00104825
0.00105211
0.00170885
0.000913632
0.000945
0.000742735
0.0010426
0.00237432
0.000823821
0.00103055
0.000915478
0.000548105
0.00105796
0.0011827
0.000959285
0.00108544
0.00216642
0.000545999
0.000468223
0.000224974
0.00049451
0.00114547
0.000853406
0.000955384
0.0013819
0.000516139
0.0034142
0.000981934
0.000833969
0.000679139
0.00035801
0.000661441
0.000972145
0.000530685
0.0007546
0.00149259
0.00334218
0.00411796
0.000905907
0.000728657
0.000767151
0.00077187
0.00091772
0.00126812
0.000775341
0.000632696
0.000592428
0.000446015
0.00116758
0.00363831
0.000837751
0.000847534
0.00168093
0.000747613
0.000952854
0.000994538
0.000552367
0.00038804
0.000563288
0.000687597
0.00177182
0.000801151
0.00229317
0.000635089
0.000473567
0.000552479
0.000827254
0.00146973
0.00180246
0.000787972
0.000710099
0.00111242
0.000915871
0.000840948
0.000829373
0.00286027
0.00282951
0.000411046
0.000668556
0.00025816
0.000399674
0.000419841
0.000567522
0.000446433
0.000278164
0.000218979
0.000472963
0.000506026
0.000460695
0.000560816
0.000576244
0.000622256
0.000101356
0.000112719
0.000224124
0.000452211
0.000385788
0.000299144
0.0002277
9.28049e-05
0.00036427
9.98502e-05
9.89177e-05
0.000202864
0.000378389
0.000704368
0.000497852
0.000374744
0.002292
0.000326017
0.000449051
0.00227715
0.000726074
0.000548501
0.000491
0.00229846
0.000531229
0.000554259
0.000441719
0.000528102
0.00229626
0.000652424
0.000679792
0.000714477
0.000346003
0.000441256
0.000589303
0.00235314
0.00153657
0.00103146
0.00146432
0.000929303
0.000699555
0.000489832
0.000489892
0.00251748
0.000845974
0.000739007
0.00020296
0.000511993
0.00110669
0.00119101
0.000924474
0.000956576
0.00239024
0.000656269
0.00074789
0.000454928
0.000663157
0.000589047
0.000178957
0.000543298
0.000779701
0.00178353
0.00212543
0.000737967
0.000694389
0.000576335
0.000672848
0.00117907
0.00144164
0.00152901
0.00153963
0.00163653
0.00139091
0.00288242
0.000666826
0.000850832
0.000583066
0.000645753
0.000658587
0.000274893
0.000363218
0.000862131
0.000802629
0.00133354
0.0019478
0.00394176
0.000815817
0.00132576
0.00145644
0.000934368
0.00102217
0.00110403
0.000574346
0.000509659
0.000775468
0.000313209
0.000900469
0.00175031
0.0038504
0.0006676
0.000399456
0.000644449
0.0015831
0.00112254
0.00132744
0.000867281
0.000238549
0.000420626
0.000554909
0.000637536
0.00163619
0.00170765
0.00254548
0.000222147
0.00135233
0.00072545
0.00058584
0.00137486
0.0014431
0.00148944
0.000714398
0.000843877
0.000442491
0.000967785
0.000867883
0.00112277
0.00259983
0.00206948
0.000387781
0.000442343
0.000369602
0.000199327
0.000421719
0.000519524
0.000529773
0.000675025
0.000211913
0.000255956
0.000408321
0.000465613
0.000383079
0.000487196
0.000748268
0.000767287
0.000131595
8.56769e-05
8.78556e-05
0.000203094
0.000535557
0.000411214
0.000277736
0.0002296
0.000243587
0.000258533
8.29655e-05
0.000106411
0.000213203
0.000366086
0.000715365
0.00037834
0.000400471
0.00227009
0.00056565
0.00231201
0.000479935
0.000147178
0.000384763
0.00231018
0.000576943
0.000506868
0.000338903
0.000348356
0.00235538
0.000534358
0.000537685
0.000397701
0.000262415
0.00037492
0.00224799
0.000761687
0.000875933
0.000618545
0.000562442
0.00049754
0.000316546
0.000508241
0.0023715
0.00110414
0.000915864
0.000783593
0.00129062
0.00102561
0.000571984
0.000728699
0.000525346
0.00229402
0.000991589
0.000848883
0.000990387
0.00101529
0.000512733
0.00052745
0.000904458
0.000685817
0.0008104
0.00229336
0.000929055
0.000907977
0.000521343
0.000602184
0.000497284
0.00110019
0.00112428
0.000999951
0.00086115
0.000543122
0.00212704
0.000349135
0.00053964
0.000393702
0.000562199
0.000522498
0.000889024
0.000556762
0.00165183
0.00088249
0.00171072
0.00231052
0.00274245
0.00117481
0.000628786
0.000857786
0.000486502
0.000545316
0.000841172
0.000344245
0.000582564
0.000909646
0.00111516
0.00210306
0.00224801
0.00385955
0.00116458
0.000786786
0.000675451
0.000840178
0.00104788
0.000948284
0.000898942
0.000558259
0.000655675
0.00113632
0.000522137
0.000435842
0.00180184
0.00443572
0.000654726
0.00100235
0.000753291
0.000976476
0.000919173
0.00103139
0.00152476
0.000662531
0.000795984
0.000662708
0.000805316
0.000496205
0.000811019
0.00078342
0.00272582
0.000302471
0.000381435
0.00046284
0.000573136
0.00113045
0.00136069
0.00160456
0.000389427
0.000824134
0.000989304
0.000547114
0.000763165
0.00104903
0.00133224
0.00166933
0.00149806
0.000197062
0.000426632
0.000340031
0.000287402
0.000279216
0.000502729
0.00056508
0.000376627
0.000669428
0.000230658
0.000270923
0.000166533
0.000345659
0.000309889
0.000437845
0.000838228
0.000969427
9.56309e-05
0.000132955
0.000116594
9.18701e-05
0.000202964
0.000559979
0.000296842
0.000232288
0.000224841
0.000134216
0.000238373
6.22872e-05
9.30149e-05
0.000251382
0.000383213
0.000681068
0.000289968
0.000383175
0.00221395
0.000474195
0.00226799
0.000209122
0.000396153
0.00234192
0.000411717
0.000516283
0.000254514
0.000351642
0.0023005
0.000423153
0.000287122
0.000407048
0.000461533
0.000573451
0.00235349
0.000738875
0.000620692
0.000482007
0.000328692
0.00035368
0.000324106
0.00228388
0.000711606
0.00118404
0.000714393
0.000866986
0.000687158
0.000599275
0.000535145
0.000565091
0.00234857
0.00112412
0.00102182
0.00118038
0.000442521
0.000654166
0.000970704
0.000625615
0.000607679
0.000945556
0.00229117
0.00126033
0.00051587
0.000930922
0.000765567
0.00061656
0.00134113
0.000476923
0.000623043
0.000730251
0.000353427
0.00237332
0.000596363
0.000743396
0.000858802
0.000639513
0.000599187
0.00131915
0.000727228
0.00100598
0.00105694
0.00170966
0.00131988
0.00210315
0.000593838
0.000361213
0.000703909
0.00049445
0.000493965
0.000665958
0.000364519
0.000803823
0.0016963
0.00131191
0.00112333
0.00163857
0.00253892
0.0013012
0.000493121
0.000676166
0.000659972
0.000407345
0.000522735
0.000268957
0.000336154
0.000589908
0.000344221
0.000607727
0.00219905
0.00250423
0.00412073
0.00144644
0.00114253
0.000956383
0.00103321
0.000692528
0.00146993
0.000518246
0.00107106
0.000414987
0.000558395
0.000522659
0.000900081
0.000803935
0.0016531
0.00402676
0.000637105
0.00137348
0.000721913
0.000775688
0.00116905
0.00100598
0.00175516
0.0012498
0.000646002
0.000822847
0.000707138
0.000623846
0.000493539
0.000761046
0.00090891
0.00197207
0.000228832
0.000265069
0.000589868
0.000606782
0.00109743
0.00132859
0.000913541
0.0028322
0.000842097
0.00111769
0.00084079
0.00100641
0.000929354
0.000984552
0.00160594
0.0022279
0.00165023
0.000239527
0.000231812
0.000369344
0.000227939
0.000198293
0.000431808
0.000584391
0.000492453
0.000714806
0.000381025
0.000230245
0.000310262
0.000212484
0.000423071
0.000239872
0.000414322
0.00100307
0.00123095
0.000130415
0.000121655
0.000137847
0.000184413
0.000123357
0.000259478
0.000520723
0.000290411
0.000182661
0.000184201
0.000189959
0.000103647
7.53375e-05
7.11219e-05
0.000399644
0.000371193
0.000614896
0.000230907
0.000354959
0.00219733
0.000430042
0.00225994
0.00021856
0.000361024
0.00230015
0.000348799
0.000472585
0.000501498
0.00229376
0.000398038
0.000557293
0.000363716
0.000354132
0.000367252
0.00229918
0.000391603
0.000358889
0.000498828
0.000383591
0.000322448
0.00036656
0.00233881
0.000951627
0.000527478
0.000442919
0.000509723
0.000439072
0.000525191
0.000432262
0.00232963
0.000623275
0.000844349
0.000862995
0.000742246
0.000499301
0.000367571
0.000544967
0.000326561
0.000563242
0.00235304
0.00102638
0.000836766
0.00103177
0.000443665
0.00074021
0.000749745
0.000475604
0.0003905
0.00116448
0.000632615
0.00230897
0.00153256
0.000720987
0.00114682
0.000544138
0.000874831
0.000969519
0.00091381
0.00151751
0.00106112
0.000390356
0.000910539
0.00218923
0.000970961
0.000524132
0.000942956
0.000485905
0.000518308
0.00079225
0.000472299
0.000609745
0.000860199
0.000650428
0.0013715
0.000710874
0.00213526
0.000528902
0.000323771
0.000444553
0.000467449
0.000792325
0.0005874
0.000439275
0.000678984
0.00106031
0.000682553
0.00121981
0.00140417
0.00220596
0.00220628
0.000738167
0.000951162
0.000704633
0.000611709
0.000476446
0.000302221
0.000510116
0.000367083
0.000646755
0.000796494
0.00117946
0.00174484
0.00174614
0.00226834
0.00362585
0.00101378
0.000969984
0.000906067
0.00101071
0.000641877
0.00129176
0.00113608
0.000482939
0.000539931
0.000617027
0.00066631
0.000573992
0.000892023
0.000653383
0.00104511
0.00296587
0.000321272
0.000705711
0.000876711
0.000998617
0.000868349
0.00149834
0.000981099
0.00191321
0.000851817
0.000513623
0.00045003
0.000681685
0.000686422
0.000460571
0.000665671
0.00108268
0.00211526
0.000551114
0.000454841
0.000221887
0.00042034
0.000823623
0.00126519
0.000942842
0.00220529
0.00119186
0.00111235
0.000928641
0.000658365
0.00106486
0.00103575
0.000864403
0.00202444
0.00144344
0.00186975
0.000467561
0.000439097
0.000157046
0.000321596
0.000144349
0.000269034
0.00050055
0.00058166
0.000554444
0.000574954
0.000329312
0.00023745
0.00025681
0.000276083
0.000334062
0.000225535
0.000387364
0.00129102
0.0013906
0.000102755
0.000167108
0.00015843
0.000119977
0.000217706
0.000177198
0.000305511
0.000434016
0.000301278
0.00010968
0.000156521
0.000278582
0.000120188
0.000103869
6.40429e-05
0.000405187
0.000344725
0.000534672
0.000231436
0.000400932
0.00223473
0.00036664
0.00223499
0.000247815
0.000389015
0.00218742
0.000379462
0.000212673
0.00021886
0.00230361
0.000331281
0.000416215
0.000423678
0.000626315
0.00225165
0.000391884
0.000316644
0.000412148
0.000298835
0.000474185
0.000380414
0.00226944
0.000316877
0.0006981
0.000396331
0.000467005
0.000572048
0.000648913
0.000498159
0.00234181
0.000402464
0.000572336
0.000390005
0.000456958
0.00046056
0.000407808
0.000389484
0.00052886
0.00230971
0.000476421
0.000720766
0.000655939
0.000871293
0.000441844
0.00098691
0.000516246
0.000417234
0.000646013
0.000742542
0.00224577
0.000917824
0.00102039
0.000906313
0.000611297
0.00104678
0.000358735
0.000670748
0.000808945
0.000689938
0.00047725
0.000746049
0.00235322
0.00108581
0.000598845
0.000704533
0.000820371
0.000769004
0.000734814
0.0014624
0.000639136
0.000754209
0.000778481
0.00120693
0.000860657
0.00210389
0.000904586
0.000459738
0.000850305
0.000776083
0.000512967
0.000696074
0.000351536
0.000265398
0.000915202
0.00172741
0.00106895
0.00063891
0.000630906
0.00199333
0.000304396
0.000495368
0.00048496
0.000496077
0.000451197
0.000570719
0.000775873
0.000930764
0.000836383
0.000502018
0.0008247
0.000961187
0.00151703
0.00158271
0.00204804
0.000721212
0.000757944
0.000955365
0.000381078
0.00057877
0.000687831
0.000340427
0.000425306
0.000561186
0.0007521
0.000953778
0.000467821
0.00177304
0.00144513
0.00120062
0.00410262
0.000796652
0.000885284
0.000501447
0.00132301
0.000816719
0.00121923
0.00148493
0.000708817
0.00150133
0.000691548
0.000749867
0.000756668
0.00100658
0.000804661
0.00113745
0.00176153
0.00333793
0.000368044
0.000495894
0.000685837
0.000856666
0.000993003
0.00096516
0.000648806
0.00130999
0.00169802
0.000849981
0.000499893
0.0013166
0.00102022
0.0010503
0.000631592
0.00145099
0.000909214
0.00205267
0.000266926
0.000538741
0.000630454
0.000238688
0.000712264
0.000871417
0.000609579
0.0012552
0.00260429
0.000607779
0.00109688
0.000427053
0.00069116
0.000992896
0.00139968
0.000901739
0.00202997
0.00118744
0.00155323
0.000378295
0.000413735
0.000353636
0.000259416
0.00031539
0.00016353
0.000343733
0.00050461
0.000496068
0.000666027
0.000526108
0.000319291
0.000208916
0.000220692
0.000471145
0.000140502
0.000215672
0.000433525
0.00139167
0.00119449
9.7865e-05
0.000135828
0.00018007
0.000274064
0.000104833
0.000165952
0.000200437
0.000371862
0.000274067
0.000216044
5.18365e-05
0.000153006
0.000131601
0.000144167
0.000132041
6.92548e-05
0.000309105
0.000322052
0.000443989
0.00031372
0.000409408
0.00226467
0.000359548
0.00220218
0.0003681
0.000276958
0.00219468
0.000531631
0.000359192
0.000385793
0.00219773
0.000387234
0.000357674
0.000503779
0.00031725
0.00223598
0.000402525
0.00058146
0.000388018
0.000257972
0.000481916
0.00225591
0.000288851
0.000507913
0.000329129
0.000397948
0.000559407
0.00040482
0.000464748
0.00228139
0.000321089
0.000547383
0.000129797
0.000324678
0.000312633
0.000364401
0.000587926
0.000382253
0.00232437
0.00055212
0.000524236
0.000930685
0.000539081
0.000304933
0.000273564
0.000508743
0.000223404
0.000513063
0.002355
0.000433582
0.000926906
0.00101404
0.000932822
0.00068613
0.000558459
0.000564328
0.000572115
0.000427124
0.000723147
0.000379107
0.00216948
0.000588024
0.000915083
0.000967509
0.000311865
0.000594379
0.00101176
0.000950735
0.000595582
0.000815329
0.000898684
0.000443413
0.000968748
0.00218974
0.000983561
0.00083453
0.000845168
0.000592805
0.000632705
0.000712499
0.000851625
0.000144809
0.000991242
0.000649406
0.000559313
0.000721188
0.000711571
0.00204634
0.001232
0.000842299
0.000509319
0.000706284
0.000550558
0.000841416
0.00056962
0.000298166
0.00149595
0.00111598
0.000548824
0.000953626
0.00101724
0.000795733
0.00202239
0.000559683
0.000650397
0.000137823
0.000786088
0.000639208
0.000722382
0.000552801
0.000862682
0.000932097
0.000650835
0.00139776
0.00159299
0.00148559
0.00154979
0.00176413
0.00204364
0.00125362
0.000749842
0.000544114
0.000684196
0.00044866
0.00051174
0.000318768
0.000442959
0.000391374
0.000437868
0.000765531
0.000503373
0.000912739
0.00090597
0.00214021
0.00267909
0.00332494
0.000575174
0.000731976
0.000874823
0.00109837
0.00102095
0.000903095
0.00179404
0.00103521
0.00067212
0.000775521
0.000577911
0.000845004
0.000835102
0.00160725
0.000905257
0.000789368
0.00153188
0.00339292
0.000260647
0.000214814
0.000535888
0.000656443
0.000973381
0.000576811
0.000801615
0.00133111
0.00141854
0.00127744
0.00102338
0.00101599
0.00122835
0.00118364
0.000991931
0.000765848
0.00213259
0.00125141
0.00271944
0.000267132
0.0003562
0.000160471
0.000266521
0.00030711
0.000683081
0.00106097
0.00111103
0.00262388
0.00105116
0.00140265
0.000800754
0.000535706
0.000548096
0.000490453
0.00148907
0.000915987
0.00143448
0.00137042
0.00170167
0.000179637
0.000477113
0.000321197
0.000374756
0.000288207
0.00028181
0.000242632
0.000493317
0.000488276
0.000540068
0.0004831
0.000715047
0.000295054
0.000203664
0.000269179
0.000324096
0.00025492
0.000190256
0.000522012
0.00103397
0.000781826
0.000161125
8.9353e-05
0.000160154
0.000216635
0.000239635
0.000178169
0.000139116
0.000214886
0.000461287
9.74659e-05
0.000156487
3.31448e-05
0.000144989
0.000153505
0.000219997
0.000115992
5.70153e-05
0.000257381
0.000300303
0.000328912
0.000447187
0.000442594
0.0021097
0.000235732
0.00223616
0.000339284
0.000382168
0.00218045
0.000312053
0.000451388
0.000349288
0.00223495
0.000262255
0.000460069
0.000270447
0.000281082
0.00215518
0.000621261
0.000443647
0.000429478
0.000501134
0.000530688
0.00216135
0.000593209
0.000414481
0.000414209
0.000511633
0.000599579
0.000480455
0.00225332
0.00038896
0.000329157
0.000140414
0.000307071
0.000501184
0.000529299
0.000463034
0.000526976
0.00229023
0.000343856
0.000281833
0.000414456
0.000521282
0.000259057
0.000226239
0.000425163
0.000334517
0.000547757
0.00238223
0.000559734
0.000482172
0.000419426
0.000647859
0.000417673
0.000700189
0.000393945
0.000407773
0.000692088
0.000161712
0.00243867
0.000458513
0.000989007
0.00101866
0.000584006
0.000685423
0.000647667
0.000486997
0.000284605
0.000368869
0.00044365
0.000106622
0.000717494
0.00215258
0.000619234
0.000705225
0.000774746
0.000358068
0.00084159
0.00104401
0.000800084
0.00104688
0.000867603
0.000798105
0.000670676
0.000749007
0.000899073
0.00204534
0.00111082
0.000654596
0.000861778
0.00060541
0.000861727
0.000576937
0.000512971
0.000289136
0.000714548
0.000445585
0.00113536
0.000890611
0.000895773
0.000701296
0.00205044
0.00103476
0.000603796
0.000590921
0.00130205
0.000653819
0.000558573
0.00104215
0.000864932
0.00174491
0.000553162
0.000522176
0.000924474
0.000927825
0.00067923
0.000854112
0.00209834
0.000653835
0.000542783
0.00068123
0.000737434
0.000486052
0.000758958
0.000778167
0.000688927
0.000751953
0.000741858
0.00129763
0.00123577
0.000737121
0.00121642
0.00172172
0.000599521
0.00218907
0.000881084
0.000976503
0.00051629
0.000667253
0.000458758
0.000594632
0.00110674
0.000650198
0.00114946
0.000268024
0.00104358
0.000432187
0.000601185
0.000846787
0.00149611
0.00113423
0.00136226
0.00358396
0.000554087
0.000655945
0.000815318
0.000841013
0.00131539
0.000921166
0.00138286
0.00178184
0.000721604
0.000789246
0.000734439
0.00153202
0.000535527
0.000605775
0.00073513
0.000867339
0.00079111
0.00180042
0.00284283
0.000306996
0.000315207
0.000325531
0.000657149
0.000752451
0.000705326
0.00106441
0.000268534
0.00163486
0.000817426
0.000954949
0.000678264
0.000709649
0.00106121
0.00116144
0.00112917
0.000950347
0.00187562
0.000494774
0.00260128
0.0003059
0.00024065
0.000515713
0.000441222
0.000318081
0.000404084
0.000797285
0.00122202
0.00178009
0.00288407
0.000839527
0.0013309
0.000559152
0.000622671
0.000491288
0.000607863
0.00106574
0.000971038
0.00149574
0.00129218
0.00204918
0.000340028
0.000559508
0.000483818
0.000222389
0.000350635
0.000343485
0.000368437
0.000197172
0.000596286
0.00040534
0.000673944
0.000412874
0.000407373
0.000363436
0.000203467
0.00021065
0.000464856
0.000330492
0.000199139
0.000587059
0.00117625
0.000988415
0.000160009
0.000211068
0.000111702
0.000188838
0.000240378
0.000206178
0.000265655
0.000209918
0.000224121
0.000434416
0.000202611
0.00010701
6.17349e-05
0.000128558
0.000204689
8.04734e-05
0.00013813
6.82203e-05
0.000218856
0.000277107
0.000260525
0.000376416
0.000467951
0.0021173
0.000344217
0.00209492
0.000552043
0.000381256
0.00221274
0.000738651
0.000447471
0.000404008
0.00221966
0.000376199
0.0004346
0.000445866
0.000462105
0.00220478
0.000407665
0.000439529
0.000400572
0.000438105
0.000352951
0.00218158
0.000572147
0.000583253
0.000325597
0.000538996
0.000487697
0.000573407
0.00216089
0.00022547
0.000403344
0.000325207
0.000473129
0.00043321
0.000552229
0.0005947
0.00224469
0.000267252
0.000429202
0.000280211
0.000257519
0.000298435
0.000304617
0.000386113
0.000536522
0.00066043
0.00232436
0.000308348
0.000418591
0.000268482
0.000595678
0.000305155
0.000208413
0.000282648
0.000503222
0.000468449
0.000738972
0.00246269
0.000651926
0.000855848
0.000946999
0.000419618
0.000436847
0.000409279
0.000228078
0.00038433
0.000284065
0.000475803
0.00058328
0.00234755
0.000564865
0.000674507
0.000510155
0.000467629
0.000397771
0.000577416
0.00127363
0.000510297
0.000749
0.00047207
0.000288682
0.000430028
0.000680725
0.00222137
0.000570681
0.000714406
0.000884818
0.000524701
0.00043283
0.000811279
0.00047221
0.000789495
0.000321884
0.000639276
0.000790712
0.000552279
0.000802664
0.000849386
0.0021476
0.000677235
0.00080515
0.000840212
0.000499096
0.000602636
0.000705826
0.00055941
0.00074232
0.000672139
0.000883351
0.000835724
0.000673868
0.000739643
0.00074301
0.000454738
0.00202461
0.000806293
0.00061729
0.000934976
0.000793297
0.000545021
0.000999473
0.00110485
0.00114918
0.00105277
0.000602951
0.000636185
0.000534713
0.000449116
0.000888986
0.000792954
0.00071371
0.00200308
0.000408715
0.000795719
0.000472148
0.000368175
0.000546676
0.000780928
0.00056211
0.000430229
0.000877689
0.000868412
0.00100677
0.000302283
0.000672741
0.00182507
0.000982738
0.00148578
0.00100515
0.00215502
0.000704846
0.000668943
0.00062128
0.000556972
0.000554867
0.00068528
0.000463404
0.000184121
0.000863553
0.000167456
0.000877141
0.000667513
0.00143294
0.000766301
0.00125366
0.00201338
0.000690024
0.00147259
0.0031451
0.000937615
0.000582844
0.000710059
0.00110931
0.000976334
0.00113345
0.00108703
0.0014968
0.000738933
0.000671243
0.00126229
0.00150482
0.000736113
0.000767795
0.000591421
0.000811383
0.000754039
0.00142522
0.00210219
0.0023133
0.000218264
0.000325227
0.000222162
0.000349696
0.000882761
0.000871539
0.000657962
0.00136704
0.00127713
0.00193915
0.00117353
0.0010604
0.000598134
0.000696298
0.000851689
0.000997452
0.00225706
0.000841684
0.00191891
0.00132248
0.00246774
0.00037189
0.000366703
0.000316286
0.000353962
0.000349613
0.000627109
0.00044991
0.000804792
0.00127113
0.00211192
0.00117651
0.00191694
0.000939553
0.000519728
0.000785197
0.00042123
0.000584007
0.000713665
0.00101224
0.00183024
0.00106443
0.00177385
0.00043255
0.00038367
0.000475236
0.000313764
0.000435518
0.000276277
0.000365632
0.000400949
0.000177149
0.000663553
0.000329838
0.00065876
0.000421998
0.000337242
0.000273563
0.000216219
0.000198834
0.000284697
0.000268618
0.000212668
0.000549551
0.00149465
0.00133005
0.000127852
0.000117658
0.000145836
0.000144861
0.000205761
0.00025796
0.000230401
0.000326859
0.000274112
0.00018314
0.000312875
0.000201125
9.87809e-05
6.0079e-05
0.000102583
0.000205831
9.80549e-05
0.000146562
0.000110222
0.000197767
0.000248477
0.000237442
0.000536049
0.000488552
0.00204252
0.000325587
0.00208074
0.000325809
0.000180444
0.00209035
0.000631759
0.0004744
0.000414535
0.00217352
0.000273354
0.000635549
0.000462724
0.000486378
0.00218904
0.000236271
0.000405455
0.000408559
0.000593434
0.00054899
0.00220518
0.000653484
0.000451259
0.00032238
0.000360651
0.00050087
0.0003417
0.00215619
0.00039505
0.000590599
0.000432952
0.000351358
0.000399908
0.000446799
0.00053194
0.00215996
0.000309586
0.000403033
0.000366453
0.000414781
0.000396974
0.000379554
0.000410749
0.000581605
0.00228035
0.000381361
0.000338383
0.00040843
0.000115273
0.000264089
0.000350313
0.000264331
0.000427578
0.000426094
0.000531401
0.00230845
0.000477321
0.00018961
0.000403686
0.00022002