/*--------------------------------*- C++ -*----------------------------------*\
  =========                 |
  \\      /  F ield         | OpenFOAM: The Open Source CFD Toolbox
   \\    /   O peration     | Website:  https://openfoam.org
    \\  /    A nd           | Version:  7
     \\/     M anipulation  |
\*---------------------------------------------------------------------------*/
FoamFile
{
    version     2.0;
    format      ascii;
    class       volScalarField;
    location    "3.5";
    object      p;
}
// * * * * * * * * * * * * * * * * * * * * * * * * * * * * * * * * * * * * * //

dimensions      [0 2 -2 0 0 0 0];

internalField   nonuniform List<scalar> 
18750
(
-69.8918
-69.8497
-71.6255
-69.977
-66.3361
-71.2185
-69.8502
-72.5455
-71.5562
-70.1211
-66.9711
-62.4514
-65.7588
-71.9027
-71.2287
-69.8973
-72.9475
-72.5036
-71.4986
-70.2539
-65.084
-66.6374
-66.7892
-70.9559
-53.5346
-65.5689
-72.5822
-71.7604
-71.4409
-70.047
-72.9569
-72.8919
-72.4566
-71.442
-70.3729
-61.2346
-66.3458
-65.2019
-69.6988
-67.275
-67.0165
-73.5644
-71.0188
-62.8106
-65.8059
-72.6518
-72.4652
-71.6999
-71.7038
-70.2834
-73.0707
-72.9302
-72.837
-72.3967
-71.3943
-70.4867
-58.0016
-62.2886
-61.228
-67.0824
-66.9449
-65.6056
-71.4872
-70.179
-68.5667
-67.7525
-72.1868
-72.985
-71.5332
-64.5325
-66.565
-72.5935
-72.6023
-72.3663
-71.6886
-71.8904
-70.5731
-73.0841
-73.0507
-72.9075
-72.7843
-72.3311
-71.3838
-70.6044
-56.4454
-58.3907
-57.2789
-63.3324
-62.3847
-61.6004
-68.2113
-67.5693
-67.9049
-65.5199
-71.3498
-71.5287
-70.8832
-70.1437
-69.021
-71.7506
-71.93
-72.4923
-72.1568
-68.3005
-67.7332
-72.6072
-72.5764
-72.5478
-72.273
-71.6877
-71.9608
-70.9228
-73.2327
-73.0826
-73.0375
-72.8907
-72.7331
-72.2765
-71.4161
-70.7272
-55.5301
-56.7467
-56.1725
-58.961
-57.7954
-56.7126
-63.9817
-63.1904
-62.4474
-61.559
-69.097
-68.5193
-68.1798
-68.6721
-65.7219
-71.1719
-71.3414
-71.741
-71.5999
-72
-70.4081
-72.2391
-71.5893
-71.7823
-72.1815
-72.7669
-70.7021
-69.3292
-72.4325
-72.5521
-72.5796
-72.4866
-72.1914
-71.6778
-72.0279
-71.338
-73.0172
-73.2413
-73.0789
-73.0256
-72.8775
-72.6834
-72.211
-71.4832
-70.8542
-54.4677
-55.5068
-55.344
-57.2768
-56.5128
-55.8923
-59.8275
-58.3965
-57.0141
-56.4171
-64.7821
-63.9475
-62.9007
-62.6005
-60.9374
-69.2015
-69.0947
-68.9886
-69.0967
-70.0115
-66.6574
-71.6002
-70.9775
-71.4761
-71.9894
-72.281
-73.9762
-72.535
-72.1393
-72.02
-71.4091
-71.8448
-72.1455
-73.1207
-71.168
-71.213
-72.6668
-72.3623
-72.504
-72.6031
-72.4538
-72.1372
-71.6581
-72.0979
-71.7842
-73.0252
-73.0285
-73.2444
-73.0709
-73.0154
-72.8678
-72.6354
-72.1289
-71.5691
-70.9825
-53.7887
-54.4671
-54.1684
-56.1079
-55.2309
-55.234
-58.2987
-56.927
-56.1315
-55.7571
-60.2221
-59.453
-58.2531
-56.8051
-55.9666
-65.2043
-64.482
-63.9246
-62.917
-62.2499
-61.4686
-69.2662
-68.9918
-69.1875
-69.56
-69.9917
-72.2057
-67.6312
-71.4351
-71.2688
-70.8927
-71.5466
-72.6126
-73.1649
-76.2459
-75.4032
-72.4439
-71.9775
-71.8059
-71.3397
-71.7017
-72.066
-73.3859
-71.6394
-72.8002
-72.83
-72.5869
-72.3064
-72.4742
-72.58
-72.4339
-72.1175
-71.7039
-72.1671
-72.1826
-73.0512
-72.996
-73.0288
-73.2451
-73.0672
-73.0066
-72.8617
-72.5891
-72.0546
-71.6619
-71.107
-53.6929
-53.7223
-54.6343
-54.3488
-54.1081
-56.805
-55.9261
-55.094
-55.011
-58.3332
-57.9901
-56.792
-56.1248
-55.7346
-61.4872
-59.948
-59.2448
-57.931
-56.7325
-55.2733
-65.7429
-64.6832
-64.1476
-63.5944
-62.6336
-61.8093
-60.9635
-69.6596
-69.0735
-68.7239
-69.2559
-70.1576
-70.6803
-73.7338
-70.3311
-71.8752
-71.2806
-70.9507
-70.8531
-71.6103
-72.8918
-74.0637
-78.0428
-78.4027
-72.9941
-72.2687
-71.8564
-71.6138
-71.2311
-71.5257
-72.0551
-73.5412
-72.5578
-73.8918
-72.8756
-72.7538
-72.5073
-72.2729
-72.4338
-72.5642
-72.4014
-72.129
-71.7031
-72.2181
-72.4502
-73.1895
-73.0268
-72.9674
-73.0204
-73.2336
-73.0654
-72.9984
-72.8574
-72.5422
-71.999
-71.7585
-71.2227
-53.024
-53.8798
-53.7242
-53.5901
-54.965
-54.5688
-54.2514
-54.0952
-56.9701
-56.1975
-55.4855
-54.8932
-54.7232
-58.6152
-58.9378
-58.0439
-56.6936
-55.7708
-55.5534
-62.1277
-60.9233
-60.9264
-59.1649
-57.4236
-56.0226
-54.9454
-66.2838
-65.5298
-64.5153
-63.8179
-62.714
-62.4938
-62.2946
-60.6228
-70.9405
-69.044
-68.6441
-68.4102
-69.083
-70.3364
-71.2939
-74.2631
-70.4848
-73.1858
-71.4766
-70.9947
-70.6897
-70.8138
-71.6281
-73.2243
-75.3369
-78.9453
-80.3341
-72.8671
-72.8251
-72.1468
-71.6605
-71.4761
-71.2084
-71.4981
-72.2506
-73.4605
-73.351
-74.9235
-73.063
-72.8196
-72.688
-72.4294
-72.249
-72.4062
-72.5723
-72.3926
-72.162
-71.6619
-72.2286
-72.5696
-73.5479
-73.1731
-73.0061
-72.9477
-73.009
-73.2228
-73.0632
-72.9919
-72.8538
-72.4937
-71.9722
-71.8623
-71.3228
-52.4855
-53.0761
-53.0504
-53.9229
-53.8462
-53.6485
-53.5489
-54.9768
-54.9184
-54.485
-54.1808
-53.8817
-56.6327
-57.3028
-56.1171
-55.3684
-54.7904
-54.8333
-59.119
-58.5425
-58.5984
-57.4308
-56.3654
-55.6404
-55.4143
-62.4451
-61.5856
-60.9788
-60.3927
-58.8107
-57.182
-56.2106
-53.3081
-67.2782
-65.8862
-65.2873
-64.148
-63.6831
-63.3054
-62.44
-62.7758
-60.7545
-72.4347
-70.2624
-68.5574
-68.0599
-67.9868
-69.1745
-70.3297
-71.4648
-73.9465
-70.3865
-73.2736
-72.8707
-70.9909
-70.6162
-70.4698
-70.7567
-71.7704
-73.7823
-76.0953
-79.249
-80.3901
-73.0023
-72.7998
-72.6787
-72.007
-71.5458
-71.4118
-71.389
-71.4865
-72.4018
-73.4138
-73.5044
-74.9257
-73.3693
-73.0095
-72.7551
-72.6191
-72.3613
-72.232
-72.3972
-72.5673
-72.3853
-72.2155
-71.7133
-72.1879
-72.6223
-73.7937
-73.5407
-73.1434
-72.9829
-72.9372
-73.0033
-73.1948
-73.063
-72.984
-72.8504
-72.4447
-71.984
-71.9867
-71.406
-52.2245
-52.5336
-52.456
-53.1398
-53.0444
-53.0542
-53.9414
-53.8562
-53.7674
-53.6255
-53.4397
-54.9018
-54.9006
-54.8091
-54.251
-54.0187
-53.7566
-56.7534
-56.5149
-56.0446
-55.8152
-55.0717
-54.6782
-54.8766
-59.461
-58.7775
-58.6416
-57.9479
-57.0875
-56.0713
-55.5951
-55.3444
-62.8238
-62.3822
-61.4432
-60.8394
-60.3051
-58.9834
-57.5119
-55.9054
-54.4706
-67.7382
-66.3638
-65.4125
-64.6643
-63.4756
-63.3681
-62.677
-61.6286
-61.9697
-58.9995
-72.544
-71.7956
-69.4213
-68.1409
-67.7577
-67.7807
-68.8525
-70.539
-71.5976
-72.7601
-69.6529
-72.8794
-73.0355
-72.4045
-70.6257
-70.3304
-70.4029
-70.8864
-71.9842
-74.2651
-76.6286
-78.9134
-79.2299
-73.4047
-73.0179
-72.7688
-72.5486
-71.784
-71.4929
-71.3854
-71.4289
-71.5067
-72.5074
-73.5468
-73.1045
-74.4192
-73.6565
-73.3307
-72.9601
-72.6833
-72.5574
-72.3238
-72.2356
-72.3951
-72.5541
-72.3723
-72.2571
-71.7417
-72.0964
-72.515
-74.0866
-73.7696
-73.5293
-73.1094
-72.9586
-72.9346
-73.0033
-73.1788
-73.0631
-72.979
-72.8476
-72.3982
-72.0378
-72.1235
-71.4745
-52.1428
-52.1985
-52.6051
-52.4946
-52.4745
-53.1107
-53.0962
-53.003
-52.9862
-53.7728
-53.7594
-53.7901
-53.6414
-53.5042
-53.2417
-54.9847
-54.8186
-54.6646
-54.7777
-54.2203
-53.9638
-53.8118
-56.8586
-56.6094
-56.2463
-56.2414
-55.6577
-54.9046
-54.6649
-54.8418
-59.6223
-59.0842
-58.6735
-58.3533
-57.8976
-56.3515
-55.9307
-55.3977
-55.3719
-63.4278
-62.6503
-62.0817
-61.4886
-60.5033
-59.6529
-58.9885
-57.4165
-55.919
-55.2904
-67.9992
-67.2164
-65.9286
-64.9059
-64.2218
-63.1991
-62.5798
-62.4552
-61.5526
-60.8598
-58.0903
-71.8818
-72.254
-71.0027
-68.6498
-67.7232
-67.6048
-67.7886
-68.7356
-70.439
-71.4658
-71.2
-68.4206
-72.9042
-73.0481
-72.8319
-71.9654
-70.3089
-70.1426
-70.4133
-71.0312
-72.235
-74.3827
-76.6251
-77.117
-76.9407
-73.3828
-73.4167
-73.0504
-72.6615
-72.3823
-71.7178
-71.5376
-71.3565
-71.3494
-71.5208
-72.5897
-73.3852
-72.6749
-74.0213
-73.9595
-73.5579
-73.2943
-72.9149
-72.6036
-72.4878
-72.2813
-72.2251
-72.3995
-72.5514
-72.3631
-72.2698
-71.7302
-71.9509
-72.2522
-74.3389
-74.0834
-73.7499
-73.5135
-73.0763
-72.943
-72.9376
-72.9905
-73.1877
-73.0644
-72.9786
-72.8443
-72.3579
-72.1276
-72.2344
-71.5309
-51.8087
-52.3555
-52.2101
-52.1689
-52.5172
-52.5046
-52.5121
-52.5185
-53.0672
-53.0582
-53.0583
-52.94
-52.8645
-53.9264
-53.7651
-53.7897
-53.8359
-53.6081
-53.4563
-53.2912
-55.0253
-55.0547
-54.7958
-54.5108
-54.6022
-54.0971
-53.9831
-53.8778
-57.1617
-56.6452
-56.7294
-56.3565
-56.2111
-55.5981
-54.8118
-54.5573
-54.6514
-60.0723
-59.7339
-58.8808
-58.5891
-58.0228
-57.606
-56.5668
-55.9212
-55.5023
-55.3459
-63.7571
-62.864
-62.3562
-61.6155
-60.8615
-60.4733
-59.4497
-58.7487
-56.9636
-55.6618
-55.8685
-67.7953
-67.569
-66.717
-65.5178
-64.6114
-63.9089
-63.2878
-62.3195
-62.2488
-61.4315
-60.0131
-57.2858
-71.6199
-71.8867
-71.6734
-70.1078
-68.1147
-67.5782
-67.6609
-67.7887
-68.6426
-70.5068
-70.9013
-69.0815
-66.1491
-72.6796
-73.0969
-73.1372
-72.6578
-71.3997
-69.9473
-70.0732
-70.3926
-71.0955
-72.2069
-74.2891
-76.2075
-74.7967
-74.6167
-73.6732
-73.2178
-73.4404
-73.0917
-72.5459
-72.2286
-71.7057
-71.5716
-71.4018
-71.4001
-71.5405
-72.5415
-72.9544
-72.0812
-73.3553
-74.4939
-73.87
-73.5107
-73.2618
-72.8736
-72.5207
-72.4396
-72.2601
-72.2564
-72.401
-72.5589
-72.3732
-72.2545
-71.6837
-71.7562
-71.9243
-74.6162
-74.3285
-74.0809
-73.73
-73.4844
-73.0404
-72.935
-72.9455
-72.9845
-73.1741
-73.065
-72.9784
-72.835
-72.3278
-72.2405
-72.3124
-71.5722
-51.4666
-51.8077
-51.8078
-52.1409
-52.2142
-52.1775
-52.1663
-52.5487
-52.5506
-52.538
-52.5085
-52.3978
-53.0856
-53.0842
-53.1057
-53.0515
-52.9223
-52.9223
-53.8213
-54.0418
-53.8511
-53.8837
-53.7706
-53.6113
-53.4557
-53.1438
-55.2031
-55.0721
-55.215
-54.7044
-54.5269
-54.441
-53.9336
-53.8585
-53.9974
-57.3867
-56.9223
-56.7983
-56.5153
-56.2055
-56.0189
-55.307
-54.633
-54.5411
-54.5869
-59.8642
-59.8325
-59.3591
-58.9629
-58.0852
-57.7728
-56.9313
-56.3643
-55.8094
-56.129
-55.523
-63.9366
-63.3009
-62.711
-62.0602
-61.4105
-60.7116
-60.1795
-59.4838
-58.541
-57.0632
-55.3786
-56.1296
-67.6423
-67.4687
-67.122
-66.2126
-65.074
-64.3752
-63.6247
-63.0593
-62.5663
-62.1782
-61.202
-58.6366
-56.2471
-71.1753
-71.5405
-71.8196
-71.3217
-69.7271
-68.1564
-67.4896
-67.7794
-67.8665
-68.7604
-70.2486
-69.9384
-67.6881
-64.4322
-72.7351
-72.9398
-73.1344
-73.1249
-72.0989
-70.6803
-69.8874
-70.1312
-70.3822
-71.0653
-72.3177
-74.1041
-75.1261
-72.7584
-72.232
-74.2953
-73.4904
-73.1718
-73.5142
-73.0888
-72.4346
-71.9787
-71.5976
-71.6247
-71.4602
-71.3915
-71.5614
-72.4544
-72.4289
-71.3674
-72.4504
-74.827
-74.402
-73.7813
-73.4987
-73.2224
-72.8142
-72.4413
-72.4732
-72.264
-72.2869
-72.4085
-72.5624
-72.3914
-72.218
-71.5983
-71.5439
-71.5848
-74.5825
-74.6196
-74.3169
-74.0748
-73.7136
-73.4466
-73.0127
-72.9345
-72.9586
-72.9909
-73.1747
-73.0646
-72.9779
-72.8177
-72.3099
-72.3624
-72.3862
-71.6123
-51.2119
-51.497
-51.5168
-51.8749
-51.8138
-51.7814
-52.2167
-52.2038
-52.1313
-52.1912
-52.1545
-52.5561
-52.5951
-52.5684
-52.5735
-52.4037
-52.3523
-53.1234
-53.099
-53.1037
-53.0981
-53.0217
-52.9373
-52.9272
-53.9776
-53.8483
-53.855
-53.767
-53.7127
-53.7144
-53.4314
-53.4352
-53.3317
-55.2772
-55.2232
-54.9345
-55.0341
-54.6858
-54.3642
-54.3335
-53.9152
-53.6688
-53.8938
-57.4336
-57.1436
-57.0179
-56.8253
-56.319
-55.7996
-55.7946
-55.0751
-54.6847
-54.5568
-54.4978
-60.3029
-60.199
-59.5934
-59.085
-58.6945
-57.6285
-57.3082
-56.7759
-56.4491
-55.8535
-55.5408
-55.7172
-63.8502
-63.5639
-62.9936
-62.4977
-61.7226
-61.1176
-60.6457
-59.7258
-59.2916
-58.3875
-56.4754
-55.8268
-56.4558
-67.4993
-67.4237
-67.2337
-66.7457
-65.6802
-64.7266
-64.0281
-63.5357
-62.7423
-62.67
-62.1329
-61.076
-58.5892
-55.9397
-71.02
-71.4896
-71.464
-71.558
-70.7843
-68.8103
-67.7877
-67.4786
-67.9723
-67.7935
-68.833
-69.7744
-68.8752
-67.3313
-65.3505
-73.3067
-72.681
-73.1403
-73.2325
-72.9611
-71.4661
-70.1778
-69.9052
-70.3094
-70.3508
-70.8748
-72.3163
-73.7503
-73.8321
-70.7575
-70.547
-74.6076
-74.137
-73.2772
-73.1213
-73.5303
-73.0619
-72.3779
-71.9589
-71.6172
-71.7176
-71.5699
-71.3227
-71.4984
-72.3674
-71.6865
-70.7371
-71.1863
-74.9648
-74.7912
-74.3154
-73.7043
-73.4938
-73.1804
-72.7496
-72.3766
-72.4607
-72.3113
-72.3119
-72.4305
-72.5443
-72.4054
-72.1587
-71.4825
-71.3365
-71.3056
-74.6494
-74.5862
-74.6232
-74.303
-74.0686
-73.6957
-73.4031
-72.9979
-72.9401
-72.9745
-72.9829
-73.1709
-73.0655
-72.9774
-72.7946
-72.304
-72.4753
-72.523
-71.6858
-51.0755
-51.2089
-51.2387
-51.5539
-51.5531
-51.5204
-51.8072
-51.7892
-51.7748
-51.7755
-52.2261
-52.1846
-52.1568
-52.1818
-52.1632
-52.0699
-52.5269
-52.6011
-52.5801
-52.563
-52.5327
-52.4735
-52.3677
-53.0607
-53.1601
-53.1103
-53.0872
-53.07
-52.9676
-52.875
-52.8034
-54.2762
-54.002
-53.8512
-54.024
-53.8712
-53.7658
-53.6466
-53.3867
-53.4301
-53.5827
-55.7558
-55.3407
-55.342
-55.0616
-54.9294
-54.3185
-54.8464
-54.3184
-53.8154
-53.8941
-53.7267
-57.5297
-57.4366
-57.0642
-56.897
-56.2908
-56.0708
-56.1336
-55.2927
-54.9566
-54.4415
-54.5464
-54.5614
-60.5418
-60.1766
-60.0072
-59.3667
-58.9789
-58.321
-58.0064
-57.0384
-56.6424
-56.4171
-55.8338
-55.6739
-55.8134
-64.0033
-63.6426
-63.2559
-62.9577
-62.1542
-61.3253
-60.9206
-60.1732
-59.4828
-59.274
-58.0706
-56.3819
-56.532
-56.5112
-67.8598
-67.3097
-67.1286
-66.9796
-66.3063
-65.3464
-64.5903
-63.722
-63.2253
-62.3201
-62.4188
-62.068
-61.1807
-60.3012
-56.2174
-71.5362
-71.0935
-71.8909
-71.3577
-71.2531
-69.4475
-67.7774
-67.55
-67.7975
-67.9056
-67.663
-68.5835
-69.9231
-68.2772
-66.5068
-64.3257
-73.3295
-73.2915
-72.7287
-73.1699
-73.317
-72.5917
-70.786
-69.8308
-69.7558
-70.4984
-70.1392
-70.7386
-72.0846
-73.2644
-72.3593
-69.1253
-68.9375
-74.3981
-74.5438
-74.0155
-73.093
-73.0619
-73.4827
-72.9348
-72.3086
-71.9804
-71.6716
-71.8673
-71.661
-71.264
-71.4009
-72.2373
-70.9501
-70.255
-70.1355
-75.2169
-74.9808
-74.7408
-74.2321
-73.646
-73.4711
-73.1794
-72.7167
-72.3331
-72.4895
-72.3598
-72.3494
-72.4691
-72.5378
-72.4092
-72.069
-71.371
-71.2052
-71.1113
-74.7703
-74.6541
-74.5905
-74.6246
-74.2896
-74.0614
-73.6727
-73.3667
-72.9912
-72.947
-72.9928
-72.9741
-73.158
-73.0695
-72.9778
-72.7742
-72.3063
-72.5645
-72.7317
-71.8502
-50.8907
-51.0565
-51.0618
-51.262
-51.2683
-51.2928
-51.4774
-51.5629
-51.5833
-51.4838
-51.8873
-51.8361
-51.7746
-51.7582
-51.735
-52.1348
-52.2724
-52.2399
-52.222
-52.1486
-52.1274
-52.0814
-52.6557
-52.5917
-52.6475
-52.5921
-52.5575
-52.4239
-52.4513
-52.3418
-53.4551
-53.0835
-53.2912
-53.2329
-53.2055
-53.0162
-52.9157
-52.845
-52.7636
-54.5784
-54.1505
-54.0605
-54.0345
-53.9846
-53.7966
-53.7945
-53.6428
-53.3318
-53.5545
-53.7271
-55.9906
-55.518
-55.4141
-55.3399
-54.8341
-55.0305
-54.8723
-54.4118
-54.1665
-54.0941
-53.8273
-53.6538
-57.6914
-57.7593
-57.3883
-57.1534
-56.7663
-56.153
-56.2022
-55.8934
-55.3811
-54.9352
-54.6792
-54.6259
-54.6236
-60.6876
-60.4633
-60.1242
-59.6913
-59.2557
-58.7601
-58.4805
-57.8193
-57.464
-56.9255
-56.0676
-55.7462
-55.4824
-55.9193
-64.0324
-63.8944
-63.1582
-63.0662
-62.5029
-61.7391
-61.1665
-60.245
-59.6128
-59.2848
-59.1533
-57.8655
-56.4508
-57.1952
-56.4784
-68.2126
-67.5012
-67.2197
-66.9983
-66.7563
-65.8123
-64.9774
-64.3935
-63.6432
-62.9016
-62.0424
-62.6285
-61.846
-60.8397
-60.0077
-55.4456
-71.4636
-71.3482
-71.1666
-71.8984
-71.0912
-70.2685
-68.9058
-67.5855
-67.3173
-67.8113
-67.6683
-67.7531
-68.5544
-69.3219
-67.1043
-65.2903
-62.3858
-73.1122
-73.2846
-73.2099
-72.7402
-73.163
-73.1417
-71.8516
-70.3954
-69.6445
-69.758
-70.3827
-69.8421
-70.5638
-71.8438
-72.6036
-70.5859
-67.7927
-67.7286
-74.2319
-74.3653
-74.4562
-73.8584
-72.9427
-72.9414
-73.3728
-72.904
-72.1389
-71.7574
-71.7631
-72.0312
-71.8129
-71.3354
-71.3392
-72.0941
-70.3537
-69.5881
-69.4965
-75.2519
-75.2051
-75.0099
-74.6723
-74.1516
-73.5866
-73.4445
-73.1585
-72.6796
-72.311
-72.5239
-72.412
-72.3851
-72.5001
-72.5396
-72.4068
-71.9622
-71.313
-71.1911
-70.9869
-74.8906
-74.7729
-74.6545
-74.5974
-74.6212
-74.2798
-74.0507
-73.6412
-73.3454
-72.9894
-72.9562
-73.0138
-72.9748
-73.1451
-73.0735
-72.975
-72.7599
-72.3139
-72.6255
-72.8544
-72.1727
-50.7115
-50.9053
-50.8812
-51.066
-51.0621
-51.1104
-51.2666
-51.3125
-51.3091
-51.2684
-51.5922
-51.5898
-51.4533
-51.5064
-51.4925
-51.8849
-51.8326
-51.7883
-51.7983
-51.7443
-51.7338
-52.3282
-52.21
-52.2965
-52.3173
-52.1869
-52.151
-52.1072
-52.0567
-52.8758
-52.7022
-52.7044
-52.6953
-52.6444
-52.6315
-52.3785
-52.4157
-52.336
-53.5526
-53.3831
-53.1887
-53.3183
-53.3047
-53.1662
-52.9806
-53.092
-52.8783
-52.7956
-54.8418
-54.2515
-54.2799
-54.2724
-54.1158
-53.9694
-53.941
-53.7448
-53.638
-53.4163
-53.541
-53.8118
-56.2072
-55.9922
-55.4782
-55.5234
-55.3134
-55.0108
-54.7161
-54.8014
-54.3877
-54.0745
-53.9807
-53.8342
-53.6972
-57.9759
-57.8663
-57.5136
-57.4414
-57.0149
-56.6545
-56.6288
-56.3303
-55.738
-55.3089
-54.9536
-54.6477
-54.6516
-54.6725
-60.6081
-60.7237
-60.2607
-60.0881
-59.576
-59.0575
-58.5967
-58.1597
-57.4608
-57.3006
-56.6206
-55.9605
-55.7059
-55.7791
-55.9028
-64.3084
-63.9225
-63.3603
-62.9678
-62.7833
-62.0714
-61.4573
-60.8462
-59.8655
-59.3792
-59.4477
-58.9568
-56.9829
-56.4872
-57.5351
-56.3388
-68.3914
-68.0804
-67.4713
-67.0411
-66.6708
-66.369
-65.5447
-64.7157
-64.2399
-63.2275
-62.6742
-62.2703
-62.1718
-61.3806
-60.2333
-58.9148
-55.6734
-71.197
-71.43
-71.2377
-71.0946
-71.7291
-70.5102
-69.3573
-68.3799
-67.2144
-67.23
-67.3695
-67.3634
-67.7925
-69.007
-68.7106
-66.6085
-65.5135
-61.7951
-72.6629
-73.145
-73.2575
-73.1648
-72.762
-72.9227
-72.8359
-71.2868
-70.0606
-69.5471
-69.8769
-70.1867
-69.7872
-70.6123
-71.8358
-71.7717
-69.0285
-67.3374
-66.8456
-74.1976
-74.1762
-74.3636
-74.3119
-73.6998
-72.8081
-72.8206
-73.3074
-72.8926
-71.9525
-71.6321
-71.9032
-72.1779
-72.0399
-71.5063
-71.4038
-71.8006
-69.8542
-69.0807
-69.2016
-75.0856
-75.2539
-75.1702
-75.0115
-74.5974
-74.0792
-73.5325
-73.4326
-73.1274
-72.6421
-72.3346
-72.5442
-72.4519
-72.4306
-72.5319
-72.498
-72.4037
-71.8529
-71.3322
-71.1856
-70.8944
-74.1606
-74.901
-74.7717
-74.6518
-74.6007
-74.6137
-74.2679
-74.0363
-73.6013
-73.3245
-72.99
-72.9637
-73.0343
-72.9697
-73.1317
-73.0706
-72.9743
-72.748
-72.3245
-72.6608
-72.9205
-72.4508
-50.6089
-50.7213
-50.7166
-50.882
-50.8675
-50.9207
-51.0822
-51.051
-51.0976
-51.0825
-51.3428
-51.3217
-51.2949
-51.3298
-51.2927
-51.6358
-51.5007
-51.5844
-51.5142
-51.507
-51.5142
-51.8827
-51.8562
-51.8673
-51.8078
-51.7445
-51.7112
-51.7125
-52.4298
-52.3359
-52.3861
-52.3199
-52.2207
-52.2006
-52.1024
-52.0764
-52.0601
-52.9973
-52.8984
-52.782
-52.7597
-52.7572
-52.662
-52.514
-52.4705
-52.3952
-52.3167
-53.6855
-53.4732
-53.5278
-53.3151
-53.3547
-53.0107
-53.1306
-53.0406
-52.8075
-52.9511
-52.8643
-54.9999
-54.4921
-54.2905
-54.3974
-54.2926
-54.1727
-54.0408
-54.0192
-53.6785
-53.5488
-53.5485
-53.501
-53.8439
-56.5241
-56.1083
-55.892
-55.9735
-55.5735
-55.3001
-54.872
-54.8083
-54.5012
-54.2249
-54.093
-53.9818
-53.8839
-53.7394
-58.1028
-58.1121
-57.6344
-57.6422
-57.293
-56.8271
-56.6378
-56.6548
-55.968
-55.71
-55.2977
-54.9723
-54.6588
-54.8426
-54.7407
-61.0086
-60.9046
-60.2786
-60.0807
-59.6644
-59.3105
-58.6678
-58.107
-57.5132
-57.3908
-57.1515
-56.2351
-56.1142
-55.9555
-55.9787
-55.8851
-64.0618
-63.9371
-63.9591
-63.1253
-62.9908
-62.3846
-61.8176
-61.4404
-60.4602
-59.7149
-59.4644
-59.4137
-58.8338
-57.4643
-56.9542
-58.1694
-56.4787
-68.2993
-68.3751
-67.9653
-67.2243
-66.7814
-66.4468
-66.1895
-65.1375
-64.8182
-63.8402
-62.7563
-62.2123
-62.0086
-61.811
-61.1951
-60.5202
-59.593
-56.0662
-70.7736
-71.283
-71.5212
-71.5131
-71.2676
-71.2423
-69.7314
-69.1406
-67.8948
-67.1419
-67.2314
-67.2082
-67.0515
-67.7954
-68.7517
-68.2702
-65.9325
-64.5029
-62.1082
-72.5604
-72.6561
-73.1145
-73.1923
-73.1279
-72.8467
-72.548
-72.5178
-70.8513
-70.0302
-69.3385
-69.8902
-70.3504
-69.6442
-70.8047
-71.4488
-70.9329
-67.6944
-66.9679
-66.5228
-73.6928
-74.1936
-74.1391
-74.359
-74.1346
-73.5728
-72.6679
-72.7594
-73.1473
-72.6418
-71.6903
-71.5999
-72.06
-72.3214
-72.2724
-71.7108
-71.5672
-71.3925
-69.4035
-68.7189
-69.0897
-74.3717
-75.0933
-75.261
-75.1333
-75.0265
-74.5115
-74.0072
-73.4924
-73.4148
-73.1318
-72.5969
-72.363
-72.5982
-72.5103
-72.4732
-72.5722
-72.4346
-72.3945
-71.7462
-71.3977
-71.27
-70.838
-73.6778
-74.1924
-74.9075
-74.7642
-74.6506
-74.5991
-74.6025
-74.249
-74.0202
-73.5666
-73.2971
-72.9925
-72.9728
-73.0572
-72.9657
-73.1192
-73.0671
-72.9793
-72.7394
-72.3376
-72.6806
-73.0515
-72.4907
-50.4696
-50.6182
-50.6396
-50.6888
-50.6868
-50.7424
-50.8375
-50.85
-50.9804
-50.9203
-51.0643
-51.0821
-51.1261
-51.1057
-51.0706
-51.3361
-51.3626
-51.3345
-51.2233
-51.3041
-51.3082
-51.6584
-51.6387
-51.599
-51.5159
-51.5344
-51.5061
-51.4976
-51.9467
-51.9212
-51.9312
-51.8511
-51.7798
-51.7639
-51.7217
-51.6809
-52.5405
-52.4405
-52.4296
-52.3997
-52.2963
-52.2417
-52.1723
-52.0097
-52.1114
-52.0315
-53.2533
-52.9809
-52.9747
-52.8358
-52.8487
-52.713
-52.61
-52.5473
-52.458
-52.4089
-52.3446
-53.9464
-53.9648
-53.8752
-53.5927
-53.4046
-53.3237
-53.2349
-53.1507
-53.0837
-52.9173
-52.8628
-53.027
-55.2006
-54.835
-54.7432
-54.8875
-54.5497
-54.255
-53.748
-53.9948
-53.7951
-53.6565
-53.6204
-53.5838
-53.6451
-53.762
-56.7008
-56.4036
-56.1827
-55.9831
-55.7949
-55.4461
-55.2431
-54.9852
-54.8999
-54.5727
-54.1771
-54.1245
-53.9752
-53.9253
-53.8153
-58.3596
-58.3479
-57.9468
-57.9507
-57.5378
-57.1954
-56.7062
-56.4972
-56.0249
-55.8509
-55.4792
-55.2106
-54.9685
-54.8285
-55.034
-54.8158
-61.1099
-60.8376
-60.7529
-60.0104
-60.002
-59.4008
-59.0764
-58.4181
-57.773
-57.6769
-57.1638
-56.6
-56.3225
-56.1574
-56.1964
-56.3045
-55.8682
-64.1271
-64.1352
-63.5762
-63.5866
-63.2612
-62.6536
-62.0687
-61.6742
-61.1597
-60.2015
-59.6671
-59.576
-59.146
-58.5056
-57.5027
-57.2162
-58.1945
-56.5323
-67.4236
-68.1821
-68.2509
-67.9013
-66.8355
-66.5176
-66.2428
-65.6423
-64.6805
-64.3628
-63.4543
-62.7676
-61.8513
-61.7645
-61.4554
-61.3801
-60.297
-59.2244
-56.9965
-70.298
-70.8297
-71.2695
-71.4958
-71.4515
-71.3515
-70.5103
-69.5473
-68.7327
-67.3302
-66.9751
-67.0019
-66.811
-66.8263
-67.5912
-67.8797
-67.4069
-65.1884
-63.5909
-62.7255
-72.3878
-72.5113
-72.6848
-73.0799
-73.1514
-72.9552
-72.8258
-72.3018
-72.0888
-70.3899
-69.6544
-69.3405
-70.054
-69.959
-69.6243
-71.0924
-71.2135
-70.2059
-66.8264
-66.3841
-66.4079
-73.9098
-73.7232
-74.1646
-74.0964
-74.3419
-73.9587
-73.411
-72.623
-72.7106
-73.0927
-72.3756
-71.3525
-71.6571
-72.1945
-72.4718
-72.4676
-71.9551
-71.7777
-70.9515
-69.0703
-68.5355
-69.1355
-74.049
-74.4208
-75.0999
-75.2507
-75.1061
-75.03
-74.428
-73.9371
-73.4694
-73.4185
-73.1179
-72.5344
-72.3893
-72.6412
-72.5646
-72.518
-72.6106
-72.431
-72.3893
-71.6533
-71.4917
-71.4995
-70.8523
-72.8536
-73.7218
-74.2201
-74.907
-74.755
-74.652
-74.5981
-74.5884
-74.2242
-74.0075
-73.5412
-73.2717
-72.9946
-72.9837
-73.0829
-72.9612
-73.1068
-73.067
-72.9897
-72.7355
-72.3513
-72.7431
-73.1361
-72.4434
-50.3785
-50.4757
-50.4926
-50.6148
-50.6747
-50.6334
-50.712
-50.6833
-50.6984
-50.7679
-50.9019
-50.8346
-50.9105
-50.9445
-50.9113
-51.1142
-51.128
-51.1352
-51.0674
-51.1402
-51.1049
-51.3737
-51.409
-51.3617
-51.359
-51.3676
-51.3272
-51.3344
-51.6466
-51.6219
-51.623
-51.5774
-51.5448
-51.5463
-51.4941
-51.4482
-52.0456
-52.0009
-51.9709
-51.9038
-51.8809
-51.8081
-51.7164
-51.6825
-51.6622
-52.6866
-52.5474
-52.5388
-52.4642
-52.3822
-52.2939
-52.1789
-52.1296
-52.1194
-52.1367
-52.0893
-53.3028
-53.422
-53.0045
-53.1066
-52.8512
-52.7507
-52.7255
-52.6903
-52.5561
-52.4024
-52.454
-52.306
-54.1077
-54.11
-53.7353
-53.8445
-53.5813
-53.3489
-53.3618
-53.17
-53.1671
-53.0614
-53.0369
-52.861
-53.1456
-55.5242
-55.1573
-55.0051
-54.9485
-54.8778
-54.5114
-54.3312
-53.9821
-53.9317
-53.8628
-53.6554
-53.6363
-53.5611
-53.7141
-53.6915
-56.8237
-56.5349
-56.4491
-56.2628
-55.9746
-55.6767
-55.437
-55.1965
-55.0529
-54.7266
-54.4848
-54.2586
-54.1725
-53.9943
-53.9909
-54.005
-58.7757
-58.3154
-58.0381
-58.0315
-57.7721
-57.3815
-56.9725
-56.5262
-56.3124
-56.0776
-55.8101
-55.5686
-55.3135
-55.0192
-55.062
-54.8605
-54.8401
-60.9205
-61.0356
-60.9151
-60.5213
-60.4935
-59.6423
-59.4469
-59.0705
-58.508
-57.9765
-57.4423
-56.9871
-56.6601
-56.6389
-56.3479
-56.2038
-56.5101
-55.9753
-63.9703
-63.7902
-64.1391
-63.5346
-63.4408
-63.0035
-62.4148
-61.8776
-61.1232
-60.2173
-59.8666
-59.3885
-59.3336
-58.8203
-57.8836
-57.0607
-57.8403
-58.4189
-56.6265
-67.0814
-67.4261
-68.2604
-68.1849
-67.7267
-66.5709
-66.3614
-66.0244
-65.313
-64.4217
-63.908
-63.3296
-62.3928
-61.7037
-61.5589
-61.3006
-61.1684
-60.1931
-58.9247
-58.0239
-70.0074
-70.2974
-70.8825
-71.1491
-71.4575
-71.1938
-71.5152
-70.0302
-69.2656
-68.1515
-66.9448
-66.8246
-67.1482
-66.503
-66.6206
-67.3411
-67.3683
-66.4987
-64.9019
-63.519
-62.8384
-71.9724
-72.282
-72.5093
-72.6714
-73.0907
-73.1395
-72.7925
-72.8627
-71.946
-71.8407
-70.3219
-69.2049
-69.5451
-70.2084
-69.7911
-69.6985
-71.3579
-71.1225
-69.6676
-66.7194
-66.5831
-66.4519
-72.5885
-74.0318
-73.7297
-74.1481
-74.0339
-74.3104
-73.7581
-73.2428
-72.5339
-72.7608
-73.0701
-72.0146
-71.1975
-71.8092
-72.3305
-72.6746
-72.6515
-72.1406
-71.9357
-70.5557
-68.9584
-68.4677
-69.1254
-72.5851
-74.1395
-74.4535
-75.0931
-75.1994
-75.0937
-74.9911
-74.344
-73.8824
-73.4472
-73.4332
-73.0947
-72.4809
-72.4228
-72.6839
-72.598
-72.5532
-72.636
-72.4143
-72.3869
-71.5913
-71.5523
-71.7221
-70.9577
-72.1167
-72.8947
-73.7532
-74.2449
-74.9045
-74.7439
-74.6495
-74.5966
-74.5749
-74.1951
-73.9965
-73.5171
-73.2509
-72.9908
-72.9943
-73.1098
-72.9537
-73.0982
-73.0679
-73.0021
-72.7355
-72.3635
-72.7958
-73.1009
-72.3347
-50.2799
-50.3982
-50.3985
-50.4822
-50.5022
-50.5019
-50.6705
-50.6431
-50.5994
-50.6479
-50.7816
-50.6958
-50.6931
-50.7702
-50.761
-51.0034
-50.9245
-50.8603
-50.9476
-50.9719
-50.9285
-51.1418
-51.1806
-51.1748
-51.1564
-51.0722
-51.102
-51.1188
-51.4828
-51.4074
-51.3472
-51.3763
-51.3619
-51.3872
-51.353
-51.3085
-51.7553
-51.66
-51.6575
-51.6399
-51.6216
-51.5974
-51.5288
-51.4968
-51.4749
-52.1817
-52.0897
-52.0693
-51.9826
-51.9404
-51.8401
-51.7546
-51.7061
-51.65
-51.6331
-52.7836
-52.7066
-52.5984
-52.5589
-52.4316
-52.3253
-52.2565
-52.2086
-52.1525
-52.1701
-52.182
-52.1716
-53.4855
-53.3428
-52.8723
-53.0363
-53.0187
-52.8543
-52.8058
-52.7637
-52.6351
-52.599
-52.486
-52.3562
-52.3665
-54.3627
-54.2133
-53.9464
-53.7749
-53.7986
-53.6251
-53.414
-53.3295
-53.1942
-53.1231
-53.0963
-53.0743
-53.004
-53.1375
-55.5188
-55.3109
-55.196
-54.9422
-54.9382
-54.7188
-54.4748
-54.2206
-54.0029
-53.8804
-53.8428
-53.7072
-53.6976
-53.5988
-53.836
-53.5657
-56.9398
-56.7518
-56.5753
-56.5622
-56.1691
-55.8793
-55.7033
-55.4577
-55.2084
-54.8633
-54.7755
-54.4795
-54.2882
-54.173
-54.0875
-53.9515
-54.1556
-58.8856
-58.4478
-58.3917
-58.2262
-58.097
-57.8268
-57.343
-56.8069
-56.4855
-56.2619
-56.0626
-55.745
-55.5628
-55.3317
-55.1811
-55.0228
-55.062
-54.804
-61.1276
-61.3308
-61.0742
-60.9603
-60.6095
-60.1109
-59.5606
-59.1375
-58.7083
-58.0554
-57.6937
-57.2421
-57.0394
-56.8621
-56.6462
-56.2767
-56.5424
-56.5325
-56.1194
-63.7223
-63.8554
-64.678
-63.9692
-64.0839
-63.3933
-62.8155
-62.3639
-61.6489
-60.8724
-60.0608
-59.8511
-59.2467
-59.3744
-58.8366
-57.7381
-57.3581
-58.3732
-58.2878
-56.8215
-66.72
-67.2861
-67.8281
-68.3007
-68.2398
-67.3704
-66.3493
-66.2447
-65.7039
-65.0156
-64.2789
-63.7431
-63.164
-62.3683
-61.2066
-61.448
-60.8266
-60.9207
-60.0667
-59.4718
-58.9777
-69.5426
-69.9921
-70.3491
-70.9948
-71.2916
-71.5268
-70.8864
-71.3821
-69.3653
-68.8894
-67.6645
-66.6611
-66.8627
-67.0855
-66.2624
-66.4928
-67.2345
-66.6562
-65.8578
-64.0261
-63.2903
-62.754
-71.1424
-72
-72.2069
-72.459
-72.6358
-73.0978
-73.0524
-72.6309
-72.7834
-71.6559
-71.563
-70.0958
-69.0929
-69.7211
-70.1615
-69.7514
-69.8231
-71.3256
-70.8515
-69.3513
-66.8106
-65.9106
-66.5784
-71.7199
-72.6735
-74.1377
-73.7645
-74.1191
-74.0134
-74.2485
-73.5632
-73.116
-72.3988
-72.927
-73.0055
-71.7142
-71.1562
-71.9242
-72.4743
-72.8045
-72.7745
-72.2765
-72.0142
-70.2913
-68.9351
-68.5742
-69.1712
-71.9193
-72.7111
-74.2228
-74.4674
-75.0574
-75.1222
-75.048
-74.9261
-74.2658
-73.8395
-73.4416
-73.4274
-73.0439
-72.4372
-72.4696
-72.7226
-72.6341
-72.5854
-72.6601
-72.3822
-72.377
-71.5412
-71.5737
-71.8748
-71.1041
-72.1465
-71.3863
-72.9301
-73.7728
-74.2659
-74.8972
-74.7285
-74.6444
-74.5924
-74.5624
-74.1652
-73.9854
-73.499
-73.2338
-72.985
-73.0014
-73.137
-72.9505
-73.0903
-73.0667
-73.0135
-72.7418
-72.3734
-72.753
-73.0723
-72.1498
-50.1559
-50.2918
-50.3312
-50.4
-50.3984
-50.4176
-50.4975
-50.5243
-50.5204
-50.5194
-50.6479
-50.6372
-50.6107
-50.6342
-50.6449
-50.8033
-50.7363
-50.71
-50.7592
-50.7513
-50.7746
-50.9762
-51.008
-50.9764
-50.8953
-50.8169
-50.97
-50.9359
-51.238
-51.2062
-51.1886
-51.2199
-51.1974
-51.1405
-51.117
-51.1278
-51.4722
-51.4424
-51.4203
-51.3825
-51.383
-51.3563
-51.3693
-51.3716
-51.2896
-51.8384
-51.7656
-51.7301
-51.6932
-51.6833
-51.5941
-51.596
-51.525
-51.5195
-51.442
-52.2548
-52.2122
-52.1186
-52.0779
-51.9854
-51.9125
-51.8417
-51.7587
-51.7444
-51.6316
-51.6794
-52.9715
-52.8167
-52.6382
-52.5662
-52.5781
-52.4367
-52.3523
-52.2368
-52.207
-52.2002
-52.0765
-52.2377
-52.2242
-53.8617
-53.4383
-53.2368
-53.2373
-53.1331
-52.9457
-52.8934
-52.7972
-52.7219
-52.6117
-52.5557
-52.5272
-52.4177
-52.4495
-54.5068
-54.3872
-54.1365
-54.1017
-53.9241
-53.6837
-53.6193
-53.4376
-53.2473
-53.2256
-53.0871
-53.0647
-53.0202
-53.1061
-52.9901
-55.6856
-55.5223
-55.3818
-55.2985
-55.0221
-54.9262
-54.7173
-54.4935
-54.2512
-54.0651
-53.9313
-53.8111
-53.661
-53.7214
-53.6748
-53.6896
-53.849
-57.0664
-56.9554
-56.8351
-56.7175
-56.3082
-56.0692
-55.8011
-55.5878
-55.2771
-55.0355
-54.8753
-54.6572
-54.4297
-54.3019
-54.2294
-54.1916
-54.2356
-53.8699
-58.7824
-58.9999
-58.2341
-58.6255
-58.2297
-57.9486
-57.6788
-57.0969
-56.8409
-56.4828
-56.1388
-55.8498
-55.7344
-55.5015
-55.3158
-55.1142
-55.1209
-55.113
-55.0167
-60.8813
-61.2683
-61.3618
-60.8375
-60.7698
-60.3845
-59.9642
-59.4694
-58.6795
-58.1711
-57.6609
-57.6461
-57.3887
-57.391
-56.9048
-56.5469
-56.4032
-56.6718
-56.7034
-56.1229
-63.3426
-63.7223
-63.9665
-64.3461
-63.9023
-63.706
-63.2372
-62.6176
-61.9863
-61.39
-60.9019
-59.9139
-59.6726
-59.0495
-59.4147
-58.6349
-57.858
-57.7054
-58.6243
-58.2182
-57.1611
-65.8974
-66.6337
-67.2762
-67.8906
-68.2516