/*--------------------------------*- C++ -*----------------------------------*\
  =========                 |
  \\      /  F ield         | OpenFOAM: The Open Source CFD Toolbox
   \\    /   O peration     | Website:  https://openfoam.org
    \\  /    A nd           | Version:  7
     \\/     M anipulation  |
\*---------------------------------------------------------------------------*/
FoamFile
{
    version     2.0;
    format      ascii;
    class       surfaceScalarField;
    location    "3.5";
    object      phi;
}
// * * * * * * * * * * * * * * * * * * * * * * * * * * * * * * * * * * * * * //

dimensions      [0 3 -1 0 0 0 0];

internalField   nonuniform List<scalar> 
54095
(
0.000327069
-9.08456e-05
-0.000442112
0.000419199
-4.71109e-05
0.000550621
0.000238527
-0.000122345
-0.000683143
0.000327577
-9.63702e-05
-0.000673319
0.00042544
-3.54763e-05
-0.0019165
0.000156144
-8.72182e-06
-0.00130466
0.000421649
-2.65737e-05
0.000483122
2.38177e-05
-0.000112669
-0.00143297
0.000206714
-0.00012629
-0.000859937
0.000315995
-0.000101994
-0.00088732
0.000160599
0.000428819
-0.00548425
0.000345571
0.000500464
-0.0035252
0.000255275
-0.000104433
-0.00164569
-2.81215e-05
-4.61238e-05
-0.00190074
2.77737e-05
4.62248e-06
-0.00115691
0.000394953
-8.65212e-06
0.000412816
1.7038e-06
-9.38625e-05
-0.000524161
2.08477e-05
-0.000116237
-0.00146387
0.000175441
-0.000129145
-0.00100823
0.000295967
-0.000105491
-0.0010778
-0.000523674
0.000384089
-0.00631564
1.52743e-05
0.000776573
-0.00482039
-0.000111173
0.000452719
-0.00557052
-5.35216e-05
0.000772719
-0.00104467
0.000214491
0.000544746
0.00336926
0.000143879
4.42091e-05
-0.00143883
8.20415e-05
-0.000105226
-0.000743421
-8.67344e-06
-4.91532e-05
-0.00181744
-2.40911e-05
2.86423e-05
-0.000994675
0.000340033
1.61446e-05
0.000352606
1.62349e-05
-7.29921e-05
-0.000884786
6.28669e-07
-9.12115e-05
-0.000549815
1.61678e-05
-0.000117483
-0.0014917
0.000152743
-0.000131807
-0.00113465
0.00027095
-0.000106191
-0.00124256
-0.000810565
0.000280301
-0.00806238
-0.000734317
0.000612342
-0.00619726
-0.000735093
0.000414235
-0.00610595
-0.000129665
0.000786954
-0.00594674
-8.35658e-06
0.000593411
-0.00473824
-0.000242979
0.000436573
-0.00562024
0.000175933
0.000453821
-0.00275608
-0.000134687
0.000705824
-0.00107973
-4.42166e-05
0.000527777
0.00290582
-9.3676e-05
0.000104372
-0.00110949
7.42726e-05
-0.000148333
-0.000316402
6.03444e-05
-0.000111959
-0.000740331
1.21996e-05
-4.78105e-05
-0.00173702
-8.8835e-05
5.79072e-05
-0.000794859
0.000270527
5.26301e-05
0.000300399
-1.00856e-05
-7.21703e-05
-0.00107013
1.49655e-05
-6.97134e-05
-0.000921249
1.15357e-06
-8.75495e-05
-0.000580902
7.46452e-06
-0.000117884
-0.00151309
0.000117941
-0.000133486
-0.0012253
0.000243487
-0.000104706
-0.00138134
-0.00133192
0.000341192
-0.00612556
-0.000730973
0.00060793
-0.00872458
-0.000855924
0.000126282
-0.00806783
-0.000315388
0.000650846
-0.00682723
-0.000532264
0.000615415
-0.00587453
-0.000739149
0.000432379
-0.00604216
-5.43389e-05
0.000700539
-0.00596911
-0.000345354
0.000620771
-0.00576343
-0.000336562
0.000523932
-0.00453325
-0.000512355
0.000393071
-0.00559463
0.00029492
-4.74919e-05
-0.00247287
0.000105644
0.000364632
-0.00246018
-7.0851e-05
0.000649521
-0.00111843
-0.000115806
0.000580303
0.00245686
-0.000201796
0.000201195
-0.000838366
5.35063e-05
-0.000154228
-0.00113507
9.40394e-05
-0.000150573
-0.000356862
8.27562e-05
-0.000131957
-0.000737787
3.11389e-07
-4.04595e-05
-0.0016315
-0.000165788
8.51969e-05
-0.000543697
0.000172404
7.14981e-05
0.000299984
3.11756e-05
-7.0069e-05
-0.00110199
-3.2436e-06
-6.93576e-05
-0.00106724
1.63308e-05
-6.65369e-05
-0.000958593
2.62067e-06
-8.374e-05
-0.000617667
8.89978e-06
-0.000117516
-0.00153796
0.000102579
-0.000132603
-0.00129998
0.00021606
-0.000102041
-0.00149535
-0.00161182
0.00032462
-0.00428418
-0.00091877
0.000393016
-0.00696677
-0.00118559
0.000356916
-0.0061528
-0.000438905
0.00073966
-0.00869308
-0.000638178
0.000453577
-0.00894596
-0.000784194
0.000205271
-0.00822806
-2.55341e-05
0.000472966
-0.00725137
-0.000275842
0.000584451
-0.00686578
-0.000567227
0.000656103
-0.00586759
-0.000749922
0.000450997
-0.00625559
0.000322372
0.000566544
-0.00522091
-0.000124873
0.000593506
-0.00571133
-0.00052341
0.000535902
-0.00532284
-0.000492101
0.000500203
-0.00426409
-0.000424193
0.00037262
-0.00574485
0.000430612
-0.000365681
-0.0022421
0.0002785
-4.78103e-05
-0.00224489
0.000128008
0.000336614
-0.00219253
-6.98981e-05
0.000650579
-0.0011185
-0.000219053
0.000606752
0.00210457
-0.000360701
0.000350039
-0.0006553
0.000129225
-0.00015847
-0.00128852
6.47143e-05
-0.000146725
-0.00120687
0.00010885
-0.000169033
-0.000412305
9.28366e-05
-0.000158563
-0.000709899
6.37537e-06
-4.49719e-05
-0.00149881
-0.000165446
0.00011546
-0.000319634
6.77565e-05
7.44982e-05
0.000373789
5.94143e-05
-7.01599e-05
-0.00147078
2.65267e-05
-6.75494e-05
-0.00113032
1.27121e-05
-6.68201e-05
-0.00107967
1.84411e-05
-6.36436e-05
-0.00099713
4.15102e-06
-7.98932e-05
-0.00065944
7.71221e-06
-0.000115502
-0.00156277
8.41193e-05
-0.000128746
-0.0013574
0.000186938
-9.86739e-05
-0.00158362
-0.00148377
2.75441e-05
-0.00407586
-0.000915217
0.00049934
-0.00570843
-0.00148059
0.000382737
-0.00437192
-0.000779393
0.00061999
-0.00728057
-0.000810413
0.000565136
-0.00700276
-0.0010355
6.05957e-05
-0.00596209
0.000168775
0.000841213
-0.00900426
-0.000437607
0.00073758
-0.00881532
-0.000660394
0.000562592
-0.00921012
-0.000836005
0.000202673
-0.00834465
0.000405064
0.000201594
-0.00693657
-4.56719e-05
0.000475318
-0.00722144
-0.000553176
0.000655683
-0.0068356
-0.000593332
0.000657928
-0.00597329
-0.000504288
0.000602259
-0.00677776
0.000695898
0.000465707
-0.00385097
0.000175146
0.000434807
-0.00495886
-0.000258863
0.000492241
-0.0052808
-0.000502459
0.000544239
-0.00493432
-0.000515501
0.000487829
-0.00408285
-0.000758705
0.00032719
-0.00567404
0.000426046
-0.000260864
-0.00195343
0.000434494
-0.00038495
-0.00227474
0.000248452
-7.3641e-06
-0.00204051
0.000100579
0.000361523
-0.00191121
-6.14634e-05
0.000646853
-0.00109076
-0.000261747
0.00070561
0.0018453
-0.000520172
0.000447253
-0.000514624
7.16954e-05
-0.000195955
-0.00143052
0.000154297
-0.000146573
-0.00141644
8.79381e-05
-0.000162461
-0.00128867
0.000124132
-0.00019142
-0.00048514
9.0347e-05
-0.00018151
-0.000659558
-1.87761e-05
-2.97151e-05
-0.00132714
-0.000172685
0.000135477
-0.000123808
-3.34845e-05
7.34111e-05
0.0005208
7.78909e-05
-7.59e-05
-0.00136517
4.66666e-05
-6.94339e-05
-0.00151556
3.39499e-05
-6.44215e-05
-0.00116667
2.76439e-05
-6.46133e-05
-0.00110635
1.72813e-05
-6.0882e-05
-0.00103342
5.63611e-06
-7.62772e-05
-0.000704301
1.51397e-05
-0.000111785
-0.00159488
6.98055e-05
-0.000124473
-0.0014014
0.0001605
-9.46295e-05
-0.00164949
-0.00157241
3.2928e-05
-0.00379734
-0.000995686
0.000216717
-0.00498937
-0.00141694
1.46893e-05
-0.00415419
-0.000750531
0.000546742
-0.00609041
-0.000897464
0.000496953
-0.00573559
-0.0014631
0.000435105
-0.00437943
-0.000277435
0.000847695
-0.00757116
-0.000874233
0.000663684
-0.00694249
-0.000858112
0.000259876
-0.00700432
-0.000975168
3.0326e-05
-0.00585326
0.00078172
0.000723689
-0.00868818
1.52782e-05
0.000805725
-0.00913336
-0.00050763
0.00068148
-0.00897975
-0.000427291
0.000499786
-0.00967327
-0.000885893
0.000129729
-0.00809277
0.000916924
0.00037186
-0.0064003
0.00036144
0.000231558
-0.0068791
-0.000164408
0.000535736
-0.00719595
-0.000441799
0.000646616
-0.00688494
-0.000520841
0.000782798
-0.00614849
-0.000826429
0.000553504
-0.00726354
0.000622109
0.000292447
-0.00363823
0.000569003
0.000409206
-0.00395988
0.000152297
0.000336699
-0.00470716
-0.000340651
0.000478951
-0.00477428
-0.000469096
0.000491545
-0.0045304
-0.000434999
0.000488854
-0.00407126
-0.000996439
0.00037588
-0.00557365
0.0001838
-0.000151139
-0.00117862
0.000468507
-0.000287149
-0.00236544
0.000377052
-0.000305731
-0.00226549
0.000254767
5.7449e-05
-0.00186707
7.86978e-05
0.000397712
-0.00165042
-0.000119137
0.000682349
-0.000967136
-0.000279648
0.000787709
0.0016118
-0.000599406
0.000430231
-0.000378934
0.0002421
-0.000267311
-0.00150162
8.48258e-05
-0.000181951
-0.00143331
0.000172202
-0.000150091
-0.00156706
0.000114581
-0.000187068
-0.00137996
0.000137212
-0.000200208
-0.000586373
6.86103e-05
-0.000185665
-0.000566582
-4.47369e-05
-9.25839e-06
-0.00112253
-0.00013512
0.000135693
1.88358e-05
-9.09896e-05
7.27994e-05
0.00069949
5.58436e-05
-7.31925e-05
-0.000486822
7.16728e-05
-7.42713e-05
-0.00143201
4.17334e-05
-6.66751e-05
-0.00155504
3.53484e-05
-6.25404e-05
-0.00120409
2.84231e-05
-6.25328e-05
-0.00113312
1.47354e-05
-5.83521e-05
-0.00106608
8.71047e-06
-7.28912e-05
-0.000751905
1.8813e-05
-0.000108291
-0.00162987
5.62752e-05
-0.000118984
-0.00143332
0.000137356
-9.01877e-05
-0.00169666
0.000154702
-0.00293521
-0.00111761
0.000132353
-0.00426496
-0.0016484
7.6379e-05
-0.00364226
-0.000759295
0.000203276
-0.00538189
-0.000970303
0.000164393
-0.00506623
-0.00147105
-1.8759e-05
-0.00412748
-0.000768334
0.000798835
-0.00669863
-0.000859586
0.00052968
-0.00613779
-0.000810132
0.000422578
-0.00577104
-0.00134585
0.000428085
-0.00443683
0.000813895
0.000832554
-0.00756549
-0.000190003
0.000768191
-0.00747038
-0.000755492
0.000621141
-0.0070559
-0.000554245
0.000234984
-0.00708203
-0.000875154
8.8081e-05
-0.00595208
0.00106261
0.000718655
-0.00792223
0.000610805
0.0007252
-0.00885702
0.000110726
0.000666665
-0.00939368
-0.000429015
0.000674119
-0.00916687
-0.000530631
0.000403968
-0.00993772
-0.00092548
0.000192584
-0.0081863
0.000785335
0.000561079
-0.00547505
0.000745334
0.000323234
-0.00666831
0.000404262
0.000390943
-0.00698627
-0.000196817
0.000506142
-0.00719931
-0.00034367
0.000654608
-0.00688218
-0.000142635
0.00103946
-0.00692681
-0.00103472
0.000512019
-0.00773728
0.000759523
1.93312e-05
-0.0036337
0.000601256
0.000258588
-0.00362036
0.000485824
0.000347035
-0.00407898
0.000212941
0.00031481
-0.00450119
-0.000179359
0.000421316
-0.00444599
-0.00036557
0.000458641
-0.00425375
-0.000537125
0.000429531
-0.00386744
-0.00108078
0.000346605
-0.00543888
0.000328106
-0.000268384
-0.00116261
0.000245825
-9.89381e-05
-0.00152783
0.000450603
-0.000327468
-0.00262211
0.000311058
-0.00014536
-0.00225916
0.000261601
0.000137247
-0.001731
4.14288e-05
0.000448729
-0.00138962
-0.000188216
0.000672036
-0.000707985
-0.000174264
0.000758365
0.00132281
-0.000488377
0.00040724
-0.000388786
0.000235748
-0.000239844
-0.00144086
0.000202328
-0.00024416
-0.00157007
0.000137257
-0.000173919
-0.001505
0.000162603
-0.000165086
-0.0017163
0.00010451
-0.000186347
-0.00146991
0.000101603
-0.000176885
-0.00068202
2.35243e-05
-0.000168245
-0.00042241
-8.52644e-05
7.32164e-07
-0.000883493
-0.000125542
0.000144824
0.000128629
-6.02324e-05
6.89929e-05
0.000828085
8.11457e-05
-6.8707e-05
-0.000778483
5.94632e-05
-7.14621e-05
-0.000549094
6.26813e-05
-7.17643e-05
-0.0014896
3.41456e-05
-6.56396e-05
-0.00158609
2.98475e-05
-5.99058e-05
-0.00123657
3.01108e-05
-6.0765e-05
-0.00116082
1.1472e-05
-5.65983e-05
-0.00109385
1.24773e-05
-6.95675e-05
-0.000803106
2.25941e-05
-0.000104112
-0.00166734
4.41055e-05
-0.000112489
-0.00145513
0.000117558
-8.55819e-05
-0.00172863
0.000259063
-0.00376314
-0.00177091
0.00017401
-0.0029867
-0.00078657
9.40864e-05
-0.00476951
-0.0010838
0.000174134
-0.00424921
-0.00156985
6.6714e-05
-0.00361018
-0.000656913
0.000279293
-0.00599367
-0.000812071
0.000153704
-0.00541871
-0.000867262
0.00013599
-0.00516385
-0.001399
1.35199e-05
-0.00408785
0.000387441
0.00101305
-0.00694481
-0.000539857
0.000859234
-0.00667833
-0.000837004
0.000468158
-0.00610185
-0.000720768
0.00049265
-0.00566909
-0.00134649
0.00040166
-0.00436715
0.00128462
0.000800834
-0.00778009
0.000498402
0.000781776
-0.00746667
5.00153e-06
0.000771968
-0.00751549
-0.000706073
0.000648421
-0.00719228
-0.00054183
0.000271873
-0.00725462
-0.000831072
3.58471e-05
-0.00608233
0.00111761
0.000755511
-0.00758856
0.00104988
0.00073389
-0.00823547
0.000594423
0.000597414
-0.00897793
-0.000187031
0.000723557
-0.0094529
-0.0003615
0.00066761
-0.00941268
-0.000151909
0.000444113
-0.01018
-0.000905944
0.000106697
-0.00842178
0.00105171
0.000442636
-0.00476213
0.000745854
0.000412113
-0.00570852
0.000746337
0.00035416
-0.00689204
0.000336776
0.000412392
-0.00701636
0.00011241
0.000536502
-0.00737297
0.000138946
0.000849381
-0.00719662
-8.84507e-06
0.000878621
-0.00782169
-0.000660447
0.000353168
-0.00851078
0.000711718
-0.000120852
-0.00289301
0.000743081
0.000119041
-0.00399141
0.000610592
0.000263373
-0.00369668
0.000464697
0.000284202
-0.00420201
0.000248346
0.000304488
-0.00437111
-9.08539e-06
0.0003653
-0.00430214
-0.000346041
0.000384226
-0.00405062
-0.000204545
0.000343502
-0.00383405
-0.000682333
0.000259663
-0.00550459
0.000205991
-0.000270011
-0.00106579
0.000309323
-0.000215128
-0.00115342
0.000355509
-0.00013438
-0.00193917
0.000366952
-0.000278953
-0.00269286
0.00025692
-5.28257e-05
-0.0022215
0.000182855
0.000186005
-0.00154953
-5.74173e-05
0.000468581
-0.00110522
-0.000183307
0.000630122
-0.0004817
-9.64219e-05
0.000719024
0.000981906
-0.000319783
0.000391481
-0.000520716
0.000200987
-0.000212338
-0.00128887
0.000241055
-0.000212975
-0.00165363
0.000142795
-0.000232453
-0.00159165
0.000140608
-0.000168586
-0.00160796
0.000134551
-0.000169726
-0.00183762
9.01035e-05
-0.000150505
-0.00155628
6.63562e-05
-0.000142165
-0.000762984
-4.23849e-06
-0.000145681
-0.000259281
-9.88312e-05
2.28965e-05
-0.00064014
-0.000135344
0.000126332
0.000250739
1.02257e-05
5.88292e-05
0.000876588
4.49216e-05
-6.6837e-05
-0.000313303
8.46812e-05
-6.89163e-05
-0.00086571
5.89305e-05
-6.84778e-05
-0.000611311
5.07663e-05
-7.03066e-05
-0.0015357
2.89963e-05
-6.40904e-05
-0.0016109
2.20591e-05
-5.8488e-05
-0.0012609
2.187e-05
-5.97414e-05
-0.00117954
5.79475e-06
-5.42006e-05
-0.00111501
1.6909e-05
-6.61789e-05
-0.000857947
2.3763e-05
-9.91952e-05
-0.00170439
3.25423e-05
-0.000105342
-0.00146791
0.000103243
-8.10773e-05
-0.0017508
-0.00162559
-0.000127624
-0.00309979
2.21263e-05
-0.00412549
-0.00120563
0.00025326
-0.00372057
-0.00165649
8.33837e-05
-0.00298345
-0.000521373
-7.69477e-05
-0.00486463
-0.00094799
0.000138573
-0.00459803
-0.00106635
0.000162598
-0.00414601
-0.001548
9.37503e-05
-0.00355494
6.21502e-06
0.000606733
-0.00639753
-0.000752108
0.00031235
-0.00594006
-0.00101741
0.000230748
-0.00533307
-0.00106135
0.000201019
-0.00501077
-0.0015819
-1.3523e-05
-0.00383892
0.00115096
0.00111816
-0.00687039
0.000208065
0.000929357
-0.0067246
-0.000480794
0.000737292
-0.00646167
-0.000854011
0.000550697
-0.00601196
-0.00065481
0.000466547
-0.00562099
-0.00137731
0.00034126
-0.00416218
0.00131393
0.000986415
-0.00760897
0.00110304
0.000762674
-0.00781414
0.00104927
0.000773417
-0.00792297
-0.000294584
0.000765387
-0.0075249
-0.000641084
0.000627893
-0.00726871
-0.000551207
0.000300476
-0.00711995
-0.000904839
0.000189069
-0.0062725
0.00110335
0.000814614
-0.00648451
0.000927612
0.000797499
-0.00783393
0.00100531
0.000556704
-0.00845373
0.000340528
0.000826701
-0.00908482
-9.63591e-05
0.000773599
-0.00935012
9.51213e-05
0.000673012
-0.00959775
0.000169011
0.000260989
-0.0105121
-0.000280814
0.000367369
-0.00916878
0.00101362
0.000214493
-0.0048439
0.000989228
0.000327519
-0.00492369
0.000857963
0.000333295
-0.00593503
0.000494118
0.000325228
-0.00683429
0.000377686
0.000338794
-0.00694799
0.000341927
0.000681024
-0.00755562
1.56657e-05
0.000822519
-0.00750223
9.24711e-05
0.000531303
-0.00829684
-5.90977e-05
7.21196e-05
-0.00920613
0.000487186
6.20404e-05
-0.00243254
0.000777861
-4.16402e-05
-0.00320087
0.000640869
0.00012755
-0.00414094
0.000588821
0.00019362
-0.00382797
0.000465594
0.00023703
-0.00434323
0.000235588
0.000268743
-0.00432729
-4.66943e-05
0.000304338
-0.00423297
-5.65449e-05
0.000265599
-0.00409948
0.000421137
0.000209702
-0.00430165
-2.15239e-05
0.000158013
-0.00596086
5.60656e-05
-0.000172943
-0.000930637
0.000318533
-0.000212128
-0.00114627
0.000250568
-0.000151249
-0.00124432
0.000371754
-0.000153405
-0.00229586
0.00028622
-0.000244499
-0.00265286
0.000189072
-2.46471e-05
-0.00210981
0.000123299
0.000247404
-0.00138529
-7.25971e-05
0.000435795
-0.000842539
-0.000140621
0.000573142
-0.000294028
3.37513e-05
0.000619111
0.00058518
5.46073e-05
0.000348078
-0.000913176
0.000143873
-0.000216541
-0.000894547
0.000204859
-0.000193757
-0.00142827
0.000190462
-0.000198813
-0.0018188
9.22267e-05
-0.000223857
-0.00157784
0.00012405
-0.000164731
-0.00170801
9.08368e-05
-0.000157239
-0.00189966
6.6887e-05
-0.000119495
-0.00162397
4.91416e-05
-0.00011378
-0.000838232
-1.42846e-05
-0.000122852
-8.23387e-05
-9.09155e-05
1.48142e-05
-0.000413944
-0.000141939
0.000110023
0.000374026
4.8534e-05
5.04426e-05
0.000880854
7.32799e-05
-6.42242e-05
-2.05348e-06
4.6983e-05
-6.649e-05
-0.000362712
8.42143e-05
-6.79722e-05
-0.00095043
4.97726e-05
-6.53543e-05
-0.000666036
3.8703e-05
-6.88053e-05
-0.00156969
2.18892e-05
-6.3438e-05
-0.00162784
1.54976e-05
-5.58104e-05
-0.00128033
1.83617e-05
-5.8503e-05
-0.0011936
1.15887e-06
-5.17085e-05
-0.00113064
2.22272e-05
-6.26422e-05
-0.000916728
2.05162e-05
-9.36483e-05
-0.0017366
2.34083e-05
-9.79242e-05
-0.00147447
9.06821e-05
-7.67641e-05
-0.00176472
-0.00167266
3.15067e-05
-0.00279168
-0.00131282
-2.89405e-05
-0.00371174
-0.00163588
-5.37409e-05
-0.00306666
-6.67313e-05
-0.00426843
-0.000713794
-3.31104e-05
-0.00407332
-0.00115945
0.000180084
-0.00372416
-0.0016706
9.34061e-05
-0.00295425
-0.000258583
0.000172288
-0.00537231
-0.000683261
5.89094e-05
-0.00485382
-0.00110616
0.000241067
-0.00458775
-0.00113949
0.000146439
-0.00412056
-0.00161482
8.82877e-05
-0.0036103
0.000467915
0.00112088
-0.00645794
5.72237e-05
0.000644074
-0.00657841
-0.000730473
0.00034164
-0.00580127
-0.000974623
0.000286937
-0.00529837
-0.00111251
0.00021524
-0.00478183
-0.00148841
3.54994e-05
-0.00376332
0.00116971
0.00132599
-0.00685957
0.000853564
0.001059
-0.00675056
0.000983741
0.000643359
-0.00656513
-0.000503451
0.000844585
-0.00654669
-0.000808004
0.000582033
-0.00596053
-0.000759914
0.000352198
-0.00542322
-0.00134105
0.000250282
-0.00397625
0.00109066
0.00120476
-0.00696976
0.00108878
0.000889557
-0.00789702
0.00101563
0.000822546
-0.00787359
0.000211113
0.000809283
-0.00783745
-0.000341813
0.000845549
-0.0074971
-0.000449784
0.000628367
-0.0070517
-0.00048853
0.000531038
-0.00680438
-0.00095543
0.000324195
-0.00592208
0.00103616
0.000978176
-0.00631073
0.00104177
0.000803769
-0.00654333
0.000925386
0.000626633
-0.00797128
0.00048603
0.000809418
-0.00842836
0.000232558
0.000747892
-0.00891399
0.000175148
0.000864442
-0.00937477
-0.000127358
0.000622504
-0.00981624
-6.9099e-05
0.000486391
-0.0104696
2.5275e-05
0.000410957
-0.00966411
0.000785235
0.000246151
-0.00564775
0.00102848
0.000213088
-0.00498009
0.000898181
0.000326986
-0.00517469
0.000905371
0.000257441
-0.00618379
0.000786555
0.000307744
-0.00712421
0.00048174
0.000475764
-0.00698888
0.000308908
0.00064296
-0.00773167
0.000200672
0.000519257
-0.0077474
0.000725332
0.000207754
-0.00873667
0.000489182
7.94675e-05
-0.00979631
0.000162149
0.000129775
-0.00167842
0.000651291
1.17928e-05
-0.00281873
0.000804649
-6.02596e-05
-0.00356714
0.000570517
4.58688e-05
-0.00419196
0.000472933
0.000132566
-0.00391022
0.00032629
0.000202989
-0.00441469
0.000180972
0.000215657
-0.00429628
-6.47609e-05
0.000259073
-0.00423428
8.01085e-05
0.000120186
-0.00423069
0.000612989
0.000110649
-0.00483352
0.000582095
-7.87438e-05
-0.00640961
6.40361e-06
-0.000156301
-0.000923847
8.91944e-05
-0.000135182
-0.000891918
0.000302684
-0.000165764
-0.00124398
0.00022901
-8.296e-05
-0.00145155
0.000320673
-0.000107697
-0.00262929
0.000227715
-0.000180402
-0.00263398
0.000154088
3.78556e-05
-0.00198747
9.116e-05
0.000290054
-0.00128157
-2.70317e-05
0.000397619
-0.000654269
-7.69682e-05
0.000496238
-0.000185102
0.000490053
0.000505815
-0.000204548
0.0004782
0.000288504
-0.00163135
0.000188499
-0.000214394
-0.000848901
0.000122966
-0.000208686
-0.0009556
0.000185799
-0.000172691
-0.00155597
0.000131265
-0.000188255
-0.0019359
4.25827e-05
-0.000208203
-0.00153824
9.00822e-05
-0.000159423
-0.00177402
5.8058e-05
-0.000145577
-0.00191614
4.34181e-05
-9.96141e-05
-0.00166319
2.57692e-05
-9.48622e-05
-0.000890833
-7.48305e-06
-0.000106155
6.83403e-05
-6.92246e-05
1.16498e-05
-0.000225829
-9.21227e-05
0.000100082
0.000439917
9.98797e-05
4.34065e-05
0.00082825
7.2407e-05
-6.06237e-05
9.32918e-05
6.43338e-05
-6.27655e-05
-7.01118e-05
5.24277e-05
-6.67213e-05
-0.000416391
8.1017e-05
-6.62577e-05
-0.00103054
3.89488e-05
-6.32159e-05
-0.000710574
2.64295e-05
-6.74689e-05
-0.00159208
1.57528e-05
-6.20245e-05
-0.00163738
9.59486e-06
-5.6723e-05
-0.00129171
1.61534e-05
-5.7056e-05
-0.00120441
-1.70541e-06
-4.89497e-05
-0.00114263
2.7273e-05
-5.9033e-05
-0.000978616
1.48882e-05
-8.76583e-05
-0.00176176
1.57334e-05
-9.03214e-05
-0.00147665
8.12312e-05
-7.27153e-05
-0.00177323
2.96062e-05
-0.00257766
-0.00138164
7.01985e-05
-0.0032731
-0.00172334
5.8096e-05
-0.00276231
-0.00114628
0.000166968
-0.00383537
-0.00134854
3.18942e-05
-0.00360829
-0.00160496
-6.97135e-05
-0.00306259
5.08569e-05
-0.00448983
-0.000730196
-2.55336e-05
-0.00422907
-0.000979227
4.38374e-06
-0.00402454
-0.00119173
0.000156828
-0.00373533
-0.00169677
7.03236e-05
-0.00294262
-4.30571e-05
0.000673651
-0.00542772
-0.000108434
0.000281416
-0.00542916
-0.000664818
0.00010546
-0.00478387
-0.00116005
0.000261715
-0.0045176
-0.00115886
0.000173417
-0.00415935
-0.00147688
9.90182e-05
-0.00372086
0.000909542
0.00137162
-0.00642499
0.000286706
0.00105379
-0.0063008
-3.8744e-07
0.00074856
-0.0060012
-0.000834743
0.000466954
-0.00565
-0.00101149
0.000297638
-0.00517729
-0.00108057
0.000230915
-0.00465659
-0.00140094
0.000103739
-0.00380718
0.00110473
0.00147646
-0.00675619
0.00113114
0.00113646
-0.00697938
0.00095828
0.000841716
-0.00689157
0.00015253
0.000842999
-0.00650496
-0.000573679
0.000702051
-0.00643484
-0.000730958
0.00044678
-0.00577394
-0.000825189
0.000324711
-0.00516099
-0.00128997
0.000161985
-0.00380369
0.000992696
0.00129755
-0.00689771
0.00117421
0.00103081
-0.00724345
0.000905102
0.000836774
-0.00789097
0.000670864
0.000817024
-0.00806617
0.000300963
0.000876143
-0.00793645
-1.6506e-05
0.000721734
-0.00739881
-0.000374762
0.000710516
-0.00698377
-0.000698653
0.000648567
-0.0064992
-0.00113069
0.000479243
-0.00524536
0.000762026
0.00107142
-0.00652569
0.00103909
0.000857766
-0.00637534
0.00098604
0.000776254
-0.00678081
0.000882998
0.00064444
-0.00778393
0.000764659
0.000713485
-0.00837205
0.00033828
0.000889829
-0.00879592
-5.82313e-05
0.000879255
-0.00926438
-0.000222936
0.000727345
-0.00963359
7.50654e-06
0.000570746
-0.00991154
-0.00020811
0.000404794
-0.00937161
0.000515083
0.00055632
-0.00528609
0.000960533
4.70437e-05
-0.00579095
0.00101381
0.00045557
-0.00531784
0.000805352
0.000433541
-0.00558562
0.000864878
0.000364731
-0.00663273
0.00050683
0.0004743
-0.00730328
0.000304763
0.000662711
-0.00713242
0.000173918
0.000451716
-0.00790281
0.000308837
0.000300004
-0.00806838
0.000789915
0.000235902
-0.00907003
0.000565087
0.00014482
-0.00992412
0.000105165
-3.93622e-05
-0.00198195
0.00040578
0.000112093
-0.0020953
0.00065887
-6.29705e-05
-0.0031722
0.000742394
-0.000119542
-0.00391511
0.000472123
5.6833e-05
-0.00426767
0.000310813
0.000119292
-0.00390962
0.000165229
0.000212848
-0.00442303
0.000101657
0.000189503
-0.00423721
2.16885e-05
0.000162121
-0.00432494
0.000144689
2.101e-05
-0.00436271
0.00119683
-5.93043e-05
-0.00555973
0.00106196
-0.000107133
-0.00688624
0.000119321
-9.785e-05
-0.00111034
1.51916e-05
-0.000143119
-0.000808136
0.000124101
-9.36038e-05
-0.000902381
0.000292763
-0.000103624
-0.00138481
0.000186763
3.52427e-06
-0.00170695
0.000230907
-0.000113084
-0.00283743
0.000172056
-8.48397e-05
-0.00262528
0.000133597
0.00012258
-0.00191017
7.84735e-05
0.000207938
-0.00114459
3.67856e-05
0.000339691
-0.000541991
5.07462e-05
0.000421263
-0.000220521
0.000643157
0.000430143
-0.00108147
0.000665609
0.000203354
-0.00240043
0.000239877
-0.000188734
-0.000958966
0.000161668
-0.000197674
-0.000957247
0.000105575
-0.000188064
-0.000993375
0.000159616
-0.000155683
-0.00166714
7.60138e-05
-0.000173202
-0.00200796
4.69343e-05
-0.000194043
-0.00152413
6.00053e-05
-0.000154033
-0.00180982
3.29328e-05
-0.000135332
-0.00190376
4.70417e-05
-9.02477e-05
-0.00169869
1.94229e-05
-8.1629e-05
-0.000936486
1.65824e-06
-8.71736e-05
0.000192778
-3.42855e-05
1.22925e-05
-8.88655e-05
-1.40705e-05
9.49383e-05
0.00041819
0.000209799
3.52739e-05
0.000664408
4.57808e-05
-6.66502e-05
0.000439515
6.35936e-05
-5.91639e-05
2.60965e-05
6.00125e-05
-6.22591e-05
-0.000134587
6.18481e-05
-6.69082e-05
-0.000477588
6.84687e-05
-6.48946e-05
-0.00109733
2.60688e-05
-6.07688e-05
-0.000743343
1.13292e-05
-6.63999e-05
-0.00159904
-5.77793e-06
-6.35667e-05
-0.00162476
5.4035e-06
-5.38934e-05
-0.00130027
1.80019e-05
-5.54857e-05
-0.00121588
-2.75712e-06
-4.65721e-05
-0.00115233
2.99153e-05
-5.55737e-05
-0.00104062
8.0171e-06
-8.12659e-05
-0.00177883
8.58101e-06
-8.25649e-05
-0.00147538
7.47175e-05
-6.90826e-05
-0.00177887
3.23136e-05
-0.00313176
-0.00174486
3.49731e-05
-0.00259111
-0.00131433
0.000106566
-0.00353336
-0.00138928
0.000100473
-0.00327474
-0.00167422
3.91402e-05
-0.00273219
-0.000871772
0.000234327
-0.00383776
-0.00113592
0.000131364
-0.00377815
-0.00132003
2.36466e-05
-0.00357336
-0.0016122
-6.95623e-05
-0.0030776
0.000324285
-0.00447672
-0.000371278
0.000160131
-0.00441265
-0.000668811
-2.77e-05
-0.004193
-0.00106967
3.49585e-05
-0.00399305
-0.00130241
0.000162096
-0.00368356
-0.00166917
8.61486e-05
-0.00283648
0.000695686
0.000899021
-0.00551575
-0.000167333
0.000662444
-0.00535471
-0.000324962
0.000284178
-0.0052833
-0.000761059
0.000152667
-0.0047485
-0.00118323
0.000276552
-0.00444899
-0.00111613
0.000159755
-0.00418452
-0.00145297
9.36464e-05
-0.00376247
0.000826951
0.00148938
-0.00617178
0.000828466
0.00115337
-0.00622191
0.000376693
0.000994128
-0.00596478
-5.22026e-05
0.000624247
-0.00595376
-0.000871958
0.000536532
-0.00559061
-0.00103326
0.000416741
-0.00506082
-0.00105024
0.000220661
-0.00454846
-0.00128161
7.74654e-05
-0.003893
0.00105345
0.00155094
-0.00669915
0.00114697
0.00125837
-0.00685087
0.000922919
0.000875262
-0.00703074
0.000895953
0.000610149
-0.0068838
0.000533745
0.000687561
-0.00672326
-0.000470396
0.000693697
-0.00622787
-0.000640212
0.000507671
-0.00569145
-0.00114019
0.000413545
-0.00497102
-0.00130967
4.72968e-05
-0.00367201
0.000844416
0.00136808
-0.00723527
0.00103612
0.0011717
-0.00703564
0.0011635
0.000947098
-0.00753124
0.00094055
0.000798837
-0.00793033
0.000516473
0.000875299
-0.00781714
7.77012e-05
0.000734168
-0.0076883
-0.000366429
0.000725607
-0.00710571
-0.000406439
0.000737129
-0.00688883
-0.000188887
0.000723102
-0.00654666
-0.00120439
0.000369569
-0.00461865
0.000651105
0.00123843
-0.00667694
0.00100994
0.000906942
-0.00662427
0.000988998
0.000915397
-0.00648967
0.000934406
0.000822896
-0.00708832
0.000910312
0.000575055
-0.00769093
0.000541124
0.000805414
-0.00832193
0.00017133
0.000932669
-0.0087159
7.82494e-06
0.000908581
-0.00927952
-7.2282e-05
0.000819596
-0.00950132
-0.000251292
0.000641132
-0.00910667
-0.000443943
0.0004497
-0.00881228
0.000370867
0.00066282
-0.00484147
0.00090681
0.000209761
-0.00594984
0.000818734
0.000461783
-0.00595702
0.000838644
0.000518209
-0.00549875
0.000782902
0.000471553
-0.00600322
0.00061162
0.000649843
-0.00710908
0.000312568
0.000640395
-0.0074283
0.000201402
0.000524492
-0.00730494
7.93036e-05
0.000212
-0.00787242
0.0002662
0.000231364
-0.00818535
0.000873494
0.000317171
-0.00891905
0.000515487
2.9669e-06
-0.00938061
0.000123768
-0.000115685
-0.00242371
0.000170237
-0.000115946
-0.00190896
0.000347426
5.88584e-05
-0.00244046
0.000702848
-0.000210694
-0.00349114
0.000687325
-0.000155579
-0.00420326
0.000368142
1.44831e-05
-0.0043001
0.000237259
0.000204552
-0.00396653
0.000200659
0.000224479
-0.00452506
0.000159157
0.000125098
-0.00428087
8.2502e-05
3.90106e-05
-0.00438865
0.000423806
-4.22767e-05
-0.0047528
0.00138981
-8.90276e-05
-0.00632449
0.00120307
-9.87621e-05
-0.00732494
0.00015577
-8.0083e-05
-0.00221786
0.00018623
-0.000160648
-0.00111737
8.15038e-07
-9.35713e-05
-0.000703408
0.000251667
-4.4518e-05
-0.00105354
0.000313068
-3.18143e-05
-0.00158653
0.000193948
1.72929e-05
-0.00198434
0.00017497
-0.000198451
-0.00283878
0.000148493
-3.66665e-05
-0.0025816
0.000157469
5.18975e-05
-0.00186456
0.000109239
0.000189711
-0.00108443
8.75146e-05
0.000251351
-0.000457935
0.000328342
0.000368438
-0.000521444
0.000682441
0.000351069
-0.00192569
0.000783372
2.07044e-05
-0.00299471
0.00020501
-0.000156785
-0.00100296
0.000173664
-0.000165599
-0.00110111
0.000122062
-0.000172907
-0.00103445
0.000100147
-0.000175577
-0.00101178
0.000127583
-0.000143912
-0.00175555
3.38857e-06
-0.000160475
-0.00201885
6.94769e-05
-0.000185058
-0.00155125
3.64267e-05
-0.000151562
-0.00183579
8.31417e-06
-0.000125159
-0.00187176
5.91909e-05
-8.60504e-05
-0.00173546
3.39949e-05
-8.25482e-05
-0.000977864
1.12402e-05
-6.65585e-05
0.000290305
-4.11191e-06
1.30422e-05
5.15966e-06
0.000108022
9.21599e-05
0.000261863
0.000305992
3.15998e-05
0.000401533
4.17103e-05
-7.97034e-05
0.000774203
4.91246e-05
-6.51559e-05
0.000396383
5.95541e-05
-5.85948e-05
-3.71219e-05
6.68516e-05
-6.24076e-05
-0.000205939
6.97524e-05
-6.63068e-05
-0.000545929
5.55756e-05
-6.24146e-05
-0.00115126
1.37576e-05
-5.79912e-05
-0.000765509
-5.88426e-06
-6.52644e-05
-0.00159146
8.41977e-08
-6.11866e-05
-0.00161755
6.79274e-07
-5.34282e-05
-0.00130301
1.14287e-05
-5.4121e-05
-0.00121976
-3.93645e-06
-4.47875e-05
-0.00115918
2.92963e-05
-5.23249e-05
-0.00109885
7.78687e-07
-7.47692e-05
-0.0017874
1.57062e-06
-7.48933e-05
-0.00147114
7.03411e-05
-6.59116e-05
-0.0017833
-0.00172857
-4.62038e-05
-0.00254151
-9.98528e-05
-0.00353213
-0.00132149
1.30075e-05
-0.00317758
-0.00172371
7.97508e-05
-0.00262137
-0.00117822
0.000321853
-0.00359675
-0.00124972
0.000179011
-0.0034981
-0.00131569
2.39642e-05
-0.00326391
-0.00162265
3.33105e-05
-0.00275505
-0.000635214
0.000371675
-0.00388532
-0.000823841
0.000221028