/*--------------------------------*- C++ -*----------------------------------*\
  =========                 |
  \\      /  F ield         | OpenFOAM: The Open Source CFD Toolbox
   \\    /   O peration     | Website:  https://openfoam.org
    \\  /    A nd           | Version:  7
     \\/     M anipulation  |
\*---------------------------------------------------------------------------*/
FoamFile
{
    version     2.0;
    format      ascii;
    class       volVectorField;
    location    "3.5";
    object      U;
}
// * * * * * * * * * * * * * * * * * * * * * * * * * * * * * * * * * * * * * //

dimensions      [0 1 -1 0 0 0 0];

internalField   nonuniform List<vector> 
18750
(
(3.41246 0.098782 -1.19994)
(3.33351 -0.489967 -0.865357)
(2.94539 0.318638 -2.63577)
(3.34223 0.0494055 -1.41402)
(1.14495 1.32751 -0.309508)
(1.55885 0.806655 0.16406)
(3.4764 -0.719337 -0.772197)
(0.340805 0.976938 -2.47196)
(2.94318 0.261188 -2.66582)
(3.17676 -0.00557978 -1.63083)
(1.74577 3.60335 0.521815)
(0.391875 3.30775 0.134459)
(1.05026 1.09483 -0.669113)
(0.209283 1.30657 -0.275605)
(0.625833 0.812313 0.363024)
(3.44053 -0.88273 -0.70131)
(0.164655 0.360929 -2.22907)
(0.508157 0.950562 -2.63562)
(2.82812 0.201813 -2.70426)
(3.02217 -0.0388502 -1.7313)
(-0.746353 4.34237 0.184886)
(2.00478 3.28553 2.11497)
(1.00394 3.69847 0.880022)
(-0.513899 0.664091 3.58081)
(-0.10932 0.0165597 0.126155)
(0.80654 0.965745 -0.146357)
(-0.181371 0.495763 -0.389078)
(0.0370414 1.26364 -0.285394)
(0.18929 0.707644 0.555573)
(3.15314 -1.01375 -0.525504)
(0.423563 0.587344 -1.671)
(0.210575 0.365846 -2.23282)
(0.634041 0.93376 -2.7444)
(2.70708 0.139743 -2.76425)
(2.87534 -0.0669115 -1.73413)
(-0.997506 5.43585 -0.119557)
(-1.82674 4.43675 1.50936)
(-0.885426 4.28074 0.122574)
(0.322039 4.01667 2.25268)
(1.52283 3.13061 1.85809)
(0.789766 3.68462 0.856767)
(1.14652 1.93989 2.98572)
(0.080089 0.804078 3.7036)
(-0.731874 -3.11147 0.645028)
(0.462303 0.724084 -0.139765)
(-0.207252 0.207269 -1.03714)
(-0.213576 0.523326 -0.430528)
(-0.107401 1.25031 -0.1202)
(-0.12418 0.698138 0.705219)
(2.73235 -1.06885 -0.366188)
(0.27042 0.727634 -1.39363)
(0.410962 0.586392 -1.5762)
(0.272216 0.367823 -2.1931)
(0.774321 0.889407 -2.82475)
(2.55995 0.0779667 -2.80196)
(2.73006 -0.0902669 -1.68056)
(-1.5301 4.20695 0.331089)
(-0.702339 5.78965 1.11599)
(-1.08983 5.51076 -0.0917799)
(-0.735146 4.65277 1.34372)
(-0.934952 4.09989 1.69002)
(-0.837455 4.30887 0.183279)
(0.284937 4.12371 2.31303)
(-0.63963 4.12381 1.46012)
(0.307895 3.18942 1.6881)
(-0.248747 3.99747 0.586561)
(1.12686 1.72784 0.98537)
(1.09122 1.58988 2.53786)
(0.603814 0.6348 3.30991)
(-0.787123 -1.41219 1.16609)
(0.116712 0.669286 0.103053)
(-0.653026 0.765728 -0.992807)
(-0.144966 0.2394 -1.0868)
(-0.21982 0.54498 -0.581679)
(-0.409156 1.27886 0.166829)
(-0.724559 0.645153 1.02671)
(2.26098 -1.06671 -0.288182)
(0.434231 0.716406 -1.61218)
(0.337439 0.699808 -1.36102)
(0.407382 0.588297 -1.47989)
(0.332953 0.362735 -2.14597)
(0.91839 0.823781 -2.88229)
(2.37589 0.0323741 -2.80438)
(2.57088 -0.102743 -1.62548)
(-2.17474 2.91473 -0.00280535)
(-1.43634 4.75132 0.741096)
(-0.897243 4.24789 0.193087)
(-0.196915 5.83734 1.08152)
(-0.125048 6.03988 0.513191)
(-0.509754 5.71769 -0.194209)
(-0.292089 4.87267 1.53143)
(-0.265031 4.60734 1.17798)
(-0.86449 4.13961 1.68867)
(-0.558956 4.32822 0.178252)
(1.03992 3.51359 1.84677)
(0.144249 3.90708 2.14378)
(-0.487602 3.91526 1.31846)
(0.103095 2.994 1.61816)
(-0.461427 4.15787 0.346689)
(1.50691 1.44297 -1.36959)
(1.40684 1.4211 0.629604)
(1.49852 1.35418 2.34963)
(0.999666 0.645973 3.27693)
(-0.990245 -1.17678 1.65152)
(-0.551296 0.686398 0.403635)
(0.226977 0.829707 -1.17737)
(-0.45355 0.843437 -0.987482)
(-0.016092 0.268498 -1.22425)
(-0.196565 0.55201 -0.768678)
(-0.445309 1.26777 0.257498)
(-0.729155 0.576076 1.21266)
(1.80994 -1.08164 -0.291917)
(0.539439 0.949681 -1.34623)
(0.441876 0.707811 -1.53983)
(0.390705 0.674269 -1.3337)
(0.40443 0.595395 -1.38508)
(0.394867 0.356308 -2.09331)
(1.0021 0.777005 -2.8644)
(2.17026 0.0097168 -2.76109)
(2.40465 -0.109536 -1.5743)
(-1.87674 2.69671 -0.0593938)
(-1.07615 3.80629 0.8545)
(-1.98153 3.11745 0.0508907)
(-0.858108 4.95545 0.428407)
(-0.899796 4.78198 0.919882)
(-0.454912 4.19054 0.187823)
(0.576841 5.83569 1.70319)
(0.198571 5.84369 1.15019)
(0.347004 6.02015 0.915892)
(-0.180882 5.78813 -0.181745)
(0.786282 4.62347 0.561426)
(0.0699498 4.86329 1.43767)
(-0.814878 4.80758 1.40362)
(-0.988312 4.34046 1.71029)
(0.902676 4.38045 0.0654375)
(1.42777 2.48395 1.586)
(0.869521 3.32027 1.43139)
(0.0889961 3.79579 1.80653)
(-0.656016 3.69386 1.35473)
(-0.327426 3.04359 1.68118)
(-0.670524 4.34138 -0.0519175)
(1.21177 1.14141 -1.77842)
(1.56651 1.35203 -1.01375)
(1.55067 1.18506 0.546814)
(1.69365 1.01771 2.4414)
(1.16435 0.399421 3.15726)
(-1.13227 -1.12758 2.42548)
(-1.29815 1.01908 0.66171)
(0.890964 0.926616 -0.971865)
(0.227494 0.876888 -1.08017)
(0.021873 0.845022 -1.12277)
(0.14863 0.267391 -1.4231)
(-0.175554 0.541844 -0.92719)
(-0.46962 1.19219 0.520821)
(-0.830564 0.544078 1.26862)
(1.32726 -1.04482 -0.244679)
(0.431302 0.869982 -1.556)
(0.546485 0.935815 -1.33541)
(0.459607 0.705283 -1.47232)
(0.434091 0.659391 -1.31455)
(0.399456 0.605169 -1.29247)
(0.465486 0.34166 -2.04542)
(1.15622 0.683299 -2.76432)
(1.96262 0.011559 -2.68573)
(2.23687 -0.106196 -1.52433)
(-1.26163 2.64618 -0.0263496)
(-1.07448 3.33969 0.136816)
(-1.3324 2.98467 -0.0403151)
(-1.14218 4.12706 0.515172)
(-0.762493 3.9499 0.962391)
(-1.60802 3.21111 0.135742)
(0.431258 4.98402 1.46629)
(-0.556273 4.75821 0.834068)
(-0.726214 4.81124 0.00607539)
(-0.308659 4.12904 0.189655)
(1.32282 5.71572 1.37046)
(0.854447 5.92144 1.62902)
(0.393599 5.92387 1.18283)
(1.19963 6.31721 0.884172)
(0.0637854 5.79827 -0.137872)
(2.25354 3.93804 0.390219)
(0.754306 4.52661 0.696314)
(0.00866719 4.88817 1.54195)
(-0.0423089 4.76809 1.44586)
(-0.224495 4.28851 2.39336)
(0.0691816 4.84096 -0.743462)
(1.74078 2.31964 1.07644)
(1.66258 2.44992 1.21291)
(0.740959 3.18401 1.17822)
(-0.146243 3.47415 1.83692)
(-0.599048 3.49425 1.33115)
(-0.35914 3.10633 1.8161)
(-0.656456 4.5105 0.159249)
(-0.266428 0.64483 -0.308321)
(1.67631 1.31093 -2.28398)
(1.42887 1.30053 -0.599242)
(1.64634 1.07403 0.623945)
(1.73238 0.845229 2.51618)
(0.974985 0.407247 3.30529)
(-1.1217 -0.9622 2.9855)
(-1.90255 1.37056 0.420924)
(1.50227 0.912891 -1.79801)
(0.708078 0.879769 -0.913574)
(0.558289 0.931878 -1.16569)
(0.498842 0.818472 -1.25418)
(0.235859 0.302558 -1.60474)
(-0.178759 0.520723 -0.976753)
(-0.400985 1.09532 0.753105)
(-0.832359 0.462686 1.21955)
(0.890948 -1.03619 -0.204579)
(0.120632 0.31487 -1.62681)
(0.449745 0.886487 -1.53957)
(0.638234 0.919934 -1.28101)
(0.473205 0.703134 -1.41046)
(0.464859 0.650932 -1.30045)
(0.396044 0.61675 -1.20288)
(0.549685 0.316756 -2.00573)
(1.28693 0.589156 -2.67383)
(1.77019 0.0260364 -2.57982)
(2.07042 -0.0934999 -1.48022)
(-1.81262 2.03445 -0.0428818)
(-0.965547 2.87497 0.100086)
(-1.28876 2.58111 0.0257359)
(-0.584592 3.56769 0.344392)
(-0.839885 3.38865 0.0862561)
(-1.30572 2.9536 -0.0171718)
(-1.00299 4.48805 0.875072)
(-1.2691 4.14331 0.410405)
(-0.550236 3.96839 1.01373)
(-1.14147 3.29075 0.190552)
(1.82364 4.79406 1.266)
(0.283783 4.97763 1.16581)
(-0.304577 4.75343 0.7847)
(0.0127708 4.8668 -0.0874346)
(-0.0780646 4.14282 0.164501)
(1.94446 5.25899 1.31971)
(1.87641 5.62597 1.32878)
(1.22786 6.16146 1.29151)
(0.846429 6.10415 1.03128)
(1.52263 6.47825 0.562551)
(0.273268 5.7714 -0.0808461)
(1.62132 3.44279 1.38021)
(1.84164 4.29534 0.388795)
(1.29807 4.47951 0.877792)
(0.293679 4.8681 1.4624)
(0.474073 4.70863 1.4204)
(0.697323 4.44587 2.97031)
(-0.327568 5.77597 -0.217584)
(1.67606 2.22951 0.708637)
(1.80296 2.2821 1.13958)
(1.6889 2.42891 0.886099)
(0.921309 2.95586 1.0661)
(-0.156482 3.23403 1.542)
(-0.646844 3.37307 1.286)
(-0.442385 3.12646 1.88118)
(-0.280949 4.38966 0.0331279)
(0.907426 0.755068 -0.961382)
(0.248136 0.931783 -0.0368587)
(1.71164 1.40161 -2.02999)
(1.33389 1.26473 -0.113143)
(1.73161 0.647028 0.865171)
(1.46002 0.358835 2.68928)
(0.561509 0.31132 3.41937)
(-0.644274 -0.683086 3.14342)
(-2.03197 1.54573 0.294256)
(1.38055 0.838091 -1.91778)
(1.47448 0.882369 -1.66246)
(0.580431 0.890193 -0.8843)
(0.739286 0.964161 -1.37934)
(0.607261 0.808153 -1.21493)
(0.288499 0.351727 -1.62872)
(-0.182406 0.454883 -0.909251)
(-0.409949 1.04639 0.814546)
(-0.801985 0.442496 1.18486)
(0.526365 -1.02803 -0.163941)
(0.545557 0.479222 -1.42963)
(0.194712 0.337654 -1.58262)
(0.505168 0.903437 -1.49471)
(0.625542 0.912049 -1.26695)
(0.492632 0.704938 -1.34553)
(0.544932 0.626974 -1.29156)
(0.395695 0.629145 -1.11436)
(0.64573 0.277655 -1.96759)
(1.37173 0.503671 -2.55868)
(1.59938 0.0492946 -2.44976)
(1.91314 -0.0720552 -1.4434)
(-1.11619 2.57071 0.350501)
(-1.7227 2.11385 -0.0645132)
(-0.851595 3.19272 0.174175)
(-0.760251 2.89053 0.127893)
(-1.10782 2.61386 0.101274)
(-0.679334 3.92728 0.135451)
(-0.218861 3.64622 0.266064)
(-0.303945 3.55771 -0.0180456)
(-1.03538 3.10876 -0.0307882)
(0.744009 4.6089 1.33488)
(0.00795388 4.48789 0.954077)
(-0.589081 4.28786 0.161717)
(0.175008 3.88442 0.961261)
(-0.614926 3.33992 0.310285)
(1.96705 5.04227 1.22007)
(1.37226 4.86542 1.3149)
(1.05916 4.9092 1.14717)
(0.283021 4.86254 0.792668)
(0.122265 4.96161 0.091606)
(0.285711 4.20468 0.0417384)
(1.9735 4.83338 1.37314)
(2.35803 5.0991 1.32865)
(2.23587 5.5828 1.22216)
(1.57101 6.05734 1.42437)
(1.50359 6.03036 1.03512)
(2.89827 6.06138 0.76806)
(0.820697 5.64778 0.0661059)
(2.25207 3.04428 1.14145)
(1.886 3.56107 1.14362)
(1.86281 4.28702 0.954203)
(1.90479 4.41947 0.816087)
(1.56729 4.70174 1.49733)
(1.47037 4.46959 2.12983)
(0.973535 5.10104 2.30647)
(-0.358211 6.36339 -0.039479)
(1.36199 1.73937 -0.593674)
(1.78098 2.41801 0.418046)
(1.87938 2.12771 1.10283)
(1.60722 2.45175 0.867428)
(0.981676 2.77 1.03564)
(-0.0800748 3.1283 1.36959)
(-0.664584 3.27779 0.92023)
(0.0226942 2.88424 1.83156)
(0.911637 3.90915 -0.0104967)
(0.974388 0.69013 -1.31984)
(0.616623 0.683257 -0.79206)
(1.14137 0.974065 -0.658413)
(1.63717 1.46384 -1.16075)
(1.24647 1.17827 0.322038)
(1.38626 0.645061 1.1289)
(1.04561 0.542888 2.51237)
(0.143408 0.377345 3.12539)
(-0.592446 -0.559806 3.10692)
(-1.34288 1.31572 0.63121)
(1.34229 0.75934 -1.37557)
(1.47001 0.901369 -1.74801)
(1.32006 0.863514 -1.58761)
(0.571266 0.940848 -0.893384)
(0.738116 1.01646 -1.40892)
(0.672188 0.836573 -0.879204)
(0.333812 0.391586 -1.46245)
(-0.2065 0.373686 -0.814309)
(-0.448858 0.811001 0.995245)
(-0.788518 0.401112 1.10497)
(0.249281 -1.0157 -0.159858)
(0.0737472 0.202743 -1.43711)
(0.621084 0.499739 -1.4153)
(0.295796 0.356822 -1.53048)
(0.529893 0.913498 -1.48534)
(0.651967 0.925556 -1.22952)
(0.509294 0.699778 -1.28817)
(0.53071 0.626955 -1.31221)
(0.405109 0.635464 -1.02566)
(0.751906 0.223201 -1.92314)
(1.39896 0.443239 -2.42208)
(1.4515 0.0771419 -2.3037)
(1.77171 -0.0470887 -1.41444)
(-1.17715 2.17432 -0.0278365)
(-0.583999 2.73712 0.111321)
(-0.946263 2.54848 0.402908)
(-1.43822 2.26293 -0.116131)
(-0.529823 3.22872 0.00741225)
(-0.913925 3.18062 0.247837)
(-0.626147 2.92271 0.0426102)
(-0.854224 2.67505 0.159636)
(0.473785 4.24937 0.496679)
(-0.530016 4.02701 0.127919)
(-0.329232 3.64311 0.321185)
(-0.373871 3.56627 0.0731861)
(-1.16425 3.08308 -0.135389)
(2.12594 4.34653 1.35691)
(0.89048 4.70194 1.28384)
(0.426592 4.29725 1.03882)
(-0.462156 4.22847 0.394418)
(0.692578 3.7148 0.780205)
(-0.426878 3.21204 0.319733)
(2.12566 4.857 1.29471)
(2.28369 4.85076 1.05342)
(1.53167 4.95375 1.20569)
(0.368252 5.01456 1.21713)
(0.561171 4.87723 0.761204)
(0.708057 5.03038 0.0684393)
(0.456671 4.38718 -0.0165702)
(2.3528 4.15049 1.37449)
(2.10802 4.93781 1.44054)
(2.99758 4.8879 1.05793)
(2.03572 5.72976 1.32682)
(2.19694 5.89142 1.41999)
(3.04194 5.62784 0.994449)
(4.06296 5.78443 0.299265)
(3.50847 4.91833 0.301184)
(2.26296 3.08461 0.808846)
(2.52822 2.93389 0.731539)
(2.31624 3.60231 0.711366)
(2.30631 4.03766 1.1742)
(2.44944 4.1473 0.963003)
(2.87512 4.23008 1.69896)
(2.1159 4.49574 2.11337)
(2.86875 4.65965 1.46121)
(1.36844 6.22279 0.0632834)
(0.383509 1.53456 -0.189366)
(1.76693 1.8544 0.317796)
(1.83307 2.47911 0.445689)
(1.67068 2.15368 0.77404)
(1.5839 2.50437 0.830339)
(1.03357 2.70246 0.893937)
(-0.0579892 3.14392 1.27636)
(-0.00984735 3.14799 0.459736)
(0.844042 2.75905 1.4181)
(1.62117 3.64135 -0.0799673)
(0.63536 0.598711 -0.832756)
(1.05332 0.583212 -1.0502)
(0.273164 0.753585 -0.455298)
(1.40063 1.10128 -1.14484)
(1.53869 1.40152 -0.799472)
(1.16042 1.09204 0.44567)
(1.0182 0.641551 1.47191)
(0.641033 0.367013 2.41399)
(-0.094837 0.349261 2.90747)
(-0.652764 -0.222694 2.68258)
(-0.371291 0.929163 0.906387)
(1.12419 0.52922 -1.58306)
(1.44456 0.774009 -1.1792)
(1.41738 0.942625 -1.67921)
(1.129 0.815272 -1.5115)
(0.583923 0.984171 -0.945726)
(0.687308 1.09172 -1.23693)
(0.646701 0.889286 -0.566007)
(0.307262 0.453496 -1.25135)
(-0.250631 0.292243 -0.704941)
(-0.388044 0.731541 0.802764)
(-0.800295 0.373927 0.972386)
(0.153446 -0.964164 -0.167173)
(0.522389 -0.0381116 -1.3743)
(0.187688 0.217231 -1.47345)
(0.685347 0.509044 -1.35537)
(0.336049 0.369624 -1.48707)
(0.550124 0.916656 -1.46843)
(0.670861 0.884745 -1.2337)
(0.524611 0.695669 -1.23593)
(0.554964 0.61428 -1.30584)
(0.420332 0.635757 -0.938931)
(0.862093 0.153551 -1.8665)
(1.35921 0.424617 -2.27158)
(1.31624 0.117827 -2.15284)
(1.65208 -0.0235191 -1.39175)
(-1.17132 1.97399 -0.0201265)
(-0.827312 2.54254 -0.189237)
(-0.989454 2.224 -0.0199283)
(-0.343553 2.85846 -0.0661252)
(-0.490029 2.74794 0.055809)
(-0.724695 2.60843 0.277094)
(-1.33556 2.3151 -0.0797017)
(-0.205732 3.54972 -0.158667)
(-0.451805 3.23862 0.0254532)
(-0.856932 3.21495 0.288485)
(-0.605814 2.93405 0.0365151)
(-0.853199 2.66044 0.119743)
(1.0099 4.25109 0.993579)
(0.541396 4.23898 0.537898)
(-0.301101 3.94257 0.207623)
(-0.0127117 3.62877 0.373468)
(-0.322376 3.51125 0.108221)
(-1.09881 3.08659 -0.108677)
(2.01283 4.36592 1.61106)
(1.82512 4.31519 1.34804)
(2.99034 3.74459 0.903297)
(0.840925 4.24382 1.0305)
(0.0321993 4.15203 0.500812)
(0.655086 3.66898 0.623418)
(-0.33312 3.10035 0.202162)
(1.70667 4.41908 1.81586)
(2.05565 4.86461 1.34439)
(2.13245 4.88612 1.28436)
(1.62339 4.89631 1.20269)
(0.727855 4.94094 1.22275)
(1.12414 4.66106 0.938918)
(1.18567 4.50791 0.60485)
(0.510073 4.46139 0.030104)
(2.17644 4.04245 1.60333)
(2.27325 4.04522 1.50766)
(2.71608 4.90118 0.968278)
(2.11268 5.40136 1.79103)
(2.31624 5.62731 1.47524)
(2.51566 5.77735 1.45038)
(2.74034 5.9535 0.725666)
(3.48129 6.3045 0.995024)
(5.17616 4.4304 0.441601)
(2.16015 3.58874 0.0908701)
(2.52335 2.97848 0.701546)
(2.45914 2.9146 0.867071)
(2.84574 3.38908 0.361372)
(2.87284 3.89342 0.699731)
(2.75372 3.87373 1.46755)
(3.1971 4.17334 1.5698)
(3.50109 3.97783 1.3223)
(5.73368 3.21189 0.150667)
(4.67877 4.93006 -0.148552)
(-0.302724 1.06566 0.59697)
(1.25204 1.61225 -0.61019)
(1.97143 1.90272 0.363967)
(1.94856 2.32548 0.366955)
(1.50973 2.24359 0.552634)
(1.48398 2.56481 0.751383)
(1.23251 2.61052 0.631645)
(0.363062 3.0488 1.0483)
(0.690221 2.92337 0.0151446)
(2.33142 2.17248 0.930064)
(3.74036 2.51821 -0.255596)
(0.23642 0.633757 -0.613785)
(0.664358 0.543265 -0.648436)
(0.705642 0.694664 -0.848274)
(0.0820785 0.877123 -0.138197)
(1.45299 1.26983 -1.23305)
(1.32436 1.38474 -0.673925)
(1.12667 1.12958 0.594728)
(0.91683 0.531989 1.31493)
(0.525977 0.280201 2.12012)
(-0.10463 0.263366 2.53326)
(-0.54896 0.177882 2.11046)
(0.269686 0.826104 0.89693)
(1.12049 0.47934 -1.4153)
(1.06276 0.506362 -1.53423)
(1.47034 0.759678 -1.05804)
(1.24804 0.992683 -1.65309)
(0.943843 0.797189 -1.40517)
(0.524702 1.04388 -0.954198)
(0.654932 1.11249 -1.11146)
(0.668228 0.900103 -0.378642)
(0.304376 0.510541 -1.04056)
(-0.297955 0.213664 -0.625467)
(-0.385763 0.594057 0.697746)
(-0.784314 0.316013 0.879216)
(0.044471 -0.915816 -0.1953)
(0.603888 -0.0980131 -1.30081)
(0.466062 -0.0210948 -1.33245)
(0.326166 0.21448 -1.50535)
(0.723693 0.522918 -1.28003)
(0.333359 0.389345 -1.44912)
(0.554232 0.915795 -1.44889)
(0.74293 0.888588 -1.18496)
(0.517584 0.695062 -1.19859)
(0.551481 0.605882 -1.29189)
(0.438338 0.633113 -0.856829)
(0.959739 0.0792753 -1.79457)
(1.28041 0.443873 -2.11317)
(1.18991 0.173128 -2.00298)
(1.55522 -0.00524662 -1.37572)
(-1.15371 1.81805 -0.0306887)
(-0.914149 2.26233 0.0690639)
(-1.10772 2.00794 0.0258738)
(-0.305866 2.61776 0.136271)
(-0.62873 2.53697 -0.0679608)
(-0.846337 2.28246 -0.0701694)
(-0.137445 2.9464 -0.0658346)
(-0.358784 2.7804 -0.117079)
(-0.486641 2.77601 0.0483039)
(-0.538926 2.67101 0.249672)
(-1.18937 2.41677 -0.116179)
(0.281673 3.53325 0.538079)
(0.384749 3.50764 0.102663)
(-0.194153 3.23526 0.19396)
(-0.639484 3.22176 0.285099)
(-0.383229 2.96331 0.0635241)
(-0.309783 2.76883 0.159826)
(1.21464 4.18112 1.5848)
(1.12302 4.02968 1.08658)
(0.882457 4.00696 0.629084)
(-0.242193 3.92146 0.309708)
(0.0784396 3.58442 0.388354)
(-0.168975 3.37177 0.205794)
(-0.775272 3.12835 -0.00940125)
(1.68103 4.31908 1.94662)
(2.03738 4.30489 1.41441)
(2.30277 4.17326 0.909657)
(1.06286 4.05555 1.31871)
(0.90074 4.19155 1.04246)
(0.520419 3.96524 0.334354)
(0.721557 3.71197 0.466091)
(-0.142285 3.04533 0.0493475)
(1.6426 4.41762 1.90978)
(2.17395 4.48216 1.46403)
(2.18261 4.90615 1.25692)
(2.0018 5.00491 1.34212)
(1.6851 5.04161 1.35761)
(2.02645 4.64138 0.953951)
(1.47062 4.48116 1.09869)
(1.72271 4.03618 0.951564)
(0.17392 4.2596 0.16383)
(1.39339 4.19147 1.99088)
(2.47261 3.90802 1.43473)
(2.47 4.02575 1.42696)
(2.92037 4.62533 1.18055)
(3.31172 4.6622 1.41534)
(2.98593 5.15701 1.85075)
(2.7567 5.49826 1.59093)
(2.80441 5.91005 0.945679)
(3.65857 5.84639 1.02996)
(4.80639 4.52284 0.306519)
(1.25284 3.27655 1.12293)
(2.42594 3.54805 0.203383)
(2.82765 2.9404 0.568257)
(2.40701 3.09747 0.880173)
(2.87928 3.48711 0.708887)
(2.8738 4.04622 0.81149)
(2.74611 3.91704 1.48275)
(3.20886 4.26099 0.960618)
(4.05887 3.76589 1.00431)
(5.91525 3.38761 0.438058)
(5.80953 3.94763 0.0652684)
(-0.162667 1.33072 0.205818)
(0.0133186 1.18246 0.701709)
(1.7442 1.67775 -0.770157)
(2.30022 2.00014 -0.0594469)
(1.86626 2.32342 0.248353)
(1.59409 2.17159 0.444469)
(1.56562 2.51868 0.681919)
(1.28503 2.53775 0.591183)
(0.984876 2.8001 0.638624)
(1.31329 2.67112 -0.145611)
(5.41635 0.307423 -0.230523)
(5.87345 0.779021 -0.204014)
(0.690025 0.762702 -0.723399)
(0.15751 0.544084 -0.485508)
(0.520074 0.484407 -0.487336)
(0.416321 0.783916 -0.587625)
(-0.0637852 1.08136 0.329678)
(1.42079 1.4434 -0.830597)
(1.20427 1.3949 -0.267865)
(0.863053 0.886991 1.11)
(0.745621 0.527116 1.30577)
(0.53721 0.109946 1.81464)
(0.0404135 0.132472 2.16127)
(0.247085 0.3984 1.66425)
(1.21285 0.725773 0.674786)
(0.915955 0.514619 -1.56981)
(1.03254 0.498912 -1.37701)
(1.05031 0.482372 -1.36974)
(1.48062 0.746932 -0.941853)
(1.1094 1.03997 -1.55428)
(0.775442 0.791439 -1.32642)
(0.469985 1.10513 -0.927125)
(0.666733 1.10231 -1.02107)
(0.744397 0.853575 -0.325158)
(0.326372 0.517148 -0.874939)
(-0.334956 0.156161 -0.561836)
(-0.370031 0.476244 0.643574)
(-0.70422 0.28766 0.829462)
(0.0260628 -0.856561 -0.261602)
(0.337592 -0.299591 -1.24447)
(0.550336 -0.0882588 -1.29063)
(0.486606 -0.00289836 -1.32072)
(0.483734 0.203169 -1.51855)
(0.651833 0.55145 -1.24012)
(0.302436 0.410903 -1.42213)
(0.523282 0.950879 -1.43557)
(0.496604 0.944202 -1.26988)
(0.540709 0.683602 -1.15893)
(0.537298 0.619207 -1.26067)
(0.464077 0.624842 -0.786135)
(1.02274 0.0200738 -1.70785)
(1.19103 0.486366 -1.94371)
(1.08372 0.233077 -1.85793)
(1.4827 0.000826115 -1.36475)
(-0.861155 2.12502 0.0807663)
(-1.07122 1.87719 -0.00660716)
(-1.1278 2.37063 0.0340743)
(-0.878653 2.27615 0.0640618)
(-0.927006 2.07424 0.0927424)
(-0.491961 2.5507 0.159409)
(-0.487319 2.57308 0.117318)
(-0.530859 2.55188 -0.0444317)
(-0.740076 2.31969 -0.0815344)
(-0.168162 2.91131 0.17364)
(0.000197151 2.89201 0.0747396)
(-0.179738 2.82048 -0.0397496)
(-0.461149 2.79714 0.0544775)
(-0.462418 2.68034 0.249183)
(-1.103 2.44932 -0.113794)
(1.04459 3.54768 0.823783)
(0.252106 3.48174 0.512454)
(0.342098 3.47403 0.0499299)
(-0.0795455 3.22828 0.22497)
(-0.43287 3.20032 0.317147)
(-0.107887 3.00243 0.0400628)
(-0.0545667 2.74027 0.191083)
(1.39715 4.01204 1.67858)
(1.62874 3.96149 1.30489)
(1.55204 3.82116 1.17446)
(1.15013 3.80187 0.779857)
(-0.019925 3.92738 0.292888)
(0.237849 3.55087 0.336694)
(0.0854925 3.28991 0.28224)
(-0.461173 3.15376 -0.0380704)
(1.47383 4.22985 2.01591)
(2.09015 4.2357 1.64362)
(1.96308 4.36229 1.31161)
(2.14603 4.15963 0.930553)
(2.00415 4.05066 0.850946)
(1.14096 4.03101 0.900707)
(0.898874 3.76532 0.459008)
(-0.30764 3.64971 0.429384)
(-0.110219 2.98821 -0.125353)
(1.46462 4.63831 2.08725)
(1.90118 4.36704 1.74578)
(2.36854 4.5421 1.31486)
(2.4186 4.89632 1.21568)
(2.206 4.73165 1.49108)
(1.92655 4.85185 1.29172)
(1.51018 4.60044 1.08391)
(1.71784 4.40381 1.09021)
(2.33463 3.86969 1.26272)
(0.0956684 3.98782 0.196179)
(1.20342 4.26663 2.0033)
(2.42367 4.05237 1.71854)
(2.60827 3.80042 1.43293)
(2.76252 4.02095 1.30479)
(3.30053 4.26364 1.1937)
(2.85074 4.85766 1.59101)
(2.84635 5.00954 1.79319)
(2.91438 5.44212 1.74881)
(3.31459 5.44645 1.23342)
(4.30441 4.72779 1.13783)
(4.34737 4.43866 0.310157)
(0.7997 2.93548 1.49075)
(2.44393 3.47874 0.019707)
(2.33311 3.47748 1.4487)
(2.63436 3.0212 1.05848)
(2.4545 3.27553 1.01364)
(2.49901 3.97657 1.32819)
(2.48628 4.26434 1.65574)
(2.78274 3.97622 1.25309)
(3.46867 4.07397 0.315519)
(4.35532 3.74726 0.802924)
(5.87766 3.08055 0.545144)
(6.11641 3.42063 0.143429)
(0.139667 1.60761 -0.450526)
(0.0942841 1.24632 -0.0108067)
(0.587018 1.4415 0.420317)
(2.25386 1.76735 -0.712294)
(2.4727 2.11226 0.116055)
(1.66752 2.45331 0.285054)
(1.61295 2.16569 0.571553)
(1.83887 2.4284 0.536861)
(1.58309 2.4095 0.410781)
(1.51814 2.5365 0.238261)
(2.25147 2.16592 -0.12317)
(6.10207 -0.177746 -0.416369)
(6.52215 0.147219 -0.204334)
(1.52655 1.33261 -0.0355619)
(0.589553 0.629313 -0.754201)
(0.0591357 0.485801 -0.304823)
(0.345087 0.570852 -0.244811)
(0.167198 0.932679 -0.303969)
(0.384654 1.17062 -0.116374)
(1.39902 1.4863 -0.453044)
(1.08073 1.36346 -0.0538192)
(0.980019 0.886028 0.448628)
(0.645003 0.385454 1.15032)
(0.567398 -0.0223652 1.53896)
(0.344494 -0.0273027 1.98214)
(1.17089 0.21245 1.20617)
(2.52436 0.00709224 0.0910682)
(0.631543 0.574717 -1.0214)
(0.831013 0.587859 -1.36978)
(0.944783 0.514284 -1.27507)
(1.11522 0.424521 -1.25948)
(1.42944 0.768658 -0.837979)
(0.959226 1.0771 -1.4426)
(0.618558 0.835285 -1.28117)
(0.445338 1.14373 -0.882164)
(0.666153 1.08298 -0.943996)
(0.968749 0.745929 -0.312991)
(0.385036 0.510648 -0.661682)
(-0.377239 0.114212 -0.497617)
(-0.345482 0.392751 0.613145)
(-0.573219 0.309808 0.802119)
(0.12161 -0.777436 -0.321014)
(0.293254 -0.503758 -1.53831)
(0.377007 -0.299969 -1.20402)
(0.500282 -0.0770904 -1.28948)
(0.619508 -0.0211163 -1.32542)
(0.625725 0.173699 -1.51125)
(0.604595 0.580961 -1.17373)
(0.265169 0.434752 -1.39971)
(0.43221 1.00703 -1.41578)
(0.698266 0.862483 -1.1934)
(0.554526 0.669901 -1.13202)
(0.529291 0.624728 -1.23425)
(0.502156 0.605404 -0.735839)
(1.03768 -0.00505317 -1.61081)
(1.10536 0.543742 -1.76154)
(1.00489 0.285219 -1.72507)
(1.43651 -0.0154676 -1.35327)
(-0.869477 1.81561 -0.00479986)
(-0.52304 2.37924 -0.0452206)
(-0.641962 2.19052 0.0595497)
(-0.923032 1.94598 0.0350476)
(-0.476172 2.44999 0.144953)
(-0.604396 2.46505 0.0905325)
(-0.618097 2.38395 -0.0352453)
(-0.792715 2.13757 0.0812696)
(-0.168077 2.58572 0.250537)
(-0.20768 2.54757 0.120316)
(-0.32483 2.60459 0.0822992)
(-0.496171 2.54625 -0.0300259)
(-0.508296 2.35821 -0.0976265)
(0.527579 3.03558 0.401954)
(0.0293435 2.8855 0.235088)
(0.0153629 2.87388 -0.0101577)
(-0.105006 2.86969 0.00581383)
(-0.338421 2.83065 0.0624233)
(-0.276532 2.68916 0.270254)
(-1.00078 2.48476 -0.117368)
(0.678779 3.62828 1.10873)
(0.925607 3.4629 0.837688)
(0.4663 3.47233 0.543656)
(0.437216 3.46002 0.129909)
(0.0953298 3.23824 0.235685)
(-0.218409 3.2465 0.312184)
(0.039974 3.04166 -0.00654596)
(0.276667 2.69011 0.082182)
(1.40161 4.01436 1.74419)
(1.63662 3.83854 1.45778)
(1.75979 3.82489 1.09416)
(2.01213 3.58922 0.739486)
(1.69048 3.564 0.952402)
(0.382501 3.75239 0.623996)
(0.447365 3.39527 0.232798)
(0.531729 3.23825 0.245848)
(-0.16446 3.15131 -0.07134)
(1.24952 4.41373 2.11058)
(1.91138 4.25777 1.7445)
(2.53648 4.08374 1.08061)
(2.54462 4.19239 0.726621)
(2.03319 4.12717 1.0448)
(1.67694 4.15923 0.905503)
(1.13942 4.04572 0.875039)
(1.06946 3.67921 0.666623)
(1.26043 3.30468 0.268773)
(-0.010366 2.92698 -0.0943184)
(1.29783 4.70501 2.197)
(1.83364 4.4852 1.90286)
(2.16181 4.32275 1.70668)
(2.52512 4.48911 1.29899)
(2.60714 4.43113 1.24952)
(2.585 4.56993 1.09171)
(1.97586 4.42259 1.27978)
(2.14876 4.09484 1.23962)
(2.10953 3.94017 1.11684)
(0.899668 4.4112 0.934477)
(-0.0384717 3.85809 0.0955663)
(1.04873 3.89236 2.56998)
(2.16457 4.1801 1.6621)
(2.46608 4.03543 1.91563)
(2.61295 3.85527 1.7157)
(3.24153 3.94735 1.02728)
(3.40846 4.21836 1.36621)
(3.12923 4.77202 1.70136)
(3.03833 4.87339 1.77372)
(2.88876 5.50388 1.82019)
(3.56453 5.25959 1.39223)
(4.87003 3.80415 1.31967)
(4.01929 4.04453 0.339238)
(0.594244 3.37617 1.48217)
(1.17428 3.22684 1.01895)
(1.95724 3.70192 0.687428)
(2.47 3.38679 1.22942)
(2.67225 2.9441 1.15481)
(2.61589 3.29056 1.73733)
(2.61717 4.04749 1.26899)
(2.88146 4.11265 1.23915)
(3.28967 3.79532 0.762947)
(3.64023 3.87079 0.216054)
(5.09391 2.99372 1.04192)
(6.23568 2.15077 -0.127392)
(5.98607 2.40484 0.173072)
(-0.520567 1.69829 -0.204639)
(0.852434 1.50115 -0.69931)
(0.231078 1.24725 -0.0543395)
(1.8747 1.40691 -0.513889)
(2.93668 1.58381 -1.09363)
(2.35384 2.11422 -0.191309)
(1.61791 2.35366 0.673543)
(1.82627 2.03104 0.801183)
(2.15883 2.28442 0.318601)
(1.96177 2.13268 0.0379147)
(1.89614 2.30104 -0.132132)
(3.72724 1.17283 -0.14904)
(5.97238 0.0571512 -0.305835)
(6.42575 0.288431 -0.206575)
(1.502 1.58775 -0.621158)
(1.0806 1.34046 -0.520983)
(0.378437 0.67149 -0.515944)
(-0.0178265 0.462764 -0.142699)
(0.2079 0.700258 0.0635269)
(-0.172433 1.29206 0.241683)
(1.02057 1.11169 -1.21899)
(1.35381 1.39374 -0.278135)
(1.00419 1.41856 -0.00525271)
(0.998879 0.871704 0.442048)
(0.847999 0.29455 0.673427)
(0.618825 -0.184849 1.27525)
(0.748851 -0.0655173 1.76757)
(2.54563 -0.465297 0.162424)
(3.41442 -0.867081 -0.451837)
(0.535291 0.172542 -1.1979)
(0.690242 0.65111 -0.91938)
(0.877794 0.632176 -1.12233)
(0.962039 0.487291 -1.22215)
(1.15908 0.354451 -1.2116)
(1.32015 0.762032 -0.782462)
(0.817813 1.08151 -1.36611)
(0.47582 0.917935 -1.29728)
(0.445787 1.16029 -0.823026)
(0.642508 1.05505 -0.894051)
(0.959544 0.740784 -0.549962)
(0.423871 0.523295 -0.432216)
(-0.407912 0.0868712 -0.454534)
(-0.314568 0.333179 0.594723)
(-0.42604 0.380866 0.817048)
(0.24186 -0.707217 -0.395964)
(0.675845 -0.281118 -1.8246)
(0.321165 -0.509182 -1.52418)
(0.401166 -0.308741 -1.19128)
(0.465611 -0.0578494 -1.30086)
(0.773118 -0.0563748 -1.31656)
(0.709709 0.153654 -1.48095)
(0.610461 0.586471 -1.08728)
(0.227403 0.458902 -1.37753)
(0.453012 0.942607 -1.41663)
(0.663212 0.832921 -1.2131)
(0.580423 0.648152 -1.10908)
(0.554647 0.60195 -1.2129)
(0.533602 0.581136 -0.70655)
(1.00182 0.0207942 -1.51876)
(1.03012 0.611624 -1.56912)
(0.949058 0.318401 -1.61397)
(1.4065 -0.0589403 -1.33545)
(-0.963241 1.59441 0.0747238)
(-0.568156 2.10998 -0.0528098)
(-0.752818 1.88055 0.00461876)
(-0.944226 2.26025 -0.0803531)
(-0.633232 2.34111 -0.0426699)
(-0.471382 2.24927 0.0808688)
(-0.680774 2.02914 0.0651018)
(-0.405699 2.43623 0.357797)
(-0.387273 2.38953 0.198291)
(-0.609659 2.44607 0.0740415)
(-0.629241 2.39826 -0.0265991)
(-0.714346 2.16187 0.0816967)
(-0.205209 2.69806 0.369516)
(-0.197179 2.5613 0.253331)
(-0.104082 2.5561 0.190391)
(-0.190409 2.64012 0.152446)
(-0.100411 2.59291 -0.0130929)
(-0.323597 2.39315 -0.115202)
(-0.0423214 3.10285 0.749488)
(0.606743 2.97006 0.324997)
(0.0861621 2.91307 0.250596)
(0.188068 2.90246 0.00142222)
(-0.184621 2.82583 0.121105)
(-0.207309 2.89311 0.0440887)
(-0.0814991 2.73362 0.193165)
(-1.12764 2.47472 -0.0918697)
(0.841113 3.57079 1.43971)
(1.31182 3.36864 0.992859)
(1.59538 3.16293 1.03334)
(1.23751 3.12682 0.585957)
(0.73306 3.18251 0.447123)
(0.217115 3.24761 0.226849)
(-0.215054 3.17039 0.373963)
(0.278847 2.94065 0.0799388)
(0.217623 2.61753 0.0166153)
(1.31543 4.00968 1.93492)
(1.68275 3.76028 1.59307)
(1.6901 3.7239 1.35085)
(1.29752 3.84244 1.16204)
(1.37478 3.57613 0.930829)
(1.75141 3.31242 0.926916)
(0.973202 3.44878 0.857909)
(0.636459 3.22398 0.169531)
(1.20725 3.05031 -0.0116954)
(0.0549281 3.13973 -0.0632197)
(0.877001 4.3702 2.23105)
(1.425 4.39219 2.02475)
(2.01878 4.27641 1.63794)
(1.79383 4.35029 1.40981)
(1.9017 4.18905 1.18563)
(2.20946 3.90258 0.958984)
(1.56 4.03966 0.80075)
(1.37553 3.90248 0.866639)
(1.08199 3.63766 0.434168)
(1.01257 3.29684 0.070503)
(0.177084 2.91087 -0.0951027)
(1.13169 4.61127 2.56435)
(1.54985 4.62908 2.16688)
(1.95172 4.43376 1.90613)
(2.46601 4.34595 1.64681)
(2.76624 4.18368 1.32672)
(3.01571 4.12075 0.917066)
(3.31889 3.96164 0.64094)
(2.7465 4.0609 0.84905)
(2.36899 3.74322 1.24443)
(2.31339 3.67524 1.30865)
(2.07347 3.67283 1.14795)
(-0.150913 3.67434 0.10413)
(0.509639 4.10576 2.62168)
(1.32681 4.20911 1.99525)
(2.35529 3.90223 2.29796)
(2.22035 4.13143 2.09941)
(2.58578 3.86878 2.00745)
(2.97092 4.30995 1.55562)
(3.39685 4.26309 1.42379)
(3.27932 4.56777 1.59418)
(3.52964 4.81527 1.97886)
(3.26839 5.25905 1.66487)
(3.80339 4.82239 1.60106)
(4.54089 3.41813 1.25844)
(3.62791 3.74087 0.404791)
(0.860219 3.22903 1.67015)
(1.09929 3.35999 1.30131)
(1.89533 3.45376 0.311022)
(2.20024 3.47871 1.27328)
(2.60067 3.3798 0.86837)
(2.40986 3.05662 1.67957)
(2.76773 3.50701 1.72251)
(3.00144 4.01831 1.29868)
(3.1731 4.01655 1.22494)
(3.27906 4.00962 0.588891)
(3.91664 3.57965 0.187341)
(5.46901 2.42367 0.998231)
(6.36056 1.74228 0.425002)
(6.03677 1.74715 0.0193194)
(0.507534 1.70026 -0.360872)
(-0.260787 1.68523 -0.445879)
(0.800273 1.50283 -0.471183)
(1.11339 1.22536 -0.203647)
(2.69743 1.24289 -0.842962)
(3.1851 1.58292 -1.87622)
(2.11705 1.93796 -0.436253)