/*--------------------------------*- C++ -*----------------------------------*\
  =========                 |
  \\      /  F ield         | OpenFOAM: The Open Source CFD Toolbox
   \\    /   O peration     | Website:  https://openfoam.org
    \\  /    A nd           | Version:  7
     \\/     M anipulation  |
\*---------------------------------------------------------------------------*/
FoamFile
{
    version     2.0;
    format      ascii;
    class       volVectorField;
    location    "3.5";
    object      U_0;
}
// * * * * * * * * * * * * * * * * * * * * * * * * * * * * * * * * * * * * * //

dimensions      [0 1 -1 0 0 0 0];

internalField   nonuniform List<vector> 
18750
(
(3.39288 0.100682 -1.15492)
(3.32982 -0.488755 -0.860567)
(2.91439 0.317934 -2.59923)
(3.32892 0.0499445 -1.36823)
(1.13839 1.31129 -0.280294)
(1.57437 0.811999 0.177172)
(3.47297 -0.714811 -0.765355)
(0.296738 0.986039 -2.39961)
(2.91842 0.261616 -2.62305)
(3.17295 -0.00232195 -1.59105)
(1.88883 3.57934 0.481645)
(0.398932 3.3169 0.131472)
(1.04084 1.09963 -0.632594)
(0.222615 1.29739 -0.268146)
(0.636307 0.818205 0.375845)
(3.43571 -0.878104 -0.689864)
(0.155009 0.352099 -2.22742)
(0.482815 0.951872 -2.58474)
(2.81371 0.202045 -2.65582)
(3.02667 -0.0359602 -1.69973)
(-0.707951 4.34432 0.186403)
(2.1214 3.32215 2.14102)
(1.11502 3.69237 0.850348)
(-0.502379 0.666473 3.59015)
(-0.107765 0.0277548 0.124607)
(0.803331 0.985204 -0.137575)
(-0.187532 0.494035 -0.376417)
(0.0499434 1.25512 -0.28656)
(0.189433 0.716579 0.567683)
(3.1454 -1.00773 -0.510399)
(0.428346 0.57697 -1.69183)
(0.206102 0.355162 -2.24149)
(0.610247 0.934553 -2.70717)
(2.70167 0.138552 -2.71754)
(2.88626 -0.0650556 -1.71056)
(-0.942013 5.4361 -0.131541)
(-1.86107 4.46353 1.49298)
(-0.837769 4.26283 0.126648)
(0.463733 4.0186 2.32413)
(1.62614 3.15635 1.88148)
(0.917453 3.67361 0.867645)
(0.991704 1.96733 3.02789)
(0.0792674 0.818834 3.7235)
(-0.719184 -3.0888 0.646931)
(0.471088 0.747559 -0.159538)
(-0.199802 0.202795 -1.02898)
(-0.214782 0.513584 -0.418208)
(-0.0986217 1.24284 -0.124061)
(-0.132272 0.708394 0.71659)
(2.7217 -1.06021 -0.350462)
(0.261374 0.727439 -1.39906)
(0.413108 0.576376 -1.59802)
(0.265115 0.355991 -2.21052)
(0.743427 0.892871 -2.79607)
(2.56199 0.0744588 -2.76483)
(2.74663 -0.0899936 -1.66143)
(-1.54461 4.21826 0.340793)
(-0.722321 5.74416 1.14047)
(-1.08979 5.50052 -0.0910484)
(-0.689248 4.66995 1.39432)
(-0.940596 4.12136 1.67884)
(-0.833528 4.27296 0.185899)
(0.317234 4.16294 2.28626)
(-0.541906 4.14581 1.53955)
(0.384786 3.22873 1.69585)
(-0.12921 3.99351 0.616519)
(1.09261 1.75127 1.03783)
(1.08884 1.61158 2.57101)
(0.604985 0.65917 3.32227)
(-0.771444 -1.38011 1.17808)
(0.126825 0.702852 0.087125)
(-0.655958 0.756665 -0.994332)
(-0.13843 0.231805 -1.07733)
(-0.221298 0.537233 -0.561506)
(-0.416395 1.27671 0.166879)
(-0.748102 0.658745 1.03614)
(2.24883 -1.05514 -0.274906)
(0.434292 0.714518 -1.62974)
(0.328097 0.70008 -1.36468)
(0.408773 0.57864 -1.50199)
(0.325855 0.350833 -2.16391)
(0.883956 0.828805 -2.867)
(2.38369 0.0257579 -2.78103)
(2.59169 -0.103923 -1.61082)
(-2.16774 2.91092 -0.00138961)
(-1.44966 4.74985 0.698975)
(-0.91787 4.25222 0.200764)
(-0.172338 5.82411 1.0963)
(-0.126627 6.02234 0.537439)
(-0.526967 5.70365 -0.191499)
(-0.282359 4.89114 1.54854)
(-0.152694 4.59381 1.15681)
(-0.799293 4.12563 1.68362)
(-0.549456 4.2949 0.190517)
(1.0907 3.5364 1.90044)
(0.188422 3.93672 2.17958)
(-0.44652 3.95536 1.3168)
(0.150856 3.0406 1.60891)
(-0.398726 4.16487 0.390737)
(1.49746 1.44923 -1.38518)
(1.39457 1.4454 0.65591)
(1.50616 1.36996 2.34818)
(1.01291 0.670506 3.30282)
(-0.973847 -1.15094 1.6816)
(-0.487187 0.712241 0.388887)
(0.226875 0.818903 -1.18713)
(-0.457987 0.838782 -0.982752)
(-0.0132826 0.261344 -1.21085)
(-0.198964 0.545304 -0.745635)
(-0.460686 1.27124 0.251815)
(-0.7626 0.592788 1.22461)
(1.79813 -1.06763 -0.285634)
(0.530524 0.94757 -1.35331)
(0.440858 0.704576 -1.55631)
(0.38274 0.673543 -1.33604)
(0.406195 0.585761 -1.40723)
(0.386093 0.344384 -2.1118)
(0.979063 0.775624 -2.87194)
(2.17959 0.000384163 -2.75251)
(2.42789 -0.11253 -1.5647)
(-1.8886 2.68767 -0.0582043)
(-1.09248 3.79325 0.852414)
(-1.98049 3.12045 0.0522273)
(-0.850831 4.96241 0.435879)
(-0.919603 4.77068 0.957499)
(-0.447954 4.20159 0.184123)
(0.607714 5.81642 1.68645)
(0.182985 5.82427 1.14022)
(0.245496 5.99281 0.863623)
(-0.175492 5.77152 -0.193812)
(0.851732 4.64613 0.546583)
(0.116869 4.86841 1.42506)
(-0.79376 4.80444 1.38393)
(-0.965912 4.32819 1.68712)
(0.756495 4.33893 0.137876)
(1.44036 2.48653 1.60289)
(0.921943 3.34786 1.48223)
(0.133448 3.83259 1.82447)
(-0.630553 3.73843 1.34293)
(-0.291117 3.08435 1.66182)
(-0.616681 4.34556 -0.0601737)
(1.19632 1.13031 -1.71865)
(1.58226 1.35865 -1.01621)
(1.5474 1.20248 0.551227)
(1.6962 1.05068 2.42521)
(1.20451 0.407595 3.17637)
(-1.1037 -1.09594 2.46588)
(-1.24934 1.04537 0.688655)
(0.902822 0.922462 -0.970467)
(0.21565 0.869486 -1.07424)
(-0.0379733 0.843369 -1.10225)
(0.152041 0.261168 -1.40773)
(-0.178303 0.536521 -0.905905)
(-0.480046 1.1997 0.509535)
(-0.865322 0.563454 1.28168)
(1.3117 -1.02679 -0.239081)
(0.436116 0.86949 -1.55117)
(0.537869 0.935764 -1.34316)
(0.459218 0.702485 -1.48643)
(0.425621 0.65821 -1.3144)
(0.401942 0.596076 -1.3148)
(0.453333 0.330437 -2.06289)
(1.11923 0.688386 -2.79579)
(1.97069 0.000736527 -2.69135)
(2.2612 -0.111175 -1.51851)
(-1.25029 2.65039 -0.0277244)
(-1.08237 3.33282 0.143673)
(-1.34949 2.97577 -0.0411822)
(-1.14503 4.12195 0.503651)
(-0.778481 3.9458 0.956279)
(-1.62058 3.21408 0.136928)
(0.4946 4.9805 1.47366)
(-0.549166 4.76697 0.812166)
(-0.775484 4.80173 0.0470679)
(-0.300615 4.13426 0.186609)
(1.33715 5.69781 1.34264)
(0.840874 5.88571 1.67016)
(0.382854 5.89073 1.19062)
(1.15716 6.25733 0.921993)
(0.100281 5.8007 -0.149415)
(2.29437 3.91725 0.41483)
(0.774041 4.5366 0.673112)
(0.0274924 4.89289 1.54398)
(-0.117985 4.77582 1.4527)
(-0.350976 4.30338 2.23455)
(0.221423 4.69903 -0.686127)
(1.74168 2.33744 1.08447)
(1.66623 2.45857 1.27011)
(0.760064 3.21605 1.20875)
(-0.0951279 3.52173 1.86748)
(-0.577679 3.5302 1.33049)
(-0.32984 3.12651 1.8027)
(-0.622173 4.55633 0.147484)
(-0.264862 0.636496 -0.309174)
(1.68896 1.3005 -2.28007)
(1.44866 1.30416 -0.615912)
(1.64518 1.09416 0.614465)
(1.7505 0.860961 2.51538)
(1.02251 0.421057 3.3091)
(-1.0611 -0.904898 3.01546)
(-1.87123 1.41194 0.456222)
(1.49971 0.907504 -1.80914)
(0.717138 0.873925 -0.909188)
(0.537255 0.924109 -1.14728)
(0.488681 0.814022 -1.24968)
(0.238467 0.290227 -1.59485)
(-0.182401 0.517938 -0.964208)
(-0.420055 1.11102 0.733375)
(-0.863539 0.4797 1.23092)
(0.860996 -1.00885 -0.190752)
(0.118771 0.312736 -1.63121)
(0.44866 0.886826 -1.54313)
(0.629345 0.919751 -1.29125)
(0.473182 0.699445 -1.42584)
(0.455801 0.649936 -1.29796)
(0.397668 0.608024 -1.22508)
(0.534678 0.306953 -2.02226)
(1.25569 0.589738 -2.7091)
(1.77634 0.0145407 -2.59848)
(2.09439 -0.100819 -1.47675)
(-1.80845 2.03654 -0.0405638)
(-0.967967 2.87575 0.094508)
(-1.28082 2.5855 0.0224718)
(-0.591563 3.56345 0.342219)
(-0.848006 3.3831 0.0924502)
(-1.31096 2.94941 -0.0158973)
(-0.927275 4.49725 0.867357)
(-1.26317 4.14359 0.41191)
(-0.571188 3.97398 1.00964)
(-1.15082 3.29439 0.190212)
(1.86683 4.7939 1.26141)
(0.282823 4.97755 1.17498)
(-0.310306 4.74449 0.782131)
(0.0302244 4.86235 -0.102302)
(-0.0656102 4.13893 0.161185)
(1.95749 5.24881 1.30554)
(1.86737 5.60998 1.33473)
(1.23053 6.13782 1.29924)
(0.827783 6.07897 1.0422)
(1.5146 6.44951 0.580139)
(0.21801 5.7814 -0.111072)
(1.61555 3.42418 1.44875)
(1.91476 4.27652 0.345048)
(1.24272 4.49174 0.860791)
(0.323171 4.8686 1.46213)
(0.465606 4.71288 1.38181)
(0.672448 4.37172 2.97031)
(-0.193383 5.64341 -0.298163)
(1.68554 2.22663 0.740137)
(1.81482 2.29196 1.17109)
(1.71656 2.43671 0.920775)
(0.932106 2.98671 1.07836)
(-0.14098 3.26353 1.58381)
(-0.621535 3.40564 1.30612)
(-0.448762 3.15491 1.89139)
(-0.391414 4.50224 0.0468149)
(0.918923 0.750901 -0.961637)
(0.203345 0.916445 -0.0260684)
(1.73334 1.39153 -2.07578)
(1.35041 1.27011 -0.136735)
(1.74825 0.666437 0.833749)
(1.49998 0.36534 2.68597)
(0.569017 0.314695 3.42603)
(-0.64339 -0.645401 3.14636)
(-2.02399 1.59584 0.328602)
(1.37802 0.829943 -1.92953)
(1.48447 0.875323 -1.66678)
(0.584673 0.883194 -0.877139)
(0.745251 0.953808 -1.36677)
(0.617059 0.800654 -1.22589)
(0.292596 0.342121 -1.62918)
(-0.185857 0.455304 -0.904694)
(-0.431226 1.05618 0.816752)
(-0.82252 0.450865 1.18995)
(0.489051 -0.997903 -0.149689)
(0.539396 0.476708 -1.43086)
(0.191728 0.336572 -1.58677)
(0.503484 0.903158 -1.49499)
(0.628488 0.906862 -1.27342)
(0.492116 0.701422 -1.36174)
(0.538923 0.62589 -1.28844)
(0.396139 0.621551 -1.13651)
(0.627276 0.269921 -1.98474)
(1.35448 0.497428 -2.60068)
(1.6048 0.0360744 -2.47925)
(1.93526 -0.0811048 -1.4414)
(-1.11972 2.57065 0.345693)
(-1.72316 2.11355 -0.0625948)
(-0.841551 3.19531 0.168827)
(-0.758378 2.89216 0.124273)
(-1.10736 2.61573 0.0988619)
(-0.673838 3.91945 0.136689)
(-0.208632 3.64158 0.261109)
(-0.300536 3.55415 -0.0173564)
(-1.03063 3.10596 -0.0253485)
(0.737192 4.61561 1.34517)
(-0.0489905 4.49861 0.938453)
(-0.625687 4.28174 0.165436)
(0.130287 3.89494 0.965792)
(-0.625391 3.34479 0.307857)
(1.97859 5.03148 1.22567)
(1.40426 4.86013 1.31618)
(1.13189 4.89046 1.12887)
(0.261144 4.84398 0.789119)
(0.0824875 4.94168 0.0756689)
(0.278379 4.19031 0.0455176)
(2.0035 4.81477 1.35452)
(2.34456 5.09475 1.33773)
(2.27992 5.55228 1.22461)
(1.54883 6.04492 1.41208)
(1.34729 6.04792 1.04109)
(2.61798 6.13144 0.788716)
(0.797709 5.64394 0.0551438)
(2.27216 3.04853 1.16236)
(1.87429 3.55412 1.1935)
(1.88814 4.29293 0.901893)
(1.88773 4.42898 0.819425)
(1.30984 4.75564 1.47552)
(1.37744 4.48103 2.04245)
(0.78586 5.05918 2.45964)
(-0.602473 6.33717 -0.0985184)
(1.33388 1.73051 -0.672161)
(1.80335 2.40708 0.434076)
(1.90326 2.13056 1.12676)
(1.63326 2.4578 0.884331)
(1.0016 2.78931 1.05453)
(-0.0605747 3.14002 1.38098)
(-0.680684 3.31461 1.00047)
(-0.0516484 2.93249 1.88298)
(0.765145 4.01602 0.000605555)
(0.955722 0.692447 -1.3247)
(0.633828 0.675663 -0.798874)
(1.12559 0.966417 -0.621563)
(1.65772 1.46435 -1.20232)
(1.26578 1.18954 0.305944)
(1.39817 0.649997 1.10881)
(1.07335 0.553637 2.51439)
(0.153917 0.399397 3.11928)
(-0.602394 -0.511656 3.10391)
(-1.36964 1.37899 0.651172)
(1.33795 0.754708 -1.38713)
(1.4711 0.890998 -1.76272)
(1.33716 0.857439 -1.58973)
(0.576869 0.931154 -0.885163)
(0.754208 1.00451 -1.41802)
(0.682426 0.823942 -0.910515)
(0.337966 0.378861 -1.47433)
(-0.209891 0.374951 -0.812456)
(-0.465336 0.829947 0.993692)
(-0.812658 0.407506 1.11187)
(0.213397 -0.990107 -0.148358)
(0.0658912 0.203525 -1.43697)
(0.620081 0.497287 -1.42034)
(0.292968 0.35556 -1.53585)
(0.534308 0.914563 -1.48356)
(0.651633 0.926778 -1.2327)
(0.509175 0.696593 -1.30346)
(0.527605 0.62514 -1.30634)
(0.403831 0.629291 -1.04749)
(0.730129 0.21796 -1.94209)
(1.39872 0.426833 -2.47129)
(1.46015 0.0598337 -2.34065)
(1.79049 -0.0565066 -1.41338)
(-1.18306 2.17128 -0.0287317)
(-0.583259 2.73755 0.111649)
(-0.946602 2.54846 0.403943)
(-1.44087 2.26167 -0.115878)
(-0.517738 3.23014 0.00415209)
(-0.904089 3.18271 0.24244)
(-0.622535 2.92441 0.0417348)
(-0.849614 2.67691 0.159522)
(0.478433 4.24682 0.498783)
(-0.523328 4.02587 0.123427)
(-0.321456 3.64149 0.314782)
(-0.359771 3.56852 0.0760406)
(-1.14953 3.088 -0.130806)
(2.13164 4.35101 1.38118)
(0.900775 4.70145 1.28377)
(0.435802 4.29617 1.03221)
(-0.466416 4.23276 0.376051)
(0.684567 3.7235 0.792841)
(-0.41218 3.22363 0.332337)
(2.1376 4.82864 1.31518)
(2.31652 4.84218 1.02928)
(1.55933 4.93686 1.2014)
(0.402884 5.00506 1.20569)
(0.559804 4.87517 0.746919)
(0.703162 5.05212 0.0223529)
(0.466113 4.36107 -0.0253062)
(2.38244 4.15224 1.37293)
(2.08288 4.92564 1.47905)
(3.07003 4.83845 0.996695)
(2.07119 5.71336 1.30701)
(2.14813 5.89857 1.41435)
(2.99925 5.60011 1.02137)
(4.12168 5.7019 0.230757)
(2.95927 5.06823 0.240853)
(2.29188 3.08591 0.814946)
(2.55045 2.93468 0.749055)
(2.28663 3.60682 0.764899)
(2.26241 4.06581 1.18347)
(2.41483 4.18575 0.912508)
(2.78054 4.25785 1.69484)
(2.1239 4.477 2.1158)
(2.57417 4.76155 1.65647)
(1.18326 6.26459 0.0582834)
(0.336232 1.5165 -0.150993)
(1.76632 1.84673 0.288079)
(1.85026 2.47974 0.457283)
(1.71525 2.13923 0.814462)
(1.62071 2.5015 0.848136)
(1.03757 2.71972 0.934675)
(-0.0581028 3.15633 1.30445)
(-0.0697081 3.19558 0.559828)
(0.774932 2.79397 1.47241)
(1.61206 3.66551 -0.0652425)
(0.626621 0.598767 -0.840256)
(1.06013 0.57173 -1.05979)
(0.294245 0.739625 -0.472345)
(1.40972 1.08754 -1.12203)
(1.56849 1.40533 -0.809835)
(1.17863 1.10225 0.440498)
(1.04728 0.656387 1.44855)
(0.653727 0.380909 2.42146)
(-0.105507 0.370384 2.90098)
(-0.680517 -0.193103 2.68743)
(-0.426612 0.98228 0.926952)
(1.12736 0.528039 -1.5829)
(1.44201 0.77036 -1.19232)
(1.43179 0.931835 -1.6882)
(1.1487 0.807883 -1.51613)
(0.596035 0.975173 -0.940296)
(0.7043 1.08109 -1.25364)
(0.654578 0.880558 -0.585327)
(0.310555 0.440978 -1.266)
(-0.254415 0.293365 -0.70403)
(-0.405626 0.741392 0.811321)
(-0.823068 0.376598 0.984352)
(0.122054 -0.945197 -0.157121)
(0.522353 -0.0357437 -1.37554)
(0.177466 0.21863 -1.47298)
(0.682515 0.504487 -1.36792)
(0.336508 0.368154 -1.49375)
(0.551904 0.917368 -1.47421)
(0.650393 0.884599 -1.24349)
(0.526818 0.692143 -1.24841)
(0.555506 0.610669 -1.30555)
(0.418352 0.630306 -0.959929)
(0.838393 0.150436 -1.88826)
(1.37266 0.398075 -2.32603)
(1.33072 0.094048 -2.19372)
(1.66637 -0.0318185 -1.39138)
(-1.16844 1.97549 -0.020407)
(-0.832353 2.54193 -0.186102)
(-0.991192 2.22335 -0.0195528)
(-0.339785 2.86118 -0.0636216)
(-0.485507 2.7482 0.0559637)
(-0.725845 2.6064 0.278979)
(-1.33521 2.3142 -0.0774416)
(-0.198513 3.54997 -0.161001)
(-0.44554 3.24097 0.0210161)
(-0.85243 3.21664 0.287779)
(-0.604387 2.93526 0.0338625)
(-0.849227 2.66131 0.119732)
(1.00157 4.25886 0.998276)
(0.555032 4.23421 0.537886)
(-0.291037 3.94656 0.202053)
(-0.0178593 3.62942 0.365542)
(-0.316118 3.51887 0.105544)
(-1.11095 3.08814 -0.115122)
(1.99854 4.36254 1.64484)
(1.84651 4.31273 1.37068)
(2.95246 3.77941 0.90206)
(0.829325 4.23652 1.0312)
(-0.0050947 4.16178 0.498799)
(0.661873 3.67035 0.639427)
(-0.32538 3.10965 0.213644)
(1.71327 4.40726 1.83879)
(2.08691 4.84142 1.33871)
(2.16882 4.86209 1.27676)
(1.65356 4.86869 1.18272)
(0.732135 4.94041 1.21252)
(1.09735 4.6818 0.907692)
(1.14226 4.56184 0.537725)
(0.553694 4.46831 0.00917253)
(2.13621 4.04267 1.6517)
(2.30332 4.04187 1.50703)
(2.70887 4.90356 0.977385)
(2.07985 5.42352 1.79131)
(2.34324 5.61236 1.46137)
(2.5397 5.78352 1.43815)
(2.80875 5.88477 0.71911)
(3.57831 6.24918 0.949457)
(5.14601 4.39877 0.438705)
(2.12464 3.58309 0.162122)
(2.50525 2.9881 0.719785)
(2.49452 2.89937 0.871242)
(2.84141 3.39471 0.375527)
(2.85619 3.89946 0.75338)
(2.7721 3.87724 1.43896)
(3.2472 4.13828 1.64285)
(3.27583 4.06909 1.48304)
(5.52152 3.29339 0.238057)
(4.12895 5.17192 -0.156485)
(-0.318713 1.06165 0.593023)
(1.21492 1.6092 -0.588025)
(1.97206 1.89152 0.387126)
(1.96882 2.3283 0.394935)
(1.5317 2.24398 0.584892)
(1.50747 2.57328 0.774179)
(1.24617 2.62931 0.661628)
(0.309391 3.0816 1.12062)
(0.612484 2.97368 0.105641)
(1.91916 2.40119 1.10885)
(3.13922 2.88096 -0.21759)
(0.236579 0.638573 -0.617267)
(0.665397 0.541767 -0.655728)
(0.721548 0.683477 -0.859685)
(0.097226 0.860561 -0.155242)
(1.47255 1.25637 -1.25399)
(1.35264 1.38226 -0.701227)
(1.14213 1.13671 0.589505)
(0.928212 0.540437 1.31557)
(0.528288 0.29582 2.12638)
(-0.116759 0.283879 2.53212)
(-0.58629 0.183972 2.10351)
(0.249312 0.839158 0.913236)
(1.12632 0.477118 -1.41456)
(1.06853 0.505753 -1.54252)
(1.47029 0.756415 -1.0686)
(1.2673 0.981368 -1.66581)
(0.96384 0.789677 -1.41015)
(0.541628 1.03462 -0.952917)
(0.666759 1.10787 -1.12082)
(0.666191 0.897174 -0.38343)
(0.304464 0.50017 -1.05383)
(-0.302316 0.214501 -0.623693)
(-0.400345 0.603637 0.703981)
(-0.80489 0.312691 0.888562)
(0.0116209 -0.903625 -0.18708)
(0.608233 -0.0969712 -1.30503)
(0.464185 -0.0184596 -1.33424)
(0.316032 0.216946 -1.50569)
(0.740785 0.518435 -1.28535)
(0.338744 0.387354 -1.45546)
(0.565367 0.915121 -1.45145)
(0.817812 0.862302 -1.15494)
(0.519746 0.692061 -1.20932)
(0.555666 0.601353 -1.30219)
(0.435595 0.628359 -0.875697)
(0.937849 0.075942 -1.81941)
(1.30003 0.411828 -2.17267)
(1.20533 0.142716 -2.04563)
(1.56424 -0.010963 -1.37606)
(-1.15513 1.81677 -0.0305519)
(-0.911169 2.2634 0.0669874)
(-1.10743 2.00814 0.0235728)
(-0.296575 2.61896 0.135428)
(-0.62556 2.53762 -0.0686947)
(-0.846742 2.2815 -0.0707254)
(-0.143863 2.94527 -0.0691046)
(-0.352244 2.78101 -0.117527)
(-0.481997 2.77562 0.0482115)
(-0.538279 2.66927 0.250421)
(-1.18859 2.41608 -0.114006)
(0.302523 3.53239 0.539223)
(0.376802 3.50573 0.0926885)
(-0.192782 3.2374 0.187992)
(-0.643372 3.22385 0.283388)
(-0.386281 2.96356 0.0604385)
(-0.329236 2.76679 0.156432)
(1.21412 4.18237 1.59528)
(1.12539 4.03525 1.08319)
(0.867298 4.01807 0.619014)
(-0.225511 3.92117 0.304807)
(0.0866158 3.58445 0.383609)
(-0.169502 3.37889 0.203636)
(-0.789501 3.12793 -0.0118597)
(1.68623 4.30945 1.95807)
(2.06226 4.28977 1.42853)
(2.29655 4.17275 0.932254)
(1.09158 4.0367 1.3305)
(0.904591 4.19094 1.04373)
(0.494518 3.98034 0.334229)
(0.762566 3.7127 0.467066)
(-0.144138 3.05644 0.0608607)
(1.63636 4.41698 1.93964)
(2.16698 4.46455 1.49255)
(2.1726 4.89898 1.26905)
(2.02724 4.99755 1.31958)
(1.71333 5.0158 1.34297)
(1.94228 4.67083 0.966624)
(1.46027 4.49372 1.07759)
(1.71074 4.05071 0.900938)
(0.245165 4.3096 0.157867)
(1.31881 4.19049 2.03938)
(2.48824 3.91367 1.44427)
(2.45949 4.01686 1.44547)
(2.89617 4.6616 1.16024)
(3.33311 4.66592 1.42289)
(2.92224 5.20886 1.78963)
(2.77784 5.48379 1.57685)
(2.80621 5.90885 0.918815)
(3.60594 5.97948 1.00583)
(4.93554 4.44805 0.311273)
(1.13478 3.22665 1.28488)
(2.45156 3.54854 0.103783)
(2.85267 2.92174 0.539743)
(2.43862 3.06688 0.881324)
(2.94917 3.43178 0.625395)
(2.96233 4.00877 0.712206)
(2.78399 3.89836 1.49043)
(3.23089 4.2415 1.09071)
(4.02628 3.7641 1.07599)
(5.98606 3.30538 0.394925)
(5.67474 4.04555 0.0143235)
(-0.173835 1.34384 0.224551)
(0.0105842 1.17646 0.698248)
(1.72192 1.67054 -0.758258)
(2.3008 1.9875 -0.046953)
(1.9071 2.31102 0.265464)
(1.61584 2.17359 0.456756)
(1.58382 2.52609 0.697333)
(1.2747 2.56469 0.632543)
(0.920561 2.83923 0.729309)
(1.31291 2.67956 -0.109582)
(5.18485 0.466619 -0.120631)
(5.59919 0.984929 -0.199348)
(0.687702 0.765266 -0.725673)
(0.157031 0.548335 -0.490694)
(0.522419 0.478841 -0.495837)
(0.440594 0.765031 -0.60895)
(-0.0507657 1.06681 0.321538)
(1.4417 1.435 -0.875106)
(1.22859 1.39368 -0.300108)
(0.883363 0.901774 1.10763)
(0.758261 0.53914 1.30698)
(0.53605 0.124598 1.82065)
(0.0235398 0.143609 2.16517)
(0.183649 0.385743 1.68461)
(1.09038 0.7685 0.737478)
(0.931668 0.511643 -1.57027)
(1.03991 0.496317 -1.38465)
(1.04877 0.482842 -1.37744)
(1.48295 0.742392 -0.954075)
(1.12824 1.02886 -1.5735)
(0.794574 0.781226 -1.32866)
(0.481429 1.1003 -0.927248)
(0.676614 1.09956 -1.02854)
(0.737718 0.853507 -0.317749)
(0.324531 0.509187 -0.888679)
(-0.340232 0.156168 -0.560093)
(-0.382826 0.480948 0.649258)
(-0.724762 0.278699 0.83811)
(-0.000560309 -0.853185 -0.253873)
(0.339834 -0.295746 -1.24076)
(0.552615 -0.0869851 -1.29375)
(0.480528 0.000257095 -1.32308)
(0.472927 0.204911 -1.52145)
(0.672386 0.543395 -1.24726)
(0.310527 0.408463 -1.42782)
(0.542575 0.94251 -1.4406)
(0.481077 0.946231 -1.27352)
(0.539306 0.682715 -1.16869)
(0.542323 0.612681 -1.26772)
(0.459166 0.622031 -0.80078)
(1.00702 0.0128893 -1.73531)
(1.20949 0.454119 -2.00718)
(1.09582 0.203059 -1.9003)
(1.48604 -9.30921e-05 -1.36596)
(-0.864053 2.1241 0.0807524)
(-1.07116 1.87712 -0.00685416)
(-1.11728 2.37534 0.0281668)
(-0.878338 2.27598 0.0645587)
(-0.926044 2.07449 0.0917165)
(-0.489784 2.55246 0.158466)
(-0.47977 2.57298 0.11767)
(-0.527952 2.55126 -0.0435821)
(-0.742162 2.31871 -0.0825256)
(-0.168764 2.91462 0.171942)
(0.00613439 2.89327 0.0740681)
(-0.177864 2.81915 -0.0434532)
(-0.45923 2.79705 0.0539612)
(-0.461546 2.67963 0.248741)
(-1.10259 2.44949 -0.112229)
(1.04762 3.54806 0.820145)
(0.252902 3.48139 0.511635)
(0.35367 3.47179 0.0515717)
(-0.0765734 3.22862 0.223139)
(-0.438381 3.20062 0.316178)
(-0.115436 3.00217 0.0400265)
(-0.0585127 2.74322 0.191247)
(1.3908 4.01812 1.6826)
(1.62499 3.9676 1.32156)
(1.53481 3.83442 1.1798)
(1.12511 3.82321 0.760995)
(-0.0282789 3.93029 0.282767)
(0.233566 3.55693 0.338715)
(0.0796001 3.29281 0.284688)
(-0.478824 3.15227 -0.0365359)
(1.47003 4.22503 2.03036)
(2.05859 4.23345 1.69438)
(1.98435 4.34828 1.31943)
(2.18143 4.13905 0.917095)
(2.02794 4.02462 0.856884)
(1.15598 4.02783 0.904676)
(0.90281 3.76892 0.452756)
(-0.309514 3.66814 0.440272)
(-0.111871 2.99524 -0.121779)
(1.46037 4.63557 2.10532)
(1.9215 4.36166 1.75045)
(2.37421 4.5204 1.32456)
(2.42868 4.90949 1.20726)
(2.19372 4.74099 1.50218)
(1.91223 4.87564 1.2903)
(1.53332 4.61737 1.06134)
(1.71818 4.41939 1.07645)
(2.35803 3.85081 1.24677)
(0.137634 4.02967 0.206303)
(1.15092 4.24779 2.06616)
(2.40082 4.05363 1.73219)
(2.63789 3.79278 1.4236)
(2.74006 4.01235 1.33405)
(3.31217 4.26455 1.17706)
(2.87356 4.84243 1.5701)
(2.86423 4.99819 1.80072)
(2.95236 5.40381 1.72267)
(3.29172 5.47168 1.18997)
(4.24322 4.84072 1.12212)
(4.47852 4.42823 0.305772)
(0.824397 2.92834 1.50519)
(2.44625 3.45815 0.0607431)
(2.35387 3.47381 1.42368)
(2.662 3.01202 1.03359)
(2.47486 3.24699 0.957623)
(2.5578 3.93129 1.30318)
(2.48439 4.26809 1.6916)
(2.7938 3.95932 1.31628)
(3.48201 4.07904 0.410132)
(4.29986 3.77687 0.817373)
(5.8734 3.11591 0.630548)
(6.18871 3.42626 0.136583)
(0.113528 1.62559 -0.434236)
(0.0938832 1.25702 -0.0033432)
(0.516972 1.43116 0.469887)
(2.21315 1.77027 -0.688698)
(2.49375 2.10195 0.122894)
(1.70927 2.44876 0.262788)
(1.62507 2.17024 0.554838)
(1.81616 2.44853 0.575509)
(1.55837 2.44412 0.482327)
(1.50368 2.54815 0.281306)
(2.02679 2.29336 -0.103054)
(6.08782 -0.209045 -0.414559)
(6.48556 0.0847087 -0.20295)
(1.51291 1.35073 -0.0579234)
(0.594256 0.630756 -0.75807)
(0.0580767 0.489625 -0.310916)
(0.346713 0.562531 -0.253972)
(0.189248 0.910403 -0.325642)
(0.337542 1.16503 -0.026186)
(1.419 1.49251 -0.480069)
(1.10583 1.35869 -0.06874)
(0.985487 0.889679 0.467303)
(0.641481 0.396604 1.17496)
(0.564058 -0.00985308 1.54512)
(0.315297 -0.0235994 1.98086)
(1.09251 0.228322 1.2673)
(2.40909 0.114504 0.176988)
(0.637718 0.571691 -1.02819)
(0.838893 0.582856 -1.38857)
(0.945648 0.513232 -1.28188)
(1.11221 0.426723 -1.26237)
(1.43872 0.763654 -0.846556)
(0.980493 1.06947 -1.46119)
(0.631239 0.824222 -1.27883)
(0.45696 1.13591 -0.889286)
(0.677749 1.08026 -0.950023)
(0.964161 0.745112 -0.289296)
(0.382439 0.502461 -0.677465)
(-0.383234 0.112971 -0.495812)
(-0.357067 0.392516 0.61663)
(-0.589798 0.291234 0.808438)
(0.0970852 -0.792643 -0.314489)
(0.29411 -0.506692 -1.53308)
(0.382928 -0.29768 -1.20084)
(0.502503 -0.075558 -1.29176)
(0.612403 -0.0174497 -1.32969)
(0.617853 0.176043 -1.51593)
(0.613728 0.577388 -1.18734)
(0.273723 0.432202 -1.40553)
(0.459246 0.999173 -1.42215)
(0.692345 0.870888 -1.19062)
(0.552429 0.670328 -1.13943)
(0.528367 0.623497 -1.2399)
(0.495214 0.604428 -0.744277)
(1.03168 -0.0201955 -1.63877)
(1.1236 0.509468 -1.82912)
(1.01177 0.26176 -1.76399)
(1.4327 -0.00852493 -1.35834)
(-0.868168 1.81633 -0.00532097)
(-0.523501 2.37827 -0.0450087)
(-0.643506 2.18976 0.0599358)
(-0.924688 1.94507 0.034748)
(-0.478084 2.45086 0.144861)
(-0.605015 2.46468 0.0906353)
(-0.617488 2.38335 -0.0353609)
(-0.792267 2.13697 0.0805282)
(-0.163935 2.58812 0.250494)
(-0.204667 2.54795 0.119808)
(-0.324697 2.60334 0.0813028)
(-0.495034 2.54557 -0.0291988)
(-0.509851 2.35808 -0.0992931)
(0.523552 3.03862 0.406953)
(0.0334471 2.88543 0.23224)
(0.0169992 2.87488 -0.00995694)
(-0.096446 2.87017 0.00262143)
(-0.340666 2.82948 0.0618292)
(-0.27796 2.68819 0.270579)
(-0.991386 2.48684 -0.115562)
(0.665994 3.63216 1.11425)
(0.941925 3.46125 0.834002)
(0.461318 3.47672 0.540359)
(0.437701 3.46616 0.117791)
(0.0980222 3.23587 0.2358)
(-0.209358 3.24831 0.310825)
(0.0404193 3.04326 -0.00819222)
(0.274221 2.69381 0.0865901)
(1.38584 4.02505 1.75263)
(1.64024 3.84014 1.46805)
(1.78981 3.8191 1.096)
(2.02885 3.58938 0.752151)
(1.70844 3.56424 0.954576)
(0.368466 3.76253 0.603467)
(0.449509 3.40295 0.236578)
(0.518624 3.24027 0.249827)
(-0.177095 3.15189 -0.0712122)
(1.2459 4.41142 2.12249)
(1.90841 4.24616 1.76354)
(2.57755 4.0646 1.08668)
(2.54118 4.18565 0.753409)
(2.05153 4.1219 1.03818)
(1.70376 4.14411 0.906186)
(1.15996 4.04362 0.871738)
(1.07448 3.683 0.653026)
(1.23751 3.32341 0.283902)
(-0.00956885 2.92873 -0.0988944)
(1.27991 4.694 2.2127)
(1.83321 4.49019 1.91607)
(2.14404 4.31647 1.71661)
(2.5302 4.48951 1.30101)
(2.58553 4.45984 1.26945)
(2.56004 4.58361 1.12451)
(1.97642 4.44173 1.28876)
(2.12766 4.12315 1.21932)
(2.09771 3.97 1.08828)
(0.994745 4.38477 0.957593)
(0.00544521 3.88813 0.111676)
(1.06732 3.87431 2.60259)
(2.11887 4.19316 1.66267)
(2.50928 4.01605 1.9002)
(2.63804 3.84259 1.67875)
(3.25092 3.91208 1.01561)
(3.43196 4.19583 1.34262)
(3.1399 4.76468 1.6956)
(3.04309 4.8538 1.75214)
(2.91741 5.47932 1.82263)
(3.60857 5.2479 1.37247)
(4.84111 3.89273 1.30323)
(4.12637 4.05011 0.334354)
(0.620974 3.37873 1.46934)
(1.12401 3.1949 1.12123)
(2.01746 3.68884 0.5836)
(2.476 3.38703 1.27721)
(2.7231 2.92961 1.10808)
(2.62661 3.26123 1.69747)
(2.62094 4.03423 1.27528)
(2.90482 4.10619 1.25268)
(3.26429 3.78462 0.85905)
(3.63872 3.88869 0.256827)
(5.01442 3.07563 1.03838)
(6.21299 2.21473 -0.177466)
(6.01977 2.52048 0.191482)
(-0.5383 1.71055 -0.181269)
(0.854979 1.51611 -0.698493)
(0.21596 1.25485 -0.0493447)
(1.80863 1.41906 -0.464862)
(2.90105 1.59069 -1.00438)
(2.40156 2.12005 -0.116088)
(1.64034 2.36246 0.661476)
(1.81273 2.04414 0.7993)
(2.1427 2.30599 0.357309)
(1.9539 2.15948 0.0950273)
(1.83046 2.34748 -0.0419886)
(3.58721 1.26369 -0.111092)
(5.97628 -0.0262977 -0.322413)
(6.46593 0.15488 -0.178641)
(1.50698 1.58723 -0.62093)
(1.10333 1.33698 -0.494856)
(0.383289 0.674161 -0.524576)
(-0.0198697 0.464469 -0.14682)
(0.228408 0.6761 0.0289827)
(-0.144966 1.25183 0.203481)
(1.00531 1.11332 -1.17225)
(1.37901 1.4035 -0.291205)
(1.02851 1.40657 -0.0200859)
(1.01369 0.878789 0.43313)
(0.852516 0.302613 0.690125)
(0.612423 -0.174879 1.2807)
(0.70173 -0.0704419 1.77418)
(2.47614 -0.45122 0.239578)
(3.34895 -0.792879 -0.387224)
(0.539162 0.167578 -1.19964)
(0.694642 0.64573 -0.932084)
(0.883069 0.631454 -1.12747)
(0.959888 0.486684 -1.22395)
(1.15698 0.355742 -1.21109)
(1.33147 0.758599 -0.7925)
(0.832605 1.07631 -1.3813)
(0.507908 0.893276 -1.28801)
(0.449411 1.16147 -0.825809)
(0.652823 1.05508 -0.898106)
(0.967529 0.732829 -0.529697)
(0.426086 0.512412 -0.44621)
(-0.415149 0.0841465 -0.453775)
(-0.325206 0.327668 0.596276)
(-0.442882 0.352521 0.819156)
(0.221347 -0.734088 -0.391842)
(0.673185 -0.286008 -1.81661)
(0.320519 -0.512072 -1.51936)
(0.405813 -0.305615 -1.19005)
(0.46761 -0.0558688 -1.30235)
(0.765422 -0.0527639 -1.32264)
(0.706116 0.154429 -1.48793)
(0.615133 0.584939 -1.10188)
(0.235389 0.456631 -1.38409)
(0.447624 0.951981 -1.42122)
(0.660281 0.836366 -1.21159)
(0.577582 0.649307 -1.1147)
(0.550746 0.604073 -1.21756)
(0.529854 0.57811 -0.712646)
(1.0053 -0.00397105 -1.54334)
(1.04833 0.574805 -1.64102)
(0.952813 0.298186 -1.64701)
(1.39982 -0.0409353 -1.34633)
(-0.96352 1.59473 0.0750637)
(-0.57059 2.10912 -0.0517462)
(-0.751397 1.88092 0.00431293)
(-0.94497 2.26115 -0.0779351)
(-0.628293 2.34208 -0.0431663)
(-0.472468 2.24804 0.0810891)
(-0.681694 2.02872 0.0653836)
(-0.407055 2.4368 0.356349)
(-0.383349 2.39048 0.197673)
(-0.605746 2.44612 0.0747322)
(-0.629623 2.39776 -0.0280029)
(-0.711496 2.16223 0.0808638)
(-0.206643 2.69978 0.370937)
(-0.192314 2.56228 0.25193)
(-0.0985668 2.55523 0.187694)
(-0.185908 2.63854 0.150786)
(-0.103706 2.59166 -0.013032)
(-0.330663 2.39204 -0.116257)
(-0.0262597 3.10259 0.75462)
(0.614351 2.96859 0.326993)
(0.0919182 2.91483 0.24935)
(0.190944 2.90457 0.00029851)
(-0.179218 2.82778 0.114686)
(-0.20301 2.89262 0.0444578)
(-0.0769164 2.73328 0.191678)
(-1.1152 2.47684 -0.0905994)
(0.823641 3.5821 1.4378)
(1.30057 3.37528 0.996979)
(1.59024 3.17055 1.02431)
(1.23647 3.13452 0.581764)
(0.736065 3.19353 0.437799)
(0.225007 3.24749 0.226236)
(-0.214957 3.17447 0.371283)
(0.278186 2.94477 0.0755931)
(0.242356 2.62126 0.0207219)
(1.28071 4.01912 1.93333)
(1.69045 3.7646 1.60334)
(1.70104 3.72137 1.3598)
(1.31005 3.8395 1.15762)
(1.42297 3.56317 0.92677)
(1.76303 3.30852 0.926192)
(0.969202 3.45602 0.855398)
(0.638362 3.22706 0.167245)
(1.19447 3.05598 -0.00215832)
(0.0509446 3.14199 -0.0645434)
(0.87398 4.36619 2.23959)
(1.41709 4.39104 2.03934)
(2.03572 4.2664 1.64902)
(1.84006 4.32765 1.39916)
(1.92161 4.18763 1.16769)
(2.21531 3.90693 0.966336)
(1.58673 4.02785 0.801928)
(1.36974 3.92 0.867812)
(1.08724 3.64747 0.448364)
(0.994468 3.3083 0.0868895)
(0.175475 2.91113 -0.0919878)
(1.13089 4.59256 2.57127)
(1.55449 4.63348 2.17219)
(1.97431 4.42113 1.90091)
(2.47748 4.3303 1.65234)
(2.77621 4.18496 1.32777)
(3.01241 4.121 0.926912)
(3.34949 3.96206 0.626293)
(2.67761 4.11385 0.870476)
(2.38913 3.74268 1.22309)
(2.31006 3.67303 1.28778)
(2.04349 3.7167 1.14888)
(-0.118322 3.6991 0.117844)
(0.555016 4.07789 2.64222)
(1.3067 4.18339 2.05127)
(2.41736 3.88592 2.24875)
(2.24128 4.1163 2.1068)
(2.60103 3.85659 1.98806)
(2.98082 4.28473 1.52759)
(3.44259 4.21959 1.41328)
(3.29589 4.55178 1.59649)
(3.54975 4.77157 1.97981)
(3.25692 5.26833 1.68075)
(3.75298 4.91696 1.55897)
(4.55605 3.48177 1.24755)
(3.74703 3.73439 0.396384)
(0.895898 3.22499 1.66568)
(1.03344 3.36896 1.34806)
(1.8947 3.44448 0.321497)
(2.18285 3.49433 1.28621)
(2.60863 3.38008 0.89316)
(2.44584 3.05456 1.66219)
(2.7926 3.4762 1.7137)
(3.00095 4.00429 1.30091)
(3.20915 3.98519 1.22924)
(3.3278 3.95264 0.607634)
(3.91984 3.61275 0.179126)
(5.46898 2.4348 1.01649)
(6.36099 1.75234 0.351765)
(6.06331 1.78308 0.0364358)
(0.51558 1.70718 -0.343306)
(-0.279378 1.69546 -0.414803)
(0.815653 1.51332 -0.472374)
(1.07172 1.23291 -0.195397)
(2.65101 1.23336 -0.828912)
(3.18199 1.57777 -1.7938)