/*--------------------------------*- C++ -*----------------------------------*\
  =========                 |
  \\      /  F ield         | OpenFOAM: The Open Source CFD Toolbox
   \\    /   O peration     | Website:  https://openfoam.org
    \\  /    A nd           | Version:  7
     \\/     M anipulation  |
\*---------------------------------------------------------------------------*/
FoamFile
{
    version     2.0;
    format      ascii;
    class       volScalarField;
    location    "2.5";
    object      nut;
}
// * * * * * * * * * * * * * * * * * * * * * * * * * * * * * * * * * * * * * //

dimensions      [0 2 -1 0 0 0 0];

internalField   nonuniform List<scalar> 
18750
(
0.00133097
0.00065375
0.00133044
0.00055297
0.00132623
0.000881968
0.000985101
0.00121906
0.000734662
0.000231899
0.00113468
0.0013373
0.00492912
0.000968546
0.000875606
0.000453023
0.00101882
0.000876779
0.000388417
0.000184694
0.00187989
0.00126539
0.000759834
0.00151046
0.000399728
0.000341464
0.00102267
0.000708995
0.000285825
0.00042303
0.000724454
0.000921076
0.000291785
0.000157435
6.83116e-05
0.00323291
0.0026261
0.00214344
0.00151189
0.000463165
0.00089423
0.0016209
0.000962187
0.00013735
0.000238096
0.000930117
0.000251795
0.000231621
0.000583909
0.000475479
0.000439233
0.000883655
0.000228294
0.000135196
7.40276e-05
0.000111197
0.00285533
0.00300278
0.000959406
0.00250552
0.00206065
0.00138959
0.00147449
0.00048274
0.00105031
0.000634325
0.00162306
0.00178279
0.000308999
0.000333231
0.000683452
0.000898581
0.00068096
0.00037527
0.00060561
0.000416748
0.000513518
0.000360509
0.000765344
0.000239894
0.00012204
9.16585e-05
0.0001172
0.000128597
0.00242753
0.0027021
0.00104205
0.00276087
0.00112469
0.000849521
0.00256206
0.000901568
0.0016013
0.00235405
0.00163832
0.000684113
0.00144648
0.000715664
0.000728074
0.00160952
0.000622148
0.000531451
0.000380405
0.000731834
0.000587221
0.000978023
0.000902647
0.000402873
0.000685734
0.000443879
0.000536028
0.000354314
0.00032314
0.000579794
0.000196362
7.15965e-05
0.000112328
8.04688e-05
0.000145572
0.000298779
0.00227484
0.00260698
0.00129307
0.00226504
0.000916582
0.00123672
0.00278751
0.00122162
0.000543087
0.00156916
0.00278474
0.0010727
0.00116863
0.00210427
0.00137538
0.0018523
0.00124995
0.00121608
0.000126607
0.00082778
0.000710159
0.00145654
0.000320301
0.000702348
0.000535232
0.000733434
0.000629424
0.000757189
0.000995592
0.000939848
0.000624825
0.000370879
0.000464464
0.000527725
0.000340155
0.000303887
0.000307829
0.000300805
0.000220855
9.38089e-05
0.000102297
9.62882e-05
0.000181511
0.000385156
0.000395651
0.00230915
0.0022659
0.000615221
0.0027634
0.000977382
0.000905337
0.00211654
0.00146342
0.000569807
0.000757324
0.00299435
0.00121985
0.00153684
0.00186316
0.00194405
0.00240942
0.000860117
0.00100718
0.0012597
0.000522515
0.000859607
0.0021036
0.00143633
0.000364463
0.00127952
0.000402917
0.000721692
0.00048504
0.0013005
0.000880414
0.000490674
0.00076623
0.000575825
0.000645637
0.000823496
0.000686768
0.000821503
0.000880661
0.000473713
0.000336639
0.000499159
0.000500842
0.000327208
0.000266737
0.00020617
0.000323909
0.000175666
0.000102386
0.000112148
0.000127117
0.000110655
0.000124922
0.000448069
0.000404563
0.000211876
0.0022529
0.00233938
0.000535665
0.00219304
0.000800538
0.000389667
0.00266452
0.00125764
0.00141601
0.00114266
0.00269586
0.00172826
0.00100992
0.00115755
0.000760478
0.00292966
0.0012698
0.00171528
0.00129987
0.00182794
0.00116595
0.00241627
0.000793688
0.000923283
0.00116408
0.000547526
0.000640934
0.00063868
0.00214382
0.00168321
0.000671584
0.000835198
0.000433224
0.00074041
0.000425403
0.000553074
0.0013149
0.000989086
0.000433281
0.000661423
0.000400611
0.000774424
0.000835188
0.000684981
0.000444095
0.000739747
0.000783765
0.000612095
0.000471036
0.000482975
0.000469046
0.000331322
0.000262719
0.000257908
0.000173777
0.000379992
0.000108094
0.000142083
7.53788e-05
0.000117123
0.000117578
0.000201415
0.000450081
0.000397654
0.00012589
0.000166023
0.00205042
0.00226718
0.000883305
0.00223257
0.000610234
0.000526974
0.00239425
0.000839729
0.000562572
0.000578469
0.00259989
0.000941211
0.00105758
0.000811662
0.0013542
0.0031267
0.00152114
0.00153301
0.000475096
0.000642876
0.000524335
0.00257002
0.00173859
0.000601369
0.000999811
0.000615063
0.000733789
0.000982015
0.00294697
0.000968795
0.00125034
0.00099107
0.000450198
0.000550602
0.000685591
0.000661735
0.00203217
0.00176429
0.000843805
0.000309658
0.000602218
0.000242259
0.000276873
0.000519101
0.00034323
0.00135751
0.000645169
0.00044148
0.000429874
0.000509862
0.000866032
0.000825472
0.000637535
0.000409111
0.000613444
0.000813753
0.000437429
0.0005182
0.000407185
0.000471244
0.000451898
0.000326076
0.000377677
0.000237894
0.000240339
0.000355275
0.000286012
0.000126942
0.000231954
6.61473e-05
0.000104713
0.000122898
0.000245887
0.000427954
0.000340426
8.59123e-05
0.000172918
0.000109031
0.00229679
0.00225014
0.000774887
0.00231016
0.00239554
0.00082316
0.000645827
0.00239137
0.000742167
0.000561866
0.000416054
0.00244758
0.000809324
0.000734819
0.000522559
0.00101355
0.00242224
0.000634518
0.00135957
0.00165937
0.0010888
0.00067334
0.00339041
0.0015769
0.00163693
0.0014531
0.000332931
0.000806808
0.000858541
0.00265107
0.00190355
0.000442911
0.000408562
0.000686575
0.000809089
0.000667334
0.000994399
0.00269279
0.001344
0.00118296
0.000699155
0.000605762
0.000717064
0.000444947
0.000557798
0.000415211
0.00230406
0.00152445
0.000654501
0.000742361
0.000256404
0.00054111
0.000309185
0.000458902
0.000510287
0.0003881
0.000985575
0.000439659
0.000753024
0.000723962
0.00055341
0.00087052
0.000766823
0.000597086
0.000360469
0.000333066
0.000452426
0.000795197
0.000394883
0.000326015
0.000358383
0.000518588
0.000431641
0.000333127
0.000292718
0.000210189
0.000398013
0.000341876
0.000119051
0.000275708
0.000172343
0.000268881
6.59191e-05
0.000114066
0.000127443
0.000272192
0.000407782
0.000298139
0.000136641
0.000124292
5.46653e-05
0.000129178
0.00218717
0.00235852
0.00097072
0.00240627
0.00230227
0.000909069
0.000543683
0.000440138
0.00226835
0.000721134
0.000715363
0.000335439
0.00235961
0.000849706
0.000542435
0.000659543
0.000398165
0.00226678
0.000943656
0.000680698
0.000730208
0.000616224
0.000577173
0.00249564
0.000835886
0.00131795
0.00142994
0.00127954
0.000752157
0.000790177
0.00291063
0.0019041
0.00207736
0.00172221
0.000892836
0.000374495
0.000963418
0.000850107
0.00288331
0.00210044
0.00107484
0.000883538
0.000804441
0.000493314
0.000699005
0.000510885
0.000843888
0.0028077
0.00129349
0.00159707
0.00089591
0.000887949
0.000682725
0.000328653
0.000250477
0.000560464
0.000589364
0.00226222
0.00155034
0.000643984
0.00109206
0.000246683
0.000443077
0.000361421
0.00047042
0.000540058
0.000306898
0.000498047
0.000937465
0.000632334
0.000893882
0.000900379
0.000713904
0.000868775
0.000707845
0.000557607
0.000520162
0.000400673
0.00044387
0.000322066
0.000670935
0.000378578
0.000219122
0.000275719
0.000429522
0.000407491
0.000308923
0.000204055
0.000193654
0.000445239
0.000317273
0.000187233
0.000232464
0.000409295
0.000155519
0.00029992
9.04744e-05
0.000107686
0.000128576
0.000264739
0.000310111
0.000161397
0.000184968
0.000119556
7.30297e-05
0.000122087
0.000162846
0.00229941
0.00207646
0.000367309
0.00228399
0.00230245
0.000691917
0.000528033
0.000702732
0.00221106
0.000872995
0.000468688
0.00058044
0.000461239
0.00233303
0.000638046
0.00067183
0.000649583
0.000576791
0.00238934
0.000653108
0.000784784
0.000879531
0.000597574
0.000908922
0.0023676
0.000770444
0.000930759
0.000898378
0.000825137
0.000927483
0.00101938
0.00266005
0.00122233
0.00130682
0.00129178
0.00129238
0.000837543
0.00057867
0.000813139
0.00268043
0.00196447
0.00160271
0.00121715
0.00106063
0.000923577
0.000628071
0.000840333
0.00158643
0.00254446
0.00216301
0.0015594
0.000739299
0.00125421
0.00101307
0.000582315
0.000966555
0.000608493
0.000505638
0.00311652
0.00107766
0.000902507
0.000884308
0.000838354
0.000694533
0.000379599
0.00019402
0.000443407
0.000611396
0.000415334
0.00172914
0.00155387
0.00107899
0.000923032
0.000379324
0.000450779
0.000410038
0.000404962
0.000454331
0.000444297
0.000639005
0.000300824
0.00085039
0.000492543
0.000767738
0.000753049
0.000656912
0.000853992
0.000656655
0.000552299
0.000462666
0.000560564
0.000425005
0.000333729
0.000422209
0.000609035
0.000593726
0.000217794
0.000279675
0.000333375
0.000397325
0.000339848
0.00021231
0.00021256
0.000371644
0.00029898
0.000189469
0.000234984
0.000313899
0.000368665
0.00015807
0.000316585
9.35602e-05
0.000114902
0.000130409
0.00021002
0.000220249
0.0001019
0.00024842
0.000173732
7.54788e-05
0.000187619
0.000134089
0.000117655
0.00224685
0.00231229
0.000611442
0.00244085
0.00210741
0.000584116
0.0004711
0.000556277
0.0023347
0.000608299
0.000593261
0.000361405
0.000556169
0.00221457
0.000590204
0.000602739
0.000524163
0.000544409
0.000383249
0.00233253
0.000506955
0.000687019
0.000397923
0.000547839
0.000524819
0.00244479
0.000474899
0.000901308
0.000668177
0.00080175
0.000541454
0.000680444
0.00252073
0.000982715
0.00103405
0.000558918
0.000678529
0.000809102
0.000692208
0.000751744
0.00308111
0.00114686
0.000954289
0.00104865
0.000814286
0.000855743
0.000822713
0.000737688
0.000769103
0.00263691
0.00112117
0.000932902
0.00194387
0.00134366
0.00171459
0.000799737
0.00127989
0.000352647
0.000814588
0.00243285
0.00196886
0.000778282
0.00159955
0.0010665
0.00109879
0.000994142
0.000845109
0.000539872
0.00130502
0.00068514
0.00274905
0.00115107
0.00122891
0.00117092
0.000973668
0.000421036
0.000627501
0.000520526
0.000351555
0.000684417
0.000436474
0.000536015
0.00163003
0.00139372
0.000836306
0.000978245
0.000386582
0.000545313
0.000454911
0.000340186
0.000514269
0.000587479
0.000442045
0.000374607
0.000465984
0.000709056
0.000198661
0.000312751
0.000514943
0.000533314
0.000796924
0.000565224
0.000612082
0.000575306
0.0003709
0.000325863
0.000356598
0.000354599
0.000266271
0.000579608
0.000452714
0.000150487
0.000222906
0.000329056
0.000380991
0.000323537
0.000240054
0.000239728
0.000305993
0.000287739
0.000176253
0.000274806
0.000252922
0.000297584
0.000278571
0.00015207
0.000251939
0.000101818
0.000137329
0.000151495
0.000182922
0.000228489
0.000333615
0.000290598
0.000192561
0.000100027
0.000155788
0.0001996
0.000122176
0.000165188
0.00217972
0.00226038
0.000306416
0.00233059
0.00222323
0.000637096
0.000591568
0.000582322
0.0023845
0.00213868
0.000561683
0.000496894
0.000416108
0.000364189
0.00231645
0.000703373
0.000618795
0.000225981
0.000398327
0.000520366
0.00218859
0.000553186
0.000537734
0.000492714
0.000297697
0.000566819
0.000662722
0.00218075
0.000584664
0.000621546
0.000444356
0.000409859
0.000565472
0.000596952
0.00241872
0.000610144
0.000656681
0.000558353
0.000638208
0.00073586
0.000668397
0.000449391
0.00232705
0.00104857
0.00068604
0.000629912
0.000684207
0.000437105
0.000639965
0.000800867
0.000524379
0.0029011
0.000984722
0.00123389
0.00120209
0.000992832
0.000216452
0.000686126
0.000940619
0.000764541
0.00152872
0.00238887
0.00168929
0.000787687
0.00107168
0.00126704
0.001157
0.000901775
0.000808609
0.00116437
0.00179228
0.00112752
0.00265313
0.0011385
0.00111926
0.00076196
0.000797943
0.00151733
0.000860025
0.000728583
0.00102862
0.00044187
0.00106916
0.000692528
0.00267194
0.00126897
0.000394757
0.000782013
0.000899226
0.000792948
0.00100962
0.000269844
0.00054235
0.000507874
0.000485516
0.000493516
0.000491212
0.00100945
0.0010258
0.000776645
0.00144149
0.000624357
0.000577374
0.000584305
0.000374156
0.00028395
0.000670607
0.000297763
0.000459947
0.0004775
0.000409079
0.000669465
0.000134407
0.000324708
0.000747858
0.000554458
0.000741061
0.000532846
0.000550612
0.000454066
0.000389932
0.000363617
0.000371448
0.000353197
0.000247183
0.000265057
0.00058281
0.000371043
0.000109118
0.0003523
0.00034291
0.00037635
0.000256342
0.000237158
0.000176818
0.000202156
0.000262031
0.000131821
0.000108247
0.000210282
0.00030327
0.000369575
0.000267619
0.000187972
0.000186472
9.3206e-05
0.000146551
0.000125148
0.000152628
0.000256473
0.000434013
0.000287252
0.000168542
0.000126917
0.000114532
0.000238621
0.000114343
0.000169233
0.00010332
0.00202816
0.00226037
0.000665174
0.00226297
0.00227987
0.000273206
0.000449855
0.000379635
0.00232535
0.00220791
0.000754163
0.000443077
0.000388222
0.000215129
0.000520429
0.00220212
0.000440581
0.00023814
0.000391908
0.00049114
0.000362621
0.00223707
0.000581647
0.00042617
0.00034256
0.000258741
0.000354553
0.000367744
0.00227527
0.000368962
0.000581767
0.000477953
0.000320107
0.000305217
0.000672539
0.000567113
0.00225162
0.000613159
0.000524871
0.00064756
0.000457493
0.000427867
0.000598304
0.000464364
0.00246838
0.000554992
0.000597045
0.00062275
0.000592397
0.000550724
0.000624662
0.000936467
0.00078004
0.0025247
0.000763747
0.000773359
0.000697903
0.000644989
0.000452307
0.000717755
0.00100884
0.000794655
0.000674624
0.00277013
0.00109123
0.00115415
0.000886455
0.00109999
0.00158726
0.000267451
0.000444171
0.00067908
0.000608231
0.00119006
0.00273221
0.00201552
0.000670561
0.000672707
0.00087197
0.0020367
0.000466129
0.00085345
0.00100277
0.000555262
0.000715338
0.00102899
0.00239118
0.00031467
0.00166608
0.000869837
0.00074714
0.00123753
0.00113078
0.000883624
0.000736228
0.000782742
0.000587686
0.000540611
0.000559768
0.00274811
0.000985001
0.000773189
0.0015039
0.000896058
0.000716008
0.000576459
0.00102886
0.000631975
0.000835427
0.000638249
0.0005746
0.000382159
0.000464426
0.00101159
0.00108798
0.000641189
0.000709258
0.00046515
0.000520578
0.000420151
0.000510031
0.000359166
0.000259251
0.000253741
0.000516128
0.000597282
0.000421327
0.000434035
0.000544605
0.000155677
0.000454699
0.0012598
0.000625479
0.000748176
0.000628687
0.000479677
0.000362128
0.000326047
0.000363665
0.000369416
0.000342261
0.000298963
0.00027005
0.000266482
0.000556
0.000321733
0.000262605
0.000616813
0.000358249
0.000377329
0.00023012
0.000233241
0.000153431
0.00013586
0.000246138
0.000141157
0.000109959
0.000296966
0.000291248
0.000353956
0.000259071
0.000281035
0.000189979
0.000207357
9.60334e-05
0.000152896
0.000117252
9.78119e-05
0.000367281
0.000504156
0.000292829
0.000165509
8.8336e-05
0.000153142
0.000164102
9.75427e-05
0.000171487
0.000107712
0.000141727
0.00201723
0.00204622
0.000236366
0.00221364
0.00233445
0.00077343
0.000332406
0.000803663
0.00220644
0.00223327
0.000512954
0.000317158
0.000364993
0.000350674
0.000316152
0.00216621
0.000530973
0.000487012
0.00039053
0.000193419
0.000257257
0.000493424
0.00221371
0.000325297
0.000484361
0.000389463
0.000163891
0.000610226
0.000581746
0.00222532
0.000440944
0.000666387
0.000549192
0.000411984
0.000200044
0.000596476
0.000396903
0.00217439
0.000382179
0.000559042
0.000508973
0.000516379
0.000420758
0.000362124
0.000636864
0.000525884
0.00221817
0.000586462
0.000507083
0.000558713
0.000745112
0.000333308
0.000436959
0.000680428
0.000513181
0.00242591
0.00043871
0.000778982
0.000660263
0.000708749
0.000526154
0.000483863
0.000743129
0.000713685
0.000576693
0.0025343
0.00048665
0.000809386
0.000507465
0.000427879
0.000632875
0.000857831
0.000803676
0.00069944
0.000532866
0.00042079
0.00277962
0.000976351
0.00114256
0.000694962
0.000589212
0.000839913
0.000712086
0.000499976
0.000823946
0.000538333
0.000613871
0.000804714
0.00289886
0.00200241
0.00161274
0.000850202
0.000754328
0.00121864
0.0007442
0.000563669
0.000836864
0.00035527
0.000511732
0.000736038
0.000652744
0.00248959
0.000732736
0.000519946
0.000386937
0.000184456
0.000872943
0.00113015
0.000779789
0.00076556
0.00063281
0.000875315
0.000464827
0.000570984
0.000673967
0.00213588
0.00113401
0.000703929
0.000986881
0.00193187
0.000814857
0.00103699
0.000749187
0.00042199
0.000480324
0.000207115
0.000435166
0.000429514
0.000389996
0.000322292
0.000923219
0.00094198
0.000533805
0.000944414
0.000656782
0.00052889
0.000847786
0.000306791
0.000577964
0.000211428
0.000390304
0.000632895
0.000515152
0.000358706
0.000562694
0.000430606
0.000620086
0.000204217
0.000359438
0.00110896
0.000686309
0.000772037
0.000643826
0.000470862
0.000369921
0.000399883
0.000447871
0.000413301
0.000320482
0.000327698
0.000273966
0.000292414
0.000349115
0.00056142
0.000290678
0.000251571
0.000348766
0.000330136
0.000376019
0.000214958
0.000192867
0.000147171
0.000149494
0.000163595
0.000151328
0.000199651
0.000185995
0.000265323
0.000379565
0.000317058
0.000208959
0.000365366
0.000144253
7.06971e-05
9.92505e-05
0.000151832
0.00012101
0.000119958
0.000437058
0.000515996
0.000300861
0.000147908
6.92446e-05
0.000159907
0.00015467
9.42002e-05
0.000172223
0.000117229
8.48108e-05
5.64608e-05
0.00202374
0.00201307
0.000451093
0.00216184
0.0020395
0.000232792
0.000171895
0.000293029
0.00211791
0.00233035
0.000547905
0.000381594
0.000294225
0.000415392
0.000547425
0.00225231
0.000755903
0.000372467
0.000282783
0.000164154
0.000373472
0.000375684
0.00216694
0.000600962
0.000849418
0.000378172
0.000208143
0.000240008
0.000508134
0.000308382
0.00218361
0.000648784
0.000713889
0.000415784
0.000241754
0.00034712
0.000889245
0.000742998
0.00217033
0.000415817
0.000651923
0.00050563
0.000367336
0.000362965
0.00032538
0.000443429
0.000398468
0.00212468
0.000405893
0.000428477
0.000558784
0.00055667
0.000619131
0.000469258
0.000665832
0.000351558
0.00060889
0.0023845
0.000509062
0.000540028
0.000630652
0.000615528
0.000714201
0.000614601
0.00060213
0.000391237
0.000476345
0.00235955
0.000609068
0.000516184
0.000732258
0.000627949
0.000837649
0.000679737
0.000478814
0.000702019
0.000555168
0.000668381
0.00247014
0.000496971
0.00064538
0.000464562
0.000591809
0.00082976
0.000877421
0.000725075
0.000737037
0.000654373
0.000782331
0.000939493
0.00277604
0.00135993
0.00150595
0.000955349
0.00086378
0.000544847
0.000588941
0.000512465
0.000577488
0.00062799
0.00033056
0.000483041
0.000542296
0.00266354
0.00116012
0.00153055
0.000818317
0.00100428
0.000645912
0.000893355
0.00065495
0.000531483
0.000570714
0.000664054
0.000570422
0.000794154
0.000641737
0.00264445
0.000845519
0.000210468
0.000860825
0.000506374
0.000735986
0.00105224
0.000557335
0.000620859
0.000827448
0.00102664
0.000373296
0.000410609
0.000549501
0.0006226
0.00199499
0.00145199
0.000533232
0.00174098
0.000658379
0.00084535
0.000882977
0.000540615
0.00062901
0.000316211
0.000281346
0.000389439
0.000456907
0.000277158
0.00036494
0.000522386
0.00114449
0.000925489
0.00067035
0.000665554
0.000771777
0.000644667
0.00086504
0.000609329
0.00042611
0.000305238
0.000376963
0.000461149
0.000433537
0.000667582
0.000448859
0.000176902
0.000279724
0.000613229
0.000203597
0.000329213
0.000855088
0.000900828
0.000758752
0.000492037
0.000411136
0.000413127
0.000411911
0.000534924
0.000399843
0.000399466
0.000395414
0.00031574
0.000373216
0.000294812
0.000242562
0.00058184
0.000255766
0.000183585
0.000606031
0.000327109
0.00036315
0.000200772
0.000197646
0.0001539
0.000143531
0.000148255
0.000238544
0.000216781
0.000149453
0.00027772
0.000394078
0.00034499
0.000243875
0.000224351
0.00030487
0.000453516
0.000217685
0.000115728
0.000138691
0.000102442
0.000185099
0.000476269
0.000503688
0.00028963
0.000113631
7.91253e-05
0.000150879
0.000169827
9.37461e-05
0.000169441
0.000140614
5.88263e-05
5.11837e-05
8.20127e-05
0.00211271
0.00200467
0.000338013
0.00214524
0.00204847
0.000344858
0.000336525
0.000371693
0.00216379
0.00208305
0.000370202
0.000287821
0.000179368
0.000222235
0.000397506
0.00230975
0.000414772
0.000425539
0.000389363
0.000264067
0.000454063
7.83067e-05
0.00221726
0.00063635
0.000380044
0.000435167
0.000260625
0.000353413
0.000248321
0.000275429
0.00218337
0.00057532
0.000498948
0.000649588
0.000411375
0.000335187
0.00037972
0.000560699
0.000562074
0.00222301
0.00059084
0.000275985
0.00053406
0.000412012
0.000425174
0.000351925
0.000489297
0.000322211
0.00230981
0.000453149
0.000513648
0.000489652
0.00042359
0.000508388
0.000404513
0.000328036
0.000362626
0.000318397
0.00215383
0.000483948
0.000488167
0.00073974
0.000533431
0.000501965
0.000567729
0.000457755
0.000423315
0.000361891
0.000572864
0.00236632
0.000368293
0.000506266
0.000628076
0.000491045
0.000605797
0.000576617
0.000786267
0.000644557
0.000531727
0.000532399
0.00240702
0.000584637
0.000545593
0.000743379
0.000685206
0.000658019
0.000545013
0.000752336
0.000753124
0.000794962
0.000714019
0.0006203
0.0024227
0.00074804
0.000802124
0.000817517
0.000711473
0.000838306
0.000693572
0.00082555
0.000850521
0.000659908
0.000764197
0.000873178
0.000911873
0.0026006
0.00146155
0.00100536
0.000826736
0.000564813
0.00100223
0.000560643
0.00055226
0.000367172
0.000170126
0.000187319
0.00015203
0.000354847
0.000352754
0.00229252
0.000321186
0.000993922
0.000875866
0.000382617
0.000493618
0.000696374
0.000585332
0.000385564
0.000459311
0.000553393
0.000685534
0.000478468
0.000822422
0.000554128
0.0024335
0.000572793
0.00038999
0.000578921
0.000579544
0.00040848
0.000844472
0.000741087
0.000688728
0.000462917
0.000784678
0.000840334
0.000450979
0.000470014
0.000435026
0.000683451
0.0031052
0.00113059
0.000494878
0.000954412
0.000942338
0.000747037
0.00129994
0.00120849
0.000628026
0.000218779
0.000363142
0.000467341
0.00048227
0.000280073
0.000462537
0.00065527
0.000209798
0.00113124
0.000707156
0.00116568
0.000857585
0.000912109
0.000720879
0.000919965
0.000625029
0.00041244
0.000398621
0.000523626
0.000462101
0.00061479
0.000742577
0.000294784
0.00014729
0.000402427
0.000464019
0.000594975
0.000228211
0.000311931
0.00126888
0.001099
0.00084996
0.000383187
0.000547273
0.000401349
0.000473692
0.000589842
0.000417729
0.000415903
0.000429882
0.000423788
0.000388694
0.000300628
0.000236198
0.000292044
0.000609064
0.00022971
0.00019449
0.000406571
0.000355702
0.000343783
0.000194181
0.000201186
0.000140955
0.000149087
0.000124364
0.000164774
0.000172133
0.000207394
0.000272286
0.00024354
0.000369099
0.000313792
0.000229133
0.000306582
0.000437401
0.000227687
0.000377392
0.000138675
0.000150024
9.42494e-05
0.000235851
0.000465351
0.000470267
0.000274549
0.000100705
6.999e-05
0.00019715
0.000162401
8.55506e-05
0.000170213
0.000162479
8.0145e-05
8.40793e-05
8.9418e-05
7.2156e-05
0.0020856
0.00208693
0.000748638
0.00220336
0.00203055
0.000324549
0.000374534
0.000502465
0.00218293
0.00204781
0.000343886
0.000303134
0.000268619
0.000350999
0.000385217
0.00211984
0.000551603
0.000320433
0.000356507
0.000291816
0.000195999
0.000215207
0.00227379
0.000371454
0.000505278
0.00051495
0.000307555
0.000145996
0.000228861
0.0002378
0.00215787
0.000569431
0.000470242
0.000433992
0.000369155
0.000319546
0.000450254
0.00036079
0.000344388
0.00224886
0.00036886
0.000524225
0.000555738
0.000556367
0.000421658
0.000320011
0.000446292
0.00098012
0.000522253
0.00217148
0.000293028
0.000643251
0.000664228
0.000544254
0.000438158
0.000404513
0.000281106
0.000555368
0.000422386
0.00219782
0.000479499
0.000585968
0.000666947
0.000399971
0.000311666
0.000399321
0.000279924
0.000531263
0.000520902
0.000296526
0.00202782
0.000387336
0.000503955
0.000546481
0.000576978
0.000463659
0.000296943
0.000310759
0.000526384
0.000447841
0.000358859
0.000455015
0.002398
0.000465452
0.000354936
0.000556878
0.000682267
0.00049027
0.000412306
0.000371065
0.000580131
0.000533589
0.000325464
0.000530039
0.00242276
0.000781963
0.000714174
0.000582394
0.000621816
0.000480632
0.000575534
0.000468427
0.00065036
0.000664545
0.000736765
0.000595332
0.000469346
0.00242186
0.000711863
0.000939498
0.000645217
0.00063081
0.00047731
0.000780203
0.00048343
0.000847887
0.000898901
0.000897389
0.000669212
0.000725061
0.000825218
0.00239459
0.000893246
0.000786818
0.000785036
0.000772009
0.000826337
0.000735932
0.000436004
0.00070602
0.000719655
0.000309589
0.00043537
0.000163805
0.000267038
0.000457331
0.00260503
0.000794335
0.00058212
0.00139166
0.000522754
0.000376838
0.000947823
0.00063943
0.000447985
0.000175261
0.000917314
0.00090091
0.000491957
0.000747307
0.000804046
0.000607953
0.00315606
0.000977704
6.23079e-05
0.000604475
0.000275025
0.000323746
0.00120172
0.00050695
0.000490254
0.000627257
0.00107242
0.000679457
0.0010224
0.000557665
0.0009734
0.000696272
0.000931768
0.00278732
0.00102487
0.000726279
0.000882823
0.000792251
0.000661657
0.000876386
0.000816303
0.000393937
0.000387129
0.000181012
0.000446643
0.000414078
0.000327445
0.000438587
0.000666479
0.000291769
0.000414062
0.00113667
0.000607094
0.00100047
0.00127181
0.000907873
0.000621845
0.000815955
0.000650537
0.000535074
0.00048129
0.000754213
0.000486031
0.000747275
0.000514491
0.000179573
0.000374492
0.000366044
0.000243077
0.000788149
0.000648043
0.000166421
0.000364717
0.00110431
0.00117414
0.000904671
0.000539544
0.000470917
0.00040237
0.00052986
0.000510801
0.000491872
0.000493063
0.000498256
0.00047166
0.00054586
0.000390305
0.000212025
0.000370309
0.000345385
0.000622224
0.000348195
0.000399426
0.000188376
0.000366428
0.000323927
0.000152947
0.000186405
0.000125371
0.000142269
0.000140137
0.000149423
0.000191184
0.00024101
0.000276231
0.00029355
0.000331258
0.000309398
0.000260848
0.000372145
0.00012182
0.00034154
0.000212727
0.000128466
0.000135976
9.58401e-05
0.000101061
0.000254072
0.00043081
0.000399185
0.000240279
0.000106922
8.10313e-05
0.000180126
0.000154556
8.4778e-05
0.000172569
0.000206974
9.89799e-05
0.000101107
0.000105709
7.06359e-05
0.000131289
0.00202776
0.00209792
0.000287457
0.00223189
0.00208099
0.000624388
0.000321538
0.000540643
0.00224309
0.00200842
0.000371798
0.000192586
0.00030737
0.000421406
0.000439103
0.00200891
0.00018604
0.000290184
0.000196127
0.00018842
0.000322288
0.000257421
0.00215298
0.000407367
0.000319481
0.000308956
0.000274972
0.000193937
0.000492901
0.000336893
0.00227631
0.000611416
0.00048916
0.000457523
0.000358235
9.50236e-05
0.000380764
0.000382028
0.000296269
0.00220017
0.000574944
0.000321432
0.000299092
0.000292467
0.000319007
0.000407158
0.000438365
0.000491965
0.000356934
0.00221577
0.00049861
0.000473552
0.000309867
0.000459867
0.000360816
0.00037034
0.000297882
0.000293572
0.000664846
0.000326416
0.00210366
0.000256
0.000465798
0.000486977
0.000402706
0.000284719
0.000340723
0.000309162
0.000274177
0.00046947
0.000462392
0.00222801
0.000533144
0.000379245
0.000347395
0.000472357
0.000465003
0.000303357
0.000329886
0.000320844
0.00060277
0.000573447
0.000511954
0.0021968
0.000582107
0.000320233
0.0004414
0.000629405
0.000690605
0.000448356
0.000401295
0.000431709
0.000550678
0.000592783
0.000664587
0.000465613
0.0024106
0.000540995
0.000460175
0.000559471
0.000510324
0.000595982
0.000663782
0.00040385
0.000527373
0.00052709
0.000760014
0.000705706
0.000467598
0.0024107
0.000796145
0.000669972
0.00047198
0.00059182
0.000689955
0.000620163
0.00039212
0.000345698
0.00054341
0.000858736
0.000622668
0.0007092
0.000531233
0.00233405
0.000714355
0.0006661
0.000748012
0.000702334
0.000752157
0.000752088
0.000572747
0.000457364
0.000723306
0.00100765
0.000597688
0.000738893
0.000677351
0.000843474
0.00283045
0.00103437
0.000851172
0.000691263
0.000877982
0.000922353
0.000594817
0.000625568
0.000421015
0.000517949
0.000728014
0.000657395
0.000467235
0.00047275
0.00064555
0.000504235
0.00227711
0.00069664
0.000426576
0.00107493
0.000949883
0.000552005
0.000384265
0.000643762
0.000365883
0.000257794
0.000479301
0.000681401
0.000637697
0.000644808
0.000858727
0.00073548
0.000936394
0.00230054
0.000799573
0.000164866
0.000534106
0.000699151
0.000374362
0.000348591
0.000874981
0.000524227
0.000420743
0.000511857
0.00107339
0.000943135
0.000828785
0.000723805
0.00102607
0.00104153
0.000661121
0.00249385
0.000675968
0.000666525
0.000476007
0.000921626
0.000656896
0.000817672
0.000692399
0.000754422
0.00023865
0.000274244
0.000637338
0.000478275
0.00027172
0.000666617
0.000851781
0.000221567
0.000284124
0.000371166
0.00130436
0.00043274
0.000625422
0.0014895
0.000867004
0.00105506
0.000833681
0.0006687
0.00056763
0.000489622
0.000683808
0.00074474
0.000792837
0.000439261
0.000207422
0.000389589
0.000387514
0.000241789
0.000825109
0.000528938
0.000790012
0.000248044
0.000707158
0.00107244
0.00120888
0.000771213
0.000530783
0.000527551
0.000497878
0.000601313
0.000503643
0.000446529
0.000518628
0.00054659
0.000490667
0.000576672
0.000350865
0.00023146
0.00036615
0.000372358
0.000167068
0.00065863
0.000390664
0.000359609
0.000214344
0.000418273
0.000281966
0.000149605
0.000180817
0.000134793
0.00018091
0.000137042
0.000262207
0.000234959
0.000347669
0.000301542
0.000237505
0.000621729
0.000277615
0.000219528
0.000258906
0.000142773
0.000119271
0.000407385
0.000263849
0.000113996
0.000148433
0.000127332
0.000100618
0.000270917
0.000372407
0.000288557
0.000167225
0.000102892
9.89814e-05
0.000143007
0.000151073
0.000109245
0.000205371
0.000150643
9.53471e-05
0.000112448
0.000105487
7.12353e-05
0.000122271
0.000161931
0.00202139
0.00196278
0.000358238
0.00223998
0.00210137
0.000366017
0.000363173
0.000360895
0.00226647
0.00206221
0.000434604
0.000565306
0.000299746
0.000212341
0.000561588
0.00204861
0.000319675
0.000335395
0.000260189
0.000296975
0.000348322
0.000445876
0.00208232
0.00029526
0.000221918
0.000221814
0.000210947
0.000212495
0.000237199
0.000316016
0.0021645
0.000433177
0.000312737
0.000368163
0.000333228
0.000186902
0.000301418
0.00011147
0.000409013
0.00228481
0.000622132
0.000332941
0.000507207
0.000500988
0.000130275
0.000295768
0.000433374
0.000493121
0.000395836
0.00222694
0.000341997
0.000467516
0.000381112
0.000482871
0.000314041
0.000304629
0.000505109
0.000451317
0.000529318
0.000498123
0.00217135
0.000373886
0.000374581
0.000284992
0.000204661
0.000349998
0.000264161
0.000377034
0.000462271
0.000498228
0.000522925
0.000520912
0.00208016
0.000327648
0.000166771
0.000315382
0.000358521
0.000285048
9.40919e-05
0.000259924
0.000235966
0.000408753
0.000500966
0.000409059
0.00221045
0.000468706
0.000453681
0.000449164
0.000360421
0.000228757
0.000379837
0.000275449
0.000409171
0.000618772
0.000637791
0.000435565
0.000470589
0.00215544
0.000411144
0.000519553
0.000479035
0.000402998
0.000470286
0.000532393
0.000516887
0.000451471
0.000491455
0.00108122
0.000652495
0.000503884