/*--------------------------------*- C++ -*----------------------------------*\
  =========                 |
  \\      /  F ield         | OpenFOAM: The Open Source CFD Toolbox
   \\    /   O peration     | Website:  https://openfoam.org
    \\  /    A nd           | Version:  7
     \\/     M anipulation  |
\*---------------------------------------------------------------------------*/
FoamFile
{
    version     2.0;
    format      ascii;
    class       volScalarField;
    location    "2.5";
    object      p;
}
// * * * * * * * * * * * * * * * * * * * * * * * * * * * * * * * * * * * * * //

dimensions      [0 2 -2 0 0 0 0];

internalField   nonuniform List<scalar> 
18750
(
-65.0079
-65.9291
-65.3215
-66.9771
-64.9404
-66.0242
-66.889
-65.6704
-67.1076
-68.5776
-66.0695
-65.2448
-62.35
-66.0954
-67.0912
-68.9635
-66.0084
-67.3109
-68.6086
-68.9187
-65.9252
-66.9501
-67.4239
-65.4383
-65.6364
-68.6155
-66.1133
-67.2394
-68.9764
-69.0743
-66.2851
-67.5795
-68.6469
-68.9029
-68.999
-64.3169
-67.2401
-66.6568
-67.1556
-68.191
-67.0781
-65.5227
-67.4523
-68.8446
-68.9041
-66.1264
-67.3487
-69.0046
-69.0472
-68.8316
-66.4785
-67.869
-68.6815
-68.8895
-68.9873
-69.2837
-61.7996
-65.1547
-65.7933
-68.0139
-67.516
-66.2349
-67.1138
-68.85
-67.292
-67.6533
-65.6011
-67.6568
-69.0771
-68.8949
-69.0802
-66.1752
-67.5956
-69.0454
-69.0335
-68.7912
-69.0805
-66.5702
-68.142
-68.7132
-68.8752
-68.9718
-69.2849
-69.5811
-61.1384
-62.1959
-63.1419
-65.9273
-65.9376
-65.1601
-67.8986
-68.5641
-66.4893
-66.4071
-66.7822
-69.428
-67.7768
-67.7102
-68.4211
-65.5428
-67.8674
-69.1214
-68.8553
-69.0003
-69.0917
-66.2819
-67.9219
-69.0965
-69.0195
-68.7543
-69.0586
-69.3283
-66.5871
-68.366
-68.7394
-68.8661
-68.9559
-69.2787
-69.5826
-69.6783
-60.1928
-61.1146
-62.0418
-62.6679
-63.4694
-63.9116
-65.9362
-66.6825
-65.2011
-65.4606
-67.3252
-69.6333
-67.2515
-66.5072
-66.4837
-66.1937
-69.2762
-68.4107
-67.8603
-68.5139
-69.1049
-65.4968
-68.1478
-69.1222
-68.7547
-68.8765
-68.9483
-69.1198
-66.4543
-68.186
-69.1537
-69.0237
-68.7507
-69.0454
-69.3337
-69.6643
-66.657
-68.5196
-68.7608
-68.8635
-68.9414
-69.2727
-69.5877
-69.6875
-69.8738
-59.206
-60.1656
-60.2726
-61.1483
-62.0294
-62.4333
-63.1628
-63.5735
-64.0246
-64.2772
-65.5888
-67.583
-65.2541
-65.2983
-65.9013
-66.3382
-70.4148
-68.1766
-66.9295
-66.698
-67.5394
-65.413
-68.9687
-69.1801
-67.9667
-68.7479
-69.1993
-69.3674
-65.4888
-68.3831
-69.2911
-68.6407
-68.7356
-68.8949
-69.1147
-69.1962
-66.6474
-68.4191
-69.2189
-69.0166
-68.7501
-69.0378
-69.3472
-69.7085
-70.1225
-66.8063
-68.6399
-68.7908
-68.8614
-68.93
-69.2674
-69.5944
-69.6956
-69.8923
-70.2251
-58.4803
-59.0835
-59.3393
-60.0622
-60.309
-60.5822
-61.2729
-61.8993
-62.3185
-62.3924
-63.1563
-63.5203
-64.2785
-64.1258
-64.5622
-64.7099
-68.9439
-65.4829
-65.8165
-66.2442
-66.8727
-65.1731
-70.8897
-69.028
-67.4075
-67.0759
-67.6925
-68.3048
-64.8731
-68.6756
-69.6536
-68.3118
-68.8406
-69.297
-69.4701
-69.469
-65.6399
-68.6717
-69.51
-68.5947
-68.6711
-68.8605
-69.1084
-69.3323
-70.0455
-66.8162
-68.5932
-69.2861
-68.9812
-68.7518
-69.0321
-69.3688
-69.7571
-70.1847
-70.4509
-67.0083
-68.7409
-68.8046
-68.8532
-68.9187
-69.2627
-69.5983
-69.7057
-69.9154
-70.2389
-70.3017
-57.8286
-58.4279
-58.6198
-59.0506
-59.1954
-59.6342
-60.0933
-60.3979
-60.4407
-60.5173
-61.3383
-61.7722
-62.2402
-62.2846
-62.4165
-63.3715
-63.7293
-63.8714
-64.5646
-64.794
-65.1878
-64.5439
-69.3794
-66.3549
-66.2158
-66.5984
-67.1607
-67.1609
-64.6071
-70.9141
-69.5858
-67.8478
-67.4052
-67.927
-68.4067
-68.5438
-64.6755
-68.3599
-69.7722
-68.6637
-68.7262
-69.3476
-69.5661
-69.6196
-70.2578
-66.0421
-68.8549
-69.6529
-68.6027
-68.6124
-68.7794
-69.0941
-69.4784
-70.208
-71.0095
-67.0054
-68.7065
-69.3438
-68.9428
-68.7475
-69.0256
-69.3965
-69.808
-70.2454
-70.5397
-70.6271
-67.2212
-68.7537
-68.8035
-68.8424
-68.9108
-69.2588
-69.6029
-69.7226
-69.9431
-70.2505
-70.3206
-70.3861
-57.3443
-57.7768
-57.6939
-57.8495
-58.4266
-58.6358
-58.5814
-59.1321
-59.2251
-59.4863
-59.5026
-60.1439
-60.4129
-60.1882
-60.7269
-61.0228
-61.544
-61.5982
-62.1234
-61.9449
-62.4143
-63.0134
-63.7839
-63.8328
-63.7904
-64.9498
-65.0546
-65.3796
-65.3116
-64.8687
-69.6261
-67.1399
-66.8677
-66.9888
-67.0731
-67.2435
-67.0192
-64.4738
-70.4518
-69.7691
-68.4051
-67.6998
-68.083
-68.6291
-68.8106
-69.4103
-64.6272
-68.0485
-69.8041
-68.7611
-68.8384
-69.3099
-69.6507
-69.7659
-70.4591
-71.0861
-66.6435
-69.0163
-69.7142
-68.599
-68.5569
-68.7396
-69.1126
-69.6351
-70.3847
-71.1745
-71.7275
-67.2388
-68.7586
-69.3782
-68.8904
-68.7383
-69.0204
-69.4067
-69.8644
-70.3094
-70.6261
-70.6981
-70.9575
-67.308
-68.7266
-68.82
-68.8341
-68.9047
-69.2559
-69.6097
-69.744
-69.963
-70.2587
-70.3372
-70.3979
-70.3212
-57.0368
-57.3409
-57.3465
-57.3972
-57.8111
-57.6104
-57.9835
-57.9237
-58.5006
-58.4474
-58.5865
-58.8104
-59.079
-59.1665
-59.3968
-59.462
-59.8149
-60.2193
-60.3691
-60.1185
-60.3906
-60.8878
-61.4838
-61.7413
-61.2859
-61.8006
-62.1961
-62.4803
-63.0896
-63.234
-64.3522
-63.9466
-63.9504
-64.3164
-65.2192
-65.4103
-65.3641
-65.2499
-64.79
-69.8221
-67.3239
-67.581
-67.1797
-67.2411
-67.3883
-67.16
-67.6929
-64.4414
-69.7276
-69.7735
-68.7423
-67.9291
-68.1902
-68.8192
-69.0455
-69.7078
-70.2332
-64.8952
-67.7616
-69.9582
-68.8371
-68.9501
-69.3114
-69.7076
-69.9174
-70.6502
-71.4276
-71.8015
-67.1393
-69.2249
-69.7282
-68.5474
-68.5051
-68.7365
-69.1711
-69.768
-70.5602
-71.2579
-71.8693
-72.1343
-67.504
-68.8444
-69.3821
-68.8254
-68.7248
-69.0161
-69.4196
-69.9424
-70.3636
-70.6935
-70.7652
-71.018
-71.2475
-67.3278
-68.7191
-68.8493
-68.8299
-68.9019
-69.2541
-69.6193
-69.7717
-69.977
-70.2769
-70.3499
-70.4086
-70.3243
-70.1806
-56.6499
-57.0229
-57.0902
-57.0232
-57.3708
-57.3203
-57.4651
-57.4309
-57.8831
-57.7295
-57.9479
-57.9372
-58.0141
-58.5455
-58.4764
-58.5314
-58.5508
-58.6993
-59.0699
-59.1818
-59.264
-59.3986
-59.7091
-59.9051
-60.1815
-60.4051
-60.0304
-60.2828
-60.7974
-61.5006
-61.7015
-61.8904
-61.0239
-61.4062
-62.0425
-62.4414
-63.1035
-63.3423
-63.5674
-64.8154
-64.0536
-64.0449
-64.5544
-65.2489
-65.4112
-65.6141
-65.3698
-65.4016
-64.8739
-69.0422
-67.508
-68.195
-67.3418
-67.4918
-67.5198
-67.2978
-67.9827
-68.409
-64.4503
-68.49
-69.6428
-69.1316
-68.2114
-68.273
-68.9415
-69.2479
-69.9515
-70.575
-71.1005
-65.5552
-67.6844
-69.7042
-69.1314
-68.9065
-69.3077
-69.7677
-70.0407
-70.8779
-71.7651
-72.0438
-72.5132
-67.5956
-69.3334
-69.709
-68.3958
-68.4987
-68.7657
-69.2467
-69.9004
-70.7957
-71.3458
-71.9953
-72.2733
-72.439
-67.7443
-68.9364
-69.371
-68.7595
-68.7105
-69.0165
-69.4555
-70.0074
-70.4066
-70.7567
-70.83
-71.0746
-71.2977
-71.1354
-67.43
-68.7231
-68.8815
-68.8239
-68.9029
-69.2538
-69.6328
-69.7953
-69.9912
-70.301
-70.3596
-70.4199
-70.3265
-70.1795
-70.0493
-56.4044
-56.6565
-56.6857
-56.6562
-57.0337
-57.0641
-57.1023
-56.8963
-57.383
-57.5546
-57.4626
-57.3876
-57.4058
-57.8642
-57.8619
-57.8546
-57.9333
-58.0346
-58.0015
-58.5526
-58.5575
-58.4722
-58.5848
-58.7055
-58.8274
-59.0824
-59.2125
-59.1969
-59.3049
-59.5905
-59.7912
-59.9848
-59.9437
-60.2714
-60.1201
-60.5136
-60.7513
-61.3346
-61.62
-62.1303
-61.3879
-61.073
-61.5928
-61.8578
-62.5122
-63.1231
-63.4829
-63.6004
-63.8285
-64.2792
-64.5686
-64.1302
-65.0471
-65.1002
-65.3268
-65.8614
-65.7973
-65.9234
-66.5395
-64.9183
-67.8318
-67.7834
-68.4494
-67.7561
-67.8479
-67.5195
-67.533
-68.2961
-68.7387
-68.8347
-64.6842
-67.3902
-69.197
-69.0334
-68.2584
-68.3946
-69.1261
-69.4262
-70.1494
-70.8794
-71.4494
-71.5056
-66.3336
-67.6565
-69.6575
-69.195
-68.8692
-69.2311
-69.7923
-70.1982
-71.1057
-72.1165
-72.2591
-72.7267
-73.522
-68.1483
-69.4133
-69.6802
-68.3251
-68.5181
-68.8122
-69.3276
-70.0567
-71.0093
-71.5315
-72.0888
-72.3823
-72.5825
-72.5322
-67.9447
-69.0151
-69.3536
-68.7
-68.7051
-69.0244
-69.5105
-70.0328
-70.4601
-70.8104
-70.8869
-71.1249
-71.3396
-71.1625
-70.7755
-67.6514
-68.7159
-68.9112
-68.8188
-68.9033
-69.2546
-69.6503
-69.8131
-70.011
-70.315
-70.3683
-70.4299
-70.3276
-70.175
-70.0396
-69.7546
-56.1333
-56.4403
-56.483
-56.3838
-56.6794
-56.8153
-56.6558
-56.6478
-56.5488
-57.0434
-57.0962
-57.098
-57.0582
-57.0331
-57.384
-57.4972
-57.479
-57.5187
-57.5634
-57.374
-57.8669
-57.8858
-57.8935
-57.9122
-58.0884
-58.1067
-58.0806
-58.57
-58.5816
-58.5332
-58.5819
-58.6867
-58.8319
-58.8759
-59.048
-59.1257
-59.1803
-59.3672
-59.6153
-59.7177
-59.9746
-60.2298
-59.6502
-60.2218
-60.207
-60.612
-60.7786
-61.2226
-61.5508
-62.0243
-62.1847
-61.0814
-61.3585
-61.6558
-61.5899
-62.449
-62.9021
-63.4066
-64.0168
-63.8073
-64.1806
-63.9695
-64.7681
-64.2632
-64.6362
-65.0158
-65.7961
-65.9152
-65.9156
-66.107
-66.7611
-66.5081
-64.8237
-67.1922
-68.4874
-68.4902
-67.8
-68.0091
-67.5981
-67.9119
-68.5819
-69.0182
-68.9018
-68.9177
-65.0092
-66.6812
-68.6565
-69.0676
-68.2201
-68.4305
-69.2364
-69.6518
-70.3252
-71.2384
-71.7181
-71.7608
-72.2893
-67.2372
-67.7958
-69.5223
-68.4691
-68.8212
-69.2212
-69.7726
-70.3839
-71.3553
-72.2727
-72.4421
-72.9354
-73.7692
-74.0707
-68.7104
-69.5418
-69.6356
-68.266
-68.5257
-68.8726
-69.4098
-70.2176
-71.0929
-71.6651
-72.0974
-72.464
-72.7128
-72.6782
-72.4419
-68.0991
-69.0789
-69.3228
-68.6558
-68.7114
-69.0384
-69.5635
-70.0597
-70.5268
-70.8547
-70.9348
-71.1679
-71.3769
-71.1804
-70.7606
-70.3729
-67.8518
-68.6906
-68.9332
-68.8132
-68.904
-69.2562
-69.667
-69.8375
-70.0412
-70.326
-70.3784
-70.4365
-70.3264
-70.1706
-70.028
-69.7414
-69.4718
-55.9506
-56.1488
-56.1344
-56.126
-56.4805
-56.4811
-56.4156
-56.431
-56.3264
-56.6743
-56.6815
-56.6338
-56.6846
-56.6771
-56.5467
-57.0234
-57.0538
-57.0762
-57.0882
-57.1512
-57.068
-57.4108
-57.5042
-57.5147
-57.5274
-57.5733
-57.5924
-57.4896
-57.9027
-57.8835
-57.8725
-57.8964
-58.0318
-58.1268
-58.1583
-58.1562
-58.5394
-58.5413
-58.5535
-58.5464
-58.693
-58.7912
-58.9351
-59.0339
-59.0037
-59.1236
-59.1495
-59.3105
-59.5777
-59.7062
-60.0064
-60.1178
-60.3272
-59.7955
-60.2475
-60.2657
-60.4867
-60.6333
-61.121
-61.2811
-61.4812
-61.7735
-62.1255
-61.3256
-61.4507
-61.56
-61.7761
-62.2091
-62.3772
-63.4792
-63.8891
-63.9703
-63.9927
-64.9443
-63.4654
-64.4307
-64.4052
-64.7763
-65.3475
-66.1408
-66.1271
-66.0555
-66.3462
-66.9345
-66.6895
-66.7551
-64.6938
-66.7136
-68.1277
-67.8752
-67.5366
-67.5366
-67.7857
-68.0582
-68.8204
-69.1477
-69.0845
-69.1254
-69.4836
-65.1528
-66.2036
-68.1607
-68.675
-68.2563
-68.49
-69.2887
-69.8149
-70.5201
-71.3397
-71.91
-72.0066
-72.4354
-73.13
-68.1111
-68.2137
-69.2457
-68.6272
-68.6651
-69.2271
-69.8125
-70.4694
-71.6306
-72.3701
-72.6264
-73.1548
-73.9819
-74.2804
-73.9411
-69.1954
-69.6659
-69.5402
-68.215
-68.5335
-68.918
-69.4791
-70.3155
-71.166
-71.7241
-72.1125
-72.5387
-72.8572
-72.7976
-72.5068
-71.6875
-68.1956
-69.1253
-69.2609
-68.5981
-68.7297
-69.0598
-69.6112
-70.0916
-70.5618
-70.8873
-70.9702
-71.2019
-71.4048
-71.181
-70.7388
-70.3458
-69.9202
-67.9438
-68.6765
-68.9502
-68.803
-68.9069
-69.2567
-69.6859
-69.8623
-70.0694
-70.3391
-70.3888
-70.439
-70.3222
-70.1653
-70.0166
-69.7278
-69.4576
-69.2846
-55.8043
-55.9791
-55.9669
-55.937
-56.1516
-56.0982
-56.1636
-56.1135
-56.1028
-56.4834
-56.4841
-56.3839
-56.4484
-56.4842
-56.3425
-56.6775
-56.6986
-56.6746
-56.7186
-56.7392
-56.7151
-56.5094
-57.0344
-57.0607
-57.039
-57.1318
-57.0952
-57.1507
-57.0664
-57.4239
-57.4838
-57.3882
-57.4827
-57.5542
-57.6236
-57.5731
-57.5883
-57.8898
-57.8938
-57.8549
-57.8527
-57.9458
-58.1228
-58.2433
-58.269
-58.1943
-58.5025
-58.5274
-58.5568
-58.5222
-58.6257
-58.8583
-58.951
-59.0087
-59.1403
-58.9775
-59.2409
-59.0819
-59.2348
-59.3696
-59.806
-59.9219
-59.9417
-60.2798
-60.5015
-59.8472
-60.2017
-60.2654
-60.5211
-60.8178
-61.0172
-61.2718
-61.5377
-61.6768
-62.0472
-62.5932
-61.2614
-61.4655
-61.4435
-61.8621
-62.3634
-62.4484
-63.3666
-63.7731
-64.0284
-64.1792
-64.3757
-65.0833
-62.9809
-63.4815
-64.1695
-64.6379
-65.0704
-65.8269
-65.9624
-66.1155
-66.6415
-66.9574
-66.7667
-66.6474
-67.1262
-64.5377
-65.8257
-67.591
-67.5928
-67.4573
-67.696
-67.9127
-68.1021
-68.8365
-69.2318
-69.1493
-69.4015
-69.5348
-70.4968
-65.4829
-66.3619
-67.8203
-68.4282
-68.0182
-68.4285
-69.2739
-69.9009
-70.693
-71.2718
-72.0589
-72.1958
-72.4864
-73.211
-73.5361
-68.9654
-68.544
-69.2163
-68.5757
-68.6257
-69.1878
-69.8492
-70.5861
-71.8705
-72.48
-72.7136
-73.3052
-74.1703
-74.4455
-74.0281
-73.3757
-69.5469
-69.7856
-69.4411
-68.1377
-68.527
-68.9457
-69.5431
-70.3546
-71.2082
-71.7056
-72.1167
-72.5953
-72.9654
-72.886
-72.5372
-71.6288
-70.858
-68.2742
-69.1494
-69.1892
-68.5501
-68.7619
-69.0905
-69.6649
-70.1341
-70.5703
-70.9098
-71
-71.2288
-71.421
-71.1736
-70.7146
-70.3145
-69.8898
-69.6939
-68.0481
-68.6725
-68.9348
-68.7912
-68.9105
-69.2578
-69.703
-69.8823
-70.0936
-70.3525
-70.3962
-70.4378
-70.3169
-70.1577
-70.0055
-69.7132
-69.4415
-69.2681
-68.8857
-55.6552
-55.8073
-55.8091
-55.7808
-55.9529
-55.9996
-55.9675
-55.9518
-55.9516
-56.1221
-56.1425
-56.1698
-56.1642
-56.1764
-56.1291
-56.4713
-56.5075
-56.4345
-56.479
-56.5141
-56.4728
-56.3709
-56.6929
-56.643
-56.6734
-56.7407
-56.7662
-56.7581
-56.6948
-56.6824
-57.0397
-57.0358
-56.962
-57.0543
-57.1561
-57.1856
-57.1645
-57.1161
-57.3834
-57.4288
-57.4176
-57.481
-57.5487
-57.6371
-57.609
-57.7079
-57.5972
-57.8873
-57.8965
-57.8777
-57.9098
-57.9095
-58.0864
-58.1884
-58.2786
-58.4514
-58.2466
-58.4031
-58.5432
-58.5297
-58.516
-58.5841
-58.814
-58.9838
-59.0989
-59.2145
-59.3489
-58.8368
-59.1982
-59.0501
-59.2681
-59.4328
-59.5759
-59.8685
-60.1047
-60.2452
-60.4645
-60.6227
-59.8971
-60.0935
-60.2711
-60.5237
-60.8805
-60.9906
-61.1648
-61.4858
-61.7245
-61.9779
-62.3556
-62.6003
-61.2762
-61.2523
-61.0123
-61.5169
-62.2542
-63.0274
-63.2288
-63.6615
-63.9136
-64.0558
-64.1688
-64.2946
-64.9126
-62.6556
-63.2394
-64.4705
-64.5957
-64.8646
-65.3417
-65.7249
-66.1816
-66.6496
-67.0015
-66.7496
-66.8613
-67.0856
-67.2686
-64.2204
-65.3289
-67.262
-67.5505
-67.3923
-67.7752
-68.2284
-68.359
-68.8158
-69.1791
-69.2929
-69.5737
-69.5056
-70.5432
-71.8994
-66.2067
-66.668
-67.4012
-68.1987
-68.0937
-68.4301
-69.2826
-69.8939
-70.6754
-71.2491
-72.2906
-72.3211
-72.452
-73.1876
-73.519
-73.4181
-69.6225
-68.818
-69.1451
-68.1523
-68.3959
-69.1441
-69.9243
-70.7086
-71.9853
-72.5547
-72.7622
-73.3561
-74.2896
-74.5625
-74.0238
-73.286
-72.4312
-69.7396
-69.9202
-69.3212
-68.0556
-68.4776
-68.9707
-69.6286
-70.4201
-71.2271
-71.7062
-72.1054
-72.6185
-73.0062
-72.9544
-72.5414
-71.5161
-70.7575
-70.3358
-68.3233
-69.1483
-69.12
-68.5517
-68.8009
-69.1291
-69.7177
-70.1725
-70.5727
-70.9224
-71.0226
-71.2498
-71.4271
-71.1636
-70.6773
-70.2821
-69.8498
-69.6496
-69.2373
-68.2413
-68.654
-68.8923
-68.7832
-68.9142
-69.2667
-69.7137
-69.9095
-70.1228
-70.3622
-70.3999
-70.434
-70.3111
-70.1481
-69.9934
-69.6976
-69.4245
-69.25
-68.8627
-68.6591
-55.5183
-55.6452
-55.7246
-55.6357
-55.7991
-55.8187
-55.8219
-55.7574
-55.7619
-55.9495
-55.9715
-56.0053
-56.033
-56.0004
-55.9457
-56.1533
-56.074
-56.1595
-56.1981
-56.2377
-56.1307
-56.261
-56.4552
-56.4846
-56.4583
-56.459
-56.5196
-56.5128
-56.4976
-56.4712
-56.7006
-56.6396
-56.687
-56.6774
-56.7347
-56.7871
-56.7661
-56.7604
-56.6958
-57.042
-57.0087
-57.1249
-57.0891
-57.151
-57.1952
-57.2517
-57.2152
-57.2246
-57.3458
-57.4441
-57.4167
-57.4402
-57.5116
-57.5913
-57.6765
-57.6924
-57.8843
-57.7324
-57.8515
-57.9228
-57.8577
-57.8653
-58.002
-57.9957
-58.1684
-58.2507
-58.4769
-58.5371
-58.4243
-58.3499
-58.5337
-58.5059
-58.5013
-58.6821
-58.737
-58.9553
-59.1213
-59.2467
-59.3419
-59.4937
-58.7721
-59.13
-59.1516
-59.2448
-59.4239
-59.5758
-59.8457
-60.0705
-60.1782
-60.401
-60.5623
-60.7625
-60.0176
-59.9503
-60.2346
-60.4872
-60.7583
-61.0427
-61.1958
-61.5033
-61.677
-61.7775
-62.1303
-62.4737
-62.6232
-61.3036
-61.6791
-61.2146
-61.4905
-61.9204
-62.5784
-63.0253
-63.473
-63.9176
-64.1314
-64.1548
-64.2714
-64.5715
-64.8146
-62.3301
-63.5822
-64.5046
-64.5302
-64.779
-65.2812
-65.7709
-66.1348
-66.6465
-66.8499
-66.7052
-66.9645
-67.0394
-67.2547
-67.946
-63.71
-64.9955
-66.6378
-67.162
-66.9716
-67.4469
-68.2104
-68.4441
-68.8491
-69.2152
-69.4092
-69.6143
-69.4645
-70.4667
-71.6373
-71.9231
-66.3325
-66.6725
-67.1726
-67.7957
-68.1315
-68.4691
-69.1555
-69.8643
-70.6869
-71.2484
-71.993
-72.3792
-72.4603
-73.1538
-73.3282
-73.1414
-73.6973
-69.599
-69.1683
-68.9834
-67.8213
-68.2144
-69.1229
-70.0243
-70.851
-72.0349
-72.555
-72.7487
-73.4018
-74.3557
-74.5515
-73.9249
-73.1609
-72.3067
-71.4242
-69.9004
-70.0639
-69.2484
-67.9697
-68.4514
-68.9884
-69.7406
-70.4767
-71.2521
-71.6766
-72.0592
-72.5962
-73.0565
-72.9633
-72.4758
-71.3685
-70.6296
-70.2385
-69.9062
-68.3379
-69.1159
-69.0533
-68.5743
-68.8426
-69.1733
-69.7632
-70.2076
-70.5695
-70.9275
-71.0364
-71.2612
-71.4184
-71.1356
-70.6314
-70.2539
-69.8056
-69.5974
-69.1684
-68.7422
-68.2966
-68.6392
-68.8782
-68.7785
-68.9169
-69.285
-69.7287
-69.9411
-70.1479
-70.3681
-70.4017
-70.4303
-70.3047
-70.1362
-69.9805
-69.6802
-69.4066
-69.2281
-68.8481
-68.6408
-68.6822
-55.3604
-55.5332
-55.5348
-55.5254
-55.6151
-55.7005
-55.7037
-55.6198
-55.6329
-55.7976
-55.8054
-55.8422
-55.7982
-55.8216
-55.7667
-55.9671
-55.9486
-55.9879
-56.0016
-56.022
-56.0579
-56.0106
-56.1626
-56.2142
-56.1503
-56.1678
-56.2466
-56.2452
-56.2445
-56.2068
-56.4424
-56.5336
-56.4417
-56.4849
-56.4796
-56.5416
-56.5325
-56.5156
-56.4535
-56.7158
-56.6796
-56.7122
-56.6963
-56.6886
-56.7982
-56.8607
-56.8628
-56.823
-56.758
-57.0595
-57.0558
-57.0357
-57.0445
-57.1335
-57.2032
-57.2721
-57.3053
-57.326
-57.2484
-57.3741
-57.4409
-57.4181
-57.4208
-57.553
-57.5784
-57.69
-57.7373
-57.7867
-57.9387
-57.868
-57.9178
-57.9085
-57.915
-57.8924
-58.0222
-58.1093
-58.2741
-58.3092
-58.3988
-58.5461
-58.6399
-58.507
-58.3774
-58.524
-58.5316
-58.5206
-58.5877
-58.7367
-58.9335
-59.1339
-59.2845
-59.3286
-59.5157
-59.5609
-58.8244
-59.1035
-59.0599
-59.356
-59.378
-59.6553
-59.9065
-60.1186
-60.2213
-60.4149
-60.4203
-60.827
-60.982
-60.0836
-59.9724
-60.3194
-60.4271
-60.7487
-60.9656
-61.1577
-61.4438
-61.7733
-61.835
-62.0068
-62.2532
-62.5973
-62.6108
-61.2063
-61.7056
-61.3326
-61.5771
-61.7521
-62.3251
-62.7863
-63.375
-63.7842
-64.0521
-64.1293
-64.3155
-64.5308
-64.7192
-64.7533
-61.9052
-63.2447
-64.1594
-64.2421
-64.7389
-65.1998
-65.6909
-66.1036
-66.5751
-66.8
-66.5954
-66.9314
-67.1573
-67.2433
-67.6085
-68.4468
-63.3778
-64.6645
-66.0912
-66.7324
-67.1263
-67.2008
-67.8949
-68.445
-68.7021
-69.0361
-69.2889
-69.7754
-69.2844
-70.2308
-71.0825
-71.5089
-71.854
-66.5349
-66.9583
-66.7688
-67.2438
-67.8524
-68.4694
-69.0673
-69.7919
-70.6367
-71.1815
-71.875
-72.3718
-72.3591
-73.0156
-72.9996
-72.6979
-73.2683
-73.0228
-69.6515
-69.4326
-68.7675
-67.4151
-68.0496
-69.1953
-70.0492
-71.0355
-72.0606
-72.5294
-72.6929
-73.3805
-74.3665
-74.4
-73.7675
-72.9681
-72.0943
-71.2852
-70.9503
-69.9557
-70.1635
-69.1952
-67.8988
-68.4706
-69.0507
-69.8398
-70.5338
-71.2816
-71.6517
-72.0515
-72.5852
-73.085
-72.9105
-72.3547
-71.2018
-70.4829
-70.1006
-69.7243
-69.3053
-68.3271
-69.0607
-69.0016
-68.5942
-68.8835
-69.2239
-69.7966
-70.2265
-70.5571
-70.925
-71.0448
-71.2616
-71.3956
-71.094
-70.5727
-70.1886
-69.7618
-69.5326
-69.0932
-68.6811
-68.7951
-68.2244
-68.6449
-68.8882
-68.7753
-68.9169
-69.3016
-69.7466
-69.959
-70.1685
-70.3734
-70.4013
-70.4279
-70.2956
-70.1221
-69.9654
-69.6736
-69.3859
-69.2076
-68.8237
-68.6211
-68.6718
-68.8499
-55.2806
-55.3677
-55.3538
-55.3668
-55.5312
-55.5084
-55.5587
-55.5425
-55.5087
-55.6492
-55.6476
-55.6911
-55.6193
-55.6815
-55.6114
-55.7918
-55.8043
-55.8447
-55.8225
-55.8389
-55.8289
-55.8325
-55.9686
-55.9674
-55.9925
-56.0161
-56.0515
-56.0768
-56.0007
-55.9898
-56.1905
-56.1678
-56.117
-56.2118
-56.243
-56.2913
-56.2372
-56.223
-56.2803
-56.4578
-56.5004
-56.4677
-56.4603
-56.4964
-56.5119
-56.5617
-56.5311
-56.5379
-56.4537
-56.7253
-56.7609
-56.7006
-56.7715
-56.7622
-56.7884
-56.8395
-56.9325
-57.0383
-56.8572
-56.8118
-57.092
-57.0861
-57.0554
-57.0935
-57.1286
-57.2133
-57.2623
-57.3085
-57.3657
-57.4582
-57.3654
-57.3877
-57.4444
-57.4834
-57.4428
-57.503
-57.6621
-57.6731
-57.7688
-57.8058
-57.914
-58.0757
-57.9363
-57.9694
-57.9026
-57.9426
-57.9733
-57.9049
-58.1137
-58.2288
-58.402
-58.478
-58.4827
-58.6441
-58.8635
-58.6228
-58.4076
-58.4868
-58.5303
-58.5823
-58.6405
-58.7397
-58.9174
-59.0904
-59.3061
-59.4141
-59.5054
-59.6327
-59.8059
-58.85
-59.0646
-59.0942
-59.3706
-59.4174
-59.6453
-59.8453
-60.1867
-60.3414
-60.4956
-60.5346
-60.7836
-60.9988
-61.2138
-59.9186
-60.0154
-60.3938
-60.4368
-60.7345
-60.9457
-61.1199
-61.4359
-61.7076
-61.8434
-61.9703
-62.2072
-62.4859
-62.6558
-62.6878
-61.1498
-61.3677
-61.3689
-61.5902
-61.7266
-62.2544
-62.6953
-63.1695
-63.7197
-63.9423
-63.8865
-64.2136
-64.436
-64.6157
-64.6629
-65.3086
-62.2255
-62.8407
-63.8218
-64.0255
-64.4894
-64.9125
-65.5475
-65.9541
-66.5021
-66.74
-66.7357
-66.9245
-66.9392
-67.1609
-67.4804
-68.2063
-68.4209
-63.7901
-64.5827
-65.7811
-66.1002
-66.757
-67.0828
-67.5485
-68.2034
-68.6083
-68.9191
-69.128
-69.5198
-69.0928
-69.841
-70.5678
-70.9413
-71.3203
-71.5636
-66.4465
-67.2653
-66.6844
-67.1459
-67.8375
-68.4363
-69.0273
-69.8975
-70.4762
-71.0791
-71.7526
-72.2043
-72.2028
-72.7051
-72.6035
-72.2506
-72.7734
-72.5157
-71.6947
-69.4607
-69.5293
-68.5696
-67.009
-67.9539
-69.2285
-70.1573
-71.1837
-72.0771
-72.4953
-72.6103
-73.28
-74.2322
-74.1675
-73.5423
-72.7509
-71.844
-71.1114
-70.7615
-69.8194
-69.8925
-70.2092
-69.1526
-67.8563
-68.4886
-69.1506
-69.9329
-70.5886
-71.266
-71.6175
-72.0459
-72.6224
-73.053
-72.7871
-72.1942
-71.0376
-70.3065
-69.9376
-69.5853
-69.1549
-68.9944
-68.2949
-68.988
-68.937
-68.5997
-68.9122
-69.2798
-69.8125
-70.2259
-70.5595
-70.9143
-71.0457
-71.2498
-71.357
-71.0397
-70.5042
-70.1007
-69.7069
-69.4574
-69.0167
-68.6296
-68.739
-68.8898
-68.1816
-68.6564
-68.8888
-68.7725
-68.913
-69.3136
-69.7616
-69.9795
-70.1853
-70.3771
-70.3992
-70.423
-70.2848
-70.1069
-69.9487
-69.6569
-69.3638
-69.1876
-68.8009
-68.6013
-68.6607
-68.8338
-69.0041
-55.177
-55.298
-55.3114
-55.2658
-55.4011
-55.3655
-55.3619
-55.3161
-55.3652
-55.5337
-55.5563
-55.5086
-55.5566
-55.5216
-55.4773
-55.6454
-55.6379
-55.6874
-55.6481
-55.659
-55.6112
-55.6645
-55.8008
-55.8063
-55.8137
-55.8758
-55.8566
-55.9038
-55.8945
-55.7938
-55.9849
-55.9347
-55.9742
-55.9971
-56.0486
-56.0899
-56.0975
-56.0794
-55.9892
-56.2087
-56.171
-56.1792
-56.1822
-56.1988
-56.2997
-56.309
-56.2875
-56.2762
-56.2273
-56.4729
-56.4807
-56.4825
-56.4451
-56.4146
-56.4867
-56.5497
-56.5817
-56.6484
-56.6075
-56.5058
-56.7384
-56.7712
-56.7488
-56.7434
-56.8118
-56.8078
-56.8543
-56.8673
-56.9687
-57.0871
-56.9259
-56.8639
-57.1196
-57.1267
-57.092
-57.1183
-57.1332
-57.2334
-57.2642
-57.3119
-57.3922
-57.4621
-57.5099
-57.4141
-57.3427
-57.4461
-57.4376
-57.4566
-57.4958
-57.6613
-57.7029
-57.7732
-57.8626
-57.8432
-58.062
-58.3121
-58.0977
-58.0887
-57.949
-57.8528
-57.9318
-57.9487
-58.1425
-58.1762
-58.3531
-58.4719
-58.5669
-58.6059
-58.8686
-59.0522
-58.8314
-58.6107
-58.5458
-58.5126
-58.6014
-58.6089
-58.6935
-58.8745
-59.0574
-59.2219
-59.4207
-59.576
-59.7321
-59.8839
-60.0771
-58.8388
-59.0097
-59.2274
-59.3304
-59.4248
-59.543
-59.831
-60.083
-60.3752
-60.582
-60.58
-60.8179
-60.9217
-61.1412
-61.4185
-59.879
-59.9161
-60.3566
-60.4471
-60.6972
-60.8984
-61.0965
-61.3485
-61.6535
-61.7915
-61.8827
-62.1641
-62.3959
-62.4858
-62.8425
-63.1903
-61.0554
-61.2822
-61.3747
-61.776
-61.701
-62.1266
-62.6521
-63.0461
-63.4919
-63.8746
-63.9189
-64.1073
-64.3106
-64.6271
-64.8475
-65.1878
-65.4045
-62.241
-62.8806
-63.602
-63.8784
-64.3647
-64.8389
-65.2755
-65.8022
-66.1542
-66.6488
-66.6782
-66.7944
-66.8153
-67.0131
-67.624
-67.8614
-68.2643
-68.9033
-64.0239
-64.6417
-65.475
-65.7737
-66.2984
-66.8252
-67.3949
-68.0385
-68.4448
-68.693
-69.1074
-69.2783
-68.99
-69.3923
-70.103
-70.2965
-70.6997
-70.9339
-70.7742
-66.4281
-67.546
-66.6486
-66.7426
-67.9853
-68.5754
-69.1831
-69.8147
-70.4598
-70.936
-71.4953
-71.855
-72.0463
-72.4035
-72.1431
-71.9023
-72.2086
-71.952
-71.124
-70.5824
-69.0324
-69.5186
-68.4439
-66.776
-67.904
-69.2961
-70.357
-71.2695
-72.114
-72.4535
-72.5216
-73.09
-73.9097
-73.8344
-73.233
-72.4946
-71.5303
-70.9051
-70.4862
-69.5097
-68.8091
-69.7265
-70.1991
-69.1005
-67.8187
-68.5158
-69.2512
-70.0168
-70.6339
-71.2765
-71.5805
-72.0073
-72.6127
-72.9513
-72.6
-72.0073
-70.8806
-70.1148
-69.772
-69.4531
-68.9982
-68.8611
-68.9381
-68.2589
-68.9013
-68.8506
-68.6239
-68.9394
-69.3426
-69.8221
-70.2395
-70.5785
-70.8977
-71.0383
-71.2303
-71.3055
-70.9688
-70.4289
-70.0041
-69.6717
-69.38
-68.9412
-68.5655
-68.685
-68.8337
-69.1261
-68.1903
-68.6572
-68.882
-68.7697
-68.9175
-69.3259
-69.7736
-69.9953
-70.1976
-70.3756
-70.3948
-70.4142
-70.2718
-70.0901
-69.9338
-69.6367
-69.3444
-69.166
-68.7783
-68.5815
-68.6494
-68.8166
-68.9919
-69.4115
-55.0537
-55.1916
-55.1686
-55.1738
-55.3012
-55.2996
-55.2793
-55.3211
-55.2615
-55.411
-55.3983
-55.3654
-55.4102
-55.3647
-55.3945
-55.5452
-55.5544
-55.522
-55.5667
-55.549
-55.5056
-55.4901
-55.66
-55.632
-55.6563
-55.6626
-55.6937
-55.7007
-55.6643
-55.6451
-55.8323
-55.7932
-55.8025
-55.869
-55.8646
-55.9035
-55.9381
-55.9159
-55.8332
-56.0362
-55.9637
-56.0182
-55.9837
-55.9879
-56.0949
-56.1217
-56.1161
-56.1217
-56.042
-56.2187
-56.2014
-56.2343
-56.1569
-56.22
-56.2814
-56.3184
-56.34
-56.4083
-56.3525
-56.2756
-56.4898
-56.5044
-56.5001
-56.4803
-56.4715
-56.5321
-56.5384
-56.5886
-56.636
-56.7593
-56.6743
-56.5851
-56.7424
-56.7378
-56.7529
-56.7559
-56.8547
-56.8543
-56.8973
-56.9183
-56.9305
-57.0604
-57.2267
-57.0914
-57.0182
-57.1374
-57.109
-57.0381
-57.0895
-57.209
-57.2
-57.2745
-57.3145
-57.3611
-57.4653
-57.4871
-57.7137
-57.5116
-57.2885
-57.4426
-57.4031
-57.4794
-57.5298
-57.6071
-57.7176
-57.7645
-57.8394
-57.8885
-58.0548
-58.235
-58.491
-58.2517
-58.0989
-57.9649
-57.913
-57.9333
-57.9333
-58.0263
-58.2607
-58.3095
-58.4685
-58.5551
-58.4331
-58.8918
-59.0555
-59.1838
-58.9485
-58.6189
-58.6448
-58.531
-58.5635
-58.603
-58.773
-58.8619
-59.091
-59.2182
-59.3978
-59.5611
-59.7807
-59.9426
-60.0603
-60.2226
-58.9881
-58.9593
-59.179
-59.4135
-59.4279
-59.6235
-59.8855
-60.1503
-60.263
-60.5596
-60.7564
-60.9016
-61.0425
-61.1387
-61.349
-61.6188
-59.8763
-60.1793
-60.3057
-60.3982
-60.6314
-60.9699
-61.116
-61.365
-61.4256
-61.7035
-62.0039
-62.1258
-62.4324
-62.4419
-62.5986
-62.9951
-63.3667
-60.9082
-61.5243
-61.3954
-61.7612
-61.7484
-62.1114
-62.5799
-63.061
-63.2429
-63.5492
-63.8136
-64.0955
-64.3065
-64.5244
-64.7942
-64.9703
-65.2604
-65.3832
-62.4747
-62.9273
-63.4543
-63.3202
-64.1908
-64.7847
-65.1522
-65.5788
-65.8207
-66.0755
-66.4359
-66.6556
-66.6689
-66.8809
-67.4154
-67.5572
-67.8938
-68.4526
-68.3062
-64.3712
-64.8382
-65.4145
-65.574
-65.9949
-66.5273
-67.0868
-67.9443
-68.2513
-68.5266
-68.846
-69.1131
-68.733
-69.068
-69.5654
-69.7499
-70.1419
-70.3643
-70.039
-69.8046
-66.3153
-67.6914
-66.3229
-66.7341
-68.1713
-68.7306
-69.223
-69.9068
-70.4461
-70.7801
-71.2113
-71.5182
-71.7863
-72.0825
-71.6899
-71.5533
-71.6209
-71.2546
-70.5513
-70.0562
-69.5181
-68.5325
-69.3681
-68.1719
-66.7194
-67.8871
-69.4672
-70.659
-71.4145
-72.1411
-72.4195
-72.4517
-72.8777
-73.529
-73.4106
-72.8668
-72.1684
-71.1969
-70.6579
-70.1474
-69.1621
-68.535
-68.65
-69.4886
-70.1402
-69.0312
-67.8033
-68.5835
-69.3449
-70.0811
-70.6771
-71.2663
-71.5307
-71.9441
-72.5542
-72.7863
-72.3583
-71.8085
-70.7277
-69.9227
-69.6123
-69.3147
-68.8063
-68.7282
-68.832
-69.1212
-68.201
-68.8015
-68.7741
-68.6735
-68.9635
-69.4091
-69.8281
-70.2613
-70.5822
-70.8744
-71.0246
-71.2014
-71.2361
-70.8828
-70.3503
-69.9008
-69.5922
-69.3067
-68.858
-68.4945
-68.6318
-68.7773
-69.0834
-69.5342
-68.6418
-68.8661
-68.766
-68.9236
-69.3385
-69.7814
-70.0082
-70.2051
-70.3715
-70.3881
-70.4025
-70.2552
-70.0684
-69.9185
-69.6128
-69.323
-69.1431
-68.7527
-68.5631
-68.6377
-68.7999
-68.9808
-69.4071
-70.0764
-55.0625
-55.0469
-55.0442
-55.202
-55.1976
-55.1532
-55.205
-55.1613
-55.2981
-55.2883
-55.3003
-55.2678
-55.2904
-55.2778
-55.4166
-55.4335
-55.4173
-55.4041
-55.4165
-55.4145
-55.3581
-55.5639
-55.581
-55.5476
-55.5008
-55.5434
-55.5715
-55.5007
-55.4832
-55.6808
-55.6536
-55.6815
-55.6667
-55.6979
-55.741
-55.7443
-55.6908
-55.6807
-55.8366
-55.8314
-55.8529
-55.8285
-55.8698
-55.8816
-55.927
-56.0251
-55.9364
-55.8344
-56.0032
-56.0102
-56.0557
-56.0169
-56.0733
-56.0536
-56.1247
-56.1501
-56.2353
-56.0744
-56.115
-56.2502
-56.2375
-56.1934
-56.2541
-56.2193
-56.2188
-56.3159
-56.3672
-56.4395
-56.5133
-56.4317
-56.3594
-56.503
-56.5042
-56.534
-56.5098
-56.49
-56.5384
-56.5456
-56.6003
-56.6768
-56.6972
-56.8959
-56.7691
-56.6811
-56.761
-56.7634
-56.7398
-56.8026
-56.8195
-56.8277
-56.8924
-56.955
-56.9932
-57.0379
-57.1958
-57.309
-57.1903
-57.0945
-57.1791
-57.1343
-57.0903
-57.1279
-57.2488
-57.1851
-57.267
-57.3061
-57.3728
-57.4184
-57.4641
-57.7913
-57.8954
-57.6938
-57.2052
-57.391
-57.4887
-57.4677
-57.5426
-57.5959
-57.6752
-57.7835
-57.8657
-58.0336
-58.0329
-58.2741
-58.4374
-58.614
-58.543
-57.9883
-57.8967
-57.9962
-58.0201
-58.0299
-57.9892
-58.1699
-58.4015
-58.4793
-58.5419
-58.7126
-58.9352
-59.101
-59.2307
-59.3526
-59.2524
-58.5182
-58.6038
-58.5025
-58.6254
-58.5935
-58.767
-58.8805
-59.0792
-59.1836
-59.4384
-59.52
-59.7502
-59.9296
-60.1403
-60.1903
-60.4702
-59.109
-59.0341
-59.1681
-59.3734
-59.4237
-59.6076
-59.8919
-60.0847
-60.2691
-60.515
-60.6782
-60.827
-61.0654
-61.1808
-61.3377
-61.5249
-61.8251
-60.0986
-60.4135
-60.358
-60.2056
-60.5794
-60.971
-61.1831
-61.3657
-61.495
-61.4026
-61.8809
-62.1236
-62.3122
-62.5371
-62.6111
-62.9394
-63.2609
-63.4851
-60.929
-61.6147
-61.4599
-61.7514
-61.8265
-62.07
-62.5235
-62.9507
-63.2674
-63.5016
-63.6169
-63.8929
-64.2287
-64.3901
-64.6547
-64.7904
-65.0374
-65.1412
-65.5055
-62.5503
-62.7579
-63.248
-63.3147
-64.0391
-64.5119
-64.8685
-65.406
-65.6538
-65.9575
-66.2421
-66.3536
-66.316
-66.6147
-67.0645
-67.2392
-67.3245
-67.694
-68.0515
-67.8879
-64.3015
-64.8596
-65.2532
-65.6731
-65.7703