/*--------------------------------*- C++ -*----------------------------------*\
  =========                 |
  \\      /  F ield         | OpenFOAM: The Open Source CFD Toolbox
   \\    /   O peration     | Website:  https://openfoam.org
    \\  /    A nd           | Version:  7
     \\/     M anipulation  |
\*---------------------------------------------------------------------------*/
FoamFile
{
    version     2.0;
    format      ascii;
    class       surfaceScalarField;
    location    "2.5";
    object      phi;
}
// * * * * * * * * * * * * * * * * * * * * * * * * * * * * * * * * * * * * * //

dimensions      [0 3 -1 0 0 0 0];

internalField   nonuniform List<scalar> 
54095
(
0.00023998
-0.000598937
-8.01575e-05
0.000492873
0.000337094
-0.000106495
0.000212007
-0.000737517
-7.34268e-05
0.000170074
-0.000137972
-0.000100336
0.000732463
0.000231387
-0.000125923
0.000480949
0.000197904
-0.000129753
0.000178208
0.00201495
-0.000122817
0.000183971
-0.000853985
-6.75036e-05
0.000173089
-0.000287335
-9.71524e-05
1.27015e-06
-0.000392733
-7.19649e-05
0.000771803
0.000652712
0.000212952
0.000702161
8.43057e-05
-7.41311e-05
0.000427815
0.00250694
0.000208902
0.000456352
8.24793e-05
-0.000156955
0.000230338
0.00196441
-0.000136469
5.41681e-05
0.000530302
-9.81241e-05
0.000156713
-0.000947851
-6.28477e-05
0.000173472
-0.000433834
-9.44763e-05
4.2066e-06
-0.000420487
-7.36051e-05
-3.99942e-05
-0.000310799
-5.94686e-05
0.000668502
0.00442069
0.000356248
0.000575836
0.000484058
0.00029498
0.000525144
0.000112269
0.000275263
0.00057028
-1.99026e-05
-9.72036e-06
0.00033843
0.00212918
0.000195537
5.02758e-05
0.00226694
0.00023739
0.000419536
-3.96216e-06
-0.000176381
0.000331297
0.00179252
-0.000142893
5.84492e-05
0.000457471
-0.000117881
-7.41375e-05
0.000707938
-8.39758e-05
0.000132042
-0.00102006
-5.98328e-05
0.00016432
-0.000569737
-9.12641e-05
8.29489e-06
-0.000447894
-7.53645e-05
-4.37374e-05
-0.000280154
-6.05132e-05
-3.8426e-05
-0.000560576
-6.5216e-05
-0.000325755
0.00559401
0.000540743
0.000328132
0.00432753
0.000340864
-3.39574e-05
0.00484024
0.000940048
0.000111103
0.000582262
0.000360973
0.000523098
-9.14237e-05
0.000314005
0.000161238
0.00183736
0.000214514
0.000482968
-1.45958e-05
-6.87383e-05
0.000406202
0.00185976
0.000184791
9.08094e-05
0.00218998
0.000240136
-5.12346e-05
0.00224899
0.000191946
0.000381266
-5.42141e-05
-0.000198972
0.000403221
0.0015208
-0.000143558
6.45755e-05
0.000384766
-0.000126468
-7.61334e-05
0.000709356
-8.69021e-05
-5.48974e-05
-0.000122178
-0.00015893
0.00011561
-0.00107732
-5.83475e-05
0.000144312
-0.000685345
-8.85374e-05
4.83469e-07
-0.000463205
-7.64357e-05
-4.65243e-05
-0.000247695
-6.12997e-05
-4.26807e-05
-0.000512942
-6.54666e-05
-2.41019e-05
2.85141e-06
-7.74475e-05
-0.00122784
0.00562349
0.000467585
-0.000533501
0.00594841
0.000507229
-0.00047426
0.00648312
0.000767802
-0.000267365
0.00432708
0.000378919
0.000228017
0.00466796
0.00080823
0.000160693
0.00421148
0.000862054
-0.000110918
0.000744282
0.000431866
0.000607726
-0.000290143
0.000358168
0.000313026
0.00167405
0.000255101
-2.46606e-06
0.00270202
0.00015772
0.000399812
3.76333e-05
-7.07751e-05
0.000519434
0.00159867
7.61378e-05
0.000119305
0.00209639
0.00022365
-2.03239e-05
0.00224121
0.000192106
3.29494e-05
0.00105585
0.000227446
0.000348804
-8.37074e-05
-0.0002037
0.000430681
0.00119535
-0.000159888
5.66603e-05
0.000320608
-0.000135577
-7.01514e-05
0.000706687
-0.000100172
-4.90675e-05
-5.52629e-05
-0.000147431
2.09244e-05
-0.000255254
-0.000241508
0.000107271
-0.00112683
-5.77659e-05
0.000120139
-0.000776946
-8.68859e-05
-2.27286e-06
-0.000472556
-7.6914e-05
-4.55463e-05
-0.000216061
-6.25225e-05
-4.79414e-05
-0.000460796
-6.55048e-05
-2.61805e-05
4.20548e-05
-7.84896e-05
1.09111e-05
0.000602208
-8.19812e-05
-0.00146063
0.00401775
0.000105932
-0.00122539
0.00596138
0.000354004
-0.000608338
0.00623103
0.000532159
-0.000820063
0.00603649
0.000464617
-0.000323669
0.00682708
0.000714955
-0.000135986
0.00670035
0.000890125
-0.000678106
0.00441605
0.000478215
0.000491415
0.00444023
0.000722955
0.000370367
0.0045634
0.000398968
0.000323241
0.00356931
0.000332353
-0.000332137
0.00108163
0.000394602
0.000495583
-0.000318654
0.000484227
0.000358453
0.00148224
0.00031083
4.53943e-07
0.00272603
0.000210315
3.78282e-05
0.00256459
2.85755e-05
0.000315401
0.000153195
-8.21591e-05
0.000570344
0.00133954
4.86958e-05
0.000198715
0.00184005
0.000190423
1.41255e-05
0.00216747
0.000213111
-6.16784e-06
0.000997699
0.000207353
0.000104013
-0.000599971
0.000157709
0.000323149
-0.000102558
-0.000197027
0.000427065
0.000862657
-0.000177936
5.72676e-05
0.000252124
-0.000150944
-6.14234e-05
0.000699619
-0.000112632
-4.22034e-05
-1.62782e-05
-0.000144895
1.63807e-05
-0.000203912
-0.000241333
4.83035e-05
0.000743887
-0.0002723
0.000103411
-0.00117203
-5.82101e-05
9.5255e-05
-0.000843796
-8.61707e-05
-2.13934e-06
-0.000480289
-7.70133e-05
-4.34474e-05
-0.000186136
-6.33924e-05
-4.8394e-05
-0.000408429
-6.64954e-05
-2.75042e-05
8.36181e-05
-7.95639e-05
1.46011e-05
0.000593696
-8.45793e-05
1.88911e-05
0.000733458
-8.33754e-05
-0.00141111
0.00348189
5.13963e-05
-0.00147461
0.00423311
3.38571e-05
-0.000873707
0.00501954
0.000397401
-0.00128081
0.00607591
0.000346218
-0.000623965
0.00630468
0.000580658
-0.000232031
0.00579032
0.000648852
-0.00102397
0.00601103
0.00037133
-0.000124424
0.00728901
0.000618525
0.000472426
0.00667054
0.000642703
0.000687647
0.00502157
0.000769708
-0.00107376
0.00453173
0.000625943
0.000371381
0.00436885
0.000673796
0.000442105
0.00483319
0.000369512
0.000308612
0.00383062
-0.000170504
0.000240875
0.00313886
-0.000166116
-0.000533975
0.00154198
0.000389029
0.000273786
-7.50942e-05
0.0004476
0.000404636
0.00141791
0.000342634
6.48039e-05
0.00264519
0.000340998
2.11529e-05
0.0026584
8.91806e-05
9.88378e-05
0.00175917
2.21595e-05
0.000260659
0.000286618
-7.0933e-05
0.000571473
0.00110171
1.12591e-05
0.000219932
0.00154056
0.000185521
2.07401e-05
0.00203801
0.000237722
0.000133687
0.000823883
0.000211037
0.00011078
-0.000603892
0.000116875
0.000126951
-0.000143669
-7.76234e-05
0.000307749
-0.000130312
-0.000176584
0.0003872
0.000575324
-0.000201639
5.08885e-05
0.000181475
-0.000160315
-5.83687e-05
0.000689143
-0.000125547
-3.72262e-05
5.64448e-07
-0.000140643
1.04884e-05
-0.000146798
-0.000240002
5.05591e-05
0.00074427
-0.000277675
7.66671e-05
0.000651848
-0.000275846
0.000101963
-0.0012151
-5.88925e-05
7.35418e-05
-0.000889325
-8.6223e-05
-2.87913e-06
-0.000486716
-7.68645e-05
-4.60295e-05
-0.000153463
-6.36564e-05
-4.97799e-05
-0.000354476
-6.75648e-05
-2.74778e-05
0.000125821
-8.12209e-05
1.43354e-05
0.000586995
-8.71981e-05
2.60748e-05
0.000709964
-8.716e-05
6.19103e-05
0.000613125
-9.29878e-05
-0.00139274
0.00358703
0.000101781
-0.00154649
0.00346323
9.05454e-05
-0.00104922
0.00451674
0.000226959
-0.00146263
0.00443245
-1.7519e-05
-0.000981992
0.00507769
0.000333734
-0.000474326
0.00506172
0.000690381
-0.00124931
0.00597246
0.000328794
-0.000606539
0.00639005
0.000742958
0.000371359
0.00568375
0.000788292
0.000593858
0.00506206
0.000911587
-0.00116999
0.00578282
0.000324442
-6.29991e-05
0.00772577
0.000368955
0.000525533
0.00663903
0.000566609
0.000530472
0.00524414
0.000198265
0.000694151
0.00380888
0.000542864
-0.00145601
0.00471377
0.000740005
0.000194761
0.00445178
0.000622045
0.000595932
0.00493973
0.000375957
0.000311517
0.00406264
-0.000109223
0.000209373
0.00299795
-0.00021782
5.59608e-05
0.00310937
-0.000302094
-0.000667206
0.0020568
0.000413038
0.000153496
0.00026902
0.000462891
0.000365648
0.00127839
0.000441399
0.000164671
0.00259192
0.000251965
0.00017833
0.00267743
0.000277334
0.000152943
0.00173024
7.59413e-05
0.000179742
0.00117188
1.97379e-05
0.000244757
0.000405115
-5.5505e-05
0.000493251
0.000914763
9.96598e-06
0.000149269
0.00128172
0.000171719
8.97607e-05
0.00184425
0.000231152
0.000103125
0.000691097
0.000230157
0.000126865
-0.000574441
6.5209e-05
0.00012839
1.6194e-05
-0.000120819
0.000185709
0.00111701
-0.000285373
0.000315528
-0.000187516
-0.000156361
0.000329166
0.000340599
-0.000197483
5.29947e-05
0.000100151
-0.000176189
-4.87225e-05
0.000660084
-0.000128563
-4.24259e-05
1.18456e-05
-0.000144182
3.81486e-06
-7.88953e-05
-0.000239838
5.31987e-05
0.000747643
-0.000282238
8.7355e-05
0.000597803
-0.000284909
0.000158445
0.000439296
-0.000295334
0.000104048
-0.00125959
-5.95614e-05
5.77064e-05
-0.000919601
-8.63225e-05
4.17267e-06
-0.000500508
-7.66044e-05
-4.764e-05
-0.000118805
-6.38822e-05
-5.0218e-05
-0.000299527
-6.83882e-05
-2.72255e-05
0.000168599
-8.3117e-05
1.54802e-05
0.000580243
-8.99488e-05
3.56469e-05
0.000678073
-9.09541e-05
6.33728e-05
0.000558672
-9.60794e-05
5.74031e-05
0.000284197
-9.85166e-05
-0.00146531
0.00317054
6.62395e-06
-0.00140825
0.00340642
4.23627e-05
-0.0010684
0.00402354
0.000157684
-0.00162771
0.00359383
3.4467e-05
-0.00113758
0.00454688
0.000215994
-0.000626185
0.0048212
0.000434528
-0.00138607
0.00448929
7.9915e-05
-0.000977964
0.00513592
0.000295673
-0.000363582
0.00542406
0.000706337
0.000122046
0.00514591
0.00102507
-0.00120785
0.00578952
0.000220797
-0.000754179
0.00660398
0.000806048
0.000395303
0.00570903
0.000847913
0.000250894
0.00521353
0.000916398
0.000628168
0.00497716
0.00115168
-0.00143931
0.00534274
0.000423377
0.000121208
0.00780208
0.000321677
0.000739026
0.00658218
0.00028271
0.000945911
0.00511112
6.52366e-05
0.000517175
0.00378706
-8.77195e-05
0.000210428
0.00369989
0.000203879
-0.00168058
0.00506831
0.000658826
0.000189052
0.00457842
0.000577805
0.000661759
0.00491788
0.000347788
0.000576769
0.00399803
2.8474e-05
0.000237292
0.00301211
-0.000182343
0.000287792
0.00301416
-0.000257465
0.000134312
0.00318068
-0.000313185
-0.000635125
0.00248183
0.000454853
-4.59573e-05
0.000702805
0.000518461
0.000119792
0.00134272
0.000428044
0.000284534
0.00246948
0.000369073
4.6632e-05
0.00271939
0.000266495
0.000261579
0.00169663
0.00017623
0.0002135
0.00108995
7.27587e-05
0.000286807
0.00164052
-0.000107321
0.000285052
0.000469642
-3.40513e-05
0.000377953
0.000804311
6.16016e-06
0.000141217
0.00103506
0.000168406
9.89202e-05
0.00164657
0.000221753
9.77705e-05
0.000578588
0.000203465
8.64684e-05
-0.000446919
1.99814e-05
0.000127711
0.000181232
-0.000174342
0.000184482
0.00118989
-0.000290832
0.000216666
0.0010703
-0.000322944
0.000350929
-0.000289628
-0.000144769
0.00025291
0.000173413
-0.000184379
6.86238e-05
5.91045e-06
-0.000167694
-4.40117e-05
0.000604796
-0.000124529
-4.41732e-05
3.05945e-05
-0.000153356
-5.32765e-06
-2.61611e-06
-0.000242359
5.65453e-05
0.000752352
-0.000285612
9.83231e-05
0.000542355
-0.000289467
0.000154748
0.00036211
-0.000299099
0.000159397
0.000249845
-0.000275453
0.000105304
-0.00130512
-5.9773e-05
4.56053e-05
-0.000937955
-8.68126e-05
5.39302e-06
-0.000515253
-7.69701e-05
-5.02824e-05
-8.12683e-05
-6.38589e-05
-4.74232e-05
-0.000246472
-6.95133e-05
-2.63281e-05
0.000211594
-8.50545e-05
1.59474e-05
0.000574096
-9.29177e-05
4.64072e-05
0.000636481
-9.47635e-05
6.55863e-05
0.000501121
-9.89889e-05
5.97368e-05
0.000226888
-9.85079e-05
2.29341e-05
-0.000127453
-9.01921e-05
-0.00143461
0.00333183
-3.90592e-05
-0.00332347
-0.00133725
0.0031297
-3.01539e-05
-0.000917543
0.00382728
9.87916e-05
-0.00149492
0.00328934
-1.57024e-05
-0.00122762
0.00401607
0.00013988
-0.000604938
0.00441885
0.000245824
-0.00155031
0.0037592
-1.11966e-06
-0.00112432
0.0045533
0.000174396
-0.000612027
0.00489524
0.000390397
-0.000161255
0.00516917
0.000654223
-0.0014638
0.0047847
-3.94582e-05
-0.00113595
0.00530924
0.000288366
-0.000201969
0.00553332
0.000783685
-0.000114348
0.00516204
0.00105546
6.43564e-05
0.00511795
0.001397
-0.00126473
0.00533272
0.000282223
-0.000637637
0.00679089
0.000792733
0.000297555
0.00597693
0.000979612
0.000851066
0.00526416
0.000892122
0.000567761
0.00491551
0.000927459
0.000415919
0.00469027
0.00111673
-0.00165019
0.00474104
0.000571312
0.000360891
0.00755142
0.000502203
0.000816252
0.00643188
0.000317486
0.000816324
0.00515202
2.25332e-06
0.000564728
0.00364999
-0.000125129
0.000388196
0.00369003
-0.000178267
0.000184746
0.00442513
-0.000103543
-0.00165449
0.00541628
0.000671401
8.69584e-05
0.00442348
0.000680848
0.000522896
0.00473539
0.000357191
0.000660597
0.00395103
1.87278e-05
0.000139626
0.00304162
-9.40292e-05
0.000304193
0.00301712
-0.000227911
0.000191741
0.00317425
-0.000229276
0.000273122
0.00354742
-0.000311492
-0.000541508
0.00284462
0.000463774
-0.00023312
0.0012123
0.000556431
-7.86639e-05
0.00163752
0.000443544
0.000159912
0.00249697
0.00033956
0.000100698
0.00278984
0.000295698
0.000179433
0.00166058
0.00020959
0.000249876
0.00105619
8.78249e-05
0.000294811
0.00165938
-5.64293e-05
0.000297405
0.00191385
-0.000186629
0.000338141
0.00057256
-9.01295e-05
0.000283106
0.000723143
1.69196e-05
0.000168146
0.000800919
0.000140775
0.000109173
0.00145759
0.000204205
9.38793e-05
0.000484071
0.000178217
8.17053e-05
-0.000305642
-2.48447e-05
0.000110542
0.000361216
-0.000213999
0.000210173
0.00120883
-0.000305128
0.000224258
0.000993787
-0.000283826
0.000245538
0.000777572
-0.000287207
0.000362314
-0.000402199
-0.000144439
0.000216489
2.87116e-05
-0.000170952
5.35119e-05
-7.47547e-05
-0.000151833
-5.01303e-05
0.000548137
-0.000111187
-4.57315e-05
6.18128e-05
-0.000157439
-1.12788e-05
7.64076e-05
-0.000247429
5.12288e-05
0.000762333
-0.000287621
0.000115019
0.000478855
-0.000290725
0.000151857
0.000281595
-0.000295221
0.000169329
0.000112476
-0.000271322
0.000110751
-7.54787e-05
-0.000233741
0.000105792
-0.00135046
-6.04467e-05
4.17741e-05
-0.000952429
-8.70732e-05
-1.10929e-06
-0.000523343
-7.76128e-05
-5.16702e-05
-4.20469e-05
-6.45214e-05
-4.55456e-05
-0.000194488
-7.02977e-05
-2.63606e-05
0.000255369
-8.69286e-05
2.14557e-05
0.000563518
-9.5932e-05
5.96983e-05
0.000582015
-9.81504e-05
6.68729e-05
0.000440926
-0.000101441
5.75887e-05
0.000168754
-9.84434e-05
1.83227e-05
-0.000154553
-8.97301e-05
5.37346e-05
-0.000406646
-8.17668e-05
-0.00158248
0.00250335
0.000106549
-0.00246203
-0.00136584
0.00336199
-1.57045e-06
-0.00113929
0.00390145
5.65405e-05
-0.0037753
-0.00150049
1.59988e-05
-0.00140913
0.00308448
-4.05693e-05
-0.00109731
0.00361396
5.28508e-05
-0.000547396
0.00428107
0.000146522
-0.00155515
0.00332347
-2.92957e-05
-0.00130728
0.0040799
0.000103426
-0.000742263
0.00442106
0.000267911
-0.000311104
0.00471486
0.00033265
-0.00160875
0.00382596
7.81906e-05
-0.00114833
0.00441944
0.000145123
-0.000475417
0.00496232
0.000380764
-0.000329391
0.00522771
0.000546896
-0.000399291
0.00553568
0.000908529
-0.00146622
0.00515567
-0.000169488
-0.00106951
0.00558758
0.000114069
-0.000382961
0.00577513
0.000727072
7.15715e-05
0.00562566
0.00109956
3.96584e-05
0.00535185
0.00134966
0.000271604
0.00515854
0.0014966
-0.00132454
0.00464318
0.000363881
-0.000451094
0.00708919
0.000795901
0.000265616
0.00636029
0.000960016
0.000412447
0.00563091
0.00101674
0.000554625
0.00495148
0.000866255
0.000356634
0.00469101
0.000958279
0.000372699
0.00482268
0.000839674
-0.00183421
0.00431402
0.000606741
0.000463743
0.0069082
0.000837745
0.000727829
0.00631771
0.000411434
0.000774077
0.00518926
0.000166765
0.000524349
0.00356679
-0.000299273
0.000278253
0.00379617
-0.000205323
0.000163968
0.00446603
-0.000191392
0.000237121
0.00467654
-0.000203306
-0.00146489
0.00564306
0.000696594
-0.000192611
0.00423157
0.000822809
0.00027537
0.00455489
0.000507312
0.000376028
0.00384917
0.000242927
0.000195205
0.00307495
-0.000109102
0.00022239
0.00303254
-0.00015241
0.000283792
0.00310891
-0.000196491
0.00031202
0.00346503
-0.000164098
0.000388377
0.00347082
-0.000219942
-0.000445978
0.00315293
0.00047581
-0.000297819
0.00167698
0.000580016
4.43629e-05
0.00193711
0.000380625
0.000150572
0.00256124
0.000337873
0.000110354
0.00280685
0.000306069
0.000106164
0.00173893
0.000192885
0.000201613
0.00109418
8.05313e-05
0.000314419
0.0016828
-3.98424e-05
0.000256752
0.00199621
-0.000171289
0.000328636
0.00170749
-0.000107966
0.000426714
0.000573086
-6.49259e-05
0.000252633
0.000634174
-3.73045e-05
2.52115e-05
0.000758635
8.75034e-05
3.88017e-05
0.00134252
0.000166915
8.80078e-05
0.000414635
0.000139902
8.27185e-05
-0.000161019
-6.04031e-05
9.76531e-05
0.000529818
-0.000239871
0.00022278
0.00120971
-0.000322644
0.000235237
0.000873122
-0.000267844
0.000259035
0.000648501
-0.000244462
0.000250535
-0.000501968
-0.000300928
0.000375356
-0.000520575
-0.000151188
0.000192312
-9.85036e-05
-0.000167762
1.63225e-05
-0.000121231
-0.000141907
-6.41242e-05
0.000503149
-9.43903e-05
-5.22847e-05
0.000112042
-0.000154678
-1.94525e-05
0.000163709
-0.000251649
5.66644e-05
0.000772766
-0.000293071
0.000138007
0.000403924
-0.000290999
0.000145342
0.000202214
-0.000289813
0.000159644
-1.97e-05
-0.000265101
9.80083e-05
-0.000195478
-0.000231008
0.000118436
-0.000455489
-0.000213477
0.000106763
-0.00139692
-6.03e-05
3.73816e-05
-0.000963777
-8.64807e-05
-9.37678e-06
-0.000522927
-7.81132e-05
-5.27968e-05
-1.64941e-06
-6.52135e-05
-4.25901e-05
-0.000145138
-7.12814e-05
-2.59517e-05
0.000299656
-8.86322e-05
2.79694e-05
0.000547481
-9.88608e-05
6.54404e-05
0.000522053
-0.00010141
7.00719e-05
0.000375214
-0.00010251
5.20647e-05
0.00011355
-9.83018e-05
1.55942e-05
-0.00017939
-8.92005e-05
5.14945e-05
-0.000465515
-8.23561e-05
3.50136e-05
-0.000515541
-7.41101e-05
-0.00153559
0.0026495
-1.96732e-05
-0.00267671
-0.00158303
0.00253952
0.000181011
-0.00127185
0.00313001
0.000287698
-0.0031786
-0.00176935
0.000283107
-0.00141105
0.00330806
5.58537e-05
-0.00114119
0.00381821
0.000125547
-0.000677275
0.00409777
0.000233562
-0.00414491
-0.001045
2.20138e-05
-0.00148512
0.00298979
2.46637e-05
-0.00141268
0.00360972
6.90705e-05
-0.000757407
0.00419861
0.000150446
-0.000373875
0.00447793
0.000266404
-0.0015946
0.00329616
1.31551e-05
-0.0013756
0.00414649
0.000131391
-0.000680487
0.00445403
0.000275529
-0.000396752
0.00469176
0.000358373
-0.000509227
0.00506871
0.000442025
-0.00158
0.00385781
8.19239e-05
-0.00121608
0.00445936
0.000184846
-0.000571709
0.00493469
0.000361495
-0.000270507
0.00537699
0.000573567
-0.000229331
0.00556171
0.000789859
1.40912e-05
0.0055025
0.00111001
-0.00132818
0.00541667
-0.000257353
-0.000914474
0.00582891
5.25648e-05
-0.000360484
0.00592567
0.000589621
-7.82501e-05
0.00580952
0.00103391
-4.53548e-05
0.00574158
0.00130981
2.0776e-05
0.0052701
0.00157395
0.000117636
0.005203
0.00165806
-0.00142588
0.00392284
0.000312021
-0.000320314
0.00743796
0.000799172
7.58679e-05
0.00678805
0.00102009
0.000128224
0.00612895
0.00110782
0.00037319
0.00520742
0.000911963
0.000410515
0.00457209
0.00085291
0.000298058
0.00483427
0.000812598
0.000283766
0.00499053
0.000699249
-0.00174759
0.00404385
0.000552872
9.49439e-05
0.00601671
0.00121068
0.000418396
0.00614202
0.000870412
0.000509803
0.00519803
0.000268896
0.00032937
0.00377016
-0.000170762
0.000194605
0.00381282
-0.000288143
0.000278946
0.00452615
-0.000260602
0.000353992
0.00450658
-6.34029e-05
0.000376973
0.00511617
-0.000216684
-0.00127811
0.00592062
0.000554574
-0.000506323
0.00409979
0.00103688
0.000249109
0.00444932
0.000723634
0.000595764
0.00353562
0.000375677
0.00026527
0.00305148
0.000111479
0.000169857
0.00297545
-0.000115708
0.000226958
0.00311755
-0.000186396
0.000308811
0.0033752
-0.000101049
0.000222789
0.003472
-0.000131307
0.000388356
0.00322275
7.75014e-06
-0.000163677
0.00330872
0.000434598
-0.00030345
0.00209998
0.000608898
-0.000104845
0.00217257
0.000474607
4.68859e-05
0.00268546
0.000248319
0.000184741
0.00278036
0.000267633
8.87049e-05
0.00183689
0.000202123
0.000192584
0.00112873
6.34011e-05
0.000273742
0.00173461
-2.22459e-05
0.000267608
0.00207327
-0.000149269
0.000351236
0.00151515
-7.11512e-05
0.000367706
0.00114563
1.17016e-06
0.00048424
0.000493464
-2.92615e-05
0.000239766
0.000582479
-6.06842e-05
-3.6799e-06
0.000704614
3.67187e-05
0.000186725
0.00108198
9.71882e-05
5.93078e-05
0.000383448
8.65095e-05
7.01156e-05
-2.23969e-05
-8.82889e-05
0.000103718
0.000665777
-0.000243416
0.000246208
0.00119889
-0.000337246
0.000241584
0.000738776
-0.00028454
0.000275404
0.000475696
-0.000210798
0.000202078
-0.000566515
-0.000283985
0.000200013
-0.000721069
-0.000295185
0.000376392
-0.00065906
-0.000131145
0.000188756
-0.000223053
-0.000178013
-2.75341e-05
-0.000134223
-0.000136612
-7.52417e-05
0.000472327
-8.86403e-05
-5.80708e-05
0.00018152
-0.000148388
-2.53562e-05
0.000261265
-0.000252829
6.05541e-05
0.000782928
-0.000294396
0.000140598
0.000331936
-0.00029624
0.000131601
0.000133276
-0.00028359
0.000134061
-0.000132016
-0.000259494
8.348e-05
-0.000299309
-0.000229156
0.000102681
-0.000525123
-0.000212561
9.09873e-05
-0.000533992
-0.000200428
0.000107778
-0.00144505
-5.96494e-05
4.21175e-05
-0.000980398
-8.57957e-05
-1.71794e-05
-0.000513807
-7.84215e-05
-5.44374e-05
4.02893e-05
-6.56144e-05
-4.248e-05
-9.54559e-05
-7.24154e-05
-2.4481e-05
0.000342912
-9.0057e-05
3.36189e-05
0.000526502
-0.000101273
6.94697e-05
0.000457543
-0.000103821
7.15356e-05
0.000304718
-0.00010245
4.39761e-05
6.50478e-05
-9.79845e-05
1.386e-05
-0.000202553
-8.89986e-05
4.79403e-05
-0.000519856
-8.28001e-05
3.23745e-05
-0.000555993
-7.42787e-05
1.16876e-05
-0.000526705
-6.63698e-05
-0.00156522
0.00252346
8.634e-05
-0.00258018
-0.00154679
0.00259917
1.40955e-05
-0.0011195
0.00335225
-0.000117695
-0.00340658
-0.00163884
-6.13947e-05
-0.0015912
0.0024842
0.000235473
-0.00136559
0.00315532
0.000380114
-0.000810201
0.00392739
0.000333848
-0.00384061
-0.00107627
0.000410019
-0.00148089
0.00325406
4.97713e-05
-0.00140009
0.00359663
0.000264834
-0.00073489
0.00398044
0.000220356
-0.000459234
0.00426366
0.000334706
-0.00427945
-0.000948008
0.000265931
-0.00145807
0.00282206
3.11965e-05
-0.00150378
0.00363409
0.000128484
-0.000783347
0.00416973
0.000200817
-0.000579539
0.00449785
0.000313311
-0.000632589
0.00454141
0.000432514
-0.00166119
0.00340262
-2.52588e-05
-0.00141056
0.0042096
0.000144515
-0.000758973
0.00444292
0.000329761
-0.000513418
0.00479934
0.000410858
-0.000345979
0.00505454
0.000489193
-0.000393625
0.00531777
0.000708354
-0.00138986
0.00388264
3.68456e-05
-0.00113058
0.00456247
0.000194917
-0.000621717
0.00497891
0.00040186
-0.000375998
0.00549035
0.000545881
-0.000287747
0.00564524
0.000732431
-0.000185109
0.00557404
0.000924204
-0.000169245
0.00569153
0.00122166
-0.00110203
0.0052935
-0.000200684
-0.00081272
0.00600538
5.85798e-05
-0.000468717
0.0059774
0.000545426
-0.000438001
0.00603377
0.000931596
-0.000224871
0.00610159
0.00127196
3.89015e-05
0.00547305
0.00147847
3.65899e-05
0.00538805
0.00165036
-6.0111e-05
0.00541585
0.00167847
-0.00157065
0.00359594
0.000149957
-0.000641027
0.00782023
0.000665723
-0.000264538
0.00727257
0.000997591
6.12211e-05
0.00643149
0.00116614
0.000152094
0.0055304
0.000962125
0.000185733
0.00466534
0.000827585
0.000264878
0.00480518
0.000896066
0.000595816
0.00481624
0.000745061
0.000194608
0.00526336
0.000617245
-0.0017537
0.00408763
0.000431814
-0.000443811
0.00528835
0.00121872
0.000357347
0.00610507
0.00113939
0.000712513
0.00518113
0.000770563
0.000189879
0.0041375
-2.30566e-05
7.70587e-05
0.00412359
-0.000388731
0.000247157
0.00433957
-0.00012176
0.000157707
0.00454958
-0.000152498
0.000350263
0.00490245
2.28393e-05
0.000759143
0.00458573
-7.3979e-05
-0.000979428
0.00612261
0.000613765
-0.000682952
0.00412878
0.000905089
9.16097e-05
0.00432983
0.000959903
0.000134866
0.00355613
0.000615136
0.000471348
0.0029529
0.000187653
0.000206226
0.00298746
-1.80427e-05
0.000254725
0.00314705
-0.000207345
0.000288433
0.00329831
-0.000124195
0.000331729
0.00331256
-5.73357e-06
0.000252128
0.00316374
2.68121e-05
0.000272114
0.00320556
0.000148604
-4.18959e-05
0.00349488
0.000339978
-0.000282886
0.00243797
0.000619261
-0.000290605
0.00258346
0.000484934
0.000150154
0.00284854
0.000348098
2.27969e-05
0.00281713
0.000248054
9.57076e-05
0.00189891
0.000180016
0.000192576
0.00118174
6.02594e-05
0.000310827
0.00172407
9.32786e-06
0.000325775
0.00205522
-8.8384e-05
0.000228101
0.00144167
-2.84856e-05
0.00030006
0.000927395
4.9106e-05
0.000194302
0.00147123
6.33607e-05
0.000482532
0.000422384
-3.50606e-05
0.000272065
0.000505934
-3.60252e-05
-4.09672e-05
0.000690151
-3.27876e-05
4.39165e-06
0.00099662
4.24488e-05
6.15946e-05
0.000336304
2.4667e-05
6.53143e-05
9.38152e-05
-0.000120373
0.000100959
0.000761156
-0.000224073
0.000254548
0.0011289
-0.000287375
0.000245498
0.000576924
-0.000289291
0.00025381
0.000277939
-0.000206532
0.000144607
-0.000571213
-0.000267227
0.000163848
-0.000765584
-0.000300637
0.000157697
-0.000423363
-0.000259906
0.000366399
-0.00079344
-0.000124241
0.00019534
-0.000339328
-0.000168092
-4.11364e-05
-0.00015561
-0.000132669
-9.26415e-05
0.000459739
-8.58206e-05
-6.85215e-05
0.000268636
-0.000149714
-2.54726e-05
0.000367853
-0.000253984
6.05706e-05
0.000792125
-0.000288978
0.000140218
0.000264019
-0.000297226
0.000128062
5.91235e-05
-0.000278613
0.000117239
-0.000234118
-0.000254751
7.64466e-05
-0.000392897
-0.000228492
9.19044e-05
-0.000585091
-0.000213153
8.57956e-05
-0.000601613
-0.000198361
7.62741e-05
-0.000637963
-0.00017394
0.000103747
-0.00148863
-6.01727e-05
4.30298e-05
-0.000998197
-8.4881e-05
-2.59325e-05
-0.000495176
-7.8494e-05
-5.6425e-05
8.45581e-05
-6.62654e-05
-4.282e-05
-4.5227e-05
-7.30233e-05
-2.23108e-05
0.000383774
-9.09659e-05
3.87219e-05
0.000501434
-0.000103711
7.25419e-05
0.000387833
-0.000104104
7.04607e-05
0.000231848
-0.000101412
4.08113e-05
1.88458e-05
-9.7059e-05
1.29819e-05
-0.000224306
-8.92135e-05
4.35774e-05
-0.000569078
-8.33535e-05
3.3228e-05
-0.000597399
-7.46214e-05
5.79007e-06
-0.00054046
-6.63135e-05
-1.44245e-05
-0.000205958
-6.11134e-05
-0.0015478
0.00247381
-2.59912e-05
-0.00246523
-0.00154397
0.00244121
7.94305e-05
-0.000992128
0.00313802
3.23472e-05
-0.0032114
-0.00161039
5.92577e-05
-0.00266788
-0.00161354
0.00260656
1.49432e-05
-0.00118635
0.00328042
-9.33177e-05
-0.00100748
0.00355337
1.14126e-05
-0.0034852
-0.00106232
-8.67079e-05
-0.00162026
0.00239886
0.000224708
-0.0013974
0.00302935
0.000358762
-0.000789355
0.00388748
0.000474489
-0.000637298
0.00394972
0.000424209
-0.00386201
-0.00100932
0.000294908
-0.00149505
0.00327257
1.84734e-05
-0.00152477
0.00350408
0.000163311
-0.000820298
0.00394814
0.000334088
-0.000606808
0.0041656
0.000345689
-0.000639242
0.00417091
0.000418265
-0.00424782
-0.000694034
0.000328564
-0.00152895
0.00265806
3.17673e-05
-0.00151863
0.00362747
0.000145881
-0.000881102
0.00418568
0.000234665
-0.000602492
0.0044494
0.000338345
-0.000592326
0.00464131
0.000459762
-0.000567969
0.004771
0.000622591
-0.0015699
0.00354032
4.23423e-05
-0.00133405
0.00431077
7.70445e-05
-0.000858729
0.00446177
0.000362682
-0.000585052
0.00488748
0.000450683
-0.000369062
0.0049983
0.000548408
-0.000287352
0.00522556
0.000683644
-0.000262539
0.00540634
0.000864636
-0.00123759
0.00403923
-2.10271e-05
-0.00102753
0.00463106
0.000183067
-0.000811242
0.00509994
0.00041642
-0.000470568
0.00539985
0.000524925
-0.000384242
0.0056628
0.000687684
-0.000270287
0.00578194
0.000833727
-0.000226963
0.00586198
0.0010173
-0.000353023
0.00600197
0.00128192
-0.00107658
0.00504015
-0.000240731
-0.0010001
0.00600851
0.000155266
-0.000518079
0.00579905
0.00049047
-0.00033842
0.00610669
0.000872139
-0.000218419
0.00616701
0.00123669
-0.000145949
0.00569074
0.00138596
-4.46325e-05
0.00567233
0.00150371
0.000382349
0.00568764
0.00159205
-0.000115456
0.0054198
0.00172628
-0.00178382
0.00351523
0.000110831
-0.000746736
0.00768218
0.000590929
-9.67234e-05
0.00749406
0.000898308
-0.000153641
0.00703368
0.00126156
-0.000103895
0.00602075
0.000969554
-8.67912e-05
0.00489667
0.000894648
0.000188319
0.00480808
0.00088352
-1.06321e-05
0.00494452
0.000936124
0.000370444
0.00511137
0.000876868
0.00061392
0.00542111
0.000668758
-0.00160767
0.00430764
0.000408229
-0.000752094
0.00471195
0.00107736
0.000194614
0.00607248
0.0011483
1.64742e-05
0.00559759
0.000841322
0.000417445
0.00458067
0.000381296
0.000807692
0.00380377
-0.000304702
6.60209e-05
0.00433741
-0.000197866
0.000121699
0.00467105
-7.64968e-05
0.000413407
0.00470376
-3.54793e-05
4.30637e-05
0.00468014
0.00013749
0.000255366
0.00457103
8.09803e-05
-0.000792851
0.006228
0.000645559
-0.000861299
0.0043914
0.000929553
-0.000248183
0.00435369
0.000838812
-0.000108613
0.00407734
0.000697461
6.59274e-05
0.00318147
0.000343429
0.000209762
0.00297716
8.38897e-05
0.000319454
0.00319336
-0.00019123
0.000289814
0.0032275
-0.000115525
0.000308533
0.0032611
-5.54901e-05
4.8104e-05
0.00318622
0.000151788
0.000154062
0.00321024
0.000168133
0.000123903
0.00390558
0.000167973
1.66397e-05
0.00370311
0.000257659
-0.000177785
0.00273705
0.000490746
-0.000291487
0.00297318
0.000480066
6.32846e-06
0.00298698
0.000344564
0.000257059
0.00272391
0.00024586
9.21017e-05
0.00193581
0.000184367
8.08639e-05
0.00131552
6.6331e-05
0.000331999
0.00168635
2.05304e-05
0.000313509
0.00196567
3.0867e-05
0.000361079
0.00122913
1.688e-05
0.000172932
0.000777152
9.34312e-05
0.000170699
0.00143087
8.26169e-05
5.94927e-05
0.00182956
6.86839e-05
0.000469126
0.00035244
-3.27828e-05
0.00027142
0.000429017
-3.42238e-05
-5.28828e-05
0.000711015
-4.51426e-05
-1.1364e-05
0.000873238
9.31691e-06
4.71097e-05
0.000286856
-2.37344e-05
7.11235e-05
0.00017946
-0.000157574
9.48941e-05
0.000803665
-0.000197205
0.000268345
0.00102417
-0.000247473
0.000260704
0.000392983
-0.000236075
0.000181379
0.000119802
-0.000195295
0.000123456
-0.000578288
-0.000246467
0.000139823
-0.00078101
-0.000299718
0.000131351
-0.000508862
-0.000260694
0.000105269
-0.000638738
-0.000183559
0.000349267
-0.000921158
-0.000117802
0.000183906
-0.000444874
-0.00015957
-5.21577e-05
-0.000165876
-0.000131602
-0.000112662
0.000465639
-8.23317e-05
-7.80789e-05
0.000371206
-0.000153133
-2.27517e-05
0.000474308
-0.000255729
6.23705e-05
0.000798774
-0.000284281
0.000127525
0.000214618
-0.00029456
0.000120088
-1.34116e-05
-0.000274319
9.4013e-05
-0.000314928
-0.000251005
5.64012e-05
-0.000462852
-0.000228214
7.22022e-05
-0.000626738
-0.000215471
8.55411e-05
-0.000669149
-0.00019793
5.25887e-05
-0.000713209
-0.000169914
1.23813e-05
-0.000516275
-0.000136814
9.97494e-05
-0.00152783
-6.05428e-05
4.11946e-05
-0.00101544