/*--------------------------------*- C++ -*----------------------------------*\
  =========                 |
  \\      /  F ield         | OpenFOAM: The Open Source CFD Toolbox
   \\    /   O peration     | Website:  https://openfoam.org
    \\  /    A nd           | Version:  7
     \\/     M anipulation  |
\*---------------------------------------------------------------------------*/
FoamFile
{
    version     2.0;
    format      ascii;
    class       surfaceScalarField;
    location    "2.5";
    object      phi_0;
}
// * * * * * * * * * * * * * * * * * * * * * * * * * * * * * * * * * * * * * //

dimensions      [0 3 -1 0 0 0 0];

internalField   nonuniform List<scalar> 
54095
(
0.000239391
-0.000601064
-8.02465e-05
0.000492605
0.000340368
-0.000106285
0.00021157
-0.000739134
-7.35001e-05
0.000170155
-0.000131901
-0.000100684
0.000729699
0.000223989
-0.0001265
0.000480658
0.000201463
-0.000130183
0.000180164
0.00201919
-0.000122599
0.000183629
-0.000855213
-6.75502e-05
0.000173312
-0.000281363
-9.73498e-05
1.35897e-06
-0.000389881
-7.22319e-05
0.000764861
0.000616063
0.00021635
0.000695566
8.34449e-05
-7.43639e-05
0.000428038
0.00250608
0.000208596
0.000456042
8.68272e-05
-0.000157777
0.000232371
0.00196636
-0.000136419
5.40025e-05
0.00053466
-9.91556e-05
0.000156396
-0.000948737
-6.28713e-05
0.000174659
-0.000428973
-9.45991e-05
4.2119e-06
-0.000417664
-7.37787e-05
-4.00888e-05
-0.000307293
-5.95887e-05
0.000637276
0.00439169
0.000355406
0.000528522
0.000483254
0.000299854
0.000535136
0.000112656
0.00027711
0.000561256
-1.18157e-05
-9.9542e-06
0.000340567
0.00212826
0.000195261
5.17006e-05
0.0022582
0.000238911
0.000419384
3.06604e-07
-0.000176468
0.00033524
0.00179145
-0.000143448
5.99066e-05
0.000461403
-0.000118856
-7.48841e-05
0.00070776
-8.42068e-05
0.000131842
-0.00102073
-5.98518e-05
0.0001653
-0.000565825
-9.13187e-05
8.41161e-06
-0.000445154
-7.55211e-05
-4.36659e-05
-0.000276759
-6.06466e-05
-3.83823e-05
-0.000560802
-6.51854e-05
-0.00036195
0.00563454
0.000536253
0.000257523
0.00431396
0.000348733
-3.37379e-07
0.00482818
0.000931197
8.91432e-05
0.000590062
0.000365304
0.000535324
-9.97066e-05
0.00031746
0.000172353
0.00183509
0.000215198
0.000477305
-4.42756e-07
-6.92937e-05
0.0004085
0.00186032
0.000184729
9.42329e-05
0.0021787
0.000240437
-4.93503e-05
0.00225238
0.000194445
0.000381684
-5.00641e-05
-0.000199471
0.000405018
0.00151909
-0.000143823
6.6483e-05
0.00038694
-0.000127056
-7.66e-05
0.000709202
-8.73641e-05
-5.50524e-05
-0.000116953
-0.00015822
0.000115454
-0.00107781
-5.83688e-05
0.000144202
-0.000681357
-8.85218e-05
4.09364e-07
-0.000460324
-7.6558e-05
-4.62986e-05
-0.00024453
-6.14514e-05
-4.27157e-05
-0.00051333
-6.54023e-05
-2.4524e-05
-4.68178e-06
-7.74661e-05
-0.00122816
0.00565081
0.000463415
-0.000561155
0.00594992
0.000503293
-0.000457818
0.00651188
0.000767866
-0.000300616
0.00431826
0.000385457
0.000262129
0.004651
0.000799112
0.000182365
0.00423221
0.000843125
-0.000130636
0.000763959
0.000434044
0.00061417
-0.00030485
0.000364778
0.000324728
0.0016629
0.000259159
1.49091e-06
0.00270229
0.000158014
0.00039568
5.64217e-05
-7.08611e-05
0.000519044
0.00160114
7.58574e-05
0.000123554
0.00208317
0.000223187
-1.7747e-05
0.00224036
0.000193605
3.39405e-05
0.00105382
0.000228948
0.000349919
-8.17047e-05
-0.000202823
0.000429307
0.00119572
-0.000161204
5.85829e-05
0.000321161
-0.000136217
-6.99147e-05
0.00070634
-0.000100578
-4.88793e-05
-5.14888e-05
-0.000146665
2.07264e-05
-0.000263453
-0.000240821
0.000107653
-0.00112758
-5.78864e-05
0.000120505
-0.0007734
-8.68315e-05
-2.34932e-06
-0.000469518
-7.69783e-05
-4.51817e-05
-0.000213258
-6.26491e-05
-4.78558e-05
-0.000461472
-6.5454e-05
-2.66836e-05
3.50978e-05
-7.84984e-05
1.10022e-05
0.0005943
-8.21856e-05
-0.00146182
0.00403651
9.14242e-05
-0.00123078
0.00597504
0.000345387
-0.000626683
0.00623412
0.00053219
-0.000842517
0.00603405
0.000457779
-0.000294522
0.00686549
0.000706342
-0.000106267
0.0067167
0.000877596
-0.000717811
0.00441263
0.000492806
0.000509905
0.00442195
0.000718764
0.000389179
0.00460129
0.000365573
0.000333342
0.00357695
0.00031108
-0.000350799
0.00111319
0.000397253
0.000459977
-0.000303509
0.00049177
0.00036066
0.00147334
0.000317232
2.586e-06
0.00272406
0.000217056
4.18207e-05
0.00256607
2.78598e-05
0.000314295
0.000175367
-8.33212e-05
0.000568069
0.00134193
4.95861e-05
0.000203489
0.00182388
0.000190235
1.68391e-05
0.00216274
0.00021405
-4.43247e-06
0.000994009
0.00020897
0.000106394
-0.000599183
0.000158985
0.000324573
-0.000102333
-0.000196291
0.000427248
0.000864681
-0.000178528
5.7604e-05
0.000250864
-0.00015086
-6.12421e-05
0.000699451
-0.000113268
-4.18847e-05
-1.41408e-05
-0.000143897
1.60281e-05
-0.000212275
-0.000240554
4.81752e-05
0.000737781
-0.000272311
0.000103975
-0.00117348
-5.80728e-05
9.56681e-05
-0.000840928
-8.60263e-05
-2.10429e-06
-0.000477209
-7.70361e-05
-4.29865e-05
-0.000183737
-6.35126e-05
-4.83738e-05
-0.000409305
-6.6442e-05
-2.80517e-05
7.72372e-05
-7.95417e-05
1.42423e-05
0.000586342
-8.47826e-05
1.90564e-05
0.000728968
-8.36779e-05
-0.00141823
0.00347582
5.43782e-05
-0.00147391
0.00425512
2.45134e-05
-0.00088968
0.0050237
0.000387356
-0.00128251
0.00606379
0.00035125
-0.000618167
0.00631435
0.000588798
-0.000219781
0.00577607
0.000656575
-0.00104034
0.00599009
0.000366488
-0.000102051
0.00733941
0.000595815
0.000511849
0.00666991
0.000630455
0.000697189
0.00500722
0.000730556
-0.00111854
0.00453971
0.00064066
0.000336708
0.00437148
0.00066655
0.000453337
0.00485387
0.000373512
0.000311252
0.00383815
-0.000204294
0.00023801
0.00313896
-0.000170962
-0.00054382
0.00158135
0.000389949
0.000267028
-5.82796e-05
0.000453065
0.000405589
0.0014157
0.000347308
7.57201e-05
0.00264047
0.000341934
2.60747e-05
0.00265713
9.54933e-05
0.000103779
0.00176043
2.1326e-05
0.00026482
0.000306911
-7.1791e-05
0.000568241
0.00110486
1.27598e-05
0.00021567
0.00152968
0.000185721
2.19519e-05
0.00203106
0.000238723
0.000135164
0.000818188
0.000212822
0.000112722
-0.000604985
0.000118078
0.000127591
-0.000146987
-7.59884e-05
0.000309651
-0.000131832
-0.000176177
0.0003873
0.000578857
-0.000202099
5.09318e-05
0.000179672
-0.000160373
-5.81531e-05
0.00068919
-0.000125432
-3.73744e-05
1.23558e-06
-0.000139644
9.74202e-06
-0.000154868
-0.000239098
5.02539e-05
0.000738835
-0.000277619
7.63776e-05
0.000646708
-0.000276107
0.000101733
-0.00121652
-5.86933e-05
7.37772e-05
-0.000886719
-8.60586e-05
-2.76763e-06
-0.000483644
-7.68233e-05
-4.57237e-05
-0.000151264
-6.37848e-05
-4.97213e-05
-0.000355598
-6.74979e-05
-2.79729e-05
0.000119964
-8.11956e-05
1.37723e-05
0.000580395
-8.73669e-05
2.63275e-05
0.000705302
-8.74443e-05
6.17751e-05
0.000610746
-9.32352e-05
-0.00139176
0.00357479
9.98651e-05
-0.00155549
0.00346933
8.80699e-05
-0.00104804
0.00451723
0.000227557
-0.00145922
0.00444847
-1.66464e-05
-0.000983846
0.00508813
0.000325762
-0.000477539
0.00507475
0.00069766
-0.00124339
0.00594929
0.000317547
-0.000600211
0.00640359
0.000760178
0.000411282
0.00566736
0.000798079
0.000578215
0.00507231
0.000907099
-0.001198
0.00573622
0.000333332
-3.54237e-05
0.00772848
0.000349551
0.000552457
0.00662204
0.000544568
0.000539234
0.00523966
0.000170032
0.000691589
0.00378617
0.000513889
-0.00149056
0.00474354
0.000742906
0.000209852
0.00445414
0.000615172
0.000611245
0.00494516
0.000369597
0.0003233
0.00406307
-9.8987e-05
0.000210819
0.00297122
-0.000221297
4.96745e-05
0.00311867
-0.000299413
-0.000660113
0.00209219
0.000414098
0.000140349
0.000292759
0.000466802
0.000354291
0.00128145
0.000448697
0.00017349
0.00258564
0.000250601
0.000175807
0.002679
0.00027942
0.00016082
0.00172913
7.86887e-05
0.000181372
0.00117327
2.08765e-05
0.000250226
0.00042259
-5.62533e-05
0.00048781
0.000921318
1.12401e-05
0.000143521
0.00127643
0.000173426
9.29045e-05
0.00183453
0.000231192
0.000103425
0.000684661
0.000231451
0.000127147
-0.00057545
6.58823e-05
0.000128771
1.2464e-05
-0.00011989
0.000184722
0.00111299
-0.000283858
0.000317445
-0.000191263
-0.000156282
0.000329079
0.000344766
-0.000197388
5.36599e-05
9.7483e-05
-0.000176337
-4.84364e-05
0.000659966
-0.000128437
-4.2767e-05
1.2187e-05
-0.000143338
2.98869e-06
-8.65763e-05
-0.000238897
5.26768e-05
0.000742966
-0.000282133
8.68893e-05
0.00059352
-0.000284993
0.000157372
0.000432775
-0.000295804
0.000104339
-0.0012614
-5.94576e-05
5.73494e-05
-0.000916484
-8.62776e-05
4.69077e-06
-0.000497749
-7.66445e-05
-4.74406e-05
-0.000116642
-6.40047e-05
-5.00979e-05
-0.000300925
-6.83602e-05
-2.77111e-05
0.000163243
-8.30661e-05
1.48626e-05
0.000574429
-9.00925e-05
3.59577e-05
0.000673201
-9.12239e-05
6.32826e-05
0.000556356
-9.6337e-05
5.77884e-05
0.000285409
-9.8666e-05
-0.00146255
0.00317109
5.44997e-06
-0.00141618
0.00339653
3.89496e-05
-0.00107345
0.00402569
0.000157811
-0.00162668
0.00360414
3.26499e-05
-0.00113838
0.00454639
0.000213443
-0.000624173
0.00482502
0.000435301
-0.0013826
0.0045092
7.84876e-05
-0.000976557
0.00515237
0.000295454
-0.000347961
0.00544656
0.000713196
0.000106288
0.00516387
0.00103127
-0.00120846
0.00574005
0.000219704
-0.000745587
0.00661913
0.000812167
0.000401227
0.0057213
0.000857464
0.000260397
0.00522987
0.000919355
0.000635769
0.00496834
0.00113892
-0.0014783
0.00528324
0.000440712
0.000154678
0.00778308
0.000333898
0.000763138
0.00655252
0.000267181
0.000954041
0.00510217
5.13208e-05
0.000512574
0.00377564
-0.000121202
0.000198396
0.00370556
0.000191506
-0.00167884
0.00510632
0.000655959
0.000189732
0.00456758
0.000580088
0.000662229
0.00490541
0.000346986
0.000594494
0.00397875
3.29108e-05
0.000233157
0.00299642
-0.000181541
0.00030614
0.00300888
-0.000256818
0.000134727
0.00318914
-0.00030693
-0.000618158
0.00250525
0.000455314
-6.069e-05
0.000734298
0.000521059
9.43398e-05
0.00136838
0.000429057
0.000284073
0.00246995
0.000373218
4.66908e-05
0.00272093
0.0002654
0.000263104
0.00169369
0.000178907
0.000216673
0.00109107
7.29809e-05
0.000286163
0.00164054
-0.000105685
0.00029144
0.000482829
-3.42336e-05
0.000374605
0.00081323
6.30806e-06
0.000139313
0.00103239
0.000169629
9.88991e-05
0.00163835
0.000222278
9.69274e-05
0.000572294
0.000203865
8.58211e-05
-0.000447276
2.04441e-05
0.000127436
0.0001775
-0.000173913
0.00018523
0.00118496
-0.000290205
0.000216056
0.00106526
-0.000321493
0.000352606
-0.000294315
-0.000145215
0.000253082
0.000177037
-0.000184286
6.88642e-05
3.37444e-06
-0.000167452
-4.44131e-05
0.00060491
-0.000124309
-4.46067e-05
3.08838e-05
-0.000152625
-6.43638e-06
-9.6897e-06
-0.000241499
5.53501e-05
0.000749074
-0.000285493
9.7955e-05
0.000538911
-0.000289522
0.000153617
0.000356843
-0.000299395
0.000159204
0.000244219
-0.000276013
0.000105804
-0.00130744
-5.97663e-05
4.58494e-05
-0.00093503
-8.67616e-05
5.99817e-06
-0.000512843
-7.7182e-05
-5.00488e-05
-7.92076e-05
-6.40306e-05
-4.73516e-05
-0.00024811
-6.94685e-05
-2.68471e-05
0.000206701
-8.49712e-05
1.53303e-05
0.000569059
-9.30259e-05
4.67678e-05
0.000631357
-9.50165e-05
6.55676e-05
0.000498821
-9.92561e-05
6.02063e-05
0.000227528
-9.86626e-05
2.26365e-05
-0.00012889
-9.03118e-05
-0.00143409
0.00333808
-3.96441e-05
-0.00332691
-0.00133536
0.00312162
-3.1351e-05
-0.000919608
0.0038133
9.86283e-05
-0.00149829
0.0032864
-1.8262e-05
-0.0012302
0.00401806
0.000138396
-0.000606485
0.00441713
0.000247532
-0.00154739
0.00376895
-2.2186e-08
-0.0011204
0.00454956
0.000173318
-0.00060507
0.00490606
0.000389509
-0.000158696
0.00517399
0.000651199
-0.00146365
0.00481337
-4.8983e-05
-0.00113723
0.00534032
0.000282192
-0.000198741
0.00555464
0.000787346
-0.000108569
0.0051855
0.00106054
6.14806e-05
0.00514088
0.00140081
-0.00127685
0.0052461
0.000292499
-0.000618096
0.00681679
0.000794823
0.000288506
0.0060209
0.000987199
0.000853759
0.00528373
0.000903892
0.000563677
0.00492096
0.000915635
0.000412761
0.00468289
0.00110624
-0.00166645
0.00469207
0.000578777
0.000383967
0.00749276
0.000536805
0.000821285
0.00640172
0.000325643
0.000821279
0.00513389
8.67656e-06
0.000562312
0.00363197
-0.000134156
0.000397307
0.00369785
-0.000204661
0.000186193
0.00443805
-0.000110046
-0.00163685
0.00544773
0.000677283
7.15977e-05
0.00440108
0.000690168
0.000503412
0.00471174
0.000364689
0.000658024
0.00392352
2.8263e-05
0.00013823
0.00303055
-9.27628e-05
0.000298054
0.00302183
-0.00022945
0.000198786
0.00317691
-0.000226695
0.000274022
0.0035523
-0.000303743
-0.000524561
0.00286042
0.00046084
-0.000238103
0.00124334
0.000558984
-8.42268e-05
0.00167024
0.000442731
0.000152477
0.00250832
0.000337109
0.000103098
0.00279429
0.000293686
0.000173371
0.00166309
0.000208447
0.000251296
0.00105861
8.75046e-05
0.00029666
0.00165939
-5.72914e-05
0.000295428
0.00191325
-0.000187276
0.000347586
0.000577067
-8.92187e-05
0.000281832
0.000733428
1.6818e-05
0.000164276
0.000802567
0.000140715
0.000105255
0.00145391
0.000204396
9.13084e-05
0.000480526
0.00017813
8.17543e-05
-0.000307299
-2.43023e-05
0.000109288
0.000357493
-0.000213487
0.000210952
0.00120309
-0.000305039
0.000223885
0.000988086
-0.000283295
0.000244998
0.000772571
-0.00028541
0.00036416
-0.00040795
-0.000144721
0.000216777
3.21372e-05
-0.000171242
5.29491e-05
-7.61753e-05
-0.000151687
-5.0822e-05
0.000548995
-0.000110764
-4.62622e-05
6.2167e-05
-0.000156681
-1.24514e-05
6.98756e-05
-0.000246586
4.95691e-05
0.000760813
-0.000287476
0.00011498
0.000476034
-0.000290828
0.000150699
0.000277656
-0.000295467
0.000169264
0.000107545
-0.000271779
0.000110362
-8.22803e-05
-0.000234392
0.000106363
-0.00135336
-6.04396e-05
4.29341e-05
-0.000950695
-8.70353e-05
-2.50392e-07
-0.000521515
-7.78398e-05
-5.14723e-05
-4.02301e-05
-6.46872e-05
-4.54356e-05
-0.000196467
-7.02379e-05
-2.69249e-05
0.000250972
-8.68149e-05
2.11507e-05
0.000558949
-9.60124e-05
6.00803e-05
0.000576635
-9.83842e-05
6.69737e-05
0.000438525
-0.000101694
5.80185e-05
0.000168853
-9.85995e-05
1.80131e-05
-0.000155691
-8.98741e-05
5.29243e-05
-0.000406992
-8.18141e-05
-0.00158261
0.00250507
0.000107848
-0.00246439
-0.00136252
0.00336444
8.02199e-07
-0.00113406
0.00390008
5.71317e-05
-0.00378241
-0.00150267
1.22438e-05
-0.00141326
0.00307689
-4.02933e-05
-0.00111127
0.00361056
5.24546e-05
-0.000547673
0.00427601
0.000146951
-0.00155601
0.00332416
-2.91428e-05
-0.00130849
0.00408543
0.000102465
-0.000742001
0.00442338
0.00026907
-0.000307125
0.00471911
0.000334698
-0.00160905
0.00383432
8.00373e-05
-0.00115001
0.00441586
0.00014645
-0.000471774
0.00497155
0.00038086
-0.000331833
0.00524153
0.00054523
-0.000396632
0.00554567
0.000907289
-0.00146129
0.0051812
-0.000183388
-0.00105818
0.00562486
0.000106552
-0.000389673
0.00579849
0.000716517
6.99649e-05
0.00565684
0.00109979
3.25719e-05
0.00538382
0.0013487
0.000274659
0.00516401
0.0014996
-0.0013454
0.00456058
0.00036447
-0.000432372
0.00712562
0.000800002
0.000253815
0.00641492
0.000968274
0.000390194
0.00567337
0.00102864
0.000542608
0.0049744
0.000870159
0.000352199
0.00469724
0.00094639
0.00037387
0.00483128
0.00083431
-0.00183094
0.00428393
0.000602224
0.000452546
0.00680694
0.000883643
0.000709377
0.00629285
0.000439706
0.00076356
0.0051766
0.000177392
0.000512106
0.00356549
-0.000298726
0.00026865
0.00379887
-0.000205769
0.000169342
0.00446334
-0.000200507
0.000243353
0.00467651
-0.000204057
-0.00144267
0.00567438
0.000691457
-0.000222654
0.00421797
0.000844946
0.000255961
0.00453424
0.000527482
0.000360496
0.00382052
0.000259675
0.000201783
0.003066
-0.000105869
0.000216555
0.00303652
-0.00015063
0.000286095
0.00311165
-0.00019899
0.000314067
0.00346574
-0.000157546
0.000385353
0.00346394
-0.00021776
-0.000419842
0.00315855
0.000469295
-0.000296395
0.00170409
0.000578309
5.38838e-05
0.00196005
0.000379572
0.000144993
0.00257751
0.000333801
0.000110002
0.00281036
0.000302353
0.000102489
0.00174536
0.000190684
0.000200408
0.00109667
7.92735e-05
0.00031234
0.00168503
-3.95258e-05
0.000254509
0.00199764
-0.000172304
0.000329855
0.00169428
-0.00010888
0.00043586
0.000569391
-6.40244e-05
0.000254097
0.000643801
-3.69119e-05
2.16196e-05
0.000764629
8.60852e-05
3.73417e-05
0.00134001
0.000166451
8.60974e-05
0.000413261
0.000139301
8.19932e-05
-0.000163607
-6.00065e-05
9.66447e-05
0.000525104
-0.000238989
0.00022316
0.00120391
-0.000322485
0.000234196
0.000868189
-0.000268639
0.000258801
0.00064346
-0.000243721
0.00024937
-0.000500107
-0.000299672
0.000377063
-0.000527258
-0.000151392
0.000193855
-9.52318e-05
-0.000168272
1.55329e-05
-0.000121132
-0.000142069
-6.52669e-05
0.000505364
-9.42617e-05
-5.28062e-05
0.000112617
-0.000153843
-2.06732e-05
0.000157772
-0.000250829
5.56754e-05
0.000772589
-0.000292887
0.000137896
0.000401976
-0.000291233
0.00014441
0.000199571
-0.00029018
0.000159209
-2.36366e-05
-0.000265476
9.73475e-05
-0.000201794
-0.000231599
0.000117087
-0.000462879
-0.000213829
0.000107438
-0.00140043
-6.03714e-05
3.84054e-05
-0.00096299
-8.65499e-05
-8.83257e-06
-0.000521408
-7.83097e-05
-5.25877e-05
-1.04801e-07
-6.53774e-05
-4.25921e-05
-0.00014735
-7.12119e-05
-2.65415e-05
0.000295765
-8.84887e-05
2.75893e-05
0.000543464
-9.89184e-05
6.53776e-05
0.000516901
-0.000101656
7.02431e-05
0.000372634
-0.000102736
5.23743e-05
0.000113217
-9.84321e-05
1.52863e-05
-0.000180232
-8.93452e-05
5.06037e-05
-0.000465072
-8.23973e-05
3.46531e-05
-0.000515004
-7.41814e-05
-0.00153709
0.00264635
-1.91432e-05
-0.00267273
-0.00158235
0.00254151
0.000183379
-0.00127477
0.00313458
0.000292885
-0.00317891
-0.00176729
0.000279118
-0.0014116
0.00330747
5.53116e-05
-0.00115227
0.00381297
0.000128923
-0.000671372
0.00409385
0.000232295
-0.00414531
-0.00104884
1.91118e-05
-0.00148689
0.00298217
2.56018e-05
-0.00141399
0.00360565
7.0118e-05
-0.000761534
0.00419642
0.000151585
-0.00037689
0.00448191
0.000267852
-0.00159978
0.00330165
1.32384e-05
-0.00137712
0.00415103
0.000132374
-0.000681633
0.00445842
0.000277291
-0.000400393
0.00469475
0.000361986
-0.000505671
0.00507147
0.000442228
-0.00157389
0.00386664
8.02844e-05
-0.00121222
0.00446282
0.00018712
-0.000573708
0.00493907
0.000362964
-0.000269067
0.00539
0.000571427
-0.000225504
0.00556882
0.000780156
2.38908e-05
0.00551047
0.00110468
-0.00131682
0.00540717
-0.000254557
-0.000900671
0.0058607
4.90746e-05
-0.000366048
0.00594247
0.000582437
-0.000104562
0.0058401
0.00102802
-5.6941e-05
0.005777
0.00130616
6.50441e-06
0.00528504
0.00157337
0.000107757
0.00521854
0.00166182
-0.00143654
0.00386504
0.000301136
-0.000333058
0.00748449
0.000791201
4.99912e-05
0.00684636
0.00102795
0.000104313
0.00618668
0.00111421
0.000351846
0.00524409
0.000919207
0.000408599
0.00457622
0.00085123
0.000293779
0.00483537
0.000817865
0.000292593
0.00498811
0.000699845
-0.00174269
0.00404109
0.000542866
2.75146e-05
0.0059275
0.00123149
0.000389365
0.00611938
0.000923707
0.0004865
0.00519316
0.000297148
0.000314785
0.00378894
-0.000159057
0.000193852
0.00381645
-0.000293603
0.000278569
0.00452066
-0.000255568
0.000350316
0.00449782
-5.80683e-05
0.000391661
0.00510463
-0.00021352
-0.00125085
0.00596053
0.000544854
-0.000532242
0.00410285
0.00104242
0.000249941
0.00443018
0.000752943
0.000592533
0.00350462
0.000395837
0.000275587
0.0030377
0.000122391
0.000171976
0.00297499
-0.000113825
0.000225093
0.00312695
-0.000190615
0.00030598
0.00337633
-0.000103215
0.000216337
0.00346915
-0.000124577
0.000390731
0.00320654
7.3166e-06
-0.000142064
0.00331096
0.00042551
-0.000303238
0.00212397
0.000606756
-0.000131735
0.0022131
0.000478609
3.73686e-05
0.00271064
0.00024642
0.000180393
0.00278536
0.0002645
8.7697e-05
0.00184311
0.000198897
0.000192815
0.00112943
6.17495e-05
0.000273092
0.00173717
-2.27948e-05
0.000268764
0.00207228
-0.00014873
0.000347346
0.00150397
-7.05401e-05
0.000366476
0.00113389
7.43108e-07
0.00048969
0.000485826
-2.90616e-05
0.000244004
0.00058946
-5.98316e-05
-3.97697e-06
0.000710535
3.66917e-05
0.000178308
0.0010874
9.51207e-05
5.81863e-05
0.000383176
8.55442e-05
6.97742e-05
-2.65136e-05
-8.82394e-05
0.00010241
0.000659987
-0.000241623
0.000246556
0.00119249
-0.000336228
0.000241532
0.000734236
-0.000285654
0.000274287
0.000471015
-0.000211272
0.00020015
-0.000563386
-0.000283245
0.000198246
-0.000731967
-0.00029475
0.000377538
-0.000666551
-0.000130808
0.000190731
-0.000220532
-0.000178417
-2.78073e-05
-0.000133408
-0.000137021
-7.5475e-05
0.000474863
-8.86814e-05
-5.85121e-05
0.000182102
-0.000147826
-2.64661e-05
0.000255924
-0.000252072
5.92958e-05
0.000784095
-0.000294042
0.000139746
0.000331246
-0.000296525
0.000130943
0.000131732
-0.000284094
0.000133624
-0.00013516
-0.000259907
8.26469e-05
-0.000304975
-0.000229655
0.000101068
-0.000532073
-0.000212869
8.90747e-05
-0.000539744
-0.000200557
0.000107436
-0.00144817
-5.96996e-05
4.28222e-05
-0.000980272
-8.59112e-05
-1.66306e-05
-0.000512683
-7.86438e-05
-5.42515e-05
4.16122e-05
-6.57752e-05
-4.25298e-05
-9.78724e-05
-7.23254e-05
-2.50879e-05
0.000339523
-8.9882e-05
3.30603e-05
0.000523208
-0.000101293
6.93217e-05
0.000452708
-0.000104047
7.16382e-05
0.000302017
-0.000102677
4.42352e-05
6.43254e-05
-9.80799e-05
1.3512e-05
-0.000203063
-8.9113e-05
4.69884e-05
-0.00051856
-8.28458e-05
3.20582e-05
-0.000555132
-7.43274e-05
1.14666e-05
-0.000526651
-6.64156e-05
-0.00156613
0.0025209
8.67418e-05
-0.0025786
-0.00154782
0.00259783
1.40017e-05
-0.00112616
0.00335016
-0.000116952
-0.00340096
-0.00164
-5.89822e-05
-0.00158976
0.00248369
0.000235989
-0.00136659
0.00315042
0.000381852
-0.000805558
0.00393077
0.000339227
-0.00384293
-0.00108303
0.000406771
-0.00148265
0.00325523
4.79859e-05
-0.00140082
0.00359343
0.00026168
-0.000736555
0.00397723
0.000220559
-0.000463375
0.00426155
0.000334859
-0.00427763
-0.000943875
0.000264725
-0.00145933
0.00281026
3.14584e-05
-0.00150822
0.00363281
0.000129534
-0.000788358
0.00416995
0.000203311
-0.000579435
0.00449828
0.000314253
-0.000632715
0.00454325
0.000434915
-0.00166179
0.00341415
-2.46021e-05
-0.00140655
0.00421518
0.000143416
-0.00076082
0.00444453
0.000333375
-0.000518664
0.0048081
0.000413544
-0.00034098
0.00505466
0.000494272
-0.000392299
0.00532599
0.000709303
-0.00137898
0.00389744
3.1372e-05
-0.00112442
0.00457177
0.000195083
-0.000626146
0.00498247
0.000403821
-0.000388103
0.0054924
0.000544099
-0.000293023
0.00565152
0.00072481
-0.000199973
0.0055887
0.000908412
-0.000185234
0.00571426
0.00121025
-0.00109564
0.0052603
-0.000194031
-0.000814815
0.00602341
6.44905e-05
-0.000470056
0.00596771
0.000543881
-0.000447921
0.00604787
0.000926906
-0.000231597
0.00611943
0.00126903
3.19882e-05
0.00549214
0.00147567
2.83562e-05
0.0054119
0.00164543
-5.69409e-05
0.00544157
0.00167575
-0.00159788
0.00357504
0.000145186
-0.000668428
0.00783068
0.000650899
-0.000275493
0.00731184
0.000990584
4.81976e-05
0.00648084
0.00117208
0.000135281
0.00557372
0.000964086
0.000177906
0.00468119
0.000830186
0.000261061
0.00480416
0.000899945
0.000590581
0.00480978
0.000755933
0.000217261
0.00527066
0.000617864
-0.00174584
0.00411044
0.000425641
-0.000492121
0.00521619
0.00121405
0.000349377
0.00610037
0.00115107
0.000695699
0.00521042
0.000803275
0.000194113
0.00416568
1.87489e-06
9.47291e-05
0.00412146
-0.000386822
0.000237224
0.00433282
-0.000117884
0.000150862
0.00454969
-0.000152318
0.000351605
0.00487787
3.34196e-05
0.000774881
0.00455166
-6.47713e-05
-0.000949846
0.00614633
0.000621984
-0.000703216
0.00414797
0.000899708
4.71173e-05
0.00433168
0.000962077
8.61422e-05
0.00358095
0.000627844
0.000459362
0.0029572
0.000197371
0.000211215
0.00298774
-1.38755e-05
0.000258269
0.00315818
-0.000210511
0.000288221
0.00330071
-0.000130126
0.000331662
0.00330817
-5.13307e-06
0.000238264
0.00316005
3.09957e-05
0.000267371
0.00320352
0.000148205
-3.31137e-05
0.00350397
0.000329802
-0.000275254
0.00246015
0.000608589
-0.000290601
0.00262358
0.000482901
0.000137764
0.00287582
0.000353973
2.23763e-05
0.00282119
0.000246406
9.5554e-05
0.00190375
0.00017808
0.000185599
0.00118661
5.8531e-05
0.000312947
0.00172324
9.27899e-06
0.000329381
0.00204797
-8.63348e-05
0.000225928
0.00143163
-2.80252e-05
0.000295804
0.000917436
5.0261e-05
0.000195766
0.00146832
6.35849e-05
0.000485409
0.000413708
-3.57528e-05
0.00027586
0.000510962
-3.56932e-05
-4.17033e-05
0.000697111
-3.25116e-05
2.94918e-06
0.00100302
4.26473e-05
6.10499e-05
0.000335287
2.34479e-05
6.50037e-05
8.84048e-05
-0.000120844
9.90269e-05
0.000753914
-0.000221897
0.000254299
0.00112235
-0.000286037
0.000246098
0.000571303
-0.000288449
0.000251574
0.000274979
-0.000207569
0.000143391
-0.00056878
-0.000266622
0.000161465
-0.000775102
-0.000300506
0.000154564
-0.000432137
-0.000259777
0.000367056
-0.000801826
-0.000124345
0.000197089
-0.000337257
-0.00016835
-4.10071e-05
-0.00015428
-0.000133168
-9.32137e-05
0.000462565
-8.57605e-05
-6.89587e-05
0.00026918
-0.00014933
-2.64935e-05
0.00036295
-0.000253447
5.9256e-05
0.000794219
-0.000288392
0.00013943
0.000264584
-0.000297488
0.000127249
5.87192e-05
-0.000279123
0.000116674
-0.00023654
-0.000255153
7.53254e-05
-0.000397768
-0.000228927
9.02471e-05
-0.000591542
-0.000213445
8.36287e-05
-0.000605716
-0.000198467
7.46292e-05
-0.000639417
-0.00017407
0.000103666
-0.00149171
-6.01187e-05
4.39065e-05
-0.000998873
-8.50055e-05
-2.53685e-05
-0.000494494
-7.87319e-05
-5.62592e-05
8.56616e-05
-6.6434e-05
-4.2903e-05
-4.78174e-05
-7.29271e-05
-2.29611e-05
0.000380926
-9.07678e-05
3.80366e-05
0.000498958
-0.000103669
7.21771e-05
0.00038355
-0.000104313
7.03121e-05
0.000229255
-0.000101596
4.0952e-05
1.78336e-05
-9.71375e-05
1.25461e-05
-0.000224387
-8.93021e-05
4.24715e-05
-0.000566725
-8.34197e-05
3.28766e-05
-0.000596201
-7.46533e-05
5.53435e-06
-0.000540158
-6.63548e-05
-1.48608e-05
-0.000204601
-6.11423e-05
-0.00154953
0.00247197
-2.42404e-05
-0.00246433
-0.0015449
0.0024392
7.87662e-05
-0.000991767
0.00313125
2.90992e-05
-0.003208
-0.00161242
5.9431e-05
-0.00266561
-0.00161282
0.00260577
1.51168e-05
-0.00119067
0.00327847
-9.02148e-05
-0.0010107
0.00355611
1.52652e-05
-0.00348318
-0.00106508
-8.56744e-05
-0.00162158
0.00239783
0.000224796
-0.00139909
0.00302694
0.000357746
-0.000787568
0.00388581
0.000477823
-0.000635463
0.00394926
0.000425709
-0.00386366
-0.00100555
0.000295841
-0.00149347
0.00327375
1.56259e-05
-0.00152862
0.00350142
0.000160402
-0.000827295
0.00394573
0.000332122
-0.000606472
0.00416352
0.000345619
-0.000639295
0.00416785
0.000417323
-0.00424374
-0.000687798
0.000327872
-0.00153209
0.00264937
3.11812e-05
-0.00151634
0.0036278
0.000146255
-0.000879705
0.00418305
0.000235318
-0.000604108
0.00444783
0.0003392
-0.00059103
0.00464557
0.000461988
-0.000567603
0.00477095
0.00062577
-0.00156429
0.00355305
4.64049e-05
-0.00132783
0.0043173
7.66928e-05
-0.000864197
0.00446514
0.000360853
-0.000589914
0.00489154
0.000451744
-0.000371132
0.0049954
0.000550916
-0.000284895
0.00522188
0.000683304
-0.000272955
0.00540235
0.000863735
-0.00122879
0.00405889
-2.82974e-05
-0.00102905
0.00463607
0.00018131
-0.000817907
0.00510769
0.000417714
-0.000469203
0.00539496
0.000522545
-0.000384596
0.0056647
0.000683916
-0.000279227
0.00579611
0.000828606
-0.000229585
0.0058778
0.00100282
-0.000346387
0.00602255
0.00127266
-0.00109601
0.00499569
-0.000237263
-0.00100328
0.00600805
0.000156181
-0.000518088
0.00578453
0.000490263
-0.000334561
0.00611331
0.000861198
-0.000212889
0.00616065
0.00123386
-0.000149206
0.00570654
0.00138174
-4.09515e-05
0.00569381
0.00149577
0.000387626
0.00570402
0.00158593
-0.000111385
0.00544583
0.00172596
-0.00179602
0.00350631
0.00011891
-0.000747096
0.00763732
0.000593519
-7.72633e-05
0.00749596
0.000893417
-0.000181092
0.00709
0.00125821
-0.000124349
0.00607992
0.000984341
-7.8861e-05
0.00492582
0.000893046
0.000172443
0.00480809
0.000891043
-4.03741e-05
0.00495068
0.00095028
0.000374428
0.00510588
0.00089789
0.000630045
0.00542525
0.000681442
-0.00158385
0.00433377
0.000410678
-0.00077714
0.00465127
0.00106449
0.000185004
0.00603054
0.001146
-3.47802e-05
0.00563475
0.000847673
0.000404941
0.00461912
0.000404259
0.000833295
0.00378992
-0.000288661
6.72135e-05
0.00433836
-0.000201312
0.000116243
0.00467231
-6.85272e-05
0.000400436
0.00468862
-3.18383e-05
-1.43967e-06
0.00467498
0.000149802
0.000246016
0.00456775
8.96959e-05
-0.000775204
0.00623181
0.000656609
-0.000858901
0.00442399
0.000929617
-0.000260092
0.00436835
0.000832526
-0.000120342
0.00410207
0.000699064
5.31852e-05
0.00320416
0.000350077
0.000206369
0.00298416
9.01299e-05
0.000316566
0.00320184
-0.000188497
0.000291226
0.00323002
-0.000118104
0.000302174
0.00326089
-5.56435e-05
4.01328e-05
0.00318623
0.000154483
0.000147624
0.0032124
0.00017029
0.000128715
0.00391085
0.000165332
3.64622e-05
0.00370175
0.000251164
-0.000167809
0.00274879
0.000484825
-0.000293568
0.00301062
0.000473411
-1.81362e-06
0.00301909
0.000344395
0.000255242
0.00273683
0.00024414
9.34508e-05
0.00193932
0.000182392
7.49223e-05
0.00132404
6.47497e-05
0.000330222
0.00168481
2.10436e-05
0.000312483
0.00195772
3.31395e-05
0.000356417
0.00122134
1.91027e-05
0.000171326
0.000767959
9.35168e-05
0.000169988
0.00142756
8.24968e-05
5.71491e-05
0.00182572
6.88489e-05
0.000469229
0.00034383
-3.22951e-05
0.000274339
0.000431886
-3.39262e-05
-5.1963e-05
0.00071578
-4.3406e-05
-1.08131e-05
0.000878338
9.7693e-06
4.68555e-05
0.000286527
-2.44066e-05
7.12901e-05
0.000172972
-0.000158903
9.31538e-05
0.000794462
-0.00019529
0.000267218
0.00101905
-0.000246381
0.000260355
0.000387707
-0.000235547
0.000176998
0.0001213
-0.000195093
0.000122154
-0.000577141
-0.000246037
0.000137531
-0.000789261
-0.000299747
0.000128338
-0.000516325
-0.000261027
0.000102098
-0.000644715
-0.000183415
0.000349445
-0.000929825
-0.00011778
0.000185562
-0.000443505
-0.000159753
-5.15686e-05
-0.000164031
-0.000132398
-0.000113143
0.000468564
-8.22839e-05
-7.84992e-05
0.000371768
-0.000152752
-2.37884e-05
0.000469851
-0.000255404
6.10544e-05
0.000801507
-0.000283752
0.000126034
0.000217162
-0.000294827
0.000119149
-1.27649e-05
-0.000274841
9.33312e-05
-0.000316648
-0.000251395
5.51257e-05
-0.000466938
-0.000228562
7.02466e-05
-0.000632449
-0.000215796
8.31519e-05
-0.000671408
-0.000198029
5.06694e-05
-0.00071309
-0.000169929
1.05671e-05
-0.000513116
-0.000136973
9.97836e-05
-0.00153097
-6.05248e-05
4.20857e-05
-0.00101688
-8.42009e-05
-3.53527e-05
-0.000465032
-7.91151e-05
-5.91919e-05