/*--------------------------------*- C++ -*----------------------------------*\
  =========                 |
  \\      /  F ield         | OpenFOAM: The Open Source CFD Toolbox
   \\    /   O peration     | Website:  https://openfoam.org
    \\  /    A nd           | Version:  7
     \\/     M anipulation  |
\*---------------------------------------------------------------------------*/
FoamFile
{
    version     2.0;
    format      ascii;
    class       volScalarField;
    location    "1.5";
    object      nut;
}
// * * * * * * * * * * * * * * * * * * * * * * * * * * * * * * * * * * * * * //

dimensions      [0 2 -1 0 0 0 0];

internalField   nonuniform List<scalar> 
18750
(
0.00134686
0.00107541
0.00129767
0.000865465
0.00112144
0.00104756
0.000662329
0.00118479
0.000543945
0.000382501
0.00204523
0.00108179
0.00320067
0.000983563
0.000742302
0.000781602
0.00101273
0.000394686
0.00016657
0.000155323
0.00230457
0.00217976
0.00163514
0.00120547
0.000278936
0.000605202
0.000986654
0.00082417
0.000524927
0.000540689
0.00078562
0.000563774
0.000136157
0.00018222
0.000175311
0.00218027
0.00235261
0.000802163
0.00156372
0.00200174
0.00121676
0.00121573
0.00113729
0.000960954
0.00129364
0.00108779
0.000663246
0.000440368
0.000408594
0.000359169
0.000557994
0.000551759
0.00023548
0.000337307
0.000215576
0.000157283
0.00246583
0.00219022
0.000840132
0.00225656
0.00122523
0.00135391
0.00182548
0.00185367
0.00118555
0.00117213
0.00161439
0.00230985
0.00113205
0.00210442
0.00054883
0.000976925
0.000205551
0.000448328
0.000326305
0.000288974
9.80115e-05
0.000397541
0.000459133
0.000403745
0.000309729
0.000156865
0.000154938
0.000106959
0.0025193
0.00254194
0.000988962
0.00237481
0.000994693
0.000794397
0.00273874
0.00130066
0.00123385
0.00110951
0.00223019
0.00162253
0.00132675
0.00145779
0.000677075
0.00147512
0.00264789
0.00103958
0.00179917
0.000348183
0.000281565
0.000787159
0.00085079
0.000419149
0.000658423
0.000196868
0.000111314
0.000289501
0.000296446
0.000275442
0.000620539
0.000214342
0.000199266
0.000130422
0.000259436
9.76686e-05
0.00226271
0.00252495
0.000835355
0.00263965
0.000854363
0.000575282
0.00254587
0.000874638
0.000841928
0.00116405
0.00294882
0.00163287
0.00126793
0.0009194
0.000671699
0.00260726
0.00117059
0.00111797
0.000687789
0.000760174
0.00111006
0.00144356
0.00226666
0.00128264
0.00121406
0.000590014
0.000214486
0.000378522
0.000743181
0.00128355
0.000492532
0.000735569
0.00018239
0.000151143
0.000310636
0.000275284
0.000247068
0.000191085
0.000532277
0.000222111
0.000225439
0.000155526
0.000279197
0.000236157
0.000132294
0.00240488
0.00230202
0.00070068
0.00252815
0.000821854
0.00035913
0.00256377
0.00100851
0.000722011
0.000838209
0.00253826
0.000838168
0.000800939
0.000542427
0.00134221
0.00312222
0.001852
0.0015367
0.00178838
0.000839436
0.000611176
0.00279114
0.00135947
0.000779279
0.000897038
0.000796142
0.00104632
0.00106876
0.00137479
0.000810281
0.00111567
0.00108013
0.000858326
0.000376891
0.000327556
0.000289825
0.000871722
0.00125161
0.00065899
0.000743594
0.000244594
0.000253513
0.000371053
0.000269353
0.000237095
0.000241968
0.00011613
0.00045397
0.000172728
0.000160352
0.000194855
0.00021733
0.000112582
0.000152358
0.000234638
0.00216554
0.0023805
0.000497778
0.00223665
0.000825502
0.000617653
0.00271598
0.00113993
0.000942673
0.000603314
0.00246119
0.00120803
0.000941429
0.000734794
0.000568747
0.00249492
0.000648649
0.00108967
0.000922684
0.000484046
0.00122453
0.002994
0.00157466
0.00145864
0.00104784
0.000634433
0.00124438
0.000571239
0.00337389
0.00177336
0.000945775
0.000840631
0.00109636
0.000968341
0.000638582
0.000494765
0.00135816
0.00148646
0.000489559
0.000700642
0.000814169
0.000407999
0.000501923
0.000494963
0.000377457
0.000862301
0.000715818
0.000442173
0.000881692
0.000413103
0.000151315
0.000490968
0.000376146
0.000209684
0.000383594
0.000250693
0.000171035
0.000453255
0.000115023
0.000230111
0.000150213
0.000277192
0.000136034
8.96634e-05
0.00010423
0.000134859
0.00235279
0.00208592
0.000373763
0.00228775
0.000867475
0.000750687
0.00231572
0.000725046
0.00074405
0.000494118
0.00284014
0.000938362
0.000924908
0.000617441
0.000827444
0.00248616
0.0006822
0.000605622
0.00100777
0.000812642
0.00063308
0.00279232
0.00107728
0.000994762
0.00125239
0.00099617
0.000590437
0.000467377
0.00266771
0.0019484
0.00150938
0.00149835
0.001279
0.000782136
0.000628414
0.000729176
0.00340437
0.00129499
0.00233701
0.00137973
0.00150005
0.000964108
0.000819139
0.000664802
0.000386037
0.00132255
0.00213592
0.000515027
0.000439041
0.000712363
0.000460953
0.000366851
0.000433324
0.000336941
0.00025894
0.000954506
0.000584359
0.000316336
0.000940048
0.000491602
0.000142354
0.000630185
0.000536873
0.000338407
0.000354379
0.000396232
0.000277187
0.000215208
0.000359219
0.000114117
0.000271975
0.000152583
0.000168402
0.000501317
9.785e-05
0.000128341
0.000121247
0.000144603
0.00220963
0.00232249
0.000460467
0.00235762
0.00215191
0.000733
0.000583662
0.00235765
0.000742179
0.000567068
0.000630386
0.00227707
0.000495068
0.000875609
0.000611179
0.000390234
0.00281269
0.000962489
0.000977554
0.000787411
0.00072183
0.000756557
0.00290492
0.000818833
0.000547641
0.000787749
0.00103269
0.000940205
0.000918858
0.00341994
0.00159135
0.00132084
0.00104714
0.00101362
0.000575233
0.000502294
0.000466378
0.00282279
0.00197999
0.00153179
0.00116051
0.000947497
0.000922866
0.000634678
0.000588698
0.000452533
0.00256307
0.00136998
0.00168859
0.00112113
0.000849004
0.00114695
0.00116336
0.000512945
0.000668238
0.000337542
0.00119207
0.00189958
0.000587631
0.000362403
0.000635124
0.000648465
0.000481544
0.000285581
0.000229951
0.000264257
0.000297447
0.000826727
0.000574678
0.000355117
0.000923699
0.000463596
0.000136337
0.000805006
0.000443509
0.000370596
0.000369873
0.000387769
0.000152885
0.000298801
0.00027019
0.000310722
0.000145453
0.00020231
0.000175139
0.0001529
0.000150238
0.000243623
0.000174709
0.000135745
0.00013512
0.000141374
0.002373
0.00221058
0.000533109
0.00236267
0.00225318
0.000348684
0.000375297
0.000558861
0.00220336
0.000503934
0.000446564
0.00100611
0.00247547
0.00078585
0.000650808
0.000574237
0.000384978
0.00247388
0.00063681
0.00089947
0.00040949
0.000537823
0.000509791
0.00300015
0.00129867
0.00093724
0.000585299
0.000932135
0.000508234
0.000564071
0.00273228
0.000900209
0.000728555
0.000564068
0.000864065
0.000830409
0.000974366
0.000835648
0.00344839
0.0023079
0.00119988
0.00124199
0.000760096
0.000878527
0.00043875
0.000354878
0.000236797
0.00310802
0.0027606
0.00113946
0.000665476
0.000504752
0.00112348
0.000464832
0.000613117
0.000600262
0.000465474
0.00248198
0.00100959
0.000823835
0.000653868
0.000694514
0.000892942
0.000903519
0.00036949
0.000619428
0.000320636
0.000569121
0.000954251
0.00121492
0.000668082
0.000812632
0.000672175
0.000560344
0.000517977
0.000457139
0.000244845
0.000246837
0.000343188
0.000719544
0.000968982
0.000623193
0.00049938
0.000739807
0.000384888
0.000179074
0.000737531
0.000417101
0.000393321
0.000460694
0.000367135
0.000272272
0.0001883
0.000378781
0.000242561
0.000336604
0.000160503
0.000172351
5.25564e-05
0.000244934
0.000363302
0.000131895
0.000102888
9.90497e-05
0.000203668
0.000193359
0.000162746
0.00205546
0.00238726
0.000587504
0.00248757
0.0021905
0.000484505
0.000415021
0.000727307
0.00219198
0.000278015
0.000719022
0.000151225
0.000595406
0.00216303
0.000963571
0.000662997
0.000104197
0.000540398
0.00261626
0.000996818
0.000698806
0.000438487
0.000592676
0.000514152
0.00238933
0.00062876
0.000527381
0.000561588
0.00044231
0.000548411
0.000701039
0.00278186
0.000865744
0.000897719
0.000729858
0.000672791
0.000587579
0.000589241
0.000737693
0.0023596
0.000576114
0.00104097
0.00110296
0.000724893
0.000800435
0.000858675
0.000767553
0.000614302
0.00378904
0.00125153
0.00110371
0.00121916
0.000520067
0.000973515
0.000522077
0.000324151
0.000204607
0.000800779
0.0028308
0.00221026
0.00132585
0.000646288
0.00049905
0.00108421
0.00043283
0.000861011
0.000995596
0.000458568
0.000566491
0.00259101
0.00105002
0.00116618
0.00061192
0.00079965
0.000665197
0.000773543
0.00043353
0.000430168
0.000496042
0.000557982
0.000572333
0.00085355
0.00133273
0.000845124
0.000964394
0.000661374
0.000521055
0.000463975
0.00103212
0.000664404
0.000239301
0.000183609
0.00104039
0.000877402
0.000885589
0.000739129
0.000688719
0.000598848
0.000441234
0.000373976
0.000393885
0.000396794
0.000497222
0.000503408
0.00038813
0.000322184
6.26805e-05
0.000111494
0.000425745
0.000207961
0.000290686
0.00017906
0.000221088
0.000176529
0.000289608
0.000237528
9.91048e-05
0.00015561
7.90935e-05
0.000217411
0.000109645
0.000167165
0.000191982
0.00211566
0.00206612
0.000550993
0.00217557
0.00236271
0.000711056
0.000608533
0.000771085
0.00221767
0.000469569
0.000353377
0.000380035
0.000515942
0.0021756
0.000525102
0.000422675
0.00017368
0.000472284
0.00074659
0.00226807
0.000291561
0.000441744
0.000699214
0.000553554
0.000501876
0.00242796
0.000614884
0.000807159
0.000881118
0.000680846
0.000576294
0.000691144
0.00246818
0.000860904
0.000553279
0.000737055
0.000619189
0.000623589
0.000616782
0.000496035
0.00274733
0.000955983
0.00080761
0.000813302
0.000603774
0.00078389
0.000687149
0.00050831
0.000283895
0.00232561
0.000626136
0.000922243
0.00111077
0.000870415
0.000774712
0.000972031
0.000650303
0.000515541
0.000749689
0.00362871
0.00118584
0.00148638
0.00120401
0.000943839
0.000631449
0.000523739
0.000257315
0.000371834
0.000379793
0.000661523
0.00311462
0.00258024
0.00168234
0.000603835
0.000473074
0.000592706
0.000516082
0.00044741
0.000845474
0.000548722
0.000444261
0.000573835
0.00249632
0.00122482
0.00107469
0.000771428
0.000466379
0.000878932
0.000921681
0.000433581
0.000481054
0.000571057
0.000647103
0.000270611
0.000353209
0.00121567
0.00138644
0.00117309
0.000763897
0.000597617
0.000399058
0.000435183
0.000387953
0.000371112
0.000237476
0.000135589
0.000216773
0.000718948
0.000400868
0.00100346
0.000802571
0.0006831
0.000551574
0.000482415
0.000603376
0.000359858
0.000379575
0.000465629
0.000537339
0.000373177
0.000289113
0.000138432
0.000145984
0.000197458
0.000401298
0.000242487
0.000321215
0.000186604
0.000160301
0.000153922
0.000394517
0.000323037
0.00030508
0.00021206
0.000152354
8.78943e-05
0.000121501
0.000169845
0.000117745
0.000201509
0.00220219
0.00213873
0.000321217
0.0023306
0.00223557
0.000441825
0.000411743
0.000421907
0.00230808
0.00237309
0.000593798
0.000541813
0.000511769
0.000472567
0.00230142
0.000531648
0.000390732
0.000705515
0.000375592
0.000478917
0.00241675
0.000707557
0.000584813
0.000717661
0.000398737
0.000299702
0.000471431
0.0023299
0.000932631
0.000600561
0.000720029
0.000501659
0.000330678
0.000527682
0.00246806
0.000999758
0.000656795
0.000677679
0.000536189
0.000555296
0.00051482
0.000667497
0.00263452
0.000656012
0.000553192
0.000615781
0.000656392
0.000676429
0.000370657
0.0003427
0.000444496
0.00307322
0.00118686
0.00055586
0.000926932
0.000697757
0.000770162
0.000571352
0.000366865
0.000300217
0.00041326
0.00269362
0.00138208
0.00103015
0.000982204
0.00098846
0.00102457
0.000830607
0.000846207
0.000979083
0.000599536
0.00073558
0.00263515
0.00178971
0.00165477
0.00157045
0.00140145
0.000666958
0.000333585
0.000355779
0.000684275
0.000511778
0.000325213
0.000859263
0.00384433
0.00213274
0.00149187
0.000902557
0.00030755
0.000398592
0.000351014
0.000585367
0.00046108
0.000637806
0.000660868
0.000303701
0.000601673
0.00245708
0.00176448
0.00127824
0.00106627
0.000586516
0.00113586
0.000967876
0.000516533
0.000765931
0.000822007
0.000517415
0.000562289
0.000701716
0.000502256
0.00100359
0.00153258
0.00135713
0.000928535
0.000487885
0.000300402
0.000312343
0.000471611
0.00040937
0.000307421
0.000318278
0.000288107
0.000387442
0.00082708
0.000621184
0.0010674
0.000894434
0.000614393
0.000545992
0.000576763
0.000673855
0.000535248
0.000354393
0.00040002
0.000449345
0.000352486
0.000316192
0.000164689
0.000282996
0.00023173
0.000191821
0.000386793
0.000276448
0.000303285
0.000191485
6.75387e-05
0.00022449
0.000198956
0.000246818
0.000340932
0.000269574
0.000125936
7.77703e-05
0.000119058
0.000117015
5.88815e-05
0.000223152
0.0004463
0.00208489
0.00219128
0.000578405
0.00230738
0.00210452
0.000586505
0.0004531
0.00059585
0.00225848
0.00216274
0.000517814
0.000302195
0.000327421
0.000396857
0.000583914
0.00212796
0.000576354
0.000620639
0.00023157
0.00038156
0.000504607
0.00224042
0.000727203
0.000439848
0.000196155
0.000517619
0.000372436
0.00040025
0.00265352
0.000636729
0.000609164
0.000451109
0.000498349
0.000470421
0.00037075
0.000443323
0.00230375
0.00150112
0.000507644
0.00040689
0.000491519
0.000573765
0.000503673
0.000812035
0.00216006
0.000683511
0.000790166
0.000564015
0.000636417
0.000583582
0.000592621
0.000574169
0.000467045
0.00207987
0.000590134
0.000693584
0.000682885
0.000965038
0.00057421
0.000509067
0.000468999
0.000527189
0.000549522
0.00275668
0.00114551
0.000838004
0.000961781
0.000741013
0.000693419
0.000517249
0.000352765
0.000642318
0.000479627
0.000407152
0.00350501
0.0013118
0.0015097
0.0004548
0.000374466
0.00105717
0.000662878
0.000710233
0.000842918
0.000637512
0.000762132
0.000766746
0.0024905
0.0012697
0.00141261
0.00113313
0.000912268
0.000813466
0.000412362
0.000637549
0.000804234
0.000789095
0.000454758
0.000385097
0.000395637
0.00281269
0.000950218
0.000910226
0.00100431
0.000302042
0.000312273
0.000167086
0.000404941
0.000527756
0.000330418
0.000480021
0.000480265
0.000320224
0.000357327
0.00219339
0.00102873
0.0008791
0.000895803
0.000403892
0.000906999
0.000741376
0.000509419
0.000580727
0.000611682
0.000397283
0.000503008
0.000377169
0.000615081
0.000830621
0.00109184
0.000964972
0.0014677
0.00106051
0.000584103
0.000427524
0.00035601
0.000732958
0.000527585
0.000334481
0.000323536
0.000178721
0.000932507
0.00061314
0.00073053
0.000470944
0.000999399
0.000739189
0.000732944
0.000578051
0.000618953
0.000549138
0.000648168
0.000338491
0.000322647
0.000433262
0.000380539
0.000235048
0.00025994
0.000245506
0.000257496
0.00020665
0.000555361
0.000375328
0.000295509
0.000267486
0.000185256
0.00015382
0.000220905
0.000172871
0.00027841
0.000308847
0.000289084
0.000100051
0.000100344
0.000122802
0.000113266
0.000139338
0.000185715
0.000456091
0.000189786
0.00205167
0.00208447
0.000499583
0.0022367
0.00205222
0.000503046
0.000384968
0.000600378
0.002339
0.00213419
0.000297083
0.000439835
0.000397815
0.000547586
0.000424717
0.00211391
0.00062956
0.000425863
0.00045801
0.000356631
0.000363931
0.000382306
0.00221328
0.000444534
0.000697075
0.00038888
0.000297564
0.000262934
0.000442198
0.00227984
0.000428536
0.000463372
0.000515214
0.00033757
0.000356158
0.000558737
0.00039084
0.0025194
0.000658807
0.000554152
0.000652968
0.000497933
0.000611651
0.0007543
0.000214964
0.000387493
0.00225523
0.000570281
0.000676947
0.000348998
0.000794281
0.000626194
0.000697974
0.000467871
0.00054178
0.00228223
0.000885781
0.000555331
0.000723466
0.000817198
0.000540116
0.000714389
0.000623531
0.000437599
0.00046199
0.00252272
0.000687263
0.000492538
0.000738125
0.000339618
0.000515137
0.000688566
0.000564552
0.00058346
0.000287963
0.000466165
0.00285571
0.000596599
0.000796557
0.000650489
0.000446963
0.000660932
0.000475415
0.000478694
0.000575391
0.000462884
0.000748328
0.000941772
0.00356878
0.000734917
0.00147378
0.000813123
0.0007999
0.000599423
0.000809043
0.000701494
0.000512163
0.000431649
0.000532573
0.00089381
0.00138082
0.00271348
0.0017187
0.00108448
0.000874496
0.000758301
0.000505783
0.0010549
0.0012402
0.000774127
0.000525969
0.000344635
0.000442068
0.000327154
0.000480193
0.00320164
0.00206878
0.000406385
0.00052525
0.00027606
0.000523882
0.000971151
0.00081355
0.000456575
0.000304945
0.000501806
0.000456915
0.000531596
0.000609045
0.000622292
0.00238684
0.00103292
0.000903587
0.000766719
0.00061344
0.000626212
0.000869791
0.000418249
0.000329458
0.000627342
0.000561048
0.000359282
0.000536379
0.000434395
0.000713968
0.000600915
0.00091811
0.000920809
0.000936082
0.00138116
0.000495042
0.00023843
0.000461561
0.000583729
0.000128474
0.000575322
0.000375124
0.000348244
0.000383291
0.000597152
0.000844095
0.000479635
0.000458434
0.00109496
0.000690622
0.000669095
0.000644533
0.000619754
0.000493777
0.000510599
0.000303955
0.000377192
0.00047441
0.000321909
0.000498839
0.000271464
0.000231978
0.000257067
0.000436084
0.000469878
0.000450175
0.000406163
0.000314386
0.000283675
0.000171436
0.000137373
0.000199995
0.000451504
0.000277896
0.000315475
0.000277573
0.000108195
0.00011534
0.000103253
0.00016239
2.97436e-05
0.000217593
0.00044343
0.000176657
0.000188174
0.00207073
0.00209247
0.000326862
0.00219805
0.00209741
0.000374068
0.000330373
0.000483166
0.00223044
0.00211787
0.000539869
0.000415861
0.000337011
0.00047521
0.000475723
0.00230978
0.000434316
0.0003606
0.000393512
0.000301752
0.000399643
0.000363881
0.00206417
0.000740925
0.000305698
0.000454167
0.000450642
0.000382303
0.000330835
0.00050322
0.00230502
0.000528597
0.000304033
0.000330547
0.000224708
0.000393247
0.000236124
0.000348647
0.00235162
0.000554659
0.000355662
0.000367532
0.000234192
0.000380624
0.000518661
0.000311322
0.000478376
0.00211976
0.0011318
0.000293537
0.000463331
0.00057633
0.000468903
0.000707262
0.000476312
0.00046624
0.00070935
0.00183248
0.000698982
0.000571297
0.000492948
0.000369957
0.000453632
0.000539317
0.00053736
0.000484948
0.000511028
0.00247155
0.00102295
0.000395179
0.000764833
0.000270639
0.000414582
0.000435163
0.000474257
0.000509306
0.000451251
0.000452542
0.00296845
0.000651211
0.000726606
0.000485833
0.000537643
0.000536725
0.00047715
0.000351254
0.000436583
0.00053889
0.000567584
0.000544497
0.002777
0.00116976
0.000813607
0.000589668
0.0010105
0.000803801
0.000688656
0.000527944
0.00039177
0.000587186
0.000788907
0.00070687
0.00101993
0.00322619
0.00143626
0.000996996
0.000984191
0.00120535
0.000603883
0.00087152
0.000666272
0.000533053
0.000365032
0.000288723
0.000726903
0.00110985
0.00111615
0.00225441
0.0022011
0.00134189
0.00116739
0.000744489
0.000559981
0.000998075
0.000888832
0.00107932
0.000501901
0.000686716
0.000263912
0.000374859
9.34508e-05
0.000176945
0.00334093
0.00103619
0.00194112
0.00053881
0.000372797
0.000856654
0.00103785
0.000935836
0.000578612
0.000392215
0.000611753
0.000304162
0.000471143
0.00042135
0.000346945
0.000824417
0.00221072
0.00110436
0.00126245
0.00129198
0.000857861
0.000589482
0.0007194
0.000403303
0.000494792
0.000623769
0.000331026
0.000565798
0.000660265
0.000516299
0.000818457
0.000735527
0.000662833
0.000926399
0.00118021
0.0012031
0.00124176
0.000654509
0.000452383
0.000449429
0.000617269
0.000175758
0.000267573
0.000352927
8.75026e-05
0.000401627
0.000462093
0.000837701
0.00049703
0.00046828
0.000490469
0.00113368
0.000645136
0.000800933
0.00060585
0.000649874
0.00079875
0.000175377
0.000349808
0.000497194
0.00054115
0.000367131
0.000170979
0.000219439
0.000252902
0.000303858
0.000310967
0.00049704
0.000318919
0.000704062
0.000448876
0.000340604
0.000283963
0.000167515
0.000131555
0.000234081
0.000599212
0.000280589
0.000297517
0.000203984
0.000127657
9.04593e-05
0.00010729
0.000117863
0.000123199
0.000134483
0.000429753
0.000180438
0.000189283
0.000115104
0.00200762
0.00205451
0.000276443
0.00216447
0.00207392
0.000296762
0.000285856
0.000379225
0.00222603
0.00207617
0.000415967
0.000290313
0.000217619
0.000272132
0.000430878
0.00229653
0.000469866
0.000365106
0.000236776
0.000334005
0.000430741
0.000575235
0.00213194
0.000665613
0.000300372
0.000397375
0.000269067
0.000392827
0.00032525
0.000329574
0.00184008
0.000641644
0.000390381
0.000605173
0.000229482
0.000336853
0.000245407
0.000274678
0.00046564
0.00228757
0.000436325
0.000537465
0.000436092
0.000297141
0.000462345
0.000500683
0.000276028
0.000486083
0.00232906
0.000411202
0.000496513
0.000408946
0.000475173
0.000460538
0.000424179
0.000356663
0.000497145
0.000468731
0.00194698
0.00114953
0.000567538
0.000564619
0.000449167
0.000420017
0.000365038
0.000621108
0.000566025
0.000550493
0.000375978
0.0017154
0.000814894
0.00063738
0.000604864
0.000424816
0.000519913
0.00049994
0.00039932
0.000451213
0.000402609
0.000320876
0.00222685
0.00107192
0.000605193
0.000642564
0.000629441
0.000642609
0.000382489
0.000487222
0.000442448
0.000367557
0.000439518
0.000340681
0.0027089
0.00108056
0.0010382
0.000790377
0.000655566
0.000633032
0.000442372
0.000591968
0.000221952
0.000521333
0.000532141
0.00052156
0.000570002
0.00262317
0.00127572
0.000764995
0.000492521
0.000632529
0.000602599
0.000458365
0.000459642
0.000512917
0.000557615
0.000453101
0.000684558
0.000965847
0.000997534
0.00338038
0.000756081
0.00125715
0.00075886
0.000520109
0.000818735
0.000521046
0.000683926
0.000683343
0.00071376
0.000678094
0.000305567
0.000225475
0.000458259
0.00104543
0.00216149
0.00215393
0.00115203
0.000736612
0.000621236
0.000900004
0.000728596
0.000647345
0.00067837
0.000375124
0.000604029
0.000352003
0.000304443
0.000439677
0.000646302
0.000452052
0.00292114
0.000870354
0.00084521
0.000724271
0.000688442
0.000926692
0.000695375
0.000687516
0.000777283
0.000623963
0.00030561
0.000542324
0.00032177
0.000623635
0.000448825
0.000535747
0.00100592
0.00203955
0.00147288
0.000460411
0.000316432
0.000732339
0.000687463
0.00065471
0.000372549
0.000375487
0.000417089
0.000367526
0.000570103
0.000605938
0.000508709
0.000720932
0.000646632
0.000821968
0.000793471
0.00102205
0.00119839
0.000980243
0.00128481
0.000717106
0.000277414
0.000350835
0.000717614
0.000263532
0.000344938
0.000180958
0.000175292
0.000668749
0.000474263
0.000942817
0.000459319
0.000545751
0.000346682
0.000932858
0.00126803
0.000569123
0.000931462
0.000602369
0.000582282
0.000388283
0.000425787
0.000590981
0.000620849
0.000568006
0.000404627
0.000476063
0.000258703
0.000291631
0.000318611
0.000227747
0.000496203
0.000414605
0.000604046
0.000319975
0.000492174
0.00033297
0.000299795
0.000234194
0.00025301
0.000250774
0.000366523
0.000318097
0.000333197
0.000238186
0.000138982
0.000177716
0.000155306
0.000228251
0.000172241
0.000125878
0.000416588
0.00021151
0.000136877
0.000232744
0.000150307
0.00198716
0.00203251
0.000339558
0.00214329
0.00206785
0.000382475
0.000301124
0.00031756
0.00219415
0.00207361
0.000303247
0.00036513
0.000297392
0.000295045
0.0002919
0.00214981
0.00030626
0.000307064
0.000337846
0.00034132
0.000319006
0.000359686
0.00210713
0.000331066
0.000472904
0.000425028
0.000435077
0.000350414
0.000344013
0.000354074
0.00176406
0.000570466
0.000505555
0.000372644
0.000352133
0.000231432
0.000151284
0.000291097
0.000298841
0.00181643
0.000763688
0.000722583
0.00052352
0.000466547
0.000286983
0.000514881
0.000352391
0.000409596
0.000392672
0.00203347
0.000720131
0.000843899
0.00032747
0.000440161
0.000423175
0.000600119
0.000334742
0.000492673
0.000436924
0.0022311
0.000646035
0.00050041
0.000411013
0.000311346
0.000383983
0.000366086
0.000308881
0.000425697
0.000507166
0.000360657
0.00182407
0.000946635
0.000558924
0.000599742
0.000405143
0.000496116
0.000348101
0.000405233
0.00041712
0.0005141
0.000448212
0.000529095
0.00204489
0.000628452
0.000671863
0.000583853
0.000516948
0.000535431
0.00040201
0.000523284
0.0004429
0.000579275
0.00051594
0.000618392
0.00229585
0.000912538
0.000767977
0.000539385
0.000487296
0.000497919
0.000404313
0.000726339
0.000541787
0.000626681
0.00051111
0.000587947
0.000390309
0.00265124
0.000687982
0.000574554
0.000551541
0.000535691
0.000456866
0.000506762
0.000657467
0.000437721
0.000391394
0.000543816
0.000613321
0.000586515
0.000404695
0.00250686
0.000423848
0.000880301
0.000448205
0.000543124
0.00059059
0.000703956
0.000492921
0.000328018
0.000305655
0.000405825
0.000705995
0.000667867
0.00077589
0.00153332
0.00305627
0.000459675
0.00145037
0.00076756
0.000554639
0.00070134
0.000610896
0.000438993
0.000398142
0.000456228
0.000474668
0.000488733
0.000400507
0.000405671
0.000851013
0.000633825
0.00295204
0.00252039
0.00130394
0.000624039
0.000599516
0.00057034
0.000629225
0.0007716
0.000423163
0.000620547
0.000246377
0.000333917
0.00061811
0.000731603
0.00043639
0.000257117
0.000331603
0.00256279
0.00211884
0.00149197
0.00149661
0.000770704
0.000761669
0.000582098
0.000387665
0.000948292
0.000524222
0.000490898
0.000514106
0.000334088
0.000453481
0.000476029
0.000366177
0.000505323
0.000730353
0.00178531
0.00114497
0.00135121
0.000665254
0.000726342
0.0015579
0.00092704
0.000575799
0.000448399
0.000660909
0.000640127
0.000376873
0.000266836
0.000459901
0.000485059
0.000692762
0.000691922
0.000718193
0.0009659
0.0012125
0.00147417
0.00138888
0.00150291
0.000611055
0.000182348
0.000485405
0.000626052
0.000397643
0.000406104
0.000249883
0.000352289
0.000370087
0.000627506
0.000898606
0.000633781
0.000540729
0.000355028
0.000719378
0.000678646
0.00123482
0.000522726
0.000887026
0.00065783
0.000542675
0.000357735
0.000264292
0.0005771
0.000543915
0.000522597
0.000436118
0.000408811
0.000325441
0.000347685
0.000384607
0.000274911
0.000340004
0.000461964
0.00043199
0.000396681
0.000217149
0.000544998
0.000362999
0.00025412
0.000192723
0.000252409
0.000225565
0.000192036
0.000394038
0.000364742
0.000346802
0.000141517
0.000233012
8.67581e-05
0.000118936
7.11233e-05
0.000131575
0.000386509
0.000219648
0.000189424
0.000159964
0.00018421
0.000137809
0.00198467
0.00198796
0.000294723
0.00213957
0.0020395
0.000295939
0.000297378
0.000336278
0.00216597
0.00204848
0.00032314
0.000283849
0.000305873
0.00030285
0.000362556
0.00215719
0.000364939
0.000315339
0.000381496
0.000305443
0.000246865
0.000581809
0.00210302
0.000492794
0.000245849
0.000449628
0.000274328
0.000636168
0.000420075
0.000451172
0.00196003
0.000427646
0.000438559
0.00037543
0.00028613
0.000405478
0.000186709
0.000438806
0.000331773
0.00160361
0.000701774
0.00048745
0.000317387
0.000606694
0.000258909
0.000399689
0.000397543
0.00039695
0.000305882
0.00179988
0.000710164
0.000303123
0.000288981
0.000609271
0.000373978
0.000436152
0.000512494
0.000671404
0.000421941
0.000345062
0.00199011
0.000653213
0.000421426
0.000323413
0.00034375
0.000486602
0.000336294
0.000421801
0.000510839
0.00038444
0.000268314
0.00211435
0.000991809
0.000609077
0.000457588
0.000259834
0.000505732
0.000326649
0.00035774
0.000319506
0.000351257
0.000474515
0.000589194
0.00193887
0.00118737
0.000679743
0.000431256
0.000514564
0.000296054
0.000225233
0.000357766
0.000491365
0.000565095
0.000464499
0.000657645
0.000441252
0.00207345
0.000949247
0.000630295
0.000517758
0.000481644
0.0003886
0.000459315
0.000681858
0.000532811
0.000698513
0.000562154
0.000753375
0.000774504
0.00242185
0.00103423
0.000677469
0.000338438
0.000598061
0.000512862
0.000676931
0.000622099
0.000609802
0.000686866
0.000455225
0.000562764
0.000694192
0.000552732
0.00247367
0.000704341
0.000767022
0.000569531
0.000562512
0.000398405
0.000738738
0.000655349
0.00062606
0.000366552
0.000377331
0.00060065
0.000707195
0.000658913
0.000853662
0.0025937
0.000863705
0.00026033
0.000716403
0.000516366
0.000525621
0.000678179
0.000735381
0.000467379
0.000544167
0.000367957
0.000413089
0.000583295
0.000471162
0.000473369
0.000874878
0.00259503
0.00103368
0.000592652
0.00153355
0.00105622
0.000650886
0.000868098
0.00069589
0.000434986
0.000356665
0.000253428
0.000206265
0.000424743
0.000606278
0.000240907
0.000242351
0.000353995
0.00279728
0.00167555
0.00166965
0.00169075
0.000660206
0.000641749
0.000727487
0.000625889
0.000518529
0.000595909
0.000545987
0.000377144
0.000269134
0.000662939
0.000470624
0.000459094
0.0006301
0.000452365
0.00259581
0.000918586
0.00184059
0.0018191
0.000982668
0.0010689
0.000776457
0.000386125
0.0003459
0.000617407
0.000489149
0.000465997
0.000286638
0.000359901
0.000937459
0.000363203
0.00054463
0.000705052
0.000329253
0.0021867
0.000967719
0.00138659
0.00110062
0.000584551
0.000396874
0.00158389
0.000735934
0.000428869
0.000685276
0.000530446
0.000275121
0.000466498
0.000500119
0.000688948
0.000792879
0.00046549
0.000315479
0.000910595
0.000521603
0.00147098
0.00134836
0.00161834
0.00143682
0.000462973
0.000497822
0.000951985
0.000552347
0.000394122
0.000501077
0.000304205
0.000436503
0.000375659
0.00110349
0.000602502
0.000467285
0.00054621
0.000192392
0.000511993
0.000783934
0.000384427
0.00112905
0.000540874
0.000827606
0.000695063
0.000484038
0.000850975
0.000313378
0.000579045
0.00035672
0.000482199
0.000434344
0.000392683
0.000375397
0.000365739
0.000373314
0.000281101
0.000706456
0.000532092
0.000201958
0.000541298
0.000264384
0.000305173
0.000592675
0.000314843
0.000233913
0.000161635
0.000230036
0.000106329
0.000283363
0.000469716
0.000373057
0.000210234
0.00014965
0.000266624
0.000169951
0.000202165
0.000121532
0.000126411
0.000349867
0.000230342
0.0001926
0.000263289
0.000262186
0.000121969
8.60499e-05
0.0019099
0.00200317
0.000281502
0.00210828
0.00201057
0.000284334
0.000220962
0.000326608
0.0020964
0.00205669
0.000274
0.00026378
0.000339305
0.000246881
0.000359841
0.00219486
0.000313552
0.000280249
0.000261483
0.000515237
0.000263675
0.000228527
0.00210039
0.000300246
0.000299878
0.000320505
0.000321958
0.000430351
0.000185457
0.000247101
0.00190135
0.000561362
0.000408114
0.000288362
0.000300669
0.000470457
0.000433646
0.000241615
0.000330786
0.00187988
0.000589115
0.000330185
0.000193169
0.000208823
0.000535736
0.000461658
0.000236943
0.000241553
0.000317543
0.00179271
0.000749165
0.000261529
0.000342234
0.00026683
0.000431995
0.000431665
0.000646357
0.000579422
0.000584736
0.000309028
0.00179671
0.000658853
0.00051001
0.00040444
0.000447794
0.000482336
0.000379478
0.000682122
0.000432864
0.000370383
0.000446409
0.000338153
0.00196366
0.000688234
0.000355898
0.000506207
0.000490127
0.000567892
0.000350957
0.000516666
0.000541759
0.000484634
0.000437777
0.000543612
0.00209129
0.000716026
0.000533488
0.000478507
0.000443807
0.000420369
0.000477682
0.000530942
0.000530071
0.00052134
0.000405866
0.000469577
0.000410039
0.00209093
0.00106565
0.000701631
0.00050693
0.000419768
0.000438904
0.000563882
0.000680822
0.000510467
0.000443594
0.0003456
0.000457572
0.000580016
0.000588132
0.00198437
0.00105125