/*--------------------------------*- C++ -*----------------------------------*\
  =========                 |
  \\      /  F ield         | OpenFOAM: The Open Source CFD Toolbox
   \\    /   O peration     | Website:  https://openfoam.org
    \\  /    A nd           | Version:  7
     \\/     M anipulation  |
\*---------------------------------------------------------------------------*/
FoamFile
{
    version     2.0;
    format      ascii;
    class       volVectorField;
    location    "1.5";
    object      U_0;
}
// * * * * * * * * * * * * * * * * * * * * * * * * * * * * * * * * * * * * * //

dimensions      [0 1 -1 0 0 0 0];

internalField   nonuniform List<vector> 
18750
(
(1.9094 0.24481 -1.50525)
(1.70223 1.62607 -0.985228)
(1.54024 0.275837 -1.34141)
(1.50718 -0.37068 -2.18803)
(0.437929 2.20258 0.023675)
(1.59468 1.74764 -0.872909)
(1.6331 1.28314 -1.20921)
(1.18716 0.268378 -1.20289)
(1.25752 -0.380016 -2.05829)
(0.392106 -1.14546 -1.49685)
(0.933972 4.58162 0.899035)
(0.467504 2.16232 0.180886)
(-0.189872 1.86773 0.653775)
(1.43285 1.87238 -0.723661)
(1.77795 1.39068 -1.11746)
(0.585151 -0.133276 -0.882493)
(0.872628 0.234803 -1.08108)
(1.1679 -0.399583 -1.93217)
(0.347775 -1.18168 -1.46364)
(0.314765 -0.670879 -0.538227)
(0.508145 2.97945 0.494813)
(0.0708672 4.43452 0.990032)
(0.215953 3.4358 1.2927)
(0.463362 2.22568 0.242122)
(-0.397826 1.75663 0.677904)
(0.00114683 2.3162 1.80056)
(1.31121 1.94107 -0.628357)
(1.92144 1.49458 -1.11381)
(0.195218 -0.206461 -1.03323)
(0.0628969 0.91594 0.225913)
(0.621179 0.192297 -0.968255)
(1.24255 -0.409357 -1.80839)
(0.312854 -1.19136 -1.44088)
(0.302446 -0.672279 -0.523084)
(0.621108 -0.539088 -0.52653)
(-1.85472 3.23512 0.930334)
(0.293659 3.04638 0.655252)
(-1.8426 4.02806 1.48171)
(-0.854973 4.05811 0.87574)
(0.920786 3.44568 1.40134)
(0.549624 2.67371 2.25024)
(0.60703 2.32477 0.324311)
(-0.261703 2.05698 0.468846)
(0.0450933 2.28143 1.45467)
(-0.527403 2.21602 1.41879)
(1.06638 1.94331 -0.428934)
(2.1049 1.62863 -1.03884)
(0.148614 -0.290311 -1.16738)
(0.0670669 0.890298 0.216084)
(0.911172 0.848588 0.290559)
(0.449535 0.162545 -0.858659)
(1.32007 -0.412772 -1.68067)
(0.314552 -1.22442 -1.42901)
(0.317001 -0.695003 -0.523602)
(0.637224 -0.556451 -0.496251)
(-0.279676 -0.667821 -0.540646)
(-1.69704 3.9479 0.0354213)
(-2.17649 3.30253 0.604507)
(-0.901172 5.11515 0.594203)
(-0.0568677 2.95619 0.812539)
(-1.52736 4.08372 1.46211)
(-0.851733 4.12627 1.86016)
(0.145913 3.82043 0.300884)
(1.79663 3.55095 2.05823)
(0.990857 2.74915 2.22183)
(0.948323 2.86149 1.68144)
(1.0323 2.45617 0.411758)
(0.43818 1.87848 0.114032)
(0.100626 2.26945 0.946326)
(-0.318282 2.12532 0.492613)
(0.0631188 2.0769 0.933246)
(0.702963 1.84357 -0.240311)
(2.18799 1.68063 -0.932637)
(0.0968845 -0.360457 -1.17052)
(-0.031493 0.823879 0.250115)
(0.899231 0.86773 0.296548)
(0.0706992 0.909292 0.425011)
(0.347583 0.147599 -0.75802)
(1.38402 -0.410351 -1.53824)
(0.345559 -1.24609 -1.43862)
(0.364928 -0.705995 -0.595264)
(0.647513 -0.570438 -0.507981)
(-0.277364 -0.686203 -0.557308)
(-0.620002 -0.927204 -0.3384)
(-2.06031 2.85335 -0.0195444)
(-1.98748 3.89105 -0.0806677)
(-1.10492 4.11845 0.224175)
(-2.25675 3.42215 0.352496)
(-1.53296 4.80573 0.820472)
(-0.52323 5.04287 1.20959)
(-0.658584 2.77808 0.952137)
(-1.16039 4.30799 1.40922)
(-0.0114624 4.05891 2.24788)
(2.09227 3.83397 2.16705)
(-0.532594 3.52661 0.335855)
(2.14986 3.62365 2.62155)
(1.45597 2.84973 2.49019)
(1.4169 2.81428 1.27249)
(0.660065 2.7875 1.168)
(1.43983 2.69535 0.499254)
(1.31077 1.9942 -0.255527)
(0.0191351 2.21431 0.567836)
(-0.121685 2.0665 -0.382895)
(-0.0476424 2.05666 0.732358)
(-0.0486762 2.19908 1.33042)
(0.554401 1.67116 -0.293793)
(1.9034 1.55215 -0.91935)
(0.063781 -0.482936 -1.13058)
(-0.229688 0.716039 0.194347)
(0.841346 0.884593 0.309909)
(-0.0148918 0.892061 0.413778)
(-0.664479 0.802168 0.344557)
(0.286957 0.136938 -0.675722)
(1.39825 -0.407528 -1.40982)
(0.455924 -1.19395 -1.46535)
(0.378898 -0.712645 -0.62494)
(0.646302 -0.579658 -0.501185)
(-0.296136 -0.699609 -0.571016)
(-0.633814 -0.938338 -0.336689)
(-0.660164 -1.31667 -0.149198)
(-1.86767 2.42783 -0.0136725)
(-2.13416 2.82175 0.0452397)
(-1.66353 3.36345 0.305171)
(-2.11678 3.80146 -0.0844123)
(-1.3137 4.13384 0.454546)
(-0.88081 4.6143 0.58228)
(-2.48298 3.44848 0.273187)
(-1.81915 4.77492 0.822545)
(-1.09591 4.81708 1.26483)
(0.361055 4.69021 1.82984)
(-1.73342 2.57116 1.10028)
(-2.48566 4.31744 1.42264)
(-0.193918 4.50322 2.12328)
(-0.290361 4.20302 2.62138)
(2.06592 3.2755 2.77806)
(-1.12903 3.34022 0.45597)
(2.16756 3.69715 2.85002)
(1.76913 3.09336 2.58896)
(1.45616 2.87283 1.05295)
(0.867929 2.82423 1.01628)
(-0.486242 3.30474 0.517837)
(1.29452 2.92549 0.660828)
(2.49282 2.34582 -0.850457)
(0.189743 2.0748 0.480386)
(0.231602 1.93341 -0.793318)
(-0.115295 1.91467 0.735325)
(-0.241558 2.18405 1.25906)
(-0.477732 2.50281 0.798841)
(0.575304 1.64182 -0.37699)
(1.54173 1.34097 -1.1172)
(0.0569234 -0.524188 -1.13008)
(-0.499261 0.500217 -0.0855205)
(0.7336 0.888706 0.321444)
(-0.0954412 0.873365 0.415599)
(-0.712702 0.77435 0.397289)
(-0.732481 0.910275 0.692495)
(0.237936 0.125554 -0.611453)
(1.33777 -0.438907 -1.33554)
(0.61113 -1.18431 -1.51965)
(0.397184 -0.70876 -0.6436)
(0.667576 -0.594741 -0.514624)
(-0.29807 -0.707386 -0.603071)
(-0.619923 -0.957873 -0.393724)
(-0.772601 -1.2598 -0.265085)
(-0.252008 -1.41414 0.0302221)
(-1.80323 2.13408 -0.0684887)
(-1.90756 2.39408 0.0236525)
(-1.55611 2.93376 0.133218)
(-2.36561 2.68618 0.00134134)
(-1.89422 3.27057 0.102921)
(-0.82669 3.58729 0.645649)
(-2.35769 3.71607 -0.0963527)
(-1.4591 4.06058 0.549339)
(-0.747192 4.51229 0.58758)
(-0.124594 4.54148 1.13763)
(-3.16342 3.23773 0.14915)
(-2.37303 4.47259 0.835269)
(-1.36502 4.74407 1.31283)
(-0.38564 4.74278 1.85505)
(-0.0510318 4.41621 2.36782)
(-3.00931 2.22106 1.08806)
(-2.25824 4.66987 1.20786)
(-0.296105 4.28098 3.30627)
(1.08338 3.97031 2.68848)
(0.153582 4.06581 2.79704)
(2.45128 2.95688 2.36515)
(-1.97654 3.08708 0.498142)
(1.30491 3.73319 3.0866)
(1.83676 3.20642 2.57936)
(1.36725 2.95224 1.2341)
(0.735597 2.78621 1.07526)
(-0.314703 3.22938 0.124577)
(-0.755126 3.62708 -0.298044)
(1.04486 2.97828 0.673463)
(2.90602 2.57578 -0.842569)
(0.501408 1.93427 0.45605)
(0.550591 1.81072 -0.529256)
(-0.084815 1.7457 0.70537)
(-0.331558 2.22099 1.10758)
(-0.62704 2.53795 0.718943)
(-0.74692 2.52512 0.957912)
(0.546016 1.6492 -0.671124)
(1.26123 1.0975 -1.51785)
(0.0585888 -0.668052 -1.2087)
(-0.557733 0.367881 -0.282536)
(0.651989 0.851873 0.333151)
(-0.132262 0.861323 0.441934)
(-0.752269 0.747276 0.460661)
(-0.81645 0.859584 0.727871)
(-0.5711 0.6617 0.618545)
(0.183048 0.0985389 -0.56299)
(1.27349 -0.472502 -1.30211)
(0.68537 -1.16387 -1.509)
(0.408732 -0.715301 -0.683073)
(0.680644 -0.606986 -0.52553)
(-0.30977 -0.72993 -0.618005)
(-0.63924 -0.945686 -0.469296)
(-0.703663 -1.35199 -0.194742)
(-0.324733 -1.4213 0.0874427)
(-0.221958 -1.35028 0.230472)
(-1.39336 2.04988 0.0452582)
(-2.09459 1.83412 0.0077441)
(-1.4587 2.67784 0.00311972)
(-1.87794 2.41033 0.0311312)
(-1.81203 2.79551 0.121131)
(-1.11771 3.33966 0.368191)
(-2.50881 2.61378 0.0547913)
(-1.98568 3.29384 0.188397)
(-0.937163 3.62192 0.700034)
(-0.832225 3.69628 0.68388)
(-2.50548 3.65294 -0.101236)
(-1.83523 3.86678 0.738914)
(-0.987154 4.27652 0.712384)
(-0.234061 4.53064 1.11882)
(0.0918566 4.63432 1.42466)
(-3.73534 2.83125 0.0305356)
(-2.12869 4.25873 0.97141)
(-1.83096 4.56009 1.32114)
(-0.567108 4.59122 2.08215)
(-0.394493 4.44341 2.37689)
(-0.314713 4.06024 2.40404)
(-4.26009 1.61144 0.741292)
(-1.55034 5.14323 0.96339)
(-0.608817 4.81222 3.14786)
(0.911792 4.30993 3.03871)
(0.976298 4.02647 3.20361)
(0.810789 3.56828 2.72125)
(0.800872 3.53249 2.31233)
(-2.72906 2.97292 0.600925)
(0.314455 3.50772 3.37919)
(1.36212 3.21745 2.61037)
(1.25697 2.89924 1.50012)
(1.08789 2.82872 1.23776)
(-0.147525 3.22379 0.0102487)
(-0.884685 3.53109 -0.626967)
(-0.815841 3.4883 -0.0359237)
(0.625268 3.03208 0.567128)
(2.32902 2.49636 -0.277881)
(0.582443 1.78944 0.422558)
(0.692671 1.70328 -0.44282)
(0.245636 1.60971 0.552527)
(-0.793445 1.99273 1.14412)
(-0.997576 2.46013 0.845183)
(-0.816043 2.52171 1.03969)
(-0.881906 2.45049 0.722219)
(0.616792 1.68611 -0.814986)
(1.11533 0.937636 -1.75407)
(0.0784821 -0.77097 -1.33735)
(-0.47505 0.21246 -0.531249)
(0.597253 0.790791 0.415712)
(-0.167305 0.853943 0.516683)
(-0.762409 0.721809 0.536706)
(-0.878034 0.909327 0.866438)
(-0.679292 0.692268 0.591398)
(-0.389518 0.0535075 0.922733)
(0.127254 0.0622725 -0.518155)
(1.25904 -0.482672 -1.25788)
(0.796876 -1.08814 -1.46023)
(0.399699 -0.728832 -0.708432)
(0.682319 -0.615705 -0.517227)
(-0.303108 -0.75448 -0.625169)
(-0.667457 -0.927942 -0.554907)
(-0.880901 -1.22452 -0.338307)
(-0.370926 -1.44235 0.0865045)
(-0.273472 -1.34705 0.286643)
(-0.339754 -1.37774 0.297643)
(-1.44311 1.90353 0.146644)
(-1.72128 1.76809 0.0426741)
(-1.40377 2.35055 0.0755283)
(-2.1209 1.84285 0.0688184)
(-1.55446 2.55877 0.166888)
(-1.13404 2.94746 0.174627)
(-1.93631 2.32237 0.0457098)
(-2.11751 2.61417 0.18875)
(-1.22592 3.31507 0.346135)
(-0.671411 3.53259 0.464016)
(-2.79391 2.37456 0.10187)
(-2.48266 3.0728 0.00784159)
(-1.45508 3.50592 0.733351)
(-0.783351 3.77004 0.673156)
(-0.44939 3.68738 1.05265)
(-2.55046 3.51558 -0.284366)
(-2.27746 3.69737 0.627624)
(-1.24006 4.23701 0.722946)
(-0.705661 4.45382 1.06032)
(0.048325 4.49274 1.3844)
(0.365412 4.36594 1.72257)
(-3.71199 2.50014 0.0525375)
(-1.95045 4.2869 0.953648)
(-2.28085 4.28293 1.37106)
(-0.913052 4.64191 2.14029)
(-0.83136 4.47685 2.29599)
(-0.456072 4.19041 2.42339)
(-0.666287 4.22849 2.41674)
(-5.29536 0.848271 0.345164)
(-1.77451 5.04585 1.59858)
(-0.522242 4.96355 3.06138)
(-0.418131 4.57982 3.18907)
(-0.386117 4.16701 3.16495)
(0.726427 3.49316 2.72216)
(0.45637 3.65817 2.1611)
(0.255154 3.95839 1.94364)
(-3.25786 2.87195 1.33968)
(-0.883642 3.16407 3.22801)
(0.169314 3.11847 2.52529)
(-0.0209735 2.6823 1.46122)
(0.172838 2.73307 1.97449)
(0.136814 3.33121 0.3557)
(-0.86323 3.35904 -0.659321)
(-1.10031 3.39567 0.0585353)
(-0.224022 3.42086 -0.49998)
(0.258623 3.01059 0.35061)
(1.47472 2.23767 0.212414)
(0.347456 1.69207 0.337991)
(0.692056 1.62655 -0.534738)
(0.228611 1.54554 0.5526)
(-0.749436 1.9708 1.13478)
(-1.30188 2.38084 0.906501)
(-0.678885 2.58874 1.17654)
(-1.00607 2.37886 0.702378)
(-0.726794 2.35808 0.988499)
(0.323705 1.59769 -1.21376)
(0.931075 0.835645 -1.86535)
(0.0210424 -0.887738 -1.35315)
(-0.286362 0.130133 -0.652588)
(0.524693 0.695022 0.55376)
(-0.355147 0.788828 0.570642)
(-0.755717 0.67454 0.660041)
(-0.991711 0.840062 1.06331)
(-0.755895 0.67774 0.652664)
(-0.425157 0.0369434 1.00986)
(-0.581217 -0.239001 0.800963)
(0.0541926 0.0141934 -0.482667)
(1.25865 -0.482801 -1.21717)
(0.884572 -1.04698 -1.44129)
(0.400277 -0.742573 -0.721911)
(0.7221 -0.621779 -0.527747)
(-0.295834 -0.744601 -0.626591)
(-0.687272 -1.00169 -0.581474)
(-0.733923 -1.34743 -0.252931)
(-0.42011 -1.45026 0.127278)
(-0.285435 -1.34567 0.303834)
(-0.353179 -1.38515 0.308756)
(-0.229261 -1.33067 0.222878)
(-1.77802 1.53682 -0.0169142)
(-1.65414 1.70611 0.183416)
(-1.62988 2.0483 0.185483)
(-1.61878 1.81295 0.143541)
(-1.76416 1.74909 0.0201555)
(-1.58711 2.23468 0.0873076)
(-1.349 2.55017 0.247918)
(-2.24693 1.62777 0.129908)
(-1.75281 2.38964 0.247547)
(-1.29283 2.8823 0.136201)
(-0.813958 3.12917 0.443861)
(-2.06564 2.22801 0.0736957)
(-2.15659 2.58609 0.287522)
(-1.6048 3.20306 0.267312)
(-0.898922 3.4867 0.528584)
(-0.538431 3.55542 0.63661)
(-3.0408 2.16509 0.189856)
(-2.52249 3.10406 0.0980996)
(-1.65864 3.61862 0.715973)
(-1.06436 3.81107 0.824434)
(-0.479222 3.7506 1.06818)
(-0.565598 3.65404 1.15416)
(-2.81313 3.26165 -0.297666)
(-2.18053 3.78804 0.709361)
(-1.49164 4.1708 0.710533)
(-1.10261 4.33913 1.09292)
(-0.350951 4.36744 1.34685)
(-0.232689 4.29508 1.63596)
(0.148454 4.25803 1.72011)
(-3.78315 1.85008 0.29685)
(-2.64368 3.89841 1.1072)
(-2.53224 4.31057 1.33315)
(-1.8567 4.61346 2.03108)
(-1.18773 4.40338 2.36146)
(-0.407984 4.44327 2.35639)
(-0.815319 4.26531 2.46229)
(-0.673774 4.13474 2.4681)
(-5.4361 0.44761 0.29066)
(-1.3801 5.4775 2.34404)
(-1.87098 4.63573 2.73112)
(-0.892201 4.49881 3.20952)
(-0.547664 4.31777 3.15807)
(0.537637 3.57542 2.74345)
(0.171579 3.68335 2.06316)
(-0.136363 3.95492 2.18852)
(-0.246829 3.86315 1.70589)
(-3.84364 2.80481 1.42301)
(-1.79392 2.96234 2.956)
(-1.49421 2.62165 2.00636)
(-0.890969 2.54229 1.28684)
(-0.860282 2.52536 2.08213)
(-0.199569 3.26829 0.814594)
(-0.728699 3.18383 -0.133272)
(-1.39814 3.17795 0.146244)
(-0.546319 3.34943 -0.452283)
(-0.715291 3.3646 -0.0469779)
(-0.161353 2.95059 0.177397)
(0.105372 1.69207 0.802392)
(-0.294089 1.3845 0.214411)
(0.584719 1.58713 -0.460255)
(0.459354 1.55167 0.407896)
(-1.01739 1.72257 1.19997)
(-1.39912 2.2618 1.02138)
(-1.08152 2.45371 1.32958)
(-1.20899 2.30718 0.741239)
(-0.865338 2.31826 1.01118)
(-0.676261 2.11162 1.23218)
(0.192643 1.53486 -1.38109)
(0.713854 0.709466 -1.9914)
(-0.0596674 -1.0169 -1.35498)
(-0.0310444 0.068066 -0.682323)
(0.509908 0.580345 0.648479)
(-0.449081 0.722054 0.532466)
(-0.716095 0.697463 0.950417)
(-1.08309 0.768223 1.21338)
(-0.797358 0.656334 0.75063)
(-0.482776 0.0508937 1.1013)
(-0.61012 -0.234652 0.844872)
(-0.63844 0.146603 0.720196)
(-0.0139182 -0.0494917 -0.450192)
(1.26841 -0.475349 -1.17302)
(0.935234 -1.00908 -1.43184)
(0.384024 -0.774631 -0.73634)
(0.758108 -0.617582 -0.533316)
(-0.297268 -0.777517 -0.664587)
(-0.715388 -0.991677 -0.535411)
(-0.897169 -1.34036 -0.189605)
(-0.435745 -1.44228 0.0574852)
(-0.271789 -1.34548 0.292629)
(-0.370857 -1.3876 0.328914)
(-0.24933 -1.31652 0.180306)
(-0.10706 -1.1053 0.429456)
(-1.39671 1.60418 -0.0165385)
(-1.71203 1.58705 -0.0105154)
(-1.30336 2.09204 0.10218)
(-1.62952 1.63859 0.025385)
(-1.79875 1.54774 0.209101)
(-1.64534 2.03352 0.199609)
(-1.04671 2.50382 0.232073)
(-1.46765 2.19737 0.129528)
(-1.93284 1.48771 0.0621238)
(-1.78685 2.10445 0.139361)
(-1.39148 2.51 0.294523)
(-0.978522 2.79707 0.220008)
(-2.34424 1.5843 0.150334)
(-1.91366 2.30335 0.248432)
(-1.40218 2.92988 0.182992)
(-1.02122 3.11869 0.436106)
(-0.58045 3.18304 0.469421)
(-2.29766 2.06177 0.077837)
(-2.30283 2.46993 0.326394)
(-2.07749 2.99379 0.170264)
(-1.12277 3.4715 0.5762)
(-0.751194 3.54111 0.614956)
(-0.388172 3.60161 0.768814)
(-3.23184 2.04049 0.328131)
(-2.89981 2.7958 0.201721)
(-2.08325 3.50412 0.589031)
(-1.30317 3.77833 0.945132)
(-0.8417 3.82926 1.05461)
(-0.640568 3.73851 1.16303)
(-0.332617 3.61558 1.39896)
(-3.35495 2.94553 -0.178027)
(-2.47816 3.81388 0.450956)
(-1.61896 4.07395 0.698313)
(-1.11091 4.31709 1.02217)
(-0.985649 4.23101 1.21735)
(-0.489429 4.31338 1.56758)
(-0.463649 4.12841 1.66486)
(-0.193788 4.02363 1.72002)
(-3.99041 0.869189 0.640157)
(-3.39328 3.54413 1.0982)
(-3.22179 3.91729 1.41881)
(-2.13927 4.52623 1.84992)
(-1.91683 4.30216 1.9257)
(-0.907085 4.41983 2.51514)
(-1.00445 4.36699 2.51777)
(-0.993493 4.12711 2.58011)
(-0.450266 3.65151 2.85905)
(-5.26494 0.162061 0.353839)
(-2.87148 4.69231 2.93076)
(-0.973278 5.16537 2.42941)
(-1.8875 4.33095 3.06555)
(-1.42078 4.45634 2.93395)
(0.281892 3.91133 2.86732)
(-0.0858966 3.69816 2.12693)
(-0.26298 3.98671 2.20249)
(-0.232024 3.91703 1.92128)
(-1.21915 3.41092 2.12163)
(-4.04144 2.90791 1.00227)
(-2.63913 2.75834 2.97344)
(-1.89816 2.49184 1.87161)
(-1.42812 2.36412 1.16959)
(-1.26694 2.47113 1.98819)
(-0.667871 3.12242 1.06981)
(-0.779355 3.07541 0.35561)
(-1.39136 3.09087 0.0477228)
(-0.965178 3.24148 -0.219078)
(-0.651406 3.3841 -0.238909)
(-0.587737 3.23137 0.140499)
(-0.550062 2.83353 0.209424)
(-0.533097 1.44342 0.988111)
(-0.580167 1.29243 0.154963)
(0.269088 1.44683 -0.300139)
(0.344047 1.53996 0.619601)
(-1.28303 1.52297 1.18309)
(-1.41317 2.19095 1.1361)
(-1.17402 2.54505 1.37223)
(-1.31097 2.33793 0.8163)
(-1.06601 2.24213 1.05012)
(-0.742932 2.07763 1.27796)
(-0.149753 2.01395 1.53596)
(0.00340572 1.53956 -1.49091)
(0.522138 0.639419 -2.12906)
(-0.151451 -1.18664 -1.37045)
(0.14103 0.0212018 -0.671793)
(0.506584 0.48081 0.626259)
(-0.503228 0.697591 0.519545)
(-0.730584 0.621475 1.25604)
(-1.14075 0.741622 1.36328)
(-0.852057 0.669245 0.903285)
(-0.51653 0.0493244 1.26241)
(-0.64731 -0.224695 0.896412)
(-0.749287 0.155383 0.704258)
(-0.737231 0.344153 0.539096)
(-0.0748289 -0.119583 -0.420969)
(1.287 -0.458381 -1.11576)
(0.984117 -0.94804 -1.45589)
(0.359418 -0.817483 -0.75254)
(0.766063 -0.625112 -0.491847)
(-0.307389 -0.792381 -0.678198)
(-0.757806 -1.03267 -0.466574)
(-0.863597 -1.40485 -0.267649)
(-0.426905 -1.46896 0.0375207)
(-0.272343 -1.35273 0.258935)
(-0.370608 -1.40676 0.311294)
(-0.25307 -1.31272 0.1648)
(-0.042413 -1.06606 0.418919)
(-0.108496 -0.915863 0.580614)
(-1.31988 1.47424 -0.192776)
(-1.56022 1.4679 0.0267453)
(-1.41088 1.93752 -0.277486)
(-1.31551 1.65011 -0.0415643)
(-1.74666 1.47949 -0.00803355)
(-1.36703 2.03563 0.108058)
(-0.89237 2.40082 -0.0141815)
(-1.1863 2.20312 0.0659835)
(-1.88568 1.40561 0.177267)
(-1.74141 1.95908 0.148721)
(-1.16453 2.3745 0.238196)
(-1.37903 2.46767 0.232691)
(-0.913087 2.58119 0.11152)
(-1.97523 1.42577 0.08078)
(-1.94496 2.09974 0.16697)
(-1.47511 2.42018 0.327577)
(-1.22205 2.79895 0.230634)
(-0.588204 2.89087 0.518907)
(-2.66434 1.20883 0.199301)
(-2.19469 2.08537 0.230489)
(-1.61288 2.76874 0.236089)
(-1.13661 3.10502 0.392426)
(-0.614184 3.20335 0.485314)
(-0.532296 3.29576 0.564896)
(-2.53184 1.89132 0.139179)
(-2.44079 2.41659 0.279379)
(-2.21229 2.89672 0.208125)
(-1.1424 3.45983 0.596097)
(-0.966103 3.44208 0.608271)
(-0.663178 3.47078 0.825571)
(-0.388435 3.51953 0.964747)
(-3.63345 1.48852 0.332958)
(-3.15709 2.74845 0.318961)
(-2.07042 3.56919 0.662097)
(-1.45739 3.7049 0.902821)
(-1.23736 3.78792 0.970595)
(-0.740866 3.75657 1.14807)
(-0.414756 3.66131 1.35163)
(-0.318093 3.53132 1.52661)
(-3.67074 2.85122 -0.369589)
(-2.88702 3.61893 0.498664)
(-2.00115 3.79646 0.652774)
(-1.44108 4.12276 0.974201)
(-1.12745 4.1904 1.11146)
(-0.755736 4.27017 1.42396)
(-0.678529 4.07353 1.55645)
(-0.62877 3.93438 1.64113)
(-0.503531 3.9781 1.79874)
(-4.34211 0.00320727 0.859108)
(-4.21215 2.89331 0.590785)
(-3.23705 3.87003 1.76113)
(-2.82 4.00464 1.75178)
(-1.56489 4.32164 2.18786)
(-1.47136 4.46545 2.16273)
(-1.213 4.38243 2.53)
(-0.977104 4.14497 2.78077)
(-0.505423 3.71636 2.86878)
(-0.608856 3.60069 2.60646)
(-4.98088 -0.0950747 0.41163)
(-3.73352 4.14129 3.20111)
(-1.27206 5.25339 3.02618)
(-1.49625 4.5936 3.07281)
(-1.45248 4.46042 2.89503)
(-0.957522 3.92504 2.8142)
(-0.420323 3.76895 2.16636)
(-0.860282 3.71473 2.41771)
(-0.735698 3.84105 2.15742)
(-1.26543 3.38115 2.14908)
(-1.14131 3.31687 2.03337)
(-4.08723 2.77421 0.801869)
(-3.40869 2.38704 3.43548)
(-2.41175 2.17512 2.27946)
(-1.95811 2.23647 1.11596)
(-1.92488 2.16294 1.83085)
(-0.910896 3.14818 1.27149)
(-1.00042 2.96505 0.578784)
(-1.38288 3.08025 0.0197681)
(-1.18598 3.18451 -0.24367)
(-0.959791 3.2674 -0.130944)
(-1.01304 3.15142 0.341836)
(-0.813298 3.03202 0.566962)
(-0.859988 2.69886 -0.347694)
(-1.12581 1.1981 1.34091)
(-0.991274 1.09314 0.529229)
(-0.321768 1.11363 -0.0449464)
(0.221514 1.50381 0.752337)
(-1.46828 1.26512 1.19477)
(-1.38139 2.18151 1.23923)
(-1.81974 2.24747 1.22242)
(-1.5186 2.26036 0.906741)
(-1.2391 2.17976 1.08688)
(-0.85589 2.10428 1.27058)
(-1.12248 1.90711 1.2426)
(-0.546303 1.85537 0.874949)
(0.105805 1.63214 -1.66874)
(0.332291 0.545545 -2.29471)
(-0.268238 -1.38299 -1.49629)
(0.236516 -0.0424671 -0.667133)
(0.448795 0.349645 0.544034)
(-0.530764 0.671117 0.561783)
(-0.891732 0.437997 1.40573)
(-1.21657 0.700809 1.49647)
(-0.927733 0.69008 1.12635)
(-0.547713 0.0577372 1.43644)
(-0.693167 -0.214463 0.944272)
(-0.81696 0.188097 0.677513)
(-0.865562 0.340622 0.507128)
(-0.883772 0.618891 0.63392)
(-0.166604 -0.235295 -0.374147)
(1.27349 -0.465348 -1.07084)
(1.0124 -0.900551 -1.47564)
(0.354481 -0.854335 -0.771928)
(0.749551 -0.645691 -0.464097)
(-0.332503 -0.810406 -0.694445)
(-0.764666 -1.06316 -0.428358)
(-0.923898 -1.44655 -0.179747)
(-0.454344 -1.46243 0.0719236)
(-0.27965 -1.34799 0.271896)
(-0.395555 -1.40268 0.317272)
(-0.283059 -1.34073 0.122911)
(-0.0704969 -1.07138 0.41485)
(-0.118226 -0.906663 0.545995)
(-0.0694416 -0.847296 0.554992)
(-1.01275 1.59589 0.171372)
(-1.41266 1.35014 -0.18687)
(-0.799752 2.01713 0.171889)
(-1.15641 1.64317 -0.139864)
(-1.58353 1.44014 0.0248357)
(-1.60381 1.79366 -0.215692)
(-0.912841 2.27515 -0.0967957)
(-1.21753 2.03844 -0.253939)
(-1.72034 1.5071 -0.0206894)
(-1.55335 1.92507 0.0592494)
(-1.10094 2.33279 0.0812603)
(-0.630634 2.49195 0.0802143)
(-0.852621 2.41345 -0.0645128)
(-2.00808 1.15286 0.161301)
(-1.68915 1.97031 0.122915)
(-1.33906 2.24911 0.273648)
(-0.636444 2.64904 0.0126912)
(-0.81299 2.67853 0.326542)
(-0.563811 2.73573 0.112997)
(-2.18885 1.1788 0.0519875)
(-2.31624 1.47995 0.129758)
(-1.46748 2.46328 0.402872)
(-0.957891 2.85102 0.120576)
(-0.849402 2.88261 0.392257)
(-0.581399 2.99372 0.530537)
(-2.79526 1.07092 0.305937)
(-2.36562 2.0637 0.377734)
(-1.82944 2.61322 0.289771)
(-1.36021 2.95564 0.375713)
(-1.05154 3.10427 0.48238)
(-0.732522 3.28098 0.579547)
(-0.561257 3.31031 0.697807)
(-2.70867 1.78341 0.0782562)
(-2.68662 2.21995 0.348295)
(-2.18045 2.92229 0.263892)
(-1.3776 3.33622 0.572473)
(-0.852035 3.5108 0.666205)
(-0.82067 3.45923 0.824014)
(-0.774648 3.47589 0.949757)
(-0.442098 3.57073 1.07446)
(-3.71963 1.40928 0.136425)
(-3.13997 2.88944 0.0925596)
(-2.57678 3.40193 0.640871)
(-1.78653 3.64881 0.839892)
(-1.49825 3.68599 0.929399)
(-0.940722 3.7132 1.19607)
(-0.727718 3.62083 1.40219)
(-0.790465 3.5109 1.479)
(-0.65759 3.50948 1.47527)
(-3.60007 2.84226 -0.664949)
(-2.93586 3.52108 0.337954)
(-2.52671 3.43679 0.562277)
(-2.00377 3.80412 0.784606)
(-1.5638 3.9404 1.08365)
(-1.00901 4.18004 1.30405)
(-1.00709 3.9055 1.48491)
(-0.775648 3.84589 1.69354)
(-0.480724 3.99087 1.81753)
(-0.783355 3.88847 2.08184)
(-4.25116 -1.11155 1.52182)
(-4.12668 2.90197 0.827385)
(-3.50081 4.05447 1.83992)
(-3.02771 3.81524 2.03132)
(-1.95211 4.27805 2.35926)
(-1.8215 4.22359 2.22605)
(-1.34566 4.33076 2.57996)
(-0.975564 4.10953 2.97272)
(-0.655108 3.73657 2.93371)
(-0.964722 3.56733 2.51161)
(-1.03891 3.54293 2.28426)
(-4.66339 0.15524 0.408989)
(-4.82366 2.9387 2.85873)
(-2.96466 4.36903 3.46391)
(-1.86997 4.59887 3.09431)
(-1.62316 4.4188 2.76575)
(-0.974153 3.89847 2.72329)
(-0.814048 3.73437 2.32343)
(-1.18896 3.57345 2.49913)
(-1.31996 3.63968 2.31801)
(-1.57553 3.35635 2.19565)
(-1.2429 3.36741 2.16542)
(-1.47822 3.09603 2.03645)
(-4.17414 2.70994 0.709709)
(-3.97094 2.22666 3.83337)
(-2.95991 2.04221 2.76994)
(-2.28402 1.93173 1.53664)
(-2.39895 1.85894 1.6022)
(-1.24341 2.9184 1.47854)
(-1.1142 2.92339 0.967389)
(-1.32472 3.13308 0.0280524)
(-1.36276 3.13809 -0.331983)
(-1.19098 3.22213 -0.0147495)
(-1.34405 3.09004 0.355169)
(-0.993526 3.07795 0.702482)
(-0.986951 2.78357 1.02378)
(-1.16691 2.40148 -0.332028)
(-1.85736 0.842791 1.86773)
(-1.38473 1.1166 0.773685)
(-0.634722 0.918477 0.155832)
(-0.0694896 1.41862 0.803473)
(-1.59792 1.10404 1.17819)
(-1.4263 2.1047 1.33447)
(-2.11333 2.02857 1.18652)
(-1.94231 2.02363 1.03694)
(-1.44927 2.09882 1.13133)
(-1.14786 2.06575 1.24142)
(-1.30471 1.91252 1.16147)
(0.041244 2.00016 0.88067)
(-0.409418 1.8191 0.799462)
(-0.483282 1.50422 -1.78042)
(0.0813819 0.493868 -2.45334)
(-0.276474 -1.51021 -1.69868)
(0.274178 -0.12772 -0.677552)
(0.327593 0.153158 0.453695)
(-0.480881 0.698251 0.684059)
(-0.962241 0.336515 1.38586)
(-1.27086 0.68209 1.60984)
(-0.987867 0.663184 1.32688)
(-0.546863 0.059028 1.58007)
(-0.735241 -0.204334 0.963581)
(-0.867041 0.225136 0.669804)
(-1.00916 0.313082 0.513468)
(-0.982228 0.632148 0.566023)
(-0.261438 0.772821 0.518276)
(-0.233418 -0.341262 -0.327239)
(1.25004 -0.465291 -1.02019)
(1.01759 -0.840131 -1.48791)
(0.349687 -0.895846 -0.787329)
(0.756971 -0.683963 -0.437822)
(-0.326704 -0.856213 -0.740124)
(-0.758018 -1.10915 -0.397273)
(-0.934745 -1.50031 -0.248031)
(-0.493877 -1.49687 0.0761097)
(-0.286482 -1.3625 0.324675)
(-0.393054 -1.3989 0.306977)
(-0.31138 -1.35189 0.102654)
(-0.119922 -1.06372 0.404719)
(-0.128168 -0.886463 0.533411)
(-0.0714245 -0.849781 0.56266)
(0.0074158 -0.784552 0.482711)
(-1.28605 1.22008 0.044096)
(-1.10357 1.49548 0.161029)
(-1.56071 1.44229 -0.0859467)
(-0.970142 1.62156 0.156819)
(-1.46759 1.29272 -0.140242)
(-0.950044 1.98294 0.0677805)
(-1.16071 1.94439 0.00437039)
(-0.726568 2.10555 0.249765)
(-1.01007 1.75277 -0.120106)
(-1.62153 1.36077 0.180959)
(-1.82596 1.58706 -0.128938)
(-1.06359 2.17325 -0.0427273)
(-1.03227 2.30021 0.121885)
(-0.801041 2.34466 -0.0259511)
(-1.93586 1.224 0.0362469)
(-1.42053 2.00352 0.0956597)
(-1.23104 2.27644 0.110767)
(-1.0629 2.25779 0.183571)
(-0.733427 2.47926 0.188534)
(-0.680238 2.52869 0.0963065)
(-2.1657 1.02894 0.0946045)
(-1.86903 1.61423 0.137732)
(-1.54399 2.15517 0.210572)
(-1.10474 2.39373 0.241644)
(-0.910431 2.62032 0.288696)
(-0.634212 2.80454 0.428511)
(-0.624596 2.70545 0.336837)
(-2.41817 0.891233 0.138572)
(-1.70114 2.31805 0.223449)
(-1.74655 2.37814 0.118819)
(-1.42584 2.56357 0.319486)
(-0.916623 2.85889 0.34029)
(-0.765235 2.96897 0.50009)
(-0.639841 3.06305 0.55823)
(-2.92623 0.799088 0.0586643)
(-2.54249 1.7765 0.339169)
(-2.1374 2.42394 0.300742)
(-1.67969 2.89096 0.185865)
(-1.27827 3.04428 0.529032)
(-1.06493 3.22561 0.562703)
(-0.777474 3.27518 0.682816)
(-0.517497 3.25572 0.935353)
(-2.94257 1.51215 0.0834633)
(-2.92123 2.07679 0.236342)
(-2.13491 2.97962 0.295841)
(-1.6552 3.26677 0.525617)
(-1.44015 3.31637 0.627441)
(-1.21327 3.4014 0.786732)
(-0.91644 3.488 0.987693)
(-0.567728 3.56536 1.11463)
(-0.269363 3.55929 1.16164)
(-3.73271 1.03838 0.252314)
(-3.20521 2.73612 0.311296)
(-2.7105 3.33366 0.622747)
(-2.14103 3.53926 0.768938)
(-1.52441 3.71267 0.89011)
(-1.32143 3.66836 1.22552)
(-1.02415 3.57944 1.40605)
(-0.87344 3.49208 1.47796)
(-0.316831 3.56337 1.44447)
(-0.473462 3.61013 1.36925)
(-3.32893 2.97246 -0.876511)
(-2.97235 3.09987 0.176855)
(-2.7454 3.25452 0.552463)
(-2.49977 3.47651 0.849247)
(-1.84888 3.85013 1.04544)
(-1.29179 4.06179 1.18827)
(-1.33068 3.78857 1.46163)
(-1.04778 3.78549 1.62186)
(-0.746809 3.8115 1.83864)
(-0.929222 3.83021 2.07962)
(-0.817099 3.89429 2.19348)
(-4.02237 -1.63693 1.59448)
(-4.37085 2.2108 0.0436109)
(-4.41382 3.62947 1.33023)
(-3.64464 3.73572 1.7923)
(-2.72637 4.00716 2.04787)
(-1.9297 4.166 2.26413)
(-1.4363 4.2966 2.63665)
(-1.16667 4.07953 2.98379)
(-0.822868 3.79069 2.76023)
(-0.708642 3.75644 2.35366)
(-1.0571 3.58645 2.22149)
(-1.29565 3.5478 2.13784)
(-4.57202 -0.210153 0.622259)
(-5.70334 1.94536 2.43525)
(-3.51285 4.19616 3.59821)
(-2.55235 4.35281 3.10438)
(-1.68581 4.47975 2.70548)
(-1.30555 3.89783 2.71788)
(-1.0935 3.65322 2.58656)
(-1.25005 3.49559 2.56758)
(-1.58783 3.5803 2.32833)
(-1.9578 3.23927 2.15022)
(-1.75464 3.36681 2.04265)
(-1.61447 3.1348 2.10512)
(-1.30369 3.02472 2.03555)
(-4.3757 2.58434 0.545238)
(-4.87983 1.543 3.52378)
(-3.61182 1.83625 2.98827)
(-2.56356 2.05503 1.70798)
(-2.57762 1.70379 1.52418)
(-1.8961 2.49752 1.61542)
(-1.52172 2.74101 1.36661)
(-1.37577 3.0955 0.213609)
(-1.81017 2.88633 -0.193345)
(-1.54908 3.11024 0.342445)
(-1.69179 2.95326 0.618191)
(-1.29901 3.03993 0.666779)
(-1.24086 2.7632 0.81773)
(-1.04993 2.85548 1.20951)
(-1.723 1.87329 -0.320313)
(-2.71834 0.267865 1.81415)
(-1.84724 0.676887 1.43501)
(-0.971322 0.7708 0.436012)
(-0.447628 1.27258 0.785137)
(-1.69087 0.99735 1.22602)
(-1.40266 2.13494 1.39993)
(-2.29348 1.93683 1.15129)
(-1.64886 2.31127 1.24967)
(-1.62613 2.02795 1.25192)
(-1.28948 2.07302 1.28407)
(-1.31427 1.95536 1.24203)
(-0.387559 1.97342 1.19103)
(-0.307823 1.92477 0.782155)
(0.222018 1.9957 0.0644835)
(-0.569251 1.46539 -1.75621)
(-0.290841 0.240241 -2.48529)
(-0.287078 -1.58863 -1.70695)
(0.268465 -0.25025 -0.674483)
(0.20385 -0.0451994 0.400903)
(-0.447085 0.750311 0.939209)
(-1.071 0.143553 1.25722)
(-1.31333 0.65472 1.70638)
(-1.05927 0.612616 1.51859)
(-0.537918 0.0689051 1.65854)
(-0.793423 -0.188065 0.953328)
(-0.957726 0.23925 0.661774)
(-1.11458 0.267363 0.483933)
(-1.04239 0.594386 0.535685)
(-0.352213 0.77492 0.490304)
(0.804163 1.12389 -0.055181)
(-0.28374 -0.44741 -0.27471)
(1.21118 -0.477069 -0.958951)
(1.03376 -0.782799 -1.50843)
(0.341561 -0.94066 -0.801717)
(0.769492 -0.6539 -0.441959)
(-0.335024 -0.862903 -0.693157)
(-0.73262 -1.16092 -0.3715)
(-0.966966 -1.54929 -0.241469)
(-0.468823 -1.53381 0.0878981)
(-0.276208 -1.38321 0.306892)
(-0.394873 -1.40944 0.310969)
(-0.35282 -1.36306 0.11139)
(-0.169585 -1.07923 0.389134)
(-0.116867 -0.880515 0.548698)
(-0.078395 -0.838564 0.565997)
(-0.0155183 -0.805088 0.477201)
(-0.43065 -0.230307 -0.870318)
(-0.943647 1.36287 -0.103499)
(-1.30919 1.19551 0.0901017)
(-0.92202 1.71303 -0.00707937)
(-1.18586 1.32087 0.0527794)
(-1.2121 1.34467 0.171797)
(-1.52188 1.49836 -0.0500049)
(-0.80406 1.93351 0.336683)
(-1.44854 1.57317 -0.0869604)
(-0.749808 1.70155 0.147097)
(-1.68719 1.01168 -0.0438501)
(-1.09527 1.90185 0.0622756)
(-1.23578 1.89553 -0.10922)
(-1.04176 2.13326 0.113821)
(-1.03962 2.05994 0.133136)
(-0.847033 2.00582 0.149153)
(-1.75963 1.26322 0.0255515)
(-1.9104 1.49482 -0.122176)
(-1.13238 2.1384 -0.0283158)
(-0.976966 2.27022 0.149773)
(-0.908248 2.33377 0.321609)
(-0.866141 2.35387 0.16395)
(-2.03063 1.12171 0.0478734)
(-1.61195 1.82017 0.0567225)
(-1.41277 2.12536 0.252593)
(-1.02644 2.35578 0.212294)
(-0.864256 2.43727 0.241829)
(-0.738878 2.56841 0.333763)
(-0.577618 2.5447 0.238422)
(-2.32667 0.620235 0.444685)
(-2.02691 1.42433 0.182886)
(-1.82591 1.97649 0.139665)
(-1.08126 2.47723 0.330088)
(-1.04525 2.50424 0.347365)
(-0.672293 2.77299 0.360354)
(-0.513761 2.84863 0.597459)
(-0.52335 2.78751 0.454827)
(-2.47307 0.707443 0.261735)
(-2.58266 0.996966 0.199839)
(-1.75791 2.41786 0.17222)
(-1.54155 2.57858 0.29418)
(-1.18299 2.69471 0.358945)
(-0.795368 2.93917 0.461858)
(-0.871936 2.97096 0.521227)
(-0.87878 3.10889 0.630822)
(-2.90745 0.646159 0.0764826)
(-2.51747 1.90351 0.367578)
(-2.23172 2.3193 0.340576)
(-1.86998 2.85726 0.431635)