/*--------------------------------*- C++ -*----------------------------------*\
  =========                 |
  \\      /  F ield         | OpenFOAM: The Open Source CFD Toolbox
   \\    /   O peration     | Website:  https://openfoam.org
    \\  /    A nd           | Version:  7
     \\/     M anipulation  |
\*---------------------------------------------------------------------------*/
FoamFile
{
    version     2.0;
    format      ascii;
    class       volScalarField;
    location    "9";
    object      nut;
}
// * * * * * * * * * * * * * * * * * * * * * * * * * * * * * * * * * * * * * //

dimensions      [0 2 -1 0 0 0 0];

internalField   nonuniform List<scalar> 
150000
(
0.000620997
0.00126461
0.000376079
0.000716513
0.000855677
0.00151959
0.000958287
0.00109888
0.0011723
0.000303175
0.000649889
0.000423969
0.000697028
0.000955728
0.00198567
0.00182588
0.00380347
0.00213308
0.001087
0.000644834
0.000965833
0.00245993
0.00105404
0.000306273
0.000266653
0.000545942
0.000180466
0.000293786
0.000608941
0.000927578
0.00201662
0.00198961
0.000693636
0.00220859
0.0015351
0.000748349
0.000936582
0.00104783
0.00157528
0.00150868
0.00141082
0.000818828
0.0003674
0.00107228
0.00250918
0.00104993
0.000304604
0.000504343
0.000621144
0.000215347
0.000251488
0.000193684
0.000153634
0.00061047
0.000734095
0.0017452
0.00241999
0.000868949
0.00217019
0.0020837
0.000705783
0.000560155
0.00107692
0.00218609
0.00120943
0.000840057
0.00127256
0.000494567
0.00087678
0.00249097
0.00139964
0.00146547
0.00144962
0.000954039
0.000483839
0.000563383
0.000364128
0.000862322
0.00170615
0.00108811
0.000319666
0.000682923
0.000627285
0.000297925
0.000261747
0.000245382
0.000246524
0.000191536
0.000227349
0.000663803
0.000436357
0.0026221
0.00201565
0.000527534
0.00232372
0.00260507
0.00124219
0.000415282
0.00127026
0.00211291
0.00199327
0.000766313
0.000777281
0.000201401
0.000557292
0.0017313
0.00212241
0.00106749
0.00101546
0.00143303
0.00052953
0.000624102
0.000646247
0.000401825
0.000892384
0.0014006
0.00126172
0.00122296
0.000751158
0.000570772
0.000572936
0.000680841
0.000500365
0.000398097
0.000743863
0.00173481
0.00110584
0.000347063
0.000801367
0.000560716
0.00041172
0.000281862
0.000250502
0.000368738
0.000243615
0.000231304
0.000189652
0.000111136
0.000698775
0.000604206
0.0026508
0.00259602
0.000695634
0.00270066
0.00200742
0.000861548
0.00106327
0.000532406
0.0023423
0.00222455
0.000894271
0.000543117
0.000281197
0.000341869
0.00115093
0.00231716
0.00191201
0.000788714
0.000796631
0.000314918
0.000323384
0.000377147
0.000873273
0.00203149
0.00192082
0.000789121
0.000658528
0.00161064
0.000270833
0.000578792
0.000791259
0.000510649
0.000674949
0.00131032
0.00352616
0.0013997
0.000919944
0.000836807
0.000541141
0.000643552
0.000722555
0.000954864
0.00137895
0.000747798
0.000473451
0.000523963
0.000692136
0.00112206
0.0011923
0.000355474
0.000847758
0.000570176
0.000489902
0.000306545
0.000257155
0.000254612
0.000339003
0.000428225
0.000204538
0.000183801
0.000198935
0.000131505
0.000651214
0.000813231
0.00254267
0.00256298
0.00065802
0.00266661
0.00244922
0.000437331
0.000169185
0.000805232
0.00294614
0.00243309
0.000758426
0.000455347
0.000477368
0.00112396
0.00132414
0.00222331
0.00293688
0.00108148
0.000696179
0.000761508
0.00087161
0.000839395
0.000831965
0.000519122
0.00266499
0.00188081
0.000914985
0.000778636
0.000380925
0.00016492
0.000249362
0.000581661
0.000767937
0.000826952
0.000798654
0.00207952
0.000761515
0.000776658
0.001738
0.000214654
0.000434205
0.000776288
0.00108612
0.000795799
0.000699601
0.000704038
0.00137446
0.00136585
0.00124801
0.000567335
0.000358242
0.000849465
0.000594076
0.000818107
0.00102467
0.00122335
0.000718467
0.00128575
0.00080805
0.000509793
0.000567165
0.000649144
0.000324217
0.00120516
0.000342954
0.00080711
0.000589601
0.000536427
0.00032377
0.000261866
0.000238415
0.000324528
0.000158065
0.000361073
0.000451533
0.0001818
0.000138704
0.000179642
0.000105196
0.000542186
0.000885017
0.0024023
0.00239857
0.000781373
0.00255849
0.00256901
0.000699831
0.000396251
0.000895865
0.00269237
0.00254326
0.000351584
0.000482243
0.000895717
0.000785844
0.00101298
0.00284394
0.00281846
0.000701468
0.000519082
0.0013218
0.00150111
0.000661216
0.000910978
0.00136956
0.00257906
0.00280866
0.00110035
0.000838744
0.000766073
0.000753226
0.000990383
0.000489198
0.000446766
0.000740582
0.00104195
0.00270006
0.00149642
0.000952801
0.00116269
0.000502634
0.000327597
0.000364584
0.000898429
0.000474392
0.00103893
0.000923856
0.000710768
0.00119962
0.0019715
0.000714513
0.000921862
0.00106503
0.000475124
0.000506998
0.000660261
0.000589951
0.00062578
0.000659216
0.000801332
0.00101776
0.00102823
0.00132682
0.0018208
0.00106965
0.000682375
0.000449154
0.00101151
0.000803029
0.000802537
0.000934511
0.000787941
0.00109982
0.000708871
0.000536117
0.00124598
0.000715765
0.000332302
0.000574888
0.000711408
0.000891131
0.00102136
0.000331753
0.000688576
0.00053867
0.000577537
0.000335352
0.00027097
0.000315879
0.000306654
0.000183351
6.68197e-05
0.00015515
0.00036421
0.000476242
0.000160098
0.000120608
0.000162591
0.000208808
0.000416133
0.000874909
0.00254634
0.00229017
0.000473212
0.00266051
0.00243681
0.000741021
0.000584232
0.00086554
0.00242738
0.0026248
0.000605592
0.000491751
0.000450987
0.000869915
0.000961819
0.00254505
0.00240321
0.00040014
0.000674472
0.000510426
0.000620726
0.000349713
0.00066714
0.000681745
0.00291298
0.00249375
0.000770869
0.000531577
0.000589965
0.00124762
0.00152941
0.00088299
0.00122237
0.000758033
0.00190313
0.00239506
0.00206632
0.00105023
0.000629095
0.000588985
0.000557996
0.000807664
0.000370886
0.000436751
0.00100009
0.000846742
0.00187798
0.00141465
0.0033047
0.00222764
0.0014159
0.001139
0.000577584
0.000357684
0.000385495
0.000832449
0.000739162
0.000507013
0.000390623
0.000767981
0.000861397
0.000550727
0.000662702
0.00189079
0.000829085
0.000766932
0.000685307
0.00108512
0.000760901
0.000911517
0.000617849
0.000760198
0.000557662
0.000423323
0.000338714
0.000648892
0.000701395
0.000934684
0.000941898
0.00162562
0.000845754
0.000802034
0.000403368
0.000949887
0.000508654
0.00084575
0.00089343
0.000718448
0.00113781
0.000742076
0.000434023
0.00109556
0.000506166
0.000897783
0.000741403
0.000565119
0.000593437
0.00069801
0.000922716
0.000845224
0.000327878
0.000538118
0.00054985
0.000519642
0.000359492
0.000283965
0.000326077
0.000300392
0.000216778
0.000125903
0.000301921
0.000179665
0.000188907
0.000366697
0.000486332
0.000169309
9.73159e-05
0.000178391
0.000363391
0.00025367
0.00080543
0.00230547
0.00261662
0.000615201
0.00272
0.00240293
0.000542703
0.000454921
0.000708304
0.00248621
0.00252914
0.000664353
0.000514837
0.000738632
0.000555748
0.00106181
0.00248062
0.00261273
0.000540878
0.000582925
0.000591967
0.000775992
0.000732065
0.00101414
0.000863877
0.00252221
0.00239595
0.000358551
0.000386365
0.000446238
0.000508533
0.00108403
0.00116439
0.00066085
0.000787651
0.000867129
0.00267629
0.00343626
0.000830009
0.000649877
0.000545877
0.000965874
0.00101745
0.00108712
0.000622262
0.000761798
0.000398481
0.000811273
0.00140924
0.00230776
0.00330079
0.00144691
0.00089191
0.000711266
0.000730243
0.000224911
0.000410666
0.000430656
0.000759519
0.00102115
0.000897203
0.00123401
0.00201325
0.0023493
0.00417381
0.00215638
0.000924427
0.000475713
0.000569268
0.000499915
0.000442044
0.000671043
0.000527989
0.00073906
0.000214815
0.00077612
0.000351783
0.00131884
0.000478767
0.000301952
0.00119066
0.00178096
0.000909247
0.000330429
0.00055966
0.00212154
0.000649743
0.0010522
0.000620653
0.000542113
0.000475472
0.000360565
0.000849325
0.000487266
0.000494576
0.000376547
0.00197221
0.00132301
0.000732951
0.00148468
0.000827297
0.000802396
0.000395421
0.000657643
0.000737866
0.000976314
0.000804518
0.00107009
0.00106475
0.00138199
0.00093566
0.000883869
0.000651446
0.00091706
0.000512625
0.000506097
0.000587071
0.000392871
0.000556371
0.000704227
0.000765345
0.000651881
0.000335833
0.000377003
0.000507218
0.000445261
0.000400754
0.000296682
0.000398116
0.000295354
0.000277118
0.000185965
0.0002724
0.000249226
4.10379e-05
0.000189904
0.000232877
0.000360037
0.000482729
0.000193067
9.06813e-05
0.000121909
0.000281075
0.000223894
0.000706473
0.00218086
0.00242964
0.000541226
0.00254533
0.00254868
0.000648342
0.000449193
0.000504623
0.00269527
0.00230606
0.000601001
0.000405116
0.000732744
0.000455006
0.000887365
0.00255414
0.00236507
0.000736518
0.000412066
0.000603225
0.000614901
0.000592777
0.000864702
0.000988362
0.00230516
0.00268853
0.00057859
0.000764272
0.000506563
0.000690947
0.000665102
0.000346413
0.000793104
0.000511706
0.000950859
0.0025238
0.0025788
0.000305575
0.000497725
0.000538151
0.00067562
0.00050348
0.000889504
0.00127381
0.000622171
0.000544741
0.00117667
0.00130287
0.00281967
0.00254209
0.00148984
0.00090185
0.00139952
0.00137332
0.000757344
0.000659161
0.000671435
0.000977546
0.000546568
0.000856414
0.00110792
0.00115265
0.00110764
0.0022585
0.00344527
0.00153343
0.00106188
0.000331286
0.00120062
0.000876347
0.000577294
0.000478967
0.000380504
0.00060522
0.000689358
0.000605201
0.000530549
0.00144709
0.000861155
0.00251861
0.00352652
0.00219155
0.00104924
0.00216387
0.000834638
0.000336091
0.000605196
0.000712677
0.000781296
0.000779456
0.000700465
0.000777532
0.000676338
0.000272498
0.00053314
0.000302841
0.000574985
0.000602997
0.000958961
0.00190754
0.000884085
0.000219872
0.000486769
0.00172664
0.000408326
0.000804675
0.00031034
0.00052114
0.000587358
0.000460228
0.000730183
0.000515476
0.000649774
0.000504422
0.000376791
0.000495683
0.00115434
0.00075021
0.000583519
0.00156567
0.00069985
0.000781252
0.00045063
0.000431994
0.00108858
0.000810449
0.000732264
0.00131601
0.00105623
0.0018526
0.0010626
0.00131338
0.000719852
0.000743829
0.000878662
0.000783566
0.000579765
0.000644425
0.000434198
0.000191684
0.000530001
0.000717903
0.000734581
0.000552855
0.000352355
0.000240137
0.000467666
0.000367459
0.000419372
0.000299294
0.000447765
0.000290862
0.000365418
0.000141681
0.000180087
0.000322779
0.000448148
0.000311912
0.000122634
0.000189259
0.000240476
0.000343061
0.000467018
0.000219986
0.000135841
0.000113627
0.000251395
0.000309672
0.000605065
0.00209686
0.00232272
0.000634003
0.00237368
0.00234555
0.000586096
0.000318569
0.000725899
0.00245455
0.00258267
0.000381353
0.00029933
0.00049116
0.000529406
0.000823886
0.0025945
0.00228676
0.000432303
0.000578876
0.000357638
0.000865476
0.000804975
0.000644694
0.000642391
0.00255887
0.00244249
0.000744667
0.000601536
0.000340248
0.000599969
0.0002187
0.000630939
0.00104955
0.000610563
0.0010716
0.00250371
0.00262147
0.000763442
0.000569725
0.000393901
0.00058044
0.000384302
0.000538866
0.000965383
0.000674343
0.000755198
0.000582459
0.000882987
0.00226017
0.00252022
0.000520653
0.000392017
0.000372494
0.000607899
0.000851771
0.00127169
0.000716762
0.00166722
0.000225291
0.000391496
0.000585489
0.000935947
0.000988975
0.00272728
0.00249553
0.000745141
0.00142831
0.00074773
0.00115093
0.00105943
0.00189459
0.00048533
0.000326246
0.000568917
0.000346107
0.00063915
0.000443941
0.000814468
0.000920586
0.000718921
0.00245897
0.00236797
0.00101458
0.00128552
0.00109822
0.000380981
0.000546752
0.000578156
0.000408145
0.00050052
0.000804775
0.000520912
0.00041215
0.000650249
0.00078639
0.000763525
0.00111681
0.000589845
0.00168564
0.00276337
0.00206666
0.000823018
0.00205866
0.0010111
0.000589692
0.000649548
0.000781752
0.00111262
0.000719911
0.000321939
0.000707643
0.000709768
0.000433378
0.00025619
0.000814962
0.000664343
0.000726794
0.000550106
0.000585699
0.00082741
0.00308413
0.000924682
0.000389423
0.000521231
0.000584784
0.000570233
0.00075214
0.00021756
0.000218775
0.000582854
0.00111049
0.000978842
0.000809601
0.000874888
0.000499871
0.000358728
0.000411261
0.000388115
0.000496405
0.00195522
0.000573798
0.000401386
0.00132019
0.000949541
0.000702651
0.000386469
0.000381569
0.00100962
0.000515831
0.000895875
0.00141125
0.000970769
0.0019769
0.000809158
0.00147088
0.000965452
0.00138187
0.000741779
0.000803868
0.00081397
0.00089473
0.000695435
0.000832982
0.000551444
0.00032783
0.000546381
0.000668359
0.00070981
0.000383832
0.000371653
0.000177095
0.000431568
0.000293662
0.000432824
0.000291288
0.000456785
0.000296704
0.000442023
0.000233324
0.000276274
0.000145434
0.000364987
0.000123183
0.000377421
0.000315913
0.000143733
0.000204123
0.000276474
0.00032532
0.000450463
0.000242422
0.000175131
0.000123822
0.000252102
0.0002343
0.000512723
0.00205038
0.00212387
0.000509426
0.00230571
0.00215285
0.000617354
0.000532713
0.000655831
0.00235296
0.00244425
0.000609734
0.000410453
0.000570522
0.000599262
0.00086134
0.00233477
0.00259782
0.000439547
0.000342509
0.000616055
0.000595534
0.000498849
0.000501421
0.000902458
0.00248801
0.00224594
0.000606436
0.000615275
0.000324593
0.000632093
0.000555363
0.00050264
0.000358382
0.000686769
0.000488809
0.00242332
0.00246008
0.000827405
0.000466633
0.000600099
0.000640572
0.000261897
0.000550561
0.00084131
0.000630203
0.000834017
0.000682182
0.000896099
0.0025062
0.00248227
0.000682818
0.000460697
0.000310462
0.000343515
0.00102614
0.000571746
0.000789053
0.000544419
0.000335073
0.000586252
0.000738107
0.000709043
0.00116605
0.002317
0.00236866
0.0005682
0.000416308
0.00140318
0.000574052
0.000957954
0.000683618
0.0009284
0.000354584
0.000376854
0.000455594
0.000863956
0.000336586
0.00073357
0.000339448
0.000961405
0.00261751
0.00281035
0.000770871
0.00137535
0.00203344
0.000869929
0.000528975
0.00108533
0.00101328
0.000771566
0.00063023
0.000284976
0.00131526
0.00116208
0.000886868
0.000737963
0.000656722
0.00127743
0.00063163
0.00260158
0.00311636
0.00225777
0.000861797
0.00107614
0.000663133
0.000911736
0.000307421
0.000746183
0.000197987
0.000830465
0.000892734
0.00108291
0.00081307
0.000255143
0.00108902
0.00062424
0.00121824
0.000399498
0.000464127
0.00138407
0.00278802
0.00269089
0.0012027
0.00100363
0.00110729
0.000958095
0.000946869
0.000816394
0.00100948
0.00152024
0.000642664
0.000539539
0.00102724
0.000574738
0.000425324
0.000694682
0.000273375
0.000371671
0.000530632
0.000571813
0.000252335
0.000573105
0.00179384
0.00239566
0.00114824
0.000411951
0.000367943
0.000777765
0.00113269
0.000854136
0.000513049
0.000736865
0.00052399
0.000951948
0.000860601
0.00100025
0.000744754
0.00107029
0.00124751
0.000538726
0.000426006
0.000315409
0.00029666
0.000562845
0.000718951
0.000728967
0.000400977
0.00160542
0.00175844
0.000610724
0.000406242
0.000360411
0.00120626
0.000620169
0.00107092
0.00130413
0.000501854
0.00168075
0.00104774
0.000989006
0.00110436
0.00104169
0.0012174
0.00146436
0.00120292
0.00107726
0.000720116
0.000973008
0.000674207
0.000734362
0.000728638
0.000234428
0.000520401
0.000573288
0.000594825
0.000203928
0.000388829
0.000170806
0.000317779
0.000303922
0.000413788
0.000276288
0.000448156
0.000291688
0.000473729
0.000406595
0.000388013
0.000171504
0.000290219
0.000198708
0.000132928
0.000282112
0.000402093
0.000141123
0.00042682
0.000211058
0.000301424
0.000302909
0.000427745
0.000261062
0.000170221
0.000106679
0.000273544
0.000207203
0.000397143
0.00200439
0.00204159
0.000417349
0.0021959
0.00209298
0.000601481
0.000391142
0.00060342
0.00227968
0.00241279
0.000744023
0.000448901
0.000514002
0.00057748
0.000874558
0.00233333
0.00267491
0.00035536
0.000592127
0.000521993
0.000677555
0.000684359
0.00056976
0.000853774
0.00233822
0.00250461
0.000638351
0.000244716
0.000547249
0.000714681
0.000681412
0.000532455
0.000502852
0.000626195
0.000915593
0.00237328
0.00226764
0.000570395
0.000550044
0.000447351
0.000348494
0.000675483
0.000791328
0.000297042
0.000389097
0.00071327
0.000658949
0.000855995
0.0025186
0.00250884
0.000909221
0.000551472
0.000492885
0.000580796
0.000800842
0.000498642
0.000581246
0.000635696
0.000717965
0.00079441
0.000498741
0.000773743
0.000757146
0.0026273
0.00264071
0.000772128
0.000476406
0.000400759
0.000338739
0.000296561
0.000634031
0.000866177
0.000566897
0.00111284
0.00163363
0.00068844
0.000400626
0.000377413
0.000618654
0.000985738
0.00219258
0.00251623
0.000926207
0.000468431
0.000475084
0.000972775
0.000474761
0.000429689
0.00105277
0.000777272
0.00110165
0.00056806
0.00130463
0.00110456
0.00013833
0.000400185
0.000596459
0.000643359
0.00114593
0.00284951
0.00307994
0.00228442
0.00099846
0.00166896
0.00119629
0.000883692
0.000200742
0.000919056
0.00032467
0.000551974
0.000718063
0.000345217
0.00132184
0.000379053
0.00112326
0.00077838
0.000537593
0.00113948
0.0011847
0.000575733
0.00306177
0.00462963
0.0018965
0.000909124
0.00129343
0.000625219
0.000643796
0.000634698
0.000598318
0.000698613
0.000821467
0.000550299
0.00073138
0.00100458
0.000401531
0.000505383
0.000379379
0.000289774
0.00111744
0.00066402
0.00103786
0.000870373
0.0016905
0.00311289
0.00273561
0.000685045
0.00126863
0.00108207
0.000829777
0.000933088
0.0011213
0.00114132
0.00110286
0.000321178
0.000532152
0.00109007
0.000851051
0.0007203
0.000484857
0.000518576
0.000259533
0.000441772
0.000624123
0.000548053
0.000384458
0.000773732
0.000634944
0.0017899
0.00266012
0.00180223
0.000362952
0.00026442
0.000907764
0.00126481
0.000872972
0.000542357
0.000423625
0.000723354
0.00068594
0.000897236
0.000734592
0.000778857
0.000940285
0.000827084
0.000860286
0.000941559
0.000585614
0.000481383
0.000273247
0.000279129
0.000499487
0.000908223
0.000717945
0.000540916
0.00170251
0.00186529
0.0004884
0.000504083
0.000308377
0.00122323
0.00103209
0.00118965
0.0010309
0.000556306
0.00127135
0.00161452
0.000817783
0.000925197
0.000633101
0.0014895
0.000884772
0.000611624
0.00160739
0.00154002
0.00121863
0.000994239
0.000737749
0.000572451
0.000539381
0.000621612
0.00026202
0.000429985
0.000502707
0.000549444
0.00037228
0.000397365
0.000142925
0.000234228
0.000328906
0.00038219
0.000250664
0.000419481
0.000271794
0.000482059
0.000515829
0.000495272
0.00031907
0.000345007
0.000198523
0.000174197
0.00013675
6.47966e-05
0.000323552
0.000418216
7.69758e-05
0.000438082
0.000237501
0.00027782
0.000284912
0.000407927
0.000274634
0.000193649
0.000118076
0.000328714
0.000200518
0.000236748
0.00200783
0.00196217
0.000422792
0.00211583
0.00204734
0.000445181
0.000620765
0.000471845
0.00222223
0.00200877
0.000440135
0.000383611
0.000687039
0.000531084
0.000628051
0.00219235
0.00232654
0.000526965
0.000399363
0.000574372
0.000618028
0.000522544
0.000679246
0.00094948
0.00230177
0.00238293
0.000486735
0.000428886
0.000332206
0.00064722
0.000307323
0.000599004
0.00047404
0.000387016
0.000792016
0.00224979
0.00243681
0.000728332
0.000263377
0.000251721
0.000847844
0.000577373
0.000493011
0.000646048
0.000336897
0.00044588
0.000679539
0.000984025
0.00257785
0.00243092
0.000721156
0.000573225
0.00044223
0.000601566
0.000700089
0.000397294
0.000615217
0.000553333
0.00064993
0.000691884
0.00070096
0.000533201
0.000830461
0.00242355
0.00248564
0.00114074
0.000570675
0.000486468
0.000619868
0.000740561
0.000452468
0.000717223
0.000744903
0.000529938
0.000800743
0.000570035
0.000529601
0.000584909
0.000576951
0.000877547
0.0027566
0.00263963
0.00101083
0.000449439
0.000834564
0.00062399
0.000360395
0.000369985
0.000776549
0.000962238
0.000731409
0.000941705
0.000100046
0.000293429
0.0004304
0.000521294
0.00051435
0.000589758
0.000962569
0.00217402
0.0026056
0.000761512
0.000725217
0.000597739
0.000808477
0.000396178
0.000998743
0.000718332
0.00093253
0.00064296
0.000866879
0.000315814
0.000627755
0.000697681
0.000718082
0.000706062
0.000873347
0.000760467
0.000967144
0.000963361
0.00277103
0.00261034
0.00109859
0.00119589
0.000495951
0.00112016
0.00083013
0.00121657
0.00063036
0.000624955
0.00022577
0.000516082
0.000845467
0.000748181
0.00130391
0.000381142
0.00106545
0.00127987
0.000366829
0.000681787
0.00142103
0.000765163
0.00094363
0.00296583
0.00347152
0.00153134
0.00195336
0.00163893
0.0013478
0.000959503
0.000461746
0.00101904
0.000775039
0.000897451
0.000558274
0.00063247
0.000474647
0.000591694
0.000400854
0.000632723
0.000451219
0.000929914
0.000748453
0.000839877
0.000779163
0.000648127
0.00104099
0.00203652
0.00375796
0.00258703
0.00107498
0.000807102
0.00123357
0.00102273
0.000562311
0.000711219
0.000918843
0.00075037
0.00047505
0.000742409
0.000792374
0.000863252
0.0010456
0.00111219
0.000547765
0.000616041
0.000333936
0.000299471
0.000324508
0.000390437
0.000269021
0.000486773
0.000276764
0.00094768
0.000626723
0.00250437
0.00139738
0.000556362
0.000290133
0.000882489
0.000638
0.000504683
0.000432051
0.000819015
0.000700558
0.000423554
0.000764591
0.000776826
0.000652329
0.00216826
0.0008238
0.00111652
0.00150637
0.000874446
0.00057319
0.000476252
0.000387461
0.000350264
0.000404153
0.000401087
0.00108185
0.000623188
0.000435762
0.00168321
0.0013566
0.000400402
0.000590426
0.00026284
0.000903953
0.00115254
0.00112464
0.000678573
0.000839442
0.000659533
0.00156689
0.00088174
0.000730276
0.000494427
0.00115109
0.000971197
0.0010212
0.000535332
0.00051781
0.00172089
0.00140359
0.00115467
0.000958684
0.000700897
0.000560237
0.000441005
0.000429765
0.000383917
0.000388646
0.000479868
0.000353102
0.000560773
0.000387195
0.000112573
0.000167413
0.0003306
0.000346583
0.000213437
0.000381556
0.000250452
0.000462731
0.000588668
0.000606335
0.000362781
0.000337095
0.000194416
0.000136305
0.000144639
4.10309e-05
0.000172227
0.000154412
0.000330521
0.000395173
0.000282803
0.000215491
0.000261398
0.000292871
0.00027726
0.000388706
0.000272848
0.000203123
0.000107141
0.000283829
0.000211054
0.000187629
0.00201842
0.00192841
0.000246784
0.00219125
0.00199765
0.000393413
0.000290161
0.000434906
0.00215168
0.00209735
0.00045549
0.000462248
0.000394569
0.000712293
0.000501039
0.00222964
0.00201729
0.000427448
0.000515951
0.000470912
0.00047495
0.000559589
0.000494131
0.000825326
0.00209571
0.0021841
0.000678429
0.00045773
0.000564174
0.000655229
0.000356235
0.000423968
0.000644365
0.000639097
0.000702959
0.00223228
0.00241069
0.000518209
0.000471676
0.000591478
0.000460957
0.000363048
0.000382438
0.000555424
0.000762311
0.000429186
0.000431606
0.000868479
0.002155
0.00254602
0.00048527
0.000620729
0.000321795
0.000648106
0.000498519
0.000385872
0.000579414
0.000808723
0.000595535
0.000393175
0.000493755
0.00055777
0.000725418
0.00240277
0.00240171
0.000876435
0.000637901
0.000531381
0.000558164
0.000418729
0.000540314
0.000572858
0.000365764
0.000507983
0.000451147
0.000619485
0.000714357
0.000805428
0.000352516
0.000650709
0.00266942
0.0026663
0.000826184
0.000808481
0.000461421
0.000367698
0.000651649
0.00059375
0.000635672
0.000550239
0.000714701
0.000505167
0.000621795
0.000741402
0.000638098
0.000650563
0.000462715
0.000570021
0.000818017
0.00267325
0.00263893
0.0010709
0.000481991
0.000732818
0.000478564
0.000806487
0.000723846
0.000346777
0.000755307
0.000687779
0.0009842
0.00121887
0.000364412
0.00110862
0.000648018
0.000541456
0.00045111
0.000724168
0.000620713
0.000649272
0.00220172
0.0026539
0.000814057
0.00100793
0.000659019
0.00091101
0.00103671
0.000716917
0.000544707
0.000591534
0.000845422
0.00068697
0.00104968
0.000306532
0.000663128
0.000749065
0.000957694
0.000538808
0.000462308
0.000581128
0.000620671
0.000752102
0.000747409
0.00287572
0.00291027
0.00274584
0.0020846
0.000781199
0.00141841
0.00046921
0.000769218
0.000441453
0.000750699
0.000693832
0.000477214
0.000813842
0.000366753
0.000643861
0.000552718
0.000194618
0.000734902
0.000427035
0.000425201
0.000907249
0.0014151
0.00104973
0.00074473
0.00172222
0.00328836
0.00291265
0.00287187
0.00067037
0.00108217
0.00119325
0.00081017
0.00080665
0.000893885
0.00107587
0.000646124
0.000673746
0.000537236
0.000792379
0.00083577
0.000622016
0.000765073
0.000706697
0.000262366
0.000743242
0.000323599
0.000382443
0.000620736
0.000782823
0.000697473
0.000577613
0.0018867
0.00324964
0.00242583
0.00103575
0.000553265
0.000752662
0.00133981
0.000579892
0.000443723
0.00057194
0.00152323
0.000846048
0.000797485
0.00106741
0.00110136
0.00071971
0.00052934
0.00114478
0.000663559
0.000676043
0.000616259
0.000431914
0.000405323
0.000247533
0.00027578
0.000590992
0.000532582
0.000293038
0.00100407
0.00133418
0.00224351
0.00108577
0.000544297
0.000537761
0.00105494
0.00055063
0.000578045
0.00143597
0.000724831
0.000681371
0.00122088
0.0008209
0.00058771
0.00125841
0.00168823
0.00033359
0.000235253
0.000966859
0.00193553
0.00100144
0.000959299
0.000598516
0.000338761
0.000365348
0.000359818
0.000163388
0.00056128
0.000754484
0.000727686
0.000565009
0.00169612
0.000761451
0.0004021
0.000674653
0.000216341
0.00061111
0.00106543
0.000948947
0.000499005
0.000805156
0.000602525
0.0013028
0.000895979
0.000835824
0.000461217
0.00126635
0.000840452
0.00100919
0.000482249
0.000925964
0.000490577
0.000221051
0.00102397
0.00167282
0.00111858
0.000288447
0.000625019
0.000430547
0.000334232
0.000313658
0.000300541
0.000323698
0.000500538
0.000203984
0.000644375
0.000375291
0.000121702
0.000134661
0.000306984
0.000320869
0.000199217
0.000338631
0.000246202
0.000398125
0.000607928
0.000687131
0.000447222
0.000413827
0.00024483
3.48379e-05
7.64974e-05
0.000146384
0.000206598
9.15631e-05
0.000120326
9.0523e-05
0.000174056
0.000379148
0.000498282
0.000229234
0.000264503
0.000296182
0.000268434
0.000370808
0.000268262
0.00022609
0.000129762
0.00023582
0.000209834
0.000133036
0.00207659
0.00210629
0.000302413
0.00220198
0.0019334
0.000304346
0.000315014
0.000336609
0.00209863
0.00194312
0.000481417
0.000458963
0.000466826
0.000434908
0.000406123
0.0021339
0.00209618
0.00045087
0.000545363
0.000353522
0.000437303
0.000450234
0.000759109
0.000421729
0.00221985
0.00218108
0.000364274
0.000627134
0.000365016
0.000490169
0.000365742
0.00050433
0.000415302
0.000673819
0.000574946
0.00201439
0.00227246
0.000412684
0.000533787
0.000460662
0.000520732
0.00037184
0.000454436
0.000366427
0.000389899
0.00060931
0.000734899
0.000868531
0.00215435
0.00241445
0.000512758
0.000628049
0.000428002
0.000390051
0.000412532
0.000343998
0.000454648
0.000686964
0.000443758
0.000597503
0.000359349
0.000279
0.000648864
0.00210308
0.00256771
0.000480094
0.000718098
0.000387057
0.000338234
0.000546688
0.000412038
0.000450742
0.000487352
0.00067216
0.000517389
0.00065537
0.000733309
0.000721896
0.000274583
0.000793205
0.0022719
0.0024127
0.000759969
0.000568313
0.000666746
0.000555821
0.000506768
0.000611354
0.000439693
0.000322464
0.000334165
0.000512611
0.000502073
0.000735391
0.000687821
0.000646321
0.000527871
0.00033464
0.00042874
0.00242322
0.00247272
0.000910325
0.000594911
0.000601864
0.000678676
0.000499483
0.000805975
0.000319852
0.000665901
0.000587482
0.000650902
0.000728277
0.000595189
0.000506374
0.000292222
0.000595531
0.000633702
0.000406738
0.000698685
0.000928841
0.00257149
0.00258917
0.00092988
0.000652062
0.000475594
0.000713293
0.000520358
0.000591971
0.000291139
0.000739729
0.000900912
0.000652037
0.000619198
0.000789715
0.000256555
0.000989807
0.000591796
0.000557786
0.000469462
0.000608433
0.000487716
0.000616833
0.000574203
0.00244866
0.00272306
0.00100982
0.000363769
0.000889232
0.000856193
0.000893728
0.000880831
0.000584637
0.000632026
0.000735389
0.00095384
0.000660558
0.000862465
0.000995677
0.000985876
0.00103261
0.000497687
0.000819284
0.000357868
0.000293343
0.000502781
0.000817491
0.0006928
0.00117983
0.00247333
0.00331408
0.00115424
0.00103282
0.00158036
0.00120321
0.0015517
0.00116304
0.000791421
0.000717222
0.00028336
0.00094599
0.000516672
0.000710493
0.000404725
0.00057508
0.000344615
0.000316145
0.000494932
0.000682145
0.001034
0.000769534
0.00117764
0.0017525
0.000674879
0.000675905
0.00103387
0.00293766
0.00296856
0.00128343
0.00136495
0.00108126
0.00090015
0.000917154
0.00080766
0.000975521
0.00112996
0.00059021
0.000662853
0.000756284
0.000896813
0.00104903
0.00168676
0.000850961
0.000716981
0.000772819
0.000583428
0.000237999
0.000443054
0.0006528
0.000332469
0.00103123
0.00103231
0.00105351
0.000987664
0.0016524
0.0033937
0.00297339
0.00087968
0.000663753
0.00050412
0.00116936
0.00148883
0.000656242
0.000622555
0.000600271
0.000625965
0.00107223
0.000772663
0.000908372
0.000324564
0.000610586
0.000750109
0.000990242
0.000612532
0.000613218
0.000793406
0.000550647
0.000305126
0.000381643
0.000174228
0.000475332
0.000518447
0.000317226
0.000246626
0.000714414
0.00117009
0.00225753
0.00139459
0.000507509
0.000817403
0.00115088
0.000860538
0.00152905
0.00121747
0.000574122
0.000631057
0.00153544
0.000839744
0.000645957
0.00104391
0.000925443
0.000355678
0.000216933
0.000382636
0.000315072
0.00065924
0.00132271
0.000892849
0.000633444
0.000684994
0.000415164
0.000393638
0.000475668
0.000452386
0.000580702
0.000912151
0.000690691
0.000647169
0.00144317
0.000964366
0.000451303
0.000742098
0.000238979
0.000559907
0.00100155
0.000839391
0.000385331
0.000554605
0.000546457
0.00132307
0.000784165
0.000928989
0.000452757
0.00125597
0.000900317
0.00100481
0.000410668
0.000183989
0.000733834
0.000840748
0.000369551
0.000333091
0.000634267
0.00169481
0.00106863
0.000260088
0.000510296
0.000316994
0.000395455
0.00031883
0.00043342
0.000261981
0.000493498
0.000189976
0.00066914
0.000376
0.000120633
0.000141586
0.000289676
0.000303476
0.000139811
0.000283947
0.000249196
0.00039046
0.000569749
0.000731597
0.000492587
0.000400654
0.000239558
3.26106e-05
0.000117866
0.000103124
0.000106341
0.000307517
0.000135619
0.000195006
0.000160493
0.000165246
0.000215983
0.000367335
0.000655195
0.000287966
0.000277532
0.000283638
0.000259741
0.000361402
0.00026491
0.000234345
0.000134194
0.000200299
0.000221014
0.000123137
0.00200908
0.00211563
0.000326578
0.00217523
0.00213507
0.000437603
0.000217311
0.000393235
0.00217777
0.00191164
0.000417288
0.000487708
0.000275143
0.000187761
0.000280568
0.00218428
0.00192703
0.000343997
0.000820582
0.000360612
0.000256803
0.000481689
0.000553704
0.000357144
0.0021268
0.00205628
0.000397846
0.000705557
0.000431461
0.000263931
0.00026236
0.000355634
0.000494678
0.000662706
0.000574349
0.00210588
0.00218154
0.000695833
0.000571925
0.000424005
0.000263225
0.000238724
0.000240481
0.00029103
0.000483743
0.000513163
0.000611864
0.000558791
0.00201597
0.00223619