/*--------------------------------*- C++ -*----------------------------------*\
  =========                 |
  \\      /  F ield         | OpenFOAM: The Open Source CFD Toolbox
   \\    /   O peration     | Website:  https://openfoam.org
    \\  /    A nd           | Version:  7
     \\/     M anipulation  |
\*---------------------------------------------------------------------------*/
FoamFile
{
    version     2.0;
    format      ascii;
    class       volScalarField;
    location    "9";
    object      p;
}
// * * * * * * * * * * * * * * * * * * * * * * * * * * * * * * * * * * * * * //

dimensions      [0 2 -2 0 0 0 0];

internalField   nonuniform List<scalar> 
150000
(
-68.6786
-68.4753
-68.8362
-68.6639
-68.504
-65.7874
-68.7554
-67.8004
-68.2692
-68.954
-68.7062
-69.3291
-68.6212
-68.3292
-63.3553
-66.8848
-61.0882
-65.0091
-69.2977
-68.0483
-68.6996
-67.6086
-68.1081
-69.0283
-68.7191
-69.3637
-70.0533
-69.3129
-68.6054
-68.1787
-58.7268
-63.777
-63.3948
-63.3112
-68.1426
-64.481
-68.2222
-60.6612
-64.778
-69.9622
-68.4514
-68.8572
-69.6962
-68.613
-67.5249
-68.0073
-69.0737
-68.7623
-69.4145
-70.0934
-70.2146
-70.0183
-69.3058
-68.6029
-68.0837
-57.3838
-58.8108
-59.753
-58.772
-64.2553
-63.6302
-64.4746
-63.1922
-63.4867
-69.3492
-66.9416
-68.3427
-68.5935
-68.3641
-52.6065
-65.033
-70.5192
-68.9605
-69.0317
-69.7738
-70.1125
-69.5889
-68.5898
-67.7294
-67.9834
-69.1041
-68.8403
-69.4734
-70.1416
-70.2383
-70.2099
-70.1926
-69.9853
-69.3156
-68.6019
-68.0488
-55.3393
-57.4682
-57.8046
-57.4445
-59.0435
-59.8942
-60.5475
-59.6047
-58.9263
-64.5132
-63.8891
-64.3517
-65.239
-64.8548
-63.6026
-63.9017
-70.4239
-68.5042
-68.705
-68.8919
-68.7672
-68.3771
-68.5449
-59.8802
-65.6083
-71.0024
-69.3905
-69.2367
-69.896
-70.1802
-69.6158
-70.0658
-69.4605
-68.5644
-68.0713
-68.0128
-69.1244
-68.9645
-69.5306
-70.2013
-70.2644
-70.2302
-69.8793
-70.1939
-70.1709
-69.954
-69.3261
-68.6079
-68.0188
-53.4142
-55.2766
-55.8601
-55.3362
-57.3402
-57.7149
-58.1984
-57.7761
-57.5591
-59.2676
-60.2586
-60.9116
-61.0701
-60.6094
-59.5632
-58.7348
-64.8698
-64.3615
-64.5941
-65.4432
-65.6303
-65.1753
-65.4823
-64.2169
-64.5809
-71.613
-70.0771
-69.2473
-69.1777
-68.8866
-68.1027
-68.6194
-68.3204
-68.6172
-61.0886
-66.2567
-71.3373
-69.7019
-69.4656
-70.0393
-70.2038
-69.6024
-69.4703
-69.632
-70.0453
-69.3459
-68.5457
-68.3547
-68.1013
-69.1374
-69.1342
-69.5862
-70.2768
-70.2916
-70.2558
-69.8934
-69.6918
-69.8666
-70.1925
-70.1529
-69.9337
-69.3246
-68.6372
-68.0182
-52.2293
-53.334
-53.6227
-53.3528
-55.3025
-55.8338
-56.0406
-55.6743
-55.171
-57.4471
-57.7295
-58.2581
-58.4481
-58.1562
-57.9837
-57.3895
-59.4965
-60.8158
-61.221
-61.3678
-60.7843
-60.6238
-60.8311
-59.7208
-59.0697
-65.2342
-65.1668
-65.021
-65.6435
-65.8063
-65.6669
-65.5197
-65.2541
-66.0258
-65.0517
-65.3861
-72.6989
-71.1786
-69.8154
-69.4227
-69.0428
-68.1365
-68.448
-68.0412
-68.4165
-68.1066
-68.7609
-64.1337
-67.1323
-71.6098
-69.9417
-69.7373
-70.1588
-70.1863
-69.6194
-69.5504
-69.5134
-69.3889
-69.6711
-70.0331
-69.2576
-68.5292
-68.5156
-68.2595
-69.1461
-69.3357
-69.6492
-70.3581
-70.3215
-70.2868
-69.9141
-69.7107
-69.5922
-69.6728
-69.8585
-70.1792
-70.1279
-69.9247
-69.3282
-68.6856
-68.0699
-51.3461
-52.1369
-52.2662
-52.3669
-53.3989
-53.7336
-53.9257
-53.5751
-53.3273
-55.3578
-55.9991
-56.1941
-56.0147
-55.5167
-55.5914
-55.0553
-57.0958
-57.8646
-58.1175
-58.3084
-58.6963
-58.3144
-58.1552
-57.7205
-57.0443
-59.7892
-60.9897
-61.5239
-61.495
-61.1433
-61.4906
-61.4845
-60.8776
-61.3481
-60.3769
-59.6528
-66.004
-65.9923
-65.4827
-65.9362
-65.8226
-65.6553
-65.8811
-65.4895
-65.4858
-65.3331
-66.5343
-66.0275
-66.3115
-73.503
-71.9928
-70.3318
-69.6402
-69.1762
-68.2718
-68.6895
-68.646
-68.3923
-68.0483
-68.291
-67.9414
-69.0512
-66.4248
-68.2754
-71.8085
-70.1026
-70.0203
-70.2672
-70.1871
-69.7
-69.6211
-69.6652
-69.4739
-69.3921
-69.3059
-69.7277
-69.995
-69.1786
-68.5092
-68.613
-68.4687
-69.1489
-69.5302
-69.7197
-70.4348
-70.3547
-70.3019
-69.9426
-69.7328
-69.5922
-69.9622
-69.5933
-69.6549
-69.8593
-70.1606
-70.095
-69.913
-69.3256
-68.7348
-68.1622
-50.5597
-51.3641
-51.4107
-51.4012
-52.1796
-52.3104
-52.5405
-52.2056
-52.2645
-53.3605
-53.8307
-53.8515
-54.0718
-53.7311
-53.2741
-53.2669
-55.3003
-56.022
-56.1715
-56.1762
-56.6683
-56.2749
-55.4057
-55.6134
-54.8478
-56.9199
-57.8088
-57.8932
-58.3758
-58.018
-58.6254
-58.5812
-58.1785
-57.9647
-57.5808
-57.0953
-60.96
-61.2119
-61.8087
-61.9229
-61.5634
-61.5255
-62.3637
-62.0463
-61.4431
-60.9229
-61.3512
-60.7857
-59.4051
-66.362
-66.7786
-66.2722
-66.3183
-65.922
-65.71
-65.8341
-65.6614
-65.5978
-65.3692
-65.2872
-65.7194
-67.3083
-67.4393
-67.7083
-74.4017
-72.8552
-70.9774
-69.851
-69.3782
-68.4027
-69.0204
-68.9736
-68.5339
-68.3933
-68.1004
-68.1094
-68.1969
-67.9998
-69.3684
-68.0581
-69.3229
-72.0138
-70.2766
-70.2331
-70.4324
-70.2134
-69.8111
-69.7248
-69.8157
-69.5418
-69.4069
-69.4502
-69.2754
-69.2109
-69.7507
-69.9368
-69.1198
-68.4912
-68.7304
-68.6775
-69.1454
-69.6785
-69.7862
-70.5117
-70.3886
-70.3304
-69.9805
-69.7586
-69.5944
-69.9697
-69.5003
-69.9574
-69.5948
-69.6384
-69.8618
-70.1438
-70.062
-69.9029
-69.3385
-68.7692
-68.2726
-50.0362
-50.6059
-50.6961
-50.5797
-51.3554
-51.4282
-51.3625
-51.3519
-51.3125
-52.2488
-52.4169
-52.4678
-52.4271
-52.514
-52.0698
-52.2225
-53.331
-53.9601
-53.9242
-54.0933
-54.054
-53.921
-53.5774
-53.2971
-53.3482
-55.2449
-56.0817
-56.1719
-56.365
-56.6134
-56.5617
-56.0862
-56.0012
-55.4039
-54.8248
-54.7548
-56.396
-57.8692
-58.1141
-58.5696
-58.2932
-58.5527
-58.1892
-58.6441
-58.2063
-58.0678
-57.9542
-57.8996
-57.0297
-61.6497
-61.5356
-62.1131
-62.3053
-62.188
-62.0845
-62.509
-62.417
-61.8423
-62.0372
-61.177
-61.0747
-61.4316
-61.1752
-59.7048
-67.0464
-67.8266
-67.413
-66.7742
-65.9269
-65.9288
-65.951
-66.2793
-65.7336
-65.4427
-65.1405
-65.2929
-65.3352
-66.1444
-68.013
-69.0318
-69.1328
-75.4402
-73.7782
-71.5172
-69.8786
-69.6092
-68.6763
-69.2319
-69.2712
-68.8581
-68.2716
-68.2978
-68.1167
-67.8775
-68.054
-68.0036
-67.9051
-69.5977
-69.15
-70.2412
-72.2879
-70.4522
-70.4194
-70.5609
-70.2299
-69.9077
-69.8834
-69.9697
-69.6404
-69.3196
-68.6566
-69.4242
-69.4261
-69.1649
-69.1448
-69.7545
-69.8775
-69.0821
-68.4763
-68.8284
-68.8536
-69.137
-69.7805
-69.8717
-70.5835
-70.4222
-70.3629
-70.0229
-69.7857
-69.5987
-69.9839
-69.4614
-69.3849
-69.5448
-69.9538
-69.6015
-69.6238
-69.8644
-70.1312
-70.0325
-69.9008
-69.3687
-68.7763
-68.3824
-49.424
-50.0145
-49.9732
-50.0287
-50.6543
-50.6589
-50.591
-50.6288
-50.5677
-51.4771
-51.4512
-51.4172
-51.4394
-51.4297
-51.224
-51.28
-52.3048
-52.3675
-52.4635
-52.4803
-52.473
-52.5934
-52.3554
-52.1652
-52.232
-53.3373
-53.9473
-53.9847
-54.0601
-54.343
-54.2783
-54.0481
-53.929
-53.644
-53.2462
-53.4035
-55.0472
-56.0752
-56.2693
-56.2742
-56.5314
-56.893
-56.1921
-56.1098
-56.0123
-55.9455
-55.2486
-55.043
-54.4182
-56.5385
-57.8922
-58.2925
-58.4193
-58.6031
-59.0367
-59.1621
-59.314
-58.1723
-58.2221
-58.1337
-57.7067
-57.9847
-57.7063
-56.8743
-60.9791
-62.1567
-62.646
-62.2476
-62.645
-62.473
-62.2718
-62.7028
-62.6704
-62.2466
-61.8718
-61.7315
-60.885
-61.2364
-61.5948
-62.1524
-60.3966
-68.0103
-69.102
-68.3003
-67.3167
-66.3069
-66.0845
-66.2257
-66.5871
-66.042
-65.7096
-65.602
-65.1311
-64.9733
-65.1842
-65.3855
-66.5016
-68.8578
-70.1665
-70.1792
-76.4577
-74.4827
-71.8577
-70.0034
-69.8511
-69.029
-69.5954
-69.6744
-69.1597
-68.4329
-68.0051
-68.0193
-68.0931
-67.8667
-67.669
-67.9848
-67.8678
-68.2145
-69.8506
-69.7986
-71.4202
-72.6333
-70.5711
-70.6213
-70.6355
-70.2789
-70.0229
-70.0674
-70.1473
-69.7219
-69.2072
-68.7646
-68.2561
-68.545
-69.4213
-69.3739
-69.0723
-69.0857
-69.6997
-69.7879
-69.0565
-68.4786
-68.8697
-68.9563
-69.1272
-69.8466
-69.966
-70.6329
-70.4601
-70.3981
-70.0632
-69.8145
-69.6043
-69.9922
-69.442
-69.3293
-69.1604
-69.4072
-69.5829
-69.9486
-69.6094
-69.6107
-69.8672
-70.1219
-69.996
-69.8918
-69.4027
-68.7667
-68.4801
-49.1395
-49.3965
-49.4639
-49.455
-49.9474
-49.9877
-50.0307
-49.9211
-50.0012
-50.6412
-50.6806
-50.6708
-50.6866
-50.6054
-50.5003
-50.5065
-51.4375
-51.4825
-51.4283
-51.5601
-51.5834
-51.4395
-51.3034
-51.2366
-51.2876
-52.2586
-52.2915
-52.4408
-52.6705
-52.6309
-52.6849
-52.5359
-52.5553
-52.457
-52.1921
-52.2157
-53.2974
-53.9253
-53.9512
-54.0769
-54.1545
-54.451
-54.7545
-54.3371
-54.1394
-53.7717
-53.4243
-53.2763
-53.5913
-55.1029
-55.9731
-56.2047
-56.2062
-56.5416
-56.8936
-56.1108
-56.9947
-57.1389
-56.5162
-55.9875
-55.7431
-55.3355
-55.2758
-54.1878
-56.2808
-57.9771
-58.1737
-58.9908
-58.8797
-58.6119
-59.6434
-59.1526
-59.556
-58.9967
-59.1081
-57.9991
-58.092
-57.8966
-58.0942
-57.2037
-56.9385
-61.8898
-62.8396
-63.001
-62.3568
-62.6227
-62.6146
-62.6812
-63.1199
-62.8438
-62.4196
-62.3105
-62.0737
-61.6092
-61.4044
-61.0812
-61.5389
-61.7821
-62.9815
-60.6539
-68.8635
-70.2645
-68.8746
-67.7934
-66.8113
-66.4078
-66.7044
-66.4364
-66.6378
-66.1341
-65.5966
-65.4751
-65.2102
-64.9131
-64.8259
-65.0653
-65.3133
-66.9534
-69.6329
-71.0282
-70.8293
-77.4011
-75.0225
-72.0379
-70.3801
-70.1708
-69.3921
-70.0876
-70.1403
-69.5139
-68.5951
-68.1579
-67.4688
-67.8304
-67.8557
-67.8436
-67.6821
-67.4824
-68.0387
-67.8252
-68.4569
-70.034
-70.482
-71.4184
-72.9753
-70.636
-70.8084
-70.8005
-70.4187
-70.1483
-70.2628
-70.3008
-69.7743
-69.1422
-68.7939
-68.4143
-67.8692
-68.0879
-68.4817
-69.4406
-69.281
-69.0305
-69.0749
-69.6448
-69.726
-69.0446
-68.4947
-68.885
-69.0256
-69.118
-69.8842
-70.0392
-70.6646
-70.498
-70.4356
-70.102
-69.843
-69.6084
-69.9823
-69.4278
-69.2919
-69.1473
-68.265
-69.1898
-69.4219
-69.6268
-69.9422
-69.6093
-69.6004
-69.8713
-70.1153
-69.9695
-69.8758
-69.4711
-68.7675
-68.5646
-48.8154
-49.1618
-49.1369
-49.1399
-49.4065
-49.4122
-49.4509
-49.4303
-49.4058
-49.9402
-49.9986
-50.0542
-49.9333
-49.9723
-49.856
-49.9905
-50.6717
-50.7156
-50.6073
-50.647
-50.6233
-50.501
-50.6238
-50.5363
-50.5123
-51.387
-51.4951
-51.4773
-51.4368
-51.4596
-51.6553
-51.6927
-51.3713
-51.2285
-51.1942
-51.336
-52.19
-52.2934
-52.4012
-52.6393
-52.7441
-52.7848
-52.8828
-52.6065
-52.5354
-52.4115
-52.421
-52.0559
-52.2412
-53.574
-53.9455
-54.0045
-54.0695
-54.2069
-54.0042
-54.5059
-54.6151
-54.6667
-54.3193
-54.0766
-53.8411
-53.5096
-53.343
-53.6135
-55.4495
-56.0547
-56.1305
-55.9488
-56.525
-56.4764
-56.7694
-57.055
-57.124
-56.7947
-57.032
-56.12
-55.9956
-55.7678
-55.5117
-55.5928
-54.0841
-55.9962
-58.1411
-58.0481
-59.0481
-59.1141
-59.1158
-59.1361
-59.2149
-59.7122
-59.5109
-59.2235
-59.023
-58.73
-57.9951
-58.1267
-58.0153
-57.9363
-57.1082
-56.7076
-63.2922
-63.4112
-63.785
-62.5412
-62.4454
-62.8523
-63.2293
-63.3444
-63.013
-62.7339
-62.3594
-62.5981
-62.0079
-61.7746
-61.2511
-61.2175
-61.2093
-61.9355
-62.4314
-63.0023
-59.9522
-68.9521
-70.7194
-69.3784
-68.3664
-67.2657
-66.8676
-67.2017
-66.7472
-67.0334
-66.4404
-65.8794
-65.3815
-65.3209
-65.2427
-65.0334
-64.7441
-64.7799
-64.9746
-65.3689
-67.3955
-70.3793
-71.7037
-70.8534
-78.2325
-75.5043
-72.3237
-70.6806
-70.3809
-69.836
-70.5773
-70.6113
-69.8819
-68.778
-68.3459
-67.7477
-67.4505
-67.2326
-67.6815
-67.6536
-67.6586
-67.537
-67.3942
-67.902
-67.8439
-68.5062
-70.1358
-70.7326
-71.0182
-73.1894
-70.6703
-70.9552
-70.9723
-70.6176
-70.2732
-70.4472
-70.4407
-69.8615
-69.1455
-68.8317
-68.5467
-67.9558
-67.6329
-67.7973
-67.9532
-68.407
-69.4316
-69.2058
-68.9875
-69.1124
-69.6502
-69.691
-69.0626
-68.5036
-68.9292
-69.0213
-69.1101
-69.9015
-70.1034
-70.6865
-70.5347
-70.4747
-70.1377
-69.872
-69.6121
-69.9729
-69.4304
-69.2745
-69.132
-68.2753
-67.1536
-68.2678
-69.2106
-69.4442
-69.6624
-69.9371
-69.6111
-69.5941
-69.8764
-70.1108
-69.956
-69.8696
-69.5632
-68.7818
-68.6369
-48.5496
-48.8394
-48.8345
-48.8213
-49.1229
-49.1246
-49.0823
-49.153
-49.1722
-49.3238
-49.4535
-49.4396
-49.4697
-49.3933
-49.2594
-49.3698
-49.9465
-50.0243
-50.0367
-49.8917
-49.9679
-49.8824
-49.937
-49.875
-50.0704
-50.6564
-50.704
-50.655
-50.6193
-50.7934
-50.7017
-50.6352
-50.5374
-50.559
-50.5402
-50.5109
-51.3618
-51.4623
-51.4373
-51.4894
-51.5587
-51.6158
-51.7634
-51.656
-51.5577
-51.5466
-51.3021
-51.3918
-51.2316
-52.2931
-52.251
-52.4695
-52.4561
-52.7361
-52.8082
-52.8472
-52.923
-52.6771
-52.6056
-52.4368
-52.3101
-52.4326
-52.1817
-52.2901
-53.682
-53.855
-54.0288
-54.1137
-54.2985
-54.3365
-54.4283
-54.7658
-54.8287
-54.5949
-53.6771
-54.2091
-54.0604
-53.8289
-53.6437
-53.5411
-53.8409
-55.4238
-55.8671
-56.2765
-56.4048
-56.2786
-56.5951
-56.7148
-56.9317
-57.1247
-57.3136
-57.0251
-56.4996
-56.2771
-56.2956
-55.9964
-55.874
-55.6668
-55.9404
-53.9956
-55.61
-57.7939
-58.11
-58.6448
-59.1721
-59.3598
-59.8129
-59.5569
-60.1168
-59.6412
-59.7005
-59.6727
-59.2769
-58.4787
-58.3917
-57.8228
-58.0429
-58.101
-57.8153
-56.9991
-56.3498
-63.3322
-63.6343
-63.9847
-63.2203
-63.0288
-63.0835
-63.2663
-63.5548
-63.051
-63.0346
-62.7942
-62.7772
-62.5097
-62.2881
-62.0486
-61.5326
-61.3766
-61.1614
-61.0624
-62.4302
-62.8076
-62.8614
-60.7297
-69.4095
-72.5022
-69.649
-69.0001
-67.8099
-67.4154
-67.7508
-67.577
-67.407
-66.7457
-66.1759
-65.5274
-65.6915
-65.1521
-65.0215
-64.8216
-64.8026
-64.6482
-64.6893
-65.0643
-65.715
-67.9202
-70.8241
-71.7181
-70.311
-78.6985
-75.9037
-72.525
-70.9416
-70.5605
-70.3914
-71.1274
-71.0482
-70.2833
-69.0117
-68.5474
-68.0739
-67.7327
-66.5318
-67.0905
-67.0616
-67.4865
-67.4088
-67.4211
-67.4142
-67.3628
-67.7551
-67.8007
-68.5937
-70.2922
-70.2738
-70.6818
-73.2165
-70.6417
-71.0829
-71.0876
-70.804
-70.4207
-70.6478
-70.5988
-69.9819
-69.1646
-68.8997
-68.6237
-68.076
-67.6395
-66.2376
-67.5519
-67.6668
-67.9319
-68.3637
-69.3477
-69.155
-68.9617
-69.1519
-69.6594
-69.6444
-69.0984
-68.5041
-68.9842
-68.7939
-69.1022
-69.9072
-70.1531
-70.7021
-70.5699
-70.5153
-70.169
-69.8986
-69.6169
-69.9738
-69.4547
-69.2573
-69.0891
-68.2782
-67.1688
-66.311
-67.1445
-68.2805
-69.2311
-69.4503
-69.6894
-69.9358
-69.6168
-69.5919
-69.8826
-70.1091
-69.9377
-69.8763
-69.6077
-68.8037
-68.6928
-48.4961
-48.5645
-48.5836
-48.5733
-48.7975
-48.8458
-48.8121
-48.8508
-48.8487
-49.0954
-49.1287
-49.1342
-49.0873
-49.1279
-49.0929
-49.1425
-49.3904
-49.4975
-49.443
-49.4815
-49.5052
-49.4076
-49.3914
-49.2843
-49.3638
-49.9149
-49.9714
-50.0046
-50.074
-50.0424
-50.1185
-50.0574
-49.9379
-50.0303
-49.9369
-50.1354
-50.7053
-50.6901
-50.7068
-50.6338
-50.7547
-50.769
-50.8435
-50.7005
-50.6356
-50.6061
-50.579
-50.6293
-50.5301
-51.4028
-51.3396
-51.4635
-51.5254
-51.5648
-51.5812
-51.8316
-51.9323
-51.7108
-51.5186
-51.429
-51.3581
-51.2269
-51.4639
-51.3305
-52.2713
-52.1606
-52.4599
-52.4726
-52.6925
-52.8553
-52.9617
-53.0461
-53.173
-52.8837
-52.6241
-52.6503
-52.4816
-52.44
-52.4301
-52.2772
-52.2937
-53.5088
-53.8673
-53.9547
-54.1634
-54.2128
-54.5367
-54.4848
-54.6292
-55.0338
-55.0671
-54.6016
-54.5296
-54.1471
-54.2036
-54.0465
-53.8227
-53.744
-53.6977
-53.9216
-55.3038
-55.615
-56.1621
-56.2502
-56.5995
-56.7527
-56.7348
-56.8955
-57.0345
-56.8525
-57.4254
-57.3077
-56.6987
-56.3785
-56.49
-56.1485
-55.9506
-55.997
-55.5687
-56.11
-53.9972
-56.6607
-58.2539
-58.2431
-58.6271
-58.8803
-59.3628
-60.0837
-59.8354
-60.2082
-60.4659
-59.7612
-60.1595
-60.2078
-59.2263
-58.8954
-58.693
-58.193
-57.9584
-58.1171
-58.0029
-57.6153
-55.9748
-55.8184
-62.6419
-64.3726
-63.0732
-64.0263
-63.4226
-63.3269
-63.5671
-63.647
-63.1318
-63.2406
-63.2165
-63.0431
-62.9923
-62.5173
-62.3004
-61.8073
-61.4723
-61.473
-61.2131
-60.8831
-60.952
-63.0757
-63.5814
-63.1199
-60.9659
-69.2957
-72.9872
-70.2933
-69.5004
-68.5441
-68.1734
-68.5334
-68.1442
-67.8286
-67.1722
-66.3867
-65.8054
-66.2203
-65.9147
-65.4145
-64.8562
-64.7146
-64.4918
-64.4611
-64.6573
-64.7816
-64.9055
-65.9171
-68.551
-70.7682
-70.5649
-69.5464
-78.3463
-76.0928
-72.6751
-71.1827
-70.8904
-71.0588
-71.7126
-71.4949
-70.7737
-69.2714
-68.8068
-68.4299
-68.1105
-66.8906
-66.2682
-66.1196
-66.728
-66.9153
-67.303
-67.2108
-67.2036
-67.292
-67.2971
-67.7522
-67.9745
-68.6991
-70.2807
-69.6079
-70.0895
-73.1922
-70.5389
-71.1736
-71.1675
-70.9459
-70.593
-70.8344
-70.7482
-70.107
-69.227
-68.9639
-68.7028
-68.2386
-67.6474
-66.1489
-65.9235
-66.2575
-67.4909
-67.5935
-67.9645
-68.3807
-69.2855
-69.0896
-68.9702
-69.2159
-69.6644
-69.6183
-69.1383
-68.4927
-69.0505
-68.4669
-69.0894
-69.8886
-70.1812
-70.7176
-70.6038
-70.5553
-70.1974
-69.9208
-69.6247
-69.9731
-69.4836
-69.2554
-69.0544
-68.2863
-67.182
-66.2979
-65.7438
-66.311
-67.1518
-68.2774
-69.2501
-69.4683
-69.7071
-69.9361
-69.6263
-69.5933
-69.8901
-70.1112
-69.9235
-69.8877
-69.6168
-68.8342
-68.7517
-48.3374
-48.5398
-48.5043
-48.426
-48.5563
-48.5935
-48.6319
-48.6057
-48.6024
-48.7971
-48.8245
-48.8281
-48.8696
-48.802
-48.876
-48.8491
-49.0943
-49.1294
-49.0659
-49.1305
-49.1525
-49.1024
-49.1518
-49.0233
-49.1778
-49.3566
-49.4132
-49.3785
-49.5025
-49.5052
-49.6859
-49.5205
-49.4427
-49.4175
-49.3454
-49.4281
-50.0287
-49.9266
-50.003
-50.0364
-49.9558
-50.1567
-50.1875
-50.0524
-50.0523
-49.9616
-49.9486
-49.8871
-50.1225
-50.7396
-50.6212
-50.6634
-50.7537
-50.6716
-50.7838
-50.9294
-50.9896
-50.8377
-50.6949
-50.5925
-50.6267
-50.6552
-50.6115
-50.5446
-51.375
-51.3656
-51.3319
-51.5463
-51.5178
-51.8127
-51.8488
-51.8925
-51.9803
-51.801
-51.6505
-51.6038
-51.5139
-51.3926
-51.3525
-51.5353
-51.2842
-52.1252
-52.1619
-52.43
-52.4758
-52.7662
-52.903
-52.9674
-53.0822
-53.213
-53.1687
-53.1347
-52.9227
-52.6604
-52.58
-52.5
-52.452
-52.5689
-52.4173
-52.393
-53.4577
-53.6694
-53.9892
-54.1503
-54.2538
-54.3814
-54.3903
-54.7275
-54.8814
-55.191
-55.3918
-54.5876
-54.5985
-54.7704
-54.4133
-54.2461
-54.0269
-53.8056
-53.7913
-53.8049
-53.7736
-55.3309
-55.6482
-55.6134
-56.3078
-56.5593
-56.9374
-57.1831
-57.0161
-57.3716
-57.0396
-57.0973
-57.5897
-57.3995
-56.8453
-56.438
-56.3573
-55.8869
-56.0541
-55.9207
-55.8505
-55.6695
-56.0615
-54.0198
-56.9333
-56.4027
-58.4814
-58.7593
-59.2681
-59.8111
-59.434
-60.1594
-59.9299
-60.6581
-60.5716
-60.6666
-60.8848
-60.1826
-59.6339
-59.2315
-58.8571
-58.6062
-58.3481
-57.9362
-58.1974
-57.8544
-57.5059
-55.6806
-55.9637
-62.89
-66.465
-64.1706
-64.0551
-64.0661
-63.873
-64.2055
-63.8677
-63.4954
-63.3398
-63.1892
-63.2877
-63.0049
-63.6309
-62.6373
-62.2745
-61.9328
-61.6409
-61.218
-61.2614
-61.0884
-60.6375
-61.4157
-63.653
-63.7895
-62.8668
-60.7155
-69.3647
-72.884
-70.9037
-69.9077
-69.2719
-68.8618
-69.3109
-68.7036
-68.3572
-67.6102
-66.5053
-66.1501
-66.585
-66.3382
-66.3363
-65.6752
-65.0884
-64.5476
-64.3563
-64.3234
-64.3907
-64.6073
-64.7604
-64.8996
-66.1275
-68.9915
-70.4491
-69.5153
-68.4476
-77.616
-75.931
-72.8857
-71.3983
-71.2441
-71.7168
-72.2594
-71.9409
-71.1483
-69.5855
-69.1537
-68.8386
-68.3475
-67.2024
-66.6895
-66.5007
-65.9423
-65.8387
-66.5564
-66.7975
-67.105
-67.0368
-67.0374
-67.1528
-67.2029
-67.7351
-68.0837
-68.7934
-70.0544
-69.2631
-69.314
-73.0612
-70.3991
-71.1913
-71.2425
-71.0437
-70.7531
-70.9411
-70.8694
-70.2265
-69.3498
-69.0386
-68.7831
-68.3841
-67.6993
-66.1483
-65.887
-65.5158
-65.9875
-66.2685
-67.3707
-67.5716
-67.9345
-68.4399
-69.26
-69.0662
-69.0058
-69.2668
-69.689
-69.6216
-69.1822
-68.4744
-69.0704
-68.0953
-69.0731
-69.8232
-70.1854
-70.7345
-70.6353
-70.5949
-70.2248
-69.9391
-69.6328
-69.9703
-69.5119
-69.253
-69.0259
-68.298
-67.1949
-66.2838
-65.7367
-65.7382
-65.7525
-66.3012
-67.1649
-68.279
-69.2668
-69.5091
-69.721
-69.9382
-69.6387
-69.5951
-69.8999
-70.1165
-69.911
-69.8917
-69.621
-68.872
-68.8521
-48.1469
-48.2888
-48.3257
-48.2661
-48.4917
-48.5265
-48.4729
-48.4729
-48.5017
-48.574
-48.6064
-48.6063
-48.6727
-48.6075
-48.6231
-48.6413
-48.7532
-48.8617
-48.7946
-48.8922
-48.9225
-48.8445
-48.834
-48.8206
-48.8553
-48.998
-49.0988
-48.9971
-49.144
-49.1603
-49.2952
-49.2
-49.123
-49.0723
-49.1153
-49.2296
-49.3524
-49.3742
-49.3711
-49.5134
-49.5471
-49.6666
-49.7456
-49.641
-49.5526
-49.4637
-49.4937
-49.346
-49.5102
-50.0522
-49.9923
-49.8818
-50.0486
-50.0033
-50.0757
-50.2457
-50.326
-50.1741
-50.1636
-50.0631
-49.9641
-50.0712
-50.0202
-50.0754
-50.6337
-50.6664
-50.5601
-50.6942
-50.7448
-50.8078
-50.8783
-51.0041
-51.1231
-50.94
-50.7787
-50.4767
-50.5953
-50.5063
-50.7436
-50.672
-50.5907
-51.3374
-51.3745
-51.3624
-51.4749
-51.5844
-51.6773
-51.7857
-51.9615
-52.0781
-52.2293
-52.0228
-51.8498
-51.7068
-51.5208
-51.4495
-51.48
-51.4421
-51.4203
-51.3352
-52.2885
-52.1951
-52.4367
-52.6064
-52.7503
-52.8354
-52.9015
-53.1132
-53.1584
-53.4414
-53.3326
-53.2714
-53.0524
-52.9619
-52.7413
-52.6647
-52.5762
-52.4454
-52.5037
-52.5295
-52.3906
-53.5856
-53.6123
-53.8714
-54.0756
-54.4706
-54.3842
-54.5803
-54.8184
-54.8673
-54.9618
-55.3049
-55.6392
-55.1283
-54.6755
-54.8571
-54.782
-54.4816
-54.2285
-54.15
-53.9395
-53.9041
-53.9062
-53.6879
-55.2102
-55.4227
-56.0494
-56.1545
-56.1293
-57.0459
-57.2151
-57.2269
-57.4158
-57.4448
-57.3547
-57.6
-58.1128
-57.8499
-57.0097
-56.7706
-56.7238
-56.3413
-56.0344
-55.8833
-55.9605
-56.0084
-55.8395
-55.9707
-54.2935
-57.4915
-56.901
-58.3454
-58.9574
-59.4082
-59.2152
-59.7639
-60.0807
-59.9804
-60.6697
-60.8546
-60.9751
-61.1144
-61.2706
-60.6894
-59.9954
-59.3318
-59.0336
-58.8051
-58.2226
-58.2528
-58.2854
-58.3108
-57.6029
-57.484
-55.9271
-56.2035
-62.5262
-66.172
-64.7326
-64.6009
-64.7362
-64.4919
-64.6528
-64.181
-63.6984
-63.3381
-63.667
-63.4566
-63.3777
-63.9044
-64.6983
-63.3829
-62.5118
-62.0768
-61.7681
-61.3868
-61.637
-61.217
-60.8743
-60.9281
-61.7366
-64.014
-63.5872
-62.749
-60.2315
-68.5117
-73.1327
-71.3041
-70.293
-69.5942
-69.5648
-69.9106
-69.286
-68.8621
-68.1784
-66.6701
-66.6245
-66.7994
-66.8274
-66.8684
-67.5445
-65.8561
-65.4543
-64.7527
-64.2498
-64.0835
-64.0991
-64.3603
-64.6693
-64.6906
-65.2944
-66.6084
-69.2741
-69.7323
-68.8376
-67.2317
-76.5299
-75.5159
-73.0851
-71.5443
-71.406
-72.0495
-72.6368
-72.3891
-71.6001
-69.9728
-69.5629
-69.2862
-68.7062
-67.4524
-66.8751
-66.6336
-66.1886
-66.3438
-65.7084
-65.6934
-66.3714
-66.6389
-66.9389
-66.9036
-66.9455
-67.1534
-67.1816
-67.7282
-68.1538
-68.9235
-69.838
-69.0861
-68.469
-72.773
-70.2239
-71.1724
-71.3229
-71.1145
-70.8429
-71.0242
-70.9378
-70.3434
-69.4914
-69.1321
-68.8858
-68.4429
-67.7038
-66.2102
-65.8999
-65.5131
-65.4267
-65.5319
-66.0273
-66.28
-67.2336
-67.5206
-67.8874
-68.5425
-69.2693
-69.0697
-69.0569
-69.3707
-69.7477
-69.6282
-69.2287
-68.4747
-68.9934
-67.7423
-69.0684
-69.7676
-70.192
-70.7502
-70.659
-70.6404
-70.2533
-69.9542
-69.6461
-69.9624
-69.5358
-69.2531
-68.9965
-68.3068
-67.1986
-66.2777
-65.7346
-65.7328
-65.5562
-65.7411
-65.7683
-66.2781
-67.1616
-68.3233
-69.2851
-69.5625
-69.7351
-69.9421
-69.6464
-69.5963
-69.9072
-70.1226
-69.9018
-69.8989
-69.6206
-68.9139
-68.959
-47.9703
-48.0904
-48.1693
-48.1912
-48.243
-48.2892
-48.2994
-48.2373
-48.3031
-48.4656
-48.4991
-48.4601
-48.5635
-48.5236
-48.5136
-48.4969
-48.5468
-48.6432
-48.4972
-48.6744
-48.7297
-48.7055
-48.5855
-48.6588
-48.642
-48.7067
-48.7985
-48.7878
-48.8516
-48.9191
-49.0408
-48.9537
-48.8432
-48.8127
-48.8209
-48.9236
-48.9942
-49.0156
-49.0185
-49.1459
-49.1981
-49.2672
-49.3707
-49.3212
-49.1992
-49.1362
-49.1491
-49.1324
-49.2656
-49.3138
-49.2203
-49.363
-49.4694
-49.5266
-49.6431
-49.7515
-49.8847
-49.7454
-49.6273
-49.5337
-49.4885
-49.5366
-49.5589
-49.5381
-50.0713
-49.9244
-49.9819
-50.0772
-50.1143
-50.058
-50.1876
-50.3322
-50.4383
-50.3232
-50.2252
-50.0554
-49.9673
-49.9596
-50.1566
-50.0408
-50.0885
-50.7115
-50.6963
-50.6584
-50.6176
-50.7279
-50.8054
-50.8943
-50.9818
-51.1434
-51.3069
-51.1314
-50.9336
-50.668
-50.4751
-50.6571
-50.5897
-50.769
-50.7256
-50.6137
-51.3651
-51.3051
-51.3553
-51.4252
-51.5815
-51.6706
-51.7409
-51.8514
-52.0633
-52.1323
-52.5258
-52.2587
-52.0707
-51.8659
-51.6963
-51.5368
-51.5413
-51.5141
-51.5073
-51.424
-51.3111
-52.3591
-52.2099
-52.4361
-52.5292
-52.7466
-52.9323
-52.9447
-53.1758
-53.2888
-53.3566
-53.6411
-53.938
-53.4696
-53.2793
-53.1585
-53.1097
-52.8587
-52.6831
-52.6321
-52.5549
-52.5132
-52.5451
-52.2876
-53.6315
-53.7214
-54.0458
-53.9607
-54.3924
-54.1894
-54.6421
-54.5611
-55.0137
-55.1061
-55.1783
-55.7226
-56.0348
-55.6936
-55.0735
-54.9695
-54.7782
-54.6339
-54.3921
-54.2671
-54.1696
-53.964
-53.9236
-53.8904
-53.7119
-55.0174
-55.714
-56.1285
-55.8652
-56.1778
-56.9717
-56.765
-57.1479
-57.3576
-57.6078
-57.7905
-57.8726
-58.4612
-58.6269
-58.058
-57.5473
-57.0384
-56.7517
-56.6726
-56.2862
-56.0962
-55.9533
-55.8482
-56.2802
-55.8714
-56.1011
-54.8762
-57.7884
-58.0994
-58.4007
-58.9633
-59.4462
-59.576
-60.3965
-60.1924
-60.3847
-60.7954
-60.639
-61.0665
-61.1758
-61.4342
-62.5362
-60.8871
-60.4534
-59.7018
-59.278
-58.8996
-58.6859
-58.3801
-58.18
-58.5202
-58.3155
-57.5659
-57.4928
-56.1304
-56.3987
-61.7792
-66.3211
-64.9419
-65.175
-65.1835
-64.9749
-65.0763
-64.5558
-63.7489
-63.8205
-63.9702
-63.7962
-63.7764
-64.2039
-65.2259
-67.2372
-64.4712
-62.9776
-62.191
-61.8495
-61.5649
-61.2609
-61.4399
-61.1097
-60.8554
-61.0043
-62.2376
-64.1986
-63.4004
-62.5118
-59.7087
-68.132
-73.2293
-71.8371
-70.6851
-69.8423
-69.983
-70.3808
-69.8831
-69.4881
-68.7139
-67.04
-66.9386
-67.3985
-67.3699
-67.5487
-68.2756
-68.0124
-66.7304
-65.5358
-65.2145
-64.3594
-63.9672
-63.8874
-63.9704
-64.3639
-64.6428
-64.7947
-65.5309
-67.0186
-69.2745
-69.2298
-68.1905
-65.7155
-75.2048
-74.8727
-73.0561
-71.6577
-71.5021
-72.275
-72.7771
-72.658
-72.0531
-70.4218
-70.0769
-69.8756
-69.3532
-67.7795
-66.9718
-66.6859
-66.2389
-65.8107
-66.1278
-66.1664
-65.5926
-65.5371
-66.2632
-66.4843
-66.7874
-66.8261
-66.9244
-67.2187
-67.243
-67.7826
-68.3904
-69.0488
-69.6632
-68.8545
-67.6761
-72.3097
-70.0139
-71.1401
-71.3746
-71.1851
-70.9392
-71.0777
-70.9381
-70.4381
-69.6197
-69.2408
-69.0104
-68.452
-67.6547
-66.2472
-65.9429
-65.522
-65.4232
-65.4026
-65.4305
-65.5508
-66.077
-66.3013
-67.0663
-67.4606
-67.9036
-68.6373
-69.2804
-69.0984
-69.1341
-69.4888
-69.8199
-69.6563
-69.2722
-68.4886
-68.824
-67.4584
-69.0704
-69.739
-70.2101
-70.764
-70.6817
-70.6763
-70.2755
-69.9653
-69.6654
-69.948
-69.5531
-69.2544
-68.9611
-68.3109
-67.2023
-66.2751
-65.7388
-65.7241
-65.5487
-65.2134
-65.5635
-65.7426
-65.7887
-66.2564
-67.1638
-68.3565
-69.3088
-69.6196
-69.7487
-69.9498
-69.6532
-69.5952
-69.9125
-70.1303
-69.893
-69.9247
-69.6184
-68.9593
-69.034
-47.8313
-47.9695
-48.0044
-47.9762
-48.0981
-48.122
-48.1806
-48.2016
-48.1823
-48.2334
-48.2746
-48.301
-48.3301
-48.2814
-48.2968
-48.3296
-48.3848
-48.429
-48.4042
-48.5717
-48.5341
-48.6139
-48.5126
-48.5049
-48.499
-48.4997
-48.5879
-48.5553
-48.6988
-48.7027
-48.766
-48.7098
-48.6661
-48.6447
-48.6461
-48.6797
-48.7313
-48.6708
-48.8046
-48.8108
-48.9186
-49.0035
-49.1425
-49.0553
-48.941
-48.9036
-48.8151
-48.9095
-48.9468
-48.9813
-48.8937
-49.065
-49.1232
-49.1709
-49.2654
-49.3567
-49.4695
-49.356
-49.2237
-49.253
-49.1735
-49.0877
-49.2029
-49.3111
-49.2306
-49.2464
-49.4343
-49.4173
-49.5277
-49.6237
-49.7308
-49.8994
-49.9106
-49.856
-49.7212
-49.7123
-49.5144
-49.4627
-49.6474
-49.5951
-49.5667
-50.1028
-49.9383
-49.916
-49.9033
-50.1017
-50.1108
-50.1886
-50.2065
-50.4675
-50.6144
-50.5013
-50.3455
-50.1682
-50.0753
-50.0252
-50.0166
-50.1828
-50.1496
-50.1173
-50.655
-50.6726
-50.6178
-50.5579
-50.7162
-50.7801
-50.9649
-51.015
-51.1256
-51.2928
-51.4991
-51.3613
-51.2092
-50.9102
-50.7472
-50.8718
-50.6672
-50.6573
-50.7933
-50.7189
-50.7011
-51.2445
-51.2361
-51.3026
-51.3245
-51.593
-51.6808
-51.7158
-51.9115
-52.0841
-52.1145
-52.3242
-52.7624
-52.5234
-52.2617
-52.0391
-51.8997
-51.7344
-51.6309
-51.5599
-51.6151
-51.4664
-51.4138
-51.2689
-52.306
-52.2817
-52.3748
-52.5863
-52.9635
-52.8479
-53.0009
-53.0712
-53.3204
-53.4044
-53.5865
-53.8971
-54.3629
-53.8226
-53.5214
-53.323
-53.2532
-53.0719
-52.8951
-52.7087
-52.6078
-52.6082
-52.5814
-52.4887
-52.3276
-53.404
-53.6467
-54.0735
-53.8928
-54.4008
-54.7761
-54.5925
-54.8466
-54.9454
-55.1522
-55.4287
-55.7568
-55.9812
-56.5778
-56.1241
-55.5669
-55.1655
-54.9124
-54.6887
-54.5425
-54.2951
-54.3238
-54.1374
-53.991
-53.9266
-53.9091
-53.5504
-54.7538
-55.7317
-56.0969
-56.0826
-56.0777
-56.578
-57.0159
-56.9939
-57.4714
-57.6441
-57.6646
-57.9969
-58.5355
-58.6368
-58.8626
-58.5963
-57.7552
-57.2298
-57.0239
-56.6643
-56.2038
-56.0875
-55.9474
-55.8625
-55.9961
-56.3183
-55.9217
-56.2184
-55.6056
-58.823
-57.9093
-58.621
-59.0158
-59.7666
-60.0885
-60.3481
-60.8301
-60.6102
-61.0513
-60.9616
-61.3242
-61.2443
-61.5061
-63.0059
-63.9752
-61.9279
-60.7314
-60.258
-59.5196
-59.0449
-58.9731
-58.6057
-58.1468
-58.23
-58.3617
-58.1422
-57.3522
-58.0104
-56.5042
-56.671
-62.6936
-67.3397
-65.3047
-65.8663
-65.3312
-65.3206
-65.3096
-64.6638
-64.3613
-64.2537
-64.0356
-64.0575
-64.0251
-64.7294
-66.2004
-68.136
-69.0483
-66.2504
-63.6847
-62.6931
-62.1454
-61.6842
-61.3931
-61.3739
-61.1871
-60.9111
-60.7391
-61.2679
-62.8505
-64.3836
-63.6033
-62.2663
-59.3084
-67.5287
-72.6898
-72.0564
-70.9986
-69.7316
-70.0488
-70.3785
-70.2791
-70.133
-69.4405
-67.79
-67.4792
-68.1303
-67.7284
-68.2671
-68.9258
-68.1643
-66.7426
-67.776
-66.0646
-65.3508
-64.9163
-64.0516
-63.747
-63.7018
-64.0176
-64.294
-64.6945
-64.8476
-65.7021
-67.4912
-69.2681
-68.8343
-66.9791
-63.9509
-73.8445
-73.9705
-72.9133
-71.8172
-71.5588
-72.3917
-72.7655
-72.8454
-72.3718
-70.8511
-70.5259
-70.6414
-69.8392
-68.2112
-66.9989
-66.7201
-66.2788
-65.8039
-65.2836
-65.8055
-66.0455
-65.9689
-65.521
-65.4517
-66.1258
-66.3683
-66.6275
-66.7506
-66.9081
-67.2158
-67.3357
-67.8747
-68.659
-69.186
-69.4407
-68.4398
-66.9965
-71.7302
-69.7779
-71.0682
-71.3927
-71.2594
-71.0396
-71.1161
-70.9362
-70.4641
-69.7329
-69.3509
-69.1289
-68.5432
-67.5766
-66.2859
-66.0284
-65.5307
-65.414
-65.3734
-65.1421
-65.4268
-65.4389
-65.5755
-66.1241
-66.3249
-66.9169
-67.382
-67.9228
-68.6483
-69.2899
-69.1514
-69.2012
-69.5896
-69.8964
-69.708
-69.3104
-68.4865
-68.589
-67.2555
-69.0267
-69.6836
-70.2172
-70.7769
-70.7056
-70.7015
-70.3015
-69.9741
-69.6857
-69.9376
-69.5658
-69.2498
-68.9268
-68.3262
-67.2163
-66.2759
-65.7342
-65.7173
-65.5444
-65.1938
-64.9607
-65.2435
-65.5745
-65.7544
-65.8137