/*--------------------------------*- C++ -*----------------------------------*\
  =========                 |
  \\      /  F ield         | OpenFOAM: The Open Source CFD Toolbox
   \\    /   O peration     | Website:  https://openfoam.org
    \\  /    A nd           | Version:  7
     \\/     M anipulation  |
\*---------------------------------------------------------------------------*/
FoamFile
{
    version     2.0;
    format      ascii;
    class       volScalarField;
    location    "4.5";
    object      p;
}
// * * * * * * * * * * * * * * * * * * * * * * * * * * * * * * * * * * * * * //

dimensions      [0 2 -2 0 0 0 0];

internalField   nonuniform List<scalar> 
18780
(
-58.8881
-57.4576
-58.8942
-58.2282
-55.8098
-57.3918
-57.1728
-58.9259
-58.1854
-57.8814
-54.0503
-55.7349
-55.233
-57.2971
-57.0137
-56.0914
-58.9915
-58.1773
-57.8297
-56.9335
-52.6237
-53.9031
-54.1602
-55.7064
-55.0666
-54.9239
-57.2425
-56.8963
-55.9798
-55.5855
-59.0961
-58.1931
-57.7596
-56.8688
-56.2642
-51.4313
-52.4035
-52.7686
-53.7555
-53.946
-54.0055
-55.7234
-54.9756
-54.727
-54.654
-57.2132
-56.8428
-55.8704
-55.4433
-55.3593
-59.1487
-58.2198
-57.7168
-56.8383
-56.151
-55.8065
-50.4683
-51.2654
-51.7803
-52.2509
-52.1755
-52.5507
-53.6642
-53.7077
-53.7506
-53.982
-55.7925
-54.9137
-54.622
-54.4791
-54.5718
-57.1958
-56.7964
-55.7782
-55.2962
-55.1991
-54.9832
-59.186
-58.2465
-57.6911
-56.7884
-56.0392
-55.6687
-55.5794
-49.5068
-49.5353
-50.9347
-50.8902
-51.3288
-51.5956
-52.2551
-51.9593
-52.1701
-53.0843
-53.5855
-53.4522
-53.5014
-53.8065
-54.1583
-55.8984
-54.8568
-54.4416
-54.2871
-54.2876
-54.4503
-57.2225
-56.7548
-55.7208
-55.1511
-55.0497
-54.806
-55.1342
-59.2553
-58.3007
-57.6842
-56.7412
-55.9528
-55.5386
-55.4671
-55.363
-48.4393
-49.0039
-49.8398
-49.6891
-50.5265
-51.5066
-50.7218
-51.1006
-51.4373
-51.9529
-52.1342
-51.8611
-52.018
-52.7389
-53.0336
-53.5234
-53.2859
-53.2659
-53.3728
-53.6989
-54.4171
-56.0331
-54.8327
-54.2506
-54.1009
-54.0427
-54.2493
-54.8914
-57.276
-56.6965
-55.6577
-55.0048
-54.8981
-54.6768
-54.9644
-55.2152
-59.3153
-58.3731
-57.7013
-56.714
-55.8761
-55.4669
-55.3541
-55.2877
-55.1301
-46.7614
-47.6351
-48.233
-48.6481
-48.536
-49.3795
-51.1952
-49.9086
-49.964
-51.271
-51.633
-50.7378
-50.8921
-51.2999
-51.5095
-51.7829
-52.0209
-51.681
-51.714
-52.0701
-52.8092
-53.5157
-53.471
-53.1743
-53.0907
-53.1418
-53.3144
-54.1321
-54.5107
-56.1589
-54.9073
-54.1111
-54.0016
-53.8428
-54.0089
-54.7253
-54.7939
-57.3548
-56.6509
-55.6122
-54.8928
-54.7431
-54.538
-54.7767
-55.0579
-55.0644
-59.3667
-58.415
-57.7041
-56.7029
-55.8155
-55.4147
-55.2491
-55.2117
-55.0769
-55.1601
-45.8976
-46.5735
-46.841
-47.6134
-47.6461
-47.7489
-48.4285
-49.2867
-48.4365
-48.9518
-50.8664
-51.562
-49.2331
-49.8434
-50.9167
-51.6582
-51.025
-50.5461
-50.6232
-51.0261
-51.3664
-51.7183
-52.3991
-51.9589
-51.6603
-51.5312
-52.1338
-52.4253
-53.2131
-53.6841
-53.4717
-53.0213
-52.8571
-52.9692
-53.0034
-53.8294
-54.3013
-54.3858
-56.3594
-54.9783
-54.0078
-53.8742
-53.6591
-53.776
-54.5324
-54.6136
-54.8166
-57.45
-56.5981
-55.5479
-54.8197
-54.6347
-54.4086
-54.6116
-54.8864
-54.933
-55.122
-59.4081
-58.4606
-57.715
-56.7255
-55.7877
-55.3396
-55.1434
-55.153
-55.0223
-55.1031
-54.7525
-45.4866
-45.8514
-46.1518
-46.4527
-46.7056
-47.2579
-47.0308
-47.5202
-47.8698
-47.5689
-48.1397
-48.936
-50.2006
-48.0315
-48.6998
-50.134
-51.6074
-50.6241
-48.9489
-49.5954
-50.6213
-51.44
-50.992
-50.9508
-50.3986
-50.4255
-50.845
-51.3128
-51.4997
-52.0756
-52.1829
-51.9659
-51.6378
-51.2551
-51.9371
-52.0735
-52.908
-53.4748
-53.5582
-53.4396
-52.9262
-52.641
-52.7394
-52.6732
-53.4328
-54.0678
-54.1994
-54.6106
-56.592
-55.0961
-53.9483
-53.7178
-53.4847
-53.5896
-54.3202
-54.3991
-54.7935
-55.0937
-57.5989
-56.5537
-55.4997
-54.7394
-54.4738
-54.2846
-54.4755
-54.7274
-54.7946
-55.0253
-54.9275
-59.4682
-58.5034
-57.7406
-56.7476
-55.7825
-55.2461
-55.0472
-55.0806
-54.9545
-55.0453
-54.7036
-53.9504
-45.0485
-45.3452
-45.651
-45.7357
-46.2036
-45.9818
-46.4961
-46.385
-46.6427
-47.4111
-47.3722
-47.0895
-47.1302
-48.2047
-48.2826
-47.5826
-47.8773
-48.9262
-49.7838
-49.5976
-48.2735
-48.6304
-49.571
-51.533
-51.0074
-49.9498
-49.1972
-49.3386
-50.0815
-51.2867
-50.8538
-50.9244
-50.9878
-50.4717
-50.25
-50.5406
-51.0736
-51.2363
-51.7789
-52.3315
-52.1443
-51.8959
-51.5844
-51.176
-51.5607
-52.2597
-52.6187
-53.1519
-53.416
-53.2475
-53.4517
-52.89
-52.3984
-52.5478
-52.4068
-53.0524
-53.7433
-54.0119
-54.147
-54.3557
-56.7885
-55.234
-53.8864
-53.6049
-53.3259
-53.3976
-54.0602
-54.2028
-54.5752
-54.6618
-54.6733
-57.792
-56.5696
-55.4779
-54.6729
-54.3075
-54.164
-54.3398
-54.5802
-54.6603
-54.9379
-54.8414
-54.1642
-59.6078
-58.5146
-57.7575
-56.7204
-55.7941
-55.1415
-54.9684
-54.9764
-54.8852
-54.98
-54.6565
-53.9152
-53.5767
-44.9192
-45.0929
-45.1163
-45.3955
-45.327
-45.6105
-45.7006
-45.9019
-45.8494
-46.1603
-46.4117
-46.5968
-46.4529
-46.738
-47.2669
-47.5179
-47.5281
-47.1633
-47.2998
-48.0086
-48.5092
-48.2123
-47.5797
-47.767
-48.5029
-49.7133
-49.5573
-48.9709
-48.1718
-48.5224
-49.2317
-51.1614
-50.89
-49.9508
-49.9117
-49.2976
-49.2695
-49.6311
-50.724
-50.932
-50.7238
-50.9408
-50.911
-50.5311
-50.099
-50.2803
-50.576
-51.0558
-51.4121
-52.0099
-52.0793
-51.7663
-51.9708
-51.4664
-51.0887
-51.2623
-51.9845
-52.2787
-52.9008
-53.2134
-52.8384
-53.2021
-53.5152
-52.8834
-52.2874
-52.3354
-52.1352
-52.8633
-53.5318
-53.9215
-53.8941
-54.3031
-54.1037
-56.9346
-55.3553
-53.8717
-53.47
-53.1874
-53.23
-53.7615
-54.0044
-54.2885
-54.3697
-54.4552
-54.3606
-57.9873
-56.6204
-55.4615
-54.6185
-54.1575
-53.9908
-54.2163
-54.4383
-54.547
-54.8725
-54.7663
-53.9812
-53.9114
-59.7043
-58.5579
-57.7908
-56.7276
-55.8385
-55.0757
-54.8568
-54.8694
-54.8293
-54.922
-54.6151
-53.8748
-53.5435
-53.3953
-44.8241
-44.8764
-44.9265
-45.1174
-45.0759
-45.0849
-45.1887
-45.4383
-45.455
-45.6007
-45.6899
-45.7798
-46.0564
-46.0189
-46.1469
-46.1956
-46.7213
-46.9389
-46.3796
-46.6742
-46.7318
-47.2283
-47.5124
-47.2031
-47.0183
-47.5016
-47.5483
-48.186
-47.9403
-48.0351
-47.3592
-47.8284
-48.2695
-49.0475
-49.9821
-49.2527
-48.3278
-48.2059
-48.1499
-48.7718
-50.4817
-50.8894
-50.1006
-49.5488
-49.5815
-49.4605
-49.2048
-49.3107
-50.3699
-50.8515
-50.7726
-50.6539
-50.684
-50.8561
-50.6105
-50.0308
-50.1277
-50.4084
-50.9892
-51.1461
-51.963
-51.9072
-51.5826
-52.3983
-52.0003
-51.3706
-51.0116
-51.0528
-51.3186
-51.8927
-52.9296
-52.9764
-52.5947
-52.9315
-53.3943
-53.5606
-52.8857
-52.2476
-52.2031
-51.9152
-52.4501
-53.3669
-53.7824
-53.7775
-54.0157
-53.784
-54.062
-57.109
-55.4983
-53.9059
-53.3374
-53.0898
-53.0935
-53.5432
-53.8398
-54.1751
-54.198
-54.2229
-54.1288
-54.128
-58.1783
-56.6586
-55.4792
-54.6125
-54.0491
-53.7862
-54.0894
-54.2597
-54.4608
-54.8312
-54.6795
-53.7454
-53.7658
-53.7508
-59.733
-58.6227
-57.8381
-56.7257
-55.868
-55.0359
-54.725
-54.7699
-54.787
-54.8718
-54.5818
-53.8285
-53.5126
-53.3666
-52.796
-44.672
-44.7743
-44.8807
-44.9226
-44.9673
-44.8834
-44.9764
-45.1633
-45.1431
-45.29
-45.3506
-45.3138
-45.4695
-45.5329
-45.5812
-45.5564
-45.815
-46.0214
-45.9916
-46.05
-45.8229
-46.3708
-46.253
-46.7422
-46.8211
-46.3151
-46.5396
-46.967
-47.0939
-47.3818
-47.0751
-47.1733
-46.9666
-47.2379
-47.8211
-47.9273
-48.2044
-48.0427
-47.745
-47.4327
-47.458
-48.2455
-48.7287
-49.4755
-49.283
-48.3464
-48.2278
-48.2526
-48.098
-48.3198
-49.9269
-50.7505
-50.3454
-49.6783
-49.5925
-49.9875
-49.301
-49.0258
-49.3275
-50.0277
-50.6067
-50.7135
-50.7336
-50.6161
-50.9379
-51.3891
-50.5454
-49.9726
-49.9604
-50.2172
-50.6562
-51.4643
-51.8012
-51.8001
-51.4836
-51.8915
-52.7484
-52.19
-51.3655
-50.9412
-50.8786
-51.1833
-51.7583
-52.5753
-52.9042
-52.3786
-52.55
-53.1525
-53.8031
-53.5896
-52.8723
-52.2059
-52.0748
-51.8476
-52.0509
-53.1112
-53.5219
-53.7266
-53.5573
-53.5512
-53.6964
-54.0865
-57.3015
-55.606
-53.9615
-53.2619
-52.9986
-52.9863
-53.3795
-53.7508
-54.0965
-54.0466
-53.9895
-53.9218
-53.9282
-53.9177
-58.2694
-56.7519
-55.5171
-54.62
-53.9893
-53.7125
-53.9312
-54.1152
-54.3916
-54.8136
-54.613
-53.5388
-53.5983
-53.6517
-53.2583
-59.7075
-58.6812
-57.8784
-56.6984
-55.879
-55.0204
-54.6438
-54.6667
-54.6965
-54.8199
-54.543
-53.7853
-53.4759
-53.3349
-52.7717
-52.1052
-44.704
-44.7388
-44.802
-44.8257
-44.7794
-44.7567
-44.8875
-44.9457
-44.905
-45.0681
-45.0583
-45.0919
-45.1725
-45.1413
-45.2813
-45.1565
-45.2726
-45.4672
-45.5163
-45.5995
-45.6178
-45.5431
-45.7385
-45.8596
-45.9604
-46.3383
-45.9605
-45.908
-46.158
-46.2953
-46.5127
-46.4723
-46.492
-46.4177
-46.367
-46.6775
-46.9985
-47.2423
-47.0973
-47.0744
-47.101
-47.0239
-47.1706
-47.3325
-47.9288
-48.0258
-48.0122
-47.5527
-47.4811
-47.5041
-47.6534
-47.8524
-48.519
-49.2118
-49.2702
-48.3142
-48.0743
-48.8451
-48.266
-48.1357
-48.358
-49.1001
-50.5815
-50.2563
-49.9231
-49.5802
-49.8464
-50.5913
-49.214
-48.9418
-49.0302
-49.7204
-50.4202
-50.7159
-50.5975
-50.5258
-50.5059
-51.079
-51.9603
-50.4587
-49.8902
-49.8113
-50.0221
-50.3819
-51.2326
-51.538
-51.72
-51.4616
-51.3323
-52.1882
-53.2234
-52.3005
-51.4045
-50.9412
-50.6522
-51.1149
-51.5479
-52.2874
-52.7809
-52.3067
-52.2435
-52.7731
-53.3277
-53.914
-53.7511
-52.946
-52.1813
-51.9056
-51.7948
-51.9387
-52.8614
-53.3513
-53.6199
-53.2773
-53.3156
-53.3668
-53.7778
-54.1694
-57.4793
-55.6473
-53.9907
-53.2123
-52.9073
-52.8837
-53.2242
-53.5996
-54.006
-53.9502
-53.8239
-53.7222
-53.7509
-53.7195
-53.5695
-58.5105
-56.9349
-55.563
-54.5837
-53.9115
-53.6094
-53.733
-54.025
-54.342
-54.785
-54.5611
-53.3861
-53.4264
-53.5461
-53.1502
-52.5728
-59.6531
-58.7747
-57.9548
-56.689
-55.9024
-54.9854
-54.5927
-54.5678
-54.5874
-54.7561
-54.4986
-53.7395
-53.4374
-53.3055
-52.7485
-52.0799
-51.4383
-44.6795
-44.6941
-44.7181
-44.6843
-44.7671
-44.7593
-44.7779
-44.7593
-44.8321
-44.8064
-45.0112
-44.8724
-44.959
-45.003
-45.0267
-45.075
-45.1175
-45.1982
-45.1736
-45.3637
-45.3843
-45.2237
-45.3562
-45.3586
-45.5209
-45.6608
-45.7146
-45.4878
-45.5047
-45.6237
-45.8087
-46.0913
-46.1259
-46.2017
-45.8036
-46.0529
-45.9747
-46.2921
-46.4939
-46.5622
-46.4355
-46.6126
-46.4518
-46.5044
-46.5613
-47.0094
-47.0447
-47.0888
-46.9306
-47.0272
-47.4634
-47.0305
-47.1277
-47.1975
-47.7704
-47.995
-47.9716
-47.4562
-47.2404
-47.9818
-47.4652
-47.6251
-47.601
-48.2075
-49.0987
-49.2479
-48.4453
-47.9608
-48.4269
-49.313
-48.2715
-48.2217
-48.2806
-48.5412
-50.3168
-50.2313
-49.7741
-49.4329
-49.4016
-50.0331
-50.8227
-49.115
-48.9936
-48.7681
-49.4048
-50.2815
-50.6188
-50.5384
-50.2649
-50.0871
-50.6756
-51.3005
-52.3949
-50.7024
-49.9224
-49.832
-49.8678
-50.3273
-50.8412
-51.3434
-51.5291
-51.3388
-51.0976
-51.8092
-52.7021
-53.6357
-52.3203
-51.3357
-50.9214
-50.5291
-50.9317
-52.0735
-52.3087
-52.5607
-52.1438
-51.936
-52.3919
-52.9297
-53.5102
-54.0974
-53.8438
-52.9574
-52.1662
-51.746
-51.7449
-51.9229
-52.7584
-53.2019
-53.4863
-53.0292
-53.044
-53.0492
-53.4697
-53.8056
-54.0997
-57.6111
-55.7384
-54.0562
-53.1622
-52.8256
-52.7756
-53.0886
-53.3847
-53.9261
-53.902
-53.6673
-53.5192
-53.6239
-53.5152
-53.3932
-53.1398
-58.7775
-57.103
-55.6637
-54.6347
-53.8611
-53.5043
-53.5307
-53.8926
-54.2749
-54.7318
-54.4917
-53.262
-53.2565
-53.4409
-53.0318
-52.4776
-51.933
-59.6787
-58.8192
-58.0614
-56.7087
-55.9001
-54.9255
-54.5487
-54.4754
-54.4625
-54.6813
-54.4634
-53.7009
-53.403
-53.2716
-52.7186
-52.0543
-51.3993
-50.6397
-44.482
-44.6021
-44.618
-44.6464
-44.7163
-44.6882
-44.5882
-44.8095
-44.6729
-44.5845
-44.7793
-44.892
-44.8281
-44.9877
-44.913
-44.972
-45.0013
-45.0159
-44.9538
-45.0477
-45.047
-45.0626
-45.1446
-45.1718
-45.2338
-45.3425
-45.3342
-45.6066
-45.2461
-45.2827
-45.4035
-45.4117
-45.5276
-45.6847
-45.799
-45.5525
-45.5266
-45.7026
-45.7631
-45.8742
-46.1376
-46.1202
-46.2356
-46.1019
-45.846
-46.1854
-46.2835
-46.3774
-46.3305
-46.3747
-46.4446
-46.9747
-46.4095
-46.2491
-46.5623
-46.9433
-47.14
-47.0597
-46.8951
-46.665
-47.3455
-47.5484
-47.032
-46.9201
-47.1753
-47.743
-48.2525
-47.9926
-47.6772
-47.0847
-47.7786
-48.0066
-47.4819
-47.4357
-47.7718
-48.0153
-48.893
-49.1042
-48.5539
-47.9128
-48.1357
-48.7163
-49.8042
-48.3055
-48.0137
-48.1074
-48.1885
-49.9014
-50.0432
-49.8869
-49.3161
-48.9109
-49.3639
-50.3348
-51.8206
-49.157
-48.9084
-48.8842
-49.2658
-49.9781
-50.42
-50.5289
-50.2199
-49.8991
-50.2841
-50.8653
-51.9151
-53.4291
-50.7577
-49.9994
-49.7156
-49.7755
-50.197
-50.8881
-51.1654
-51.2456
-51.2119
-50.8863
-51.381
-52.1601
-53.2161
-54.0143
-52.4353
-51.2993
-50.9381
-50.5247
-50.739
-51.697
-52.0541
-52.3822
-51.9465
-51.7556
-52.0679
-52.6284
-53.1187
-53.6942
-54.398
-53.971
-53.0073
-52.2129
-51.647
-51.6397
-51.8231
-52.4909
-52.9802
-53.392
-52.9113
-52.7523
-52.766
-53.1814
-53.4315
-53.7737
-53.8585
-57.731
-55.8616
-54.1067
-53.1457
-52.7656
-52.661
-52.9184
-53.202
-53.862
-53.88
-53.5328
-53.2509
-53.4146
-53.3186
-53.1947
-52.9412
-52.5751
-58.9331
-57.1543
-55.7484
-54.7017
-53.8193
-53.4284
-53.4068
-53.752
-54.1617
-54.6812
-54.441
-53.1858
-53.0831
-53.3309
-52.9167
-52.3901
-51.8575
-51.1145
-59.8411
-58.8138
-58.1469
-56.7544
-55.8439
-54.8847
-54.5133
-54.3854
-54.3226
-54.5955
-54.433
-53.6726
-53.3617
-53.2291
-52.6845
-52.0227
-51.3652
-50.6168
-50.0051
-44.5194
-44.5333
-44.5129
-44.6528
-44.6352
-44.6207
-44.6732
-44.6296
-44.6303
-44.5479
-44.7486
-44.7774
-44.7243
-44.6783
-44.7195
-44.8743
-44.804
-44.9253
-44.9227
-44.9264
-45.0632
-44.9889
-44.9139
-45.0095
-44.7631
-45.0492
-44.9045
-45.2545
-45.0367
-45.1219
-45.1945
-45.1733
-45.1835
-45.3352
-45.4691
-45.781
-45.4292
-45.2969
-45.3186
-45.4069
-45.4489
-45.6157
-45.8143
-45.9142
-45.6507
-45.5566
-45.6138
-45.7092
-45.9435
-45.9276
-46.0038
-46.0474
-46.4945
-46.0174
-46.1518
-46.0232
-46.3222
-46.3506
-46.3786
-46.3795
-46.3276
-46.7998
-47.0569
-46.4786
-46.2992
-46.582
-46.6994
-47.111
-47.0198
-46.8018
-46.6277
-47.0259
-47.4472
-48.5568
-47.0458
-46.778
-47.0974
-47.1742
-47.8294
-47.921
-47.7418
-47.0454
-47.3296
-47.945
-48.733
-47.5234
-47.2728
-47.5929
-47.9252
-48.5093
-48.8795
-48.6892
-48.0536
-47.9132
-48.2569
-49.495
-51.1803
-48.4408
-47.8324
-48.1245
-48.3652
-49.5166
-49.9039
-49.8797
-49.3078
-48.849
-49.1481
-50.0036
-51.3139
-52.813
-49.3257
-48.8231
-48.7208
-49.0344
-49.7577
-50.2104
-50.4621
-50.1753
-49.7977
-49.8281
-51.033
-51.4813
-52.8394
-53.794
-50.8199
-50.1723
-49.7398
-49.8532
-50.1102
-50.3215
-51.0137
-51.1066
-51.0987
-50.6889
-51.0956
-51.6976
-52.7925
-53.4872
-54.4106
-52.5521
-51.444
-50.9536
-50.5261
-50.5338
-50.8354
-51.6525
-51.9524
-51.772
-51.5795
-51.8415
-52.1773
-52.7099
-53.2687
-54.089
-54.3016
-54.2027
-53.0642
-52.2893
-51.5838
-51.5431
-51.752
-52.1834
-52.7004
-53.2764
-52.7881
-52.525
-52.518
-52.866
-53.0657
-53.4584
-53.5464
-53.3083
-57.9324
-55.9584
-54.1393
-53.1497
-52.7117
-52.585
-52.8239
-53.0166
-53.8476
-53.8308
-53.3761
-53.0623
-53.1961
-53.1253
-52.9759
-52.7382
-52.4298
-51.8831
-59.1313
-57.295
-55.8298
-54.7477
-53.7799
-53.3345
-53.3134
-53.6068
-54.0465
-54.6229
-54.4094
-53.1171
-52.899
-53.2204
-52.8007
-52.2976
-51.7718
-51.0618
-50.3521
-60.0277
-58.8684
-58.2353
-56.7912
-55.7902
-54.8546
-54.5195
-54.3058
-54.1768
-54.5113
-54.4076
-53.6536
-53.3116
-53.1798
-52.6506
-51.9872
-51.3332
-50.5991
-49.9939
-49.6129
-44.4718
-44.5332
-44.4742
-44.504
-44.496
-44.5151
-44.7121
-44.5623
-44.6498
-44.5155
-44.6717
-44.5922
-44.7019
-44.5517
-44.5162
-44.7955
-44.7652
-44.8219
-44.5883
-44.912
-44.768
-44.8992
-44.8848
-44.9051
-44.8712
-44.9853
-44.8276
-44.8705
-44.9744
-45.0287
-45.0121
-45.0435
-44.8949
-44.8802
-45.2732
-45.3842
-45.0132
-45.1423
-45.1582
-45.1831
-45.2777
-45.2279
-45.4605
-45.5456
-45.8492
-45.2837
-45.448
-45.3306
-45.4597
-45.5322
-45.5926
-45.7232
-45.8597
-46.0874
-45.5966
-45.6754
-45.6168
-45.8626
-45.831
-45.9092
-45.9217
-46.0392
-46.2088
-46.8287
-46.0159
-46.0315
-46.111
-46.2092
-46.2912
-46.3343
-46.2122
-46.2805
-46.5197
-47.1
-47.7541
-46.524
-46.3307
-46.4425
-46.68
-46.7814
-46.8446
-46.8018
-46.6251
-46.8153
-47.4069
-48.2019
-50.1945
-47.1019
-46.9442
-46.8991
-47.3665
-47.3744
-47.8007
-47.602
-47.0451
-46.9863
-47.7222
-48.6215
-50.3901
-47.5089
-47.3662
-47.388
-47.6191
-48.0892
-48.7242
-48.7394
-48.0236
-47.6718
-48.36
-49.2582
-50.6682
-52.1347
-48.2892
-48.0184
-48.0555
-47.9241
-49.0141
-49.7329
-49.7498
-49.294
-48.9229
-48.862
-49.7139
-50.7639
-52.2968
-53.5054
-49.2956
-49.0535
-48.8692
-48.8519
-49.4977
-49.9387
-50.467
-50.2342
-49.7826
-49.5743
-50.3098
-51.1316
-52.1747
-53.4215
-54.5954
-50.9232
-50.1413
-49.8264
-49.7407
-49.9691
-50.1861
-50.8462
-50.9083
-50.9286
-50.5825
-50.7568
-51.3529
-52.316
-53.0515
-54.0389
-54.7462
-52.7296
-51.5074
-50.9489
-50.5304
-50.4584
-50.9869
-51.5315
-51.7096
-51.6159
-51.2785
-51.6085
-51.9242
-52.3508
-52.9209
-53.7019
-53.8789
-53.9105
-54.3773
-53.1483
-52.3045
-51.5685
-51.4621
-51.6914
-52.0346
-52.4588
-53.0856
-52.6398
-52.3195
-52.2168
-52.5534
-52.7577
-53.1422
-53.2696
-53.0775
-52.4588
-58.1097
-56.0896
-54.2809
-53.1807
-52.6951
-52.5465
-52.687
-52.8458
-53.7407
-53.8061
-53.2355
-52.9213
-53.105
-52.9161
-52.7636
-52.5683
-52.2715
-51.7614
-51.1697
-59.2422
-57.4108
-55.9584
-54.7892
-53.7278
-53.2955
-53.2709
-53.4529
-53.9484
-54.526
-54.3612
-53.0959
-52.747
-53.1101
-52.6923
-52.2013
-51.6853
-51.011
-50.3158
-49.9916
-60.1728
-58.9713
-58.3754
-56.8134
-55.7678
-54.8465
-54.5156
-54.2333
-54.0416
-54.4143
-54.386
-53.64
-53.2625
-53.1264
-52.62
-51.953
-51.3023
-50.5856
-49.981
-49.615
-49.4049
-44.3784
-44.3345
-44.4153
-44.4855
-44.5284
-44.4216
-44.574
-44.518
-44.467
-44.4369
-44.5599
-44.6108
-44.5778
-44.6269
-44.4636
-44.7252
-44.7462
-44.6906
-44.5771
-44.6202
-44.5384
-44.8835
-44.8473
-44.7968
-44.905
-44.9318
-44.7751
-44.6948
-45.0183
-44.8744
-44.9624
-44.7743
-44.8708
-44.727
-44.9217
-44.9989
-45.1141
-45.065
-44.9919
-44.9717
-44.9745
-45.1136
-45.2534
-45.3775
-45.4991
-45.2536
-45.1625
-45.1319
-45.1954
-45.1922
-45.2353
-45.342
-45.3878
-45.698
-45.8847
-45.3498
-45.2458
-45.3558
-45.436
-45.5093
-45.5449
-45.6323
-45.6818
-45.8804
-46.2958
-45.6954
-45.5792
-45.628
-45.6828
-45.8144
-45.8222
-45.9347
-45.9954
-46.1703
-46.3429
-47.4529
-46.0723
-46.0451
-46.0473
-46.2298
-46.3139
-46.2354
-46.215
-46.2029
-46.3508
-46.9641
-47.5165
-49.3707
-46.5599
-46.4123
-46.4346
-46.8344
-46.8014
-46.8535
-46.8058
-46.5989
-46.5567
-47.1689
-47.7956
-49.5963
-51.6853
-47.1147
-47.0738
-46.957
-47.3796
-47.4098
-47.6928
-47.619
-47.0866
-46.8711
-47.6048
-48.3332
-49.6209
-51.8792
-47.4603
-47.3888
-47.5254
-47.5165
-47.8671
-48.4506
-48.6259
-48.2047
-47.4407
-47.929
-48.9065
-50.0436
-51.6773
-53.405
-48.338
-48.0903
-48.062
-48.0292
-48.5364
-49.2683
-49.6326
-49.5162
-48.7102
-48.8219
-49.1156
-50.3629
-51.738
-52.8664
-54.7433
-49.5328
-49.0661
-48.9479
-48.8044
-49.2486
-49.7109
-50.0693
-50.1387
-49.7931
-49.4136
-49.6535
-50.6723
-51.6925
-52.8837
-54.0881
-55.1388
-50.8429
-50.1811
-49.778
-49.56
-49.8296
-50.2895
-50.6899
-50.6517
-50.8227
-50.4846
-50.335
-51.0342
-51.9605
-52.6509
-53.6417
-54.3033
-54.6312
-52.9842
-51.6442
-51.0111
-50.4646
-50.3592
-50.8001
-51.5959
-51.7697
-51.4491
-51.0761
-51.3312
-51.6623
-52.0179
-52.5842
-53.2586
-53.5442
-53.6131
-53.5004
-54.6617
-53.2454
-52.2844
-51.5286
-51.31
-51.6094
-51.8597
-52.2142
-52.8187
-52.4725
-52.1962
-51.9712
-52.2
-52.4672
-52.844
-53.0514
-52.8541
-52.2655
-52.0143
-58.2057
-56.1301
-54.3868
-53.2389
-52.6647
-52.5181
-52.5893
-52.7025
-53.5131
-53.7346
-53.145
-52.7801
-52.8045
-52.6963
-52.5572
-52.3969
-52.1064
-51.6356
-51.1097
-50.4915
-59.4662
-57.5624
-56.1072
-54.8418
-53.7714
-53.284
-53.1755
-53.3204
-53.8343
-54.4032
-54.3248
-53.1175
-52.6288
-52.9861
-52.5849
-52.1041
-51.5925
-50.9719
-50.2785
-49.9931
-49.5828
-60.3032
-59.0477
-58.4599
-56.8003
-55.7256
-54.845
-54.4932
-54.1605
-53.9328
-54.3139
-54.3592
-53.6253
-53.2142
-53.0667
-52.5903
-51.9248
-51.2719
-50.5706
-49.9686
-49.6155
-49.4294
-49.6888
-44.1584
-44.3476
-44.3506
-44.3821
-44.2927
-44.304
-44.5635
-44.523
-44.463
-44.4155
-44.6349
-44.5078
-44.5279
-44.3884
-44.4117
-44.6599
-44.6299
-44.5536
-44.6968
-44.4228
-44.4402
-44.7372
-44.7368
-44.6832
-44.5945
-44.586
-44.5958
-44.5327
-44.9515
-44.7786
-44.8892
-44.695
-44.865
-44.6918
-44.6938
-44.8446
-45.0299
-44.8504
-44.9351
-44.8617
-44.8448
-44.7959
-44.9252
-44.9356
-45.3946
-45.0626
-44.9254
-45.0207
-44.9672
-44.9836
-45.0072
-45.103
-45.0931
-45.3626
-45.7814
-45.1687
-45.1177
-45.1645
-45.1587
-45.2092
-45.2553
-45.2821
-45.2977
-45.6528
-45.7915
-46.6322
-45.4536
-45.3695
-45.3805
-45.3357
-45.4997
-45.5802
-45.629
-45.517
-45.8659
-46.0481
-47.0718
-45.7644
-45.7585
-45.6429
-45.6358
-45.7913
-45.8574
-45.9227
-45.9432
-46.0685
-46.609
-47.2021
-48.6895
-46.1023
-46.0836
-46.048
-46.2213
-46.2346
-46.4677
-46.1774
-46.2189
-46.2063
-46.3868
-47.2378
-48.7433
-50.4109
-46.5013
-46.5884
-46.512
-46.6222
-46.7631
-46.9158
-46.8421
-46.6526
-46.4847
-46.9668
-47.2959
-49.2844
-50.5778
-53.4065
-47.0702
-47.0101
-46.9544
-47.2452
-47.2825
-47.6336
-47.4845
-47.2413
-46.75
-47.0233
-47.6217
-49.4372
-51.1146
-52.9578
-47.6319
-47.4518
-47.3726
-47.688
-47.6241
-48.2496
-48.3857
-48.2146
-47.4505
-47.4524
-48.3418
-49.8187
-51.1788
-52.8125
-54.664
-48.4508
-48.1554
-48.1391
-48.0526
-48.341
-48.9751
-49.3492
-49.3959
-48.6999
-48.5006
-49.0669
-49.7858
-51.1977
-52.3965
-54.1924
-55.6788
-49.6632
-49.1343
-48.944
-48.7729
-49.066
-49.5209
-49.9578
-50.0933
-49.7488
-49.5567
-49.4675
-50.2684
-51.198
-52.4533
-53.6409
-54.5497
-55.4785
-51.0591
-50.3693
-49.7926
-49.615
-49.7131
-50.0964
-50.5755
-50.7565
-50.6047
-50.4612
-50.2042
-50.6966
-51.6602
-52.2828
-53.2536
-53.8912
-54.2313
-54.4225
-53.1591
-51.77
-51.0319
-50.5083
-50.3733
-50.754
-51.2455
-51.5117
-51.2265
-51.1444
-51.1689
-51.3481
-51.6976
-52.2254
-52.8866
-53.2585
-53.28
-53.1823
-52.8348
-54.9046
-53.2888
-52.3952
-51.5944
-51.2888
-51.5536
-51.7933
-51.9912
-52.4454
-52.5394
-52.0515
-51.7892
-51.9368
-52.1772
-52.5477
-52.7827
-52.6
-52.0522
-51.8694
-51.1704
-58.4105
-56.3409
-54.4237
-53.2918
-52.6681
-52.5023
-52.5472
-52.5563
-53.2268
-53.6404
-53.0526
-52.5975
-52.5184
-52.4871
-52.3639
-52.2467
-51.9212
-51.4765
-51.0436
-50.4731
-49.8243
-59.7433
-57.781
-56.2255
-54.9298
-53.8884
-53.3054
-53.0662
-53.2007
-53.7212
-54.2986
-54.3377
-53.1133
-52.5448
-52.8784
-52.4745
-52.0033
-51.5075
-50.908
-50.257
-49.9944
-49.6122
-49.3563
-60.4494
-59.2026
-58.4621
-56.8464
-55.6871
-54.8423
-54.4908
-54.0995
-53.8415
-54.2255
-54.3183
-53.6099
-53.164
-53.0052
-52.5568
-51.9038
-51.2439
-50.5529
-49.9569
-49.6124
-49.4506
-49.7173
-49.8994
-44.1682
-44.0846
-44.3253
-44.3211
-44.2341
-44.4736
-44.3813
-44.3826
-44.2648
-44.5859
-44.5327
-44.4895
-44.4089
-44.2711
-44.6539
-44.6241
-44.513
-44.436
-44.3582
-44.358
-44.6675
-44.6808
-44.5595
-44.6015
-44.4522
-44.4038
-44.456
-44.7494
-44.702
-44.658
-44.5882
-44.5948
-44.5891
-44.5775
-44.6638
-44.938
-44.795
-44.9703
-44.7831
-44.6789
-44.6631
-44.6022
-44.8427
-45.1127
-44.8656
-45.0269
-44.9149
-44.9555
-44.8808
-44.9149
-44.8745
-44.9382
-45.2742
-45.583
-44.9667
-45.093
-44.9749
-45.0109
-44.9856
-45.0763
-45.0089
-45.154
-45.3267
-45.4187
-46.1461
-45.0882
-45.2063
-45.178
-45.2024
-45.2134
-45.3186
-45.242
-45.1861
-45.4788
-45.6954
-47.0042
-47.9988
-45.5406
-45.4501
-45.4136
-45.3966
-45.3838
-45.61
-45.4763
-45.6122
-45.793
-46.1245
-46.8557
-48.0688
-45.7728
-45.8101
-45.6408
-45.7618
-45.7355
-45.8699
-45.8522
-45.8336
-45.9641
-46.1674
-46.8045
-48.2206
-49.6957
-46.1308
-46.1674
-46.0643
-46.0499
-46.2818
-46.2874
-46.3635
-46.1635
-46.1622
-47.2528
-46.9569
-48.1295
-50.2933
-52.4028
-46.6759
-46.5204
-46.453
-46.5257
-46.7201
-46.7474
-46.9282
-46.5704
-46.5098
-46.9218
-47.0383
-48.3287
-50.4592
-52.4017
-55.0132
-47.1204
-46.9717
-46.9369
-47.1486
-47.44
-47.432
-47.431
-47.0446
-46.7554
-47.3688
-47.7509
-49.0731
-50.5067
-52.3265
-54.1331
-47.7316
-47.5453
-47.3842
-47.7737
-47.8706
-48.1422
-48.2664
-48.3462
-47.8949
-47.859
-48.3551
-49.31
-50.8108
-52.2659
-54.0299
-55.8797
-48.5125
-48.12
-48.0677
-48.1822
-48.1636
-48.7604
-49.1126
-49.2484
-48.7682
-48.6092
-48.7797
-49.8249
-50.7252
-51.9684
-53.587
-54.9464
-56.3515
-49.6223
-49.3223
-48.8848
-48.8026
-49.0302
-49.3153
-49.7186
-49.9041
-49.829
-49.4953
-49.4615
-50.0292
-50.842
-51.988
-53.1252
-53.9653
-54.8435
-55.3835
-51.4121
-50.3468
-49.8155
-49.6055
-49.5803
-49.971
-50.1964
-50.3573
-50.3767
-50.3096
-50.0844
-50.3724
-51.0726
-51.9118
-52.8733
-53.4693
-53.8411
-54.059
-54.1836
-53.3446
-51.9142
-50.9994
-50.7073
-50.4826
-50.6694
-51.0737
-51.1094
-50.8387
-50.9506
-50.9757
-51.1612
-51.362
-51.9104
-52.5393
-52.9445
-52.9518
-52.8337
-52.5979
-52.0154
-55.2139
-53.491
-52.5531
-51.7368
-51.3515
-51.4547
-51.8053
-51.8424
-52.2378
-52.4096
-51.9371
-51.6031
-51.7542
-51.9822
-52.2762
-52.4957
-52.3403
-51.8108
-51.7385
-51.0907
-50.1321
-58.615
-56.6634
-54.5853
-53.3794
-52.6871
-52.5035
-52.5505
-52.3895
-52.9535
-53.5578
-52.9616
-52.4604
-52.3678
-52.3171
-52.1719
-52.1345
-51.7204
-51.3316
-50.9599
-50.4519
-49.8498
-49.4292
-59.9519
-57.9258
-56.3332
-55.0139
-53.9655
-53.3327
-53.0636
-53.1053
-53.6114
-54.1914
-54.2782
-53.103
-52.4768
-52.7742
-52.362
-51.9007
-51.4325
-50.8228
-50.2447
-49.9835
-49.6453
-49.4376
-49.389
-60.5365
-59.4098
-58.4879
-56.9454
-55.663
-54.85
-54.4851
-54.0583
-53.7558
-54.1458
-54.2771
-53.594
-53.1104
-52.9466
-52.5181
-51.8836
-51.2182
-50.5358
-49.9437
-49.6135
-49.4749
-49.7333
-49.9448
-51.3872
-44.1684
-44.1884
-43.9932
-44.3649
-44.306
-44.2494
-44.1231
-44.4719
-44.4551
-44.3323
-44.3049
-44.0999
-44.6051
-44.5285
-44.4742
-44.4246
-44.2872
-44.2918
-44.7018
-44.6953
-44.5881
-44.4894
-44.4395
-44.3952
-44.3466
-44.8028
-44.6894
-44.6661
-44.5308
-44.5112
-44.3748
-44.4513
-44.4469
-44.7442
-44.7502
-44.7695
-44.5759
-44.5583
-44.5887
-44.5439
-44.6824
-44.8523
-44.8228
-45.0473
-44.8754
-44.851
-44.7619
-44.7918
-44.6915
-44.9404
-45.0035
-45.2547
-44.9731
-45.012
-44.9671
-44.9106
-44.8505
-44.8957
-44.879
-44.9937
-45.2484
-45.3406
-45.9574
-45.0462
-45.0005
-44.984
-45.1224
-45.021
-45.0269
-45.163
-45.0674
-45.0907
-45.5105
-46.3982
-47.2648
-45.2496
-45.1471
-45.2082
-45.2186
-45.1666
-45.3331
-45.261
-45.3186
-45.4249
-45.9422
-46.4258
-47.7392
-48.7959
-45.5573
-45.5569
-45.3315
-45.4975
-45.3625
-45.2945
-45.4871
-45.5519
-45.7083
-46.1126
-46.5609
-47.6112
-49.0425
-45.8839
-45.8093
-45.677
-45.6013
-45.7372
-45.7751
-45.8415
-45.7842
-45.9031
-46.3554
-46.3856
-47.5949
-49.7271
-51.2095
-46.2228
-46.1534
-46.1194
-46.0794
-46.2335
-46.2028
-46.3981
-46.2943
-46.1701
-46.728
-46.6872
-48.3637
-49.9006
-51.4204
-53.849
-46.6419
-46.6067
-46.6054
-46.5992
-47.1482
-46.5382
-46.7722
-46.5932
-46.3326
-46.8819
-47.299
-48.4199
-49.9862
-51.4721
-53.8582
-57.1511
-47.2266
-47.0249
-47.0082
-47.1013
-47.3972
-47.3498
-47.4545
-47.29
-46.9207
-47.2154
-47.692
-48.5819
-50.0388
-51.8479
-53.3971
-55.8871
-47.8208
-47.5909
-47.4339
-47.7174
-47.9355
-47.9657
-47.9479
-48.2747
-47.8925
-47.5926
-48.0538
-48.8462
-50.4689
-51.7467
-53.3779
-55.0917
-56.7499
-48.709
-48.2794
-47.9227
-48.1664
-48.18
-48.5138
-48.8794
-49.1183
-48.8797
-48.6342
-48.2852
-49.4078
-50.411
-51.5141
-52.9617
-54.2604
-55.6771
-56.7015
-49.8378
-49.3564
-48.8644
-48.7937
-48.925
-49.215
-49.4592
-49.6002
-49.8124
-49.4183
-49.1629
-49.5604
-50.5521
-51.5312
-52.6702
-53.4128
-54.1958
-54.8896
-55.161
-51.5248
-50.4431
-49.7787
-49.6201
-49.4827
-49.847
-50.0367
-50.1486
-50.1689
-49.9094
-49.8489
-50.1553
-50.7457
-51.5879
-52.5405
-53.0982
-53.4431
-53.6258
-53.8707
-52.6916
-53.5554
-52.0865
-51.0771
-50.5353
-50.2783
-50.5904
-50.8271
-50.9961
-50.6284
-50.6106
-50.7134
-50.9211
-51.1278
-51.5969
-52.2228
-52.6796
-52.6976
-52.4967
-52.3762
-51.9112
-50.9385
-55.5048
-53.7312
-52.5916
-51.8229
-51.2785
-51.4106
-51.6872
-51.6804
-52.0918
-52.3192
-51.8375
-51.4327
-51.5295
-51.7562
-52.0427
-52.2535
-52.0746
-51.5654
-51.6018
-50.9811
-50.1388
-49.5551
-58.7613
-56.7773
-54.7374
-53.4694
-52.7079
-52.5394
-52.5803
-52.2933
-52.7196
-53.4464
-52.8743
-52.3648
-52.205
-52.1639
-51.9975
-51.9726
-51.5326
-51.2086
-50.8654
-50.4561
-49.8914
-49.4648
-48.8945
-60.1503
-58.0725
-56.4877
-55.0874
-53.9975
-53.3608
-52.9909
-53.0203
-53.5046
-54.0476
-54.1957
-53.0774
-52.4287
-52.6747
-52.246
-51.8026
-51.354
-50.7444
-50.2283
-49.9657
-49.6838
-49.5337
-49.4928
-50.1926
-59.5765
-58.5206
-57.0294
-55.6152
-54.8687
-54.4661
-54.0086
-53.6757
-54.0639
-54.2274
-53.5766
-53.0505
-52.8979
-52.4743
-51.858
-51.1912
-50.5143
-49.9278
-49.6119
-49.5083
-49.7456
-49.9844
-51.4069
-51.3103
-44.2219
-44.1207
-44.0462
-43.9159
-44.4145
-44.405
-44.2822
-44.2059
-43.9409
-44.584
-44.4679
-44.3755
-44.3065
-44.1547
-44.0912
-44.6539
-44.6007
-44.5284
-44.438
-44.3534
-44.3185
-44.2172
-44.7807
-44.7395
-44.6182
-44.548
-44.4345
-44.3541
-44.3294
-44.2068
-44.8136
-44.7649
-44.6982
-44.5949
-44.6265
-44.4475
-44.5902
-44.457
-44.6544
-44.7338
-44.7361
-44.7785
-44.6554
-44.567
-44.5632
-44.5077
-44.8788
-44.8269
-44.9043
-44.9244
-44.754
-44.8349
-44.847
-44.7543
-44.6457
-44.8883
-44.7757
-45.0552
-45.1922
-45.6543
-45.0651
-44.9575
-44.9508
-44.917
-44.869
-44.8463
-44.9029
-44.904
-45.1545
-45.4649
-45.8379
-46.7123
-45.0594
-45.0925
-45.0491
-45.0645
-45.0066
-45.073
-45.0772
-45.1228
-45.1793
-45.5624
-46.0859
-47.2478
-48.2004
-45.2739
-45.308
-45.1689
-45.2249
-45.2162
-45.1879
-45.3134
-45.3582
-45.4561
-45.8103
-46.3759
-47.1658
-48.7371
-49.6352
-45.6309
-45.5183
-45.278
-45.4166
-45.4478
-45.4079
-45.4211
-45.5765
-45.6906
-45.9583
-46.2427
-47.4594
-48.9841
-50.0925
-45.9319
-45.8297
-45.8134
-45.6894
-45.7143
-45.6571
-45.8007
-45.8561
-45.8744
-45.8854
-46.3882
-47.7475
-49.0993
-50.5611
-52.5835
-46.2
-46.2181
-46.115
-46.1115
-46.2147
-46.2794
-46.1602
-46.2973
-46.2086
-46.3246
-46.5861
-47.5079
-49.161
-51.0781
-52.6728
-56.3375
-46.7029
-46.5853
-46.4933
-46.4636
-46.5245
-46.6567
-46.6079
-46.5714
-46.3776
-46.8781