/*--------------------------------*- C++ -*----------------------------------*\
  =========                 |
  \\      /  F ield         | OpenFOAM: The Open Source CFD Toolbox
   \\    /   O peration     | Website:  https://openfoam.org
    \\  /    A nd           | Version:  7
     \\/     M anipulation  |
\*---------------------------------------------------------------------------*/
FoamFile
{
    version     2.0;
    format      ascii;
    class       surfaceScalarField;
    location    "4.5";
    object      phi;
}
// * * * * * * * * * * * * * * * * * * * * * * * * * * * * * * * * * * * * * //

dimensions      [0 3 -1 0 0 0 0];

internalField   nonuniform List<scalar> 
54184
(
0.000154464
-0.00399833
-2.72436e-05
0.000300267
-0.00466501
2.64479e-05
0.000146168
-0.00417084
-2.98787e-05
0.000203786
-0.00375065
-2.1433e-05
0.000483497
-0.00444732
-4.10025e-05
0.00026487
-0.00478743
-3.35253e-05
0.000452665
-0.00423737
-6.6405e-05
0.000124041
-0.00432114
-2.93196e-05
0.000205946
-0.00396375
-2.27205e-05
0.000199129
-0.0039685
-2.12781e-05
0.000726728
-0.00480886
-4.58984e-05
0.00044002
-0.00462227
-3.15764e-05
0.000726659
-0.00391763
-9.10208e-05
0.000207913
-0.00488379
1.57425e-05
0.000460411
-0.00447872
-4.66422e-05
0.000433885
-0.00405356
-0.000144385
0.00010501
-0.00444856
-2.88223e-05
0.000185814
-0.00415828
-2.05991e-05
0.000209562
-0.00417833
-2.24542e-05
0.000154561
-0.00339002
-2.31933e-05
0.00101675
-0.00602222
0.000298322
0.000702578
-0.00502825
-4.00327e-05
0.000910702
-0.0044258
-5.36409e-05
0.000368195
-0.00474388
-3.71674e-05
0.000784289
-0.00426269
-1.03919e-05
0.000682206
-0.00376201
-0.000290078
0.000150762
-0.00496289
6.83331e-06
0.000416022
-0.00466811
-2.5074e-05
0.000497143
-0.00426557
-0.000122216
0.000276867
-0.00358918
-0.000190638
8.42661e-05
-0.00455128
-2.91928e-05
0.000163538
-0.00433109
-1.95534e-05
0.000191176
-0.00436949
-2.06157e-05
0.000163071
-0.00355675
-1.87915e-05
0.000224714
-0.00249543
-6.46652e-06
0.00140668
-0.00593949
0.000162361
0.00107313
-0.00630855
0.000145493
0.000985642
-0.00526525
0.000236914
0.000591249
-0.00515857
-7.90243e-05
0.000964175
-0.0046422
-3.52319e-06
0.000887064
-0.00418141
-0.000233832
0.000284415
-0.0048718
-1.49041e-05
0.000710486
-0.00453562
-5.87e-05
0.000791052
-0.00385182
-0.000214496
0.000527106
-0.00361804
-0.00042796
9.4277e-05
-0.00501654
6.55442e-05
0.000373356
-0.00487828
7.1868e-06
0.00044593
-0.00445454
-9.0857e-05
0.000279065
-0.00364217
-0.000185218
0.000371252
-0.00283097
-0.000157196
6.37111e-05
-0.00463226
-2.85673e-05
0.000141362
-0.00448213
-1.95168e-05
0.000173545
-0.00454422
-1.83698e-05
0.000164008
-0.00372705
-1.4323e-05
0.000246195
-0.00276313
2.71156e-06
0.000251228
-0.00174608
-1.72091e-05
0.00160092
-0.00617583
0.000822356
0.00123426
-0.00581715
0.000489887
0.00134973
-0.00524579
-5.23404e-06
0.000946997
-0.00662148
0.000376274
0.00107287
-0.00543062
0.000202162
0.00107218
-0.00481958
-9.14121e-05
0.000449337
-0.00528725
2.12782e-05
0.000938777
-0.00490352
-4.59884e-05
0.00102158
-0.0042606
-0.000154866
0.000685312
-0.00441928
-0.00052738
0.000190752
-0.00496511
3.87392e-07
0.000618579
-0.00481184
1.60911e-05
0.000719609
-0.00400978
-0.000174417
0.000567537
-0.00369221
-0.000428798
0.000586323
-0.00287393
-0.000423884
2.60684e-05
-0.00502823
5.45144e-05
0.000311156
-0.0050276
4.50661e-05
0.000442572
-0.00467466
-4.17174e-05
0.000289696
-0.00370589
-0.000152833
0.000400703
-0.00304463
-0.000126068
0.000475711
-0.00224464
-0.00019998
4.75236e-05
-0.00469487
-2.72389e-05
0.000117509
-0.00461035
-1.78514e-05
0.000157348
-0.00470368
-1.74056e-05
0.000160309
-0.00389301
-1.2719e-05
0.000246268
-0.00303189
8.16849e-06
0.000287256
-0.00201876
-1.187e-05
0.000207525
-0.000814051
-4.66071e-05
0.00171404
-0.00670053
0.00111867
0.00150523
-0.00606908
0.000807597
0.00187708
-0.006298
0.000221224
0.00128972
-0.00606499
0.000648954
0.00148166
-0.00536558
0.000200895
0.0011568
-0.00486588
-0.000158309
0.000675626
-0.00665339
0.000353003
0.00122635
-0.00569061
0.000348688
0.00122498
-0.00478867
-3.21523e-05
0.000891655
-0.00501761
-0.000350746
0.000395057
-0.00548578
9.40272e-05
0.000821035
-0.00512241
3.77122e-05
0.00091817
-0.00441838
-8.67605e-05
0.000925268
-0.00443327
-0.00049861
0.000819351
-0.00383077
-0.000561999
0.000116824
-0.00506567
3.75131e-05
0.00047817
-0.00501035
3.18764e-05
0.000765189
-0.00424567
-7.06314e-05
0.000579073
-0.00383676
-0.000319245
0.000664273
-0.00315193
-0.000414372
0.000599989
-0.00224319
-0.000408843
-3.03787e-05
-0.00498104
3.95404e-05
0.000250095
-0.00513616
3.04875e-05
0.000413938
-0.00487526
-1.09232e-05
0.000314996
-0.00378059
-0.000121703
0.000417929
-0.00325159
-0.000117528
0.000548097
-0.00245279
-0.000178756
0.000377142
-0.00109895
-0.00024996
2.40418e-05
-0.0047317
-2.67507e-05
9.78161e-05
-0.00471913
-1.62747e-05
0.000144111
-0.00485024
-1.53989e-05
0.000152992
-0.00405196
-1.14488e-05
0.000244492
-0.00329809
8.99569e-06
0.000273368
-0.00227704
-6.92274e-06
0.000229352
-0.00100537
-4.9905e-05
0.000157198
-0.000138541
-4.71861e-05
0.00168701
-0.00669338
0.00166662
0.00162262
-0.00662758
0.00155027
0.00195225
-0.00674082
0.000767076
0.00135968
-0.00577264
0.000962674
0.00196725
-0.00637279
0.000396793
0.00141134
-0.00470667
8.55218e-05
0.00125468
-0.00646005
0.000647023
0.00171072
-0.005537
0.000336005
0.0013591
-0.00462749
-0.000171612
0.000843921
-0.00516301
-0.00012322
0.000566052
-0.006598
0.000357446
0.00119744
-0.00599231
0.000278299
0.0011754
-0.00472044
2.32331e-05
0.00108775
-0.00480271
-0.000409525
0.000843522
-0.00499701
-0.000416344
0.000380233
-0.00576946
0.000117581
0.000732551
-0.00536162
7.88534e-05
0.00100355
-0.00457922
-3.9822e-05
0.000848788
-0.00441504
-0.000374701
0.000929538
-0.00398706
-0.000607576
0.000679574
-0.00291406
-0.000511618
8.14049e-05
-0.00521293
5.76311e-05
0.00039682
-0.00517328
5.37236e-05
0.000746198
-0.00451165
-3.4412e-05
0.000463164
-0.00383296
-0.000222597
0.000690711
-0.00339915
-0.000344803
0.00069012
-0.0023949
-0.000404686
0.000507468
-0.00190995
-0.000423349
-6.62256e-05
-0.00491347
3.63752e-05
0.000190298
-0.00521372
2.46207e-05
0.000376451
-0.00507781
6.92103e-07
0.00030302
-0.00384851
-9.30325e-05
0.00042762
-0.00344258
-0.000113844
0.000504378
-0.00264352
-0.000157817
0.000440844
-0.00121603
-0.000273166
0.000276509
-0.000548746
-0.000238517
-3.50818e-06
-0.00473861
-2.69684e-05
7.88265e-05
-0.00481015
-1.45646e-05
0.000128191
-0.00498078
-1.39227e-05
0.000140391
-0.00419719
-1.05644e-05
0.000237104
-0.00355405
7.40827e-06
0.000259545
-0.00252212
-5.46193e-06
0.000235716
-0.00119959
-4.84153e-05
0.000166289
-0.00029996
-5.47747e-05
0.000160415
0.000833222
-5.38337e-05
0.00118507
-0.00657709
0.0025328
0.00158537
-0.00657549
0.00207431
0.00179255
-0.00668483
0.00210952
0.00189804
-0.00660773
0.00160148
0.00129628
-0.00641678
0.00150874
0.00222175
-0.00662797
0.00118292
0.00183369
-0.00650039
0.000693093
0.00136788
-0.00592449
0.000944243
0.00193166
-0.00605627
0.000425221
0.00173954
-0.00492216
0.000231844
0.000729387
-0.00405541
-2.03577e-05
0.00112207
-0.00673792
0.000511624
0.00173946
-0.00584132
0.00040932
0.00152842
-0.00464336
-1.1532e-06
0.0007595
-0.00475157
-0.000254811
0.000650064
-0.00532581
2.33459e-05
0.000565522
-0.00677534
0.000597137
0.00118784
-0.00632563
0.000235478
0.00122502
-0.00480555
0.000141951
0.00107007
-0.00467677
-0.000323986
0.000923158
-0.00493106
-0.000469096
0.000802518
-0.00430246
-0.000454627
0.000415978
-0.00610223
5.39447e-05
0.00055389
-0.00550501
0.000103899
0.000973962
-0.00471364
-1.44827e-05
0.000676246
-0.00441013
-0.000257815
0.000976274
-0.0040759
-0.000571425
0.000809229
-0.0030393
-0.000601444
0.000550299
-0.00313302
-0.000538613
3.42803e-05
-0.00535217
5.94675e-05
0.000334537
-0.00534955
8.96597e-05
0.000688768
-0.00476347
-6.76485e-06
0.000464561
-0.00387199
-0.000156923
0.000699892
-0.00361454
-0.000279482
0.0006821
-0.00256378
-0.000353646
0.000585039
-0.00202711
-0.000431724
0.000488525
-0.00183722
-0.000440241
-8.53224e-05
-0.00487047
5.07413e-05
0.000145963
-0.00527016
2.56825e-05
0.000330876
-0.00528949
3.36186e-05
0.000301286
-0.00393868
-7.00283e-05
0.000407705
-0.00360031
-0.000105903
0.000487682
-0.00285197
-0.000133524
0.000493998
-0.00139139
-0.000240742
0.000340101
-0.000730819
-0.000264905
0.000313924
7.59562e-05
-0.00020963
-3.67404e-05
-0.00471072
-2.62901e-05
5.95354e-05
-0.00488188
-1.47666e-05
0.000106013
-0.00508946
-1.19051e-05
0.000131932
-0.00433391
-9.13469e-06
0.00022303
-0.00379309
5.4407e-06
0.000251571
-0.00276074
-5.54858e-06
0.000238651
-0.00139657
-4.71331e-05
0.000164317
-0.000455521
-5.71708e-05
0.000171426
0.000667856
-6.08342e-05
0.000148653
0.00129002
-7.4897e-05
0.00104854
-0.00636803
0.00282569
0.00140712
-0.00649155
0.00236376
0.0011569
-0.00673111
0.00259573
0.00181713
-0.00646389
0.0022116
0.00168199
-0.00649733
0.00221971
0.00122206
-0.00645004
0.00187006
0.00226667
-0.00643887
0.00189575
0.0018263
-0.00682832
0.00167732
0.00134341
-0.00657875
0.00152301
0.0022929
-0.00650493
0.00102446
0.00196463
-0.00658064
0.00103808
0.000910044
-0.00511327
0.000755861
0.00141664
-0.00629398
0.00123312
0.00188203
-0.00585977
0.000605174
0.00203931
-0.00522377
0.000215943
0.000801233
-0.00407642
0.000211118
0.000367314
-0.00463381
0.000147987
0.000743049
-0.00665184
0.000636668
0.00161539
-0.00607816
0.000320908
0.00152289
-0.00468983
0.000157912
0.00118004
-0.00459652
-0.000266177
0.00056722
-0.00516378
-6.09079e-05
0.000536751
-0.00533266
8.90597e-05
0.000488991
-0.00691842
0.000611852
0.000940073
-0.00658423
0.000469554
0.00119949
-0.00509144
0.000295836
0.000942674
-0.00453907
-0.00026218
0.00104162
-0.00483801
-0.000482383
0.00102547
-0.00450318
-0.000484615
0.000617521
-0.00413718
-0.000488735
0.000282929
-0.00642121
0.000212074
0.00051048
-0.0057151
8.80972e-05
0.000901185
-0.00484041
1.82499e-05
0.00078289
-0.00450296
-0.000239983
0.000947176
-0.0040414
-0.000539606
0.000835458
-0.00313746
-0.000626622
0.000515618
-0.00305827
-0.000606766
0.000443074
-0.00336203
-0.000507593
4.42647e-05
-0.00554305
8.51229e-05
0.000187871
-0.00544331
0.000111324
0.000599978
-0.00499234
4.94283e-05
0.000448254
-0.00391638
-0.000109336
0.000659889
-0.00378606
-0.000237588
0.000690131
-0.00274061
-0.000305101
0.000629593
-0.00213859
-0.000377754
0.000551556
-0.00202749
-0.000452904
0.00054188
-0.00112588
-0.000456301
-0.000135211
-0.004826
7.34451e-05
0.000101084
-0.00529904
3.80691e-05
0.000261797
-0.00549597
7.63861e-05
0.000339118
-0.00411092
-1.33182e-06
0.000375529
-0.00371885
-0.000103992
0.000482384
-0.00307707
-0.000111622
0.000530397
-0.00161652
-0.000200139
0.000370248
-0.000935202
-0.00024229
0.000329983
-0.000133911
-0.000213594
0.000390867
-0.00040486
-0.000193108
-5.2399e-05
-0.00466556
-2.68842e-05
3.65463e-05
-0.00493024
-1.44766e-05
8.61556e-05
-0.00517848
-1.1895e-05
0.000122912
-0.00446098
-7.74206e-06
0.000215318
-0.00402115
3.60903e-06
0.00024014
-0.0029878
-7.63266e-06
0.000238407
-0.00159608
-4.4445e-05
0.000165606
-0.000609606
-5.86548e-05
0.000172612
0.000500827
-6.27531e-05
0.000166749
0.00114602
-8.35897e-05
0.000112928
0.000916553
-8.0858e-05
0.000951684
-0.00605562
0.00295328
0.00099809
-0.00604221
0.0026781
0.00120349
-0.00641888
0.00281777
0.00143044
-0.00618031
0.0026154
0.00130508
-0.00660656
0.00261613
0.00126972
-0.00679118
0.00262558
0.00115134
-0.00628927
0.00220137
0.00211246
-0.00656463
0.00243311
0.00145407
-0.0067656
0.00232136
0.00134123
-0.00631059
0.00196531
0.00223362
-0.00626544
0.00175591
0.00176748
-0.00667767
0.00194225
0.000914315
-0.00666173
0.00188332
0.00126156
-0.00642653
0.00154144
0.00207566
-0.00628698
0.00111143
0.00213572
-0.00630408
0.000651487
0.0010888
-0.00547586
0.0011131
0.000262768
-0.00421266
0.000598992
0.000984443
-0.00670426
0.00108309
0.00168899
-0.00558854
0.000888299
0.00213023
-0.00555534
0.000329407
0.00129651
-0.00415022
0.000173276
0.000230124
-0.00441119
0.000325591
0.00026905
-0.0052913
0.000239667
0.000677443
-0.0068395
0.000866529
0.00142835
-0.00636287
0.000433097
0.0015138
-0.00500716
0.000323925
0.00115977
-0.00441863
-0.00023707
0.000837853
-0.00494098
-0.000285213
0.000842383
-0.00524889
3.84129e-05
0.000303558
-0.00517134
-3.82276e-05
0.000435423
-0.0070686
0.000573098
0.000692485
-0.00676989
0.000615507
0.00121503
-0.00520167
0.000265933
0.00122769
-0.0046085
-7.9538e-05
0.00113915
-0.00478596
-0.000506198
0.000925993
-0.00453751
-0.000538592
0.00050909
-0.00410074
-0.000514527
0.000395492
-0.00432087
-0.000405379
0.000226308
-0.00670684
0.000238869
0.0005176
-0.00605318
0.000220421
0.000770949
-0.00497841
5.51259e-05
0.000576282
-0.00446187
-0.000150868
0.00095875
-0.00407648
-0.000503758
0.000785275
-0.00310687
-0.00066534
0.000690204
-0.00312598
-0.000619527
0.000444098
-0.0033112
-0.000550144
0.000501229
-0.00417479
-0.000447057
3.44776e-05
-0.00578347
5.19626e-05
0.000100454
-0.00549907
0.000141509
0.000468
-0.00516535
7.8129e-05
0.00051588
-0.00401179
-3.19317e-05
0.000542602
-0.003868
-0.000194465
0.000737598
-0.00298322
-0.000250195
0.000652717
-0.00223229
-0.000333724
0.000522363
-0.00215172
-0.000405641
0.000566947
-0.00135042
-0.000465332
0.000606489
-0.00148589
-0.000386936
-0.000152854
-0.00475343
5.05117e-05
6.28094e-05
-0.00532088
6.90215e-05
0.000204262
-0.00566253
8.65171e-05
0.00035825
-0.0043262
5.63304e-05
0.000377203
-0.00381577
-6.62934e-05
0.000475334
-0.00330551
-0.000110742
0.000554362
-0.00186416
-0.000179941
0.000394121
-0.00115299
-0.00021087
0.000354562
-0.00036611
-0.000192043
0.000449547
-0.000703872
-0.00019738
0.000399632
-0.00164479
-0.000191139
-5.20239e-05
-0.0046192
-2.73469e-05
1.72507e-05
-0.00496077
-1.36112e-05
6.26058e-05
-0.00524277
-1.27965e-05
0.0001065
-0.0045722
-7.18277e-06
0.000197634
-0.00422938
2.85514e-06
0.0002285
-0.00320226
-1.0436e-05
0.000230548
-0.00179079
-4.34717e-05
0.000169355
-0.000764795
-5.86101e-05
0.000174165
0.000332168
-6.41618e-05
0.000159562
0.00100842
-8.47122e-05
0.000122311
0.000801282
-9.06291e-05
0.000135003
0.000435045
-6.88842e-05
0.000937926
-0.00523155
0.00360753
0.00101298
-0.00542616
0.00326012
0.000827361
-0.00587775
0.0028998
0.00101545
-0.0059446
0.00300021
0.00154902
-0.0061603
0.00293526
0.00116675
-0.00634497
0.00274251
0.00131733
-0.00634169
0.0027627
0.00122697
-0.00627311
0.00259217
0.00168804
-0.00638945
0.00282272
0.00139258
-0.0067039
0.00259034
0.00108639
-0.0068043
0.00258611
0.00126706
-0.00612526
0.00222062
0.00164653
-0.00620006
0.00242389
0.00138389
-0.00645602
0.00250712
0.000903356
-0.0068019
0.00227828
0.00111983
-0.00609529
0.00203645
0.00213197
-0.00617359
0.00181716
0.00210123
-0.00659528
0.00170801
0.00121783
-0.00643817
0.00158965
0.000658585
-0.00578867
0.00166917
0.00116202
-0.0068014
0.00154945
0.00185661
-0.00610668
0.00119352
0.00242679
-0.00616441
0.000675203
0.0017129
-0.00594049
0.000699731
0.000848889
-0.00460508
0.000886754
0.000370704
-0.00496313
0.000366441
0.00104887
-0.00696789
0.000958688
0.00145039
-0.00561604
0.00108854
0.00197513
-0.00549835
0.00036998
0.00158505
-0.00443612
0.000190036
0.000686058
-0.00427382
0.000187705
0.000405413
-0.0049503
0.000421557
2.26679e-05
-0.0057088
3.19216e-05
0.000754831
-0.00712117
0.000855209
0.00119942
-0.00668424
0.000680965
0.0016385
-0.0053097
0.000312168
0.00152622
-0.00436214
-3.10957e-05
0.000994238
-0.00480489
-0.000228249
0.000666543
-0.00510563
-0.000169025
0.000617349
-0.00522517
-1.60172e-05
0.000308617
-0.00527353
-0.00022859
0.000254172
-0.00710137
0.000595776
0.000743595
-0.00690067
0.000477885
0.00113169
-0.00540996
0.000463068
0.000752442
-0.00457155
5.28303e-05
0.00101543
-0.00446417
-0.000458013
0.000946627
-0.0046196
-0.000585453
0.000822677
-0.00418957
-0.00058224
0.000434906
-0.00434327
-0.000482936
0.000600507
-0.00511714
-0.000383635
0.000229614
-0.00696869
0.00018999
0.000471672
-0.00641494
0.000229411
0.000743349
-0.00521626
0.000182926
0.000634215
-0.00449986
-2.52179e-05
0.00101341
-0.00427677
-0.00042139
0.000924611
-0.00316796
-0.000629677
0.000481298
-0.00299481
-0.000625089
0.000378976
-0.00321569
-0.000571649
0.000492589
-0.00418217
-0.000468403
0.00073036
-0.00422683
-0.000458393
2.42108e-05
-0.00602138
6.20581e-05
0.000145584
-0.00566447
0.000134588
0.00034872
-0.00524504
7.67393e-05
0.000584246
-0.00418443
2.47786e-05
0.000511862
-0.00391566
-0.000118935
0.000719848
-0.00322243
-0.000199765
0.000733219
-0.0024275
-0.000233847
0.000511864
-0.00223714
-0.000366043
0.000570672
-0.00158334
-0.000388824
0.000669794
-0.0017725
-0.000398967
0.000685441
-0.00259882
-0.000316742
-0.000120436
-0.00474334
7.1098e-05
2.41725e-05
-0.00532836
5.10658e-05
0.000161787
-0.00578453
9.18406e-05
0.000346773
-0.00454698
6.70228e-05
0.000351099
-0.00387124
-4.16605e-05
0.000464847
-0.00346618
-0.000141974
0.000542155
-0.00210373
-0.000182777
0.000404074
-0.0013743
-0.000193348
0.000348868
-0.000570687
-0.000180995
0.000414125
-0.000966401
-0.000184077
0.000413783
-0.00193943
-0.000194221
0.0003799
-0.000694582
-0.000211019
-8.14753e-05
-0.00454502
-2.5316e-05
-2.22223e-06
-0.00497512
-1.07766e-05
4.8151e-05
-0.0052935
-1.10375e-05
8.66533e-05
-0.00466391
-7.73199e-06
0.000177824
-0.00441522
8.34925e-07
0.0002174
-0.00340421
-1.25948e-05
0.000213028
-0.00197062
-4.36316e-05
0.000175761
-0.000925371
-5.86579e-05
0.000170313
0.000169215
-6.59692e-05
0.000151073
0.000878724
-8.55366e-05
0.000120693
0.000686406
-9.0529e-05
0.000155274
0.00026483
-7.56879e-05
0.000132994
0.000757472
-6.72239e-05
0.00089693
-0.00488589
0.00386912
0.000940812
-0.00523864
0.00344813
0.000939883
-0.00494463
0.00370971
0.000832508
-0.00542438
0.00332007
0.00107484
-0.00550183
0.00322708
0.00156723
-0.00585624
0.00309854
0.00111377
-0.00596847
0.00297665
0.00135329
-0.00610306
0.00297996
0.000895942
-0.00594566
0.00292788
0.00133366
-0.00609443
0.00303909
0.00135055
-0.00624269
0.00268553
0.00118498
-0.00638248
0.00267578
0.0011024
-0.00605883
0.00250012
0.00137187
-0.00629249
0.00276986
0.00138301
-0.00672691
0.00284661
0.000957441
-0.006767
0.00249895
0.00147432
-0.00643111
0.00226782
0.00113456
-0.00609395
0.00225384
0.00206334
-0.00612967
0.00221886
0.00180478
-0.00618273
0.00244705
0.00147952
-0.00700326
0.0024468
0.00114119
-0.00637554
0.00169693
0.00132954
-0.00637593
0.00220567
0.0019884
-0.00614117
0.00187224
0.00210214
-0.00619323
0.00173975
0.00183244
-0.00672562
0.00187591
0.0012967
-0.00598681
0.00133998
0.00107191
-0.00521946
0.000992102
0.00101555
-0.00679557
0.00137845
0.00146979
-0.00613231
0.00155569
0.00225696
-0.00600081
0.000748095
0.00197492
-0.00624316
0.000588007
0.000698989
-0.00473382
0.000815545
0.000533542
-0.00474253
0.000538024
0.000392119
-0.00546819
2.67525e-06
0.000892354
-0.00721039
0.00103921
0.00142933
-0.00578673
0.00089947
0.00202009
-0.00526284
0.000471449
0.00190953
-0.00455714
0.000107688
0.000811693
-0.00415157
0.000250331
0.000364878
-0.00477458
0.000313655
0.000403422
-0.00543939
0.000366065
0.000351729
-0.00583397
-0.000258613
0.000526572
-0.00738423
0.000873668
0.000989908
-0.00685467
0.000779329
0.00162716
-0.00551002
0.000385812
0.0011233
-0.00435276
-6.80661e-05
0.000991616
-0.00456421
-0.000247955
0.000904671
-0.00509269
-0.00019924
0.000586142
-0.00508131
-7.63537e-05
0.000368688
-0.00521207
-1.12593e-05
0.000864771
-0.00552392
-0.000442019
0.000157877
-0.00708743
0.00063913
0.000732508
-0.00699336
0.000427632
0.00116441
-0.00577236
0.000419224
0.000953583
-0.00449537
6.75125e-05
0.00137322
-0.00451818
-0.000252969
0.000982053
-0.00459033
-0.000544725
0.000570107
-0.00425396
-0.000609867
0.000385329
-0.0043958
-0.000536062
0.000338735
-0.00489502
-0.000551205
0.000924684
-0.00476896
-0.000526368
0.000170992
-0.00717452
0.000198236
0.00046934
-0.0067368
0.000188092
0.000662081
-0.00551371
0.000213494
0.000649587
-0.00449671
0.000114431
0.000710926
-0.00418278
-0.000318271
0.000957088
-0.00323
-0.000596594
0.000748115
-0.00299734
-0.000642042
0.000372116
-0.00312666
-0.000574366
0.000338617
-0.00398242
-0.000539346
0.000651099
-0.00414009
-0.000536452
0.000868384
-0.00336487
-0.000418484
5.75788e-05
-0.00625732
3.12654e-05
0.000113372
-0.00581617
0.000124563
0.000288234
-0.00532434
8.74365e-05
0.000623454
-0.00441409
2.97211e-05
0.000447465
-0.00391945
-6.77979e-05
0.000717071
-0.00346175
-0.000131843
0.000755817
-0.00262765
-0.000213276
0.0005618
-0.00231362
-0.0003151
0.000500422
-0.00175536
-0.000345583
0.00066082
-0.00205696
-0.000351059
0.000673231
-0.00291919
-0.000338043
0.00065766
-0.00219735
-0.000349038
-0.000110676
-0.0047611
6.97413e-05
1.67087e-05
-0.0053622
8.60152e-05
0.000136592
-0.00591007
8.81684e-05
0.000318011
-0.00476216
7.56659e-05
0.000315425
-0.00390834
-3.34818e-05
0.000432665
-0.00356067
-0.000162433
0.000513426
-0.00232517
-0.00022093
0.000363269
-0.00154892
-0.000195666
0.000311553
-0.000732661
-0.000172614
0.000336591
-0.0011441
-0.000188816
0.000397109
-0.0022251
-0.000174819
0.000471533
-0.000985531
-0.000219531
0.000315574
-0.000216238
-0.000267615
-9.70242e-05
-0.00445303
-2.58869e-05
-2.47552e-05
-0.00496314
-1.25325e-05
4.00246e-05
-0.00533652
-7.78054e-06
7.09935e-05
-0.00473939
-6.55702e-06
0.000162761
-0.00458554
-1.77977e-07
0.000211203
-0.00359875
-1.58308e-05
0.000199374
-0.00213762
-4.49752e-05
0.000183865
-0.00109496
-5.79066e-05
0.00015804
2.05279e-05
-6.80107e-05
0.000147325
0.000750887
-8.54563e-05
0.000113813
0.00057647
-8.94145e-05
0.00015586
9.23592e-05
-7.39183e-05
0.000150128
0.000604812
-7.31552e-05
6.76996e-05
0.00129414
-7.45362e-05
0.000864229
-0.00481216
0.00407687
0.000806113
-0.00476321
0.00383073
0.000895053
-0.00498666
0.00391153
0.000729009
-0.00522974
0.00351721
0.00115517
-0.0050981
0.00352127
0.00111389
-0.00510719
0.00359205
0.00110506
-0.00518902
0.00372158
0.00109017
-0.00545739
0.00329923
0.00132712
-0.00558889
0.00324755
0.000686022
-0.00566553
0.00312957
0.00118853
-0.00595596
0.00323116
0.00118924
-0.005978
0.00301289
0.00120657
-0.00598329
0.00291137
0.0011621
-0.00598857
0.0027722
0.00129125
-0.00613578
0.00304984
0.00132445
-0.00620128
0.00305624
0.00117601
-0.00650931
0.00259379
0.00168439
-0.00648299
0.00278721
0.00101859
-0.00593161
0.00249328
0.00168994
-0.00605726
0.00263829
0.00138122
-0.00632583
0.00279234
0.00139061
-0.00671917
0.00288769
0.00134066
-0.00632143
0.00218981
0.0012519
-0.00604726
0.00216603
0.00107169
-0.00599658
0.00236695
0.00194174
-0.0059881
0.00215893
0.00179036
-0.005978
0.00232592
0.00154255
-0.00682272
0.0025564
0.0012849
-0.006074
0.00215705
0.00156216
-0.00608876
0.00148073
0.00100133
-0.00650578
0.00208122
0.00181813
-0.0062691
0.00198526
0.00225006
-0.00607273
0.00175863
0.00194306
-0.00659552
0.00164151
0.000787662
-0.00615953
0.00195996
0.00108041
-0.00565312
0.00122676
0.000672417
-0.00520628
0.000425748
0.000904266
-0.0067917
0.00139253
0.00129614
-0.00595353
0.00133286
0.00226287
-0.00571637
0.00102848
0.00206076
-0.0061602
0.000513901
0.00109183
-0.0051105
0.000684554
0.000482537
-0.00468211
0.000637469
0.000425524
-0.00514246
0.000190185
0.000616294
-0.00558642
-0.000428568
0.000808793
-0.00745868
0.00108539
0.00118952
-0.00616648
0.00121935
0.00190329
-0.00539492
0.000755421
0.00192343
-0.00492538
3.95502e-05
0.00107365
-0.00428156
0.00015565
0.000609468
-0.0046244
0.000395351
0.00026242
-0.00510624
0.000304231
0.000415909
-0.00570222
0.000187088
0.000957137
-0.00558822
-0.000499458
0.000354888
-0.00750398
0.000899939
0.000887068
-0.006904
0.000768442
0.00155583
-0.00569031
0.000568203
0.00133796
-0.00433762
-1.37076e-05
0.00118938
-0.00421123
-0.000237204
0.000862422
-0.00494267
-0.00027834
0.000523429
-0.00507302
-0.000160849
0.000306698
-0.00517489
-3.48982e-05
0.000674458
-0.00555004
-0.000320869
0.00114277
-0.00510334
-0.000791491
0.000235574
-0.00720481
0.000617041
0.000640752
-0.00702319
0.000497541
0.00111739
-0.00614614
0.000346103
0.000849414
-0.00451866
0.000242693
0.0010647
-0.00454617
-0.000258266
0.00114466
-0.00450758
-0.000523292
0.00081117
-0.00437616
-0.000485581
0.000417205
-0.0045243
-0.000526461
0.000231553
-0.0048562
-0.000467817
0.00100373
-0.00497959
-0.000693204
0.000996463
-0.00408889
-0.000602634
0.000172474
-0.00736315
0.000223105
0.000481178
-0.00706344
0.000157071
0.000631618
-0.00590181
0.000232811
0.00072989
-0.00457602
0.000186374
0.000761686
-0.00424304
-0.000139534
0.000954615
-0.00324475
-0.000541065
0.00072743
-0.00297781
-0.000587737
0.00049809
-0.00313942
-0.000565577
0.000359631
-0.00389939
-0.000516604
0.00063187
-0.00405167
-0.000598818
0.000849868
-0.00355877
-0.000519187
0.000976059
-0.0026383
-0.000387493
4.65757e-05
-0.00645684
1.69716e-05
0.000165913
-0.00605002
0.000115906
0.000263427
-0.0054723
0.000145696
0.000634651
-0.00471703
7.37367e-05
0.000404689
-0.00394633
-3.26624e-05
0.000631192
-0.00363074
-9.73328e-05
0.000774811
-0.00284528
-0.000175597
0.000516147
-0.00236418
-0.000315587
0.000399411
-0.00181981
-0.000338511
0.000583247
-0.00230718
-0.000342015
0.000585371
-0.00312058
-0.000337932
0.00070068
-0.0024275
-0.00033704
0.000583914
-0.00152262
-0.000434534
-0.000188578
-0.00470758
7.20067e-05
-1.13634e-05
-0.00539566
8.98034e-05
0.000101183
-0.00597246
8.72431e-05
0.000268631
-0.00496345
9.18234e-05
0.000311247
-0.00397446
-6.70184e-06
0.000401606
-0.00364433
-0.000140225
0.000492525
-0.002548
-0.000232755
0.000359734
-0.00174181
-0.000203903
0.000268552
-0.000866123
-0.000172717
0.000272029
-0.00124462
-0.000196793
0.000367718
-0.0024927
-0.000175116
0.000502344
-0.00131399
-0.00019284
0.000361752
-0.000357386
-0.000290007
0.000233236
-0.00033448
-0.00031763
-0.000117487
-0.00434167
-2.47965e-05
-4.69764e-05
-0.00493103
-1.10222e-05
5.10218e-06
-0.0053451
-9.05153e-06
5.30317e-05
-0.00479336
-6.84356e-06
0.000145618
-0.00473665
-1.06293e-06
0.000200191
-0.00377903
-2.00877e-05
0.000195217
-0.00230165
-4.70115e-05
0.000198655
-0.00128226
-5.63293e-05
0.000151879
-0.000121323
-6.79346e-05
0.000146812
0.000621516
-8.5452e-05
0.000115027
0.000461879
-8.58922e-05
0.000140707
-6.72059e-05
-7.05566e-05
0.000158578
0.000444653
-7.23377e-05
8.07425e-05
0.00122301
-8.27691e-05
5.6535e-05
0.00152033
-7.47405e-05
0.000788976
-0.00459006
0.00440797
0.000734831
-0.00471118
0.00406946
0.000760156
-0.00490975
0.0041746
0.000738007
-0.00478815
0.00386706
0.000960214
-0.00478036
0.00381939
0.00102058
-0.00471413
0.00408498
0.000790866
-0.00503408
0.00388819
0.00107622
-0.00516068
0.00359374
0.00124346
-0.00504119
0.00353893
0.00115514
-0.00514186
0.00359924
0.000757823
-0.00537397
0.00366276
0.00112098
-0.00533091
0.00366265
0.001242
-0.00550776
0.00316535
0.00128832
-0.00571201
0.00324038
0.0010297
-0.00554281
0.00312955
0.00110037
-0.00580944
0.00317393
0.00117981
-0.00586614
0.00326394
0.00133591
-0.00603084
0.00290054
0.00166046
-0.00587797
0.00294988
0.000883991
-0.00583535
0.0027907
0.0013557
-0.00600454
0.00297519
0.0014508
-0.00620963
0.00298861
0.00119623
-0.00621706
0.00295837
0.00131744
-0.00623661
0.00237062
0.00119523
-0.00609269
0.00288164
0.000979508
-0.00591127
0.00249086
0.00168008
-0.00586673
0.00256441
0.0014832
-0.00610669
0.00272631
0.00130763
-0.00653898
0.00284707
0.00155027
-0.00623454
0.00253542
0.00157738
-0.00612835
0.00225568
0.00150112
-0.00553153
0.00186763
0.00100726
-0.00608932
0.00227639
0.00169735
-0.00582342
0.00232305
0.00223841
-0.00618923
0.00238181
0.00160139
-0.00652684
0.00237171
0.00108886
-0.00641361
0.00259481
0.00146823
-0.00606454
0.00174501
0.000962666
-0.005592
0.00136934
0.000889792
-0.00636197
0.00196023
0.000970159
-0.00601678
0.00215488
0.00224013
-0.00602535
0.00196061
0.00206403
-0.00657305
0.00173289
0.00114844
-0.0063019
0.00172726
0.00100009
-0.00564695
0.00143623
0.000953486
-0.00518516
0.000677672
0.0010673
-0.00561012
-0.000127224
0.00106475
-0.00697718
0.0013386
0.00134612
-0.00612341
0.00140581
0.0020896
-0.00558226
0.00101244
0.00195527
-0.00594781
0.000784253
0.00124229
-0.00536484
0.000599596
0.000557192
-0.00475216
0.000806881
0.000209899
-0.00482456
0.000372092
0.000625737
-0.00552488
-8.11866e-05
0.0011544
-0.00584936
-0.000579699
0.000564397
-0.00752652
0.00103579
0.00109833
-0.00653723
0.00124488
0.00177292
-0.00530127
0.000908604
0.00195827
-0.00511096
0.000320696
0.00110995
-0.00424256
7.99687e-05
0.000736238
-0.00456902
0.000226455
0.00021626
-0.00486066
0.000456944
0.00024159
-0.00566572
0.000332845
0.00135813
-0.00578402
-0.000300777
0.00110424
-0.0059695
-0.000475348
0.000402353
-0.00754977
0.000683088
0.000865833
-0.00698616
0.000757018
0.00145028
-0.00581851
0.000563744
0.00121064
-0.00434107
0.000210437
0.0012816
-0.00418327
-0.00025858
0.000946307
-0.00463693
-0.000344598
0.0006539
-0.00492924
-0.00026485
0.000309604
-0.005107
-0.000121143
0.00036565
-0.00539492
-0.000324113
0.00134265
-0.00504306
-0.000720059
0.00132394
-0.0045202
-0.000891428
0.000175345
-0.0072459
0.000588936
0.000665832
-0.0071888
0.000598
0.00108473
-0.0064414
0.000339686
0.000944589
-0.00473262
0.000345359
0.00096572
-0.00436822
-0.000139296
0.00122266
-0.00458338
-0.000450505
0.000822939
-0.00437793
-0.000617036
0.000572459
-0.0045611
-0.000523148
0.000194689
-0.00467769
-0.000540029
0.00072898
-0.00498221
-0.000562313
0.00101827
-0.00419788
-0.000752606
0.00111933
-0.00367443
-0.000603328
7.79943e-05
-0.00751255
0.000263807
0.000427646
-0.00729047
0.000188403
0.000497145
-0.00618591
0.000207455
0.000793931
-0.00480698
0.000304494
0.000674862
-0.00423386
-9.29762e-05
0.00100214
-0.00340871
-0.000346516
0.000783576
-0.00302233
-0.000505316
0.000527852
-0.00320488
-0.000533976
0.000296733
-0.00385945
-0.000502841
0.000608632
-0.00406311
-0.000530545
0.00077114
-0.00378646
-0.000556894
0.00092937
-0.00289215
-0.000494031
0.000850731
-0.00261107
-0.000575149
-6.867e-05
-0.0066362
7.45381e-05
0.000108072
-0.00626679
0.000114312
0.000229603
-0.00564954
0.000164719
0.000598587
-0.00504738
0.000146084
0.000436218
-0.00400973
1.21636e-05
0.000546624
-0.00376246
-4.59569e-05
0.000815168
-0.00310768
-0.000157576
0.000535036
-0.00242841
-0.000286673
0.000363362
-0.00193395
-0.000296256
0.000487097
-0.00252667
-0.000334092
0.000560451
-0.00331701
-0.000338319
0.000652387
-0.0025856
-0.000329879
0.000637466