/*--------------------------------*- C++ -*----------------------------------*\
  =========                 |
  \\      /  F ield         | OpenFOAM: The Open Source CFD Toolbox
   \\    /   O peration     | Website:  https://openfoam.org
    \\  /    A nd           | Version:  7
     \\/     M anipulation  |
\*---------------------------------------------------------------------------*/
FoamFile
{
    version     2.0;
    format      ascii;
    class       surfaceScalarField;
    location    "4.5";
    object      phi_0;
}
// * * * * * * * * * * * * * * * * * * * * * * * * * * * * * * * * * * * * * //

dimensions      [0 3 -1 0 0 0 0];

internalField   nonuniform List<scalar> 
54184
(
0.000158098
-0.00399559
-2.72916e-05
0.000313472
-0.00465126
2.58879e-05
0.00014717
-0.00416907
-2.95618e-05
0.000204519
-0.00373726
-2.17994e-05
0.000491814
-0.00443427
-4.48901e-05
0.00027151
-0.00478011
-3.08716e-05
0.000454278
-0.0042251
-7.09133e-05
0.000125345
-0.00432147
-2.91732e-05
0.00020812
-0.0039519
-2.30474e-05
0.000199988
-0.00395228
-2.17655e-05
0.000733647
-0.00480276
-4.331e-05
0.000449923
-0.00461714
-3.04247e-05
0.000726783
-0.00389754
-9.98208e-05
0.000215492
-0.00487978
1.05796e-05
0.000464942
-0.00446271
-5.00829e-05
0.000432305
-0.00403278
-0.000148865
0.000105791
-0.00445137
-2.84108e-05
0.000189419
-0.00414979
-2.07038e-05
0.000211055
-0.0041636
-2.27838e-05
0.000152845
-0.00338087
-2.58592e-05
0.00102215
-0.00600269
0.000308989
0.000712952
-0.00502338
-3.63936e-05
0.000904319
-0.00442388
-5.47089e-05
0.000376089
-0.00473782
-3.81304e-05
0.000790552
-0.00424706
-6.51436e-06
0.000677534
-0.0037605
-0.000300142
0.000157388
-0.00495756
-2.36701e-06
0.00042085
-0.00465542
-2.8142e-05
0.000501881
-0.00424575
-0.000127935
0.000275527
-0.00358344
-0.000194801
8.4367e-05
-0.00455585
-2.89627e-05
0.000166355
-0.00432501
-1.95459e-05
0.000193485
-0.00435633
-2.14592e-05
0.000161531
-0.00354481
-2.03789e-05
0.000222295
-0.00247929
-9.45597e-06
0.00141818
-0.00594216
0.000147274
0.00108084
-0.00628511
0.000138409
0.00097542
-0.00526162
0.000236789
0.000604533
-0.00515928
-8.05135e-05
0.000963297
-0.00463248
-5.41839e-07
0.00088421
-0.00418618
-0.00023435
0.000294662
-0.004868
-1.50379e-05
0.000718784
-0.00452144
-6.16777e-05
0.000795623
-0.00384356
-0.000217192
0.000524922
-0.00361367
-0.000431914
0.000100445
-0.00501837
6.51307e-05
0.000378973
-0.00486683
-3.57565e-06
0.000448497
-0.00443245
-9.64528e-05
0.000276698
-0.00363618
-0.000190363
0.000370619
-0.00280826
-0.000165746
6.33219e-05
-0.00463783
-2.85503e-05
0.000144917
-0.00447933
-1.95554e-05
0.000175701
-0.0045327
-1.88786e-05
0.000161511
-0.00371211
-1.56658e-05
0.000244107
-0.00274448
7.04655e-07
0.000249225
-0.00172529
-1.84177e-05
0.00161581
-0.00620733
0.000797701
0.00123862
-0.00580429
0.000470976
0.0013404
-0.00523149
-2.15469e-05
0.000965001
-0.00661452
0.000374785
0.00106226
-0.0054177
0.000195531
0.00106871
-0.0048253
-9.78595e-05
0.000457553
-0.00528176
1.60613e-05
0.000944522
-0.00489361
-4.51154e-05
0.00102539
-0.00425776
-0.000158729
0.000684796
-0.00442986
-0.00052583
0.0002002
-0.00496238
-2.44536e-06
0.000631752
-0.00480293
1.36684e-05
0.000719697
-0.003995
-0.000181444
0.000566904
-0.00368433
-0.000436742
0.000582453
-0.00285592
-0.000427398
3.46842e-05
-0.00504093
5.87941e-05
0.000319488
-0.0050233
4.70384e-05
0.000444195
-0.00465592
-4.86038e-05
0.000284644
-0.00369697
-0.000158797
0.000398415
-0.0030246
-0.000128324
0.000470995
-0.00222845
-0.000206316
4.83565e-05
-0.0047023
-2.75279e-05
0.000120121
-0.00460967
-1.83323e-05
0.000158369
-0.00469262
-1.79992e-05
0.000159008
-0.00387671
-1.32904e-05
0.00024376
-0.00301091
7.00536e-06
0.000287905
-0.00199957
-1.29217e-05
0.000207968
-0.000800822
-4.70182e-05
0.00172282
-0.00670336
0.00111039
0.00151018
-0.00609841
0.000803368
0.00187483
-0.00630553
0.000209507
0.00129546
-0.00603432
0.000643141
0.0014748
-0.00536204
0.00018898
0.00114687
-0.00487466
-0.000159684
0.000692722
-0.00665917
0.000352381
0.00122512
-0.00567515
0.000351638
0.00122519
-0.00479423
-3.53522e-05
0.000888607
-0.0050273
-0.000349098
0.000397184
-0.00547042
9.07436e-05
0.000832482
-0.00511167
3.33836e-05
0.000917022
-0.00441186
-8.83423e-05
0.000915392
-0.00443351
-0.000503559
0.000814041
-0.00382822
-0.000561081
0.00012386
-0.00505979
3.53606e-05
0.000489771
-0.00500518
2.95285e-05
0.00076395
-0.0042247
-7.63838e-05
0.000583434
-0.00383616
-0.000328402
0.00066179
-0.00313531
-0.000420728
0.000596434
-0.00223567
-0.000411997
-2.5416e-05
-0.00500008
4.28414e-05
0.00025751
-0.00513601
3.41107e-05
0.000417614
-0.00485406
-1.40629e-05
0.000311681
-0.00377107
-0.000127169
0.000413566
-0.00323318
-0.000120028
0.000550975
-0.00243951
-0.000180339
0.000376538
-0.00109432
-0.00025069
2.81581e-05
-0.0047444
-2.66685e-05
9.93477e-05
-0.00471926
-1.72837e-05
0.000143788
-0.0048386
-1.61402e-05
0.000152133
-0.00403488
-1.19621e-05
0.000242977
-0.00327581
8.63029e-06
0.00027403
-0.00225896
-7.63642e-06
0.000229793
-0.000993211
-5.03255e-05
0.000157361
-0.000121024
-4.74443e-05
0.00168997
-0.0067011
0.00167122
0.00164138
-0.00664087
0.00154137
0.0019454
-0.00674647
0.000756659
0.00136624
-0.00577265
0.000956492
0.00197695
-0.0063963
0.000391997
0.00139842
-0.00470247
8.41701e-05
0.00126679
-0.00642923
0.00065306
0.00170432
-0.00552791
0.000329817
0.00134707
-0.00463108
-0.000176478
0.000831107
-0.00516637
-0.000116222
0.000573404
-0.00659998
0.00034755
0.00120258
-0.0059739
0.000281029
0.00117369
-0.00471592
1.6662e-05
0.00108062
-0.00481678
-0.00041109
0.00083874
-0.00500468
-0.000409929
0.000376961
-0.00574281
0.000121679
0.000744575
-0.00535372
7.79897e-05
0.00100042
-0.00457459
-4.03554e-05
0.000857435
-0.00441706
-0.000378798
0.000927915
-0.00399198
-0.00060593
0.000676389
-0.00291201
-0.000508889
8.56948e-05
-0.00520465
5.79236e-05
0.000406344
-0.00517051
5.18568e-05
0.000750098
-0.00449203
-3.56262e-05
0.000464619
-0.00383564
-0.000229843
0.000689048
-0.00338741
-0.000351785
0.000688068
-0.00238528
-0.000408213
0.000504986
-0.00190811
-0.000423555
-6.41692e-05
-0.00492972
3.62386e-05
0.000196088
-0.00521626
2.63466e-05
0.000380491
-0.00505682
1.64732e-07
0.000302894
-0.00383793
-9.79663e-05
0.000425865
-0.00342739
-0.000115848
0.00050639
-0.00263185
-0.000160043
0.000439608
-0.0012096
-0.000274868
0.000276849
-0.000533817
-0.000239296
1.7042e-06
-0.00475769
-2.6778e-05
8.05174e-05
-0.00481146
-1.49846e-05
0.00012969
-0.00497119
-1.43834e-05
0.00013994
-0.00417986
-1.11032e-05
0.000236623
-0.00353226
7.87389e-06
0.000260075
-0.00250468
-5.72364e-06
0.000236083
-0.00118822
-4.87132e-05
0.000166553
-0.000282908
-5.4994e-05
0.000159455
0.000848256
-5.39361e-05
0.00116841
-0.00658671
0.00253882
0.00158017
-0.00658549
0.0020808
0.00181697
-0.00669859
0.00210298
0.00188067
-0.00661724
0.00160974
0.00130114
-0.00642101
0.00150871
0.00221728
-0.00662992
0.00118448
0.00182799
-0.00649672
0.000696389
0.00136431
-0.00591371
0.000942728
0.00193587
-0.00608587
0.000414513
0.00171828
-0.00491684
0.000235161
0.000713496
-0.00406039
-2.14527e-05
0.00114141
-0.0067257
0.000517076
0.00174366
-0.00582396
0.000408031
0.00152412
-0.00464058
-1.11228e-05
0.000749374
-0.00476435
-0.000247257
0.000646016
-0.00533605
3.14465e-05
0.000567137
-0.00676393
0.000584643
0.00119867
-0.00630868
0.000228232
0.00122242
-0.00479577
0.00013888
0.00106539
-0.00467909
-0.000328981
0.000917427
-0.00493949
-0.000465789
0.000792418
-0.00430662
-0.000447418
0.00041991
-0.00607461
5.30388e-05
0.000569824
-0.00550066
0.000105143
0.000978088
-0.00471035
-1.42457e-05
0.000679995
-0.00440993
-0.000262864
0.000974882
-0.00408497
-0.00057164
0.000808866
-0.00304035
-0.000598392
0.000550115
-0.00313519
-0.000536644
3.5875e-05
-0.00534197
5.93723e-05
0.000342656
-0.0053461
8.69383e-05
0.000695025
-0.00474293
-1.1773e-05
0.000466234
-0.00387397
-0.000160633
0.000698715
-0.00360446
-0.000285642
0.000680666
-0.00255277
-0.000358571
0.000582529
-0.00202486
-0.000434383
0.000489131
-0.00184735
-0.000440557
-8.15255e-05
-0.00488184
4.80822e-05
0.000150682
-0.00527585
2.56701e-05
0.000337597
-0.00526272
2.43369e-05
0.000297483
-0.00392264
-7.26701e-05
0.000408031
-0.00358864
-0.00010812
0.00048753
-0.00283933
-0.000135823
0.000491731
-0.00138204
-0.000243248
0.000338913
-0.000715094
-0.000265951
0.000313866
8.82949e-05
-0.000210823
-3.28498e-05
-0.00473438
-2.61785e-05
6.15044e-05
-0.00488522
-1.45275e-05
0.000108418
-0.00508209
-1.25095e-05
0.00013116
-0.0043159
-9.49564e-06
0.00022365
-0.00377306
6.04788e-06
0.000252346
-0.00274412
-5.03358e-06
0.000239282
-0.00138592
-4.73028e-05
0.000164257
-0.000438531
-5.73472e-05
0.000170761
0.000683445
-6.09446e-05
0.000148547
0.0013066
-7.47097e-05
0.00103747
-0.0063741
0.00282739
0.00140214
-0.00650612
0.0023709
0.00115145
-0.00674278
0.00259389
0.00183605
-0.00647066
0.00221148
0.0016537
-0.00650312
0.00222501
0.0012224
-0.0064562
0.0018665
0.00225518
-0.0064552
0.00190305
0.00182052
-0.00683205
0.00168218
0.00134809
-0.00657579
0.0015258
0.00230684
-0.00651942
0.00102724
0.00194935
-0.00659152
0.00104821
0.000891171
-0.00510559
0.0007601
0.00142522
-0.00625648
0.00122334
0.00189046
-0.00588606
0.000596124
0.00202426
-0.00521713
0.000214661
0.000780614
-0.00406789
0.000211429
0.000365211
-0.0046388
0.000142346
0.000761844
-0.00664673
0.000622377
0.00162491
-0.0060564
0.000323278
0.00152337
-0.00468438
0.000150886
0.00115796
-0.00460144
-0.000266606
0.000559406
-0.00517706
-4.82296e-05
0.000522192
-0.00534486
9.678e-05
0.000493248
-0.00690821
0.00061716
0.00096501
-0.0065711
0.000451886
0.00119742
-0.0050752
0.000288331
0.00094527
-0.00454105
-0.000264437
0.00102871
-0.0048445
-0.000477799
0.00102775
-0.00451053
-0.000480759
0.000622458
-0.00414387
-0.000487208
0.000290159
-0.00639195
0.000202808
0.00050764
-0.00569824
8.56325e-05
0.000908266
-0.004837
1.85568e-05
0.00078529
-0.00450159
-0.000241641
0.000944881
-0.00405185
-0.000542153
0.000837983
-0.00314441
-0.000624898
0.000513153
-0.00305846
-0.000605751
0.000444517
-0.00335556
-0.000506029
4.05146e-05
-0.00552277
8.78319e-05
0.000201843
-0.00544696
0.000109079
0.000612626
-0.00497587
4.4848e-05
0.000442666
-0.00391467
-0.000116261
0.000665157
-0.00377986
-0.000242357
0.000688073
-0.00272861
-0.000310344
0.000625679
-0.00213602
-0.000381361
0.000548529
-0.00203612
-0.00045523
0.000541274
-0.00113065
-0.000456536
-0.000131587
-0.00483814
7.47484e-05
0.000104572
-0.00530576
3.49181e-05
0.000269346
-0.0054709
7.29217e-05
0.000332407
-0.00408215
-1.73952e-05
0.000376541
-0.00370856
-0.000105641
0.000481217
-0.00306322
-0.000113104
0.000529658
-0.00160649
-0.000201754
0.000369566
-0.000919991
-0.00024366
0.000330024
-0.000122056
-0.000214863
0.000390642
-0.000392514
-0.000193129
-6.03349e-05
-0.0046818
-2.63726e-05
3.71704e-05
-0.0049339
-1.46655e-05
8.76796e-05
-0.0051732
-1.10893e-05
0.000123066
-0.00444319
-8.2916e-06
0.000215244
-0.00400191
4.10433e-06
0.000241882
-0.0029732
-6.75311e-06
0.000239452
-0.00158584
-4.4562e-05
0.000165874
-0.000592956
-5.87525e-05
0.000172108
0.000516664
-6.2674e-05
0.000166316
0.00116278
-8.34333e-05
0.000113238
0.000917722
-8.0789e-05
0.000950147
-0.00605984
0.0029529
0.000993376
-0.0060505
0.00268193
0.00120061
-0.0064163
0.00281517
0.00143451
-0.00618456
0.00261858
0.00128864
-0.00662305
0.00261623
0.00126746
-0.00679661
0.00262503
0.00115098
-0.00629527
0.00220196
0.00211082
-0.00658189
0.00243461
0.00145265
-0.00678061
0.00232111
0.00135048
-0.00631373
0.00195757
0.00223674
-0.00627593
0.00175732
0.00175752
-0.00668619
0.00194903
0.000897051
-0.00665651
0.00188559
0.00126695
-0.00642192
0.00154036
0.00208742
-0.00629803
0.00110744
0.00211687
-0.00632449
0.000667605
0.00106704
-0.00546415
0.00112033
0.000258484
-0.00422407
0.000595121
0.000997949
-0.00667464
0.00110237
0.0016983
-0.00560478
0.000868662
0.00213163
-0.00555346
0.000324203
0.00126978
-0.00414344
0.000178388
0.000224206
-0.00441912
0.000326946
0.000264885
-0.00530976
0.000237208
0.000681497
-0.00682211
0.000856336
0.00144156
-0.00633253
0.000421959
0.00150859
-0.00498561
0.000313338
0.00115352
-0.00442286
-0.000235946
0.000819129
-0.0049536
-0.000280481
0.000841809
-0.00525834
5.11944e-05
0.000310876
-0.00519978
-3.38491e-05
0.000444011
-0.00706472
0.000577661
0.000701961
-0.00676469
0.000616424
0.00121904
-0.00519298
0.000258892
0.00122919
-0.00461007
-8.65467e-05
0.00113813
-0.00479591
-0.000506276
0.00092086
-0.00454055
-0.000530663
0.000504901
-0.00410617
-0.000510202
0.000396811
-0.00431721
-0.000409746
0.00022607
-0.00668114
0.000242681
0.000517624
-0.00602483
0.000213617
0.00077903
-0.00496507
4.7292e-05
0.000579117
-0.00446398
-0.000155506
0.000960927
-0.00408175
-0.000507509
0.000785118
-0.00311988
-0.000663725
0.000688232
-0.00312736
-0.000618549
0.000446002
-0.00330972
-0.000549062
0.000498988
-0.00418146
-0.000444887
3.28087e-05
-0.00575886
5.57691e-05
0.000101431
-0.00549723
0.00014124
0.000481659
-0.00515613
7.70245e-05
0.000505745
-0.00400407
-3.90908e-05
0.000548417
-0.0038672
-0.0002008
0.000735155
-0.00296777
-0.000257132
0.000647621
-0.00222589
-0.000338429
0.000520789
-0.00216054
-0.000408162
0.00056771
-0.00135559
-0.000467977
0.000605889
-0.00148032
-0.000387229
-0.000156731
-0.00476722
5.05674e-05
6.78151e-05
-0.00533023
6.85774e-05
0.000209806
-0.0056441
8.59925e-05
0.000357558
-0.00429445
5.07273e-05
0.000373872
-0.00381064
-7.3946e-05
0.000474199
-0.0032916
-0.000109575
0.0005536
-0.00185371
-0.000180032
0.000394768
-0.00113916
-0.000211481
0.000354824
-0.000355834
-0.000192599
0.000449882
-0.000693141
-0.000197801
0.000401429
-0.0016399
-0.000190591
-4.44585e-05
-0.00464401
-2.70073e-05
1.85163e-05
-0.00496478
-1.4008e-05
6.24989e-05
-0.00523752
-1.28445e-05
0.000109055
-0.00455667
-6.65784e-06
0.000199337
-0.00421288
3.34641e-06
0.000230215
-0.00318987
-9.44089e-06
0.000232432
-0.00178167
-4.33567e-05
0.000168826
-0.000747608
-5.87357e-05
0.000173901
0.000348063
-6.40528e-05
0.000160541
0.00102398
-8.4415e-05
0.000122602
0.000802223
-9.05361e-05
0.000134842
0.000439788
-6.8809e-05
0.000934591
-0.00522954
0.00361053
0.00101553
-0.00542832
0.0032588
0.000821705
-0.00588196
0.00290072
0.00101125
-0.00594263
0.00299885
0.00154856
-0.0061641
0.00293438
0.00116658
-0.00635308
0.00274077
0.00132175
-0.00634663
0.00276072
0.00123032
-0.00628088
0.00259312
0.00168124
-0.00639921
0.00282432
0.00138989
-0.00670652
0.00258889
0.00109078
-0.00680048
0.00258382
0.00127769
-0.00613131
0.0022194
0.00164653
-0.0062193
0.00242958
0.00137509
-0.0064751
0.00251154
0.000893025
-0.00680361
0.00227583
0.00112478
-0.00608786
0.00202814
0.00213815
-0.00618057
0.00181147
0.00207763
-0.0066104
0.00172078
0.0011885
-0.00643599
0.00160704
0.000661008
-0.00578445
0.00165836
0.00116611
-0.00678577
0.00155908
0.00187173
-0.00612076
0.00118966
0.00241825
-0.00618014
0.000676464
0.00168506
-0.00593002
0.000718201
0.000834088
-0.00460012
0.00088651
0.000369278
-0.00497686
0.000361098
0.00106
-0.00693851
0.00095337
0.00145528
-0.00561228
0.00109615
0.00197662
-0.00551506
0.000362229
0.00156658
-0.00442849
0.000196198
0.000668632
-0.00428268
0.000192441
0.000402989
-0.00496202
0.000418023
3.24085e-05
-0.00573103
3.46503e-05
0.00075911
-0.00709876
0.000855025
0.00122019
-0.00665981
0.000665387
0.00163666
-0.00529056
0.000309301
0.00152175
-0.00436167
-4.04109e-05
0.000987032
-0.00481593
-0.000222519
0.000651311
-0.00510971
-0.000159561
0.000596814
-0.00522985
-1.06469e-05
0.000308598
-0.00529154
-0.000229617
0.000266384
-0.00710675
0.000594303
0.000735033
-0.00689391
0.000489474
0.00113572
-0.00539097
0.000457733
0.00075428
-0.00456774
4.14e-05
0.00101015
-0.00447241
-0.00045927
0.000947395
-0.00462725
-0.000581853
0.000817027
-0.00418885
-0.000576778
0.00043517
-0.00434067
-0.000475906
0.000600121
-0.005108
-0.000387059
0.000228493
-0.00694665
0.000195478
0.000472522
-0.00638597
0.00023273
0.000747974
-0.00519596
0.0001782
0.00062937
-0.00450436
-3.59539e-05
0.00101695
-0.00428021
-0.000425572
0.000914998
-0.00317543
-0.000631805
0.000480095
-0.00299807
-0.000625485
0.000380634
-0.0032182
-0.000569917
0.000498254
-0.00419335
-0.000467714
0.000731965
-0.00423053
-0.000456536
1.78762e-05
-0.00599549
6.64398e-05
0.000142173
-0.00565347
0.000137653
0.000359909
-0.00524276
7.7769e-05
0.000578073
-0.00416937
2.18102e-05
0.000514672
-0.00392097
-0.000126125
0.000721265
-0.0032071
-0.000208538
0.000729324
-0.00241917
-0.00023958
0.000509529
-0.00224475
-0.00036898
0.0005705
-0.00158794
-0.000391492
0.000668429
-0.00176533
-0.000401522
0.000688444
-0.00257596
-0.000317312
-0.000127536
-0.00473988
6.98136e-05
2.61521e-05
-0.00533524
4.79465e-05
0.000163649
-0.00576862
9.19537e-05
0.000349146
-0.00451394
6.53869e-05
0.000353438
-0.00386952
-4.44954e-05
0.000466161
-0.00346288
-0.000138619
0.000542875
-0.00209339
-0.000180342
0.000407051
-0.00136423
-0.000193182
0.000351408
-0.000563587
-0.000181235
0.000418318
-0.000959719
-0.000183798
0.000415667
-0.00193677
-0.000193989
0.000378337
-0.00068435
-0.00021083
-8.33914e-05
-0.00456777
-2.59149e-05
-7.17628e-07
-0.00498051
-1.05577e-05
4.53789e-05
-0.00528523
-1.16795e-05
8.84327e-05
-0.00465033
-7.6182e-06
0.000179339
-0.00440058
1.70217e-06
0.000217402
-0.0033923
-1.16237e-05
0.000216164
-0.00196397
-4.33083e-05
0.000175423
-0.000907773
-5.86152e-05
0.000170314
0.000184854
-6.58411e-05
0.000151935
0.000893283
-8.52954e-05
0.000120979
0.00068726
-9.0431e-05
0.000155431
0.00026948
-7.56596e-05
0.000133675
0.000757029
-6.71346e-05
0.000893777
-0.00488815
0.00386904
0.000942939
-0.00523718
0.00344928
0.000934368
-0.0049427
0.00371132
0.000832275
-0.00542848
0.0033187
0.00107439
-0.00550462
0.00322624
0.00156444
-0.00585986
0.0031005
0.00111588
-0.00596806
0.00297684
0.00135805
-0.00610076
0.00297702
0.00090354
-0.00595258
0.00293002
0.00132477
-0.00610172
0.00303949
0.00134621
-0.00624385
0.00268167
0.00118639
-0.0063805
0.0026776
0.00110868
-0.00606562
0.00250353
0.00137087
-0.00630542
0.00277499
0.00137678
-0.00673163
0.00284774
0.000953206
-0.00676489
0.00249312
0.00147771
-0.00643122
0.00227104
0.00114414
-0.00609959
0.00224731
0.00204706
-0.00613325
0.00222444
0.00178343
-0.00620185
0.00245052
0.00145352
-0.00700745
0.00245036
0.00114629
-0.00637498
0.00169608
0.00133578
-0.00636569
0.00220739
0.00199988
-0.00614362
0.00186303
0.00208785
-0.00621067
0.00174215
0.00180931
-0.00672706
0.0018876
0.00128394
-0.00597695
0.00134969
0.00106667
-0.00522198
0.000982509
0.00102192
-0.00678493
0.00138561
0.0014874
-0.00614585
0.00155206
0.00225792
-0.0060195
0.00074773
0.00195923
-0.00624813
0.00060192
0.000685446
-0.00472531
0.000826578
0.00053388
-0.00475558
0.000534342
0.000397284
-0.00546659
-1.96513e-06
0.000898003
-0.00718428
0.00104186
0.00143965
-0.00576694
0.000888564
0.00202456
-0.0052654
0.000458577
0.0018944
-0.00455085
0.000111941
0.000789375
-0.00414696
0.000258135
0.000356113
-0.00478994
0.000315556
0.00038316
-0.00545544
0.000356094
0.000357451
-0.00583468
-0.000271203
0.000542093
-0.00737046
0.000874039
0.00100184
-0.00685088
0.00077929
0.0016302
-0.0054962
0.000376542
0.00112509
-0.00435155
-7.16215e-05
0.000976669
-0.00457824
-0.00024462
0.000904041
-0.00509478
-0.000194105
0.000585538
-0.00509136
-6.65679e-05
0.000368939
-0.00521613
-1.98302e-05
0.000862438
-0.00551669
-0.000451057
0.000156357
-0.00708999
0.000641015
0.000736072
-0.00699192
0.000428759
0.00116452
-0.00574574
0.000427686
0.000953442
-0.0044877
5.362e-05
0.00136813
-0.00452212
-0.000260074
0.000971421
-0.00459791
-0.000545028
0.000577061
-0.00425846
-0.000609208
0.000385996
-0.00438946
-0.000533345
0.000358556
-0.00489546
-0.000548754
0.000922544
-0.00476211
-0.000526708
0.000173787
-0.00716213
0.000198862
0.000464389
-0.00670756
0.000194853
0.000669992
-0.00548535
0.000212031
0.000644879
-0.00450031
0.000107345
0.000712964
-0.00418677
-0.000327693
0.000961001
-0.00324296
-0.00059777
0.000745218
-0.00300278
-0.000642988
0.000373259
-0.00313303
-0.000574383
0.000335444
-0.00399216
-0.000536051
0.000656847
-0.00415286
-0.000533799
0.000871367
-0.00336414
-0.000417512
5.10887e-05
-0.00623461
3.76684e-05
0.000108758
-0.00579771
0.000128076
0.000292843
-0.00531859
8.42858e-05
0.000619958
-0.00439148
2.90705e-05
0.000450559
-0.00392378
-7.24944e-05
0.000717784
-0.00344806
-0.000136788
0.000751714
-0.00261852
-0.000218027
0.000559085
-0.00231919
-0.000317176
0.000503739
-0.00176252
-0.000346722
0.000661017
-0.0020468
-0.000352721
0.00067889
-0.00290232
-0.000338388
0.000658692
-0.00218999
-0.000349279
-0.000108749
-0.00476303
7.08098e-05
1.60281e-05
-0.00536434
8.21623e-05
0.000137185
-0.00590194
8.94559e-05
0.000322967
-0.00473152
7.50012e-05
0.000316629
-0.0039045
-3.69211e-05
0.000433562
-0.00356093
-0.000162598
0.000516692
-0.00231584
-0.000216694
0.000366427
-0.0015407
-0.000194878
0.000313982
-0.000727899
-0.000172538
0.000340647
-0.00114164
-0.000188028
0.000398107
-0.00222358
-0.000174122
0.000469779
-0.000973145
-0.000219541
0.000315221
-0.000201357
-0.000267048
-9.59729e-05
-0.00447706
-2.59842e-05
-2.3951e-05
-0.00496931
-1.3163e-05
4.13079e-05
-0.00532963
-7.46844e-06
7.30819e-05
-0.00472876
-6.33327e-06
0.000162982
-0.00457154
3.60948e-07
0.000210168
-0.00358642
-1.43447e-05
0.00020094
-0.00213209
-4.44435e-05
0.000183486
-0.00107667
-5.78958e-05
0.000158213
3.59104e-05
-6.78843e-05
0.000148133
0.000764537
-8.52278e-05
0.000114324
0.000576939
-8.92977e-05
0.000156662
9.62163e-05
-7.38297e-05
0.000150339
0.000604171
-7.31397e-05
6.83332e-05
0.0012968
-7.45125e-05
0.000862694
-0.00481613
0.00407525
0.000808911
-0.00476489
0.00383006
0.000891575
-0.00498898
0.00391362
0.000729843
-0.00522978
0.00351768
0.00115619
-0.00509637
0.00352116
0.00111127
-0.00511016
0.00358807
0.00110442
-0.00519019
0.00372151
0.0010928
-0.00545947
0.00329664
0.00132579
-0.00558975
0.00324987
0.00069462
-0.00567037
0.00312989
0.00118019
-0.00595672
0.00323374
0.00119141
-0.00597979
0.00301067
0.00120299
-0.00598055
0.00291093
0.00115636
-0.00598917
0.00277724
0.00128856
-0.00613892
0.00304953
0.00131853
-0.00619988
0.00305376
0.00117439
-0.00650853
0.00258853
0.00168593
-0.00647401
0.0027885
0.00102912
-0.00593627
0.0024929
0.00167019
-0.00607117
0.00264616
0.00137472
-0.00634135
0.00279342
0.00137948
-0.00672416
0.00288105
0.0013408
-0.00632024
0.00218762
0.00124809
-0.00604432
0.00216825
0.00107268
-0.00599209
0.00236374
0.00194993
-0.00599453
0.00215853
0.00177197
-0.00598941
0.00232788
0.00153206
-0.00683899
0.00255932
0.00128924
-0.00606749
0.00213758
0.00156056
-0.00608583
0.0014866
0.00100318
-0.00650271
0.00209052
0.00184532
-0.00627079
0.00197664
0.00224012
-0.0060847
0.00175486
0.00192858
-0.00660163
0.00164737
0.000783381
-0.00614821
0.00196093
0.00108637
-0.00565003
0.00122524
0.000670234
-0.00521581
0.000419394
0.000908595
-0.00678259
0.00139645
0.00129878
-0.00595755
0.00133818
0.00226418
-0.00573319
0.00102614
0.00205271
-0.00617835
0.000519639
0.00106852
-0.00510177
0.000699232
0.000487018
-0.00469357
0.000633664
0.000437181
-0.00516416
0.000177894
0.000627386
-0.00559221
-0.000432792
0.000822547
-0.00743876
0.00108486
0.00119692
-0.00613277
0.00121262
0.00191022
-0.00540042
0.00074356
0.00191703
-0.00491856
3.43321e-05
0.00106102
-0.00428238
0.000163015
0.000597025
-0.00462635
0.000401561
0.000268125
-0.00512571
0.000303238
0.000422688
-0.00570874
0.000176409
0.000956153
-0.00559398
-0.00051493
0.000357081
-0.0074955
0.000909964
0.000889745
-0.00690121
0.000770696
0.00156317
-0.00567954
0.000563979
0.00133786
-0.00433707
-2.23549e-05
0.0011749
-0.00422076
-0.000235861
0.000854372
-0.0049527
-0.000269642
0.000527935
-0.00508031
-0.000156024
0.000309618
-0.00518089
-2.5427e-05
0.000706434
-0.00555564
-0.000328756
0.0011383
-0.0051076
-0.000798607
0.000237648
-0.00720797
0.000622193
0.000642321
-0.00702044
0.000491608
0.00112121
-0.00611926
0.000351063
0.00085181
-0.00450298
0.000236032
0.00106726
-0.0045534
-0.000269394
0.00114209
-0.00451448
-0.000524593
0.000802823
-0.0043771
-0.000483999
0.000418154
-0.00452301
-0.000520562
0.000230399
-0.00485775
-0.000466007
0.0010117
-0.00497157
-0.000694148
0.000999095
-0.0040835
-0.000600569
0.000171338
-0.00735159
0.000220898
0.000479332
-0.0070392
0.000159925
0.000639205
-0.00587217
0.000235317
0.00072091
-0.00456935
0.000180124
0.000770396
-0.00425206
-0.000147204
0.000951365
-0.00325247
-0.00055177
0.000726241
-0.00298178
-0.000593303
0.000489393
-0.00313928
-0.000567048
0.000361603
-0.00390578
-0.000518631
0.000629267
-0.00406078
-0.000596375
0.000854045
-0.00355592
-0.000517174
0.000980685
-0.00262297
-0.000384971
5.16564e-05
-0.00643748
1.51218e-05
0.000159546
-0.0060226
0.000119032
0.00026444
-0.00545909
0.000141323
0.00063546
-0.00468734
6.76501e-05
0.000404507
-0.00394663
-3.59632e-05
0.00063768
-0.00362192
-0.000102752
0.000771921
-0.00283369
-0.000176849
0.000515492
-0.00236944
-0.000316845
0.000401721
-0.00182703
-0.000340414
0.000586822
-0.00229714
-0.000342553
0.00058748
-0.00310649
-0.000337924
0.000701895
-0.00242347
-0.000337028
0.000584294
-0.00151944
-0.000434896
-0.000184713
-0.00471199
7.26023e-05
-9.20385e-06
-0.0053976
8.93236e-05
0.000104543
-0.00597194
8.89271e-05
0.000275338
-0.00493412
8.9805e-05
0.000310591
-0.00396617
-1.094e-05
0.000403164
-0.00364636
-0.000144493
0.000492972
-0.0025391
-0.000231369
0.000361493
-0.00173175
-0.000203652
0.000270757
-0.000862768
-0.000172553
0.000275135
-0.00124529
-0.000195885
0.00037001
-0.00249367
-0.000173626
0.000502341
-0.00129968
-0.000193262
0.000362283
-0.000343156
-0.000289686
0.000233109
-0.000324826
-0.000317227
-0.000116593
-0.00436695
-2.46845e-05
-4.63811e-05
-0.00493731
-1.1604e-05
7.81053e-06
-0.00534063
-9.97468e-06
5.44683e-05
-0.00478411
-6.59154e-06
0.000146032
-0.00472376
-1.44716e-07
0.000200868
-0.00376835
-1.85781e-05
0.0001958
-0.00229604
-4.61969e-05
0.000198754
-0.00126364
-5.62243e-05
0.000151336
-0.000105512
-6.78098e-05
0.000147198
0.00063469
-8.5235e-05
0.0001158
0.000461637
-8.57258e-05
0.000142316
-6.49896e-05
-7.04081e-05
0.000158403
0.000444182
-7.2243e-05
8.10487e-05
0.00122539
-8.27779e-05
5.70249e-05
0.00152004
-7.47915e-05
0.000795753
-0.00459097
0.0044088
0.000737963
-0.00471521
0.0040693
0.00075902
-0.00490943
0.00417369
0.000738397
-0.00478645
0.00386619
0.000959091
-0.00478284
0.00382102
0.00102321
-0.00471036
0.00408569
0.000791731
-0.00503582
0.00388907
0.00107785
-0.00515692
0.00359318
0.00123975
-0.00504228
0.00353932
0.00115241
-0.00513852
0.00359805
0.00075968
-0.0053688
0.00366452
0.00111735
-0.00533589
0.00366075
0.00124265
-0.00550838
0.00316403
0.00128553
-0.00570941
0.00324071
0.00102146
-0.00554701
0.00313108
0.0010998
-0.00581266
0.00317459
0.00117557
-0.00586794
0.00326485
0.00133494
-0.00602851
0.00289808
0.00166066
-0.00587503
0.0029487
0.000894781
-0.00583698
0.00278982
0.00135049
-0.00602013
0.00297814
0.0014483
-0.00621008
0.00298615
0.00119437
-0.0062224
0.00295274
0.00131891
-0.00623487
0.00237128
0.00120075
-0.00609732
0.0028762
0.000977248
-0.00591109
0.00248995
0.00168282
-0.00587869
0.00256752
0.00146924
-0.00612016
0.0027277
0.00129617
-0.00654257
0.00284773
0.00155521
-0.00623156
0.00252641
0.00157662
-0.00613084
0.00225809
0.00151026
-0.00552487
0.00186502
0.001008
-0.00608382
0.00227681
0.00171667
-0.0058222
0.00232007
0.00221847
-0.00619423
0.002385
0.0015891
-0.00654782
0.00237619
0.00109009
-0.00640311
0.00258823
0.00147585
-0.00607232
0.00173459
0.000967315
-0.00558869
0.00136431
0.000891746
-0.00635894
0.00196118
0.000979962
-0.00602156
0.0021601
0.00223956
-0.00604315
0.00195971
0.00206839
-0.00659491
0.00173245
0.00112936
-0.00630212
0.00174043
0.00100893
-0.00563796
0.00142695
0.000961356
-0.00518949
0.000674754
0.00108128
-0.00562107
-0.000133898
0.00108247
-0.00697752
0.00134239
0.00134759
-0.00611637
0.00140461
0.00209754
-0.00559538
0.00101305
0.00192485
-0.00595145
0.000791418
0.00123442
-0.00536597
0.000610444
0.000538531
-0.00474524
0.000809389
0.000215492
-0.00484224
0.000364375
0.000635368
-0.00552276
-0.000104239
0.00116191
-0.00585522
-0.000582065
0.000579916
-0.00752982
0.00103993
0.00110415
-0.00651343
0.0012511
0.00178261
-0.00530444
0.000897205
0.00196474
-0.00511612
0.000314243
0.00109226
-0.00425032
8.49023e-05
0.000725634
-0.00456973
0.000235137
0.000213238
-0.00486912
0.000459667
0.000249975
-0.00568876
0.0003429
0.00137332
-0.00577529
-0.000309168
0.00110415
-0.00598417
-0.000482201
0.00041042
-0.00754449
0.000673934
0.000865914
-0.00697687
0.000762026
0.00145446
-0.00580531
0.000563215
0.0012103
-0.00433203
0.000200444
0.00127986
-0.00419334
-0.000262366
0.000941774
-0.0046501
-0.00033815
0.000638816
-0.00493514
-0.00025081
0.000308652
-0.00511157
-0.000115849
0.000377081
-0.00540904
-0.000318709
0.00134568
-0.00504663
-0.000723703
0.00132128
-0.00451345
-0.000895555
0.000166685
-0.00724261
0.000592398
0.000675334
-0.00718555
0.000591297
0.0010986
-0.00641861
0.000331558
0.000936966
-0.00471061
0.000342634
0.000970101
-0.0043682
-0.000148874
0.00121798
-0.00459744
-0.000453053
0.000822
-0.00438095
-0.000616499
0.000560305
-0.00455783
-0.000520086
0.000198476
-0.00468535
-0.000529836
0.00073972
-0.0049856
-0.000562428
0.00101983
-0.00419163
-0.000751792
0.00112293
-0.00366644
-0.000600902
8.73211e-05
-0.00750228
0.000262296
0.000430172
-0.00727074
0.000181811
0.000502703
-0.00615932
0.000208813
0.000786839
-0.00478471
0.000299297
0.000677301
-0.00424365
-0.000101078
0.00101108
-0.00341449
-0.00035858
0.000778271
-0.00302535
-0.000514545
0.000524709
-0.00320167
-0.00054013
0.000295634
-0.00386306
-0.00050368
0.000608518
-0.00406683
-0.000534285
0.000772894
-0.00378115
-0.000556551
0.000933898
-0.00288133
-0.000490821
0.000854419
-0.00260016
-0.00057119
-5.40667e-05
-0.00662752
7.35229e-05
0.000112273
-0.00624271
0.000113759
0.000232826
-0.00563189
0.000163543
0.000605201
-0.00501617
0.000140285
0.000431185
-0.00400661
7.03602e-06
0.000552751
-0.00375784
-4.96311e-05
0.000812029
-0.00309408
-0.000161419
0.000535241
-0.00243176
-0.000288277
0.000363253
-0.00193709
-0.000299277
0.000492788
-0.00251949
-0.000335722
0.000561124
-0.00330168
-0.000338479
0.000654251
-0.00258351
-0.000329795
0.000639886