/*--------------------------------*- C++ -*----------------------------------*\
  =========                 |
  \\      /  F ield         | OpenFOAM: The Open Source CFD Toolbox
   \\    /   O peration     | Website:  https://openfoam.org
    \\  /    A nd           | Version:  7
     \\/     M anipulation  |
\*---------------------------------------------------------------------------*/
FoamFile
{
    version     2.0;
    format      ascii;
    class       volVectorField;
    location    "4.5";
    object      U_0;
}
// * * * * * * * * * * * * * * * * * * * * * * * * * * * * * * * * * * * * * //

dimensions      [0 1 -1 0 0 0 0];

internalField   nonuniform List<vector> 
18780
(
(2.00905 -1.26834 -0.615372)
(2.32473 -1.35552 0.92058)
(1.99405 -1.29036 -0.634339)
(1.90689 -1.50978 -0.643919)
(2.22492 -1.21004 -0.259629)
(2.36525 -1.16411 0.0364376)
(2.14762 -1.96524 -0.542566)
(1.98473 -1.31143 -0.693688)
(1.91107 -1.52197 -0.605224)
(2.03778 -1.675 -0.384544)
(2.39194 -1.4331 0.0470718)
(2.25873 -1.08683 -0.19865)
(1.9639 -1.8317 -0.149695)
(2.35062 -1.09951 0.471804)
(2.14614 -1.95646 -0.499468)
(2.04263 -1.65931 -0.50339)
(2.03367 -1.34004 -0.634763)
(1.92141 -1.50895 -0.530727)
(2.03308 -1.68789 -0.383692)
(1.74475 -1.50347 -0.602705)
(2.98194 -1.51441 0.525184)
(2.43519 -1.38752 0.041834)
(2.22079 -2.0493 -0.343287)
(2.26236 -1.01924 -0.0220746)
(1.96456 -1.8309 -0.0502437)
(1.99137 -1.84966 -0.77642)
(2.35651 -1.01748 0.259058)
(2.11417 -1.98379 -0.34472)
(2.02884 -1.78523 -0.161267)
(1.81224 -0.84526 -1.77309)
(2.02361 -1.34596 -0.670704)
(1.91891 -1.47615 -0.558624)
(2.02439 -1.71088 -0.366087)
(1.72315 -1.56681 -0.556324)
(1.26419 -1.98129 -0.58941)
(3.00153 -1.74114 0.258886)
(2.97729 -1.54924 0.339356)
(2.50987 -1.69621 1.03269)
(2.43288 -1.42386 0.032425)
(2.18786 -2.27869 -0.269141)
(2.13963 -1.77719 0.00843032)
(2.28706 -0.966312 0.0119772)
(2.05152 -1.74514 -0.291732)
(1.76587 -2.19074 -0.00886137)
(1.85401 -1.33242 -1.96187)
(2.36244 -0.968005 0.628381)
(2.11646 -1.95766 -0.3157)
(2.00908 -1.80611 -0.01979)
(1.79646 -0.907545 -1.61823)
(1.41058 -1.58128 -1.22382)
(1.95007 -1.37176 -0.673865)
(1.94817 -1.45817 -0.547581)
(2.02467 -1.69965 -0.286217)
(1.70286 -1.60234 -0.519327)
(1.27316 -2.09454 -0.298582)
(0.890339 -2.07656 0.159891)
(2.93938 -2.00042 2.23278)
(2.81388 -1.92749 0.923604)
(2.55491 -1.37365 0.326842)
(3.09504 -1.48023 0.64534)
(2.65661 -1.62261 0.302568)
(2.56239 -1.83982 0.155836)
(2.40843 -1.41532 0.142513)
(2.16908 -2.32309 -0.528404)
(2.03091 -1.93338 0.270617)
(2.2925 -1.43481 -1.53326)
(2.33432 -0.890803 0.0649614)
(2.07787 -1.76134 -0.133934)
(1.7771 -2.02814 -0.233267)
(1.70367 -1.31049 -1.77857)
(1.41001 -1.42651 -1.95979)
(2.3853 -0.91727 0.615792)
(2.10569 -1.9817 0.259067)
(2.00684 -1.85906 0.291083)
(1.73889 -1.17579 -1.32686)
(1.41318 -1.61625 -1.05076)
(1.14373 -2.02773 -1.27185)
(1.93002 -1.46259 -0.658054)
(1.95772 -1.44964 -0.532253)
(2.0037 -1.68993 -0.300518)
(1.69892 -1.63471 -0.491072)
(1.26315 -2.17012 -0.141608)
(0.889864 -2.16727 0.334321)
(0.432415 -1.88336 -1.0135)
(3.56908 -1.75327 1.92403)
(3.05333 -1.47879 1.73156)
(3.11587 -2.1287 0.437187)
(2.7005 -2.05003 1.45036)
(2.57237 -1.73687 0.791133)
(2.46758 -1.63983 -0.39377)
(3.20602 -1.29276 1.06754)
(2.54424 -1.87438 1.08722)
(2.19422 -2.18247 0.576492)
(2.76283 -1.31575 -0.651474)
(2.43931 -1.38431 0.296062)
(2.15165 -2.1957 -0.05124)
(1.98139 -1.9832 0.267033)
(2.25275 -1.63383 -1.2317)
(1.9095 -1.65577 -1.88288)
(2.39908 -0.759262 0.228111)
(2.17218 -1.59234 -0.08153)
(1.71368 -2.23866 0.247771)
(1.81757 -1.34157 -1.27037)
(1.44137 -1.49738 -1.85058)
(1.11465 -1.83045 -1.89355)
(2.39413 -0.845325 0.511177)
(2.12206 -1.86518 0.180932)
(2.0172 -1.91504 0.418447)
(1.67797 -1.42913 -0.97353)
(1.40928 -1.76193 -0.91381)
(1.09015 -2.32726 -0.691238)
(0.56856 -1.44868 -1.9122)
(1.95301 -1.48034 -0.680259)
(1.9592 -1.4548 -0.508831)
(1.99587 -1.73333 -0.258333)
(1.68547 -1.68131 -0.441108)
(1.25852 -2.23408 -0.0740981)
(0.872359 -2.25732 0.439695)
(0.413174 -1.85616 -0.882204)
(0.0758557 -1.61744 -1.15007)
(3.48848 -1.63303 2.2129)
(3.10194 -1.95798 2.401)
(3.49223 -2.18885 1.32382)
(2.71952 -1.86152 1.87592)
(3.19171 -2.12408 0.676331)
(2.36768 -1.3229 0.279249)
(2.81996 -1.94034 1.69518)
(2.48389 -2.31928 0.90295)
(2.28023 -1.73411 -0.0864028)
(2.55208 -1.5363 -0.284062)
(3.05072 -1.48507 1.32759)
(2.66586 -1.92807 0.574052)
(2.22141 -2.04159 0.504724)
(2.14926 -2.10031 -0.738393)
(2.51538 -1.6451 -1.08001)
(2.46548 -1.50686 0.342745)
(2.21362 -2.01288 0.22823)
(1.87685 -2.27605 0.248024)
(1.80333 -1.97612 -0.801244)
(1.85958 -1.92553 -1.68003)
(1.45112 -1.28423 -1.72648)
(2.48521 -0.741111 0.212341)
(2.1821 -1.55194 0.0738576)
(1.70519 -2.28248 0.328546)
(1.67016 -1.52175 -0.889578)
(1.46884 -1.68407 -1.46758)
(1.08778 -1.89765 -1.59244)
(0.950082 -1.65758 -1.90424)
(2.38689 -0.794468 0.508789)
(2.10109 -1.84831 0.0575432)
(2.0089 -1.98215 0.325674)
(1.59561 -1.56623 -0.617159)
(1.37776 -1.93799 -0.834405)
(1.07647 -2.10899 -0.724178)
(0.526053 -1.60128 -1.85153)
(0.257392 -0.763924 -1.90636)
(1.94213 -1.40686 -0.699076)
(1.98564 -1.47077 -0.456792)
(1.97532 -1.77891 -0.239817)
(1.67613 -1.71341 -0.406383)
(1.25125 -2.27815 -0.0718247)
(0.872337 -2.30191 0.448037)
(0.385459 -1.84215 -0.768437)
(0.0616352 -1.50793 -1.22476)
(-0.38672 -1.57449 -1.02614)
(3.35119 -0.663204 2.51451)
(3.44683 -1.22338 2.35031)
(3.19416 -1.37366 2.73582)
(3.3879 -1.70504 2.10206)
(3.11007 -1.64836 2.20669)
(3.19457 -2.46067 1.69354)
(3.27703 -1.73939 0.834887)
(2.74593 -2.16683 1.76505)
(2.78694 -2.5254 1.04949)
(2.3166 -1.72692 0.555471)
(2.02523 -0.576292 0.0139393)
(3.09644 -1.75183 1.47119)
(2.43621 -2.60732 0.70168)
(2.13129 -1.96528 0.322294)
(2.40603 -1.37489 -0.570057)
(2.66908 -1.01043 -0.160908)
(2.93893 -1.64346 1.48993)
(2.62241 -2.15288 0.304168)
(1.97407 -2.35386 0.722057)
(2.20193 -1.78199 -0.429208)
(2.43666 -1.7524 -1.1055)
(2.1491 -1.46122 -0.999255)
(2.5172 -1.73603 0.0482168)
(2.26468 -1.99566 0.355431)
(1.82061 -2.46997 0.236452)
(2.08254 -1.49844 -0.480445)
(1.76403 -2.12738 -1.38559)
(1.42815 -1.55171 -1.915)
(1.5844 -0.991095 -1.5789)
(2.53913 -0.815695 0.106743)
(2.29946 -1.42777 0.28783)
(1.74056 -2.23793 0.368672)
(1.61863 -1.5484 -0.637349)
(1.46365 -1.83806 -1.0299)
(1.04257 -1.97033 -1.42313)
(0.930054 -1.7732 -1.83791)
(0.982736 -1.57094 -1.91105)
(2.4124 -0.744275 0.504499)
(2.06537 -1.8727 -0.0240105)
(2.00768 -2.04002 0.339258)
(1.53642 -1.60793 -0.321493)
(1.32537 -2.04542 -0.782072)
(1.04061 -1.99469 -0.754159)
(0.448147 -1.86634 -1.53527)
(0.291945 -0.851032 -1.95779)
(-0.0634684 -0.907562 -1.72344)
(1.98675 -1.28475 -0.687088)
(1.98502 -1.4783 -0.448664)
(1.98423 -1.78036 -0.195291)
(1.65021 -1.76431 -0.354882)
(1.25316 -2.30615 -0.0725527)
(0.842897 -2.31795 0.417624)
(0.372778 -1.85759 -0.699061)
(0.0537817 -1.39356 -1.28065)
(-0.411029 -1.52932 -1.0682)
(-0.617605 -1.15832 -1.47308)
(3.09664 -0.57433 2.57204)
(3.25087 -1.27304 2.25895)
(3.44366 -0.584128 2.69432)
(2.98676 -1.86621 2.36762)
(3.2861 -1.52625 2.43507)
(3.08683 -1.48783 2.40315)
(3.20165 -1.96132 2.20404)
(3.33026 -1.99962 1.99729)
(2.91285 -1.90475 2.06639)
(3.04945 -2.33412 1.79889)
(3.16924 -2.08713 1.38482)
(2.48173 -0.916788 1.2521)
(2.11869 -2.44266 2.08904)
(2.58429 -2.70595 1.2675)
(2.24926 -2.26594 0.22757)
(1.97351 -0.557503 0.180871)
(2.31563 -0.571723 -0.0752253)
(2.77871 -1.91056 1.78015)
(2.36676 -2.76999 0.479615)
(1.95569 -2.04834 0.832876)
(2.07324 -1.93277 -0.354238)
(2.56985 -1.22274 -0.325927)
(2.74669 -1.01117 0.265485)
(2.91312 -2.00824 1.23547)
(2.76771 -1.89898 1.23963)
(1.98161 -2.36978 0.752396)
(2.15787 -1.89675 -0.112734)
(2.15424 -2.0141 -1.07878)
(2.15323 -1.63745 -1.04874)
(1.91592 -1.12467 -1.2667)
(2.61966 -1.81952 0.489071)
(2.10781 -2.1914 0.246943)
(1.72292 -2.52166 0.276612)
(1.85712 -1.71341 -0.325166)
(1.78316 -2.27524 -1.07538)
(1.39977 -1.63291 -2.04833)
(1.48742 -1.16067 -1.60799)
(1.67876 -0.973411 -1.86348)
(2.49265 -1.08643 0.129615)
(2.35398 -1.37063 0.411209)
(1.77226 -2.17057 0.463563)
(1.5329 -1.69811 -0.483729)
(1.47089 -1.82381 -0.700928)
(0.966754 -2.13085 -1.3247)
(0.855391 -1.98598 -1.60832)
(0.890903 -1.80599 -1.73126)
(0.515052 -1.69839 -2.10142)
(2.49369 -0.64782 0.460289)
(2.03814 -1.88442 0.146361)
(2.03833 -2.0531 0.409177)
(1.50189 -1.6911 0.00794057)
(1.29759 -2.088 -0.727496)
(1.03728 -2.07069 -0.705354)
(0.431205 -2.04001 -1.16887)
(0.299087 -1.05962 -1.85088)
(-0.0178846 -0.849022 -1.70921)
(0.172535 -1.36216 -1.52302)
(1.95644 -1.23511 -0.709296)
(1.9655 -1.48747 -0.430452)
(1.96159 -1.79996 -0.183357)
(1.62814 -1.78695 -0.321899)
(1.25541 -2.3156 -0.0563913)
(0.867961 -2.2845 0.342187)
(0.346339 -1.89966 -0.641496)
(0.0692275 -1.31282 -1.30125)
(-0.419868 -1.45636 -1.11956)
(-0.612378 -1.09035 -1.49792)
(-0.438694 -0.549186 -1.96593)
(3.00214 -0.268113 2.45687)
(3.08566 -0.688046 2.43496)
(3.14145 -0.552904 2.65419)
(2.97749 -1.20782 2.40629)
(3.28583 -1.011 2.64586)
(3.42328 -0.740214 2.63942)
(3.01884 -1.17934 2.46674)
(3.13877 -2.00953 2.30973)
(3.36096 -1.1956 2.67095)
(2.89588 -1.64438 2.55955)
(2.84036 -2.62699 1.95303)
(3.26574 -1.96218 2.2271)
(3.22389 -0.797451 2.31182)
(2.77678 -2.01592 2.07617)
(2.73546 -2.40509 2.03295)
(2.9245 -2.66678 0.904317)
(2.46639 -1.21116 1.45764)
(2.15815 -0.132249 1.06341)
(3.00016 -1.95995 1.39284)
(2.40276 -2.5674 1.73676)
(2.33645 -2.48578 0.538873)
(1.91432 -1.29598 0.42363)
(2.26244 -0.288188 0.513843)
(2.62811 -0.295112 0.545159)
(2.8764 -1.80928 1.62827)
(2.37687 -2.74947 0.556608)
(1.91972 -2.27909 0.709408)
(2.1351 -1.81621 -0.288827)
(2.42719 -1.58933 -0.658203)
(2.41632 -1.64192 0.14587)
(2.57739 -0.853522 0.153731)
(2.99164 -1.90377 1.35657)
(2.92029 -1.80979 1.61958)
(1.91158 -2.35438 0.846973)
(1.61303 -2.27385 0.545139)
(2.07795 -2.03818 -1.06196)
(1.98643 -1.90808 -1.13313)
(2.12932 -0.844533 -1.13407)
(2.12558 -0.744618 -1.11757)
(2.6667 -1.98634 0.512971)
(2.33189 -1.98689 0.701362)
(1.67857 -2.4807 0.271933)
(1.7889 -1.68885 -0.166817)
(1.46512 -2.34763 -1.09005)
(1.24695 -1.68123 -2.18097)
(1.37374 -1.32036 -1.64036)
(1.62528 -0.960211 -1.9158)
(2.05691 -1.15428 -1.42302)
(2.59134 -1.20615 -0.109985)
(2.39997 -1.30399 0.634566)
(1.89789 -1.99789 0.539271)
(1.30533 -2.12041 -0.102463)
(1.45361 -1.77459 -0.474356)
(0.936896 -2.1906 -1.30638)
(0.714946 -2.21509 -1.31395)
(0.897879 -1.90291 -1.55287)
(0.61251 -1.67755 -2.01385)
(0.715292 -1.7878 -2.11812)
(2.50887 -0.596149 0.48924)
(2.02893 -1.78417 0.568719)
(2.08093 -2.0607 0.372069)
(1.46355 -1.86531 0.634214)
(1.18068 -2.25609 -0.282239)
(0.999583 -2.20082 -0.725904)
(0.390642 -2.11342 -0.907759)
(0.308099 -1.31434 -1.64919)
(0.0237187 -0.98866 -1.52444)
(0.222558 -1.46689 -1.30369)
(0.7782 -1.53483 -1.42873)
(1.70532 -1.58026 -0.745992)
(1.96511 -1.52865 -0.416102)
(1.99537 -1.76587 -0.220395)
(1.6103 -1.80894 -0.272061)
(1.25183 -2.32484 -0.0414485)
(0.839489 -2.24664 0.244487)
(0.327423 -1.91666 -0.63981)
(0.0432988 -1.38303 -1.25181)
(-0.430946 -1.37313 -1.16623)
(-0.621013 -1.03526 -1.52685)
(-0.416539 -0.533751 -1.99443)
(-0.215042 -0.800713 -1.72137)
(2.5213 -0.168634 2.53302)
(2.68144 -0.421084 2.62533)
(2.96816 -0.454978 2.43824)
(2.90516 -0.524582 2.56696)
(2.93514 -0.872545 2.52586)
(3.12131 -0.76417 2.54578)
(3.18364 -0.53973 2.59586)
(2.96809 -1.17698 2.41427)
(3.06196 -1.4324 2.49839)
(3.31632 -0.920244 2.72598)
(3.28766 -0.442145 2.7685)
(2.84693 -1.60563 2.4773)
(2.91311 -1.81615 2.18448)
(3.37924 -1.11691 2.72099)
(3.34804 -0.720041 2.644)
(2.84305 -1.71381 2.59018)
(2.61145 -2.50376 2.04781)
(3.17571 -2.06239 2.1407)
(3.13345 -1.08188 2.32848)
(2.57182 -0.272773 2.67164)
(2.86581 -2.07094 1.879)
(2.62837 -2.50834 2.02751)
(2.50053 -3.11313 0.931304)
(2.70743 -1.83608 0.815899)
(2.08471 -0.288046 1.60874)
(2.43856 -0.173083 0.670314)
(2.64888 -2.19823 1.6417)
(1.87908 -2.44958 2.05607)
(2.27031 -2.58296 0.943189)
(1.88403 -1.72837 0.436333)
(2.0136 -0.913826 0.172852)
(2.45498 -0.655674 0.508395)
(2.92411 0.212331 0.26472)
(2.79582 -2.26532 1.48647)
(2.44939 -2.53062 1.57358)
(1.85355 -2.62741 1.00029)
(1.4044 -2.37805 0.438556)
(1.91992 -2.17402 -0.563361)
(2.46034 -1.35232 -0.367165)
(2.56583 -0.863831 0.0561256)
(2.58892 -0.439223 -0.291694)
(2.95591 -1.94821 1.32793)
(2.63362 -2.47839 1.32051)
(1.94777 -2.20049 1.2914)
(1.91601 -1.79863 0.336694)
(2.05676 -2.19434 -0.944658)
(2.03033 -1.86976 -1.29554)
(1.70357 -1.61177 -1.2707)
(2.10647 -0.822631 -1.15542)
(2.53723 -0.785526 -0.920324)
(2.59592 -2.30271 0.423948)
(2.48207 -1.98187 0.915593)
(1.66581 -2.35303 0.600733)
(1.71867 -1.79624 0.000815654)
(1.58468 -2.08374 -0.752503)
(1.08838 -2.07777 -1.93189)
(1.33152 -1.35915 -1.78575)
(1.47314 -0.926853 -1.95761)
(2.03392 -1.18301 -1.31634)
(2.04502 -1.49122 -1.4473)
(2.62423 -1.43517 0.0506942)
(2.39414 -1.45721 0.599592)
(1.94391 -1.89185 0.60136)
(1.159 -2.38634 0.086371)
(1.40745 -1.78606 -0.206014)
(0.933802 -2.20674 -1.20045)
(0.593331 -2.46689 -0.894705)
(0.753312 -1.906 -1.5053)
(0.513258 -1.78311 -1.80716)
(0.704636 -1.93081 -1.90907)
(1.2216 -1.73103 -1.33726)
(2.5263 -0.625677 0.368222)
(2.05338 -1.77017 0.201369)
(2.08928 -2.09626 0.438777)
(1.4703 -1.93721 0.863087)
(1.09911 -2.24127 0.0877181)
(0.959731 -2.28559 -0.727295)
(0.389741 -2.10887 -0.845627)
(0.329031 -1.34699 -1.61416)
(0.0445645 -1.16959 -1.29337)
(0.279413 -1.41011 -1.18816)
(0.83235 -1.52376 -1.4495)
(0.33997 -1.58293 -1.42922)
(1.9551 -1.30126 -0.74548)
(1.95895 -1.54305 -0.430001)
(1.97555 -1.77818 -0.214563)
(1.63048 -1.77644 -0.309786)
(1.23057 -2.33031 -0.0239525)
(0.831419 -2.22323 0.196608)
(0.336796 -1.89265 -0.660182)
(-0.00255788 -1.51223 -1.20941)
(-0.418638 -1.28834 -1.22477)
(-0.621208 -1.02661 -1.54862)
(-0.403086 -0.524785 -2.02207)
(-0.184644 -0.729066 -1.7656)
(-0.356159 -1.06793 -1.45401)
(2.37984 -0.108354 2.62438)
(2.5866 -0.315166 2.47018)
(2.37987 -0.142222 2.71803)
(2.65436 -0.446852 2.62276)
(2.76249 -0.272629 2.52848)
(2.72567 -1.30907 2.39921)
(2.89603 -0.623357 2.57384)
(2.95496 -0.726068 2.53586)
(2.81975 -1.08494 2.41322)
(3.01863 -1.01953 2.54675)
(3.0126 -1.03259 2.59577)
(3.12032 -0.609864 2.60751)
(2.90777 -1.31156 2.43658)
(3.04075 -1.21505 2.48501)
(3.20085 -1.15786 2.73387)
(3.3951 -0.496892 2.64742)
(3.1425 -0.738136 2.51649)
(2.75011 -1.54249 2.57745)
(2.66337 -2.0648 2.20894)
(2.69622 -2.04156 2.80215)
(3.34712 -1.09329 2.51991)
(3.08349 -0.817708 2.58012)
(2.42976 -1.9284 2.68133)
(2.56142 -2.42077 2.23473)
(2.64071 -2.44422 2.21524)
(3.0964 -2.06655 1.89922)
(3.08309 -1.54859 1.50889)
(2.49297 -0.440015 1.61118)
(2.61201 -2.25432 1.79114)
(2.42896 -2.23752 2.41975)
(2.51288 -3.04972 1.21972)
(2.66923 -2.36509 0.794168)
(2.20353 -0.882551 1.21364)
(2.38965 -0.340854 0.818167)
(2.68969 -0.127851 0.383424)
(2.842 -2.42739 1.15853)
(2.16001 -2.62372 1.4047)
(1.779 -2.82917 1.36818)
(1.63112 -2.22348 0.179742)
(1.89999 -0.948569 0.223689)
(2.33711 -0.751301 0.416177)
(2.70983 -0.802393 0.7454)
(2.78352 -0.243 -0.137231)
(2.98708 -2.15609 1.62115)
(2.63892 -2.44193 1.74962)
(1.7902 -2.89488 0.913614)
(1.83276 -1.78762 0.185394)
(1.95426 -2.0222 -0.575388)
(2.17842 -1.8017 -0.258378)
(2.41565 -1.2724 -0.240471)
(2.53546 -0.65285 -0.0939136)
(2.58197 -1.09058 -0.599545)
(2.89903 -2.05999 1.34841)
(2.4371 -2.71965 1.43109)
(1.89575 -2.52737 1.01564)
(1.58105 -2.09403 0.788411)
(1.08822 -2.87491 -0.152381)
(1.8236 -2.13757 -1.17219)
(2.08054 -1.03386 -1.37862)
(2.0652 -0.831557 -1.35232)
(2.35638 -0.858937 -0.962552)
(2.4814 -1.39855 -1.04447)
(2.60704 -2.47586 0.541153)
(2.31626 -2.45212 0.719026)
(1.82917 -2.24997 0.512506)
(1.52917 -2.12044 0.44536)
(1.40359 -2.11131 -0.195532)
(1.10946 -2.20533 -1.79204)
(1.1222 -1.65688 -1.87978)
(1.45617 -1.02166 -1.8674)
(1.90048 -1.24354 -1.4168)
(2.13024 -1.47066 -1.44866)
(1.68441 -1.91565 -1.50882)
(2.35414 -1.98594 -0.182093)
(2.42219 -1.55771 0.532248)
(1.96188 -1.85284 0.614193)
(1.08039 -2.53174 0.03093)
(1.31003 -1.82673 0.100161)
(0.934303 -2.26812 -0.860193)
(0.527121 -2.55553 -0.592753)
(0.674826 -2.09415 -1.10977)
(0.569211 -1.644 -1.54147)
(0.752323 -1.89085 -1.4805)
(1.29947 -1.68572 -1.36106)
(1.03293 -1.44428 -1.54889)
(2.53271 -0.826949 0.38244)
(2.06565 -1.72557 0.597534)
(2.05848 -2.18433 0.503945)
(1.50572 -1.96801 0.888675)
(1.071 -2.12646 0.0623526)
(0.893337 -2.31844 -0.695152)
(0.425836 -2.01939 -1.2606)
(0.375186 -1.36773 -1.68548)
(0.0410501 -1.26221 -1.08377)
(0.324454 -1.2369 -1.2717)
(0.876543 -1.53918 -1.38482)
(0.353883 -1.86183 -1.18685)
(0.107133 -1.0928 -1.81766)
(1.86899 -1.32779 -0.744826)
(1.93549 -1.56958 -0.386681)
(1.84922 -1.92787 -0.035777)
(1.63191 -1.79303 -0.27157)
(1.21302 -2.33348 -0.0279648)
(0.810483 -2.26689 0.107272)
(0.331365 -1.82517 -0.706801)
(-0.0592181 -1.63479 -1.19231)
(-0.413515 -1.22152 -1.27423)
(-0.636635 -1.03452 -1.57775)
(-0.372545 -0.485551 -2.05497)
(-0.148544 -0.643754 -1.75172)
(-0.352678 -1.1381 -1.40556)
(-0.609869 -0.496133 -1.66047)
(2.336 -0.0872919 2.58918)
(2.35822 -0.259979 2.57348)
(2.45321 -0.122928 2.57967)
(2.53805 -0.381941 2.5096)
(2.49846 -0.500033 2.55798)
(2.52474 -0.140374 2.63873)
(2.48216 -0.702654 2.6207)
(2.66148 -0.625917 2.63075)
(2.78573 -0.484919 2.51587)
(2.76665 -0.619805 2.4734)
(2.889 -0.818104 2.48194)
(2.9338 -0.629035 2.54243)
(2.92868 -0.468187 2.56801)
(2.71401 -1.18849 2.39753)
(2.8381 -1.23115 2.57561)
(2.96353 -0.972651 2.60149)
(3.18814 -0.755038 2.42945)
(3.16825 -0.840916 2.32699)
(2.55953 -1.55583 2.47052)
(2.79079 -1.92596 2.2904)
(3.04232 -1.28442 2.73143)
(3.15106 -1.29775 2.66241)
(3.15915 -0.852882 2.46979)
(3.01833 -0.848117 2.20739)
(2.4186 -1.90117 2.40538)
(2.75436 -2.2076 2.14758)
(2.69757 -2.03704 2.44464)
(3.21006 -1.63662 2.39905)
(2.99725 -0.84982 2.67391)
(2.99293 -1.33238 1.34791)
(2.76808 -1.89699 2.22998)
(2.56587 -2.20177 2.53153)
(2.48994 -2.61425 2.1727)
(2.80264 -2.4785 1.87727)
(2.72798 -0.921339 2.57333)
(2.68131 -0.797283 1.6002)
(2.66338 -0.581998 0.927577)
(2.68911 -2.30456 1.6921)
(2.24975 -2.41371 2.02193)
(1.96505 -3.02661 1.79135)
(2.48664 -2.84908 0.720243)
(2.17354 -1.3815 0.919061)
(2.22404 -0.433917 1.02014)
(2.576 -0.1769 0.586068)
(2.74334 -0.416562 -0.384969)
(2.75602 -2.53346 1.59188)
(2.03376 -2.46472 2.12325)
(1.80402 -2.89221 1.37221)
(1.83894 -2.25669 0.0285716)
(1.86576 -1.33019 0.193247)
(2.11714 -1.17749 0.55961)
(2.48474 -0.709288 0.553253)
(2.80607 -0.462163 0.404751)
(2.80766 -1.06018 -0.766887)
(2.92319 -2.10906 1.8736)
(2.5156 -2.55284 1.72381)
(1.68056 -3.01817 1.16726)
(1.43513 -2.186 0.511742)
(1.66343 -2.41191 -0.469005)
(2.10805 -1.89246 -0.348181)
(2.2378 -1.48211 -0.492441)
(2.49753 -0.815934 -0.00597169)
(2.83513 -0.404869 0.0390275)
(2.80069 -1.43377 -1.31023)
(2.85059 -2.13864 1.36868)
(2.49289 -2.60893 1.63687)
(1.90998 -2.78034 0.62406)
(1.52221 -2.05222 0.937865)
(1.79734 -2.03204 -0.533238)
(1.4804 -2.48009 -1.00987)
(1.69839 -1.8989 -1.39296)
(1.96867 -0.954484 -1.37838)
(2.36293 -0.449654 -1.02765)
(2.21153 -1.17512 -1.57243)
(1.99366 -1.55549 -1.56863)
(2.67817 -2.50023 0.654723)
(2.36033 -2.66573 0.627231)
(1.8707 -2.3401 0.496504)
(1.25272 -2.38315 0.73673)
(1.41663 -1.96987 0.220115)
(0.691853 -2.29942 -1.77326)
(0.979661 -1.81266 -1.81512)
(1.27728 -1.21667 -1.88436)
(1.72232 -1.21743 -1.55539)
(1.73939 -1.60429 -1.75701)
(1.56638 -1.73616 -1.69083)
(1.24856 -2.11233 -1.16702)
(2.14692 -2.33569 -0.294344)
(2.27242 -1.9017 0.527359)
(1.93833 -1.90495 0.61251)
(1.03225 -2.6037 0.0777527)
(1.24195 -1.86282 0.224534)
(0.927962 -2.1671 -0.720907)
(0.440781 -2.62699 -0.317139)
(0.631692 -1.87001 -1.24369)
(0.607273 -1.31902 -1.52577)
(0.807886 -1.61067 -1.37275)
(1.32551 -1.71544 -1.42034)
(1.07527 -1.62467 -1.41944)
(0.745437 -1.49241 -1.64637)
(2.56732 -0.85606 0.376416)
(2.1206 -1.68746 0.611293)
(2.0312 -2.23386 0.60337)
(1.54858 -2.01207 0.794974)
(1.0059 -2.10693 0.173156)
(0.744932 -2.3581 -0.569911)
(0.424457 -2.00662 -1.6396)
(0.29145 -1.40348 -1.78093)
(0.0638668 -1.16455 -1.04951)
(0.34327 -1.13786 -1.37465)
(0.917316 -1.51733 -1.37686)
(0.34336 -2.08411 -0.979874)
(0.0926264 -1.02557 -1.89273)
(0.148033 -0.636766 -2.28054)
(1.88373 -1.28488 -0.755541)
(1.92947 -1.53467 -0.392566)
(1.98408 -1.80796 -0.194098)
(1.62869 -1.79279 -0.274443)
(1.20034 -2.3662 -0.010511)
(0.761683 -2.30943 0.0509786)
(0.327138 -1.80511 -0.73908)
(-0.112395 -1.74105 -1.19849)
(-0.427027 -1.20963 -1.274)
(-0.64557 -1.03116 -1.62913)
(-0.375468 -0.579847 -2.03746)
(-0.0909208 -0.551071 -1.68374)
(-0.361614 -1.18178 -1.35319)
(-0.610492 -0.482486 -1.67821)
(-0.721805 -0.306036 -1.75083)
(2.22053 -0.0758706 2.5836)
(2.29009 -0.156016 2.55831)
(2.42989 -0.0572266 2.5286)
(2.26516 -0.274903 2.62378)
(2.36421 -0.302797 2.59661)
(2.24651 -0.334614 2.7011)
(2.41823 -0.616723 2.53231)
(2.4694 -0.502159 2.61742)
(2.48044 -0.583216 2.56354)
(2.53209 -0.409996 2.58161)
(2.51379 -0.700802 2.61041)
(2.56886 -0.723493 2.65207)
(2.66932 -0.690229 2.56885)
(2.76387 -0.521542 2.5604)
(2.58229 -1.16091 2.47914)
(2.75791 -0.982569 2.40386)
(2.88963 -0.816731 2.52584)
(2.91444 -0.672521 2.56782)
(2.82055 -0.992705 2.43626)
(2.71451 -1.12516 2.43528)
(2.73526 -1.3706 2.38315)
(2.99458 -1.12754 2.597)
(2.98099 -0.808413 2.60508)
(3.05767 -0.94052 2.40394)
(2.7021 -0.440593 2.90534)
(2.59206 -1.37399 2.3143)
(2.43637 -2.17155 2.25315)
(2.9162 -1.55212 2.65177)
(3.1157 -1.28173 2.5376)
(2.93589 -1.20289 2.71821)
(2.9303 -1.07502 2.11628)
(2.75474 -0.87349 2.25525)
(2.48801 -1.87893 2.35605)
(1.9506 -2.45364 2.56144)
(2.52244 -2.36952 2.39246)
(3.04488 -1.72965 2.42191)
(2.89221 -1.02247 2.93861)
(2.94137 -1.25389 1.70361)
(2.69095 -0.426758 2.06767)
(2.63647 -1.9858 2.35552)
(2.36162 -1.92719 2.71401)
(2.34318 -2.80486 2.19943)
(2.69061 -2.53508 1.96714)
(2.88327 -1.57161 2.01932)
(2.58048 -0.967207 2.07794)
(2.39658 -0.848838 1.34229)
(2.75944 -0.76719 0.179609)
(2.60467 -2.38156 1.79843)
(2.15088 -2.4043 2.11783)
(1.83201 -3.05444 1.63738)
(2.08149 -3.27536 0.923527)
(2.2467 -1.92608 0.738538)
(2.18345 -0.804545 0.993334)
(2.38386 -0.303931 0.679553)
(2.65933 -0.575481 -0.11675)
(2.92948 -1.01275 -0.870614)
(2.84063 -2.55359 1.68003)
(2.21399 -2.5358 1.87731)
(1.73202 -2.86899 1.70616)
(1.64618 -2.55968 0.928463)
(1.66546 -1.68951 0.0879215)
(2.03088 -1.23676 0.321633)
(2.33566 -0.642963 0.696475)
(2.79347 -0.479473 0.382427)
(2.72072 -1.49805 0.128035)
(3.02518 -1.46808 -1.03554)
(2.77303 -2.77245 1.42033)
(2.31634 -2.76496 1.57139)
(1.61027 -3.02021 1.17355)
(1.36583 -2.16749 0.948768)
(0.969022 -2.538 -0.593773)
(1.99765 -2.1933 -0.439911)
(2.16094 -1.54346 -0.685433)
(2.34673 -1.05169 -0.0742421)
(2.55499 -0.733408 -0.0866201)
(2.21405 -1.96902 -1.31585)
(2.06438 -1.54672 -1.87102)
(2.58774 -2.55114 1.3008)
(2.27724 -2.89215 1.54052)
(1.77549 -2.9368 0.709252)
(1.33924 -2.22626 0.979316)
(1.22732 -2.50279 0.161427)
(1.70883 -2.41704 -0.758279)
(1.66555 -1.87718 -1.46691)
(2.06766 -1.45952 -0.796921)
(2.24936 -0.857518 -0.954562)
(2.39599 -1.22791 -1.11262)
(2.0254 -1.57338 -1.56469)
(1.78559 -1.76434 -1.46585)
(2.67587 -2.53287 0.580051)
(2.20923 -2.96166 0.649058)
(1.86883 -2.5557 0.380799)
(1.09519 -2.63118 0.886452)
(1.37828 -1.92893 0.37761)
(0.866445 -2.29927 -1.09663)
(0.855805 -1.98314 -1.59628)
(1.22793 -1.38334 -1.68514)
(1.7056 -1.21694 -1.51625)
(1.73562 -1.7403 -1.49138)
(1.66763 -1.46917 -1.76177)
(1.26121 -1.97042 -1.30658)
(1.28765 -1.61344 -1.32933)
(2.44843 -2.21912 0.018982)
(2.20898 -2.19279 0.435678)
(1.97447 -1.99489 0.549487)
(1.14129 -2.57038 0.565781)
(1.08536 -2.00538 0.506543)
(0.998447 -2.0582 -0.533619)
(0.426454 -2.6331 -0.166353)
(0.581655 -1.8785 -1.18315)
(0.603568 -1.16482 -1.4097)
(0.901753 -1.34329 -1.33259)
(1.28559 -1.72204 -1.4679)
(1.06205 -1.72903 -1.35321)
(0.747231 -1.74327 -1.39941)
(0.642683 -1.32563 -2.31777)
(2.55254 -0.852783 0.379606)
(2.13492 -1.70277 0.653778)
(2.06635 -2.21154 0.692082)
(1.58527 -2.05328 0.69267)
(0.978236 -2.11812 0.480493)
(0.732567 -2.39553 -0.313275)
(0.367456 -2.13826 -1.51669)
(0.283516 -1.67256 -1.61914)
(0.0866968 -1.08153 -1.10012)
(0.332952 -1.11889 -1.42408)
(0.987507 -1.46642 -1.40115)
(0.377108 -2.03211 -0.976549)
(0.100706 -1.12661 -1.74629)
(0.178012 -0.719374 -2.15943)
(0.07457 -0.716637 -2.54495)
(1.86171 -1.3083 -0.773228)
(1.92496 -1.57704 -0.336832)
(1.94059 -1.85261 -0.122861)
(1.56206 -1.85226 -0.224916)
(1.1886 -2.36711 -0.0188941)
(0.749931 -2.31231 0.00952997)
(0.331465 -1.79621 -0.868939)
(-0.152179 -1.7934 -1.24654)
(-0.480724 -1.31281 -1.20847)
(-0.681243 -1.08264 -1.63633)
(-0.391631 -0.643407 -1.99893)
(-0.0414098 -0.505017 -1.56626)
(-0.364579 -1.17786 -1.28908)
(-0.595515 -0.450451 -1.7031)
(-0.707025 -0.335241 -1.76625)
(-0.756868 -0.546985 -1.6805)
(2.00769 0.0103076 2.46765)
(2.20671 -0.142569 2.49857)
(2.21072 0.0180053 2.61238)
(2.25785 -0.338615 2.57281)
(2.28643 -0.280115 2.57916)
(2.08238 -0.0588028 2.73971)
(2.27833 -0.331424 2.59317)
(2.26226 -0.530989 2.64919)
(2.30444 -0.345558 2.60632)
(2.21453 -0.110418 2.79984)
(2.37694 -0.614608 2.58429)
(2.4508 -0.628867 2.59456)
(2.4054 -0.624798 2.63995)
(2.51091 -0.520787 2.58705)
(2.50776 -0.452629 2.60277)
(2.49457 -0.883415 2.61339)
(2.44302 -0.802453 2.65383)
(2.63333 -0.732047 2.61627)
(2.78965 -0.836105 2.42008)
(2.71779 -0.582206 2.58097)
(2.46746 -1.23936 2.45528)
(2.57701 -1.22198 2.45966)
(2.64858 -1.29162 2.52768)
(2.85489 -0.831717 2.58685)
(2.84987 -0.734769 2.45258)
(2.81333 -0.703164 2.53359)
(2.52952 -1.56057 2.32156)
(2.61511 -1.40652 2.40483)
(2.71451 -1.42241 2.66726)
(2.92693 -1.07344 2.55941)
(2.90312 -1.15369 2.41491)
(3.11848 -1.08762 2.10675)
(2.80155 -0.869778 2.52255)
(2.47225 -1.66633 2.37474)
(2.37205 -1.68248 2.44212)
(2.31272 -2.30772 2.601)
(2.91375 -1.67134 2.53974)
(2.89658 -1.16627 2.80755)
(2.95698 -1.18101 2.08716)
(2.71133 -0.995466 2.49449)
(2.79656 -1.3266 1.56251)
(2.42873 -1.98081 2.36354)
(2.53473 -1.71241 2.4717)
(2.30136 -2.58243 2.39364)
(2.63479 -2.1966 2.65303)
(2.95491 -1.35662 2.59988)
(2.68196 -1.29309 2.51102)
(2.64984 -0.870087 1.97116)
(2.82563 -0.975595 1.1062)
(2.15866 -2.54731 2.21289)
(2.23278 -2.3821 2.32737)
(1.93114 -2.63141 2.5049)
(2.78557 -2.12657 2.45167)
(2.68197 -1.7126 2.13556)
(2.70212 -1.03402 2.10369)
(2.44154 -0.619666 1.35089)
(2.59784 -0.84888 0.26559)
(3.00334 -1.17574 -0.554052)
(2.53618 -2.30673 1.89694)
(2.12659 -2.61608 1.93824)
(1.63333 -3.09595 1.73521)
(1.86804 -3.34553 1.06247)
(2.18123 -1.86643 1.24304)
(2.14129 -1.31113 0.920729)
(2.2748 -0.548819 1.15738)
(2.66978 -0.56826 0.2877)
(2.70391 -1.63833 -0.174882)
(3.14784 -0.928385 -0.881617)
(2.74526 -2.4758 1.81161)
(2.19701 -2.65521 1.68546)
(1.23165 -2.74634 2.13395)
(1.70581 -2.54259 1.11972)
(1.4725 -1.8499 0.082208)
(1.88364 -1.53465 0.186612)
(2.18929 -1.12626 0.408228)
(2.50824 -0.557313 0.744728)
(2.67485 -0.736824 0.713157)
(2.70656 -1.50376 -1.07338)
(2.68128 -1.86432 -0.588438)
(2.75216 -2.4257 2.0993)
(2.24963 -2.93695 1.17077)
(1.45096 -3.04372 1.31982)
(1.1036 -2.40082 0.9698)
(1.44324 -2.0486 -0.177033)
(1.0429 -2.71789 -0.42412)
(1.94738 -1.88576 -0.807022)
(2.24745 -1.30762 -0.239599)
(2.50553 -0.49418 -0.342928)
(2.31974 -1.45606 -1.07673)
(2.23529 -1.63501 -1.29484)
(1.79825 -1.75215 -1.82425)
(2.56674 -2.67402 1.33917)
(2.39377 -2.85567 1.47524)
(2.11799 -2.73652 1.26622)
(1.30908 -2.5294 0.823656)
(1.20519 -2.41226 0.628703)
(0.874739 -2.67447 -0.867717)
(1.49822 -2.08229 -1.32599)
(1.78987 -1.60632 -1.36547)
(2.04926 -0.856516 -1.53295)
(2.17323 -1.25151 -1.48292)
(1.79506 -1.80743 -1.46563)
(1.73172 -1.52171 -1.86428)
(1.37986 -1.77509 -1.52194)
(2.61762 -2.70689 0.750741)
(2.34757 -2.92366 0.955453)
(1.83342 -2.74948 0.488698)
(1.02097 -2.86625 0.850595)
(1.1845 -2.068 0.962219)
(0.674545 -2.1625 -0.975417)
(0.544064 -2.32985 -1.11383)
(1.09385 -1.60625 -1.45733)
(1.52098 -1.3277 -1.54289)
(1.62793 -1.75932 -1.43754)
(1.66517 -1.55285 -1.69689)
(1.29588 -1.81385 -1.48598)
(1.22859 -1.47637 -1.61236)
(1.10138 -1.26624 -2.36945)
(2.4216 -2.35308 0.0283508)
(2.21196 -2.25286 0.631915)
(1.93577 -2.11467 0.597758)
(1.28738 -2.53983 0.824315)
(0.949364 -2.14106 0.641551)
(1.00771 -1.93983 -0.445097)
(0.393919 -2.65705 0.0954821)
(0.457645 -1.93478 -1.20924)
(0.65653 -1.06537 -1.24709)
(0.962971 -1.27014 -1.1012)
(1.36789 -1.57179 -1.47474)
(1.02225 -1.78829 -1.31813)
(0.69748 -1.71496 -1.4276)
(0.613853 -1.38483 -2.03635)
(0.553529 -1.58327 -2.63244)
(2.49063 -1.1039 0.335302)
(2.14558 -1.8077 0.686252)
(2.11623 -2.16389 0.748138)
(1.5937 -2.08556 0.555401)
(0.939714 -2.13336 0.786021)
(0.614262 -2.40887 0.359122)
(0.202462 -2.34945 -0.971585)
(0.362366 -1.52277 -1.95008)
(0.102346 -1.03254 -1.21341)
(0.275454 -1.21116 -1.40223)
(0.986733 -1.48951 -1.38113)
(0.49973 -1.78887 -1.14236)
(0.0403089 -1.44909 -1.37637)
(0.173964 -0.88635 -1.97468)
(0.130405 -0.706589 -2.56856)
(-0.0408605 -0.876859 -2.47598)
(1.87788 -1.26438 -0.792367)
(1.93971 -1.59563 -0.374336)
(1.89554 -1.89287 -0.113838)
(1.52261 -1.90189 -0.185803)
(1.17118 -2.36663 -0.0133333)
(0.743819 -2.30472 -0.0647222)
(0.304412 -1.80386 -0.955713)
(-0.159038 -1.77295 -1.33364)
(-0.563424 -1.45362 -1.13029)
(-0.72868 -1.16395 -1.62759)
(-0.387911 -0.684483 -1.92981)
(-0.00125358 -0.489048 -1.44134)
(-0.334765 -1.0627 -1.29035)
(-0.597148 -0.461574 -1.70703)
(-0.702097 -0.351169 -1.78395)
(-0.745911 -0.546124 -1.69952)
(-0.581185 -0.814176 -1.86547)
(1.96526 -0.143639 2.21205)
(2.02488 0.0696999 2.3793)
(1.99151 -0.224143 2.50188)
(2.10326 -0.383037 2.51178)
(2.17312 0.0309544 2.60494)
(2.09942 -0.0590626 2.57137)
(2.23291 -0.424352 2.55025)
(2.32173 -0.345692 2.51107)
(2.02539 -0.271832 2.79198)
(2.31797 -0.362897 2.50396)
(2.29188 -0.518939 2.62615)
(2.22165 -0.521466 2.64964)
(2.24039 -0.453827 2.64471)
(2.24101 -0.318231 2.7849)
(2.32998 -0.397924 2.65799)
(2.32451 -0.766007 2.6731)
(2.34894 -0.749603 2.61028)
(2.33891 -0.759127 2.68593)
(2.39554 -0.525629 2.65085)
(2.52497 -0.568206 2.628)
(2.5916 -0.46005 2.58777)
(2.32013 -1.07863 2.55332)
(2.43054 -0.95293 2.67398)