/*--------------------------------*- C++ -*----------------------------------*\
  =========                 |
  \\      /  F ield         | OpenFOAM: The Open Source CFD Toolbox
   \\    /   O peration     | Website:  https://openfoam.org
    \\  /    A nd           | Version:  7
     \\/     M anipulation  |
\*---------------------------------------------------------------------------*/
FoamFile
{
    version     2.0;
    format      ascii;
    class       volScalarField;
    location    "6";
    object      nut;
}
// * * * * * * * * * * * * * * * * * * * * * * * * * * * * * * * * * * * * * //

dimensions      [0 2 -1 0 0 0 0];

internalField   nonuniform List<scalar> 
18750
(
0.000270855
0.000418778
0.000335369
0.000274021
0.000410884
0.000290375
0.000412363
0.000305645
0.000316504
0.000265875
0.000808399
0.000348527
0.00040393
0.000607684
0.000292577
0.000429645
0.000435464
0.000306482
0.000314211
0.000227837
0.0016589
0.000730973
0.000803321
0.000250563
0.000279355
0.000405953
0.00028167
0.000558817
0.000351901
0.000445219
0.000247903
0.000487217
0.000354149
0.00030903
0.000209011
0.00373327
0.00115834
0.00201288
0.000652741
0.0006579
0.000781558
0.000805523
0.000271726
0.000378629
0.000381036
0.000448749
0.000408031
0.000528427
0.000373686
0.000445093
0.000196529
0.00014578
0.000527333
0.00031502
0.000266975
0.000330965
0.00280636
0.0013446
0.00329998
0.00136564
0.00138675
0.00191605
0.000788436
0.000551182
0.000567628
0.000788447
0.00063433
0.000534721
0.000282707
0.000422488
0.000360957
0.000172725
0.000346263
0.000456895
0.000474351
0.000376877
0.000481347
0.000170642
7.83888e-05
0.000237057
0.000527984
0.000256602
0.000240789
0.000200746
0.00297603
0.00118757
0.00270502
0.000551002
0.00117213
0.00312269
0.00105227
0.00150473
0.00137734
0.0016792
0.00105454
0.000709351
0.000572912
0.000432439
0.000638716
0.000344278
0.000359553
0.000323283
0.000290555
0.000483668
0.000366436
0.00024763
0.000254555
0.000353923
0.000466896
0.000436919
0.000236638
0.000569956
0.000367748
0.000247185
0.00010445
0.000454134
0.000568949
0.000288449
0.000255229
0.000184299
0.00300887
0.000833853
0.00252383
0.00122184
0.00162188
0.00249359
0.000474046
0.000657974
0.00114422
0.00307896
0.000856604
0.00112554
0.00162092
0.00130802
0.00134533
0.000913619
0.00083956
0.000698552
0.000503568
0.000353783
0.000823767
0.000330936
0.000328233
0.000324864
0.000517148
0.000349229
0.000514485
0.000374218
0.00030955
0.000174746
0.000214776
0.000268006
0.000478775
0.000426495
0.000281604
0.000495012
0.000373275
0.000303185
0.000255459
0.000153767
0.000292026
0.000527425
0.000370175
0.000246016
0.000309676
0.00249133
0.000956277
0.00282547
0.000545015
0.000740385
0.00274108
0.000651024
0.000333538
0.00101601
0.00289366
0.000731996
0.000589251
0.00156596
0.000770545
0.00264742
0.000622477
0.000869962
0.00110864
0.00113014
0.00117778
0.00129605
0.000944206
0.000735307
0.000747283
0.000680464
0.000603874
0.00043245
0.000935918
0.000310471
0.000376911
0.000431551
0.000469571
0.000314056
0.000412044
0.000433294
0.000400631
0.000145479
0.000293217
0.000293892
9.76534e-05
0.000366504
0.000480328
0.000392093
0.000293033
0.000425841
0.000487477
0.000531597
0.000217821
0.000267447
0.000134202
0.000221786
0.000353084
0.00032254
0.000249277
0.000369877
0.00259289
0.000962497
0.00237003
0.00096097
0.000782072
0.00286335
0.000933021
0.000891892
0.000786801
0.00269478
0.000519417
0.000652694
0.000628434
0.000784759
0.00315556
0.000916464
0.000898026
0.0010914
0.000622367
0.000792483
0.00228834
0.00119685
0.000760307
0.000807969
0.00117521
0.00114722
0.00131461
0.00169413
0.000648877
0.000893639
0.000683297
0.000730956
0.00068541
0.000498358
0.000427865
0.000880381
0.000374272
0.000870474
0.000356138
0.000364469
0.000443523
0.000440904
0.000533375
0.000412612
0.000407292
0.000221453
0.000160551
0.000272733
0.00029641
0.0001501
0.000230668
0.000613089
0.000401184
0.000286674
0.000434654
0.000304759
0.000622104
0.000697113
0.000186283
0.000261591
0.000214416
0.00035963
0.000279167
0.000360764
0.000240511
0.000184645
0.00234242
0.000626307
0.00238168
0.000640258
0.00100639
0.002432
0.00062059
0.000800728
0.000572824
0.00273286
0.00117186
0.000992313
0.000606932
0.000753934
0.00264263
0.000387724
0.000592382
0.00107106
0.00105249
0.00136348
0.00305767
0.000240262
0.000754763
0.000517392
0.00085488
0.000986817
0.00159829
0.00213429
0.000797459
0.000889039
0.000647245
0.00096842
0.00115381
0.00104146
0.00132116
0.00167289
0.000624057
0.000575804
0.000935023
0.00062438
0.000672569
0.000689004
0.000481291
0.000424072
0.000858854
0.000413401
0.000428632
0.000372419
0.000350865
0.000452186
0.000353402
0.000303855
0.000721267
0.000469094
0.000453825
0.000404296
0.000184271
0.000280422
0.000294091
0.000353238
0.000236446
0.000252199
0.000372256
0.000399746
0.000221428
0.000397581
0.000479455
0.000455557
0.000727235
0.000754287
0.000336545
0.00023546
0.000143311
0.000242055
0.000382138
0.000464562
0.000222013
0.0001913
0.00223547
0.000619628
0.00223634
0.000427166
0.000550017
0.0022463
0.000656004
0.000563427
0.000688177
0.00252715
0.000778117
0.000830631
0.000663651
0.000574649
0.00261407
0.000801346
0.000647871
0.000352062
0.000869669
0.000667274
0.00259394
0.000893682
0.000725421
0.000726163
0.000485225
0.000437426
0.00105208
0.00300379
0.000418616
0.000491846
0.000458733
0.000388041
0.000637136
0.0012157
0.00118194
0.00331629
0.00048334
0.000681132
0.000854023
0.000601002
0.00128085
0.00176627
0.00166029
0.00133088
0.00157704
0.000753625
0.000660084
0.000589287
0.000859618
0.000533979
0.000550453
0.000495793
0.000388522
0.000533656
0.000949559
0.000684969
0.000467941
0.00066459
0.000448968
0.000390645
0.000373632
0.000343442
0.000313693
0.000625707
0.000335161
0.00046228
0.000316652
0.000252849
0.0001152
0.000269057
0.000204355
0.000366007
0.000164312
0.000375038
0.000294437
0.000358076
0.000263778
0.00042209
0.000152292
0.000335224
0.000546931
0.000742036
0.000733493
0.000416231
0.000213778
0.000159651
0.000179481
0.000236027
0.000437094
0.000220843
0.000591271
0.00196659
0.000708028
0.00212373
0.000541569
0.000608619
0.00220079
0.000516435
0.000392337
0.000874788
0.00220019
0.000689878
0.000573449
0.000452468
0.00059771
0.00245826
0.000652627
0.000705459
0.000395529
0.000388626
0.000651992
0.00287651
0.000793565
0.000499466
0.000288179
0.000383701
0.000995611
0.000806729
0.00283142
0.000377632
0.000335889
0.000407811
0.000345597
0.000737552
0.000754398
0.000972996
0.00297906
0.000598516
0.000439087
0.000814826
0.000535357
0.000758599
0.00079806
0.00136245
0.00131729
0.00334874
0.000176392
0.000452316
0.000516795
0.000644498
0.000546806
0.00174427
0.00193807
0.00163366
0.00127098
0.00151124
0.00069189
0.00075569
0.000583209
0.000610687
0.00100031
0.000455109
0.000479772
0.00039736
0.000395339
0.000541952
0.000871808
0.000727781
0.000371444
0.000795406
0.000748933
0.000849002
0.000474636
0.00059052
0.0003485
0.000401876
0.000430449
0.000282622
0.000534357
0.00037807
0.000230325
0.000105654
0.000143277
0.00024792
0.000300764
0.000390089
0.000208247
0.000436471
0.000640631
0.000401204
0.000254309
0.000672407
7.19869e-05
3.76518e-05
0.000218863
0.000567507
0.00067897
0.000684662
0.00045144
0.000129704
0.000181449
0.000275957
0.000168372
0.000430062
0.000216502
0.00022183
0.00204344
0.000633496
0.00198088
0.000659315
0.00060987
0.00208473
0.000315922
0.000434973
0.00095001
0.00222232
0.000563763
0.000571916
0.000330851
0.000912658
0.00244554
0.000571406
0.000560895
0.000600042
0.000640832
0.000686004
0.00251339
0.00111754
0.000693184
0.000534926
0.000884659
0.000714488
0.000940499
0.00271128
0.000467252
0.00110031
0.000875802
0.000849352
0.00100717
0.000556402
0.00103945
0.00256683
0.000496323
0.00024765
0.000697343
0.000402441
0.000709567
0.00076186
0.000414815
0.000946397
0.00275088
0.000257391
0.000453974
0.00117352
0.000790638
0.000700694
0.000588624
0.00134554
0.000951003
0.00104014
0.00324623
0.00039841
0.00030922
0.000523125
0.000401831
0.000730835
0.000919264
0.0015642
0.00123094
0.000922935
0.00116547
0.00127775
0.000842285
0.000772466
0.000835883
0.000475177
0.000849872
0.000808297
0.000518709
0.000423136
0.00025177
0.000438507
0.000477482
0.000956341
0.000533458
0.000573576
0.000565347
0.000892716
0.00038005
0.000729783
0.000376027
0.000442396
0.000295725
0.000367285
0.0005963
0.000257642
0.000580613
0.000204785
0.000326529
0.00010722
0.000165337
0.000195037
0.000325809
0.000473001
0.000370319
0.000380748
0.000490709
0.000462342
0.000490518
0.000267312
0.000590981
0.000284056
0.000164568
0.000103515
0.000132237
0.000523983
0.00058805
0.000593386
0.000409829
0.000315751
9.90012e-05
0.000201423
0.000105657
0.00039901
0.000204355
0.000234326
0.00205939
0.000373118
0.00185884
0.000691518
0.000364813
0.00200493
0.000631427
0.000341299
0.000593415
0.00205083
0.000564466
0.000483421
0.000396246
0.000807542
0.00211324
0.000700514
0.000709562
0.000586541
0.000504027
0.00088267
0.0024477
0.000765188
0.000661962
0.000452521
0.000495155
0.000775971
0.000775674
0.00259262
0.000963928
0.000765258
0.000886728
0.000562092
0.000822405
0.000516883
0.00078951
0.00303426
0.000789437
0.000845398
0.00073909
0.000881429
0.00106604
0.00110471
0.000861731
0.000793967
0.00269616
0.000475266
0.000545938
0.00096219
0.000687447
0.000473326
0.000547637
0.000753288
0.00119458
0.000774656
0.00258628
0.000563389
0.000488904
0.00109195
0.000993215
0.000929561
0.000630276
0.000541267
0.000590477
0.00111725
0.000702298
0.00319173
0.000484616
0.000446885
0.000610598
0.000576003
0.000609354
0.0012921
0.00136709
0.00144722
0.00112232
0.00125991
0.00117151
0.00157779
0.000600738
0.000622626
0.000693635
0.000657673
0.000454521
0.00099738
0.000382745
0.000488333
0.000268268
0.000224852
0.000290328
0.00051162
0.00106428
0.000683121
0.000776678
0.00113155
0.000576284
0.000529491
0.000410909
0.000416269
0.000367625
0.000381045
0.000440061
0.000219222
0.000355508
0.000252028
0.000580208
0.000141564
0.000182815
0.000298346
0.000240487
0.000187086
0.000253921
0.000280752
0.000498832
0.000367472
0.000564163
0.00061648
0.000391043
0.000436024
0.000249288
0.000455584
0.000260007
0.000170467
0.000220984
0.00013926
7.78792e-05
0.000433764
0.000478355
0.000472977
0.000298024
0.000427488
0.000189887
0.000124082
0.000111102
0.000365557
0.000199564
0.000557548
0.00209103
0.000442799
0.0019342
0.000453061
0.000412249
0.00193616
0.000552462
0.000715633
0.000400638
0.0020167
0.000736222
0.000660085
0.000762535
0.00063151
0.00213814
0.000354575
0.000683548
0.00056426
0.000917461
0.000992988
0.00193561
0.000609037
0.000614906
0.000498816
0.000387987
0.000682753
0.000676355
0.00253712
0.000623595
0.000561825
0.000533455
0.000426628
0.000515076
0.000288117
0.000565605
0.00268033
0.000410163
0.000912827
0.000421162
0.000390791
0.000460401
0.000589163
0.000797317
0.000430401
0.00301591
0.000821566
0.000843642
0.00112227
0.00047488
0.00085565
0.000776485
0.00110403
0.00150297
0.000907482
0.00276656
0.00101162
0.000762927
0.000378628
0.000675242
0.000557532
0.000658547
0.000797558
0.000893167
0.000778294
0.00101285
0.00326309
0.00111921
0.000421314
0.00069562
0.000892914
0.00109643
0.000993339
0.000732608
0.000790929
0.00109511
0.000956459
0.000695328
0.00333011
0.000386395
0.0011037
0.000672822
0.000764375
0.00058525
0.000903467
0.00118068
0.00171899
0.00109001
0.0012951
0.00120534
0.000789649
0.001906
0.00080206
0.000801005
0.000673833
0.000745412
0.000400181
0.000658465
0.00050039
0.000598875
0.000350022
0.000231357
0.000484439
0.000844348
0.000578583
0.00105211
0.000545992
0.000570037
0.000735602
0.000963436
0.000682176
0.000360792
0.000422652
0.000446869
0.000315399
0.00032414
0.000595539
0.000271111
0.000348652
0.000291067
0.000611007
0.000270117
0.000120348
0.000169529
0.000286471
0.000288585
0.000178906
0.000199698
0.000218107
0.00042101
0.000198748
0.000371447
0.000579609
0.000462428
0.000348792
0.000246605
0.000581137
6.47541e-05
6.1915e-05
0.0001616
0.000205295
0.000162589
0.000111275
0.000315494
0.00034121
0.000364691
0.000242811
0.000435214
0.000129935
0.000153939
0.000105951
0.000319034
0.000187484
0.00068357
0.00221194
0.000311643
0.0019823
0.000370835
0.000290857
0.0020158
0.000396657
0.00039601
0.000626184
0.00198905
0.000219678
0.000704849
0.00072793
0.000692806
0.00213103
0.000669228
0.000479028
0.000789408
0.000346481
0.000920355
0.00216356
0.000565312
0.00094319
0.000372757
0.000674142
0.000532946
0.000839795
0.00213427
0.000665125
0.000613961
0.00055741
0.000671221
0.000766153
0.000653936
0.000723131
0.00267231
0.000627694
0.000548636
0.000534971
0.000375163
0.000914542
0.000791477
0.000449465
0.000482155
0.00260775
0.000451829
0.000461638
0.000474857
0.000322342
0.000469954
0.000690588
0.000586044
0.000503596
0.000685503
0.0027375
0.000675101
0.000491862
0.000385392
0.000916508
0.000735976
0.000597846
0.000675708
0.000950074
0.0007542
0.00150133
0.00267211
0.00105301
0.00071991
0.000374874
0.00034066
0.000462596
0.000357312
0.000476201
0.000692106
0.000654508
0.000490815
0.00129992
0.00288049
0.000663971
0.000609887
0.000843598
0.000813777
0.000761675
0.0008884
0.000335695
0.000714859
0.000700516
0.000643096
0.00136695
0.000679535
0.00326878
0.00049079
0.00087724
0.000861255
0.000879771
0.000762726
0.000768787
0.000730987
0.000758825
0.00102791
0.000874985
0.000819604
0.00207399
0.00167208
0.00196944
0.0010136
0.0013401
0.00100994
0.00123655
0.000817295
0.000626997
0.000483297
0.000599148
0.000607905
0.000253965
0.000330236
0.000187835
0.000470702
0.00064058
0.00113974
0.000744258
0.000491053
0.000369545
0.000609568
0.000323916
0.000929019
0.000402276
0.000556566
0.000475151
0.000212448
0.000257613
0.000501041
0.000295869
0.000258366
0.00034171
0.000611734
0.000303796
0.000225031
0.00013761
0.000163189
0.000220598
0.000237919
0.000212901
0.000125104
0.000271306
0.000395418
0.000503899
0.00069163
0.000628272
0.000580765
0.00042571
0.000226883
0.000524206
0.000106242
3.79648e-05
0.000127701
0.000249964
0.00018019
0.000150172
9.78642e-05
0.000181331
0.000224211
0.000254696
0.000239876
0.000443095
0.000112984
0.000118837
0.000103155
0.000280864
0.000179046
0.000277149
0.00215266
0.000414472
0.0020479
0.000335847
0.000223529
0.00195262
0.000181729
0.000378794
0.000338107
0.00197626
0.000218702
0.000434245
0.000230058
0.000541125
0.00198619
0.000624005
0.000246149
0.000554611
0.000427144
0.000453375
0.00241856
0.000598087
0.000910721
0.000359272
0.000550777
0.000605793
0.000961351
0.00230636
0.000701811
0.000576457
0.000662832
0.000687659
0.000745758
0.000542161
0.00118313
0.00202431
0.00056412
0.000711964
0.000530892
0.000581276
0.000750371
0.000748168
0.000910924
0.00101941
0.0027929
0.000399244
0.000562506
0.000501734
0.000513013
0.000712293
0.000759445
0.000650628
0.00133853
0.000512596
0.00282537
0.000372168
0.000215772
0.000695352
0.00064603
0.000700817
0.000603752
0.000777476
0.000682826
0.000636877
0.00085401
0.00287707
0.000571551
0.000294918
0.000610657
0.000858252
0.000776732
0.000528241
0.000582481
0.00105483
0.000830409
0.00075578
0.00146086
0.00272028
0.000901446
0.000694459
0.000171083
0.000342853
0.000367695
0.000612092
0.000550202
0.000979314
0.00114352
0.000604566
0.000785309
0.00105977
0.00256752
0.000724239
0.000217641
0.000839132
0.000741433
0.000635279
0.000703782
0.000531076
0.000381145
0.000484314
0.000671093
0.000840477
0.00112217
0.000695469
0.00385374
0.000424713
0.000969984
0.000670345
0.000663309
0.000815135
0.000741911
0.000813313
0.000371491
0.00100856
0.000931985
0.00124571
0.000977535
0.00168891
0.00126877
0.00214956
0.000943731
0.000672233
0.000651619
0.000563416
0.00119258
0.000433046
0.00100291
0.000311699
0.000583175
0.000399353
0.000434581
0.000603769
0.000474138
0.000918257
0.000962775
0.00124988
0.000859446
0.000689003
0.000498174
0.000425089
0.000638651
0.000439919
0.000396434
0.000427845
0.000411861
0.000289021
0.000106087
0.000376856
0.000572037
0.000258305
0.000196915
0.000291965
0.000669278
0.000271983
0.000289834
0.000255129
0.000172921
0.000157427
0.000192831
0.000212727
0.000216966
0.000180607
0.000281599
0.000330338
0.000660708
0.000321071
0.000718818
0.000595191
0.000324546
0.00022576
0.000311394
0.000267409
3.92172e-05
7.48271e-05
7.57394e-05
0.000158961
0.000150753
0.000147513
9.7751e-05
8.24018e-05
0.000159781
0.000176212
0.0002134
0.000412033
0.000179635
0.000235701
0.00010269
0.000257148
0.000183208
0.000197583
0.00217376
0.000446323
0.00200784
0.000416618
0.00033728
0.00200221
0.000185343
0.000334413
0.000232749
0.00199646
0.000202108
0.000366341
0.000338573
0.000453106
0.00207709
0.000211997
0.000303031
0.000268143
0.00047443
0.000827353
0.00195702
0.000449436
0.000211711
0.000336392
0.000354641
0.00063579
0.000797288
0.00225571
0.00059752
0.000662692
0.000293304
0.000618843
0.000346681
0.000812978
0.00109582
0.00218857
0.000475568
0.00069334
0.000666138
0.000504643
0.000748019
0.000674993
0.000654069
0.00122546
0.00225152
0.000568292
0.000510191
0.000615041
0.000670493
0.00076257
0.000773602
0.000397898
0.000779103
0.000845323
0.00271928
0.00047348
0.00039301
0.00057986
0.000729401
0.000888466
0.000939287
0.000992167
0.000808571
0.000515523
0.000822604
0.00288278
0.000594569
0.000369972
0.000569279
0.000759223
0.000743751
0.000753781
0.0013656
0.00104537
0.000939248
0.000655318
0.000767601
0.00293563
0.000527184
0.000592942
0.000897333
0.000938257
0.000995424
0.000454878
0.000901485
0.00170398
0.00133632
0.000767879
0.00097993
0.000983581
0.00277538
0.00105787
0.000614222
0.000230089
0.000653851
0.000413702
0.000740977
0.000907062
0.000660535
0.00105371
0.000609702
0.000657832
0.00046365
0.00125563
0.00271998
0.000276237
0.00039904
0.000474162
0.000428378
0.000423169
0.000596748
0.000429877
0.000528905
0.000325542
0.000625999
0.000587968
0.000869998
0.00143944
0.000790469
0.00344603
0.00105006
0.00045136
0.000579355
0.000592746
0.00060305
0.000747433
0.000799195
0.000422211
0.000685182
0.000959748
0.00107137
0.0010437
0.000597635
0.00146756
0.00125793
0.00224654
0.00110725
0.000485509
0.000228422
0.000567233
0.000439389
0.00035619
0.000793327
0.000457732
0.000545304
0.000425608
0.000312793
0.000487469
0.000499289
0.000427724
0.000657884
0.000628252
0.00141898
0.000891092
0.000748631
0.00061515
0.000576067
0.000408255
0.000644784
0.0004691
0.000268695
0.000279099
0.000286443
0.000121165
0.000229761
0.000499674
0.000621951
0.000309598
0.000192997
0.000306781
0.000864164
0.000556419
0.000473048
0.000307232
0.00022593
0.000175774
0.000186629
0.000255478
0.000183607
0.000206911
0.000215898
0.000209752
0.000215723
0.000504446
0.000388707
0.000633278
0.000648232
0.000267187
0.000244234
0.000501552
0.000137148
0.000233024
0.000286302
9.44734e-05
0.000135692
9.96015e-05
0.000141502
5.10108e-05
8.44665e-05
5.4252e-05
0.000139843
0.000111375
0.000198777
0.00033784
0.000290003
0.000309517
0.000120628
0.000257341
0.000192311
0.00116223
0.00218174
0.000502626
0.00209639
0.000385861
0.000437364
0.00204195
0.000340362
0.000443409
0.000292113
0.0019979
0.000176547
0.00044494
0.00028836
0.000238418
0.00195179
0.000345481
0.000224587
0.000473699
0.000282289
0.000688746
0.00216765
0.000261605
0.000430695
0.000365394
0.000159623
0.000381237
0.00120751
0.00226626
0.000310842
0.000414731
0.000337402
0.00054443
0.00031612
0.000358011
0.000733395
0.00211561
0.00032129
0.000603646
0.000561183
0.000395181
0.000426532
0.00033077
0.000688755
0.000901276
0.00226475
0.000675952
0.000428892
0.000483546
0.000536257
0.000558375
0.000795023
0.000513535
0.000797294
0.00135999
0.00237286
0.000524523
0.000640756
0.000565472
0.000619763
0.00045777
0.000341984
0.000619633
0.000779939
0.000563506
0.00102676
0.00279001
0.000324022
0.000254357
0.000783759
0.000726675
0.000831764
0.000680391
0.000660248
0.000380802
0.000714574
0.000593323
0.000753738
0.00299002
0.000729109
0.000394034
0.000625352
0.000928626
0.000516433
0.000651995
0.00126743
0.000935286
0.00101983
0.00060566
0.000827869
0.00116517
0.00296082
0.000922645
0.000783652
0.00106294
0.000985315
0.00102189
0.000609684
0.000957208
0.00159001
0.00123533
0.00103899
0.00106346
0.000639038
0.00138131
0.00268832
0.000677005
0.000727805
0.000833982
0.000742443
0.000612496
0.000605513
0.000834952
0.0014564
0.000891895
0.0005339
0.000741985
0.000446106
0.000245282
0.00165727
0.00331407
0.000457819
0.000246929
0.000508224
0.000542227
0.000676712
0.000579516
0.000527772
0.000467515
0.000794646
0.000485445
0.000825451
0.000874652
0.000384423
0.00103212
0.000921214
0.00309257
0.000842463
0.00027383
0.000340629
0.00042042
0.000997597
0.00037044
0.000637453
0.000702129
0.000475109
0.000640554
0.000678342
0.000748513
0.000726641
0.000679486
0.00178011
0.00184799
0.00224462
0.000608598
0.000334333
0.000393698
0.000480984
0.000401757
0.000555873
0.00108454
0.00094014
0.000403751
0.000444862
0.000413482
0.000420489
0.000429818
0.000474842
0.000434631
0.000485107
0.000917785
0.00157125
0.00122478
0.000876551
0.000707929
0.000546053
0.000658571
0.000477727
0.00047029
0.000633692
0.000341484
0.00029473
0.000182438
0.000354462
0.00032777
0.0006533
0.000555882
0.000281743
0.000225413
0.000425589
0.00111358
0.000622288
0.000517077
0.000481036
0.000336459
0.000211385
0.000157043
0.000287595
0.000164989
0.00014945
0.000166184
0.000166523
0.000150697
0.000183521
0.000230191
0.000602919
0.000560556
0.000640032
0.000285752
0.000243928
0.0010326
0.000153818
0.000121141
0.000182042
0.000131456
4.06374e-05
0.000172161
0.000161895
0.000156212
0.000293373
7.38303e-05
6.75286e-05
0.000121513
8.60296e-05
0.0001905
0.00025004
0.00039016
0.000212219
0.000177211
0.00027869
0.000183777
0.000220675
0.00214353
0.000365575
0.00195639
0.000396843
0.00035055
0.00212935
0.000369608
0.000312076
0.000564725
0.00201952
0.000360747
0.000331939
0.000637768
0.000339241
0.00206249
0.000415985
0.000205482
0.000413278
0.000378625
0.000299109
0.00198134
0.000233481
0.000385593
0.000312005
0.00024624
0.00029128
0.000475287
0.00223356
0.000308875
0.000308508
0.000324077
0.000262842
0.000197388
0.000660515
0.000561998
0.00252037
0.000262484
0.000403134
0.000349705
0.000374632
0.00037451
0.000391678
0.000212684
0.000746536
0.00224946
0.000538977
0.000419637
0.000435195
0.000533501
0.000479477
0.000269596
0.000392764
0.000552924
0.000714912
0.00245503
0.000321922
0.000486078
0.000462078
0.000428456
0.000523806
0.000609712
0.000462009
0.000593625
0.00078273
0.00151495
0.0024788
0.000451614
0.000213807
0.00075765
0.000537296
0.000466918
0.000528717
0.000524501
0.000455301
0.000667946
0.00103088
0.000861125
0.00288832
0.000689975
0.000537432
0.00075829
0.00104478
0.00078961
0.000802572
0.000763197
0.0004867
0.00068624
0.000332294
0.00104096
0.000593512
0.00290686
0.00055742
0.000554393
0.000614049
0.000623138
0.000522851
0.000826369
0.00116299
0.000961742
0.000751361
0.000568643
0.00086422
0.000778742
0.00118224
0.00284
0.00100726
0.000377087
0.000683338
0.000743825
0.000393675
0.000242922
0.0010854
0.00155236
0.000897229
0.000565669
0.000826049
0.000768536
0.00103878
0.00110334
0.00268582
0.000181133
0.000672635
0.000649434
0.000743015
0.000656875
0.000695918
0.000953797
0.00129956
0.00140121
0.000716076
0.00092729
0.00128917
0.000532583
0.000759689
0.00220124
0.00335486
0.000467924
0.000214207
0.000307339
0.000174831
0.000295958
0.000663623
0.000570208
0.000491053
0.000775003
0.000628132
0.00102606
0.00150859
0.000912792
0.000668355
0.000529723
0.00109459
0.00319408
0.0007775
0.000352788
0.000365208
0.000700065
0.000675289
0.000910281
0.00124862
0.00059032
0.000543415
0.00042697
0.000559548
0.000582838
0.000692895
0.000816518
0.001055
0.000778772
0.000961118
0.00230906
0.00130017
0.000922359
0.000431949
0.000506711
0.00049172
0.000631247
0.000535795
0.000615487
0.000428288
0.000385872
0.000657381
0.000393613
0.000295137
0.00038411
0.000497686
0.000697843
0.000924384
0.00115033
0.00155886
0.000611484
0.00103698
0.000694779
0.000623431
0.000580772
0.000687083
0.000558105
0.000358239
0.000499807
0.000426706
0.00040869
0.00024123
0.000317965
0.000422748
0.0010316
0.00063926
0.000358539
0.000292227
0.000553148
0.00120392
0.000683643
0.000684291
0.000475961
0.000608536
0.000394979
0.000259404
0.000144388
0.000273513
0.000169613
0.000166741
0.000135284
0.000145341
0.000133732
0.000161524
0.00036118
0.000650536
0.000604589
0.000569443
0.000276205
0.000273626
0.000450342
0.000314718
0.000149143
7.80591e-05
0.00019937
5.39438e-05
5.7913e-05
0.000112108
0.000138749
0.000257199
0.00011539
5.83319e-05
5.74919e-05
9.72846e-05
9.99135e-05
0.000164395
0.000147468
0.00044581
0.000511568
0.000259765
0.000295079
0.000196289
0.000254151
0.00198823
0.000599512
0.00203815
0.000619424
0.000402513
0.00199048
0.000485393
0.000661048
0.000422899
0.00206932
0.000454403
0.000302417
0.000271263
0.000576357
0.00202054
0.000463859
0.000333124
0.000376501
0.000452089
0.000236837
0.00213425
0.000544592
0.000216849
0.000243244
0.000172336
0.000240519
0.000413155
0.00207147
0.000446042
0.000368271
0.000246304
0.000201322
0.000266513
0.000241247
0.00067798
0.00201248
0.000291191
0.000387866
0.000470067
0.000252819
0.000234065
0.000367018
0.000644011
0.000584594
0.00226644
0.000296335
0.000307752
0.000299984
0.00034873
0.000154796
0.000409031
0.000422533
0.000449281
0.00070939
0.00221438
0.000356261
0.000357734
0.000550568
0.000486177
0.000627893
0.000370803
0.0003116
0.000464818
0.000576728
0.000502027
0.00239926
0.000504858
0.000390037
0.000578535
0.00048071
0.000702246
0.000776764
0.00071154
0.000679529
0.000574718
0.000583714
0.00118665
0.0024984
0.00060513
0.000697309
0.000888492
0.000551444
0.000422289
0.000498882
0.000399335
0.000623264
0.000939395
0.00078022
0.000732957
0.000814875
0.00293544
0.000418183
0.000526272
0.000600559
0.000841289
0.000691792
0.000706424
0.000587702
0.000514902
0.000590525
0.000620276
0.000770006
0.000952315
0.000591472
0.00278946
0.000790183
0.000529134
0.000355381
0.000294411
0.000539131
0.00058556
0.00104442
0.0008526
0.0007351
0.000524909
0.000675528
0.000551023
0.00108888
0.00115061
0.00316603
0.000614882
0.000660388
0.000158365
0.000496637
0.000447849
0.000369951
0.00121074
0.000861664
0.000664806
0.000832172
0.00101719
0.000590713
0.000793542
0.00136834
0.00103817
0.00270402
0.00056899
0.000657324
0.000657667
0.000618423
0.000682536
0.000641136
0.000527716
0.00115866
0.000519831
0.000663428
0.000303802
0.000924006
0.00060535
0.000999598
0.00133079
0.00232977
0.00315524
0.000570785
0.000320487
0.00050957
0.000323772
0.00038662
0.000347977
0.000737945
0.000339249
0.000613036
0.00104773
0.00087953
0.00113396
0.000905198
0.00099268
0.00160273
0.00345537
0.00133431
0.00313563
0.000238853
0.000143081
0.000220713
0.000558298
0.00101583
0.00147219
0.00185514
0.00141211
0.000531876
0.000407498
0.00050336
0.000581742
0.000577706
0.000732507
0.000376303
0.000209413
0.000668989
0.000942826
0.00257333
0.00107684
0.00119229
0.000868383
0.000630737
0.000557838
0.000580114
0.00101354
0.000607168
0.00060849
0.000328166
0.000424648
0.000487615
0.000287159
0.000238993
0.000489148
0.000452049
0.000658835
0.000823055
0.00122011
0.00141548
0.000710718
0.000665484
0.00106985
0.000711035
0.000564198
0.000467763
0.000647144
0.000485914
0.000440523
0.00040731
0.0003484
0.000403748
0.000235577
0.000222995
0.000620687
0.000847072
0.000502766
0.000390131
0.000342882
0.000820013
0.00124719
0.000534352
0.000689663
0.000540826
0.000432587
0.000464428
0.000312536
0.000388852
0.000115238
0.000251028
0.000233873
0.000164268
0.000123758
0.000170202
0.000107584
0.000143529
0.000453939
0.000625585
0.000451789
0.000557055
0.000322865
0.000339232
0.000460965
0.000107136
0.000184322
0.00016459
3.55929e-05
0.000214358
0.000146913
5.60988e-05
6.21681e-05
0.000108869
0.000348109
4.45323e-05
8.23576e-05
9.93225e-05
8.13324e-05
4.5568e-05
0.000140108
0.000108473
0.000472612
0.000653925
0.000340548
0.000263663
0.000194924
0.000744315
0.00190437
0.00040653
0.00189666
0.000398943
0.000497308
0.00201643
0.000302958
0.000300723
0.00032978
0.00208984
0.000585524
0.000520095
0.000490817
0.000459068
0.00203658
0.000602649
0.000451542
0.000286732
0.000547248
0.000300718
0.00200864
0.00060378
0.000494728
0.000245685
0.000545487
0.00026368
0.000244453
0.00206458
0.000520345
0.000495147
0.000236994
0.000205662
0.000265091
0.000240388
0.000503023
0.00199651
0.000284529
0.000375175
0.00023404
0.000267093
0.000345994
0.000428523
0.000380876
0.000648486
0.00212612
0.000340748
0.000241799
0.00030403
0.000281624
0.000268614
0.000349742
0.000419789
0.00102459
0.000481796
0.002203
0.000301549
0.000496481
0.000327204
0.000375319
0.000198988
0.000394123
0.000558111
0.000647508
0.000557888
0.000684946
0.0022653
0.000456822
0.000538437
0.00042273
0.000447911
0.00066194
0.00040498
0.000381418
0.000474975
0.000414122
0.000547105
0.000254559
0.00236769
0.000489926
0.000398836
0.000832754
0.00068887
0.000613882
0.000655102
0.000565584
0.000672073
0.000440822
0.000628132
0.000826629
0.000758957
0.00249406
0.00050335
0.000517439
0.000282554
0.000401261
0.000410442
0.000517321
0.000447508
0.000547792
0.000724268
0.00063898
0.000698519
0.000666222
0.00098582
0.00296973
0.000895243
0.000485158
0.000649706
0.00053683
0.000459934
0.000697326
0.000648681
0.000504032
0.000409569
0.000626006
0.00064785
0.000625189
0.00034631
0.000665525
0.00268787
0.000777924
0.000394209
0.000702054
0.000782039
0.000760739
0.00079211
0.00161878
0.00089342
0.000800104
0.000883927
0.000804659
0.000749528
0.000493241
0.00118101
0.00132627
0.00295542
0.000726806
0.000541173
0.000309634
0.000735068
0.000370442
0.000625779
0.00101566
0.00115199
0.000379588
0.00049966
0.000809146
0.000596318
0.00100278
0.000961924
0.00117108
0.00140266
0.00260916
0.000580873
0.000742012
0.000497095
0.000466037
0.000809641
0.000589693
0.000838642
0.00108665
0.000271881
0.000313358
0.000424794
0.000643275
0.000361565
0.000364753
0.000479646
0.0011047
0.00152967
0.00302158
0.000493595
0.00027786
0.000442251
0.000349308
0.000341925
0.00036594
0.000318354
0.000478501
0.000506694
0.000503849
0.000514639
0.00088106
0.00108531
0.00115202
0.000848814
0.00139087
0.000807858
0.000945845
0.00228898
0.00049402
0.000403259
0.000212733
0.000405283
0.00133372
0.00109277
0.0012954
0.000708567
0.000595137
0.000507671
0.000470426
0.000608083