/*--------------------------------*- C++ -*----------------------------------*\
  =========                 |
  \\      /  F ield         | OpenFOAM: The Open Source CFD Toolbox
   \\    /   O peration     | Website:  https://openfoam.org
    \\  /    A nd           | Version:  7
     \\/     M anipulation  |
\*---------------------------------------------------------------------------*/
FoamFile
{
    version     2.0;
    format      ascii;
    class       volScalarField;
    location    "6";
    object      p;
}
// * * * * * * * * * * * * * * * * * * * * * * * * * * * * * * * * * * * * * //

dimensions      [0 2 -2 0 0 0 0];

internalField   nonuniform List<scalar> 
18750
(
-80.8003
-79.5986
-81.8984
-80.8493
-79.5461
-80.452
-79.5666
-82.469
-81.9334
-80.8866
-79.1502
-80.1188
-79.5347
-81.2926
-80.4789
-79.5714
-82.6808
-82.5121
-81.9767
-80.9079
-80.1072
-80.0002
-79.0365
-80.5284
-80.0935
-79.5071
-82.5595
-81.2834
-80.5041
-79.602
-82.5251
-82.6913
-82.5645
-82.0319
-80.8773
-75.7171
-80.7172
-79.5413
-80.1687
-79.721
-78.8909
-81.0061
-80.4949
-80.0651
-79.471
-82.1811
-82.5134
-81.2754
-80.5229
-79.6298
-82.2023
-82.5011
-82.7119
-82.5726
-82.0905
-80.856
-73.5732
-79.9473
-75.896
-79.8901
-79.7783
-78.9719
-80.3396
-79.9572
-79.4971
-78.7775
-80.9382
-80.9723
-80.4802
-80.0613
-79.4392
-81.8233
-82.1796
-82.458
-81.2638
-80.5364
-79.6588
-82.7414
-82.2559
-82.4974
-82.7337
-82.5479
-82.1175
-80.9335
-71.8456
-74.8697
-73.1941
-78.9192
-78.7037
-75.9571
-79.8672
-79.3369
-79.0866
-78.6179
-80.3871
-80.2552
-79.837
-79.3617
-78.7134
-81.038
-80.964
-80.9655
-80.4801
-80.0368
-79.4449
-82.2271
-81.9205
-82.1807
-82.4088
-81.252
-80.6021
-79.7096
-83.3407
-82.7698
-82.3207
-82.513
-82.7462
-82.5279
-82.1125
-81.0349
-69.8222
-72.5346
-72.0568
-74.8314
-74.5972
-73.5705
-78.7017
-78.5516
-78.0326
-75.7683
-79.861
-79.4529
-78.94
-78.6239
-78.2074
-80.5092
-80.4458
-80.217
-79.8116
-79.2959
-78.6459
-81.5067
-81.1338
-81.0098
-80.9949
-80.493
-80.0012
-79.4885
-82.766
-82.3201
-82.016
-82.1881
-82.3628
-81.2219
-80.6748
-79.7987
-83.5369
-83.402
-82.8035
-82.3736
-82.576
-82.7727
-82.5275
-82.1028
-81.1029
-68.6649
-70.0517
-69.8239
-72.4044
-72.5384
-72.1258
-74.8907
-75.1191
-74.5021
-73.5473
-78.6692
-78.6777
-78.2569
-77.3988
-75.7175
-80.2247
-79.7961
-79.2055
-78.9403
-78.2641
-77.8913
-80.6104
-80.6291
-80.477
-80.1974
-79.8006
-79.2592
-78.603
-82.0807
-81.6029
-81.1883
-81.0537
-81.0391
-80.4924
-80.0297
-79.5358
-83.2546
-82.8886
-82.4094
-82.1116
-82.1909
-82.3168
-81.1688
-80.7092
-79.8832
-83.8861
-83.6124
-83.4499
-82.8462
-82.4228
-82.6753
-82.7874
-82.5482
-82.0956
-81.1503
-67.7318
-68.6955
-68.6456
-70.263
-70.1307
-70.0037
-72.52
-72.5212
-72.5712
-72.1984
-75.0415
-74.9201
-75.0021
-74.675
-73.3112
-79.0906
-78.6681
-78.6385
-78.1162
-77.3032
-75.5103
-80.308
-80.2901
-79.913
-79.2102
-78.7675
-78.087
-77.5061
-81.0691
-80.812
-80.7191
-80.5092
-80.1768
-79.805
-79.2822
-78.6255
-82.4237
-82.2641
-81.7407
-81.2768
-81.1161
-81.089
-80.484
-80.0683
-79.59
-83.7485
-83.3756
-82.9986
-82.5136
-82.2047
-82.1971
-82.2769
-81.1175
-80.7606
-79.9815
-84.0264
-83.9658
-83.708
-83.4931
-82.894
-82.4682
-82.6678
-82.746
-82.5559
-82.0971
-81.1467
-67.1017
-67.7819
-67.7588
-68.8519
-68.8877
-68.7085
-70.3273
-70.4873
-70.4232
-70.1741
-72.4988
-72.5262
-72.659
-72.5176
-72.1026
-74.586
-74.8399
-74.9178
-74.5312
-74.4657
-73.0503
-79.2849
-79.082
-78.8152
-78.524
-77.9762
-77.187
-75.0039
-80.6477
-80.3788
-80.4167
-79.87
-79.3331
-78.7864
-78.2651
-77.4192
-81.8139
-81.2572
-80.7854
-80.7344
-80.5352
-80.1706
-79.8118
-79.3659
-78.77
-83.2592
-82.621
-82.4552
-81.9049
-81.4041
-81.1898
-81.1373
-80.4943
-80.0777
-79.6671
-84.0671
-83.8623
-83.4867
-83.1128
-82.6322
-82.3055
-82.2173
-82.2758
-81.1386
-80.83
-80.1217
-84.2701
-84.0895
-84.0613
-83.8096
-83.5537
-82.9488
-82.5029
-82.5888
-82.7091
-82.5397
-82.1155
-81.2807
-66.6159
-67.1596
-67.077
-67.8602
-67.8589
-67.7858
-68.8488
-68.9671
-68.9746
-68.6303
-70.2668
-70.4019
-70.2716
-70.5526
-70.1441
-72.5861
-72.6112
-72.5717
-72.5724
-72.489
-71.9865
-74.8793
-74.7223
-74.8761
-74.8884
-75.03
-74.4149
-73.3151
-79.3797
-79.2967
-79.2345
-78.7734
-78.4053
-77.9454
-77.6373
-74.7172
-81.4895
-80.5956
-80.4111
-80.3927
-79.9724
-79.5
-78.8633
-78.5201
-77.5381
-82.4656
-82.0008
-81.4435
-80.9028
-80.8334
-80.5677
-80.2053
-79.8359
-79.4995
-79.0518
-84.2366
-83.468
-82.8306
-82.6528
-82.0515
-81.5
-81.2328
-81.1815
-80.5417
-80.1091
-79.7345
-84.515
-84.1889
-83.964
-83.5913
-83.2186
-82.7434
-82.3997
-82.2311
-82.2123
-81.2155
-80.8991
-80.2418
-84.2856
-84.3207
-84.153
-84.1597
-83.9046
-83.6307
-83.0236
-82.5353
-82.5472
-82.704
-82.5286
-82.1405
-81.513
-66.2661
-66.6124
-66.6206
-67.0925
-67.1458
-67.0017
-67.8935
-67.9185
-67.761
-67.7254
-68.8809
-68.9451
-68.9335
-68.8709
-68.7534
-70.2997
-70.5685
-70.3321
-70.435
-70.5206
-70.1858
-72.5025
-72.6317
-72.7775
-72.7907
-72.5952
-72.5844
-71.9468
-74.8397
-74.9636
-75.1909
-75.367
-75.1938
-75.2457
-74.4037
-73.2859
-79.6571
-79.3403
-79.1449
-79.1539
-78.72
-78.3985
-77.979
-78.0111
-74.6039
-82.1544
-81.4634
-80.6061
-80.4439
-80.4777
-80.1459
-79.5763
-79.0871
-78.5388
-77.8246
-83.1726
-82.6803
-82.1711
-81.633
-81.1105
-80.9109
-80.6329
-80.2644
-79.9014
-79.656
-79.4469
-84.9914
-84.4802
-83.6902
-83.018
-82.8326
-82.2073
-81.5928
-81.3172
-81.2275
-80.6119
-80.1686
-79.8007
-84.7099
-84.6259
-84.3007
-84.055
-83.7021
-83.3464
-82.8535
-82.4851
-82.2445
-82.0962
-81.2758
-80.9707
-80.3407
-84.4016
-84.3367
-84.3606
-84.2157
-84.2258
-84.0065
-83.7134
-83.1268
-82.5603
-82.5394
-82.6933
-82.5232
-82.1632
-81.8486
-65.9948
-66.2519
-66.2953
-66.6563
-66.6083
-66.5919
-67.21
-67.1882
-67.0726
-66.9871
-67.9724
-67.8859
-67.9527
-67.7478
-67.736
-69.0127
-68.9656
-68.9805
-68.9398
-68.8528
-68.8871
-70.282
-70.4039
-70.5904
-70.5398
-70.3962
-70.4437
-70.3071
-73.0082
-72.9252
-72.5971
-72.7028
-72.593
-72.5624
-72.5001
-71.9725
-74.9792
-75.2424
-75.0166
-75.6067
-75.3047
-74.7464
-75.4012
-74.5175
-73.2317
-80.1758
-79.8704
-79.2543
-79.227
-79.1586
-78.9201
-78.393
-78.2707
-77.8054
-74.6966
-82.917
-82.2211
-81.4009
-80.6673
-80.412
-80.6314
-80.3445
-79.9586
-79.4612
-78.616
-78.281
-83.9536
-83.3126
-82.8039
-82.2915
-81.8285
-81.2326
-80.942
-80.6968
-80.3581
-79.9616
-79.8534
-79.8713
-85.1542
-85.1141
-84.6616
-83.8728
-83.171
-82.9789
-82.349
-81.705
-81.4112
-81.2909
-80.6419
-80.2369
-79.8602
-85.0426
-84.751
-84.7231
-84.3934
-84.1338
-83.8165
-83.4804
-82.9655
-82.5504
-82.2587
-82.0417
-81.3283
-81.0563
-80.4333
-84.4347
-84.4353
-84.3801
-84.3913
-84.2729
-84.304
-84.1074
-83.7942
-83.2244
-82.5846
-82.5063
-82.6785
-82.5209
-82.1878
-82.0065
-65.8088
-66.0137
-65.9614
-66.2627
-66.2799
-66.278
-66.6218
-66.6853
-66.6098
-66.5895
-67.1881
-67.1851
-67.2125
-67.0922
-66.9931
-67.8877
-67.8879
-67.8331
-67.8825
-67.7697
-67.7708
-69.2008
-68.9747
-69.0374
-69.0018
-68.8796
-68.8081
-68.9001
-70.35
-70.4293
-70.4478
-70.5844
-70.2991
-70.39
-70.4746
-70.2089
-73.1257
-73.1618
-73.116
-72.7896
-72.4721
-72.5075
-72.494
-72.2362
-71.8081
-75.3878
-75.4139
-75.1474
-75.3465
-75.7959
-75.5281
-74.8865
-75.024
-75.1015
-73.0437
-80.0157
-80.2719
-79.886
-79.505
-79.4795
-79.4079
-78.9555
-78.9035
-78.6752
-77.8067
-74.8542
-83.0618
-82.9319
-82.1448
-81.4329
-80.7946
-80.4287
-80.7321
-80.4326
-80.219
-79.3922
-78.8461
-78.9863
-84.8887
-83.9813
-83.4718
-82.9605
-82.4346
-81.9819
-81.3272
-81.0279
-80.795
-80.4609
-80.0299
-80.118
-80.2725
-85.7486
-85.1623
-85.1872
-84.7666
-84.0124
-83.2997
-83.0524
-82.4836
-81.7974
-81.4887
-81.3566
-80.7324
-80.3088
-79.9437
-85.735
-85.0912
-84.7896
-84.783
-84.4664
-84.212
-83.9184
-83.5957
-83.102
-82.6024
-82.2783
-82.0184
-81.3907
-81.1378
-80.529
-84.2164
-84.4481
-84.4607
-84.4198
-84.4169
-84.3205
-84.3669
-84.1899
-83.8439
-83.3029
-82.6133
-82.4689
-82.6654
-82.5186
-82.2144
-82.0745
-65.5914
-65.8124
-65.7753
-66.0033
-65.9892
-65.9309
-66.2659
-66.2242
-66.2975
-66.2589
-66.6767
-66.6847
-66.5611
-66.6094
-66.5062
-67.3466
-67.0737
-67.0781
-67.1149
-67.0002
-66.9553
-67.8647
-67.8989
-67.9699
-67.8752
-67.8442
-67.75
-67.746
-69.2281
-69.0328
-69.0606
-69.0661
-68.9449
-68.8851
-68.9601
-69.0658
-70.753
-70.4496
-70.5228
-70.4312
-70.3863
-70.5452
-70.2033
-70.5839
-70.252
-73.145
-73.2011
-73.2967
-73.2517
-72.8269
-72.4503
-72.3659
-72.4026
-72.1406
-71.8144
-75.3812
-75.5019
-75.6615
-75.4228
-75.934
-75.8824
-75.927
-75.1883
-75.3018
-75.2696
-72.7163
-79.7443
-80.3614
-80.2764
-79.9701
-79.7466
-79.8273
-79.5039
-79.2216
-79.1774
-78.7133
-77.8423
-74.9057
-83.4614
-83.1864
-82.8126
-82.1255
-81.4823
-80.7355
-80.5153
-80.6291
-80.5298
-80.0102
-79.3038
-79.1308
-79.2898
-85.1403
-84.8247
-84.1221
-83.6693
-83.0927
-82.5595
-82.0929
-81.4077
-81.1526
-80.8859
-80.5806
-80.0622
-80.3924
-80.8377
-86.1673
-85.7997
-85.2037
-85.1867
-84.8531
-84.1378
-83.4361
-83.1523
-82.6244
-81.8989
-81.5651
-81.43
-80.8385
-80.3699
-80.0427
-85.6502
-85.7595
-85.1348
-84.8329
-84.8048
-84.5426
-84.3081
-84.0256
-83.7121
-83.2954
-82.6653
-82.3242
-81.9893
-81.4443
-81.2137
-80.5611
-84.3153
-84.2251
-84.4561
-84.4817
-84.4572
-84.4398
-84.3625
-84.4173
-84.2471
-83.8941
-83.3762
-82.6469
-82.4626
-82.6541
-82.5166
-82.2481
-82.1329
-65.4161
-65.5929
-65.5681
-65.8452
-65.7814
-65.6904
-66.1069
-65.9772
-65.9144
-65.9234
-66.3951
-66.2654
-66.2487
-66.2333
-66.2595
-66.7631
-66.6803
-66.6192
-66.5789
-66.4987
-66.3603
-67.3101
-67.03
-67.1516
-67.0962
-67.0427
-67.0464
-66.8873
-68.0979
-67.9939
-67.9363
-67.9825
-67.803
-67.7341
-67.7797
-67.643
-69.495
-69.2373
-69.2268
-69.0825
-69.0158
-68.9606
-68.9261
-69.111
-69.1623
-70.9442
-70.7961
-70.8553
-70.5778
-70.379
-70.2609
-70.3423
-70.551
-70.6051
-70.1351
-73.2296
-73.31
-73.2531
-73.0232
-73.1381
-72.7471
-72.6302
-72.4603
-72.2915
-71.9754
-71.7827
-75.7124
-75.6414
-75.8839
-75.9463
-76.2152
-76.3423
-76.2723
-76.0198
-75.6155
-75.7202
-75.2124
-72.0454
-79.7952
-79.9283
-80.5253
-80.2819
-80.1651
-79.9723
-79.8808
-79.5456
-79.7668
-79.2454
-78.382
-77.7135
-74.9392
-83.2903
-83.2439
-83.0401
-82.674
-82.1497
-81.4615
-80.885
-80.6793
-80.6838
-80.6793
-80.2465
-79.3401
-79.3617
-79.7703
-85.8164
-85.1517
-84.7732
-84.2012
-83.8327
-83.278
-82.6718
-82.1761
-81.4833
-81.2321
-81.0229
-80.7743
-80.2858
-80.7246
-81.4021
-86.0001
-86.2337
-85.9166
-85.2684
-85.1864
-84.9224
-84.2806
-83.6014
-83.2926
-82.7341
-82.0045
-81.6226
-81.503
-80.8894
-80.4393
-80.104
-85.6125
-85.6917
-85.7698
-85.1769
-84.8824
-84.8289
-84.6172
-84.4141
-84.1391
-83.832
-83.4617
-82.7093
-82.3639
-81.9777
-81.4789
-81.288
-80.5445
-84.5555
-84.288
-84.2325
-84.4608
-84.4974
-84.4973
-84.4633
-84.3946
-84.4579
-84.2893
-83.9334
-83.4413
-82.6955
-82.4671
-82.6416
-82.5157
-82.2862
-82.2899
-65.2329
-65.4303
-65.3885
-65.6068
-65.5937
-65.5378
-65.903
-65.8186
-65.6981
-65.7033
-66.1637
-66.032
-65.971
-65.9107
-66.0628
-66.2902
-66.3647
-66.2678
-66.2161
-66.251
-66.2829
-66.8497
-66.656
-66.6468
-66.5777
-66.5075
-66.5597
-66.2511
-67.4199
-67.3057
-67.0951
-67.1182
-67.0688
-66.9917
-66.8591
-66.8952
-68.2699
-68.0937
-68.057
-67.9482
-67.7478
-67.6945
-67.6929
-67.6136
-67.4607
-69.6716
-69.6117
-69.3228
-69.1867
-69.0452
-69.0741
-68.9481
-68.8795
-69.076
-69.1444
-71.1946
-71.2574
-70.8957
-70.7854
-70.6338
-70.4223
-70.303
-70.3254
-70.4519
-70.5733
-69.9275
-73.2384
-73.5685
-73.368
-73.263
-73.1618
-72.7284
-72.6488
-72.6131
-72.4446
-72.3407
-71.7339
-71.9664
-75.5329
-75.8601
-75.9848
-76.115
-76.3668
-76.8027
-76.4945
-76.1175
-76.0944
-75.9979
-75.5603
-75.3395
-72.518
-79.7924
-79.866
-80.1684
-80.4932
-80.414
-80.2383
-80.0157
-79.9017
-79.8116
-79.8798
-79.3136
-78.1093
-77.6603
-75.1011
-83.1917
-83.429
-83.4089
-82.9568
-82.6074
-82.1135
-81.4694
-81.0884
-80.8411
-80.8522
-80.7344
-80.4906
-79.8636
-79.7251
-80.2222
-85.9007
-85.8718
-85.3237
-84.7616
-84.2836
-83.9662
-83.4509
-82.8416
-82.274
-81.6044
-81.2788
-81.0904
-80.9554
-80.5405
-81.0287
-81.839
-86.4791
-86.0512
-86.3215
-86.0281
-85.3259
-85.2404
-84.9829
-84.3547
-83.7529
-83.446
-82.8236
-82.0754
-81.6681
-81.573
-80.9719
-80.5039
-80.1568
-85.6369
-85.6054
-85.719
-85.7673
-85.2143
-84.9426
-84.858
-84.6818
-84.5221
-84.2522
-83.9413
-83.5753
-82.766
-82.3695
-81.9824
-81.5312
-81.3545
-80.5404
-84.2731
-84.5435
-84.2409
-84.2373
-84.4604
-84.5014
-84.5278
-84.4865
-84.4195
-84.4912
-84.3249
-83.9708
-83.495
-82.748
-82.4786
-82.63
-82.5166
-82.3317
-82.2727
-65.0741
-65.2089
-65.2253
-65.4141
-65.4539
-65.3678
-65.6657
-65.6041
-65.5475
-65.5515
-65.9063
-65.8744
-65.7837
-65.6693
-65.68
-66.1743
-66.0898
-65.9664
-65.9029
-65.753
-65.9834
-66.4654
-66.4375
-66.3407
-66.3024
-66.1771
-66.0955
-66.5968
-66.9643
-66.7679
-66.6737
-66.5175
-66.5987
-66.5927
-66.5188
-66.3558
-67.6093
-67.4232
-67.2639
-67.1815
-67.1186
-67.053
-66.9333
-66.504
-66.8163
-68.5115
-68.3389
-68.0937
-68.046
-67.8808
-67.7415
-67.779
-67.7757
-67.4853
-67.4327
-69.7338
-69.7874
-69.5455
-69.3015
-69.1218
-68.9994
-68.7519
-68.8055
-68.8724
-69.0507
-69.2071
-71.3231
-71.2877
-71.3005
-70.7665
-70.6296
-70.6941
-70.1311
-70.3405
-70.4226
-70.5999
-70.5394
-69.7243
-73.3374
-73.4838
-73.3807
-73.3309
-73.2618
-73.1568
-72.8389
-72.6368
-72.352
-72.4066
-72.2303
-71.6179
-71.9463
-75.7209
-76.0307
-76.1007
-76.2438
-76.3505
-76.7741
-76.7189
-76.2782
-76.1707
-75.8685
-76.1211
-75.3618
-75.6222
-73.1139
-79.5955
-79.925
-80.0748
-80.4007
-80.5603
-80.5654
-80.3974
-80.0609
-79.8893
-79.8931
-79.9841
-79.2269
-77.9577
-77.4955
-75.0854
-83.0527
-83.2901
-83.5066
-83.5719
-83.0734
-82.6337
-82.1184
-81.6395
-81.2774
-80.7859
-80.6555
-80.6829
-80.6941
-80.8924
-80.1309
-80.3842
-86.1292
-86.1193
-85.9735
-85.4835
-84.875
-84.4308
-84.1369
-83.575
-82.9414
-82.3951
-81.7598
-81.3969
-81.1633
-81.106
-80.7413
-81.3276
-82.0993
-86.8639
-86.6155
-86.0934
-86.3415
-86.0625
-85.3712
-85.2686
-85.0043
-84.4754
-83.9001
-83.5917
-82.9299
-82.1418
-81.6918
-81.6306
-81.0508
-80.5576
-80.1072
-84.5856
-85.505
-85.5937
-85.7406
-85.7774
-85.2405
-85.0106
-84.8941
-84.7438
-84.6231
-84.357
-84.0427
-83.6688
-82.8671
-82.3811
-81.9807
-81.5898
-81.4134
-80.5801
-83.9032
-84.1289
-84.5084
-84.2131
-84.2363
-84.4507
-84.5155
-84.527
-84.507
-84.4397
-84.5204
-84.3616
-84.0052
-83.5388
-82.8038
-82.4981
-82.6215
-82.5192
-82.3911
-82.237
-64.9713
-65.1068
-65.0419
-65.2706
-65.2321
-65.2208
-65.4445
-65.453
-65.36
-65.3548
-65.7521
-65.582
-65.6025
-65.5218
-65.5392
-65.9105
-65.8921
-65.7724
-65.7115
-65.4851
-65.5968
-66.1909
-66.1206
-66.0929
-66.0067
-65.8723
-65.7325
-65.9397
-66.6091
-66.4368
-66.437
-66.3039
-66.2735
-66.2516
-66.2132
-66.6824
-67.1071
-66.8526
-66.7956
-66.7475
-66.6403
-66.6104
-66.6063
-66.4885
-66.4052
-67.7028
-67.5921
-67.4147
-67.2562
-67.2359
-67.0586
-67.0613
-66.8211
-66.5782
-66.7734
-68.6567
-68.4325
-68.3359
-68.1618
-68.0648
-68.0064
-67.7548
-67.8975
-67.6424
-67.3653
-67.4832
-69.9281
-69.8477
-69.765
-69.4303
-69.2815
-69.1017
-68.9365
-68.7723
-68.8403
-68.9377
-68.9067
-69.1738
-71.4638
-71.3886
-71.2536
-70.9084
-70.9126
-70.8144
-70.6156
-70.6405
-70.2007
-70.4874
-70.5562
-70.5853
-69.5308
-73.6073
-73.5156
-73.4415
-73.3091
-73.335
-73.3522
-73.053
-72.7942
-72.6131
-72.6324
-72.2779
-72.4016
-71.4302
-71.957
-75.6953
-75.8747
-76.0675
-76.428
-76.4118
-76.6773
-76.9076
-76.8191
-76.4211
-76.4272
-75.9698
-75.9759
-75.3143
-75.8594
-73.6478
-79.655
-79.7425
-80.0448
-80.3397
-80.5095
-80.7348
-80.6814
-80.4367
-80.1004
-79.8533
-79.8526
-80.0399
-79.2063
-78.063
-77.4093
-75.3643
-82.6819
-83.1391
-83.5561
-83.7577
-83.6139
-83.2341
-82.6991
-82.2564
-81.8085
-81.3641
-80.7951
-80.5462
-80.5776
-80.8911
-80.6855
-80.5615
-80.4156
-85.8186
-86.4203
-86.211
-86.0246
-85.5985
-84.8362
-84.4506
-84.1922
-83.6636
-83.1335
-82.5149
-81.8642
-81.5056
-81.284
-81.3222
-80.9672
-81.695
-82.0309
-85.1106
-86.8492
-86.7438
-86.1345
-86.3362
-86.0403
-85.4217
-85.2199
-84.9584
-84.6081
-84.0667
-83.7446
-83.048
-82.2037
-81.7338
-81.6999
-81.1179
-80.5451
-79.9472
-84.4677
-84.4657
-85.3831
-85.5637
-85.7277
-85.8064
-85.2585
-85.0845
-84.9521
-84.8059
-84.7111
-84.4463
-84.1285
-83.7589
-82.9732
-82.4088
-81.9796
-81.6293
-81.4719
-80.6075
-83.2185
-83.8568
-83.9884
-84.4543
-84.1849
-84.2256
-84.4331
-84.5399
-84.5226
-84.5255
-84.4562
-84.5483
-84.3956
-84.031
-83.5775
-82.86
-82.523
-82.6178
-82.523
-82.4532
-82.3689
-64.8216
-65.0569
-64.9517
-65.1342
-65.0579
-65.0344
-65.2537
-65.2706
-65.1819
-65.1918
-65.4149
-65.4282
-65.3601
-65.3144
-65.3098
-65.6546
-65.6887
-65.6328
-65.5136
-65.4867
-65.4992
-66.0445
-65.9224
-65.8547
-65.7821
-65.6762
-65.7222
-65.4268
-66.35
-66.2229
-66.1285
-66.0324
-65.9483
-65.907
-65.8759
-65.8566
-66.7355
-66.5459
-66.4552
-66.3894
-66.3015
-66.245
-66.2503
-66.3777
-66.2802
-67.212
-67.0682
-66.9101
-66.7986
-66.69
-66.5861
-66.5747
-66.5776
-66.5689
-66.2846
-67.9274
-67.7356
-67.5704
-67.4316
-67.3013
-67.1983
-67.1208
-67.0038
-66.8396
-66.6569
-66.7411
-68.8911
-68.7756
-68.291
-68.338
-68.172
-68.0084
-67.8348
-67.8151
-67.7501
-67.5532
-67.5303
-67.5287
-70.0837
-69.9371
-69.8805
-69.6823
-69.4253
-69.2175
-68.9516
-68.9778
-68.9023
-68.8756
-68.8584
-68.9476
-69.176
-71.7236
-71.4709
-71.2908
-71.0895
-71.0815
-71.0664
-70.8684
-70.7713
-70.5352
-70.5391
-70.413
-70.3337
-70.5838
-69.7793
-73.7859
-73.5968
-73.5964
-73.4253
-73.4356
-73.4138
-73.1588
-72.9385
-72.8014
-72.8354
-72.5947
-72.3575
-72.2193
-71.3226
-71.89
-76.0527
-75.8814
-76.2526
-76.2567
-76.5659
-76.6161
-76.6878
-76.8595
-76.9154
-76.5754
-76.3471
-76.0798
-75.9149
-75.1388
-75.236
-73.5898
-79.4658
-79.6925
-79.9638
-80.2212
-80.4326
-80.6875
-80.9289
-80.6133
-80.2594
-80.1055
-79.8354
-79.6849
-79.6011
-78.971
-77.9292
-76.7237
-75.8314
-82.1503
-82.8695
-83.3044
-83.6437
-83.8669
-83.6361
-83.2712
-82.7711
-82.4217
-81.9704
-81.4876
-80.9196
-80.6342
-80.5315
-80.8582
-81.2538
-80.7279
-80.1651
-84.217
-85.9522
-86.6721
-86.3169
-86.0008
-85.5793
-84.8216
-84.4657
-84.2159
-83.7435
-83.2876
-82.6968
-81.9887
-81.6067
-81.3372
-81.3652
-81.2636
-81.8073
-81.5555
-84.5289
-85.0533
-86.746
-86.8361
-86.1082
-86.3199
-86.0282
-85.4644
-85.1915
-84.9437
-84.7139
-84.2139
-83.8678
-83.1487
-82.2358
-81.7949
-81.7855
-81.1427
-80.4398
-79.7335
-84.2094
-84.3849
-84.3629
-85.2395
-85.4941
-85.6954
-85.8116
-85.2771
-85.1511
-84.9993
-84.8528
-84.7892
-84.5243
-84.2004
-83.8422
-83.0662
-82.4302
-82.0184
-81.6566
-81.5269
-80.638
-82.9705
-83.176
-83.8181
-83.8758
-84.4003
-84.1791
-84.2123
-84.4126
-84.5577
-84.5329
-84.5426
-84.471
-84.5746
-84.433
-84.0488
-83.6102
-82.9131
-82.556
-82.6222
-82.5286
-82.5003
-82.541
-64.7376
-64.835
-64.7958
-64.9589
-64.9696
-64.9583
-65.1095
-65.0689
-65.0553
-65.0179
-65.2514
-65.2355
-65.2208
-65.2046
-65.1517
-65.4382
-65.4125
-65.3972
-65.3728
-65.3187
-65.2433
-65.9541
-65.6361
-65.6168
-65.653
-65.4895
-65.468
-65.4799
-66.0856
-65.9433
-65.902
-65.8073
-65.7473
-65.6206
-65.7288
-65.4769
-66.4681
-66.3118
-66.1653
-66.0915
-65.9989
-65.9057
-65.851
-65.8165
-65.8466
-66.8722
-66.7399
-66.5852
-66.4182
-66.3692
-66.2781
-66.1581
-66.1946
-66.2369
-66.3169
-67.4185
-67.2696
-67.0733
-66.8679
-66.7323
-66.5537
-66.5647
-66.5066
-66.4862
-66.6815
-66.2876
-68.1202
-67.9555
-67.7103
-67.5905
-67.3235
-67.2176
-67.1637
-67.0048
-66.8251
-66.8774
-66.7987
-66.7174
-69.011
-68.9224
-68.5008
-68.5286
-68.2999
-68.0994
-67.9873
-67.8353
-67.7983
-67.6618
-67.5234
-67.6345
-67.5491
-70.1037
-70.0354
-69.9166
-69.8022
-69.5984
-69.37
-69.1399
-68.8709
-68.8803
-68.8493
-68.951
-68.8594
-69.0239
-69.0289
-72.1634
-71.9361
-71.4514
-71.3426
-71.2542
-71.328
-71.0781
-70.8235
-70.8585
-70.5876
-70.4915
-70.6028
-70.264
-70.5115
-69.6383
-73.8307
-73.8846
-73.8268
-73.5857
-73.5982
-73.4194
-73.2062
-73.2043
-73.2178
-72.9796
-72.8736
-72.6395
-72.2421
-71.9448
-71.2258
-71.4337
-76.0187
-76.2098
-76.1764
-76.319
-76.4908
-76.7008
-76.7564
-77.026
-76.9279
-76.8478
-76.5373
-76.0692
-76.0908
-75.6697
-74.7016
-74.2959
-73.1402
-79.0828
-79.3907
-79.9046
-80.1247
-80.3937
-80.6421
-80.8626
-81.036
-80.7123
-80.4345
-80.2159
-80.0269
-79.5883
-79.4037
-78.5431
-77.5731
-76.4016
-75.418
-80.7876
-82.1234
-83.0163
-83.434
-83.7229
-83.8361
-83.5475
-83.2029
-82.9777
-82.6018
-82.1236
-81.6053
-81.0441
-80.6662
-80.6249
-80.9745
-82.4082
-81.1221
-79.4594
-82.5749
-84.1042
-86.0305
-86.7354
-86.4342
-86.096
-85.6182
-84.9909
-84.4957
-84.2641
-83.8946
-83.3829
-82.8773
-82.1493
-81.7292
-81.4622
-81.4895
-81.2675
-81.7016
-80.7915
-83.7498
-84.379
-85.0375
-86.6372
-86.896
-86.0669
-86.2987
-86.0507
-85.5031
-85.1886
-84.9597
-84.8017
-84.3428
-83.9719
-83.2409
-82.2797
-81.909
-81.8766
-81.1305
-80.2719
-79.4499
-83.8357
-84.1853
-84.2928
-84.2639
-85.0799
-85.3942
-85.6571
-85.786
-85.2963
-85.1921
-85.0187
-84.8919
-84.8427
-84.5944
-84.2641
-83.9034
-83.1534
-82.4555
-82.0916
-81.6964
-81.5831
-80.7805
-82.351
-82.9627
-83.1372
-83.7679
-83.8325
-84.29
-84.194
-84.2135
-84.3907
-84.5695
-84.5367
-84.5577
-84.4865
-84.5982
-84.4793
-84.0641
-83.6295
-82.9625
-82.6029
-82.6332
-82.5367
-82.5459
-82.6064
-64.6672
-64.7119
-64.7226
-64.8503
-64.8235
-64.7935
-65.0217
-64.9546
-64.9626
-64.9377
-65.0877
-65.0825
-65.0475
-65.0465
-64.9881
-65.2341
-65.2453
-65.1735
-65.2553
-65.2055
-65.1374
-65.5123
-65.3582
-65.4219
-65.3271
-65.3228
-65.2843
-65.2405
-65.8114
-65.5329
-65.6109
-65.607
-65.5374
-65.4687
-65.4568
-65.5055
-66.1319
-66.0651
-65.9903
-65.8703
-65.7823
-65.6668
-65.5628
-65.6824
-65.543
-66.5677
-66.4117
-66.2621
-66.1516
-66.0704
-65.9641
-65.8627
-65.7027
-65.7912
-66.063
-66.9797
-66.8601
-66.6997
-66.508
-66.4034
-66.327
-66.2152
-66.1055
-66.194
-66.2153
-66.3412
-67.5223
-67.3346
-67.2044
-67.0016
-66.7936
-66.7051
-66.6415
-66.5653
-66.4095
-66.4739
-66.6355
-66.3145
-68.1656
-68.0176
-67.9136
-67.6816
-67.5117
-67.3289
-67.2772
-67.0536
-66.9383
-66.8694
-66.884
-66.8296
-66.6488
-69.1271
-68.9672
-68.8
-68.5738
-68.4922
-68.2685
-68.1564
-67.9978
-67.8406
-67.735
-67.6454
-67.654
-67.5403
-67.498
-70.233
-70.1401
-69.9435
-69.8693
-69.717
-69.5175
-69.295
-69.0963
-69.1487
-68.8982
-68.9283
-68.9035
-68.9959
-68.8636
-68.8077
-71.8024
-71.9741
-71.6475
-71.5488
-71.4847
-71.3443
-71.3401
-71.0324
-70.9683
-70.7733
-70.5336
-70.4671
-70.5737
-70.1041
-70.3979
-69.6448
-73.7248
-73.8056
-74.0894
-73.817
-73.7507
-73.4009
-73.307
-73.4129
-73.6949
-73.431
-73.0014
-72.8524
-72.771
-72.2825
-71.8784
-71.5377
-71.0874
-75.8576
-76.1175
-76.1904
-76.2086
-76.3266
-76.5893
-76.7435
-76.9615
-77.0801
-76.871
-76.83
-76.7974
-76.2384
-75.8004
-75.4509
-74.8779
-74.1799
-72.6481
-78.3844
-78.9905
-79.4847
-80.0154
-80.2425
-80.4714
-80.8286
-80.8167
-80.9033
-80.9427
-80.7933
-80.2295
-80.1484
-79.4215
-79.2554
-78.775
-78.2355
-76.7813
-74.9527
-80.2142
-80.7688
-82.134
-83.0691
-83.5759
-83.8532
-83.9892
-83.7464
-83.403
-83.0957
-82.7146
-82.202
-81.7451
-81.1988
-80.6927
-80.5657
-81.3689
-81.9354
-81.1531
-78.5158
-81.9524
-82.6648
-83.9633
-86.0317
-86.7269
-86.5991
-86.2363
-85.7933
-85.1877
-84.5088
-84.2527
-83.9635
-83.5562
-83.027
-82.3248
-81.8664
-81.6037
-81.6809
-81.2469
-81.2842
-79.7613
-83.5239
-83.7589
-84.3345
-84.9976
-86.5155
-86.9285
-85.9972
-86.3007
-86.0822
-85.5484
-85.2277
-84.9824
-84.8736
-84.4617
-84.0497
-83.2787
-82.371
-82.0559
-81.9776
-81.0993
-80.0756
-79.195
-82.3197
-83.7748
-84.1727
-84.1635
-84.1563
-84.9008
-85.2962
-85.615
-85.7531
-85.3094
-85.2257
-85.0303
-84.9314
-84.8978
-84.6498
-84.3152
-83.9497
-83.2269
-82.49
-82.1793
-81.7491
-81.6615
-80.8868
-81.6994
-82.3312
-82.9523
-83.1073
-83.6988
-83.7689
-84.1628
-84.1465
-84.2052
-84.3673
-84.5688
-84.5451
-84.5706
-84.4995
-84.6207
-84.5133
-84.0764
-83.6501
-83.0065
-82.6593
-82.6478
-82.5458
-82.5964
-82.6046
-64.5613
-64.6699
-64.643
-64.7716
-64.6894
-64.7023
-64.8528
-64.8233
-64.7897
-64.7773
-64.976
-65.0177
-64.9312
-64.8988
-64.8983
-65.1517
-65.074
-65.0573
-65.0281
-64.9473
-64.958
-65.0931
-65.1996
-65.2473
-65.1596
-65.1748
-65.155
-65.0954
-65.5541
-65.4264
-65.4634
-65.4256
-65.2803
-65.2612
-65.2794
-65.1094
-65.895
-65.7242
-65.6033
-65.584
-65.6057
-65.4977
-65.4531
-65.467
-65.4057
-66.2321
-66.116
-66.0214
-65.9284
-65.8316
-65.7315
-65.6493
-65.5517
-65.643
-65.3879
-66.6228
-66.5276
-66.3428
-66.2741
-66.1215
-66.0252
-65.9037
-65.8375
-65.86
-65.7497
-65.8503
-67.1138
-66.9902
-66.7331
-66.5945
-66.4796
-66.3623
-66.2804
-66.1462
-66.1578
-66.1859
-66.1444
-66.2092
-67.6765
-67.4688
-67.3554
-67.0891
-66.9141
-66.8199
-66.7032
-66.5696
-66.4906
-66.488
-66.4337
-66.5637
-66.3592
-68.3304
-68.1884
-68.0163
-67.826
-67.5837
-67.4775
-67.3417
-67.2417
-67.0092
-66.9821
-66.864
-66.8311
-66.8056
-66.636
-69.2107
-68.9013
-68.9998
-68.6552
-68.6433
-68.394
-68.1914
-68.1042
-67.9767
-67.8141
-67.6986
-67.6535
-67.6739
-67.4713
-67.447
-70.4903
-70.1403
-70.149
-69.9771
-69.7601
-69.6595
-69.3938
-69.2673
-69.1327
-69.0926
-68.8952
-69.0381
-69.0452
-69.1539
-68.6549
-68.7222
-71.7986
-71.7848
-71.7845
-71.6331
-71.528
-71.3903
-71.3577
-70.9668
-71.0141
-70.9606
-70.7274
-70.6878
-70.4991
-70.5351
-70.1409
-69.8515
-69.7824
-73.5725
-73.7511
-74.0004
-73.3921
-73.8087
-73.9111
-73.4613
-73.2865
-73.8045
-73.5779
-73.3194
-73.1438
-72.968
-72.576
-72.5224
-72.1759
-71.8709
-70.9151
-75.5215
-75.896
-76.0613
-76.3126
-76.2994
-76.4744
-76.7982
-76.9685
-77.0808
-77.2173
-77.0851
-76.901
-77.1179
-76.0503
-75.7705
-75.4698
-74.5014
-74.1208
-72.7579
-77.9177
-78.2946
-78.9234
-79.6063
-80.1318
-80.4056
-80.7547
-81.0783
-81.087
-81.1312
-80.8813
-80.7973
-80.5085
-80.3308
-79.5503
-79.1983
-78.8516
-78.4369
-77.0121
-75.3361
-79.4451
-80.1211
-80.7591
-82.12
-83.1392
-83.787
-84.0812
-84.3089
-84.1899
-83.5468
-83.1933
-82.8081
-82.319
-81.9457
-81.3115
-80.7188
-80.506
-81.7771
-81.3722
-80.7046
-77.5931
-81.1739
-82.0461
-82.7228
-83.7802
-85.85
-86.7112
-86.7374
-86.3029
-85.7684
-85.1792
-84.477
-84.2311
-84.0426
-83.7171
-83.2055
-82.5228
-82.0291
-81.7759
-81.9057
-81.1467
-80.786
-78.9998
-82.4342
-83.4795
-83.7798
-84.3188
-84.8337
-86.2478
-86.9407
-85.9338
-86.3172
-86.1221
-85.6106
-85.2914
-85.0116
-84.9322
-84.5514
-84.1231
-83.2974
-82.4759
-82.2163
-82.0552
-81.0753
-79.9036
-79.0092
-81.7732
-82.2634
-83.7144
-84.1592
-83.994
-84.0533
-84.7333
-85.1864
-85.5554
-85.7183
-85.3379
-85.2613
-85.0395
-84.9596
-84.9431
-84.6935
-84.368
-83.9964
-83.276
-82.5062
-82.249
-81.809
-81.7581
-80.9159
-81.278
-81.6576
-82.3111
-82.9378
-83.0839
-83.6414
-83.6666
-84.055
-84.0649
-84.1921
-84.3424
-84.5542
-84.5709
-84.5818
-84.5099
-84.6425
-84.5281
-84.0893
-83.6688
-83.0459
-82.6997
-82.6633
-82.5566
-82.6396
-82.757
-64.5356
-64.5379
-64.6666
-64.6444
-64.6286
-64.7491
-64.7179
-64.6882
-64.6803
-64.909
-64.8476
-64.7884
-64.7642
-64.7439
-65.0508
-65.0528
-64.9851
-64.9195
-64.9044
-64.8297
-65.1265
-65.0675
-65.0662
-65.0433
-65.044
-64.952
-64.9284
-65.325
-65.4031
-65.2979
-65.2037
-65.1781
-65.1771
-65.1234
-65.0647
-65.6524
-65.4408
-65.4382
-65.4414
-65.3937
-65.3248
-65.241
-65.2595
-65.1463
-65.9549
-65.8377
-65.7632
-65.6359
-65.609
-65.528
-65.5209
-65.3883
-65.464
-65.299
-66.2787
-66.2171
-66.0414
-65.9921
-65.8747
-65.7778
-65.6926
-65.6325
-65.5388
-65.5922
-65.2905
-66.8444
-66.6619
-66.4581
-66.3136
-66.2034
-66.0778
-65.9597
-65.8707
-65.8246
-65.7506
-65.6899
-65.7264
-67.2895
-67.1414
-66.9669
-66.6995
-66.5727
-66.4806
-66.3355
-66.1582
-66.1521
-66.179
-66.0863
-66.0386
-66.0768
-67.8991
-67.7534
-67.4623
-67.3268
-67.006
-66.8958
-66.8048
-66.6576
-66.5406
-66.4869
-66.4488
-66.42
-66.4214
-66.3346
-68.5676
-68.3268
-68.2096
-68.0111
-67.7044
-67.5292
-67.3869
-67.2848
-67.1137
-67.0227
-66.9175
-66.8919
-66.8325
-66.7909
-66.5792
-69.5573
-69.2972
-69.1979
-68.8746
-68.6511
-68.5413
-68.3826
-68.2131
-68.0155
-67.8994
-67.6831
-67.6867
-67.6697
-67.6674
-67.4654
-67.3628
-70.5261
-70.4395
-69.7874
-70.0004
-69.9304
-69.8983
-69.416
-69.3364
-69.3308
-69.1327
-69.15
-69.0248
-68.9349
-68.9909
-69.1726
-68.7665
-68.6932
-71.9845
-71.8794
-71.9009
-71.8251
-71.6669
-71.5156
-71.284
-71.2749
-71.2619
-71.1635
-70.8375
-70.8534
-70.5461
-70.6022
-70.3558
-70.1732
-69.5208
-69.7771
-73.5513
-73.5163
-73.8734
-73.8632
-74.1536
-73.9253
-73.9188
-73.8823
-73.9515
-73.858
-73.4955
-73.7013
-73.0785
-73.1751
-72.7036
-72.5433
-72.031
-72.0687
-70.9046
-75.302
-75.6072
-75.8342
-76.0878
-76.3759
-76.4842
-76.5063
-76.6929
-77.0196
-77.3018
-77.1518
-77.393
-77.0895
-77.2586
-76.2848
-75.5669
-75.3693
-75.3029
-73.6549
-72.5768
-77.5356
-77.8787
-78.3481
-78.9515
-79.7152
-80.2815
-80.8655
-81.3566
-81.8163
-81.4364
-81.3309
-81.079
-81.0175
-80.714
-79.8402
-79.5247
-79.1725
-78.4974
-77.6202
-77.2075
-75.5667
-79.083
-79.4733
-79.9376
-80.7807
-82.2961
-83.2031
-83.9235
-84.2974
-84.6534
-84.2305
-83.5561
-83.2159
-82.9676
-82.3851
-82.1381
-81.4851
-80.7809
-80.721
-82.4009
-81.2802
-80.5356
-76.9152
-80.6522
-81.2244
-82.0814
-82.7449
-83.5897
-85.7376
-86.7093
-86.7011
-86.4146
-85.85
-85.152
-84.4965
-84.2386
-84.1193
-83.8899
-83.3853
-82.7463
-82.3743
-81.9491
-82.0685
-80.9851
-79.9952
-78.3172
-81.5447
-82.4197
-83.439
-83.7762
-84.2889
-84.6558
-85.8718
-86.8949
-85.9047
-86.3666
-86.1858
-85.691
-85.3481
-85.0594
-84.9865
-84.6065
-84.1821
-83.3794
-82.6272
-82.407
-82.1073
-81.0785
-79.824
-78.8855
-81.3363
-81.7457
-82.2156
-83.6539
-84.1385
-83.8155
-83.9584
-84.5828
-85.0653
-85.4657
-85.6739
-85.374
-85.3135
-85.0546
-84.9891
-84.9869
-84.7344
-84.4186
-84.0421
-83.3029
-82.5379
-82.2873
-81.8763
-81.874
-81.0248
-81.2483
-81.1473
-81.6364
-82.2903
-82.915
-83.0588
-83.5865
-83.5921
-83.947
-84.0368
-84.1766
-84.307
-84.5353
-84.586
-84.5926
-84.5244
-84.6634
-84.5396
-84.1036
-83.6857
-83.0798
-82.722
-82.6778
-82.5734
-82.6946
-64.5419
-64.5386
-64.537
-64.7257
-64.6347
-64.6247
-64.6225
-64.798
-64.7088
-64.7135
-64.6992
-64.6478
-64.8625
-64.9018
-64.825
-64.7853
-64.8145
-64.6985
-65.0739
-65.0552
-65.0204
-64.9431
-64.8919
-64.9333