/*--------------------------------*- C++ -*----------------------------------*\
  =========                 |
  \\      /  F ield         | OpenFOAM: The Open Source CFD Toolbox
   \\    /   O peration     | Website:  https://openfoam.org
    \\  /    A nd           | Version:  7
     \\/     M anipulation  |
\*---------------------------------------------------------------------------*/
FoamFile
{
    version     2.0;
    format      ascii;
    class       surfaceScalarField;
    location    "6";
    object      phi;
}
// * * * * * * * * * * * * * * * * * * * * * * * * * * * * * * * * * * * * * //

dimensions      [0 3 -1 0 0 0 0];

internalField   nonuniform List<scalar> 
54125
(
-0.000107685
-4.66376e-05
0.000687008
-0.000162177
-0.000126501
0.000470701
1.52828e-05
-9.5527e-05
-0.00116658
-9.72221e-05
-4.0764e-05
0.000824996
-0.000170774
-0.000123924
0.000856549
2.16486e-05
-0.000136918
0.000116394
-0.000147152
-0.000120292
0.000640924
2.52496e-05
-9.04846e-05
-0.00054833
9.94913e-06
-8.57914e-05
-0.0011315
-9.85314e-05
-3.87377e-05
0.000962265
-0.000171031
-0.000224142
0.000860266
2.14408e-05
-0.000158019
0.000315361
-0.000160322
-0.000115215
0.000984935
-1.80108e-05
-5.38287e-05
-9.27905e-05
1.90257e-05
-0.000138863
0.000125889
-0.000150039
-0.000123906
0.000816338
2.29643e-05
-6.42096e-05
0.000692467
2.88047e-05
-8.6035e-05
-0.00057689
7.24206e-06
-8.44186e-05
-0.00109306
-9.92341e-05
-3.71667e-05
0.00109867
-0.000664926
0.000351142
0.00470015
-0.000194126
-0.000252529
0.000565258
-0.000206683
-0.000184693
0.00109132
-6.49374e-05
-0.000131961
0.000659364
1.5745e-05
-0.000159696
0.000363124
-0.000170145
-0.000111723
0.00111676
6.46442e-06
-6.43085e-05
0.000992441
3.19365e-06
-7.19109e-05
-0.000134131
1.60383e-05
-0.000154896
0.000148082
-0.000149503
-0.000128796
0.000995402
4.17263e-05
-5.97769e-05
0.00216549
2.52844e-05
-6.2837e-05
0.000643985
3.45886e-05
-8.97369e-05
-0.00060616
4.522e-06
-8.28631e-05
-0.00105188
-9.83002e-05
-3.50132e-05
0.00123198
-0.00121659
0.000381044
0.00730146
-0.000647476
0.000641913
0.00300663
-0.000737873
0.000372369
0.00485898
-0.000242418
-0.000186073
0.000819849
-0.000176475
-0.000210377
0.000783162
-0.000216854
-0.000157107
0.00129514
8.99053e-06
-0.000167887
0.00167627
-6.25459e-05
-8.73736e-05
0.000652782
-1.29217e-05
-0.000163682
0.000444042
-0.000161815
-0.000105613
0.00123469
0.000139747
-0.000125374
0.00252935
1.08855e-05
-8.73774e-05
0.00102231
1.82115e-05
-9.41933e-05
-0.000178457
2.33177e-05
-0.000172007
0.000172496
-0.000146071
-0.000133241
0.00117641
4.39803e-05
-5.53349e-05
0.00179005
4.44236e-05
-5.54263e-05
0.00211365
2.93247e-05
-6.82082e-05
0.000593132
3.99213e-05
-9.32241e-05
-0.000635721
2.16252e-06
-8.17356e-05
-0.00100732
-9.07308e-05
-3.37247e-05
0.00135643
-0.00132854
-2.74341e-05
0.00520143
-0.00124292
0.000893624
0.00666401
-0.00125921
0.000375778
0.00744702
-0.000451062
0.000798628
0.00329387
-0.000535872
0.000615919
0.00312248
-0.000626477
0.000442959
0.00482564
-0.000147473
-0.000109224
0.00110621
-0.00019322
-0.000183403
0.000923549
-0.000163617
-0.000179954
0.000956703
-0.000188789
-0.000124943
0.00144705
0.000186733
-0.000131918
0.00191849
-4.57731e-06
-0.000100758
0.00170512
-5.88875e-05
-8.86266e-05
0.000654826
-2.14867e-05
-0.000170828
0.000554061
-0.000146382
-0.000100523
0.00133552
0.000112357
-0.000127863
0.00277385
0.000131473
-0.000131819
0.00248674
2.63835e-05
-0.000107925
0.00103898
2.79179e-05
-0.000116335
-0.000222125
1.91362e-05
-0.000188147
0.000210427
-0.000131435
-0.00013961
0.00135673
3.67961e-05
-5.57519e-05
0.00100401
4.83984e-05
-5.13395e-05
0.00173757
5.47745e-05
-5.72584e-05
0.00204793
3.25829e-05
-7.38752e-05
0.0005412
4.13398e-05
-9.66189e-05
-0.000662177
-2.09912e-06
-8.04029e-05
-0.000958547
-9.01681e-05
-3.33123e-05
0.00147991
-0.00118352
0.000138395
0.0054276
-0.00102016
-6.51174e-05
0.00748196
-0.00136819
1.99852e-05
0.00529042
-0.000621142
0.00104515
0.00664135
-0.000891869
0.000784476
0.00661131
-0.00111399
0.000499501
0.00743503
-0.000237302
0.000928984
0.00346463
-0.00031891
0.000771383
0.0032641
-0.000330885
0.000585483
0.00314722
-0.000503736
0.000449385
0.0046912
-3.37246e-05
5.59737e-05
0.00187076
-0.000114645
-0.000131756
0.00116463
-0.000130268
-0.000203293
0.00101827
-0.000135367
-0.00016116
0.0011068
-0.000141162
-0.000110666
0.0015525
0.000122497
-0.000142215
0.00214424
0.000151714
-0.000109423
0.00190691
8.48642e-06
-9.39804e-05
0.00172837
-5.90477e-05
-8.38211e-05
0.000654785
-4.6444e-05
-0.000173643
0.000692762
-0.000138584
-9.78043e-05
0.00144047
0.000137291
-0.000140294
0.00186975
0.000124928
-0.000115838
0.00268134
0.000154786
-0.000145808
0.00242462
5.81883e-05
-0.000121269
0.00101831
3.10579e-05
-0.000138466
-0.000261524
1.12361e-05
-0.000200783
0.000258265
-0.000127092
-0.000130162
0.00152382
8.46139e-05
-5.84793e-05
0.000679925
4.27616e-05
-5.19125e-05
0.000961818
5.55193e-05
-5.21071e-05
0.0016769
6.59538e-05
-5.95251e-05
0.00196762
3.46685e-05
-8.08456e-05
0.000490758
4.27635e-05
-9.96032e-05
-0.000685741
-8.68256e-06
-7.92238e-05
-0.000903953
-8.94677e-05
-3.2042e-05
0.00160142
-0.00130165
6.24546e-05
0.00505855
-0.000899404
4.84171e-05
0.00575571
-0.00122931
5.93531e-05
0.00522936
-0.000833186
0.000274615
0.00700332
-0.000726827
9.6471e-05
0.00724043
-0.00140398
0.000273702
0.00530671
-0.00026016
0.000861694
0.00685975
-0.000503103
0.000929446
0.00668057
-0.000513234
0.000792053
0.0065011
-0.000922831
0.000474715
0.00737941
-7.94688e-05
0.000991075
0.00313525
-0.00016228
0.000874114
0.00340954
-0.000117307
0.000726468
0.00311015
-0.000175034
0.000545272
0.003091
-0.000430465
0.000460057
0.00452045
-7.28788e-05
0.000105935
0.00225606
-9.23554e-06
2.48668e-05
0.00187508
-8.19456e-05
-0.000158288
0.00121005
-6.96897e-05
-0.000223975
0.00109173
-0.000111493
-0.000134034
0.00119522
-0.0001776
-0.000140145
0.00173166
0.000314792
-0.000152721
0.00233332
0.000137121
-0.000134364
0.00215699
0.000149256
-0.000108429
0.00192689
5.29004e-05
-8.93636e-05
0.0017392
-6.63444e-05
-7.71332e-05
0.000655677
-5.67967e-05
-0.000176231
0.000839222
-0.000107132
-0.000100891
0.00152141
0.000182232
-0.000141127
0.00113362
0.000139456
-0.00012288
0.0017801
0.000133992
-0.000126725
0.00258378
0.000195839
-0.000147568
0.00232103
9.5591e-05
-0.000144629
0.000963548
3.67502e-05
-0.000159344
-0.000296949
-1.07676e-06
-0.000203997
0.000324494
-0.00012047
-0.000122514
0.00167733
0.000144692
-5.07538e-05
0.000333125
8.66089e-05
-5.44409e-05
0.000595844
4.76133e-05
-5.33418e-05
0.000915439
6.25309e-05
-5.34084e-05
0.00160825
6.96708e-05
-6.31295e-05
0.00188024
3.4597e-05
-8.45436e-05
0.000441101
4.52341e-05
-0.000101627
-0.000708571
-1.50503e-05
-7.75797e-05
-0.000843365
-8.63916e-05
-3.21086e-05
0.00171992
-0.001443
7.48963e-05
0.00377337
-0.00073065
4.40996e-06
0.00563572
-0.00126496
-1.09623e-05
0.00510517
-0.000824996
0.000189636
0.00642752
-0.000845597
0.000141211
0.00579262
-0.00126869
1.48536e-06
0.00509259
-0.000325713
0.000462402
0.00723888
-0.00041862
0.000192799
0.00682251
-0.000538452
0.000367069
0.00717228
-0.00141123
0.000180719
0.00561439
1.85802e-05
0.000672154
0.00568118
-0.000213091
0.000887278
0.00695273
-0.000286938
0.000866068
0.00677618
-0.000319703
0.000548013
0.00657248
-0.000702403
0.000514053
0.0071373
-4.13879e-05
0.000858997
0.00387521
-2.45471e-05
0.00089827
0.00312641
-2.2332e-05
0.000838989
0.0032374
0.000209722
0.000669418
0.0027066
-8.73367e-05
0.00054366
0.00298325
-0.000561606
0.000419831
0.00448462
0.000228485
3.39787e-05
0.00234722
-1.78863e-05
7.03192e-05
0.00236561
1.37672e-05
-1.72075e-05
0.00186949
-4.73699e-05
-0.000184016
0.00127036
-0.000110466
-0.000216802
0.00121862
-9.64377e-05
-0.00014776
0.00124247
-0.000133426
-0.000117841
0.0018758
0.000356048
-0.000180955
0.0022431
0.000223619
-0.000177777
0.00229257
0.000110088
-0.000129664
0.00220212
0.00017281
-0.0001005
0.00196106
0.000100025
-7.14841e-05
0.00172912
-6.85575e-05
-0.000125292
0.000710046
-4.32179e-05
-0.000183348
0.00096382
-7.34018e-05
-9.95546e-05
0.00157389
0.000176224
-0.000110791
0.00108956
0.000160913
-0.000129955
0.00106639
0.000135118
-0.000129619
0.00169549
0.000143388
-0.000131542
0.0024869
0.000225068
-0.000158301
0.0021793
0.000106465
-0.000164891
0.000897227
4.62768e-05
-0.000182151
-0.000319838
-6.84344e-06
-0.000207444
0.000401217
-0.000113217
-0.000122205
0.00182636
0.000161434
-4.98934e-05
0.000407417
0.0001264
-4.87236e-05
0.000201008
9.50024e-05
-5.44995e-05
0.000502
5.4361e-05
-5.50158e-05
0.000862686
6.91486e-05
-5.44953e-05
0.00153047
7.53219e-05
-6.36155e-05
0.00178399
3.23706e-05
-8.65015e-05
0.000393605
4.7491e-05
-0.000103046
-0.000730596
-1.81988e-05
-7.63618e-05
-0.000780913
-7.40743e-05
-3.23409e-05
0.00182634
-0.00140677
3.52042e-05
0.00326982
-0.000827764
0.00010238
0.00477762
-0.00144218
6.98473e-05
0.00388074
-0.000411127
-0.000143626
0.00566442
-0.000885582
1.01021e-05
0.00565464
-0.00121349
-1.76396e-05
0.00506762
-0.000370153
0.00049822
0.00609083
-0.000347407
0.000318043
0.00617947
-0.000820368
0.000239459
0.00583657
-0.00144296
8.43617e-05
0.00503995
-0.00015857
0.000733142
0.00746615
-0.000166904
0.000321017
0.00706447
-0.000102015
0.000290206
0.00671445
-0.000448392
0.000466131
0.00701556
-0.00113848
0.000371703
0.00567876
0.000156645
0.000683835
0.00579739
0.000101819
0.000627745
0.00581435
-6.37102e-06
0.000828868
0.00697397
0.000156908
0.000638166
0.00673884
-0.000322511
0.000730537
0.00659117
-0.000872769
0.000541952
0.00690651
0.000272396
0.000582423
0.00358025
0.00017148
0.000806073
0.00377804
0.000185067
0.000843855
0.00295024
0.000150952
0.000781227
0.00292727
1.08866e-05
0.000606824
0.00252208
6.71723e-05
0.000415107
0.00282436
-0.000615256
0.000413998
0.00455246
0.000249409
6.75559e-05
0.00253202
0.000155583
1.31881e-05
0.00247238
-2.61583e-05
3.53547e-05
0.0024493
2.12415e-05
-3.50283e-05
0.00187207
-1.79924e-05
-0.000207941
0.00137952
-0.000119948
-0.00021613
0.00133838
-4.36426e-05
-0.000150087
0.00127514
-6.11575e-05
-0.000114549
0.0019781
0.000365806
-0.000281672
0.0019757
0.000296646
-0.000199493
0.00212908
0.000215242
-0.000207369
0.00229015
0.000121208
-0.00010851
0.00223231
0.000208987
-0.000108605
0.00201426
0.000112736
-0.000119681
0.00171724
-5.55097e-05
-0.000139215
0.000767699
-3.14299e-05
-0.000188872
0.00107772
-2.5317e-05
-0.000102039
0.00158803
0.000227384
-0.000100644
0.00105456
0.000155858
-0.000105634
0.00103578
0.000150496
-0.000135745
0.00101702
0.00013886
-0.000139247
0.0016187
0.000152481
-0.0001374
0.00238267
0.000235461
-0.000168665
0.00202294
0.000112024
-0.000180705
0.000816128
6.22983e-05
-0.000205154
-0.000336935
-5.29378e-06
-0.000208066
0.000474173
-7.54577e-05
-0.000128144
0.00195589
0.000138437
-4.75606e-05
0.000427346
0.000138157
-4.55643e-05
0.000266101
0.000118339
-4.91125e-05
7.72821e-05
9.77109e-05
-5.34456e-05
0.000402718
6.16762e-05
-5.55942e-05
0.000802109
7.3566e-05
-5.53591e-05
0.00144864
8.19881e-05
-6.3335e-05
0.00167883
2.9097e-05
-8.88844e-05
0.000350346
4.73678e-05
-0.000103413
-0.000750912
-2.06948e-05
-7.46224e-05
-0.000717936
-7.60715e-05
-3.36595e-05
0.00193607
-0.00139231
-3.94678e-05
0.00289164
-0.000989964
6.80424e-05
0.00435868
-0.00137114
6.43409e-05
0.00313444
-0.000530618
0.000118692
0.00494004
-0.000832885
3.15172e-05
0.00476326
-0.0014025
-1.6044e-06
0.00407135
-0.000263215
-3.76075e-07
0.00575292
-0.000427346
0.000109646
0.00564481
-0.000925128
1.93937e-05
0.00572237
-0.00129035
-4.21887e-05
0.0049572
-0.000153746
0.000579825
0.00607149
-0.00016921
0.000468607
0.00594257
-3.71759e-05
0.000364598
0.00598949
-0.000721691
0.000226524
0.0059677
-0.00136655
6.5159e-05
0.00520287
-1.53146e-06
0.000849244
0.00767226
-0.000127312
0.000495476
0.00752082
-0.000314118
0.000362061
0.00730037
-4.4753e-05
0.000453691
0.00692855
-0.000437756
0.000659874
0.00684263
-0.00114289
0.000372747
0.00557614
0.000266195
0.000775901
0.00594407
0.000360229
0.000528815
0.00570757
0.000272388
0.000605535
0.00595036
0.000144438
0.000898032
0.00672062
0.00016436
0.000956346
0.00635956
-0.000277366
0.00092397
0.00655369
-0.000870741
0.000528435
0.00663356
0.000251449
0.000464157
0.00314694
0.000149953
0.000523022
0.00386893
0.000168052
0.000719213
0.00370847
4.8874e-05
0.000780833
0.002923
0.000107421
0.000642849
0.00276584
0.000109434
0.000358791
0.00234901
0.000299945
0.000357431
0.00253734
-0.000457963
0.000370576
0.00457868
0.000359571
0.000191187
0.0022749
0.000233999
5.17493e-05
0.0025561
0.000103098
1.25485e-05
0.00260733
5.83883e-06
4.05293e-05
0.00248911
4.3857e-05
-6.21122e-05
0.00189138
3.00189e-06
-0.000224509
0.00149763
-0.000133568
-0.000201334
0.00146768
-1.5754e-05
-0.000160075
0.00130499
4.61457e-05
-0.000133782
0.00204042
0.000363588
-0.000298765
0.00165067
0.000303216
-0.000258215
0.00188707
0.000264276
-0.000213104
0.00202104
0.000215588
-0.000185354
0.00229027
9.98162e-05
-0.000112877
0.00228925
0.000233856
-0.000118072
0.00201426
0.000119145
-0.000131581
0.00170248
-2.54746e-05
-0.000139166
0.000805766
3.7464e-07
-0.000195154
0.00116517
2.39317e-05
-0.000112541
0.00160118
0.000263082
-0.000102308
0.000681085
0.000197519
-8.35671e-05
0.000973134
0.000153785
-0.000109676
0.000974266
0.000151972
-0.000146125
0.000969639
0.000141028
-0.000151447
0.00155339
0.00014838
-0.000146646
0.00228583
0.000248915
-0.000171633
0.00184694
0.000124031
-0.000202483
0.000718523
8.29002e-05
-0.000213589
-0.000366944
3.57143e-06
-0.00020292
0.000524683
-7.58735e-05
-0.000120307
0.002076
0.00011723
-4.85239e-05
3.12296e-05
0.000124064
-4.24322e-05
0.00030015
0.000126661
-4.46359e-05
0.000134963
0.000110378
-4.71854e-05
-3.9356e-05
9.59044e-05
-5.06648e-05
0.000301885
6.88847e-05
-5.51365e-05
0.000733001
7.74541e-05
-5.72164e-05
0.00136507
8.39477e-05
-6.37389e-05
0.00156974
3.54311e-05
-9.08798e-05
0.000302382
5.19981e-05
-0.000102168
-0.000775365
-2.24333e-05
-7.28008e-05
-0.000656362
-5.38596e-05
-3.32657e-05
0.0020232
-0.00136882
-2.74184e-05
0.00268551
-0.000977195
-3.4554e-05
0.00375538
-0.00121532
-4.54163e-05
0.00278124
-0.000586382
5.94897e-05
0.00458265
-0.000701176
2.30223e-05
0.00426829
-0.00147365
5.25215e-05
0.00315307
-0.000465287
0.000227216
0.00499932
-0.000492408
-4.05706e-06
0.00504068
-0.000885417
-1.71303e-06
0.00472365
-0.00143365
-1.01842e-05
0.00422483
-0.000272333
0.000279804
0.00592104
-0.000222637
0.000199342
0.00571665
-0.000350754
0.00017266
0.00580513
-0.000768148
-3.14936e-05
0.00575813
-0.00122878
-0.000103075
0.00492251
-0.000147537
0.000725565
0.00617149
-0.000295045
0.000580116
0.00612772
-0.000436042
0.000417726
0.00601137
-0.000189602
0.000479216
0.00588165
-0.00052137
0.000234552
0.00588192
-0.00126504
9.70468e-05
0.00522796
4.16394e-05
0.000876341
0.00792004
5.60469e-05
0.000686196
0.00778572
-2.99913e-05
0.000507492
0.00767777
0.000170033
0.000473744
0.00725472
0.000217305
0.000662421
0.00687306
-0.000601352
0.000752972
0.00678639
-0.00107602
0.00050435
0.00527707
0.000109182
0.00090087
0.00605311
3.30891e-05
0.000734541
0.0058552
0.000405834
0.000522606
0.00555272
0.000240857
0.00077238
0.00588403
0.000300269
0.00105165
0.00643247
0.000264526
0.00112169
0.00600675
1.71257e-05
0.00109851
0.00626643
-0.000807236
0.000506754
0.00647607
0.000272853
0.000542234
0.00330255
0.000194174
0.000351778
0.00335801
0.000122581
0.000462597
0.00410607
7.63477e-05
0.000633356
0.00378544
9.63306e-05
0.000643598
0.00286978
7.70621e-05
0.000351851
0.00269872
0.000153724
8.41835e-05
0.00233497
0.000243041
0.000134571
0.00251455
-0.000371965
0.000357571
0.00463922
0.000228369
0.000347847
0.00240915
0.00022809
0.000172837
0.00222894
0.000210546
2.899e-05
0.00259339
4.79547e-05
1.48868e-05
0.00280061
-2.573e-06
3.76909e-05
0.0024917
0.000121349
-8.44536e-05
0.00186383
4.99799e-05
-0.000212703
0.00157817
-4.49584e-05
-0.000190725
0.00151782
1.43748e-05
-0.000169344
0.00132656
0.00010918
-0.000158157
0.00211333
0.000335629
-0.000203082
0.00153432
0.000308794
-0.00030056
0.00158174
0.000258403
-0.000203347
0.00177269
0.000263914
-0.000152668
0.00187641
0.000191382
-0.000140615
0.00226765
8.89115e-05
-9.79923e-05
0.00232864
0.00026615
-0.000103847
0.00196929
0.000160345
-0.000115127
0.00164213
3.04052e-05
-0.000167381
0.000830487
5.22844e-05
-0.000196671
0.00120059
7.93715e-05
-0.000110158
0.0015561
0.000275936
-0.000122015
3.04445e-05
0.000243482
-8.05504e-05
0.00055865
0.000183156
-8.11976e-05
0.000888161
0.000152558
-0.000111523
0.000897483
0.000147396
-0.000150217
0.000916918
0.000135499
-0.000156232
0.00149637
0.000154568
-0.000150227
0.00218732
0.000254471
-0.000170883
0.00164482
0.000129715
-0.000213793
0.000624443
0.000100166
-0.000220057
-0.000397975
5.91498e-06
-0.000194535
0.000570563
-2.86136e-05
-0.00012502
0.00217577
0.000108532
-5.72169e-05
-0.000352462
0.000102629
-4.52453e-05
-6.85859e-05
0.000118542
-4.12029e-05
0.000178175
0.000114683
-4.23371e-05
1.54313e-05
0.000101592
-4.33902e-05
-0.000148223
9.21791e-05
-4.6743e-05
0.000201312
7.95246e-05
-5.53993e-05
0.00065166
8.28121e-05
-5.7816e-05
0.00127634
8.42261e-05
-6.57424e-05
0.00146038
3.41893e-05
-9.06824e-05
0.000256707
5.55603e-05
-0.000100762
-0.000802964
-2.48224e-05
-7.09531e-05
-0.000593852
-4.77905e-05
-3.43166e-05
0.0021053
-0.00149113
8.74224e-06
0.00247027
-0.00101335
-7.16083e-05
0.00335269
-0.0012196
8.12786e-05
0.00260851
-0.000588329
-3.75555e-05
0.00400311
-0.000746545
-1.13323e-05
0.00376667
-0.00134654
-2.94561e-05
0.00268359
-0.00055391
0.000123996
0.00449024
-0.000462201
1.79647e-05
0.0045575
-0.000800435
1.00528e-05
0.00422577
-0.00151098
-5.30426e-06
0.0032357
-0.000425976
0.000369332
0.00501438
-0.000400961
0.000147187
0.0050264
-0.000343622
-5.01354e-05
0.00508197
-0.000782485
-3.45291e-05
0.00476234
-0.00135595
5.84732e-06
0.00434616
-0.000316637
0.000541162
0.00591346
-0.000195605
0.000261766
0.00575918
-0.000229976
0.00022949
0.00545376
-0.000247536
8.65515e-05
0.00574501
-0.000499783
-6.95304e-05
0.005703
-0.00119254
-0.000134007
0.00498401
0.000182579
0.000795047
0.00618048
-5.21664e-05
0.000754244
0.00610558
-0.000128684
0.000545845
0.00609829
0.000210227
0.000553781
0.00589661
-0.000115009
0.00052934
0.00591918
-0.000527198
0.000202268
0.00570255
-0.00131042
0.000108855
0.00535351
-1.19583e-05
0.000815568
0.00804004
-7.3413e-05
0.000819835
0.0078929
0.00029094
0.000630031
0.00777808
0.000333014
0.000513997
0.00754536
0.000472487
0.000638741
0.00710618
8.74732e-05
0.000760909
0.00704217
-0.000557148
0.00071
0.00715502
-0.00112175
0.000491738
0.00509985
1.62893e-05
0.0010142
0.00635
9.55074e-05
0.000922176
0.00596415
0.00024092
0.000619546
0.00563993
0.000266016
0.000540946
0.00559448
0.000344152
0.000859114
0.00582875
0.000300927
0.00120501
0.00612529
0.000391286
0.00128587
0.00558183
-4.21518e-05
0.00103866
0.00601972
-0.000917312
0.000646203
0.00637522
0.000170433
0.000604564
0.00361896
0.000110139
0.000419911
0.00335237
0.000175178
0.000325295
0.00353068
0.000154512
0.000433388
0.00419948
0.000155104
0.00058132
0.00369004
0.000159669
0.000412683
0.00277063
0.000204667
-5.50696e-05
0.00268328
0.000405192
-0.000158836
0.00217823
1.67252e-05
9.50686e-05
0.0027747
-0.00030774
0.000336661
0.00471948
0.000207738
0.000371748
0.0025254
0.000148944
0.00032428
0.00241756
0.000155042
0.000110335
0.00225095
0.000182476
1.80645e-05
0.00267165
-3.09302e-07
3.88469e-05
0.00299115
9.46695e-06
2.7602e-05
0.00245908
0.00021229
-0.000111711
0.00181669
0.000115845
-0.000187387
0.00161933
2.09384e-05
-0.000176847
0.00153479
5.93968e-05
-0.000183831
0.00134512
0.000181146
-0.000174832
0.00218639
0.000213521
3.46197e-05
0.0015768
0.000271315
-0.000212386
0.00141831
0.000282307
-0.000250841
0.00153008
0.0002451
-0.00011283
0.00164031
0.00024086
-9.03575e-05
0.00173269
0.000113304
-6.223e-05
0.00225408
0.000122862
-6.43677e-05
0.00232087
0.000294844
-6.02603e-05
0.00187405
0.000169044
-0.000121467
0.00155688
6.35303e-05
-0.00019266
0.000863112
7.97193e-05
-0.000191384
0.00120801
8.97072e-05
-0.000113062
0.00155084
0.000160442
-0.000123347
-0.00017043
0.000250118
-0.000109044
-8.85518e-05
0.000229416
-7.5303e-05
0.000441881
0.000169003
-7.46201e-05
0.000796938
0.000142885
-0.000109899
0.000815871
0.000127707
-0.000139441
0.000864599
0.000149105
-0.000146085
0.00142264
0.000174707
-0.000144465
0.002069
0.000253549
-0.000165311
0.00142701
0.000110684
-0.000216239
0.000544131
9.97231e-05
-0.000222987
-0.000413686
1.19235e-05
-0.000184395
0.000593192
-1.10571e-05
-0.000115318
0.00225436
8.59408e-05
-5.42623e-05
-0.00116718
9.61873e-05
-5.1883e-05
-0.000442012
9.95321e-05
-4.55968e-05
-0.000163724
0.000109461
-3.95124e-05
6.589e-05
0.000103577
-3.88682e-05
-9.26675e-05
9.2295e-05
-3.84475e-05
-0.000248813
8.63353e-05
-4.26558e-05
0.000102234
8.45498e-05
-5.49363e-05
0.00056423
9.0328e-05
-5.76406e-05
0.00117791
8.73834e-05
-6.54183e-05
0.00134773
3.05895e-05
-9.0197e-05
0.000215552
5.92193e-05
-9.92657e-05
-0.00083387
-2.38366e-05
-6.92314e-05
-0.0005351
-5.00111e-05
-3.56728e-05
0.00219099
-0.00167368
5.86606e-05
0.00215475
-0.00132158
0.000172217
0.00295476
-0.00130447
-1.23171e-05
0.00256746
-0.000846539
0.000135972
0.00354003
-0.000865487
5.82992e-05
0.00349461
-0.00131849
4.96994e-05
0.00253076
-0.000645686
7.86675e-05
0.00389567
-0.000558576
0.000120085
0.00396807
-0.000800166
-2.44562e-05
0.0037614
-0.00136655
2.55319e-05
0.00251363
-0.0005325
0.000301551
0.00446821
-0.000409568
7.03691e-05
0.00444644
-0.000273216
2.11684e-05
0.00447598
-0.000899442
6.80405e-05
0.00426939
-0.0015382
-5.90392e-06
0.00342386
-0.000382976
0.000503889
0.00501127
-0.000339473
0.000316011
0.00498942
-0.000440906
0.000132368
0.00505482
-0.000140172
-6.57708e-05
0.00500585
-0.000693133
-1.3251e-05
0.00497479
-0.0013758
-2.64839e-05
0.00455591
-2.95868e-05
0.00072807
0.00605394
-0.000176745
0.000492958
0.00580685
-0.000162024
0.000327086
0.00569492
-0.000141945
0.000248393
0.00564409
-0.000251157
7.61774e-05
0.00573545
-0.000439468
-4.09663e-05
0.00552223
-0.00114903
-7.82191e-05
0.00490084
0.000135537
0.000831139
0.00626176
-0.000207088
0.000835527
0.00623287
4.12385e-05
0.000755013
0.00614611
0.000164097
0.000649026
0.00617196
0.000233174
0.000581586
0.00608367
-0.000235378
0.000455098
0.0059892
-0.000681538
0.00030641
0.00562938
-0.00129414
0.000155154
0.00537074
-0.000222437
0.000845874
0.00800568
0.000251991
0.000856244
0.00784715
0.00016727
0.00076039
0.00783619
0.000193033
0.000535125
0.00782993
0.000360105
0.000566809
0.00760134
0.000396609
0.000756184
0.00701522
0.00047846
0.000772594
0.00689241
-0.000511485
0.000613145
0.00750294
-0.00117421
0.00052161
0.00483514
0.000267481
0.00098905
0.0066011
0.000196718
0.000979883
0.00620571
0.000250282
0.000810046
0.00569854
0.000445965
0.000504954
0.00538446
0.000389284
0.000616503
0.00560291
0.000348563
0.00106137
0.00578348
0.000458453
0.00142707
0.0057303
0.000472705
0.0012518
0.00530118
-0.000272127
0.00100269
0.00595208
-0.00110618
0.00071237
0.00646129
0.000313369
0.000705392
0.00409193
8.29738e-05
0.000503253
0.00360159
0.000157312
0.000378485
0.00329691
0.000334839
0.000340864
0.00347084
0.000189062
0.000484266
0.00410716
0.000151132
0.000501342
0.00345972
0.000159788
0.000195422
0.00257264
0.000389925
-0.000204498
0.00245486
0.000314579
-0.000261723
0.00224138
-6.8246e-06
0.000122002
0.00305558
-0.000130588
0.000289158
0.00474206
-3.00927e-05
0.00053889
0.00342625
7.90934e-05
0.000337729
0.00270417
0.000136629
0.00026309
0.00241048
0.000159877
6.08838e-05
0.00229336
0.000175568
1.48395e-05
0.00276095
-1.66781e-05
8.30941e-05
0.00306564
0.000121648
3.56048e-07
0.00234823
0.000266809
-0.000115552
0.00177289
0.000175188
-0.000178978
0.00161532
-2.25972e-05
-0.000171275
0.00160836
8.51618e-05
-0.000193563
0.00135841
9.18501e-05
-0.00016482
0.00234906
4.90498e-05
0.000132229
0.00116106
0.000200658
1.3236e-05
0.00140064
0.000230323
-0.000175676
0.00134224
0.000255079
-0.000178111
0.00150929
0.00021842
-3.95373e-05
0.00151396
0.000131981
-2.30424e-05
0.00168923
7.79477e-05
-2.60653e-05
0.00228694
0.000189274
-3.73857e-05
0.00228342
0.000316911
-5.37132e-05
0.00174293
0.000165535
-0.000153935
0.00146331
7.43656e-05
-0.00020923
0.000906316
0.000119959
-0.000181337
0.00116825
0.000141878
-0.000108711
0.00150661
0.000156179
-0.00012919
-0.000396912
0.000145914
-0.000113153
-0.000216049
0.000216628
-0.000104143
-0.000176808
0.000205975
-7.02786e-05
0.000341025
0.000164208
-7.4034e-05
0.000700442
0.000149955
-0.000103903
0.000722673
0.0001259
-0.000120934
0.000799884
0.000170623
-0.000127739
0.00131984
0.000203567
-0.000145663
0.00193611
0.000248962
-0.000179169
0.00122836
9.25521e-05
-0.000216365
0.000475546
0.000124399
-0.000218228
-0.000445032
1.63679e-05
-0.000172509
0.000610178
-6.74411e-06
-0.000105218
0.00231631
2.25896e-05
-6.00635e-05
-0.00207953
7.20203e-05
-4.92361e-05
-0.00124185
9.32362e-05
-5.10173e-05
-0.000529828
9.58281e-05
-4.54373e-05
-0.000253627
0.000101244
-3.72584e-05
-3.69639e-05
9.48122e-05
-3.47483e-05
-0.000191179
8.41422e-05
-3.31813e-05
-0.00034243
7.9961e-05
-3.88407e-05
6.17698e-06
8.36312e-05
-5.29535e-05
0.000475912
8.58005e-05
-5.59313e-05
0.00108262
8.63979e-05
-6.38054e-05
0.00123494
2.79952e-05
-9.07987e-05
0.00017909
6.35551e-05
-9.77678e-05
-0.000868889
-2.43592e-05
-6.75014e-05
-0.000478912
-4.58545e-05
-3.56877e-05
0.00227253
-0.00173784
0.000116044
0.00189498
-0.00155678
0.000295732
0.00247153
-0.00144107
5.44233e-05
0.00223692
-0.00133192
0.000505678
0.00306143
-0.00104826
7.14778e-05
0.00305374
-0.00138677
-3.13061e-05
0.00266705
-0.000946625
0.000320526
0.00356746
-0.000720688
0.000227639
0.0035328
-0.000709586
-8.32185e-05
0.00353695
-0.00130434
8.50508e-05
0.00238351
-0.000767526
0.000372861
0.00375209
-0.000497496
0.000193475
0.00391021
-0.000386311
0.000100002
0.00395671
-0.000821288
-2.32732e-05
0.00373205
-0.00162444
9.16823e-05
0.00250818
-0.000428754
0.000437078
0.00450943
-0.000597784
0.000254783
0.00454211
-0.000497074
7.40008e-05
0.00444978
-0.000190075
0.000108742
0.00448518
-0.000895473
-4.68886e-07
0.00446629
-0.0015136
8.54494e-06
0.00355311
-0.000211238
0.000600763
0.00519744
-0.000345541
0.000471876
0.0050242
-0.000341365
0.000323143
0.00497799
-0.000364638
0.000138636
0.00507311
-0.000226354
-3.52095e-05
0.005003
-0.000721906
-9.0897e-06
0.00523983
-0.00123266
-7.70782e-05
0.00471661
-0.000172738
0.000957125
0.00581311
-0.000332365
0.000726225
0.00594595
-0.00019717
0.000516968
0.00585537
9.8622e-06
0.000389257
0.00570829
-8.36737e-05
0.000292594
0.00574452
-0.000259877
7.45107e-05
0.00564448
-0.000624729
-1.52503e-05
0.00540245
-0.00100506
-6.21083e-05
0.00467387
-8.38479e-05
0.000879571
0.00627323
0.000293887
0.000852379
0.00620301
-3.43487e-05
0.000887333
0.00630217
-2.33507e-06
0.000765851
0.00622466
0.000116721
0.000697064
0.00629987
7.18439e-05
0.000624693
0.00623885
0.000189823
0.000481358
0.00610289
-0.000616029
0.000264293
0.00562479
-0.00138452
0.000115489
0.00546556
7.76771e-05
0.000987068
0.0079635
0.000188293
0.000918626
0.00795173
0.000245756
0.000912055
0.00770001
0.000235867
0.000738511
0.0078429
0.000363299
0.00062875
0.00779397
0.000351972
0.000753243
0.00760087
0.000437336
0.000768655
0.00704028
2.9257e-05
0.000776895
0.00717211
-0.000455786
0.000709902
0.00749831
-0.00136511
0.0004713
0.00462278
0.000435736
0.00109084
0.00682421
0.000274768
0.000913827
0.00647536
0.000348643
0.000981327
0.0058431
0.000620975
0.000684356
0.005233
0.00064374
0.000585955
0.00496033
0.000404486
0.000920432
0.0054905
0.000256856
0.00130485
0.00580864
0.000651777
0.00144793
0.00527231
0.000318208
0.00116773
0.00513251
-0.000241001
0.000978505
0.00592013
-0.00100203
0.000886649
0.00644608
0.000194331
0.000727257
0.00496012
0.000212085
0.000526283
0.00393591
9.0066e-05
0.000466322
0.00356031
0.000267104
0.000364073
0.00316647
0.000273061
0.000384704
0.00347291
0.000127205
0.000483681
0.00398094
0.000148043
0.000382628
0.00324612
0.000204623
-6.28748e-05
0.0024932
0.000286727
-0.000356732
0.00243833
-4.94198e-05
-0.000212751
0.00260295
5.89556e-05
1.70194e-05
0.00335393
-0.00052357
0.000266637
0.00509084
5.32737e-05
0.000686289
0.00303154
2.98202e-05
0.000473651
0.00346116
3.98163e-05
0.000334636
0.00282313
0.000145763
0.000173271
0.00240741
0.000171171
2.80162e-05
0.00232743
0.000111382
9.3171e-05
0.00277147
8.53822e-05
0.000108962
0.0029496
0.000231892
-3.05297e-05
0.00222059
0.000315269
-0.000114241
0.0017098
0.000192841
-0.00018134
0.00159808
5.45974e-05
-0.000175259
0.00160982
0.000103735
-0.000215136
0.00142495
9.93333e-05
-0.000149051
0.00254066
7.40017e-05
0.000121303
0.000625234
7.02476e-05
0.000109134
0.00114083
0.000157224
6.98256e-06
0.00127739
0.000208556
-0.000109804
0.00127135
0.000264795
-0.000106473
0.00147564
0.00018144
-2.61112e-05
0.00148554
6.75587e-05
6.99989e-06
0.0017145
0.000108514
-3.68416e-05
0.0023485
0.000250563
-2.84507e-05
0.00221117
0.000320762
-9.00899e-05
0.00160729
0.000166453
-0.000196023
0.0013762
0.0001286
-0.000193528
0.000914306
0.000131687
-0.0001785
0.00112272
0.000162403
-0.000108293
0.00144576
4.76302e-05
-0.000152565
-0.000298178
0.000134876
-0.00012004
-0.000452882
0.00015282
-0.000112282
-0.000267494
0.000149755
-9.63957e-05
-0.000204617
0.000182008
-6.92047e-05
0.000255432
0.000177804
-7.69898e-05
0.000590538
0.000163716
-9.68337e-05
0.000618998
0.000134075
-9.99304e-05
0.000717961
0.000177495
-0.000128418
0.00120873
0.000195876
-0.000162129
0.001809
0.000228138
-0.000179114
0.00104937
8.2494e-05
-0.000216515
0.000419334
0.000118892
-0.000205884
-0.000466995
1.61854e-05
-0.000162069
0.000626484
6.36436e-06
-9.92008e-05
0.00236329
-1.39765e-05
-6.87843e-05
-0.00193761
1.257e-05
-5.45153e-05
-0.00208682
6.84226e-05
-4.8614e-05
-0.00131268
9.05375e-05
-5.01302e-05
-0.000615672
9.13207e-05
-4.47058e-05
-0.000337501
9.46193e-05
-3.43924e-05
-0.000131939
8.85596e-05
-3.07803e-05
-0.000282139
7.72637e-05
-2.8315e-05
-0.000430219
7.20419e-05
-3.56513e-05
-8.31671e-05
7.9688e-05
-5.03582e-05
0.000390651
8.98228e-05
-5.28164e-05
0.000981806
8.02912e-05
-6.38568e-05
0.00112771
2.48386e-05
-9.16215e-05
0.000148105
6.49033e-05
-9.64613e-05
-0.000904832
-2.46191e-05
-6.58138e-05
-0.000424167
-3.50747e-05
-3.6331e-05
0.00234393
-0.00174