/*--------------------------------*- C++ -*----------------------------------*\
  =========                 |
  \\      /  F ield         | OpenFOAM: The Open Source CFD Toolbox
   \\    /   O peration     | Website:  https://openfoam.org
    \\  /    A nd           | Version:  7
     \\/     M anipulation  |
\*---------------------------------------------------------------------------*/
FoamFile
{
    version     2.0;
    format      ascii;
    class       volVectorField;
    location    "6";
    object      U;
}
// * * * * * * * * * * * * * * * * * * * * * * * * * * * * * * * * * * * * * //

dimensions      [0 1 -1 0 0 0 0];

internalField   nonuniform List<vector> 
18750
(
(-0.486933 -1.12861 -0.461652)
(-0.304048 -0.933323 -0.693648)
(0.799858 0.33232 -1.5487)
(-0.510519 -1.17675 -0.447285)
(-0.567121 -0.818605 -0.337893)
(-0.0834424 -0.100254 -1.1316)
(-0.345171 -0.910132 -0.717808)
(0.366709 0.477144 -2.4536)
(0.749709 0.308936 -1.48312)
(-0.53346 -1.23139 -0.415966)
(-0.508928 -0.204059 -0.735957)
(-0.166132 0.346454 -0.742309)
(-0.610942 -0.90338 -0.259077)
(0.0472523 -0.0595606 -0.753252)
(-0.077085 -0.116083 -1.18623)
(-0.41383 -0.934513 -0.688951)
(-0.476988 0.457808 -1.31999)
(0.369543 0.533952 -2.46851)
(0.7066 0.280663 -1.41762)
(-0.540862 -1.27676 -0.413202)
(-3.19117 -0.752332 0.216614)
(-0.292178 -0.195328 -0.667027)
(-0.663483 -0.238193 -0.690659)
(-0.444149 -0.120681 -0.547288)
(-0.245614 0.335708 -0.843261)
(-0.630943 -0.981896 -0.221235)
(-0.661188 -0.128832 -0.0630986)
(0.0778606 0.068099 -0.910116)
(-0.0811008 -0.0945974 -1.26238)
(-0.488546 -0.973902 -0.669906)
(-1.45904 0.253417 -1.3539)
(-0.473899 0.445177 -1.48014)
(0.348027 0.610092 -2.45364)
(0.675143 0.242564 -1.34885)
(-0.610723 -1.32512 -0.379474)
(-4.91833 -1.50301 -0.280634)
(-2.01594 -0.854343 1.306)
(-3.22883 -1.25768 0.513511)
(-0.525156 -0.3244 -0.758311)
(-0.46408 -0.257448 -0.572751)
(-0.782615 -0.325692 -0.687236)
(-1.11362 0.320756 -0.582903)
(-0.439488 -0.0616324 -0.582118)
(-0.305028 0.245871 -0.843435)
(-0.656773 -1.02094 -0.155909)
(-1.69225 0.827369 -0.756974)
(-0.681488 -0.0618568 -0.266987)
(0.0924265 0.170543 -1.0631)
(-0.113207 -0.0678522 -1.35278)
(-0.54534 -1.00433 -0.661527)
(-1.23079 0.343688 -1.10912)
(-1.46464 0.243063 -1.39987)
(-0.464848 0.413509 -1.64918)
(0.315764 0.698305 -2.427)
(0.663932 0.209913 -1.28703)
(-0.585823 -1.33375 -0.359143)
(-3.55161 -2.42441 0.448931)
(-4.57625 -1.79824 1.46478)
(-4.89749 -2.18278 0.0215667)
(-2.24726 -0.903719 1.69007)
(-2.04317 -0.898643 1.3197)
(-3.17703 -1.43636 0.89623)
(-0.729284 -0.244048 -0.349483)
(-0.569523 -0.485223 -0.743721)
(-0.547643 -0.454055 -0.380434)
(-0.910896 -0.342344 -0.615631)
(-1.27518 0.792378 -0.750492)
(-1.15124 0.191837 -0.245148)
(-0.438316 -0.025954 -0.616366)
(-0.337416 0.261976 -0.855703)
(-0.673864 -1.03985 -0.133372)
(-1.87918 0.773285 -0.928394)
(-1.73246 0.783717 -0.980628)
(-0.701066 0.0317532 -0.451836)
(0.108753 0.242144 -1.21406)
(-0.128436 -0.0398982 -1.42366)
(-0.670299 -0.941902 -0.727695)
(-0.701051 0.373097 -1.23259)
(-1.22268 0.333507 -1.12364)
(-1.44001 0.223574 -1.46478)
(-0.453468 0.36149 -1.82129)
(0.294368 0.734738 -2.40871)
(0.620064 0.172318 -1.23563)
(-0.566677 -1.37006 -0.344223)
(-3.82033 -1.38864 0.153906)
(-5.18979 -1.85955 -0.572153)
(-3.38985 -2.81001 0.00168481)
(-4.38224 -0.861259 2.13322)
(-4.41458 -1.87066 1.34303)
(-4.93225 -2.02606 0.357208)
(-2.36443 -0.470776 1.92623)
(-2.16824 -0.700333 1.76389)
(-2.02338 -0.738652 1.3004)
(-3.04865 -1.47966 1.00277)
(-1.23069 0.510645 -0.27461)
(-0.752657 -0.320075 -0.448115)
(-0.609713 -0.560227 -0.752178)
(-0.614477 -0.612508 -0.233165)
(-0.972228 -0.344852 -0.583274)
(-1.41009 0.502938 -0.318889)
(-1.29403 0.691038 -0.632268)
(-1.17101 0.164918 -0.216603)
(-0.4448 -0.0118836 -0.64815)
(-0.490146 0.112863 -0.825563)
(-0.689099 -1.06971 -0.122902)
(-1.27218 0.494491 -0.896675)
(-1.87385 0.783974 -0.983381)
(-1.74422 0.88329 -1.0987)
(-0.727767 0.137396 -0.633177)
(0.110779 0.267673 -1.36471)
(-0.117657 -0.0725648 -1.45101)
(-0.672223 -1.01567 -0.673935)
(-0.469218 1.12113 -1.1314)
(-0.700604 0.407832 -1.25738)
(-1.21885 0.332106 -1.13084)
(-1.42104 0.192613 -1.53691)
(-0.431881 0.295494 -1.98418)
(0.263187 0.763409 -2.38011)
(0.596095 0.187128 -1.21641)
(-0.656893 -1.40614 -0.305393)
(-3.39543 -1.27774 -0.0236757)
(-3.86999 -0.976595 0.169808)
(-3.46567 -1.96402 0.0723205)
(-4.63241 -0.776211 0.391499)
(-4.83363 -1.55169 0.0160611)
(-3.3264 -2.95375 0.0811559)
(-4.48922 -0.336812 1.68057)
(-4.412 -1.04261 2.01469)
(-4.24726 -1.42917 1.51886)
(-4.73916 -1.85267 0.414572)
(-2.09038 -0.64968 2.24803)
(-2.27628 -0.430391 2.11354)
(-2.16133 -0.401501 1.59827)
(-2.07329 -0.550178 1.21683)
(-2.89297 -1.41233 0.937632)
(-1.42505 0.42978 0.607836)
(-1.26817 0.319328 -0.388352)
(-0.766904 -0.328359 -0.552129)
(-0.596618 -0.637636 -0.784609)
(-0.652111 -0.761034 -0.169556)
(-1.02844 -0.407154 -0.65158)
(-1.61858 1.03169 -0.872707)
(-1.45551 0.553552 -0.344761)
(-1.36646 0.650457 -0.601832)
(-1.22425 0.31829 -0.144539)
(-0.44734 -0.0223937 -0.693811)
(-0.552566 0.0115589 -0.800557)
(-0.703505 -1.05245 -0.130875)
(-0.772455 0.522984 -1.07617)
(-1.25881 0.551042 -0.823251)
(-1.8519 0.754189 -1.08219)
(-1.78525 1.024 -1.10907)
(-0.743414 0.239468 -0.809703)
(0.114884 0.297592 -1.49895)
(-0.149873 -0.241774 -1.35637)
(-0.72804 -1.14521 -0.595908)
(-0.236081 1.92751 -1.29309)
(-0.488035 1.20052 -1.16137)
(-0.695472 0.460563 -1.27996)
(-1.20283 0.324895 -1.15216)
(-1.34999 0.141413 -1.67681)
(-0.380819 0.219197 -2.13615)
(0.222674 0.803273 -2.33621)
(0.575964 0.160109 -1.19728)
(-0.649524 -1.42978 -0.309378)
(-2.56329 -1.56692 -0.0200697)
(-3.81515 -0.956016 0.157835)
(-3.33616 -1.57554 -0.0185404)
(-4.34591 -1.42079 -0.0167586)
(-3.78722 -1.17895 0.0796735)
(-3.28181 -2.27758 -0.0782286)
(-4.89759 -0.138371 0.498669)
(-4.64032 -1.00313 0.301277)
(-4.68059 -1.15516 0.774696)
(-3.22922 -2.88493 -0.34513)
(-3.71171 0.518082 1.45585)
(-4.55206 -0.57968 1.75802)
(-4.46729 -0.758931 1.77931)
(-4.21066 -1.2607 1.36208)
(-4.59592 -2.05694 0.625647)
(-2.58838 -0.759816 2.25167)
(-2.09316 -0.516516 2.1972)
(-2.22786 -0.401129 2.05239)
(-1.92553 -0.117656 1.44302)
(-2.01088 -0.388401 1.31131)
(-2.65284 -1.76088 0.697437)
(-1.27184 1.29203 0.0345112)
(-1.5379 0.376862 0.552864)
(-1.28027 0.185771 -0.452769)
(-0.802208 -0.278235 -0.62986)
(-0.667274 -0.770036 -0.66894)
(-0.622042 -0.834072 -0.294512)
(-1.18983 -0.379687 -0.442455)
(-1.5091 1.43172 -0.431606)
(-1.55448 0.959251 -0.884098)
(-1.52183 0.476048 -0.359569)
(-1.40862 0.783959 -0.622604)
(-1.31942 0.523168 -0.0458013)
(-0.474354 -0.0106187 -0.738805)
(-0.605846 0.00194925 -0.819152)
(-0.742554 -0.984264 -0.161459)
(-0.723787 0.720203 -0.869031)
(-0.75732 0.576426 -1.08095)
(-1.21486 0.457738 -0.865616)
(-1.8433 0.739127 -1.09744)
(-1.77559 1.01174 -1.28209)
(-0.744443 0.31751 -0.980351)
(0.0997603 0.341383 -1.61185)
(-0.137104 -0.342849 -1.31466)
(-0.754029 -1.24117 -0.604807)
(-0.284283 2.00536 -0.832764)
(-0.249747 1.80978 -1.32621)
(-0.516094 1.25961 -1.19261)
(-0.710204 0.50432 -1.30751)
(-1.18718 0.331972 -1.17038)
(-1.34587 0.136565 -1.67244)
(-0.338588 0.132489 -2.25245)
(0.186398 0.862665 -2.27775)
(0.537081 0.149648 -1.18118)
(-0.605961 -1.45423 -0.315487)
(-2.27472 -1.25819 0.0524264)
(-3.17968 -0.528937 0.170338)
(-2.47133 -1.81999 -0.0350998)
(-3.90154 -0.348109 -0.148356)
(-3.64421 -1.32424 -0.0172702)
(-3.29042 -1.78696 -0.00579943)
(-4.15655 -0.562944 0.534551)
(-4.19166 -0.593115 0.356918)
(-3.79079 -1.43842 0.079385)
(-2.9727 -2.72024 0.164531)
(-5.00703 -0.155272 0.902519)
(-4.78346 -0.398123 0.409082)
(-4.43992 -1.05365 0.51665)
(-4.67341 -1.20823 0.885965)
(-3.4643 -2.33864 0.1862)
(-3.91981 0.836448 1.03332)
(-3.74182 0.251419 1.78716)
(-4.67761 -0.326735 1.73345)
(-4.63788 -0.0113186 0.942937)
(-4.24443 -1.39356 1.303)
(-4.1713 -2.68331 0.303832)
(-2.25514 -0.159089 1.70364)
(-2.51434 -0.664108 2.29601)
(-1.99801 -0.443024 2.06478)
(-2.01744 -0.421918 1.92769)
(-1.7221 -0.353771 1.35621)
(-1.92516 -0.37094 1.32899)
(-2.6122 -1.80694 0.693108)
(-1.59251 1.15045 0.16041)
(-1.74806 0.649267 -0.0813388)
(-1.64832 0.031265 0.335436)
(-1.2743 0.0661409 -0.547137)
(-0.849656 -0.261176 -0.690455)
(-0.625807 -0.877861 -0.62507)
(-0.624486 -0.814787 -0.355332)
(-1.27107 -0.382012 -0.345033)
(-1.31 1.19952 -1.01177)
(-1.46795 1.15593 -0.800525)
(-1.59195 0.822213 -0.83026)
(-1.56338 0.381304 -0.2622)
(-1.56021 0.928155 -0.546522)
(-1.33401 0.422925 -0.443921)
(-0.550556 0.00552612 -0.768302)
(-0.755678 -0.0762794 -0.777938)
(-0.748837 -0.925515 -0.206441)
(-0.701607 1.01885 -0.679224)
(-0.740088 0.692011 -0.887488)
(-0.752709 0.626807 -1.13184)
(-1.18599 0.439456 -0.909961)
(-1.82911 0.693602 -1.08442)
(-1.74014 0.971738 -1.41739)
(-0.73473 0.348929 -1.21197)
(0.0766927 0.350022 -1.68543)
(-0.136938 -0.408137 -1.28693)
(-0.880816 -1.07282 -0.733591)
(-0.299757 1.52176 -1.24812)
(-0.29958 1.86396 -0.917868)
(-0.255448 1.62258 -1.29023)
(-0.524336 1.25779 -1.22788)
(-0.719998 0.570739 -1.32726)
(-1.17809 0.337533 -1.18654)
(-1.2888 0.15199 -1.62476)
(-0.317616 0.0632439 -2.34874)
(0.121111 0.859324 -2.23077)
(0.495908 0.130187 -1.16542)
(-0.568208 -1.51048 -0.381101)
(-1.9519 -1.21349 -0.0470238)
(-2.82075 -0.968669 0.017295)
(-2.0443 -1.61269 0.166554)
(-3.21438 -0.370448 0.0459252)
(-3.1373 -1.11434 0.181502)
(-2.50884 -1.8014 -0.184875)
(-3.8875 -0.0750184 -0.180463)
(-3.6756 -0.620653 0.0364094)
(-3.66396 -1.52052 -0.0541801)
(-3.02156 -2.18121 -0.0993335)
(-4.01356 -0.0359666 0.775638)
(-3.93729 -0.427079 0.62523)
(-4.04435 -0.0350529 0.639412)
(-3.73454 -1.56723 0.0639741)
(-2.89401 -2.79528 0.108991)
(-5.00347 0.0866425 1.39375)
(-4.88832 -0.046449 0.649457)
(-4.61072 -0.517083 0.503068)
(-4.40797 -0.662296 0.78977)
(-4.43514 -1.60108 0.973654)
(-3.09682 -2.71942 0.155251)
(-3.84167 1.41373 1.52873)
(-3.80024 1.22599 0.792347)
(-4.053 0.693718 1.56492)
(-4.69007 0.042526 1.61686)
(-4.28744 -0.917976 1.74027)
(-4.26819 -1.12265 1.72531)
(-3.73923 -3.22939 -0.31821)
(-2.00936 0.101339 0.95343)
(-2.39637 0.0108032 1.79278)
(-2.42352 -0.594538 2.14391)
(-1.90406 -0.460127 1.90233)
(-1.79655 -0.414222 1.66565)
(-1.54487 -0.395689 0.715561)
(-1.80588 -0.222722 1.25312)
(-2.64629 -1.67414 0.770951)
(-1.49587 1.37626 0.216206)
(-1.73569 1.02743 0.163669)
(-1.74019 0.527764 -0.0850813)
(-1.66118 0.0172024 0.31574)
(-1.29676 0.0146494 -0.641596)
(-0.945965 -0.197944 -0.723785)
(-0.692205 -0.925712 -0.573452)
(-0.610063 -0.796357 -0.430344)
(-1.36748 -0.260267 -0.355394)
(-1.09053 1.34782 -1.33189)
(-1.32025 1.02923 -0.943728)
(-1.4624 0.821145 -1.11353)
(-1.66425 0.705422 -0.737196)
(-1.60618 0.33284 -0.402275)
(-1.69572 0.846078 -0.569335)
(-1.34562 0.319359 -0.53316)
(-0.627147 0.133943 -0.841553)
(-0.836209 -0.0792372 -0.750483)
(-0.779007 -0.838498 -0.289096)
(-0.455157 1.19718 -0.70368)
(-0.710615 0.930087 -0.733278)
(-0.745484 0.69647 -0.916866)
(-0.784996 0.60532 -1.22121)
(-1.17901 0.399063 -1.00703)
(-1.8063 0.593111 -1.10101)
(-1.72141 0.958991 -1.40609)
(-0.650169 0.329337 -1.48535)
(0.106149 0.377048 -1.70666)
(-0.136002 -0.453832 -1.23381)
(-0.838164 -1.22349 -0.684959)
(-0.0267547 1.20264 -0.752541)
(-0.301675 1.43121 -1.1723)
(-0.301738 1.66501 -0.962271)
(-0.240178 1.41986 -1.20063)
(-0.514887 1.1725 -1.22106)
(-0.754564 0.623842 -1.34037)
(-1.14802 0.361139 -1.2117)
(-1.24051 0.137424 -1.62348)
(-0.2923 0.171232 -2.39054)
(0.0751448 0.927952 -2.15679)
(0.474063 0.115905 -1.14822)
(-0.700153 -1.51177 -0.379402)
(-1.78823 -1.05466 0.0495813)
(-2.43926 -0.733421 -0.0258711)
(-1.86887 -1.27098 0.0331768)
(-3.00048 -0.542724 0.101418)
(-2.85719 -0.958679 -0.0408913)
(-1.93402 -1.80161 0.198113)
(-3.23607 -0.295326 0.210311)
(-3.29295 -0.686013 -0.1069)
(-3.01499 -1.37448 0.177085)
(-2.48652 -1.9116 -0.160951)
(-3.9826 -0.0740247 0.176382)
(-3.75263 -0.252078 0.247435)
(-3.68147 -0.765493 0.115997)
(-3.63979 -1.60609 -0.0284806)
(-2.90418 -2.27652 -0.24123)
(-4.03878 0.183952 0.813893)
(-3.95607 -0.679617 0.717869)
(-3.82535 -1.31903 0.469912)
(-3.85673 -0.757776 0.596873)
(-3.7229 -1.64445 0.0604769)
(-2.90846 -2.77511 0.154643)
(-5.16264 -0.136764 1.30478)
(-5.07876 -0.0233457 1.05208)
(-5.00427 -0.384061 0.687115)
(-4.80384 -0.849302 0.693369)
(-4.64603 -0.233141 1.22511)
(-4.01982 -2.21954 1.00627)
(-3.07659 -2.59038 0.670124)
(-4.0069 1.03309 1.35813)
(-3.95968 0.406126 1.35831)
(-3.80335 0.772074 0.923727)
(-4.00112 -0.24375 1.96304)
(-4.35756 -0.446546 2.08921)
(-4.09925 -0.724671 2.0979)
(-4.34551 -0.595134 2.23414)
(-3.58371 -3.00653 -0.2604)
(-2.15181 0.411288 1.09254)
(-2.12595 0.0590048 0.838826)
(-2.67281 -0.43727 1.5067)
(-2.39699 -0.636081 1.9516)
(-1.84976 -0.486867 1.48339)
(-1.79115 -0.563581 1.06003)
(-1.5092 -0.604217 0.541825)
(-1.74284 -0.224578 0.95061)
(-2.69517 -1.52497 0.783231)
(-1.52489 1.22957 0.927824)
(-1.50579 1.13704 0.154169)
(-1.79344 0.92158 0.154605)
(-1.82329 0.420987 -0.0341184)
(-1.65446 -0.304744 0.239421)
(-1.32856 0.0784382 -0.71684)
(-1.02785 -0.207966 -0.683363)
(-0.705725 -0.95209 -0.551882)
(-0.657408 -0.702881 -0.539748)
(-1.50177 -0.222286 -0.373149)
(-0.998234 1.40938 -1.20156)
(-1.08502 1.20477 -1.42452)
(-1.3031 0.853505 -0.750031)
(-1.43262 0.725176 -0.986372)
(-1.6894 0.599271 -0.636213)
(-1.67362 0.168444 -0.47396)
(-1.68953 0.828733 -0.590662)
(-1.40047 0.402726 -0.456801)
(-0.738132 0.309403 -0.922076)
(-0.88695 -0.00867553 -0.757223)
(-0.778996 -0.785213 -0.32799)
(-0.0320787 1.11187 -0.750157)
(-0.4552 1.23737 -0.531807)
(-0.704882 0.852882 -0.753876)
(-0.739663 0.74325 -0.983907)
(-0.775074 0.606654 -1.30153)
(-1.18543 0.36598 -1.12779)
(-1.77505 0.481874 -1.14997)
(-1.65629 0.88816 -1.43016)
(-0.705708 0.297078 -1.59468)
(0.0685124 0.422691 -1.67563)
(-0.151845 -0.485977 -1.1596)
(-1.08738 -1.01123 -0.853832)
(0.215298 0.925351 -1.26228)
(-0.025992 1.09352 -0.789485)
(-0.293113 1.31614 -1.07685)
(-0.277566 1.44929 -0.954784)
(-0.212888 1.22853 -1.07405)
(-0.491625 1.06351 -1.17846)
(-0.750099 0.648427 -1.38635)
(-1.16155 0.363429 -1.21865)
(-1.19962 0.126638 -1.65456)
(-0.353826 0.242442 -2.39223)
(0.0111941 0.970913 -2.08189)
(0.446201 0.0797048 -1.13723)
(-0.68096 -1.48445 -0.415098)
(-1.60012 -1.00572 0.0125682)
(-2.18517 -0.754975 -0.0897092)
(-1.74633 -1.14557 0.0971864)
(-2.6372 -0.338592 -0.0271207)
(-2.47848 -0.637423 -0.125508)
(-1.63353 -1.49643 0.0563494)
(-2.9487 -0.463876 0.0168544)
(-2.99843 -0.621373 0.0841394)
(-2.7111 -1.13092 -0.0834946)
(-1.80362 -1.98824 0.0723197)
(-3.28766 -0.303385 0.265609)
(-3.28957 -0.543161 0.0999977)
(-3.27509 -0.76791 -0.177568)
(-2.9702 -1.28414 0.131107)
(-2.48604 -2.02072 -0.110181)
(-3.89357 -0.270218 0.509819)
(-3.83712 -0.328974 0.262425)
(-3.65395 -0.521603 0.309801)
(-3.79685 -0.891306 -0.0398928)
(-3.61248 -1.39489 -0.0525807)
(-2.73822 -2.40564 -0.358316)
(-4.15243 0.564001 1.07039)
(-4.00627 -0.120486 1.03194)
(-4.03394 -0.541142 0.731454)
(-3.93323 0.0510416 0.775324)
(-3.81939 -0.887711 0.64628)
(-3.4782 -1.92572 0.088894)
(-2.68157 -3.01269 0.0591401)
(-5.18266 -0.308627 1.34673)
(-5.23559 -0.535991 1.34845)
(-5.13909 0.0748995 1.04605)
(-5.13396 -0.0998647 0.932686)
(-4.90926 -0.281498 1.09862)
(-4.6873 -0.600655 1.47616)
(-4.10809 -2.25554 0.92102)
(-2.56521 -2.86307 0.707469)
(-4.1423 0.828339 1.89422)
(-3.9597 0.554826 1.67214)
(-3.78581 0.357644 1.19466)
(-3.73748 0.0304974 1.1891)
(-3.90417 -0.342117 2.1185)
(-4.17359 -0.772926 2.36236)
(-3.92372 -0.597576 2.33403)
(-4.04955 -1.10768 2.04906)
(-3.17071 -3.09883 0.430939)
(-2.36286 -0.125622 1.39362)
(-2.22018 -0.106715 0.858402)
(-2.28151 -0.209622 0.801269)
(-2.69266 -0.915978 1.27238)
(-2.44879 -0.606845 1.66342)
(-1.87891 -0.354256 0.645405)
(-1.70516 -0.479859 -0.133437)
(-1.45546 -0.171741 -0.282344)
(-1.76432 -0.329864 0.91159)
(-2.72286 -1.58318 0.793008)
(-1.60515 0.995937 1.08572)
(-1.63561 1.03401 0.965663)
(-1.57277 0.790777 0.0331273)
(-1.87285 0.806336 0.113714)
(-2.00363 0.0688929 0.0191177)
(-1.61058 -0.417419 0.188215)
(-1.35475 0.16504 -0.678045)
(-1.10132 -0.148208 -0.647479)
(-0.744569 -0.831748 -0.495105)
(-0.721629 -0.546229 -0.658951)
(-1.63637 -0.0881034 -0.427588)
(-1.039 1.62031 -0.465364)
(-0.995803 1.30528 -1.37192)
(-1.12808 0.983579 -1.11917)
(-1.26235 0.66503 -0.332503)
(-1.34679 0.551305 -0.669268)
(-1.68237 0.388716 -0.42701)
(-1.7029 0.151774 -0.329324)
(-1.73322 0.803622 -0.516006)
(-1.38794 0.368032 -0.627587)
(-0.885152 0.362337 -0.922623)
(-0.965848 -0.0740584 -0.690368)
(-0.771252 -0.751879 -0.352531)
(0.136132 1.28272 -0.897538)
(-0.0112288 1.16069 -0.733705)
(-0.436866 1.21054 -0.475972)
(-0.699541 0.807085 -0.699783)
(-0.751148 0.756788 -0.961928)
(-0.789917 0.600839 -1.24623)
(-1.22115 0.508786 -1.12788)
(-1.74653 0.428098 -1.1036)
(-1.54712 0.788427 -1.47082)
(-0.544341 0.137928 -1.69422)
(0.0181878 0.447607 -1.62651)
(-0.127401 -0.499628 -1.06731)
(-1.08054 -1.1375 -0.791027)
(0.722883 0.696441 -1.13717)
(0.211048 0.928839 -1.27542)
(-0.0284097 1.02157 -0.821146)
(-0.273391 1.19693 -0.970664)
(-0.247055 1.24257 -0.899766)
(-0.179451 1.06166 -0.930429)
(-0.451911 0.938797 -1.13037)
(-0.729627 0.635527 -1.39794)
(-1.13664 0.385412 -1.26389)
(-1.17987 0.146819 -1.62156)
(-0.375566 0.290805 -2.38757)
(-0.0543158 1.00851 -1.9981)
(0.429448 0.065509 -1.13093)
(-0.573899 -1.49457 -0.45286)
(-1.38642 -1.04637 -0.0200697)
(-1.86784 -0.724903 0.00123166)
(-1.63659 -1.09403 -0.0666349)
(-2.332 -0.517943 -0.0301375)
(-2.21718 -0.888505 0.0507881)
(-1.53923 -1.33209 0.065393)
(-2.5684 -0.400418 -0.0444507)
(-2.55625 -0.473309 0.103486)
(-2.38704 -0.992032 -0.114727)
(-1.53722 -1.59516 0.0321799)
(-2.93789 -0.378476 0.208584)
(-2.93213 -0.522941 -0.0427135)
(-2.93117 -0.569361 0.09699)
(-2.58245 -1.32954 -0.0816079)
(-1.84681 -1.97493 0.087676)
(-3.30473 -0.24373 0.494856)
(-3.26348 -0.392885 0.245076)
(-3.25228 -0.699672 0.0643013)
(-3.27467 -0.792691 -0.203943)
(-2.98774 -1.26305 0.122635)
(-2.43812 -2.15249 -0.14749)
(-3.94625 0.203132 0.738535)
(-3.85071 -0.246728 0.439916)
(-3.67473 -0.503166 0.280109)
(-3.5752 -0.546277 0.272844)
(-3.67446 -1.02643 -0.106593)
(-3.45613 -1.506 -0.0117279)
(-2.54464 -2.64016 -0.225998)
(-4.05447 0.584475 1.0879)
(-3.99778 -0.00213267 1.13846)
(-4.06228 -0.0157342 0.923569)
(-4.08815 -0.193344 0.901026)
(-4.07974 -0.159453 0.85851)
(-3.6736 -1.43853 0.527785)
(-3.22801 -2.16788 0.221024)
(-2.5434 -3.19177 0.0728554)
(-5.17922 -0.48364 1.23734)
(-5.32278 -0.412523 1.40245)
(-5.12403 -0.133259 1.14427)
(-5.17583 -0.264275 0.799966)
(-5.03236 -0.154411 1.02264)
(-4.73081 -0.438294 1.19364)
(-4.65209 -0.750633 1.44436)
(-4.27618 -2.47476 0.81399)
(-2.07055 -3.31542 0.435059)
(-4.27471 1.02238 1.8623)
(-4.13947 0.356422 2.00099)
(-3.94216 0.348853 1.35312)
(-3.7905 0.599363 0.973773)
(-3.77369 -0.0535834 1.34641)
(-3.82249 -0.546034 2.43839)
(-3.95679 -0.583168 2.72088)
(-3.76975 -0.139242 2.28395)
(-3.3907 -2.165 1.90841)
(-3.09345 -3.22609 0.681515)
(-2.76937 0.0377342 1.32333)
(-2.35798 -0.477477 1.24951)
(-2.17809 -0.359681 0.765308)
(-2.28877 -0.492514 0.844671)
(-2.56937 -1.10449 1.3033)
(-2.31523 -0.644046 1.3705)
(-1.83012 -0.109802 -0.162232)
(-1.70493 -0.388002 -0.491869)
(-1.56684 -0.142668 -0.480176)
(-1.95866 -0.541297 0.796943)
(-2.71763 -1.70191 0.748995)
(-2.18634 -0.124679 1.13526)
(-1.73745 0.672381 1.11914)
(-1.67583 0.889319 0.674213)
(-1.59653 0.712993 0.00799368)
(-1.96806 0.604252 0.203667)
(-1.98873 -0.561631 -0.00324159)
(-1.58038 -0.336156 -0.0169136)
(-1.39462 0.226725 -0.543639)
(-1.11903 -0.201099 -0.636976)
(-0.748453 -0.82174 -0.462904)
(-0.782128 -0.462292 -0.672338)
(-1.72498 -0.31822 -0.318973)
(-0.752216 0.1695 0.784186)
(-1.0125 1.49152 -0.541941)
(-1.02013 1.07096 -1.20969)
(-1.12754 0.73707 -0.716299)
(-1.16797 0.427766 -0.0948075)
(-1.24753 0.220294 -0.155742)
(-1.66683 0.198281 -0.264303)
(-1.77372 0.250469 -0.00785954)
(-1.74088 0.77358 -0.391964)
(-1.33051 0.269628 -0.847668)
(-0.927507 0.251349 -0.940064)
(-0.964461 -0.0342815 -0.687647)
(-0.847904 -0.606944 -0.395224)
(0.265342 1.0058 -0.801845)
(0.0828784 1.22729 -0.876973)
(-0.00909229 1.16472 -0.70108)
(-0.444886 1.0981 -0.432391)
(-0.686779 0.786194 -0.683973)
(-0.751349 0.729261 -0.843496)
(-0.796349 0.576766 -1.08213)
(-1.26553 0.565611 -1.0837)
(-1.74534 0.440206 -0.959719)
(-1.44512 0.732738 -1.41207)
(-0.371286 -0.0242656 -1.73915)
(-0.0145336 0.500273 -1.56505)
(-0.155137 -0.464311 -0.974181)
(-0.949399 -1.26877 -0.72537)
(1.33021 0.0481572 -1.14902)
(0.746064 0.690395 -1.11902)
(0.208341 0.937412 -1.24727)
(-0.0241423 0.981364 -0.842783)
(-0.248931 1.08447 -0.860096)
(-0.214822 1.06536 -0.811944)
(-0.132194 0.93451 -0.785483)
(-0.392035 0.830594 -1.08431)
(-0.704953 0.568516 -1.33818)
(-1.13714 0.385575 -1.27242)
(-1.13632 0.160561 -1.58422)
(-0.385107 0.300443 -2.38725)
(-0.114044 1.03229 -1.91504)
(0.408893 0.0433225 -1.12982)
(-0.681101 -1.63068 -0.455632)
(-1.24382 -1.15544 -0.0107329)
(-1.60833 -1.08349 0.0949682)
(-1.41429 -1.05686 -0.0452571)
(-1.93938 -0.643797 0.243617)
(-1.92934 -0.762412 0.0457284)
(-1.58764 -1.2597 -0.0236696)
(-2.28001 -0.5062 0.254669)
(-2.28009 -0.731004 0.0405125)
(-2.22324 -0.93459 0.0121907)
(-1.45256 -1.43328 0.0421425)
(-2.51278 -0.426462 0.193927)
(-2.55787 -0.489409 0.125995)
(-2.5701 -0.494644 0.0612266)
(-2.28745 -1.2687 0.0089464)
(-1.21149 -1.87765 0.12076)
(-2.96495 -0.286983 0.368363)
(-2.90522 -0.563209 0.182463)
(-2.80695 -0.822253 -0.0429073)
(-2.89073 -0.461861 0.212957)
(-2.60162 -1.52296 -0.100437)
(-1.7557 -2.14886 0.0812574)
(-3.32763 -0.0546516 0.557561)
(-3.2473 -0.433554 0.494619)
(-3.20009 -0.534097 0.242601)
(-3.23703 -0.864404 0.0596554)
(-3.12639 -1.06622 -0.149112)
(-3.10399 -1.45753 0.0858261)
(-2.54302 -2.13101 -0.13276)
(-3.70409 0.0577229 1.01377)
(-3.86235 -0.760024 0.798107)
(-3.74385 -0.569332 0.591118)
(-3.70405 -0.552751 0.333693)
(-3.63456 -0.813294 0.297854)
(-3.526 -1.23327 -0.0778959)
(-3.09542 -2.04482 0.00684328)
(-2.49742 -2.66569 -0.180269)
(-4.13037 0.0900806 1.14552)
(-4.04526 0.860195 1.29565)
(-4.06598 -0.253105 1.21378)
(-3.98589 -0.500218 0.968523)
(-4.00141 -0.602003 0.893576)
(-4.02536 -0.750408 0.817971)
(-4.04643 -0.590869 0.680781)
(-3.09796 -2.29384 0.35058)
(-2.54733 -3.16044 0.0687212)
(-5.17409 0.292636 1.34784)
(-5.23775 0.220639 1.50409)
(-5.06097 -0.0914061 1.45317)
(-5.13214 -0.149696 1.02869)
(-5.18844 -0.281287 0.886911)
(-5.06575 -0.498074 1.26603)
(-4.69292 -0.477249 1.24353)
(-4.4987 -1.31186 1.31778)
(-4.34771 -2.66575 1.15828)
(-1.37506 -4.06552 0.131225)
(-4.3721 1.53478 1.83489)
(-4.3054 0.651842 1.99561)
(-4.03972 0.442955 1.84944)
(-3.75076 1.00159 1.09596)
(-3.67199 0.604473 1.11798)
(-3.73234 -0.384291 1.82726)
(-3.68995 -1.11912 2.92296)
(-3.85813 -0.11796 2.61115)
(-3.49716 -0.859975 2.24007)
(-3.17025 -2.46144 1.93443)
(-3.47579 -2.9323 1.33993)
(-3.34063 0.121305 1.9169)
(-2.58905 -0.478071 1.24092)
(-2.3148 -0.622498 1.11982)
(-2.05474 -0.443747 0.809701)
(-2.20067 -0.541578 1.03617)
(-2.53418 -0.794911 1.19345)
(-2.18436 -0.324976 1.12289)
(-1.80965 -0.0443019 -0.51589)
(-1.71196 -0.170423 -0.778902)
(-1.59108 -0.630259 -0.197714)
(-2.05627 -0.801555 0.627822)
(-2.41472 -2.27377 0.657368)
(-2.01147 0.224016 1.98513)
(-2.24487 -0.145635 1.08103)
(-1.85261 0.419432 1.00945)
(-1.71991 0.771704 0.379704)
(-1.69054 0.584664 -0.100259)
(-1.92465 -0.083979 0.495772)
(-1.85722 -0.832009 0.0280573)
(-1.57966 -0.14092 -0.175058)
(-1.41927 0.255004 -0.480741)
(-1.09194 -0.246293 -0.63941)
(-0.752232 -0.793804 -0.519649)
(-0.890825 -0.368721 -0.700845)
(-1.8131 -0.375281 -0.31231)
(-0.365761 0.405873 0.264397)
(-0.755242 0.19682 0.686701)
(-0.977706 1.02878 -0.355143)
(-0.999161 0.839258 -0.942347)
(-1.14641 0.592372 -0.284341)
(-1.12959 0.435141 -0.0280776)
(-1.22833 0.114347 0.0166107)
(-1.72012 0.179356 -0.3453)
(-1.86238 0.361218 -0.0707831)
(-1.69516 0.690452 -0.444839)
(-1.28542 0.221987 -0.968098)
(-0.996243 0.439535 -0.856165)
(-0.955147 -0.119853 -0.602136)
(-0.892412 -0.518129 -0.391146)
(0.199667 0.356839 -1.07083)
(0.241938 0.935503 -0.846101)
(0.0486707 1.1391 -0.825729)
(-0.0469593 1.10844 -0.653848)
(-0.417435 1.01912 -0.440344)
(-0.67946 0.799936 -0.703297)
(-0.722229 0.698678 -0.717808)
(-0.79062 0.538358 -0.833945)
(-1.20586 0.573761 -1.25077)
(-1.55946 0.194423 -1.20401)
(-1.31335 0.612822 -1.38189)
(-0.282129 -0.121861 -1.70147)
(-0.074436 0.591118 -1.4753)
(-0.155119 -0.461505 -0.873528)
(-0.942214 -1.32181 -0.718826)
(1.27343 -0.202187 -1.33743)
(1.34949 0.0658338 -1.15386)
(0.754749 0.727438 -1.09752)
(0.208543 0.95916 -1.21153)
(-0.022498 0.953931 -0.843466)
(-0.22847 0.989072 -0.752631)
(-0.17647 0.936617 -0.712579)
(-0.0956309 0.841562 -0.652009)
(-0.338643 0.74225 -1.04224)
(-0.649391 0.505879 -1.24465)
(-1.14762 0.420441 -1.23242)
(-1.11414 0.147673 -1.59353)
(-0.388258 0.29279 -2.38608)
(-0.162338 1.04259 -1.83245)
(0.400653 0.0222831 -1.12681)
(-0.734092 -1.60126 -0.474775)
(-1.35777 -0.963997 -0.0506463)
(-1.58568 -0.903466 0.158912)
(-1.21259 -1.17867 0.0289188)
(-1.60303 -1.19243 0.310717)
(-1.60982 -0.991614 0.121278)
(-1.38004 -1.20046 -0.0937209)
(-1.92493 -0.823124 0.497324)
(-2.05542 -0.627926 0.0749059)
(-2.00003 -0.694433 -0.0292835)
(-1.62348 -1.32791 -0.0904401)
(-2.30154 -0.730427 0.231239)
(-2.31756 -0.60483 0.350927)
(-2.3018 -0.643022 -0.142161)
(-2.19798 -0.964828 0.094608)
(-1.1673 -1.6725 -0.0236762)
(-2.54853 -0.358932 0.40845)
(-2.40996 -0.798691 0.240519)
(-2.47557 -0.670047 0.143119)
(-2.55528 -0.748818 -0.0483144)
(-2.23768 -1.3423 0.0495935)
(-1.24787 -1.87632 -0.0973142)
(-2.94962 -0.134852 0.467507)
(-2.88241 -0.51797 0.360569)
(-2.90334 -0.792325 0.179628)
(-2.81673 -0.858521 0.0175865)
(-2.85849 -0.734932 0.0984819)
(-2.61131 -1.80839 -0.0630409)
(-1.84747 -2.21702 0.0234751)
(-3.30576 -0.25983 0.709363)
(-3.35683 -0.325483 0.556189)
(-3.22566 -0.575785 0.493717)
(-3.2219 -0.476848 0.256659)
(-3.22354 -0.890457 0.0659997)
(-3.05705 -1.26863 -0.104144)
(-3.10996 -1.73753 -0.0540337)
(-2.56872 -2.18496 -0.112998)
(-3.83512 -0.008087 1.17323)
(-3.76073 -0.22822 1.11476)
(-3.86284 -0.547903 0.70736)
(-3.72827 -0.67257 0.686183)
(-3.68812 -0.726926 0.462834)
(-3.65975 -1.18693 0.249661)
(-3.51706 -1.4854 -0.0355257)
(-2.98106 -2.13482 0.00287601)
(-1.76015 -3.08462 -0.00133969)
(-4.10228 0.1751 1.19813)
(-4.12548 0.000204459 1.28363)
(-4.14648 -0.0585208 1.42199)
(-4.1658 -0.57235 1.22084)
(-4.13181 -0.502858 1.09588)
(-4.1259 -0.871277 0.977305)
(-4.03956 -1.09902 0.74875)
(-3.61195 -1.96987 0.393275)
(-2.97873 -2.42299 0.24788)
(-2.38174 -3.16947 0.163337)
(-4.99398 0.349541 1.75885)
(-5.17705 0.202188 1.66094)
(-5.16554 0.144815 1.59553)
(-4.98519 0.139098 1.47861)
(-5.25953 0.0329935 1.23183)
(-5.20352 -0.452516 1.30363)
(-5.09554 -0.818959 1.2489)
(-4.7831 -0.735359 1.27435)
(-4.53996 -1.69694 1.32475)
(-4.26651 -2.70804 1.29016)
(-0.912789 -4.45526 -0.387946)
(-4.80209 1.03123 2.25371)
(-4.41744 1.25886 1.74042)
(-4.22231 0.42523 2.14496)
(-3.8124 0.69083 1.59923)
(-3.48441 0.510214 1.24604)
(-3.16109 -0.279749 1.85298)
(-3.51305 -1.02264 2.34659)
(-3.56083 -1.31553 3.09242)
(-3.36685 -1.00059 2.28734)
(-2.75206 -2.18273 2.07344)
(-3.23975 -2.42311 1.90209)
(-2.38297 -3.96773 0.736801)
(-3.65429 0.185437 1.41511)
(-3.14667 0.105311 1.42679)
(-2.51402 -0.686377 1.19063)
(-2.20487 -0.66826 1.00029)
(-2.00679 -0.448829 0.830448)
(-2.28801 -0.431711 1.12938)
(-2.62927 -0.19873 0.825463)
(-2.23414 -0.135789 0.229711)
(-1.79823 0.0168858 -0.982697)
(-1.83326 -0.24434 -0.870071)
(-1.78198 -0.473662 -0.538195)
(-2.0967 -1.1457 0.620492)
(-2.42004 -2.66501 0.537363)
(-1.88836 0.13764 2.08501)
(-1.90353 0.211463 1.956)
(-2.24453 -0.175736 1.16092)
(-1.92526 0.310828 0.716835)
(-1.77993 0.808032 0.278082)
(-1.67522 0.130139 0.116705)
(-1.73728 -0.626584 0.628882)
(-1.73362 -0.747714 0.0046783)
(-1.59218 -0.0104313 -0.22811)
(-1.42225 0.219049 -0.480322)
(-1.10915 -0.32121 -0.608475)
(-0.907846 -0.764211 -0.609473)
(-0.972992 -0.390341 -0.588115)
(-1.8526 -0.610361 -0.172176)
(-0.669247 0.0890066 0.708088)
(-0.426829 0.397466 0.25677)
(-0.753424 0.337813 0.439223)
(-0.875091 0.249716 -0.0143657)
(-0.959097 0.582828 -0.710385)
(-1.16212 0.633127 -0.227394)
(-1.20282 0.508305 0.0594116)
(-1.28181 0.120295 0.00442934)
(-1.83584 0.0673073 -0.206139)
(-1.89101 0.402536 -0.344803)
(-1.59213 0.533057 -0.684304)
(-1.26791 0.167656 -0.901388)
(-1.03544 0.143271 -0.914518)
(-0.864095 -0.145263 -0.589926)
(-0.89687 -0.484347 -0.324317)
(0.749678 -0.209199 -0.963558)
(0.184758 0.276623 -1.06338)
(0.23196 0.864115 -0.880839)
(0.0321138 1.05192 -0.754605)
(-0.0843261 1.02305 -0.613667)
(-0.416933 0.960754 -0.464014)
(-0.652645 0.824666 -0.7289)
(-0.689356 0.65766 -0.6446)
(-0.719675 0.447976 -0.654672)
(-1.1707 0.497946 -1.24553)
(-1.49292 0.119136 -1.21963)
(-1.10353 0.410273 -1.42893)
(-0.191954 -0.195867 -1.58945)
(-0.1451 0.59099 -1.41462)
(-0.160508 -0.449246 -0.794718)
(-0.894728 -1.40309 -0.697518)
(1.42843 0.00758335 -1.53937)
(1.27744 -0.263549 -1.33302)
(1.35628 0.0542405 -1.13781)
(0.765553 0.76739 -1.08045)
(0.203006 0.983194 -1.17575)
(-0.021997 0.940587 -0.815181)
(-0.20801 0.917867 -0.664103)
(-0.141876 0.857866 -0.6222)
(-0.0561566 0.782054 -0.544749)
(-0.300717 0.6657 -1.00782)
(-0.596475 0.445008 -1.1352)
(-1.13955 0.442748 -1.22202)
(-1.08955 0.149068 -1.61715)
(-0.383912 0.276068 -2.39309)
(-0.195997 1.03504 -1.75528)
(0.399747 0.0018947 -1.12041)
(-0.589431 -1.57845 -0.483791)
(-1.25848 -1.00999 0.013509)
(-1.5297 -1.04427 0.0501051)
(-1.26507 -1.03983 -0.0308333)
(-1.80138 -0.760359 0.125133)
(-1.46992 -1.11104 0.0953191)
(-1.11891 -1.28064 0.0565635)
(-1.8781 -0.896533 0.385646)
(-1.59599 -1.24765 0.252973)
(-1.61987 -1.04165 0.0711802)
(-1.45144 -1.24961 -0.0989152)
(-2.03612 -0.753967 0.54503)
(-1.96027 -0.806884 0.495124)
(-1.96498 -0.968902 0.108112)
(-1.97884 -0.792073 0.0626138)
(-1.44736 -1.54278 -0.141506)
(-2.39182 -0.196119 0.630082)
(-2.1866 -0.964784 0.51517)
(-2.21245 -1.05708 0.382616)