/*--------------------------------*- C++ -*----------------------------------*\
  =========                 |
  \\      /  F ield         | OpenFOAM: The Open Source CFD Toolbox
   \\    /   O peration     | Website:  https://openfoam.org
    \\  /    A nd           | Version:  7
     \\/     M anipulation  |
\*---------------------------------------------------------------------------*/
FoamFile
{
    version     2.0;
    format      ascii;
    class       volScalarField;
    location    "6";
    object      nut;
}
// * * * * * * * * * * * * * * * * * * * * * * * * * * * * * * * * * * * * * //

dimensions      [0 2 -1 0 0 0 0];

internalField   nonuniform List<scalar> 
18750
(
0.00086272
0.00106497
0.00178587
0.000691738
0.00154332
0.000986452
0.00111578
0.000507118
0.00200006
0.000425961
0.0021207
0.000773439
0.00122259
0.00134789
0.00153602
0.00122652
0.00018351
0.000482253
0.00191342
0.000949586
0.00335993
0.00159557
0.00206177
0.00305973
0.00326791
0.00224229
0.000295906
0.00139543
0.00192502
0.00113101
0.000153535
0.000247279
0.000298153
0.00162903
0.00135703
0.00227302
0.00167721
0.00276869
0.00220518
0.00143713
0.00244842
0.000726124
0.000845711
0.00109772
0.00216708
0.000393804
0.000472195
0.00125994
0.000902441
0.00099763
0.00013585
0.000132047
0.00025407
0.000388315
0.00122047
0.00140206
0.00218079
0.00207573
0.0025591
0.00045849
0.0012644
0.00262481
0.00109375
0.00185747
0.00259768
0.00239887
0.000533024
0.00144235
0.00185387
0.00463232
0.00213111
0.000533653
0.000395496
0.000405284
0.000902623
0.00217182
0.000913912
0.000113317
0.000182161
0.000119152
0.000108484
0.000629877
0.000772773
0.00124637
0.00223055
0.000773957
0.00201971
0.000912206
0.000693199
0.00238757
0.000907531
0.000892062
0.00106059
0.00248623
0.000770103
0.00123051
0.00136031
0.00200427
0.00211588
0.00093648
0.000580496
0.00152059
0.00100551
0.00151657
0.00206318
0.000206232
0.000545986
0.000382185
0.000330189
0.000486163
0.00227321
0.00105693
0.000111684
0.000149398
0.000176398
0.000116772
0.000327673
0.000466216
0.000417546
0.000926053
0.00224254
0.000658641
0.00269739
0.00056634
0.00104587
0.00223756
0.00170312
0.000563397
0.000971258
0.00202342
0.00148279
0.000760405
0.00126984
0.000806353
0.00251381
0.000721753
0.000776982
0.00158122
0.00138032
0.00226694
0.00208793
0.000695905
0.000985716
0.000408117
0.000875109
0.0010124
0.00260356
0.0019617
0.000131728
0.000145258
0.000509949
0.000516503
0.000506404
0.000268204
0.00203139
0.00158447
9.8441e-05
0.000182182
0.000135041
0.000138878
0.000120041
0.000301559
0.000109302
0.000311383
0.00046914
0.00220816
0.000850293
0.00214184
0.000562623
0.000925634
0.00243854
0.00048437
0.000451994
0.000603554
0.00238569
0.00137205
0.00101869
0.000358049
0.00107518
0.00200984
0.00150743
0.00117939
0.00106219
0.00148772
0.000465762
0.00255559
0.000806877
0.000960604
0.000759524
0.00160161
0.00128025
0.00218192
0.0019917
0.000251649
0.000606925
0.000996871
0.000708719
0.00104072
0.000626304
0.00344722
0.00202005
0.000132124
0.000184393
0.000152326
0.000486013
0.000474294
0.000557804
0.00019775
0.00147564
0.00181661
7.14489e-05
0.000109345
0.00018059
0.000137896
0.000107425
0.000108691
0.0001541
0.000411627
0.000259341
0.000210266
0.00215911
0.00110156
0.00221474
0.000570156
0.000730491
0.0022725
0.000654731
0.000505916
0.000619828
0.00238947
0.000629985
0.000935224
0.000612899
0.000472518
0.00264683
0.00167357
0.000488025
0.000628373
0.00110224
0.000775658
0.00228232
0.000711252
0.00109149
0.000779747
0.00142807
0.00102453
0.000804165
0.00205187
0.000834973
0.000866376
0.000936388
0.000618974
0.00113606
0.000971297
0.0018589
0.00199448
0.000279706
0.000562329
0.000640671
0.00098655
0.000777372
0.000879105
0.000365932
0.00238501
0.00254264
0.000208342
8.92805e-05
0.00020085
0.000119743
0.000482248
0.000391144
0.000383955
0.000387664
0.000969033
0.00162014
3.10992e-05
5.01357e-05
0.00014676
0.000156048
0.000151452
9.13263e-05
0.00010586
0.000144118
0.000144497
0.000268321
0.000198331
0.000697088
0.00225773
0.000646219
0.000629308
0.00213815
0.000818548
0.000624556
0.00113514
0.00223698
0.000424086
0.000470255
0.000498429
0.000484494
0.0024769
0.000658709
0.000664805
0.000486309
0.000755233
0.00118387
0.00254054
0.000811529
0.00123184
0.000848187
0.000417826
0.000899073
0.000506853
0.00242974
0.000838367
0.000628196
0.00108912
0.00115063
0.00119004
0.000730454
0.000675712
0.00250703
0.000851565
0.000796763
0.000840317
0.000947164
0.000844472
0.00129096
0.000709923
0.00131901
0.00228046
0.000328179
0.000208618
0.000990292
0.000711769
0.000941684
0.000587209
0.000728075
0.000820033
0.00187986
0.00277746
0.000217337
0.000188138
0.000157816
0.000180003
0.000108438
0.000456086
0.000420597
0.000369012
0.000444415
0.000456957
0.0012559
0.000246314
0.000178023
5.07214e-05
8.57881e-05
0.000154343
0.000149967
8.84874e-05
0.000106354
0.00014989
0.000244674
0.000273474
0.000192684
0.00241695
0.000306193
0.00067303
0.00223746
0.000554069
0.000439985
0.000568508
0.00230172
0.00055194
0.00055688
0.000518506
0.000508988
0.00230806
0.000607395
0.000454888
0.000876342
0.00067258
0.000703952
0.00247794
0.00101764
0.000807505
0.000629755
0.000707321
0.000871455
0.00101532
0.00265489
0.000240495
0.000612436
0.00101214
0.00118534
0.00103597
0.000616757
0.00129621
0.0030555
0.00101211
0.000984107
0.00100602
0.00106796
0.00112765
0.000543746
0.00076917
0.000534556
0.00333559
0.000759345
0.000790665
0.000777819
0.000698067
0.000924333
0.000710224
0.00141204
0.000994132
0.000934834
0.00236016
0.000713075
0.000351939
0.000241917
0.000824505
0.000734513
0.000966869
0.000645528
0.000779254
0.00090749
0.00168907
0.00265192
9.93264e-05
0.000153602
0.000120473
0.000199013
0.000436863
0.000190346
0.000433882
0.000449521
0.000354352
0.000435102
0.00033435
0.00107109
0.000330876
8.30848e-05
7.33943e-05
5.92051e-05
0.000113444
0.000233624
0.000153148
0.000127899
0.000114744
0.000159322
0.000218278
0.000292441
0.000173436
0.00229717
0.000857524
0.00232514
0.000549457
0.000344639
0.000478732
0.0022504
0.000561101
0.00065624
0.000537517
0.000690981
0.00232237
0.000538462
0.000739647
0.000606054
0.000647926
0.000510037
0.00253685
0.000484215
0.000615525
0.000616037
0.000844698
0.000640516
0.000579358
0.00234922
0.000950461
0.000841433
0.000927388
0.000334949
0.000784191
0.00104367
0.00131055
0.00236979
0.000455516
0.00109551
0.000885975
0.000865071
0.000688538
0.000781207
0.00196598
0.00198956
0.00261095
0.000812657
0.00085797
0.00104446
0.00084196
0.00112577
0.00140558
0.000782907
0.000804783
0.000988212
0.00345355
0.000668023
0.000696392
0.000979949
0.000778122
0.00093152
0.000979136
0.00102754
0.00146979
0.00121211
0.000703631
0.00205194
0.000817671
0.000706105
0.000326014
0.000280713
0.000624871
0.000709876
0.000967501
0.000706229
0.000710909
0.00084119
0.000298707
0.00238362
0.000183418
0.000123667
7.77252e-05
0.000482206
0.000182468
0.000316304
0.000214274
0.000401081
0.000416907
0.000326107
0.000368149
0.000324645
0.000933327
0.000705455
0.000281519
0.000101473
0.000140497
7.33262e-05
0.000191387
0.000230052
0.000132812
8.96697e-05
0.000114138
0.00041368
0.000225232
0.000372814
0.000193644
0.00229707
0.000451195
0.00230809
0.000348069
0.000727344
0.00226466
0.000595841
0.000478845
0.000316298
0.000460588
0.00228007
0.000512839
0.000634924
0.000834877
0.00054827
0.000551878
0.00240881
0.000532887
0.000676574
0.000654676
0.000577532
0.00065487
0.00066267
0.00261537
0.000595881
0.000621464
0.000351042
0.00091426
0.000657597
0.000528133
0.000521011
0.00252316
0.000753166
0.000938551
0.000636099
0.000696945
0.00026275
0.000832094
0.00101688
0.00124505
0.00230432
0.000976485
0.000860854
0.000740063
0.000564391
0.000787966
0.000973292
0.00051857
0.00213279
0.00198998
0.00222995
0.00143511
0.000597313
0.000897637
0.000693272
0.000908053
0.00142618
0.00152927
0.000588232
0.000985397
0.00122158
0.00297105
0.000860079
0.000774213
0.000565065
0.000920513
0.000965655
0.00115219
0.00100173
0.00122951
0.00150427
0.00118767
0.000384339
0.00199513
0.000475484
0.000666942
0.000775874
0.000365891
0.000275296
0.000387102
0.000560381
0.000947002
0.000696068
0.000653773
0.00110392
0.000407708
0.00192975
0.00028121
0.000277405
0.000121345
0.000189682
0.000216526
0.000193027
0.000481088
0.00024344
0.000407035
0.000435741
0.000305991
0.000468518
0.000312103
0.000684729
0.000654841
0.000361974
0.000277246
0.000152198
0.000205637
0.000148671
0.000123598
0.00015074
0.000122564
7.6481e-05
0.000116058
0.000219473
0.000318948
0.000349707
0.000266754
0.000594393
0.00226575
0.000272343
0.0005065
0.00231926
0.000345842
0.000379841
0.000509005
0.00224292
0.000523137
0.000726244
0.00054509
0.00021963
0.000414384
0.00233961
0.000300177
0.00063912
0.000384415
0.000828601
0.000594838
0.000624356
0.00251658
0.000576664
0.000540829
0.000634283
0.000578923
0.000537971
0.000934902
0.000611958
0.0027288
0.000433241
0.000493535
0.000484835
0.000668195
0.000505806
0.000435001
0.000401632
0.00111373
0.00265972
0.000686106
0.000581183
0.000624429
0.000797606
0.000938287
0.000645913
0.000531288
0.00151964
0.00181275
0.00227578
0.000572942
0.00031005
0.000437155
0.000544762
0.000754839
0.000665636
0.000817123
0.00114831
0.00122725
0.00166974
0.00269595
0.00218802
0.00126939
0.000685882
0.000707129
0.000787483
0.00126707
0.00170645
0.00106527
0.000468489
0.00235603
0.00204366
0.00395141
0.000709787
0.000963075
0.000590192
0.000869865
0.00110453
0.00110466
0.00106158
0.00106896
0.00141254
0.00157087
0.00102197
0.000399585
0.00331515
0.000283915
0.000504727
0.000749131
0.000632369
0.000249366
0.000522321
0.000557572
0.000369217
0.00090873
0.000683435
0.000778241
0.0009245
0.000991652
0.00208511
0.00039598
0.000434189
0.000216078
0.00018855
0.000236017
0.000505007
0.000353754
0.000416691
0.000359682
0.00035949
0.000428512
0.000330016
0.00076316
0.000286287
0.000529783
0.000291825
0.000611126
0.000162285
0.000230446
0.000167487
0.000262208
0.00010249
8.89523e-05
0.000134617
0.000130107
0.000167526
0.000133728
0.000334644
0.000217996
0.000260282
0.000268986
0.00233251
0.000227612
0.000482893
0.00227784
0.000324961
0.000340079
0.00071217
0.00230677
0.00041628
0.000404651
0.000433483
0.000525021
0.00234579
0.000467382
0.000673882
0.00073784
0.000729292
0.000504658
0.000562773
0.00237257
0.00050968
0.000457715
0.000520847
0.000468175
0.000634641
0.000482024
0.000565141
0.00241168
0.000462119
0.000610069
0.00046872
0.000510775
0.000369914
0.000449684
0.000844143
0.000854535
0.00284767
0.000411273
0.000522226
0.000555313
0.000545558
0.000703058
0.000422767
0.000405935
0.000939116
0.00138977
0.00265025
0.000585105
0.000495414
0.000842608
0.000799786
0.000735011
0.000650381
0.000869709
0.000790026
0.00184124
0.00208051
0.00256511
0.000873716
0.000699341
0.00044601
0.000388057
0.000827279
0.00150595
0.00107481
0.000895712
0.00142549
0.000923139
0.00160618
0.00278632
0.00261086
0.00254313
0.00117302
0.000652819
0.000861233
0.00113892
0.00080039
0.00145783
0.000898889
0.000597427
0.00344272
0.0039728
0.00410609
0.000842779
0.000838932
0.000912268
0.00116015
0.000804655
0.000826628
0.000937388
0.00105799
0.00107899
0.00137296
0.00136071
0.00120525
0.00208667
0.00294466
0.000147972
0.000376386
0.000559888
0.000496914
0.000582573
0.000201308
0.000448541
0.000618548
0.000408354
0.000855778
0.000724397
0.000688683
0.000801439
0.00142303
0.00269487
0.000402778
0.000427873
0.000356156
0.000343757
0.000174681
0.000110338
0.000504059
0.000424152
0.00020887
0.000459264
0.000367258
0.000434933
0.000389316
0.000697739
0.000340856
0.00039767
0.000459256
0.000205543
0.000617067
0.000410434
0.000205252
0.000109855
0.00010159
5.93496e-05
0.000124688
0.000421822
0.000122718
0.000126597
0.000170722
0.000356517
0.00015983
0.000244723
0.00031883
0.00226359
0.00045625
0.00224397
0.000395923
0.000443817
0.000425551
0.00227775
0.000480054
0.000417643
0.000391324
0.000585405
0.00234981
0.000451551
0.00058899
0.000286456
0.000263432
0.000501651
0.00236869
0.000477553
0.000484068
0.00063795
0.000366456
0.000700312
0.000567234
0.000554846
0.00248467
0.00030047
0.000612603
0.000358888
0.000426008
0.000512293
0.000555937
0.000751577
0.000670398
0.00259273
0.000440142
0.000575792
0.000352573
0.00072158
0.000778065
0.000363519
0.000457203
0.000698452
0.00130227
0.00254214
0.000399958
0.000281981
0.000655839
0.000372368
0.000631791
0.000283673
0.000424099
0.000687884
0.00132846
0.0013538
0.00246239
0.00040469
0.000465735
0.00074084
0.000816362
0.0005977
0.00059377
0.000801004
0.000670742
0.000765043
0.00182453
0.00184953
0.00286823
0.000924495
0.000874414
0.000694311
0.000194378
0.00067711
0.00121637
0.000752841
0.000482706
0.000892423
0.00154087
0.00122998
0.00105994
0.00361572
0.000602986
0.00136579
0.0024717
0.00112207
0.00071012
0.0011986
0.000835716
0.00135363
0.00138884
0.00124111
0.00141223
0.00167955
0.00182493
0.00384229
0.000725528
0.000878954
0.00109123
0.00076381
0.000570344
0.000968064
0.00104017
0.00088923
0.000974938
0.0010712
0.00141071
0.00121305
0.00115639
0.00352303
0.00321245
0.000257558
0.000444278
0.000465361
0.000610492
0.000512852
0.000410007
0.000504066
0.000283605
0.000323492
0.000341576
0.000761959
0.000802828
0.000660775
0.000801328
0.00170589
0.00309823
0.000304946
0.000355956
0.000536716
0.000453339
0.000277192
8.13275e-05
0.000282436
0.000260428
0.000394334
0.000976154
0.000330106
0.000335185
0.000423827
0.00038865
0.000690751
0.000152501
0.000500929
0.000232616
0.000360832
0.000351755
0.00059794
0.000260863
0.000211193
0.000115938
0.000154678
4.33913e-05
0.000120217
0.000191135
0.000111096
0.000116894
0.000209656
0.000261695
0.000140452
0.000280902
0.00049877
0.00227954
0.000301733
0.00221988
0.000413801
0.000682885
0.00224847
0.000547949
0.000394946
0.000393027
0.000406057
0.00235771
0.000442439
0.000281399
0.000436426
0.000333255
0.000531647
0.00230894
0.000413797
0.000480216
0.0003992
0.000343642
0.000445443
0.00028413
0.00227772
0.000559121
0.000460309
0.000399141
0.000397866
0.000529703
0.000522703
0.000599971
0.000636511
0.00251034
0.000547778
0.000417745
0.000416209
0.00055116
0.00062543
0.000377826
0.000411859
0.000892414
0.000722186
0.00256049
0.00029837
0.000575489
0.000547716
0.000567766
0.000700161
0.000656852
0.000599846
0.00059339
0.000734555
0.00113682
0.00234684
0.000978505
0.000577044
0.000290766
0.000614721
0.000332559
0.000888684
0.000826775
0.000485022
0.000928619
0.00122397
0.0013296
0.00231988
0.000582874
0.00044039
0.000534022
0.00064637
0.000680146
0.000541375
0.00165264
0.000882782
0.0010092
0.0011429
0.00132636
0.00202844
0.00270308
0.000632639
0.00156842
0.000709401
0.0004932
0.00043648
0.00120415
0.000202745
0.00130174
0.000358333
0.00165316
0.00073612
0.000975916
0.00215206
0.00383368
0.00105918
0.00166804
0.0014816
0.00244815
0.000920257
0.00102299
0.00104103
0.00109764
0.00101717
0.00171033
0.000798657
0.00141889
0.000998824
0.00128726
0.00399192
0.000723942
0.000609447
0.000395444
0.000752818
0.00114337
0.000995926
0.000573168
0.00129071
0.000862068
0.00089791
0.00104938
0.00138517
0.00124701
0.000905633
0.00151271
0.00337737
0.000747461
0.000573862
0.000584387
0.000408156
0.000627636
0.000506695
0.0004209
0.000490057
0.000522509
0.00104148
0.000390712
0.000612156
0.000807761
0.000719539
0.000717265
0.0020925
0.00270481
0.000529575
0.000330069
0.000485802
0.000661635
0.000629103
0.000284803
0.00019284
0.000220007
0.000344342
0.000443304
0.000583291
0.000343917
0.000222303
0.000353339
0.000309226
0.00077573
0.000158468
0.000825935
0.000264762
0.000300835
0.00022411
0.000393314
0.000560024
0.000144812
0.000234294
7.18584e-05
0.000229028
4.34204e-05
0.000102337
0.000130544
0.000107466
0.000150917
0.000100013
0.000145344
0.000133687
0.000248447
0.00049775
0.00213975
0.000400429
0.00228683
0.000425459
0.000387383
0.00220511
0.000518535
0.000404276
0.000450998
0.0022729
0.000422583
0.000463459
0.000373485
0.000277657
0.000290941
0.00240444
0.000316707
0.000426843
0.000322715
0.000362478
0.000306361
0.00046102
0.00229283
0.000501529
0.000455824
0.000454009
0.000467312
0.000448045
0.000701512
0.000466147
0.00258116
0.000373197
0.000500372
0.00055847
0.000528368
0.000568546
0.000357276
0.000378763
0.000551383
0.000763558
0.00233025
0.000467942
0.000512655
0.000753802
0.000292881
0.000736839
0.000647655
0.000499223
0.000643584
0.000731487
0.000613912
0.00234125
0.000405541
0.000372158
0.000393984
0.00057542
0.000632882
0.000714957
0.000610535
0.000460012
0.000642733
0.0011052
0.00090443
0.0025747
0.000898144
0.00034711
0.000455564
0.000420299
0.00035232
0.000757101
0.000535442
0.000800282
0.000918236
0.000985514
0.00111503
0.00115961
0.00209475
0.000564995
0.000589241
0.000571913
0.000951048
0.000846015
0.00040697
0.00109131
0.000829199
0.000688272
0.00052584
0.00155715
0.00102776
0.00194446
0.00271681
0.000780758
0.000465944
0.00192206
0.000757075
0.000387212
0.000394305
0.000586319
0.000862232
0.00129275
0.00066063
0.00135221
0.000900925
0.00146503
0.0025621
0.00441102
0.00122955
0.00119861
0.00200931
0.00259317
0.00228688
0.0013398
0.00107234
0.00098801
0.00078155
0.00121965
0.00164952
0.000902445
0.000752618
0.000939089
0.00147524
0.00407474
0.000869898
0.000481342
0.000674749
0.0010469
0.000507488
0.00104996
0.0006367
0.000774916
0.00122084
0.00103488
0.000968652
0.00104457
0.00143648
0.00114876
0.00153118
0.00189075
0.00226384
0.000693419
0.000710013
0.000456246
0.000479376
0.000891951
0.000512792
0.000411275
0.000292328
0.000565661
0.000488073
0.000943451
0.000548756
0.00044077
0.000686821
0.000733383
0.000741621
0.00218992
0.0014599
0.000494728
0.000535941
0.000335656
0.00052693
0.000530602
0.000286831
0.000323176
0.0002071
0.000185863
0.000420825
0.000695427
0.000325548
0.000290304
0.000171659
0.000387973
0.000422042
0.000790549
0.000282892
0.000781962
0.000176072
0.000294761
0.00049528
0.000111842
0.000289286
0.000529058
0.000389808
0.000177086
0.000206599
0.000238858
7.91946e-05
0.000187411
0.000120826
8.68924e-05
0.000171259
0.000174168
0.000116788
0.000174492
0.000240107
0.000506409
0.00213721
0.000397211
0.00215303
0.000415234
0.00046542
0.00226287
0.000466608
0.000275362
0.000273233
0.00222756
0.000536765
0.000339541
0.000205773
0.000366028
0.00237378
0.000334325
0.000446938
0.000427397
0.000549369
0.000487624
0.000254969
0.00238683
0.000422462
0.000498593
0.000386459
0.00027345
0.000184261
0.000221479
0.000343834
0.00219913
0.000462512
0.000410408
0.000286374
0.000363988
0.000455476
0.000448274
0.000553288
0.000714428
0.00247102
0.000283588
0.000874883
0.000537117
0.000467085
0.000746908
0.000647722
0.000404068
0.000672838
0.000669656
0.000597146
0.00249265
0.000561547
0.000557128
0.000247243
0.000493179
0.000523586
0.000615185
0.000258096
0.000557073
0.000350714
0.000665786
0.000588465
0.00259076
0.000368438
0.000367768
0.000466257
0.00045673
0.00053603
0.000713735
0.000866679
0.00104044
0.00110216
0.00103376
0.00104631
0.00132511
0.00245625
0.000637744
0.000620915
0.000507774
0.000541511
0.00049309
0.00025967
0.000929921
0.000764751
0.000295609
0.00084919
0.000989373
0.000873053
0.00120132
0.00224782
0.000448807
0.000648602
0.000627391
0.000808169
0.000842893
0.000666822
0.00128663
0.00089852
0.000440373
0.000554429
0.00108696
0.00105232
0.000743142
0.00118743
0.00247844
0.000874687
0.000980245
0.00115829
0.00116604
0.00094991
0.000409794
0.000654318
0.000515756
0.000677471
0.00102489
0.00110881
0.000848322
0.000888401
0.00189335
0.00212159
0.00290392
0.00165437
0.000835101
0.000751631
0.00076548
0.00257576
0.00204132
0.000957382
0.000880069
0.000821922
0.00102358
0.00155557
0.00178554
0.000642743
0.000882886
0.000642649
0.00168707
0.00379064
0.000757134
0.000884859
0.000707886
0.000757563
0.0011232
0.00069508
0.00101178
0.00075031
0.000991333
0.00102886
0.00107597
0.0011716
0.00119485
0.00149151
0.00102241
0.00136959
0.00274452
0.00239728
0.00050099
0.000626285
0.000791105
0.000291724
0.000310761
0.000381997
0.000436668
0.000306554
0.000371879
0.000429656
0.000561575
0.000313482
0.00035204
0.000401101
0.000583796
0.000733824
0.000707022
0.00189509
0.00229608
0.000260412
0.000464759
0.000149263
0.000325813
0.000508762
0.000468684
0.000166583
0.000173813
0.000125702
0.000336493
0.000418955
0.000538924
0.000606982
0.000330014
0.000228018
0.000397894
0.000393577
0.000759009
0.000613737
0.000541236
0.000138202
0.00018758
0.000300942
0.000547832
0.000168404
0.000150848
0.000415803
0.000301432
0.000140911
0.000228852
0.000168719
0.00012914
0.000235404
0.000183429
6.28394e-05
0.000128996
0.000234329
0.000103229
9.03155e-05
0.00022826
0.000561245
0.00218624
0.000221461
0.00216876
0.000397985
0.000514839
0.0021542
0.00049207
0.000489758
0.000499661
0.00225326
0.000531275
0.000358517
0.000256124
0.000173515
0.00228989
0.000378065
0.000378231
0.000326803
0.00033145
0.000335629
0.00231772
0.000306623
0.000357192
0.000379467
0.000382409
0.000573945
0.00043141
0.000319543
0.00244615
0.000277316
0.000400918
0.000478987
0.000483722
0.000353894
0.000395086
0.000440492
0.000237072
0.00243477
0.000293882
0.000583885
0.000400512
0.000541654
0.000343626
0.000341481
0.000348045
0.000505101
0.000612552
0.00209044
0.000405304
0.000438845
0.000407983
0.000789528
0.00052282
0.00062666
0.000478316
0.000650618
0.000556059
0.000685509
0.000707256
0.00240912
0.000601495
0.000308409
0.000452395
0.000782018
0.000350907
0.000439336
0.000330361
0.000473213
0.00031286
0.000633884
0.000837051
0.00135706
0.00245475
0.000558181
0.000438029
0.000456397
0.000449884
0.000852774
0.000463401
0.00092104
0.000911592
0.000604697
0.000649684
0.000790518
0.000800726
0.0009841
0.00240146
0.000493399
0.000620586
0.000437059
0.000565709
0.000599812
0.000745878
0.000948736
0.000691337
0.000929512
0.00087425
0.00105322
0.00121262
0.000764943
0.00124952
0.00241577
0.00118035
0.000682776
0.000346267
0.000592921
0.00102857
0.000371964
0.000675457
0.00086358
0.000849245
0.00104203
0.000361497
0.000978806
0.000853013
0.000462277
0.00159198
0.00302936
0.00150867
0.000848851
0.000829239
0.00176828
0.000808002
0.00067758
0.000608013
0.000380921
0.000665199
0.00102086
0.000657038
0.00102634
0.000730652
0.000764681
0.00185205
0.00232609
0.00208355
0.000900704
0.00128253
0.00124439
0.000820681
0.001631
0.00225727
0.00156288
0.00104434
0.000871175
0.000822737
0.00122496
0.00140325
0.00182791
0.000451358
0.000949181
0.000797928
0.00174412
0.00240721
0.000542415
0.00093373
0.00109008
0.000855027
0.000851024
0.000706209
0.000782882
0.00093128
0.000819608
0.000983941
0.00104684
0.00113305
0.00129893
0.00127334
0.00134255
0.00112065
0.00142376
0.00200129
0.00307473
0.000222359
0.000617737
0.000382421
0.000659878
0.00035955
0.000222925
0.000567467
0.000367193
0.000503146
0.000487503
0.000861715
0.000776284
0.000364503
0.000232605
0.000364269
0.000589477
0.000822828
0.000576128
0.00133976
0.00223631
0.000143852
0.000276734
0.0005684
0.000149922
0.000351014
0.000523641
0.000535694
0.000357412
0.000167282
0.000239333
0.000377673
0.000409168
0.000262501
0.000445983
0.000266192
0.000165547
0.000270587
0.000314613
0.000729086
0.00069869
0.000530194
0.000101206
0.00010661
0.000166615
0.000244184
0.00045377
8.88319e-05
0.000175851
0.000318909
9.70603e-05
0.000162779
0.000181395
0.000199687
0.000167516
0.000226491
7.43505e-05
6.13915e-05
0.00022449
0.000142165
0.000115339
0.000183059
0.000225003
0.000558441
0.00222917
0.000428235
0.00218138
0.000504488
0.000257255
0.00211744
0.000366047
0.000287062
0.000572889
0.00214201
0.000294667
0.000371083
0.000250897
0.000287195
0.00227519
0.000460642
0.000546959
0.000473777
0.000366827
0.000417727
0.00233972
0.000439028
0.000426639
0.000366821
0.000379342
0.000436713
0.000221094
0.00236179
0.000287159
0.000408903
0.000382831
0.000432489
0.000416517
0.00043223
0.000700918
0.000449797
0.00236792
0.000401141
0.000521858
0.000370887
0.000430557
0.000386052
0.000529104
0.000414376
0.000522026
0.000522895
0.00236363
0.000383505
0.000704082
0.000519042
0.000316961
0.000602038
0.000450018
0.000331612
0.000641253
0.000559144
0.000483163
0.0023199
0.000752014
0.000410232
0.00079083
0.000416898
0.000551076
0.000631416
0.000677652
0.00049303
0.000542042
0.000375159
0.000908087
0.000903748
0.00230675
0.000616818
0.000654587
0.000474343
0.000472622
0.000625477
0.000708824
0.000617068
0.000493365
0.000759422
0.000868777
0.00106154
0.00079942
0.000959882
0.00218344
0.000452643
0.000509471
0.000503165
0.000452099
0.000777331
0.00121225
0.000726011
0.000684976
0.000551279
0.000706673
0.000459793
0.000788699
0.000713004
0.000940152
0.00237277
0.000440937
0.000430923
0.000551379
0.000550326
0.000719181
0.000405548
0.000600852
0.00131858
0.00120706
0.000901233
0.000826805
0.000916651
0.00065017
0.000737284
0.000960885
0.00228812
0.00143832
0.000865569
0.000677368
0.000681258
0.000663872
0.00108584
0.000532539
0.000501892
0.00115842
0.000960921
0.000862661
0.00100952
0.000925705
0.000719142
0.000824238
0.00135905
0.00244284
0.00132653
0.000964853
0.00157159
0.00088589
0.00110925
0.000649819
0.000669467
0.000706083
0.000395448
0.0011373
0.00086364
0.0011066
0.000910496
0.000470732
0.000874495
0.00183074
0.00269107
0.00238286
0.000487326
0.00119419
0.00170153
0.00122767
0.00112047
0.00207152
0.00194684
0.0012188
0.000860174
0.000771559
0.000681796
0.00101755
0.00148337
0.000946324
0.000476397
0.000420736
0.000693617
0.00264117
0.00280604
0.000218105
0.000454842
0.000648792
0.00119767
0.000643634
0.000595078
0.00105974
0.000843391
0.000865807
0.000855036
0.00108483
0.00172571
0.00139498
0.00127047
0.00101179
0.00157249
0.00138687
0.00175273
0.00161724
0.00281025
0.000311976
0.000227566
0.000447894
0.000308725
0.00047771
0.000357725
8.61283e-05
0.000453818
0.000321158
0.000825512
0.000605728
0.000851589
0.00111507
0.000512283
0.000409381
0.000179102
0.000547913
0.000885997
0.000808285
0.000907831
0.00166512
0.000148155
0.00016594
0.000248627
0.00061289
0.000157412
0.000666985
0.000455802
0.000290698
0.000297254
0.000152033
0.000199918
0.000503271
0.000462709
0.000425934
0.000342619
0.000228469
0.000154016
0.000295924
0.000475366
0.000673005
0.000609307
0.000572671
0.000173479
0.000205764
0.000116781
0.000133429
0.000351993
0.000179381
0.000184175
0.000191711
0.000344799
9.34793e-05
0.000182555
0.000160229
0.000234172
0.000182388
0.000300997
0.00021906
9.26448e-05
0.000235556
0.000147101
8.40069e-05
0.000287175
0.000230009
0.000564867
0.00221235
0.000466967
0.00222833
0.000406994
0.000514423
0.00221605
0.00029514
0.000627622
0.000412735
0.00214834
0.000344957
0.000299601
0.000338031
0.000311499
0.00215864
0.000682952
0.000310805
0.000230291
0.000231634
0.000502174
0.00233347
0.000543042
0.000324512
0.000454222
0.000343278
0.000457964
0.000375659
0.00230161
0.000359995
0.000398466
0.000384434
0.000394076
0.000345659
0.000438175
0.000352262
0.00236351
0.00033798
0.0004587
0.000413657
0.000302915
0.000518033
0.000380427
0.000765127
0.000687269
0.000542385
0.00234036
0.000346741
0.000272836
0.000601973
0.000408746
0.000636263
0.000396453
0.000422236
0.000496267
0.000635616
0.000684632
0.00233365
0.000336864
0.000728287
0.000451438
0.000480183
0.000484369
0.000244227
0.000597613
0.000561661
0.000474244
0.000689239
0.00129623
0.00215738
0.000704334
0.000774535
0.000473602
0.00071878
0.0010629
0.0006853
0.000614614
0.00062042
0.000394464
0.000618906
0.00056929
0.000976383
0.000931649
0.00230015
0.000732795
0.000557344
0.000657437
0.000399494
0.000711141
0.000669414
0.000614778
0.00108388
0.000661988
0.000647025
0.000544733
0.000671978
0.000462095
0.000786568
0.00221331
0.000497376
0.000392365
0.000525923
0.000471089
0.000675621
0.000779477
0.000610727
0.00137347
0.000811369
0.000911395
0.000997417
0.00100221
0.000880701
0.000740947
0.000782829
0.00232925
0.000264544
0.00100347
0.000621711
0.000259689
0.00072411
0.000525044
0.000711355
0.00113065
0.00105891
0.000726886
0.00100281
0.000686877
0.000731036
0.000698415
0.000694679
0.000830039
0.00230066
0.000637581
0.000431702
0.000587372
0.00047013
0.000704653
0.000564327
0.000937393
0.000808909
0.000691487
0.000837152
0.00114541
0.000640575
0.000554543
0.00101609
0.000714721
0.000877904
0.00110604
0.00269412
0.000952018
0.000745671
0.00106979
0.000802304
0.000796154
0.00100042
0.000433796
0.00042678
0.000234729
0.000622933
0.000622553
0.00165947
0.000990439
0.000559792
0.0011815
0.000513143
0.00203198
0.00253708
0.00194887
0.000385923
0.000885658
0.000870863
0.0011269
0.00105651
0.00178682
0.00205652
0.00166526
0.0011121
0.000862058
0.000971153
0.000771784
0.00125348
0.000969292
0.00100704
0.000805604
0.000688651
0.000434608
0.00149464
0.00280299
0.000431749
0.000322086
0.00137008
0.000532843
0.00112223
0.000635801
0.000342865
0.000683999
0.000857932
0.000706222
0.000809088
0.0010606
0.00206818
0.00142955
0.00143989
0.00087714
0.00160186
0.00169569
0.001657
0.0013395
0.00234906
0.000254112
0.000249578
0.000220858
0.000318856
0.000471913
0.000506222
0.000339428
0.000260966
0.000575592
0.000350448
0.000249285
0.000698367
0.000937075
0.000874856
0.000423169
0.000536418
0.000152577
0.000589405
0.00104599
0.000912287
0.000887137
0.00168779
0.000238781
0.000131337
0.000147906
0.000190123
0.000560998
0.000349026
0.000672298
0.000183209
0.000463737
0.000135961
0.000106282
0.000225009
0.000444898
0.000579094
0.000318219
0.000299532
0.000223399
0.000213512
0.00034471
0.000487546
0.000599214
0.000683515
0.000665739
0.000226897
0.000108613
0.000252075
0.000129759
0.0002163
0.000432933
0.000328651
0.000147992
0.000144285
0.000418284
0.000187985
0.000170217
0.00012263
0.000377026
0.000347418
0.000421207
0.00016949
0.000111515
5.50992e-05
0.000410848
7.69213e-05
0.000193186
0.000158269
0.000539668
0.00212081
0.000455103
0.00219088
0.000368675
0.000385257
0.00227634
0.000398102
0.000377989
0.000557115
0.00220068
0.00046842
0.000340585
0.000625665
0.000766051
0.00222879
0.000392045
0.000282636
0.000339926
0.00037803
0.000367763
0.00225375
0.000167829
0.000431231
0.000370978
0.000350394
0.000360201
0.000436899
0.00237513
0.000231266
0.000370334
0.000364411
0.000376713
0.000384178
0.000541398
0.000501014
0.00237489
0.000592666
0.000419895
0.000358792
0.00056191
0.00057635
0.000620852
0.000809313
0.000617983
0.00236757
0.000555264
0.000467078
0.000426273
0.000570613
0.000549971
0.000275171
0.000437304