/*--------------------------------*- C++ -*----------------------------------*\
  =========                 |
  \\      /  F ield         | OpenFOAM: The Open Source CFD Toolbox
   \\    /   O peration     | Website:  https://openfoam.org
    \\  /    A nd           | Version:  7
     \\/     M anipulation  |
\*---------------------------------------------------------------------------*/
FoamFile
{
    version     2.0;
    format      ascii;
    class       volScalarField;
    location    "6";
    object      p;
}
// * * * * * * * * * * * * * * * * * * * * * * * * * * * * * * * * * * * * * //

dimensions      [0 2 -2 0 0 0 0];

internalField   nonuniform List<scalar> 
18750
(
-78.8762
-79.1389
-79.064
-78.9683
-77.3091
-79.0535
-79.0157
-81.9658
-79.8233
-79.1467
-76.1258
-69.5794
-76.6068
-81.855
-79.0993
-79.012
-82.8125
-82.1783
-80.8262
-79.4509
-74.3788
-74.1887
-75.468
-80.1503
-56.0236
-75.976
-82.5343
-81.9158
-79.4065
-79.0866
-82.6934
-82.8097
-82.3566
-81.7715
-79.9144
-74.1217
-76.0358
-74.2373
-78.4847
-74.7654
-74.9245
-81.975
-79.8474
-66.4701
-75.5894
-81.8762
-82.4891
-82.0402
-79.9292
-79.2247
-82.2698
-82.6932
-82.8182
-82.5075
-82.489
-80.3892
-71.7533
-74.1468
-73.766
-78.3096
-75.99
-74.4109
-81.0715
-78.1719
-75.4319
-74.5755
-81.1248
-81.5259
-80.0485
-68.5814
-75.5852
-81.335
-81.9168
-82.4473
-82.2002
-80.5852
-79.4201
-82.872
-82.2896
-82.6954
-82.8348
-82.6561
-82.9639
-80.9495
-70.1734
-72.0558
-71.6786
-74.476
-74.2478
-73.6533
-79.4492
-77.7864
-75.9602
-74.7172
-81.7169
-80.5729
-78.3751
-76.0374
-74.573
-80.2762
-81.058
-81.268
-80.6536
-73.1607
-75.8772
-81.6824
-81.4082
-81.9485
-82.4284
-82.3971
-81.3631
-79.7372
-83.6205
-82.8907
-82.31
-82.7001
-82.8393
-82.7247
-83.2392
-81.4201
-69.3121
-70.5653
-70.0824
-72.3539
-72.192
-71.6542
-74.6953
-74.5964
-74.3063
-73.7269
-80.0368
-79.0786
-77.485
-76.0767
-74.8869
-81.4155
-81.1403
-80.2222
-78.749
-76.2294
-75.0948
-80.5861
-80.2653
-80.9816
-81.2171
-81.3445
-76.1699
-76.4234
-81.9366
-81.8125
-81.4834
-81.9617
-82.437
-82.649
-82.1335
-80.1627
-83.3344
-83.6774
-82.9189
-82.3356
-82.7067
-82.8464
-82.6809
-83.4235
-81.7767
-68.2282
-69.2283
-69.3919
-70.4935
-70.4353
-70.2143
-72.4723
-72.3757
-72.2026
-71.6628
-75.494
-74.9124
-74.3248
-74.0579
-73.7665
-80.3107
-79.9219
-79.0523
-77.5072
-76.26
-75.0407
-80.93
-81.0528
-80.7643
-80.2357
-79.3687
-76.2038
-75.4984
-80.9993
-80.638
-80.2752
-80.914
-81.2155
-82.04
-78.1482
-77.1777
-81.9198
-81.9706
-81.9434
-81.5565
-81.9833
-82.4788
-82.8821
-82.7442
-80.6274
-83.1595
-83.4132
-83.6996
-82.9484
-82.3483
-82.7131
-82.8635
-82.6143
-83.5395
-82.0347
-67.6418
-68.2396
-68.273
-69.3497
-69.2944
-69.2121
-70.5338
-70.6511
-70.6061
-70.2851
-72.8557
-72.6489
-72.4002
-72.132
-71.6469
-76.451
-75.3526
-75.1785
-74.6158
-74.2063
-73.6348
-80.8471
-79.7837
-79.5502
-78.7394
-77.6236
-76.8957
-74.7542
-80.7034
-80.9618
-80.7834
-80.354
-80.2002
-80.0637
-76.8498
-75.9311
-81.4456
-81.1323
-80.6919
-80.3146
-80.8746
-81.242
-82.5521
-80.3469
-78.1297
-81.959
-81.9878
-82.0149
-82.0939
-81.624
-82.0287
-82.5509
-82.9542
-83.0662
-81.0725
-82.6007
-83.183
-83.444
-83.7262
-82.9771
-82.3769
-82.7202
-82.883
-82.5416
-83.4837
-82.1908
-67.5424
-67.6126
-68.2747
-68.3025
-68.3771
-69.4522
-69.2472
-69.3334
-69.2271
-70.867
-70.7478
-70.825
-70.6388
-70.2344
-73.073
-72.8333
-72.6527
-72.4249
-71.9491
-71.609
-77.2503
-76.258
-75.2304
-75.3901
-75.1174
-74.6434
-73.8724
-80.5034
-80.7133
-79.3173
-79.1737
-78.6491
-77.9996
-77.7173
-75.1954
-80.4837
-80.7859
-80.9419
-80.5957
-80.0959
-80.0174
-80.6392
-78.3567
-76.6587
-81.4329
-81.5065
-81.2517
-80.8149
-80.3863
-80.8664
-81.3491
-82.7012
-81.5624
-79.395
-81.827
-81.9983
-82.0727
-82.0945
-82.2443
-81.7007
-82.0876
-82.6176
-82.9232
-83.205
-81.4366
-82.6201
-82.644
-83.2282
-83.4837
-83.7635
-83.0087
-82.4045
-82.7275
-82.9146
-82.505
-83.4312
-82.2829
-66.8847
-67.6844
-67.5289
-67.6962
-68.3526
-68.309
-68.3679
-68.3405
-69.5566
-69.5302
-69.3251
-69.4408
-69.1086
-71.187
-70.994
-70.7007
-70.8223
-70.5465
-70.4116
-73.5756
-73.0379
-72.7972
-72.7214
-72.4368
-72.0158
-71.4997
-77.1715
-77.0744
-76.1422
-75.323
-75.3067
-75.3824
-74.7661
-73.9776
-80.3047
-80.4488
-80.5074
-79.0565
-79.0307
-78.9814
-78.774
-78.571
-76.144
-80.4867
-80.5762
-80.8951
-80.9177
-80.4802
-80.1087
-80.2877
-81.0556
-80.1747
-78.0314
-80.4786
-81.5174
-81.5646
-81.372
-80.9967
-80.4841
-80.8831
-81.456
-82.8707
-82.4137
-80.7043
-81.8768
-81.8267
-82.0319
-82.1746
-82.1789
-82.3901
-81.791
-82.1569
-82.6881
-82.9358
-83.2164
-81.6764
-82.6747
-82.6331
-82.6809
-83.3042
-83.5566
-83.7923
-83.0406
-82.4329
-82.7332
-82.9497
-82.5218
-83.4299
-82.3887
-66.5646
-66.9597
-66.8996
-67.6259
-67.6392
-67.6535
-67.644
-68.577
-68.3592
-68.3365
-68.4623
-68.2424
-69.8046
-69.7513
-69.5504
-69.3239
-69.3917
-69.0862
-71.6393
-71.383
-71.0184
-70.8939
-70.7669
-70.5121
-70.365
-73.7641
-73.5826
-73.1753
-72.9879
-72.7552
-72.3289
-72.0001
-71.9645
-76.8734
-77.1153
-77.0081
-76.0546
-75.4927
-75.6697
-75.6977
-75.0834
-74.549
-80.2376
-80.2866
-80.5099
-80.3578
-78.859
-78.7531
-79.4337
-80.0786
-80.0008
-76.7399
-79.6851
-80.7703
-80.5836
-81.0662
-80.856
-80.4629
-80.1667
-80.6638
-81.6151
-82.0692
-79.5805
-79.9446
-80.5829
-81.5998
-81.6388
-81.4839
-81.2437
-80.5996
-80.9346
-81.5839
-82.9922
-83.447
-81.6834
-82.049
-81.8469
-81.8237
-82.0977
-82.2779
-82.286
-82.5288
-81.8928
-82.2309
-82.7919
-82.9641
-83.1453
-81.8101
-82.508
-82.641
-82.6581
-82.7023
-83.3803
-83.6025
-83.8106
-83.0744
-82.4722
-82.7387
-82.9823
-82.5312
-83.3222
-82.489
-66.1711
-66.5988
-66.5259
-67.0857
-66.9392
-66.9138
-67.7534
-67.6468
-67.6184
-67.6872
-67.5136
-68.6263
-68.58
-68.3787
-68.4211
-68.3925
-68.1839
-69.9976
-69.6843
-69.7678
-69.4327
-69.2679
-69.3841
-69.1738
-71.9619
-71.6356
-71.4121
-71.1245
-70.9256
-70.7021
-70.5585
-70.3215
-74.0925
-74.0574
-73.8544
-73.4987
-73.1379
-72.7965
-72.4677
-71.7671
-72.2413
-77.024
-76.9759
-77.1362
-76.8604
-76.0208
-75.6875
-76.0524
-75.9461
-75.4609
-74.7127
-78.504
-80.5565
-80.4011
-80.6398
-80.0935
-78.7064
-79.1333
-80.1528
-80.9256
-81.0665
-76.9353
-78.7776
-79.9349
-80.875
-80.6239
-81.2382
-80.8433
-80.5666
-80.397
-81.1409
-82.6076
-84.2607
-81.0712
-80.8726
-79.908
-80.7597
-81.6571
-81.7059
-81.6088
-81.5399
-80.7774
-81.0403
-81.6927
-82.7958
-84.1618
-82.4697
-82.2406
-82.0011
-81.8274
-81.8395
-82.1707
-82.3775
-82.3779
-82.6729
-82.0038
-82.3054
-82.9009
-82.9622
-83.0992
-81.8909
-83.0424
-82.4368
-82.6169
-82.6577
-82.7316
-83.4296
-83.5977
-83.8239
-83.1074
-82.5223
-82.7425
-83.0099
-82.5587
-83.2385
-82.5702
-66.1496
-66.1107
-66.6125
-66.5772
-66.5304
-67.0509
-67.0128
-66.9658
-66.8988
-67.7281
-67.6654
-67.6245
-67.7182
-67.5835
-67.4187
-69.0065
-68.6635
-68.5863
-68.4047
-68.3811
-68.3515
-68.2048
-70.1245
-70.0456
-69.8364
-69.4517
-69.4147
-69.1946
-69.3096
-69.1791
-72.1724
-72.0361
-71.6778
-71.4637
-71.3121
-70.9531
-70.7357
-70.3512
-70.4189
-74.164
-74.1855
-74.3417
-73.9612
-73.5199
-73.2817
-72.9125
-72.0396
-71.1707
-72.2959
-76.2631
-76.9638
-77.0751
-77.0867
-77.014
-76.3047
-75.9806
-76.3491
-76.3495
-76.1124
-74.1444
-77.4267
-78.5358
-80.6872
-80.3852
-80.6039
-80.1787
-78.8193
-79.7467
-80.9635
-81.5436
-82.519
-76.9564
-79.5863
-78.8176
-80.2267
-81.0747
-80.7071
-81.4731
-80.9454
-80.735
-80.7419
-81.764
-83.744
-86.7268
-82.4409
-81.2225
-80.7997
-79.9587
-80.8588
-81.6971
-81.7936
-81.7567
-81.7649
-80.9789
-81.1775
-81.7944
-82.6342
-84.4535
-82.2769
-82.6638
-82.1516
-81.9815
-81.8185
-81.87
-82.1857
-82.4903
-82.5099
-82.8061
-82.131
-82.3918
-83.0125
-83.0189
-83.0621
-81.9256
-83.4
-82.9924
-82.3566
-82.5961
-82.6539
-82.7921
-83.4686
-83.6236
-83.8428
-83.1393
-82.5699
-82.7472
-83.0464
-82.6055
-83.2426
-82.6453
-65.7931
-66.1612
-66.1286
-66.1043
-66.6111
-66.5568
-66.4891
-66.4638
-67.0074
-67.0271
-67.0369
-66.9706
-66.8495
-67.9502
-67.743
-67.7238
-67.5414
-67.596
-67.537
-67.4224
-69.1198
-68.967
-68.6988
-68.5251
-68.4064
-68.3341
-68.2994
-68.2013
-70.4818
-70.3145
-70.0155
-69.7587
-69.5762
-69.4189
-69.1474
-69.2301
-68.9466
-72.3214
-72.2132
-72.0356
-71.7719
-71.5401
-71.2436
-70.9318
-70.5645
-70.0397
-70.608
-74.216
-74.3585
-74.1829
-74.4193
-74.2882
-73.6963
-73.4352
-72.9829
-72.0877
-71.7193
-71.9916
-75.9987
-76.4147
-77.1191
-77.2496
-77.1783
-77.2668
-76.5577
-76.5469
-76.7894
-76.5007
-77.0018
-73.5921
-79.1378
-77.0287
-78.8668
-80.7308
-80.4267
-80.7424
-80.6745
-79.1672
-80.3677
-81.7013
-82.4381
-84.4297
-76.4116
-79.863
-79.3706
-78.8975
-80.5238
-81.3245
-80.7818
-81.6912
-81.1267
-81.0507
-81.2122
-82.5836
-84.4159
-87.3871
-83.0921
-81.9146
-81.1524
-80.6348
-80.1171
-80.9157
-81.6866
-81.9548
-82.0533
-82.0493
-81.1953
-81.3271
-81.919
-82.5909
-84.6027
-81.827
-83.0268
-82.5384
-82.0803
-81.9682
-81.8267
-81.8904
-82.3086
-82.5792
-82.6549
-82.9387
-82.2775
-82.488
-83.11
-83.1164
-83.07
-81.9261
-83.2495
-83.3377
-82.9352
-82.2837
-82.581
-82.6576
-82.8846
-83.5056
-83.6716
-83.8683
-83.1719
-82.5976
-82.7532
-83.087
-82.6413
-83.1879
-82.6253
-65.4954
-65.6977
-65.7511
-66.1439
-66.0958
-66.1435
-66.0532
-66.5881
-66.5417
-66.4929
-66.4601
-66.4128
-67.1151
-67.062
-67.0164
-67.0413
-66.9013
-66.8855
-68.1581
-67.9222
-67.726
-67.688
-67.5555
-67.5223
-67.45
-67.212
-69.4019
-69.0803
-68.9693
-68.6732
-68.5412
-68.416
-68.1354
-68.1494
-68.1558
-70.6875
-70.5514
-70.3536
-69.957
-69.6729
-69.5942
-69.3783
-69.1882
-69.1259
-68.9355
-72.4421
-72.4402
-72.1655
-71.9518
-71.7489
-71.4892
-71.1932
-70.7884
-70.1799
-70.178
-70.6326
-74.3427
-74.3657
-74.3828
-74.4568
-74.7897
-74.5562
-73.9107
-73.4
-73.0675
-72.5571
-72.1979
-71.4922
-77.4621
-75.7753
-76.4045
-77.1917
-77.4492
-77.5694
-77.4102
-76.8181
-77.0595
-77.1821
-76.1689
-76.5571
-73.2617
-79.6349
-78.6246
-76.9411
-79.4817
-80.7427
-80.5272
-81.1795
-80.4731
-79.568
-81.0734
-81.7933
-83.0666
-85.7024
-76.6525
-80.4641
-79.972
-79.1754
-78.9516
-80.8239
-81.4898
-80.8892
-81.9034
-81.3946
-81.4187
-81.8505
-83.1563
-84.8426
-87.4579
-83.1494
-82.2971
-81.808
-81.0592
-80.5241
-80.2115
-80.9941
-81.6347
-82.0763
-82.2921
-82.3716
-81.428
-81.4667
-82.022
-82.6659
-83.9719
-81.7209
-83.3011
-82.896
-82.4164
-82.0066
-81.9583
-81.8236
-81.8707
-82.4628
-82.696
-82.7522
-83.0209
-82.4436
-82.6038
-83.187
-83.1753
-83.1282
-81.88
-83.6315
-83.1536
-83.2744
-82.8656
-82.2882
-82.5717
-82.6733
-82.9486
-83.5494
-83.7024
-83.889
-83.2044
-82.6097
-82.7596
-83.1114
-82.6612
-83.0548
-82.6121
-65.2444
-65.552
-65.4495
-65.8025
-65.6817
-65.7155
-66.1505
-66.1741
-66.0794
-66.0037
-65.9756
-66.6139
-66.6177
-66.5059
-66.5012
-66.4279
-66.421
-67.2574
-67.1262
-67.1171
-67.0077
-66.9086
-66.9475
-66.8366
-68.2628
-68.0214
-67.9377
-67.8032
-67.6495
-67.602
-67.4046
-67.2701
-67.1658
-69.5331
-69.2527
-69.1325
-68.8811
-68.5543
-68.5152
-68.295
-68.1609
-68.1495
-68.0465
-70.8634
-70.7621
-70.5635
-70.2668
-70.0221
-69.799
-69.6496
-69.2297
-68.9718
-69.0705
-69.1049
-72.5529
-72.4719
-72.4636
-72.2136
-72.1347
-71.657
-71.4061
-71.1088
-70.7517
-70.3409
-70.4561
-70.6497
-74.6824
-74.4383
-74.4971
-74.5515
-74.884
-74.8492
-73.477
-74.0324
-73.5174
-72.8559
-72.9911
-71.5715
-71.133
-78.2814
-76.9773
-75.836
-76.5334
-77.3255
-77.6975
-77.7256
-77.5303
-77.1584
-77.1617
-77.2804
-76.4086
-76.8127
-73.1851
-79.2064
-79.6543
-78.0152
-77.4008
-79.7949
-80.8196
-81.0914
-81.2734
-80.6411
-79.9016
-81.6242
-82.2508
-83.496
-84.8138
-76.4423
-80.9435
-80.3415
-80.0039
-79.1108
-79.0303
-81.1517
-81.7043
-81.0372
-82.0808
-81.7838
-82.0191
-82.578
-83.4016
-85.0965
-86.9804
-82.8116
-82.7389
-82.1327
-81.7045
-80.9837
-80.4993
-80.2832
-81.0597
-81.6273
-82.1938
-82.4878
-82.5366
-81.6433
-81.6028
-82.1398
-82.8016
-82.9384
-81.6015
-83.8883
-83.1445
-82.7612
-82.3032
-81.9756
-81.947
-81.8234
-81.8922
-82.5242
-82.8325
-82.9463
-83.1004
-82.6261
-82.7196
-83.2472
-83.1896
-83.1468
-81.7051
-84.0177
-83.5695
-83.0757
-83.1944
-82.7841
-82.2727
-82.567
-82.713
-82.9836
-83.5913
-83.6793
-83.9059
-83.235
-82.6196
-82.769
-83.1293
-82.6702
-83.0169
-82.7315
-65.0679
-65.245
-65.1717
-65.4811
-65.4638
-65.4755
-65.7803
-65.7318
-65.7317
-65.6849
-66.2146
-66.1801
-66.0804
-66.0542
-66.0469
-65.97
-66.7281
-66.6428
-66.5593
-66.5476
-66.4969
-66.4567
-66.4026
-67.3751
-67.2358
-67.1267
-67.0805
-66.9542
-66.8424
-66.8349
-66.5575
-68.495
-68.2262
-68.0334
-67.8728
-67.7492
-67.6429
-67.5552
-67.2998
-67.2396
-67.2966
-69.702
-69.4503
-69.1919
-69.0695
-68.7292
-68.591
-68.4974
-68.2771
-68.1738
-68.0407
-67.9932
-71.0034
-70.9843
-70.8704
-70.5359
-70.3244
-70.0235
-69.8519
-69.5607
-69.2032
-68.7877
-69.133
-69.1536
-72.8559
-72.6324
-72.5549
-72.4066
-72.2977
-72.0011
-71.7213
-71.5192
-71.0461
-70.7896
-70.5841
-70.3815
-70.8869
-75.1958
-74.714
-74.5316
-74.6419
-74.6958
-75.0805
-74.2084
-74.1733
-73.9984
-73.6493
-72.8954
-72.8384
-71.3345
-70.4005
-77.8069
-78.251
-76.9692
-76.2117
-76.7548
-77.3703
-77.6645
-77.7997
-77.5125
-77.1775
-77.4723
-77.2223
-76.3988
-76.6859
-73.1888
-79.6009
-79.1967
-79.4585
-77.6335
-77.7842
-80.1739
-81.2038
-81.1498
-81.3348
-80.6785
-80.4516
-82.0121
-82.5566
-84.0348
-84.7726
-76.6036
-81.4623
-80.7358
-80.1964
-79.5553
-79.1077
-79.3023
-81.5382
-81.9041
-81.2154
-82.089
-82.2422
-82.8132
-83.1426
-83.5668
-85.3271
-85.8097
-82.0284
-83.656
-82.5989
-81.9707
-81.5961
-80.9658
-80.5447
-80.4312
-81.106
-81.6996
-82.3503
-82.8303
-82.7104
-81.7829
-81.757
-82.2598
-83.0204
-81.9987
-81.4317
-84.3482
-83.7942
-83.0066
-82.6373
-82.2026
-81.9894
-81.9583
-81.8384
-81.9079
-82.6027
-82.9756
-83.1861
-83.2021
-82.7894
-82.817
-83.2802
-83.1802
-83.0917
-81.5846
-84.105
-83.9406
-83.5155
-83.0191
-83.1073
-82.7068
-82.2429
-82.5641
-82.7363
-83.0207
-83.6239
-83.6599
-83.9303
-83.2663
-82.6294
-82.7422
-83.1434
-82.6836
-82.9571
-82.9006
-64.878
-65.0639
-65.0267
-65.2172
-65.2632
-65.1852
-65.4736
-65.4675
-65.4745
-65.4241
-65.7558
-65.7497
-65.7299
-65.6946
-65.6642
-66.3313
-66.2188
-66.1225
-66.0333
-66.0233
-66.0063
-65.9628
-66.8476
-66.6836
-66.6054
-66.5496
-66.5226
-66.459
-66.4173
-66.3888
-67.5187
-67.3753
-67.2462
-67.126
-67.0101
-66.9397
-66.7725
-66.6627
-66.6017
-68.6723
-68.3984
-68.1593
-68.0558
-67.7313
-67.7013
-67.6139
-67.4496
-67.2535
-67.3178
-67.2206
-69.8578
-69.6862
-69.497
-69.2362
-68.8965
-68.7714
-68.6752
-68.5531
-68.2936
-68.0401
-67.884
-67.9355
-71.3213
-71.1294
-71.1163
-70.8721
-70.5551
-70.3065
-69.9636
-69.7995
-69.4376
-69.1215
-69.062
-69.3661
-69.3516
-73.29
-72.8598
-72.6619
-72.5409
-72.4373
-72.4981
-71.9911
-71.7801
-71.511
-71.431
-70.7498
-70.7284
-70.3586
-70.7466
-75.662
-75.3505
-74.9863
-74.5216
-74.7822
-74.9118
-74.2815
-74.5082
-74.2166
-74.1442
-73.4323
-73.0997
-72.6058
-71.6075
-70.121
-77.9827
-77.8813
-77.9718
-76.7501
-76.5259
-76.9928
-77.35
-77.5528
-77.8942
-77.7722
-77.4923
-77.6227
-77.1204
-76.395
-76.3121
-74.5177
-80.045
-79.3589
-79.2604
-78.9627
-77.5517
-78.064
-80.9012
-81.5905
-81.2957
-81.1729
-80.93
-80.9269
-82.5515
-82.8843
-84.3589
-83.5667
-77.2298
-82.5751
-81.0513
-80.5191
-80.0291
-79.2846
-79.1488
-79.7125
-81.8419
-81.9455
-81.4272
-82.1798
-82.7537
-83.6811
-83.5916
-83.5951
-85.1694
-84.6799
-80.8836
-84.768
-83.5171
-82.5101
-81.8044
-81.4848
-80.9333
-80.6007
-80.5742
-81.1485
-81.6743
-82.4597
-83.1452
-83.074
-81.9314
-81.9298
-82.4027
-83.4105
-81.9014
-81.0086
-84.8019
-84.2813
-83.7297
-82.8874
-82.518
-82.11
-81.9994
-81.9779
-81.8555
-81.9264
-82.7134
-83.0914
-83.3271
-83.3103
-82.9177
-82.8944
-83.305
-83.157
-82.9852
-81.5111
-83.7085
-84.0382
-83.869
-83.4236
-82.9565
-83.0226
-82.632
-82.2112
-82.5656
-82.7406
-83.0869
-83.661
-83.6686
-83.9455
-83.2907
-82.6432
-82.7015
-83.1355
-82.7005
-82.8066
-83.056
-64.7431
-64.9014
-64.8563
-65.1107
-65.0021
-64.9898
-65.2435
-65.2192
-65.2268
-65.1712
-65.4888
-65.502
-65.4629
-65.4551
-65.3756
-65.843
-65.8268
-65.7101
-65.6742
-65.6862
-65.6649
-66.4426
-66.2669
-66.1709
-66.0702
-66.0273
-66.0152
-65.9785
-65.8817
-66.9672
-66.799
-66.6895
-66.5788
-66.521
-66.4937
-66.3539
-66.3817
-66.237
-67.746
-67.4594
-67.3523
-67.1277
-67.0613
-66.9877
-66.9287
-66.7896
-66.7514
-66.8614
-68.853
-68.5877
-68.4026
-68.1511
-67.9704
-67.815
-67.7056
-67.5937
-67.3998
-67.2067
-67.1214
-67.0868
-70.0986
-69.8994
-69.7295
-69.3988
-69.1907
-68.8867
-68.7196
-68.5436
-68.4824
-68.1446
-68.0136
-68.024
-68.0019
-71.6951
-71.4305
-71.2697
-71.0481
-70.75
-70.4474
-70.1048
-69.9581
-69.7874
-69.3557
-69.2502
-69.2535
-69.1626
-69.563
-73.6399
-73.4016
-73.0185
-72.7342
-72.8094
-72.8978
-72.4681
-72.0381
-71.854
-71.4752
-71.1618
-70.9372
-70.7277
-70.5108
-70.5383
-75.9552
-75.6776
-75.3799
-75.2763
-74.6877
-74.8801
-74.7025
-74.8309
-74.6955
-74.0661
-73.9509
-73.5283
-73.3112
-72.4743
-70.9446
-71.0464
-77.9986
-77.972
-78.226
-77.6653
-76.4705
-76.7506
-77.1619
-77.3024
-77.5522
-78.0241
-78.0404
-77.9241
-77.9763
-77.1804
-76.7094
-75.736
-75.1562
-81.3055
-79.84
-79.1868
-79.2374
-78.6768
-77.7368
-78.5342
-81.4594
-81.8717
-81.269
-81.2313
-81.2781
-81.6103
-82.9659
-83.1701
-84.3499
-82.0204
-77.383
-83.8128
-82.3113
-80.6738
-80.3779
-79.9584
-79.2199
-79.258
-80.225
-81.9584
-81.9293
-81.5953
-82.2552
-83.3295
-84.6145
-83.7719
-83.5305
-84.5354
-83.5777
-79.7926
-85.1667
-84.5063
-83.3694
-82.3432
-81.6615
-81.3834
-80.9151
-80.6707
-80.6209
-81.1741
-81.605
-82.6046
-83.3437
-83.5011
-82.1461
-82.1046
-82.6029
-83.701
-82.248
-80.9864
-84.5412
-84.704
-84.2013
-83.644
-82.7519
-82.4012
-82.0391
-82.0232
-82.0021
-81.8731
-81.966
-82.8331
-83.216
-83.462
-83.4094
-83.0333
-82.9541
-83.3252
-83.1291
-82.8502
-81.4528
-83.5371
-83.6914
-83.994
-83.8061
-83.3302
-82.8636
-82.9535
-82.5391
-82.1743
-82.5725
-82.7469
-83.1597
-83.7119
-83.6871
-83.9401
-83.3208
-82.6542
-82.703
-83.1309
-82.7055
-82.762
-83.22
-64.6029
-64.7409
-64.7074
-64.9056
-64.8689
-64.8409
-65.0954
-65.049
-64.9968
-64.9838
-65.2996
-65.2329
-65.2246
-65.1909
-65.1392
-65.5565
-65.4848
-65.4587
-65.4275
-65.3848
-65.3484
-65.9325
-65.8301
-65.7685
-65.6594
-65.6256
-65.6781
-65.622
-66.5421
-66.365
-66.2503
-66.0986
-66.0353
-66.0337
-65.9475
-65.9417
-65.8925
-67.1309
-66.8718
-66.7488
-66.6755
-66.5888
-66.4542
-66.4269
-66.3918
-66.3775
-66.2702
-67.8131
-67.6526
-67.4088
-67.2884
-67.0693
-67.0419
-66.9327
-66.8468
-66.76
-66.7303
-66.771
-68.874
-68.9073
-68.4886
-68.3438
-68.0833
-67.9189
-67.8537
-67.6854
-67.5392
-67.388
-67.0882
-66.8383
-67.2686
-70.2811
-70.129
-69.8359
-69.7556
-69.5321
-69.0824
-68.7977
-68.684
-68.5757
-68.0635
-68.0624
-67.9584
-68.0892
-67.997
-72.0974
-71.7782
-71.5922
-71.2371
-71.1887
-70.7373
-70.5204
-70.0982
-69.8838
-69.5421
-69.553
-69.305
-69.2711
-69.1774
-69.5696
-73.7614
-73.7548
-73.4887
-73.111
-72.8762
-72.8985
-72.783
-72.5449
-72.2599
-71.8646
-71.6411
-71.2036
-70.8684
-70.7284
-70.6064
-70.6381
-76.3931
-76.255
-75.7189
-75.3349
-75.3491
-74.8089
-74.9516
-75.1659
-75.0283
-74.9442
-74.5624
-73.8201
-73.5443
-73.345
-72.1863
-71.4895
-71.4772
-78.5431
-78.45
-77.7082
-78.276
-77.4876
-76.6572
-77.0233
-77.357
-77.4431
-77.9035
-78.1275
-78.2363
-78.2935
-78.2886
-77.3609
-76.4268
-75.1857
-74.8699
-82.8057
-80.9118
-79.7143
-79.1867
-79.1645
-78.3703
-78.007
-79.1483
-81.7376
-81.9413
-81.4063
-81.608
-81.5325
-82.229
-83.1607
-83.3439
-83.7759
-80.6793
-77.1863
-84.9289
-83.5184
-82.1505
-80.3505
-80.2533
-80.0674
-79.2014
-79.4015
-80.6612
-82.0208
-81.9279
-81.6152
-82.3168
-83.7984
-85.5013
-83.6773
-83.4135
-84.003
-82.6452
-79.309
-84.9127
-85.0537
-84.2926
-83.2041
-82.1597
-81.5245
-81.3163
-80.9045
-80.7451
-80.6606
-81.1534
-81.5859
-82.8177
-83.5447
-83.7062
-82.3272
-82.2981
-82.8956
-83.6944
-82.5827
-81.0659
-84.4067
-84.4828
-84.6062
-84.1097
-83.536
-82.6068
-82.2948
-81.9967
-82.0536
-82.0321
-81.8934
-82.002
-82.9539
-83.3378
-83.5533
-83.4943
-83.1227
-82.9973
-83.2992
-83.0954
-82.7392
-81.4102
-83.0022
-83.5309
-83.6743
-83.9547
-83.7451
-83.2442
-82.756
-82.9033
-82.4563
-82.1317
-82.578
-82.7688
-83.2391
-83.7775
-83.7183
-83.9542
-83.3496
-82.6625
-82.6874
-83.1377
-82.7239
-82.7955
-83.3895
-64.4437
-64.6048
-64.6042
-64.7653
-64.7429
-64.6773
-64.9386
-64.8644
-64.813
-64.7946
-65.0883
-65.0764
-65.0422
-64.9994
-64.9542
-65.3045
-65.236
-65.1928
-65.1884
-65.1418
-65.0912
-65.674
-65.5331
-65.471
-65.4096
-65.377
-65.3717
-65.3253
-66.0301
-65.896
-65.8009
-65.6698
-65.6649
-65.6002
-65.6372
-65.6097
-66.6223
-66.4495
-66.2984
-66.2004
-66.0672
-66.0448
-65.8909
-65.837
-65.9472
-65.9064
-67.1862
-67.1042
-66.8267
-66.6985
-66.514
-66.5215
-66.4495
-66.382
-66.3706
-66.2963
-66.2582
-68.0294
-67.7445
-67.6061
-67.3891
-67.2326
-67.1084
-66.9968
-66.8926
-66.8085
-66.7382
-66.5708
-66.7697
-69.1759
-68.7899
-68.7733
-68.6044
-68.2092
-68.0102
-67.9198
-67.8
-67.6154
-67.4738
-67.322
-67.1501
-67.3292
-67.3515
-70.573
-70.3588
-70.1073
-69.9859
-69.5877
-69.1216
-68.9234
-68.7971
-68.6869
-68.501
-68.3357
-68.0559
-68.1819
-67.9676
-67.9617
-72.2549
-72.23
-71.8945
-71.6874
-71.3097
-71.4398
-71.0473
-70.3224
-70.0828
-69.9486
-69.5998
-69.469
-69.2629
-69.2897
-69.4159
-69.6279
-74.658
-73.7632
-73.9131
-73.61
-73.2921
-73.0028
-73.1632
-72.8987
-72.7574
-72.4762
-71.9281
-71.6442
-71.1022
-70.934
-70.6968
-70.8403
-70.6236
-76.7091
-76.3966
-76.2255
-75.8764
-75.6593
-75.4047
-75.0506
-75.2664
-75.2635
-75.3342
-75.103
-74.4416
-73.9302
-73.6441
-73.1504
-72.3897
-71.5765
-71.9271
-79.8676
-78.3694
-78.0092
-77.8617
-78.3523
-77.3142
-76.8348
-77.2884
-77.5451
-77.7431
-78.095
-78.485
-78.5972
-78.7288
-78.208
-77.3356
-76.1615
-75.4364
-74.656
-84.0559
-82.1556
-80.5095
-79.6243
-79.2649
-78.9988
-77.8637
-78.2988
-79.8931
-82.0586
-82.1384
-81.7558
-81.3259
-82.0138
-82.8265
-82.9587
-83.1537
-82.8818
-80.2002
-76.9855
-84.9941
-84.6807
-83.2063
-81.8024
-80.1559
-80.1335
-79.8929
-79.1919
-79.6066
-81.0277
-82.0849
-81.9612
-81.4919
-82.6114
-84.1965
-85.8369
-83.5721
-83.0358
-83.3535
-81.6979
-78.8469
-85.2802
-84.8293
-84.9287
-84.0823
-83.0452
-81.9771
-81.391
-81.2283
-80.9143
-80.826
-80.7572
-81.1102
-81.5739
-83.0274
-83.7601
-83.7141
-82.4709
-82.5137
-83.2489
-83.5858
-82.8861
-80.9366
-83.7859
-84.3933
-84.4178
-84.511
-84.0289
-83.4055
-82.4761
-82.2059
-81.9547
-82.0791
-82.0598
-81.902
-82.0761
-83.0653
-83.4565
-83.6236
-83.5796
-83.1781
-83.0375
-83.2407
-83.0641
-82.6665
-81.397
-82.6084
-83.0173
-83.5207
-83.6542
-83.894
-83.6707
-83.167
-82.6757
-82.8272
-82.3909
-82.0965
-82.5808
-82.8014
-83.3277
-83.8581
-83.752
-83.986
-83.3776
-82.682
-82.6427
-83.1319
-82.7668
-82.715
-83.539
-64.4184
-64.4252
-64.4296
-64.6093
-64.6316
-64.5545
-64.792
-64.7541
-64.7036
-64.6763
-64.9629
-64.8975
-64.873
-64.772
-64.7619
-65.1655
-65.0747
-65.0446
-65.0218
-64.9806
-64.9288
-65.4363
-65.2922
-65.2217
-65.212
-65.1453
-65.1037
-65.0553
-65.7671
-65.6161
-65.5121
-65.4153
-65.3785
-65.32
-65.3114
-65.3033
-66.1119
-65.9662
-65.8971
-65.7064
-65.654
-65.5653
-65.5171
-65.599
-65.6167
-66.7152
-66.5477
-66.4074
-66.2557
-66.0989
-66.0327
-65.9668
-65.9065
-65.9431
-65.935
-65.8614
-67.2642
-67.0905
-67.0268
-66.8139
-66.6644
-66.5508
-66.474
-66.4967
-66.3779
-66.3163
-66.351
-66.3118
-68.0997
-68.0026
-67.7731
-67.462
-67.2082
-67.1628
-67.061
-66.9975
-66.901
-66.8036
-66.828
-66.6498
-66.8518
-69.4738
-69.2274
-68.9681
-68.7715
-68.4889
-68.239
-68.0256
-67.8765
-67.6064
-67.6193
-67.5062
-67.2917
-67.3262
-67.3213
-67.3848
-70.8982
-70.7323
-70.4705
-70.2112
-69.8469
-69.6103
-69.0965
-69.0071
-68.7756
-68.7482
-68.4661
-68.3231
-68.3135
-68.207
-68.0768
-68.1184
-72.6174
-72.3983
-72.2855
-71.9904
-71.7813
-71.4971
-71.3374
-70.7408
-70.2465
-70.1452
-69.6814
-69.7364
-69.515
-69.3469
-69.3045
-69.453
-69.6063
-74.7281
-74.079
-74.4836
-74.098
-73.737
-73.4732
-73.2599
-73.223
-73.1633
-72.7878
-72.3387
-72.1176
-71.6059
-71.1697
-71.035
-70.7819
-70.9981
-70.6645
-77.3577
-76.6418
-76.253
-76.0011
-76.0113
-75.9309
-75.4974
-75.2222
-75.5566
-75.4677
-75.5135
-74.8442
-74.5701
-73.9965
-73.6173
-73.1951
-72.5487
-72.0336
-72.0465
-81.0579
-79.4337
-78.1835
-77.7745
-78.0545
-78.0439
-77.5167
-77.2173
-77.4488
-77.7278
-78.0823
-78.4066
-79.0123
-78.8359
-78.6875
-77.9116
-76.8118
-76.2463
-75.7152
-74.4915
-84.8749
-83.7253
-81.7577
-80.1678
-79.4453
-79.4309
-78.6225
-77.52
-78.5921
-80.7468
-82.3816
-82.1473
-81.6983
-81.3858
-82.5442
-83.3214
-82.9508
-83.0389
-82.246
-79.5514
-76.6842
-85.5712
-84.9096
-84.4484
-82.9884
-81.4962
-80.127
-80.0284
-79.6248
-79.2068
-79.9147
-81.171
-82.0068
-81.8215
-81.1799
-82.909
-84.597
-85.7311
-83.4503
-82.8243
-82.6227
-80.8068
-78.5288
-84.717
-85.2768
-84.7459
-84.8042
-83.9636
-82.8538
-81.7963
-81.2605
-81.1579
-80.9916
-80.9007
-80.7719
-81.0085
-81.6341
-83.1238
-83.9082
-83.8474
-82.59
-82.7672
-83.7656
-83.4333
-83.1625
-81.1247
-83.0701
-83.8397
-84.3622
-84.3452
-84.4124
-83.9522
-83.2584
-82.3549
-82.1357
-81.9158
-82.1052
-82.0837
-81.9474
-82.1541
-83.199
-83.5921
-83.7069
-83.658
-83.2235
-83.0508
-83.2042
-83.0422
-82.598
-81.5296
-81.9168
-82.6518
-83.0378
-83.5186
-83.6332
-83.8305
-83.5872
-83.0831
-82.6399
-82.7235
-82.3237
-82.0783
-82.6031
-82.8398
-83.4268
-83.9389
-83.7848
-83.9976
-83.4077
-82.7035
-82.6377
-83.1211
-82.803
-82.5875
-83.6449
-64.2691
-64.4046
-64.3412
-64.4434
-64.4104
-64.4082
-64.6643
-64.5844
-64.5938
-64.54
-64.8044
-64.7623
-64.7198
-64.6522
-64.6589
-65.0001
-64.9152
-64.8618
-64.8336
-64.7432
-64.7314
-65.2486
-65.097
-65.0473
-65.0201
-64.9839
-64.9338
-64.9115
-65.4419
-65.3725
-65.2937
-65.1926
-65.1543
-65.1177
-65.0606
-65.0205
-65.8548
-65.7451
-65.5737
-65.4309
-65.3805
-65.3537
-65.3137
-65.2824
-65.3111
-66.2295
-66.0328
-65.87
-65.7283
-65.7149
-65.6577
-65.5626
-65.5853
-65.6229
-65.6042
-66.8949
-66.6271
-66.5238
-66.3713
-66.1847
-66.126
-65.9617
-65.9549
-65.9164
-65.878
-65.8431
-65.9026
-67.672
-67.3178
-67.02
-66.9761
-66.7347
-66.6105
-66.4934
-66.4887
-66.3858
-66.3402
-66.3402
-66.2159
-66.3476
-68.4558
-68.0976
-67.8223
-67.7211
-67.4399
-67.2483
-67.2325
-67.0454
-67.0086
-66.8789
-66.8371
-66.8641
-66.7684
-66.9162
-69.8225
-69.5796
-69.1933
-68.9895
-68.7228
-68.4126
-68.1166
-67.947
-67.7542
-67.4985
-67.688
-67.535
-67.4086
-67.4821
-67.2518
-67.4956
-71.2321
-71.0491
-70.7896
-70.6045
-70.1285
-69.9097
-69.5719
-69.2386
-68.9147
-68.8509
-68.71
-68.563
-68.4225
-68.3596
-68.2323
-68.3066
-68.261
-73.0735
-72.6812
-72.546
-72.4012
-72.0381
-71.9316
-71.422
-71.2517
-70.5395
-70.3385
-70.2953
-69.9194
-69.6583
-69.5358
-69.4019
-69.3628
-69.4984
-69.4521
-75.2106
-74.8262
-74.493
-74.5152
-74.2627
-73.95
-73.6616
-73.5316
-73.3434
-72.6585
-72.7042
-72.3715
-72.0566
-71.5168
-71.1542
-71.2005
-70.6874
-70.994
-70.7074
-78.2504
-77.5035
-76.6493
-76.2152
-76.331
-76.1352
-76.1565
-75.6648
-75.3556
-75.6408
-75.949
-75.3713
-75.0392
-74.8022
-74.0907
-73.6645
-73.3956
-72.8561
-72.3708
-71.7734
-82.3904
-81.0807
-79.2563
-78.234
-77.6381
-78.4812
-77.9026
-77.6388
-77.7306
-77.5622
-77.9734
-78.5308
-79.043
-79.2674
-78.9361
-78.6338
-77.4862
-76.6541
-76.3057
-75.2835
-74.3819
-85.0532
-84.693
-83.3003
-81.2859
-80.1976
-79.3136
-79.5596
-78.4142
-77.5513
-78.7645
-81.5068
-82.4204
-82.3026
-81.4909
-81.7727
-82.9287
-83.3789
-82.987
-82.9707
-81.5465
-79.3811
-76.6164
-85.108
-85.556
-84.7817
-84.1935
-82.6946
-81.4676
-80.0529
-79.9879
-79.5094
-79.2538
-80.3006
-81.2874
-81.8271
-81.5173
-81.0061
-83.2341
-85.004
-85.5094
-83.3483
-82.8207
-82.1256
-80.5437
-78.5637
-83.7132
-84.823
-85.2398
-84.6633
-84.694
-83.8777
-82.6626
-81.6298
-81.1356
-81.1065
-81.0925
-80.9671
-80.7674
-80.9117
-81.7213
-83.2524
-83.9967
-83.9087
-82.7237
-83.0177
-84.3445
-83.228
-83.4594
-81.5262
-82.2971
-83.1409
-83.9021
-84.3217
-84.2702
-84.2901
-83.8785
-83.1199
-82.2437
-82.0668
-81.882
-82.1391
-82.1073
-82.0105
-82.2491
-83.2928
-83.6619
-83.7652
-83.7209
-83.264
-83.0455
-83.1825
-83.031
-82.5346
-81.726
-81.9611
-81.581
-82.6847
-83.0479
-83.5167
-83.6114
-83.7752
-83.5036
-82.9919
-82.6685
-82.6508
-82.2643
-82.0725
-82.6364
-82.8743
-83.5225
-84.0069
-83.8165
-84.0161
-83.4358
-82.7299
-82.6801
-83.1146
-82.8346
-82.6994
-83.7387
-64.1558
-64.303
-64.2651
-64.3766
-64.351
-64.2969
-64.5043
-64.4473
-64.412
-64.3994
-64.6972
-64.6432
-64.5856
-64.5373
-64.5033
-64.8334
-64.7688
-64.7338
-64.6599
-64.6605
-64.6074
-65.0455
-64.9552
-64.8473
-64.806
-64.8106
-64.7225
-64.7006
-65.2723
-65.207
-65.0514
-65.0428
-64.968
-64.9409
-64.9226
-64.8801
-65.6998
-65.4865
-65.3492
-65.242
-65.1536
-65.1513
-65.0396
-64.99
-65.0073
-65.9807
-65.7591
-65.6346
-65.5059
-65.4188
-65.4072
-65.2783
-65.3023
-65.2664
-65.3186
-66.3248
-66.1415
-66.0277
-65.8233
-65.7308
-65.6484
-65.5549
-65.5774
-65.6052
-65.5458
-65.5653
-67.0814
-66.8072
-66.5183
-66.4938
-66.2997
-66.1894
-66.079
-66.032
-65.8787
-65.9582
-65.8688
-65.9381
-65.9904
-67.8472
-67.4272
-67.2655
-67.0865
-66.905
-66.6582
-66.5976
-66.5844
-66.4777
-66.39
-66.3663
-66.3611
-66.2343
-66.4162
-68.6978
-68.3602
-68.1039
-67.7847
-67.6525
-67.4149
-67.1911
-67.1958
-67.0001
-66.9369
-66.9156
-66.7655
-66.9459
-66.8968
-66.9484
-70.1142
-69.7868
-69.5859
-69.269
-68.9485
-68.6166
-68.3841
-68.1161
-67.9278
-67.8017
-67.8135
-67.6715
-67.5332
-67.4466
-67.4229
-67.5156
-67.6133
-71.554
-71.3332
-71.1537
-70.9401
-70.4977
-70.2275
-69.8757
-69.5313
-69.0332
-68.9953
-68.9044
-68.6919
-68.5975
-68.4585
-68.3924
-68.3389
-68.5038
-68.276
-73.382
-73.1493
-72.7827
-72.7961
-72.4699
-72.4061
-71.9936
-71.5204
-70.9818
-70.4709
-70.5093
-70.2418
-69.9555
-69.7175
-69.5625
-69.4505
-69.4854
-69.3798
-69.3575
-76.0247
-75.3413
-74.898
-74.5191
-74.6216
-74.4618
-74.1422
-73.9664
-73.6667
-73.2617
-72.7234
-72.7167
-72.3828
-72.0695
-71.4541
-71.0384
-71.1612
-70.6305
-70.9321
-70.6165
-79.0049
-78.2119
-77.3934
-76.5745
-76.3972
-76.5889
-76.3212
-76.4515
-75.7423
-75.5903
-75.9305
-76.1645
-75.3482
-75.254
-74.8364
-74.0806
-73.8658
-73.5486
-72.8881
-72.8633
-71.7994
-82.5925
-82.4406
-80.5015
-79.0543
-78.0644
-77.8349
-78.819
-77.9452