/*--------------------------------*- C++ -*----------------------------------*\
  =========                 |
  \\      /  F ield         | OpenFOAM: The Open Source CFD Toolbox
   \\    /   O peration     | Website:  https://openfoam.org
    \\  /    A nd           | Version:  7
     \\/     M anipulation  |
\*---------------------------------------------------------------------------*/
FoamFile
{
    version     2.0;
    format      ascii;
    class       surfaceScalarField;
    location    "6";
    object      phi;
}
// * * * * * * * * * * * * * * * * * * * * * * * * * * * * * * * * * * * * * //

dimensions      [0 3 -1 0 0 0 0];

internalField   nonuniform List<scalar> 
54095
(
0.000230559
-3.63314e-05
0.00114914
0.000326387
-8.38322e-05
0.00172989
0.000362504
-2.64654e-05
-0.000620131
0.000265844
-2.77942e-05
0.000911091
0.00033518
-0.000251163
-0.00144844
0.000293317
2.56783e-05
0.00122179
0.000383633
-8.08376e-05
0.00169294
8.42328e-05
-1.44543e-05
-0.00158432
0.000333
-1.78003e-05
-0.000963125
0.000295881
-2.04785e-05
0.000635688
-0.000161388
0.000448564
-0.00642396
0.000489427
0.000429427
-0.00502404
0.000361273
-0.000283375
-0.0011427
0.000143576
0.000174802
-0.00108733
0.000245736
2.47782e-05
0.00120344
0.00045322
-7.45625e-05
0.00161017
-8.13238e-05
-2.38867e-05
-0.00115851
4.94095e-05
-1.39554e-05
-0.00163757
0.000328508
-1.05291e-05
-0.00130158
0.000302487
-1.62277e-05
0.000349429
-0.000685805
0.0004523
-0.00505317
0.000569878
0.00077695
-0.00453043
-0.000296927
0.000418666
-0.00618443
0.000224674
0.000676101
-0.000532543
0.000472324
0.00064551
0.00353094
0.000300398
-0.000171764
-0.000818115
-0.000157505
9.06117e-05
-0.0018858
3.84201e-05
0.000162596
-0.00121416
0.000483057
4.20815e-05
0.00093225
0.000492816
-6.02883e-05
0.00148013
-0.000118966
-3.99062e-05
-0.000671142
-8.03691e-05
-2.5707e-05
-0.00106639
1.25986e-05
-8.15673e-06
-0.00165254
0.000293595
-8.79517e-06
-0.00160261
0.000290617
-1.4438e-05
7.32505e-05
-0.00081047
0.000190138
-0.00475239
-2.14412e-06
0.000715245
-0.0060458
-0.000899723
0.000458715
-0.00490909
0.000725564
0.00031368
-0.0047485
0.000356414
0.000748875
-0.00474473
-0.000445169
0.000461297
-0.00590016
-7.64001e-05
0.000483137
-0.00114674
0.000111304
0.000754587
-0.000714505
0.000442631
0.000468858
0.00293074
0.00018313
-0.000101721
-0.000406709
-0.000143963
-4.608e-06
-0.00086308
-0.000145562
8.17581e-05
-0.00173977
-1.55028e-05
0.000151427
-0.0012954
0.000541345
6.9615e-05
0.000554597
0.000512837
-2.88989e-05
0.0012868
-0.000109255
-5.3617e-05
-0.000365669
-0.00012137
-4.18354e-05
-0.000533644
-9.11658e-05
-2.35697e-05
-0.000959809
-1.49212e-05
-9.12089e-06
-0.00163729
0.000227853
-5.52924e-06
-0.00183937
0.000270778
-1.37672e-05
-0.000183761
-0.00129606
0.000221621
-0.0046594
-0.000475536
0.000657656
-0.00586287
-0.000862707
0.000145451
-0.00493486
0.000476879
0.000892771
-0.00653348
-0.000126229
0.000808269
-0.00591271
-0.000915654
0.000445783
-0.00488439
0.000309414
8.37182e-05
-0.00452246
0.000493983
0.000378155
-0.00476046
0.000171456
0.000782914
-0.00479517
-0.000547749
0.000476823
-0.0056461
-0.000123465
0.000272361
-0.00107695
-4.83756e-05
0.00048106
-0.000970402
3.59078e-05
0.000573706
-0.000870764
0.000435298
0.000426096
0.00250897
0.000132396
-4.19466e-06
-2.20722e-05
-0.000119557
-0.000133726
-0.00010086
-0.000143347
-1.44662e-05
-0.000744878
-0.000167512
6.00246e-05
-0.00157202
-9.56103e-05
0.000159647
-0.00130474
0.000465518
9.81214e-05
0.000189912
0.000534669
3.20203e-06
0.00101971
-6.90227e-05
-4.74476e-05
-0.00058313
-0.000110271
-5.3688e-05
-0.000243545
-0.000125383
-4.33749e-05
-0.000388456
-9.66672e-05
-2.51715e-05
-0.000847092
-3.61165e-05
-7.97631e-06
-0.00159873
0.000168773
-2.5452e-06
-0.00201937
0.000242245
-1.36646e-05
-0.000412341
-0.00153654
0.000346425
-0.00369592
-0.000439143
0.000608321
-0.00537034
-0.00121656
0.000277331
-0.00458287
0.000259297
0.000840683
-0.00601487
-0.000323823
0.000570179
-0.00609
-0.000816034
3.29944e-05
-0.00506747
0.000278743
0.000788048
-0.00619328
0.00023231
0.000952267
-0.0064158
-0.00030389
0.0007584
-0.00574998
-0.00089633
0.000443153
-0.00497896
7.78012e-05
6.83472e-05
-0.00266389
0.000243435
5.15672e-05
-0.00448768
0.000222079
0.000540942
-0.00470465
-3.06494e-06
0.000802157
-0.00468214
-0.000578056
0.000512473
-0.00544812
0.000160969
-4.79753e-05
-0.000518145
-9.43982e-05
0.000237901
-0.000882742
-6.61266e-05
0.000369039
-0.000867119
-3.66384e-05
0.00052105
-0.00102469
0.000324101
0.00041632
0.00222988
8.89741e-05
8.80334e-05
0.000335589
-9.11548e-05
-0.000198014
-0.000906267
-0.000118786
-0.000141039
3.42273e-05
-0.000148336
-2.55368e-05
-0.000636363
-0.000184945
5.89421e-05
-0.00138304
-0.000148403
0.000164912
-0.00125925
0.000330984
0.000119978
-8.90756e-05
0.000529589
4.62261e-05
0.000686142
-1.07804e-05
-3.65054e-05
-0.00178492
-6.9518e-05
-4.71988e-05
-0.000520101
-0.000110424
-5.36332e-05
-0.000122863
-0.000127547
-4.43059e-05
-0.000241775
-0.000100172
-2.67431e-05
-0.000728153
-5.37615e-05
-9.9074e-06
-0.00153761
0.000114517
1.11988e-06
-0.00214867
0.000203165
-1.38612e-05
-0.000601644
-0.00166674
7.37458e-05
-0.00329683
-0.000263441
0.000314226
-0.00535953
-0.00140386
0.000292946
-0.00380157
-6.62233e-05
0.000803832
-0.00525154
-0.000393601
0.000535964
-0.00555919
-0.0011607
0.000333248
-0.00457146
-6.4547e-05
0.000951885
-0.00525071
2.26245e-05
0.000737966
-0.00597297
-0.000678169
0.000556567
-0.0062393
-0.000853153
3.7837e-05
-0.00514849
0.000245732
0.000488206
-0.00593532
0.000356532
0.000875976
-0.00623008
-1.43681e-05
0.000859529
-0.00628048
-0.000372391
0.000724247
-0.00566175
-0.00088588
0.000444803
-0.00511594
0.000439622
-0.000119011
-0.000732686
7.39388e-05
2.97512e-05
-0.00281041
0.000165279
0.000150304
-0.00432845
-5.30968e-05
0.00059387
-0.00447991
-0.000180121
0.000785077
-0.00445053
-0.000593962
0.000519867
-0.00528506
9.55507e-05
-0.000282141
-0.000589335
0.000149201
-8.67638e-05
-0.000461468
-9.60645e-05
0.000200641
-0.000766616
-6.87258e-05
0.000334622
-0.00079691
-0.000178889
0.000498597
-0.00107648
0.000110059
0.000443525
0.00209531
4.11168e-05
0.000199083
0.000624978
-6.41624e-05
-0.000171287
-0.00223079
-0.000104607
-0.000190864
-0.000821353
-0.000119119
-0.000144028
0.000161413
-0.000149619
-3.17608e-05
-0.000523588
-0.000205903
7.7461e-05
-0.00118985
-0.000172282
0.00017636
-0.00119711
0.000146872
0.000143422
-0.000218626
0.000476103
7.98536e-05
0.00033335
-2.20069e-05
-2.80614e-05
-0.00245377
-2.89027e-05
-3.6829e-05
-0.00176639
-6.81442e-05
-4.59276e-05
-0.000459663
-0.000110379
-5.35009e-05
-3.28889e-06
-0.000123644
-4.52869e-05
-9.9587e-05
-9.77803e-05
-3.07522e-05
-0.000609528
-6.55844e-05
-7.37725e-06
-0.00146352
7.90105e-05
-1.24256e-07
-0.00224142
0.000163238
-1.36428e-05
-0.00075124
-0.00176134
0.000119898
-0.00293538
-0.000659363
0.000316807
-0.00454901
-0.00158932
0.000279645
-0.00339101
-0.000248697
0.000457229
-0.00503843
-0.000459411
0.000299054
-0.00529983
-0.00131351
0.000243343
-0.0038921
-0.000215454
0.00101332
-0.00523728
-0.000159886
0.000748633
-0.0052817
-0.00046107
0.000413081
-0.00585613
-0.00113991
0.000331582
-0.00461628
-7.74996e-05
0.00109318
-0.00601339
0.000188864
0.00091278
-0.00525786
-0.000182257
0.000798926
-0.00604744
-0.000659752
0.000438036
-0.00635214
-0.000863024
5.14138e-05
-0.00522276
0.000104129
0.000371955
-0.00391203
0.000143615
0.000503059
-0.00563208
0.000123738
0.000948601
-0.00627761
-0.000322762
0.000761168
-0.00604774
-0.00044215
0.000639334
-0.00559425
-0.000817071
0.00045023
-0.00534306
0.000169901
-0.000170382
-0.000755871
0.000359707
-0.00017459
-0.000738851
7.46837e-05
2.15504e-05
-0.00285241
-4.63677e-05
0.000213754
-0.00397069
-0.000308374
0.000654441
-0.00421979
-0.000390449
0.00077185
-0.004202
-0.000618001
0.000531933
-0.00515787
-5.23565e-05
-0.000290093
-0.00170656
8.78675e-05
-0.000294843
-0.000573729
0.000124359
-0.000129501
-0.000374803
-8.64843e-05
0.000158887
-0.000654016
-3.67665e-05
0.000280579
-0.000748029
-0.000251798
0.000469281
-0.00102272
-0.000105035
0.000522074
0.00202422
1.06079e-05
0.000289179
0.000801294
-4.33365e-05
-0.000169524
-0.00241884
-0.000112927
-0.000160973
-0.00217665
-0.000105707
-0.000189731
-0.000738087
-0.000121092
-0.000147757
0.000288123
-0.000162047
-2.62994e-05
-0.000381424
-0.000225445
9.12069e-05
-0.000977036
-0.000166129
0.000177917
-0.00113106
7.43687e-06
0.000163818
-0.000231016
0.000365463
0.000107032
2.40936e-05
-2.60024e-05
-2.88993e-05
-0.002351
-3.13339e-05
-2.74455e-05
-0.00243182
-2.12514e-05
-3.6489e-05
-0.00175458
-6.83179e-05
-4.46001e-05
-0.000400246
-0.000109977
-5.28345e-05
0.000114236
-0.000124928
-4.57972e-05
4.03857e-05
-0.000101401
-3.08431e-05
-0.000484661
-7.1337e-05
-1.01056e-05
-0.00138221
4.6781e-05
5.84065e-08
-0.0023019
0.000131871
-1.22301e-05
-0.000870881
-1.90148e-05
-0.00305225
-0.000870877
0.000342874
-0.00394488
-0.00157084
0.000124804
-0.00307867
-0.000509709
0.000598662
-0.00491763
-0.000751769
0.000526767
-0.00450377
-0.00144099
0.000153133
-0.00341667
-0.000435175
0.000698477
-0.00527267
-0.000266694
0.000452821
-0.00508539
-0.000345478
0.000187809
-0.00535988
-0.00126711
0.000193927
-0.00395883
-0.000226851
0.0010817
-0.00523821
-0.00024279
0.00102419
-0.00508117
-0.000372861
0.00071403
-0.00539205
-0.000785261
0.000473891
-0.00587293
-0.00115375
0.000338579
-0.00466413
-0.000394015
0.00135525
-0.00613062
-7.52505e-05
0.00107398
-0.00595572
0.000114995
0.000914991
-0.00536518
-0.000261742
0.000708602
-0.00637903
-0.000648279
0.00033418
-0.00642877
-0.000828532
0.000154192
-0.00536549
-5.48204e-05
0.000509427
-0.00379418
0.00031333
0.000375173
-0.00373776
8.85298e-05
0.00063381
-0.00533114
-0.000364575
0.000658597
-0.00585684
-0.000702551
0.000608142
-0.00562237
-0.000632716
0.000605536
-0.00550729
-0.000615599
0.000511115
-0.00585658
-1.50267e-05
-0.000263711
-0.00160287
0.000202269
-0.000262202
-0.000782661
0.000324075
-0.000223117
-0.0006939
8.51654e-05
4.87564e-06
-0.00281518
-5.90832e-05
0.000309179
-0.00360311
-0.000373534
0.000552232
-0.00387843
-0.000592947
0.000793072
-0.00397523
-0.000562342
0.000558955
-0.00514388
5.49782e-06
-0.000323389
-0.00183812
-8.39702e-05
-0.000295612
-0.00173474
8.28471e-05
-0.000333039
-0.000558746
0.000104628
-0.000171569
-0.000270068
-0.000100416
9.60066e-05
-0.000531075
-0.000147061
0.000266548
-0.00062368
-0.000264379
0.000483526
-0.000885922
-0.000298262
0.000582638
0.00203647
-7.34883e-05
0.000338517
0.000901728
-3.02592e-05
-0.00015791
-0.00276881
-5.55241e-05
-0.000165079
-0.00239054
-6.95586e-05
-0.000161814
-0.00215626
-0.000115875
-0.000180445
-0.000657842
-0.000125284
-0.00014952
0.00042665
-0.000171414
-3.3226e-05
-0.000210505
-0.00023311
9.34851e-05
-0.000760896
-0.000137542
0.000183416
-0.00108445
-0.000157213
0.000170619
-9.06096e-05
0.000220748
0.000119013
-0.000183796
-3.54835e-05
-2.08423e-05
-0.00251057
-3.58503e-05
-2.7867e-05
-0.00231473
-4.1037e-05
-2.66543e-05
-0.00240062
-3.09304e-05
-3.61527e-05
-0.00173209
-6.75901e-05
-4.34141e-05
-0.000342076
-0.000108925
-5.20637e-05
0.000229427
-0.000125451
-4.62525e-05
0.000181247
-0.000104324
-3.19363e-05
-0.000358506
-8.30341e-05
-1.0353e-05
-0.00128876
2.51737e-05
-2.55992e-08
-0.00233928
0.000107766
-1.13448e-05
-0.000967302
0.000220634
-0.00379231
-0.00155315
1.49255e-05
-0.00308486
-0.000518844
0.00042266
-0.00451878
-0.00078545
0.000209217
-0.00399561
-0.0015694
0.000150074
-0.00310034
-0.000551164
0.000748442
-0.00501276
-0.000468102
0.000624336
-0.00481379
-0.000756019
0.000357388
-0.00429749
-0.00142784
0.00017291
-0.00342884
-0.000357104
0.000834581
-0.00549751
-0.000401923
0.000648351
-0.00530906
-0.000349775
0.000342049
-0.00526272
-0.00085317
0.000212991
-0.00531104
-0.00131066
0.000156516
-0.00395844
-0.000374052
0.00117207
-0.00567311
-0.000204719
0.00114138
-0.00522594
-0.000135778
0.000984789
-0.00510116
-0.000354224
0.000710971
-0.00553664
-0.000918484
0.000610634
-0.00587478
-0.00108615
0.000336514
-0.00474302
-0.000270765
0.00159396
-0.00623167
2.62341e-06
0.00133458
-0.00608052
-0.00016472
0.00107603
-0.00586351
-0.000325575
0.000818573
-0.00551415
-0.000573971
0.000546072
-0.0067195
-0.000684494
0.000448823
-0.00667163
-0.000781761
0.000327282
-0.00552661
-7.23187e-05
0.00071739
-0.00452555
7.49454e-05
0.000531952
-0.00382364
0.000309265
0.000431609
-0.00352075
0.000161269
0.000431713
-0.00518036
-0.000623025
0.000551585
-0.00523634
-0.000738209
0.000469403
-0.00512156
-0.000813227
0.000697983
-0.00547388
-0.000742025
0.000700294
-0.00637719
-3.48256e-05
-0.000133191
-0.00213409
-4.66967e-05
-0.000288056
-0.00161429
0.000185178
-0.000314835
-0.000793275
0.000269745
-0.00025759
-0.000596551
1.31291e-05
-2.17481e-05
-0.00259779
-0.000100335
0.000198712
-0.00329632
-0.000394823
0.00061771
-0.00357263
-0.00065605
0.000803725
-0.00386221
-0.000644029
0.000597924
-0.00517126
-0.000164205
-0.000253878
-0.00202273
-2.14819e-05
-0.000337809
-0.00182997
-7.96145e-05
-0.000321332
-0.0017364
7.40371e-05
-0.000387825
-0.000532401
7.75587e-05
-0.000211539
-0.000165365
-0.000113824
5.9588e-05
-0.000381705
-0.000158148
0.000268403
-0.000483519
-0.00017185
0.000517422
-0.000786398
-0.00041559
0.000577965
0.00205539
-0.000226824
0.000426273
0.000923027
-9.70317e-05
-0.00014306
-0.00248645
-3.55351e-05
-0.000156775
-0.00277743
-7.23765e-05
-0.000160307
-0.00236071
-8.30588e-05
-0.000149843
-0.00213474
-0.0001289
-0.000167469
-0.000578584
-0.000129667
-0.000154088
0.000568254
-0.000179809
-4.22342e-05
-2.04282e-05
-0.000221038
8.93086e-05
-0.000550075
-0.000137127
0.000162044
-0.00102179
-0.000190509
0.0001726
7.14864e-05
9.275e-05
0.000119843
-0.000288622
1.2719e-05
-2.32109e-05
-0.00232875
-4.62293e-05
-2.05703e-05
-0.00247164
-4.53905e-05
-2.65637e-05
-0.00226943
-5.12587e-05
-2.60712e-05
-0.00235944
-3.51857e-05
-3.61052e-05
-0.00170422
-6.45634e-05
-4.25354e-05
-0.000287041
-0.000106977
-5.12618e-05
0.000341414
-0.000125647
-4.67572e-05
0.000321715
-0.000105751
-3.25124e-05
-0.000230596
-8.71781e-05
-1.11951e-05
-0.00119041
1.21762e-05
-1.55108e-06
-0.00236125
8.65877e-05
-9.77418e-06
-0.00104412
-0.00158188
3.9201e-05
-0.00291744
0.000333372
-0.0042244
-0.00104541
0.000169122
-0.00368654
-0.0015878
3.17516e-05
-0.00309821
-0.000767059
0.000574136
-0.00478576
-0.000599713
0.000363921
-0.00454187
-0.000845174
0.000188031
-0.00394441
-0.00157155
0.000185316
-0.00314194
-0.000322415
0.000762432
-0.00511434
-0.000461571
0.000712358
-0.00504113
-0.000551909
0.000588787
-0.00484305
-0.00102961
0.00027656
-0.00422469
-0.00141447
0.000135118
-0.00346015
-0.000434007
0.000902043
-0.00560723
-0.00039678
0.000816262
-0.00547336
-0.000408675
0.000634408
-0.00532853
-0.000440148
0.000434533
-0.00539834
-0.0010928
0.000263774
-0.00524398
-0.00126394
0.000203124
-0.00398378
-0.000426688
0.00122647
-0.00597744
-0.00029786
0.00126961
-0.00550086
-0.000279582
0.00111695
-0.00524324
-0.000220576
0.000924315
-0.0054195
-0.000417546
0.000753669
-0.0058361
-0.000733344
0.000639986
-0.0061294
-0.00124725
0.000114611
-0.00439215
-0.000189434
0.00157819
-0.0064357
-7.32396e-05
0.00146105
-0.00620996
-5.56945e-05
0.00124351
-0.00588304
-0.00013736
0.0010416
-0.00578791
-0.000546258
0.000742943
-0.00578779
-0.000682682
0.000519036
-0.00684524
-0.000818437
0.000533929
-0.00687306
-0.00114564
0.000172443
-0.00529544
-0.000268019
0.000882886
-0.00471304
-0.000270918
0.000770477
-0.00453985
-0.000218695
0.000600579
-0.00358873
6.01107e-05
0.000475052
-0.00335446
3.87472e-05
0.000369767
-0.00502416
-0.000361094
0.000427958
-0.00493413
-0.000633729
0.000502144
-0.00468682
-0.000600563
0.000654033
-0.00548311
-0.000945193
0.000778486
-0.00685451
-0.000251232
0.000130724
-0.00259875
-5.2132e-05
-9.64515e-05
-0.00229505
-8.59274e-05
-0.000277442
-0.00164537
0.000195755
-0.000327282
-0.0008453
0.000246257
-0.000276603
-0.000510394
-5.44309e-05
-6.98967e-05
-0.00238858
-0.000172284
0.000177791
-0.00284226
-0.000489523
0.000649146
-0.00310038
-0.000676488
0.000767995
-0.00377138
-0.000942944
0.000570077
-0.00502522
-0.000368446
-0.000174468
-0.00214515
-0.000158481
-0.000275535
-0.00196206
-5.05345e-05
-0.000334725
-0.00183842
-7.63905e-05
-0.000371943
-0.00175895
4.71534e-05
-0.000431871
-0.000488123
4.94868e-05
-0.00025777
-2.71609e-05
-0.000118742
2.73236e-05
-0.000201693
-0.000142541
0.000271573
-0.000316167
-0.000181583
0.000476838
-0.000640815
-0.000417736
0.000599163
0.00210973
-0.00026896
0.000462845
0.000821893
1.48015e-05
-0.000145363
-0.00243132
-9.90322e-05
-0.000141942
-0.00244848
-4.64458e-05
-0.000153595
-0.00278308
-9.02011e-05
-0.000150163
-0.00232145
-8.29122e-05
-0.000137657
-0.00211682
-0.000133747
-0.000155037
-0.00050845
-0.000133331
-0.000158772
0.000711145
-0.000188348
-5.26301e-05
0.000184211
-0.000203175
6.78301e-05
-0.000358437
-0.000169295
0.000161054
-0.000928123
-0.000189429
0.000168086
0.000224848
-1.93427e-05
0.000122369
-0.000305061
6.30872e-05
-2.3816e-05
-0.00206805
-2.16347e-07
-2.1878e-05
-0.00232723
-5.92818e-05
-1.83281e-05
-0.0024206
-5.83487e-05
-2.61889e-05
-0.00221096
-6.28763e-05
-2.57133e-05
-0.00230696
-3.88953e-05
-3.58609e-05
-0.00167199
-6.08419e-05
-4.22878e-05
-0.000235173
-0.000103833
-5.07551e-05
0.000449245
-0.000125315
-4.75048e-05
0.000462023
-0.000104086
-3.30483e-05
-0.000104657
-8.73169e-05
-1.41807e-05
-0.00109047
-5.92292e-06
-1.41237e-06
-0.00236369
6.81725e-05
-8.87458e-06
-0.00110341
-0.00172243
0.000131533
-0.00253419
-0.00129229
0.000317661
-0.00369969
-0.0016172
3.48289e-05
-0.00292287
0.000403136
-0.00426624
-0.000738386
0.000218883
-0.00413549
-0.000872155
0.000184069
-0.00381188
-0.00155186
6.12652e-05
-0.00317916
-0.00040269
0.000671982
-0.00488882
-0.000771812
0.000597478
-0.00470907
-0.000838789
0.00036321
-0.00443017
-0.000861814
5.26161e-05
-0.00397951
-0.00144282
0.000131165
-0.00324476
-0.000428243
0.000840414
-0.00527268
-0.00029243
0.000675991
-0.00518232
-0.000485175
0.000699257
-0.0050751
-0.0007344
0.000527814
-0.00480005
-0.00125013
0.000240723
-0.00417298
-0.00139152
9.23011e-05
-0.00342488
-0.000520637
0.00087171
-0.00572087
-0.000326546
0.000928862
-0.00569115
-0.000376414
0.000805301
-0.00554743
-0.000200472
0.000654297
-0.00556839
-0.000506307
0.000500476
-0.00554628
-0.00111072
0.000348373
-0.00501185
-0.0014221
0.000204135
-0.00401306
-0.000323076
0.00115635
-0.00610028
-0.000302971
0.00125435
-0.00573245
-0.00033975
0.00115827
-0.00525812
-0.000213926
0.00108884
-0.0053312
-0.000337984
0.0009185
-0.00579261
-0.000416116
0.00079429
-0.00625697
-0.00116055
0.00051736
-0.00619004
-0.0013207
3.17737e-05
-0.00424886
-0.000422597
0.00152868
-0.00644737
-0.000529742
0.0015274
-0.00624322
-0.000608764
0.00137663
-0.00595301
-0.000299561
0.00127586
-0.00575763
-0.000172823
0.000946117
-0.00577951
-0.000299142
0.000664705
-0.00599541
-0.00058627
0.00057595
-0.00693472
-0.000723568
0.000563745
-0.00714136
-0.00135704
0.000161989
-0.00504558
-0.000228531
0.000996117
-0.00453784
-0.000308374
0.000913799
-0.00460012
-0.000456864
0.000803491
-0.00437183
-0.000110628
0.000647086
-0.00345439
5.34147e-05
0.000446671
-0.00323852
-0.00032644
0.000397588
-0.00472178
-0.000653502
0.000509128
-0.0044599
-0.00039826
0.000419553
-0.0045436
-0.000403129
0.000626578
-0.00560456
-0.0014067
0.000623427
-0.00701419
-0.000508146
0.000179924
-0.00296508
-0.000372542
0.000114122
-0.00259526
-0.000116767
-0.000108172
-0.00239808
-0.000105631
-0.000213268
-0.00173014
0.000175226
-0.00034675
-0.000903226
0.000190416
-0.00032533
-0.000395889
-0.00016473
-0.0001893
-0.0019755
-0.000189495
0.000164779
-0.00231094
-0.000508813
0.000627544
-0.0026327
-0.000699367
0.000644427
-0.0035641
-0.000859262
0.000513049
-0.00494796
-0.000171569
-0.000171203
-0.00230772
-0.000358026
-0.00019541
-0.00196628
-0.000152058
-0.000282364
-0.00190881
-8.08002e-05
-0.000355515
-0.00186424
-8.11802e-05
-0.000419755
-0.00177279
-1.79529e-05
-0.000467904
-0.000393784
5.77455e-06
-0.000296233
0.00015729
-0.00012305
-2.68786e-06
7.26996e-06
-0.000124521
0.000244449
-0.000162431
-0.000270477
0.000414159
-0.000354629
-0.000382898
0.000581662
0.00218438
-0.000275804
0.000473139
0.000605215
9.03143e-05
-0.000165159
-0.00198859
-1.12481e-05
-0.000143682
-0.00241855
-0.000108757
-0.000138496
-0.00241411
-6.0557e-05
-0.000147565
-0.00278347
-0.000113799
-0.000137772
-0.00227041
-9.34675e-05
-0.00012592
-0.00209137
-0.000135664
-0.000145199
-0.000447202
-0.000136382
-0.000160987
0.000852051
-0.00019423
-6.40886e-05
0.000385045
-0.000193706
6.44218e-05
-0.000172185
-0.000134625
0.000153792
-0.000866521
-0.000180805
0.000164784
0.000357315
-9.92546e-05
0.000118072
-0.000255706
0.000127559
-2.83628e-05
-0.00156383
5.00358e-05
-1.85187e-05
-0.00212144
-8.85473e-06
-1.91005e-05
-0.0023176
-6.7258e-05
-1.78459e-05
-0.00236168
-7.2288e-05
-2.3964e-05
-0.00214042
-6.86723e-05
-2.42034e-05
-0.00224994
-4.22477e-05
-3.56689e-05
-0.00163637
-5.77258e-05
-4.16079e-05
-0.000186594
-9.93071e-05
-5.08604e-05
0.000551908
-0.000124038
-4.7817e-05
0.000600829
-0.000103263
-3.54754e-05
1.99009e-05
-9.06678e-05
-1.89368e-05
-0.000982274
-1.22443e-05
-3.06215e-06
-0.00235725
5.59401e-05
-8.71735e-06
-0.00115064
-3.2541e-05
-0.00260559
-0.00125504
3.74989e-06
-0.00335452
-0.00176574
0.000113364
-0.00249901
-0.000971437
0.00049554
-0.00389158
-0.0012134
0.000294689
-0.00361831
-0.00163802
7.95497e-05
-0.00291626
0.000614355
-0.00452888
-0.000919186
0.000375267
-0.00427525
-0.000898583
0.000211843
-0.00410347
-0.000995149
0.000204979
-0.00382226
-0.00149037
7.9482e-05
-0.0032111
-0.000540698
0.000792882
-0.00497734
-0.000347703
0.000699484
-0.00493556
-0.000835154
0.000640274
-0.00463616
-0.000942997
0.000241094
-0.00441006
-0.00109484
6.24981e-05
-0.00406614
-0.00146053
0.000128683
-0.00330443
-0.000509691
0.000837981
-0.0053864
-0.00030776
0.000741634
-0.0053571
-0.000130181
0.000681059
-0.00541035
-0.000272213
0.000634936
-0.00511048
-0.000783355
0.000529961
-0.00481224
-0.00140735
0.000219105
-0.00400315
-0.00148677
2.01587e-05
-0.00338037
-0.000426454
0.000920672
-0.00588922
-0.000447212
0.000960788
-0.00560855
-0.000375187
0.000912535
-0.00576294
-0.000187234
0.000742822
-0.00566264
-0.000225914
0.000658765
-0.00583875
-0.00052121
0.00053499
-0.0056278
-0.0015405
0.000360492
-0.00478826
-0.00159103
0.000169608
-0.00391233
-0.000477487
0.00107398
-0.00634762
-0.000481236
0.00108515
-0.00597958
-0.000537783
0.0011204
-0.00576556
-0.000356684
0.00117932
-0.00529147
-0.000230359
0.00103217
-0.00538733
-0.00029902
0.00101187
-0.00601031
-0.00059954
0.00090805
-0.00663439
-0.00123328
0.000439635
-0.00608819
-0.00142672
5.8758e-05
-0.00423794
-0.000347739
0.00130201
-0.00666203
-0.000517879
0.00157971
-0.00629018
-0.000742487
0.00145137
-0.00603233
-0.000436407
0.00144657
-0.00579794
-0.00038411
0.00123438
-0.00560837
-0.000597925
0.000937011
-0.00578033
-0.000654685
0.000700155
-0.00611843
-9.12559e-05
0.000651638
-0.00732962
-0.000388466
0.000719835
-0.00771387
-0.00153336
0.000211663
-0.00513057
-5.52056e-05
0.000547378
-0.00392139
-0.000510284
0.00101469
-0.00450099
-0.000209532
0.000918164
-0.00462203
-0.000160723
0.000727947
-0.0043976
-0.00011221
0.000604894
-0.00332517
-3.49847e-05
0.000543806
-0.00315934
-0.000513354
0.000531269
-0.00439529
-0.000610963
0.000529894
-0.00414877
-0.000125821
0.000393687
-0.0046937
-0.000257944
0.000565529
-0.00598808
-0.0014221
0.000658497
-0.00710985
-0.000143258
-2.8938e-05
-0.00237502
-0.000573078
9.79573e-05
-0.00273386
-0.000250848
3.59457e-05
-0.00264059
-0.000151029
-9.57916e-05
-0.00244533
-0.0001191
-0.000340591
-0.00169838
0.000105646
-0.000452424
-0.00089973
0.000101034
-0.000411915
-0.000268534
-0.000205685
-0.000262089
-0.001466
-0.000214076
0.000143358
-0.0017372
-0.00057294
0.000470764
-0.00215657
-0.000708916
0.000563302
-0.00328833
-0.000690742
0.000515151
-0.00504818
0.00010852
-0.00024773
-0.00227541
-0.000192367
-0.000188896
-0.00213311
-0.000364864
-0.000205972
-0.00178657
-0.000145216
-0.000343191
-0.00183647
-7.29671e-05
-0.000373132
-0.0019517
-4.79594e-05
-0.000449239
-0.00183697
-3.51115e-05
-0.000481402
-0.000309167
-9.24503e-06
-0.000322272
0.000349738
-0.000116671
-3.49388e-05
0.000209099
-0.00013759
0.000207138
-1.15262e-05
-0.000168221
0.000400131
-0.000139501
-0.000248225
0.000546963
0.00217798
-0.000163959
0.000474502
0.000195417
0.000193278
-0.00017338
-0.0013103
8.22888e-05
-0.000159815
-0.00200471
-5.82128e-05
-0.000137538
-0.00237015
-9.26655e-05
-0.000137407
-0.00239886
-7.68613e-05
-0.000135104
-0.00278157
-0.000121556
-0.000154258
-0.00218919
-9.68072e-05
-0.000107751
-0.00207426
-0.000139207
-0.000122269
-0.000404439
-0.000137749
-0.000165479
0.000991884
-0.000198506
-7.44147e-05
0.000598349
-0.000170267
5.68946e-05
-8.28353e-06
-0.000113191
0.000147007
-0.00082622
-0.000150592
0.000143761
0.000469975
-0.000118178
0.000113444
-0.000195033
0.000138188
-5.31063e-05
-0.000126961
0.000122514
-2.05197e-05
-0.00168434
3.76056e-05
-1.54872e-05
-0.00216266
-2.14487e-05
-1.69846e-05
-0.00229701
-8.29205e-05
-1.45311e-05
-0.00228819
-7.91772e-05
-2.37577e-05
-0.00206169
-7.79453e-05
-2.21359e-05
-0.00218553
-4.44732e-05
-3.49869e-05
-0.00159851
-5.46141e-05
-4.13167e-05
-0.000141524
-9.5123e-05
-5.01167e-05
0.000649331
-0.000120897
-4.84515e-05
0.000734702
-0.000101481
-4.02029e-05
0.000142648
-8.65412e-05
-1.94846e-05
-0.00087931
-1.93443e-05
-5.07832e-06
-0.00234155
5.05873e-05
-8.79353e-06
-0.00119243
5.82474e-05
-0.0033118
-0.00172925
-1.05155e-05
-0.00263157
-0.00111374
0.000110924
-0.00370933
-0.00126788
4.04159e-05
-0.00322709
-0.00176352
0.000118114
-0.00249162
-0.000887051
0.000446954
-0.00390911
-0.00103976
0.000439532
-0.00389524
-0.00136958
0.000295951
-0.00346028
-0.00162831
0.000131087
-0.00290941
0.000693099
-0.00455854
-0.000622528
0.000680124
-0.00455891
-0.00100611
0.000378802
-0.00427125
-0.0009267
0.000230392
-0.00414518
-0.00122323
0.000159216
-0.0037736
-0.0015085
1.47787e-05
-0.0031779
-0.00050968
0.000862952
-0.00519453
-0.000403593
0.000764894
-0.00494692
-0.000173309
0.000730634
-0.00498279
-0.000646423
0.000591941
-0.00461279
-0.00101277
0.000278693
-0.00439683
-0.00129251
5.71637e-05
-0.00410946
-0.00151413
0.000119333
-0.00339641
-0.000496636
0.000864934
-0.00550054
-0.000480343
0.000806233
-0.00541786
-0.000352061
0.000718975
-0.00541815
-0.000207592
0.000653984
-0.00540905
-0.000359345
0.000622329
-0.00506942
-0.000816871
0.000498882
-0.00479636
-0.00153295
0.000169427
-0.00415997
-0.00165287
-3.79654e-05
-0.00328057
-0.000566472
0.00097322
-0.00573979
-0.000480486
0.000954486
-0.00588367
-0.000538207
0.000982908
-0.0056785
-0.000447914
0.000891043
-0.00581994
-0.000190922
0.000781024
-0.00582434
-0.000295312
0.000641727
-0.0059492
-0.000735203
0.000570378
-0.00570202
-0.0014569
0.000337374
-0.0047324
-0.00172356
0.000122425
-0.00373791
-0.000395342
0.00117115
-0.00614057
-0.000505485
0.00105092
-0.00632578
-0.000497304
0.00105064
-0.006155
-0.000443566
0.00116098
-0.00574007
-0.000287124
0.00110797
-0.00546425
-0.000338008
0.000951365
-0.00558675
-0.000517889
0.00098042
-0.00621947
-0.000584923
0.000972262
-0.00667335
-0.00114519
0.000471802
-0.00574451
-0.00157121
0.000169974
-0.00437007
-2.37341e-05
0.00119649
-0.00637984
-0.000487909
0.00137808
-0.00648277
-0.000364289
0.00151411
-0.00619816
-0.000376447
0.00155805
-0.00592809
-0.000461234
0.00142507
-0.0056396
-0.000387778
0.00124862
-0.00556719
-0.000523974
0.000930208
-0.00599977
-0.00061862
0.000815232
-0.00627437
0.000249538
0.000737161
-0.0077223
-5.4537e-05
0.000672554
-0.00837817
-0.00154745
0.000359552
-0.00536477
0.000325033
-5.77043e-05
-0.00401704
-0.000253544
0.000723223
-0.00394946
-0.000204499
0.000987191
-0.00461636
-0.00028864
0.000870171
-0.00462664
-0.000334693
0.00070911
-0.00428622
-0.000236891
0.000657341
-0.00309617
-0.000125651
0.000581251
-0.00298264
-0.000635546
0.000608821
-0.00404436
-0.000509823
0.000526283
-0.00398562
-0.000102828
0.000387112
-0.0049854
-0.000742178
0.000834261
-0.00613059
-0.00131542
0.000837687
-0.00732286
0.000355192
-0.000257999
-0.00193102
-0.000274487
-6.57676e-05
-0.00212917
-0.000563589
1.93771e-05
-0.00251857
-0.000313668
-1.34103e-05
-0.00255452
-0.000129454
-0.00023082
-0.00249862
-9.37718e-05
-0.000444632
-0.00166036
5.58675e-05
-0.000529747
-0.000872877
3.96692e-05
-0.000497972
-8.15645e-05
-0.000146578
-0.000369603
-0.000923129
-0.000211189
1.03637e-05
-0.0012032
-0.00016161
0.000404995
-0.00200487
-0.000175812
0.000484788
-0.00333038
-0.00020917
0.000550934
-0.0055539
0.00017406
-0.000252946
-0.00161416
7.99988e-05
-0.000261868
-0.00220015
-0.000259559
-0.000189112
-0.00194863
-0.00031847
-0.000251469
-0.00165249
-0.000128503
-0.00032465
-0.00183331
-8.30167e-05
-0.000384412
-0.00205507
-2.21553e-05
-0.000458204
-0.00193482
-5.30163e-05
-0.000456566
-0.000261065
-1.46068e-05
-0.000333863
0.00052552
-0.000118098
-6.01177e-05
0.000395947
-9.97353e-05
0.000181111
0.000136963
-0.00017606
0.000392095
7.82353e-05
-0.000106877
0.000501479
0.00210729
0.000212407
0.000464761
-0.000599929
0.000246135
-0.000166096
-0.000905497
0.000196747
-0.000158736
-0.00138561
8.19403e-05
-0.000144971
-0.00204161
-9.25484e-05
-0.00013205
-0.0023044
-0.000113178
-0.000130676
-0.00237303
-7.69435e-05
-0.00014723
-0.00279083
-0.000139883
-0.000106084
-0.00212892
-9.7109e-05
-7.71461e-05
-0.00206674
-0.000137325
-0.000117649
-0.000369558
-0.000136554
-0.000171321
0.00113022
-0.000201374
-8.10163e-05
0.000816738
-0.00014576
5.06023e-05
0.0001324
-0.000103478
0.000123833
-0.000789356
-0.000148751
0.000127358
0.000585467
-0.000107544
0.000109141
-0.000146042
0.000158489
-6.20614e-05
-0.000264308
0.000142381
-4.73326e-05
-0.000242529
0.000116146
-1.63908e-05
-0.00179958
2.84535e-05
-1.29989e-05
-0.0021951
-3.67671e-05
-1.45659e-05
-0.00226021
-9.19928e-05
-1.55785e-05
-0.00220438
-9.44552e-05
-2.10547e-05
-0.00196832
-8.84644e-05
-2.14848e-05
-0.00211057
-5.08696e-05
-3.48e-05
-0.00155416
-5.0097e-05
-4.04199e-05
-0.000101124
-8.99148e-05
-4.96587e-05
0.000740453
-0.000117841
-4.85324e-05
0.000860872
-0.000100556
-4.03954e-05
0.000264115
-8.11611e-05
-1.87702e-05
-0.000784457
-2.45534e-05