/*--------------------------------*- C++ -*----------------------------------*\
  =========                 |
  \\      /  F ield         | OpenFOAM: The Open Source CFD Toolbox
   \\    /   O peration     | Website:  https://openfoam.org
    \\  /    A nd           | Version:  7
     \\/     M anipulation  |
\*---------------------------------------------------------------------------*/
FoamFile
{
    version     2.0;
    format      ascii;
    class       volVectorField;
    location    "6";
    object      U_0;
}
// * * * * * * * * * * * * * * * * * * * * * * * * * * * * * * * * * * * * * //

dimensions      [0 1 -1 0 0 0 0];

internalField   nonuniform List<vector> 
18750
(
(2.56878 -0.93662 -0.472425)
(2.03922 -1.24502 0.060092)
(4.23709 0.106241 -1.01484)
(2.75566 -1.01355 -0.468247)
(1.46435 1.04708 -1.14963)
(2.7874 -0.978618 -1.12317)
(2.51942 -1.41957 0.0405368)
(0.426158 1.02676 -0.132951)
(3.70081 0.116217 -0.696482)
(2.877 -1.05852 -0.382029)
(0.86151 4.47902 0.970764)
(0.732691 4.37315 -0.504469)
(1.5579 0.764878 -1.54459)
(1.66235 0.617051 1.41814)
(2.70523 -1.1454 -1.08789)
(2.9994 -1.63766 -0.0258885)
(-0.797061 0.829829 -0.473167)
(0.352652 1.06699 -0.0800412)
(3.09335 0.200682 -0.49365)
(2.71247 -1.00761 -0.347295)
(-1.26699 3.50157 0.98814)
(2.78145 3.13583 1.91668)
(1.31021 4.21325 1.06907)
(-0.293619 0.250365 3.5273)
(0.291449 0.255074 -0.0881537)
(1.74121 0.370637 -0.709174)
(-0.855291 1.39693 1.08467)
(1.01174 0.687414 1.35876)
(3.84613 -1.34213 -0.971579)
(3.34312 -1.8585 -0.0605061)
(-1.25032 0.53408 -0.489469)
(-0.778692 0.817593 -0.522891)
(0.149567 1.06376 0.0524296)
(2.5459 0.35294 -0.370592)
(2.37377 -0.874297 -0.358884)
(-1.16629 3.15136 -0.211692)
(0.544735 4.09668 0.962773)
(-2.10605 3.58189 0.650628)
(2.27278 3.13624 2.18493)
(2.7163 2.87389 1.60269)
(1.00986 3.9482 1.35386)
(-0.609559 0.867691 2.44853)
(-0.573389 0.464894 4.45297)
(0.910012 -3.51529 -0.316899)
(1.67383 0.0485935 -0.284622)
(-1.03369 0.658378 0.263068)
(-0.713483 1.31756 0.989706)
(0.474033 0.800364 1.47214)
(3.88623 -1.46504 -0.764128)
(3.50394 -2.08342 -0.0983875)
(-1.13102 0.323537 -1.11632)
(-1.25408 0.531345 -0.542815)
(-0.859062 0.840684 -0.392304)
(0.151264 1.05433 0.00714204)
(2.13346 0.513696 -0.300666)
(1.972 -0.706697 -0.397509)
(-1.27572 3.25337 0.0552165)
(-0.124485 4.01414 0.965796)
(-1.00056 3.35234 -0.463906)
(1.54353 4.36068 2.15046)
(0.100016 4.13048 1.38151)
(-2.09647 3.70104 0.464746)
(0.139216 3.01031 -0.330054)
(1.94483 3.07333 2.55388)
(1.6857 3.00807 1.48105)
(0.43802 3.89564 1.18151)
(-0.230428 0.794808 1.49444)
(-0.471367 0.621779 2.47597)
(-0.428658 0.666693 3.56345)
(1.51296 -1.97166 -0.290088)
(1.52742 -0.283097 0.146799)
(-0.999569 0.147271 -0.307207)
(-1.03627 0.646665 0.255908)
(-0.73232 1.25812 0.719931)
(-0.0888156 0.932431 1.64413)
(2.98595 -1.16248 -0.338439)
(3.59724 -2.23115 -0.0354403)
(-0.634718 0.417751 -1.19306)
(-1.11368 0.308152 -1.15127)
(-1.26193 0.521207 -0.574517)
(-0.855188 0.827123 -0.437255)
(0.0708861 1.14092 0.073457)
(1.85411 0.648228 -0.249519)
(1.5882 -0.520857 -0.446693)
(-2.26093 2.42767 0.527284)
(-1.11527 3.4745 0.639376)
(-1.24831 3.20667 0.0876658)
(0.908203 3.93867 1.57998)
(0.330041 3.96066 1.02716)
(-0.653849 3.5123 -0.813132)
(1.56036 4.00346 1.89547)
(1.36849 4.26247 2.18809)
(0.596838 3.88839 1.5205)
(-1.67616 3.8107 0.298314)
(-0.68233 1.6648 0.832092)
(0.508335 2.97077 -0.422153)
(1.44403 3.01459 2.91016)
(1.3769 2.97702 1.73551)
(0.384806 3.83848 1.20509)
(-0.0116408 0.357468 0.863127)
(-0.143025 0.654373 1.4543)
(-0.544511 0.76791 1.59786)
(-0.510645 0.827646 3.29275)
(1.47476 -1.90274 -0.118751)
(1.42519 -0.628436 0.446589)
(-0.650807 0.661935 -1.6403)
(-1.03608 0.123722 -0.426882)
(-1.08075 0.648923 0.20688)
(-0.768416 1.20422 0.649297)
(-0.298234 1.01813 1.64079)
(2.06712 -0.792337 0.0571135)
(3.50379 -2.22801 0.0613417)
(0.0157816 1.14208 -0.875875)
(-0.587158 0.402629 -1.17317)
(-1.10514 0.304701 -1.19414)
(-1.27572 0.512673 -0.599221)
(-0.885549 0.793008 -0.44229)
(-0.0676806 1.16867 0.15885)
(1.68787 0.748545 -0.204873)
(1.30941 -0.341369 -0.489694)
(-1.62654 2.30389 0.0373509)
(0.0464195 3.56832 0.342397)
(-1.68412 2.73314 0.448906)
(0.191182 3.53757 1.18948)
(-0.587489 3.69121 0.732996)
(-1.01443 3.29615 0.365822)
(0.0388537 3.58759 1.63472)
(0.723153 4.04388 1.15874)
(-0.418293 4.26992 0.935886)
(-0.493476 3.65077 -0.725089)
(1.41694 3.92789 1.52395)
(1.46 3.95325 2.24114)
(0.947946 4.13501 1.9186)
(0.33643 3.92448 1.66058)
(-1.34304 3.90733 0.173226)
(1.06323 0.380391 -0.371256)
(-0.396684 1.82538 0.671452)
(0.694762 2.8902 0.185017)
(1.32246 2.94845 2.83734)
(0.826938 2.95803 1.9094)
(0.259254 3.82574 1.23725)
(-0.109518 0.423736 -1.29344)
(0.0552216 0.319107 0.632329)
(-0.0824244 0.589997 1.40523)
(-0.628924 0.702945 1.40908)
(-0.76263 0.976111 3.20071)
(0.715084 -2.12538 0.430558)
(1.26881 -0.922197 0.657819)
(-0.145315 1.50858 -1.09214)
(-0.69152 0.617722 -1.63855)
(-1.06306 0.11428 -0.525759)
(-1.09209 0.655988 0.225929)
(-0.778245 1.14484 0.734876)
(-0.405786 1.06923 1.61148)
(1.06751 -0.341367 0.512801)
(3.01631 -2.0122 0.199304)
(-0.0636309 1.62581 -0.594977)
(0.0642012 1.15369 -0.902668)
(-0.551628 0.414384 -1.13205)
(-1.10694 0.302502 -1.21903)
(-1.27529 0.503063 -0.630279)
(-0.791223 0.773501 -0.632337)
(-0.195329 1.13767 0.230605)
(1.61545 0.813443 -0.163314)
(1.1697 -0.208434 -0.512446)
(-2.01565 1.91853 -0.0816645)
(-0.475021 3.19383 0.15399)
(-1.57071 2.34516 0.0599668)
(-0.123394 3.33195 0.530155)
(0.130715 3.50748 0.307123)
(-1.40997 2.8534 0.413982)
(-0.00747964 3.50814 1.38794)
(0.160687 3.49266 0.928601)
(-0.572414 3.97493 0.602587)
(-0.85431 3.37247 0.35919)
(0.170375 4.06362 1.82957)
(1.0001 3.41098 1.66047)
(0.54774 3.88475 1.20227)
(0.119706 4.26877 0.832573)
(-0.240797 3.72443 -0.552993)
(1.17104 2.65614 0.575765)
(1.36114 3.89164 1.70798)
(1.34285 4.12591 2.0734)
(0.187961 4.26351 1.63815)
(0.208136 3.91841 1.78009)
(-0.848801 4.0836 0.131561)
(0.777115 0.476215 -0.279837)
(0.982095 0.408682 -0.447658)
(-0.271467 1.9457 0.615272)
(0.978014 2.71724 0.687511)
(0.837657 2.80382 2.56886)
(0.301465 3.02948 1.93707)
(0.131844 3.86083 1.31389)
(-0.423228 1.15302 -1.01981)
(-0.129062 0.394802 -1.39784)
(0.0895026 0.27578 0.376826)
(-0.0515833 0.476955 1.30704)
(-0.76423 0.755157 1.29192)
(-0.799475 1.1615 2.9826)
(-0.140682 -1.43234 1.10832)
(1.09077 -1.14704 0.77377)
(-0.254828 1.61496 -1.26781)
(-0.430847 1.50814 -1.00816)
(-0.670533 0.641448 -1.58789)
(-1.08587 0.0931676 -0.636283)
(-0.980025 0.623851 0.387251)
(-0.771349 1.07563 0.928376)
(-0.394399 1.04036 1.55649)
(0.383016 -0.00955793 0.820908)
(2.35345 -1.59034 0.308424)
(-0.228754 1.55866 -0.575777)
(-0.050228 1.63085 -0.592446)
(0.0721393 1.16018 -0.898955)
(-0.507932 0.392228 -1.10771)
(-1.10518 0.298272 -1.23609)
(-1.28647 0.502631 -0.64678)
(-0.816255 0.766754 -0.63342)
(-0.113079 1.15693 0.185032)
(1.6162 0.837302 -0.14519)
(1.14576 -0.183296 -0.502529)
(-1.5348 2.01203 0.0110254)
(-0.859547 2.64511 0.344967)
(-1.59053 2.21272 0.064771)
(-0.333099 3.26245 0.565527)
(-0.679601 3.05985 0.615977)
(-1.20393 2.51063 0.141335)
(-0.381304 3.52889 0.706605)
(0.0857925 3.33949 0.529)
(0.53071 3.57222 0.216829)
(-1.10607 2.99884 0.41745)
(-0.0588213 3.50868 1.71849)
(0.272039 3.49601 1.4299)
(0.112923 3.55627 0.75807)
(-0.512228 4.15172 0.634433)
(-0.672845 3.41145 0.315269)
(-0.439388 4.16905 2.20083)
(0.167683 3.97927 1.70422)
(0.766089 3.50594 1.74534)
(0.614573 3.98235 0.940051)
(0.514589 4.34057 0.700666)
(0.0350331 3.70332 -0.451244)
(0.0411134 2.52472 0.991216)
(1.10112 2.46584 0.646933)
(1.53165 3.33643 2.30417)
(0.492859 4.13813 1.864)
(-0.340775 4.2839 1.24318)
(0.128477 3.90411 1.81299)
(-0.297837 4.21182 0.102928)
(0.170665 1.0923 -0.71016)
(0.806252 0.436083 -0.581959)
(0.825469 0.355665 -0.456841)
(-0.0938934 1.92003 0.562373)
(1.46635 2.15797 1.39003)
(0.54477 2.75749 2.41218)
(-0.0349392 3.06654 1.92379)
(0.141358 3.83387 1.38141)
(-0.103068 1.23058 -1.43124)
(-0.422745 1.16077 -1.01498)
(-0.103634 0.388189 -1.50988)
(0.0763604 0.202224 0.123728)
(-0.290994 0.504849 0.98717)
(-0.926982 0.845875 1.24419)
(-0.694553 1.05875 3.03743)
(-0.900654 -0.873193 1.57893)
(0.630348 -1.07048 0.913031)
(-0.0577058 1.82075 -1.0972)
(-0.248279 1.63305 -1.22129)
(-0.099032 1.5067 -1.03163)
(-0.714387 0.62758 -1.54932)
(-1.11031 0.0845442 -0.73071)
(-1.01119 0.592886 0.371879)
(-0.77467 1.03594 1.01252)
(-0.574545 1.13455 1.58967)
(-0.245882 0.257948 1.08769)
(1.69686 -1.12645 0.372768)
(-0.275696 1.68195 -0.61196)
(-0.242443 1.56717 -0.553909)
(-0.0175894 1.60526 -0.590911)
(0.181651 1.11967 -0.873411)
(-0.468077 0.385833 -1.07347)
(-1.10371 0.287956 -1.24741)
(-1.29612 0.500628 -0.664462)
(-0.82506 0.748464 -0.6655)
(-0.128692 1.15659 0.17657)
(1.61523 0.835169 -0.133537)
(1.18797 -0.189245 -0.46596)
(-0.744562 2.53146 -0.0421681)
(-1.30047 2.19395 -0.00771326)
(-0.606801 2.94872 0.376658)
(-0.494917 2.73002 0.199563)
(-1.36636 2.3045 0.164366)
(-0.575787 3.32149 0.852358)
(-0.141374 3.24124 0.612244)
(-0.288624 3.02592 0.239783)
(-0.992487 2.6111 0.171829)
(-0.380542 3.63459 1.14049)
(-0.276592 3.55406 0.690346)
(-0.0228597 3.49201 0.307926)
(-0.000974742 3.67156 0.0832686)
(-0.956276 3.00624 0.430338)
(-0.508994 3.75373 1.67976)
(0.293172 3.42729 1.78245)
(0.809658 3.22839 1.45409)
(0.311825 3.66303 0.849799)
(-0.299767 4.12481 0.722546)
(-0.296871 3.59959 0.167702)
(0.0391591 4.11613 2.83853)
(0.863594 4.0166 2.22331)
(0.0729249 3.92194 1.76132)
(0.10722 3.65488 1.69969)
(0.188959 4.5972 0.54755)
(0.427152 4.49841 0.916628)
(1.02107 3.72759 -0.0181557)
(-0.197943 2.93666 1.42757)
(0.351826 2.52308 0.938866)
(1.28991 2.2193 0.719282)
(1.78703 3.15959 1.36873)
(-0.092884 3.84896 1.62889)
(-0.209767 3.95763 0.982744)
(-0.29614 4.16488 2.06705)
(0.444413 4.20826 0.659888)
(0.275603 1.3492 -0.810759)
(0.0731985 1.03607 -0.950868)
(0.801719 0.395207 -0.888366)
(0.72896 0.265429 -0.515764)
(0.231878 1.84373 0.428975)
(1.06562 2.11627 1.00919)
(0.438 2.64431 2.53495)
(-0.389062 3.2121 1.87138)
(0.292479 3.94028 1.42529)
(-0.139959 1.36014 -1.28112)
(-0.0387853 1.22751 -1.48645)
(-0.181952 1.23987 -1.21964)
(-0.100506 0.389787 -1.61366)
(0.0304561 0.153339 -0.0997126)
(-0.349353 0.46172 0.922548)
(-0.956695 0.837242 1.32494)
(-0.126487 0.61626 3.18437)
(-2.0829 -0.749426 1.81641)
(-0.11272 -0.664034 1.06852)
(-0.310512 1.66318 -1.04839)
(-0.0241677 1.86481 -1.09963)
(-0.269124 1.6332 -1.20659)
(-0.26799 1.4947 -0.955064)
(-0.728833 0.661281 -1.49416)
(-1.1378 0.066189 -0.811077)
(-1.0463 0.565463 0.326646)
(-0.865729 0.909601 1.04388)
(-0.663087 1.22766 1.46426)
(-0.529575 0.377005 1.19518)
(1.17774 -0.742047 0.404205)
(0.236392 1.58533 -0.283802)
(-0.284133 1.66607 -0.595)
(-0.236594 1.557 -0.552803)
(0.0323657 1.5875 -0.590794)
(0.191216 1.10687 -0.867613)
(-0.430474 0.368631 -1.04109)
(-1.10538 0.275823 -1.25334)
(-1.30712 0.495608 -0.686404)
(-0.835825 0.739995 -0.667419)
(-0.178114 1.09986 0.142144)
(1.56848 0.845448 -0.108663)
(1.19182 -0.174515 -0.440838)
(-1.11844 2.05879 -0.00737934)
(-0.285996 2.78655 0.431772)
(-0.580522 2.51143 0.0429583)
(-1.21527 2.27495 -0.0437943)
(-0.471061 3.17127 0.507923)
(-0.299968 3.08227 0.265851)
(-0.536732 2.6989 0.150238)
(-1.22858 2.38892 0.276135)
(-0.305783 3.33938 0.889284)
(-0.120534 3.35032 0.822776)
(0.235931 3.21657 0.605614)
(-0.626069 3.04625 0.213631)
(-0.935806 2.64443 0.148706)
(-0.399958 3.68932 1.13033)
(-0.211541 3.64938 1.06229)
(-0.0857187 3.52766 0.654129)
(0.336641 3.583 0.498638)
(-0.222614 3.66972 -0.0282004)
(-0.61064 3.12495 0.448566)
(-0.628242 3.98158 1.87089)
(-0.152812 3.78477 1.80399)
(0.541639 3.41409 1.66932)
(0.542295 3.34789 1.35694)
(0.391149 3.74889 1.14755)
(0.385274 4.20605 0.885319)
(-0.563003 3.60654 0.00579392)
(0.184729 4.23734 3.03498)
(0.655289 4.1093 2.72287)
(1.17109 3.87013 2.10085)
(0.641541 3.9108 1.54736)
(-0.110475 3.80961 1.50474)
(0.180504 4.78594 0.700504)
(0.646849 4.60362 1.17499)
(0.20477 4.02035 -0.490372)
(-0.376788 3.10248 1.72091)
(0.0408733 2.99004 1.5782)
(0.509654 2.42838 1.11025)
(1.26146 2.05117 0.792955)
(1.40773 3.13688 1.05857)
(0.444381 3.5771 1.12646)
(0.0469886 3.61665 1.1987)
(0.138031 4.15343 2.2322)
(1.09192 4.62991 1.26935)
(-0.820249 1.68968 -0.0167232)
(0.208362 1.45489 -0.714426)
(-0.00793504 1.0823 -0.970427)
(0.800322 0.380852 -1.0536)
(0.606593 0.19893 -0.551376)
(0.289211 1.71313 0.236158)
(1.04051 1.84812 1.27497)
(0.428933 2.46542 2.67271)
(-0.033709 3.21677 2.00582)
(0.263355 4.07823 1.14911)
(-0.498486 1.48992 -0.722982)
(-0.0431598 1.32668 -1.35764)
(-0.00962516 1.20409 -1.49107)
(0.0541288 1.17254 -1.62388)
(-0.168466 0.417541 -1.7399)
(-0.0394842 0.0929252 -0.355878)
(-0.420276 0.407864 0.859816)
(-0.775923 0.706156 1.45551)
(0.23025 0.654714 2.96215)
(-1.80236 -0.200464 2.41922)
(-0.782635 -0.113074 1.24161)
(0.160818 1.59015 -0.92829)
(-0.242267 1.66529 -1.05012)
(0.00334905 1.8586 -1.07258)
(-0.33676 1.67847 -1.15958)
(-0.187519 1.53055 -0.817396)
(-0.704182 0.626906 -1.49321)
(-1.15623 0.0476765 -0.892035)
(-1.10097 0.526703 0.248294)
(-0.853704 0.915146 0.839988)
(-0.682396 1.27007 1.39135)
(-0.706018 0.409262 1.18475)
(0.794413 -0.4704 0.45778)
(0.823435 1.35279 -0.754446)
(0.203538 1.56767 -0.309394)
(-0.359077 1.68766 -0.52424)
(-0.233595 1.54316 -0.526949)
(0.00680735 1.55873 -0.589067)
(0.25131 1.08126 -0.86713)
(-0.390914 0.35202 -1.01193)
(-1.10361 0.2641 -1.26201)
(-1.31716 0.491901 -0.713071)
(-0.83953 0.720089 -0.674909)
(-0.0934994 1.08701 0.0725449)
(1.53655 0.858446 -0.0847606)
(1.15775 -0.184517 -0.398381)
(-1.28829 1.80861 0.15734)
(-0.867356 2.47592 0.0728552)
(-0.998223 2.11799 -0.0231995)
(-0.87347 2.81785 0.233252)
(-0.352361 2.77996 0.259152)
(-0.382549 2.56789 0.105822)
(-1.06409 2.3568 -0.0677891)
(-0.21613 3.18475 0.677646)
(-0.269936 3.16953 0.505999)
(-0.460453 3.05016 0.273768)
(-0.41323 2.80938 0.102504)
(-0.921725 2.51414 0.273937)
(-0.44797 3.39516 0.921132)
(-0.136658 3.37825 0.874971)
(0.103364 3.33879 0.783739)
(0.130869 3.23815 0.485525)
(-0.678906 3.13298 0.144216)
(-0.726759 2.72493 0.0757405)
(-0.454068 3.80982 1.22993)
(-0.0403461 3.7261 1.13558)
(-0.152339 3.6784 1.02779)
(0.463112 3.57105 0.709371)
(0.545046 3.57312 0.727503)
(0.230605 3.70535 0.084256)
(-0.544809 3.18574 0.447545)
(-0.516452 4.0576 1.94647)
(-0.091519 3.81941 2.10757)
(-0.0991915 3.57952 1.8328)
(0.521471 3.45643 1.60139)
(0.407264 3.74438 1.23069)
(0.643439 4.0725 1.13084)
(0.364175 4.34873 0.401548)
(-0.462134 3.55065 0.101226)
(-0.335981 4.31413 2.82876)
(-0.26277 4.18906 2.86294)
(-0.226167 4.10969 2.53441)
(0.468407 3.83356 2.25525)
(1.03979 3.73387 1.41878)
(0.937843 3.94763 1.23863)
(0.823752 4.61496 0.814972)
(1.68294 4.47279 1.12785)
(-0.192526 4.24807 -0.851615)
(-0.379923 2.988 2.19333)
(-0.0864399 3.09565 1.86203)
(0.18322 2.96126 1.72193)
(0.718093 2.22009 1.26742)
(1.41311 1.84703 0.749372)
(1.30001 3.0194 0.936659)
(0.203685 3.34059 1.07206)
(-0.308977 3.62584 0.890516)
(0.122835 4.15491 2.16942)
(0.280639 5.51699 0.493454)
(-1.97525 2.04051 0.808539)
(-0.710799 1.82147 0.0745651)
(0.171246 1.47814 -0.616899)
(-0.075636 1.14961 -0.893082)
(0.767513 0.347426 -1.1288)
(0.486932 0.166365 -0.62986)
(0.344202 1.50064 -0.176915)
(0.909034 1.62104 1.39425)
(0.114967 2.22594 2.53992)
(-0.0826711 3.12118 2.02774)
(0.824207 3.70651 0.945795)
(0.198483 1.60695 -0.681067)
(-0.39087 1.407 -0.831998)
(0.0491055 1.30224 -1.36803)
(0.08223 1.26102 -1.49434)
(0.13422 1.16983 -1.8958)
(-0.237969 0.408617 -1.8962)
(-0.1379 0.0262448 -0.58302)
(-0.509615 0.349211 0.770783)
(-0.599406 0.580164 1.32792)
(-0.194914 0.482905 2.60983)
(-1.78814 -0.319159 2.52563)
(-1.3272 0.559143 1.35227)
(0.525186 1.27637 -1.08222)
(0.0926967 1.60829 -0.927669)
(-0.204344 1.6587 -1.06757)
(-0.0453077 1.84576 -0.992591)
(-0.346535 1.71351 -1.15302)
(-0.182059 1.57923 -0.637612)
(-0.645111 0.638921 -1.49474)
(-1.17414 0.0213563 -0.960027)
(-1.16726 0.49341 0.151362)
(-0.8631 0.817961 0.881037)
(-0.649986 1.34213 1.31778)
(-0.932708 0.535588 1.18422)
(0.467134 -0.234192 0.553053)
(1.29593 0.962047 -0.310296)
(0.769021 1.33653 -0.690113)
(0.229672 1.51174 -0.276091)
(-0.317553 1.6747 -0.537369)
(-0.239839 1.53123 -0.526439)
(0.0196704 1.59158 -0.585299)
(0.292884 1.03825 -0.890535)
(-0.352446 0.332353 -0.989115)
(-1.09065 0.264432 -1.28323)
(-1.32484 0.49188 -0.738531)
(-0.833906 0.713629 -0.751383)
(-0.124523 1.04659 0.0531622)
(1.54233 0.832532 -0.0774301)
(1.12094 -0.20724 -0.358651)
(-1.05645 1.82158 -0.0981913)
(-0.923587 2.33213 0.0407421)
(-1.22215 1.8852 0.156862)
(-0.483547 2.63024 0.450841)
(-0.376888 2.57049 0.0779206)
(-0.814082 2.18389 -0.0188791)
(-0.379422 2.99826 0.497575)
(-0.732559 2.88556 0.175237)
(-0.325076 2.78865 0.239752)
(-0.154198 2.65628 0.182005)
(-0.742672 2.44546 -0.00415925)
(-0.32719 3.25005 0.74545)
(0.0696717 3.19522 0.714422)
(-0.132237 3.1309 0.530304)
(-0.373464 3.08296 0.0203394)
(-0.479729 2.90499 -0.0141818)
(-0.789889 2.56825 0.274188)
(-0.572855 3.49206 1.04582)
(-0.0607935 3.5018 0.735308)
(0.349222 3.49422 0.867163)
(0.570107 3.34184 0.761933)
(0.179639 3.26824 0.470947)
(-0.710014 3.13568 0.125639)
(-0.756818 2.88405 -0.0584622)
(-0.226913 3.86015 1.11549)
(-0.0881269 3.69722 1.34304)
(0.254243 3.77679 1.14569)
(0.477003 3.67206 1.01069)
(0.835342 3.69641 0.663588)
(0.91589 3.63206 0.841486)
(-0.550339 3.77324 0.105395)
(-0.479534 3.23423 0.40987)
(-0.75079 4.19428 1.64855)
(-0.560513 3.9685 1.81368)
(-0.425208 3.91247 1.76708)
(0.301488 3.46836 1.86708)
(0.588331 3.54012 1.62775)
(0.877415 3.84764 1.38812)
(0.935571 4.24906 1.32149)
(0.283938 4.55567 0.0183181)
(-0.385543 3.57794 0.144666)
(-0.0871625 4.44267 2.67751)
(-0.313317 4.18588 2.9421)
(-0.717853 4.20083 2.72077)
(0.274595 3.87703 2.56548)
(0.564309 3.75899 2.07548)
(0.124379 3.90878 1.3798)
(0.419722 4.18019 1.3094)
(2.49918 4.13898 0.931268)
(2.84671 3.95637 1.38097)
(-0.498473 4.48 -0.78435)
(-0.410711 2.52606 2.49342)
(-0.922951 2.93957 2.17174)
(-0.128815 3.02108 1.9396)
(0.382371 2.90286 1.77404)
(0.82059 2.05707 1.19031)
(1.40607 1.74882 0.918526)
(0.745958 3.00586 1.35097)
(0.328344 3.09089 1.07404)
(0.113765 3.55604 0.834361)
(0.602557 4.35298 2.20427)
(0.579939 5.69875 0.455532)
(-1.28725 1.65676 0.361742)
(-1.82823 2.07372 0.635767)
(-0.556955 1.81484 -0.106152)
(0.0953467 1.6505 -0.279524)
(-0.0341121 1.24262 -0.958041)
(0.477003 0.446785 -1.33366)
(0.255155 0.106621 -0.961914)
(0.314386 1.15938 -0.373405)
(0.668467 1.1566 1.49891)
(-0.279245 2.20768 2.05898)
(0.032651 3.01735 1.84338)
(1.72624 3.1007 1.00651)
(0.477921 1.54214 -0.839745)
(0.178181 1.44122 -0.737284)
(-0.336372 1.3711 -0.882006)
(0.149027 1.21255 -1.54529)
(0.0291089 1.27157 -1.61678)
(0.231804 1.19336 -2.05732)
(-0.300831 0.407658 -2.02954)
(-0.260842 -0.0411868 -0.779619)
(-0.585082 0.28262 0.705134)
(-0.574366 0.456491 1.11427)
(0.204644 0.0826805 2.4965)
(-1.63124 -0.60116 2.4908)
(-1.50189 1.06958 1.53956)
(1.26955 0.792245 -1.24585)
(0.500429 1.26729 -1.07343)
(0.101281 1.59107 -0.877346)
(-0.194748 1.65604 -1.06859)
(-0.119433 2.00634 -0.766689)
(-0.285067 1.68266 -1.1839)
(-0.174373 1.58285 -0.505344)
(-0.618508 0.635588 -1.46615)
(-1.18046 -0.00787834 -1.02765)
(-1.22505 0.460756 0.0762695)
(-0.878233 0.792105 0.851358)
(-0.65673 1.36583 1.26707)
(-0.954518 0.626345 1.04366)
(0.267768 -0.0968816 0.60733)
(1.25464 0.0072349 -0.966415)
(1.29565 0.969645 -0.139211)
(0.738457 1.32465 -0.599176)
(0.205977 1.51415 -0.247503)
(-0.414599 1.68762 -0.454594)
(-0.250503 1.5085 -0.495984)
(0.0268597 1.6002 -0.583346)
(0.368937 0.991932 -0.894105)
(-0.32623 0.314325 -0.972442)
(-1.10663 0.253796 -1.27465)
(-1.32979 0.474416 -0.77628)
(-0.840231 0.690177 -0.910867)
(-0.0955671 0.990129 -0.00869945)
(1.5379 0.796615 -0.0855285)
(1.1131 -0.225128 -0.320764)
(-0.553638 2.19965 0.0549701)
(-0.962255 1.88007 -0.0753343)
(-0.668167 2.49846 -0.0328206)
(-0.975036 2.3193 0.0173921)
(-1.17956 1.92381 0.161667)
(-0.436797 2.58726 0.42862)
(-0.458095 2.62522 0.412484)
(-0.506371 2.49836 0.146973)
(-0.737198 2.21171 -0.00161083)
(-0.53178 2.9831 0.686638)
(-0.200091 2.97414 0.522477)
(-0.631829 2.9452 0.16842)
(-0.259244 2.85619 0.202206)
(-0.217642 2.6464 0.149167)
(-0.60441 2.48802 0.0130994)
(-0.388101 3.36237 0.873246)
(-0.0113669 3.233 0.773423)
(0.456607 3.26961 0.772747)
(0.289013 3.05574 0.508846)
(-0.157105 3.08171 0.159017)
(-0.464289 3.04743 -0.0217563)
(-0.542532 2.72612 0.272028)
(-0.533858 3.55682 0.950124)
(-0.290499 3.5776 0.991262)
(0.0336474 3.55754 0.774825)
(0.635865 3.48601 0.767172)
(0.668835 3.286 0.786265)
(0.294996 3.25174 0.449372)
(-0.682482 3.26922 0.104541)
(-0.948176 3.02417 -0.283832)
(-0.37254 3.74085 1.32169)
(-0.0904825 3.86987 1.20965)
(0.0736354 3.7135 1.30891)
(0.263602 3.80953 1.01989)
(0.927432 3.68915 1.08039)
(1.05466 3.7833 0.647464)
(0.663242 3.84635 0.877157)
(-0.203628 3.70168 0.0645019)
(-0.424675 3.31258 0.412494)
(-0.653663 3.98866 1.74121)
(-0.530553 4.21875 1.60852)
(-0.348803 4.12889 1.71655)
(0.0427912 3.85376 1.81546)
(0.333889 3.55342 1.69685)
(0.547693 3.54896 1.75556)
(0.89306 4.04871 1.52705)
(1.38965 4.31137 1.43924)
(0.479043 4.41979 0.0663943)
(-0.213824 3.69243 0.177484)
(0.521277 4.1486 2.30167)
(-0.283823 4.36139 2.73399)
(0.582134 4.27356 2.69691)
(0.640815 3.94152 2.90609)
(0.556326 3.79201 2.56095)
(0.519259 3.73377 2.08216)
(0.324862 4.16079 1.39043)
(0.757262 4.187 1.53271)
(3.72024 3.47197 1.30478)
(4.16099 3.60887 1.46469)
(-0.111304 4.68781 -0.510111)
(0.919673 2.66215 -0.0318475)
(-0.583703 2.55227 2.63038)
(0.00450564 3.11373 2.12838)
(0.0989585 3.1504 1.662)
(0.555761 2.84624 1.63164)
(0.935887 1.93159 1.41743)
(1.26317 1.6795 1.15907)
(0.535989 2.95053 1.4642)
(0.370207 2.98398 1.0151)
(0.294131 3.5889 0.618522)
(0.9301 4.44908 2.28884)
(0.976585 5.49635 0.376619)
(0.420821 1.23627 -0.563873)
(-1.23587 1.58956 0.0446149)
(-1.75487 2.05869 0.339496)
(-0.462008 1.83518 -0.337995)
(0.379697 1.56858 -0.909556)
(0.231468 1.08912 -1.43622)
(0.465564 0.457939 -1.52843)
(0.228661 0.0910518 -1.2463)
(0.285062 0.816067 -0.54775)
(0.384607 0.972625 0.983775)
(-0.25305 2.0654 1.88804)
(0.473872 2.52531 1.7861)
(2.54597 2.4654 1.15952)
(0.633181 1.06566 -1.19434)
(0.620385 1.45028 -0.930404)
(-0.110409 1.37706 -0.765062)
(-0.0437519 1.10602 -1.2157)
(0.288336 1.18998 -1.58644)
(0.0744728 1.36153 -1.7116)
(0.347191 1.16776 -2.03969)
(-0.362359 0.390735 -2.08322)
(-0.401803 -0.0954165 -0.971205)
(-0.670283 0.2365 0.643149)
(-0.363794 0.261882 1.05576)
(0.360958 -0.293275 2.35594)
(-1.33091 -0.727663 2.30305)
(-1.12301 1.3395 1.70474)
(1.56159 0.50223 -1.19147)
(1.35345 0.762346 -1.19501)
(0.443467 1.28372 -1.0486)
(0.064895 1.54957 -0.868087)
(-0.154445 1.70752 -1.06736)
(-0.034101 1.93892 -0.982246)
(-0.31555 1.70939 -1.07981)
(-0.13226 1.65067 -0.251088)
(-0.559078 0.648538 -1.47307)
(-1.17172 -0.0414635 -1.10543)
(-1.2812 0.423642 0.00848362)
(-0.898601 0.759721 0.809279)
(-0.554325 1.35361 1.09683)
(-1.09224 0.61793 0.943399)
(0.166128 -0.0629214 0.601695)
(1.45586 0.0791753 -1.27385)
(1.26796 0.000702021 -0.793426)
(1.25644 0.951199 -0.0934927)
(0.708416 1.32314 -0.527692)
(0.191629 1.50648 -0.189182)
(-0.392754 1.7329 -0.474614)
(-0.250576 1.51284 -0.431698)
(0.0458108 1.54915 -0.542921)
(0.363295 0.986251 -0.893616)
(-0.298025 0.296747 -0.959093)
(-1.08645 0.251526 -1.28868)
(-1.33328 0.487836 -0.795062)
(-0.856179 0.683418 -0.853384)
(-0.0624956 0.93771 -0.0792735)
(1.5177 0.734601 -0.118127)
(1.09151 -0.216489 -0.337789)
(-0.992056 1.74612 -0.0482759)
(-0.595389 2.32883 0.0236817)
(-0.25541 2.25801 0.0611159)
(-0.783232 1.96537 -0.0283124)
(-0.579764 2.48008 0.204106)
(-0.497399 2.52377 0.0475334)
(-0.816235 2.3263 0.0208563)
(-0.970805 2.05107 0.164539)
(-0.401036 2.68066 0.345389)
(-0.331937 2.64882 0.36396)
(-0.18934 2.67451 0.360542)
(-0.587562 2.47137 0.222925)
(-0.629768 2.26935 0.0176713)
(-0.379255 3.11796 0.585657)
(-0.19451 2.98677 0.784019)
(0.242853 2.96958 0.537957)
(-0.274519 2.91087 0.26487)
(-0.24151 2.86598 0.168183)
(-0.243841 2.7313 0.00914804)
(-0.569911 2.55623 -0.00960117)
(-0.392367 3.32017 0.96768)
(-0.134901 3.40053 0.790614)
(0.258075 3.25138 0.801552)
(0.411007 3.20559 0.720048)
(0.381874 3.02622 0.448071)
(0.0271755 3.09698 0.160507)
(-0.346188 3.19717 -0.0365744)
(-0.391926 2.78715 0.17407)
(-0.758748 3.62325 1.0424)
(-0.342877 3.64343 0.936945)
(-0.221894 3.61607 0.909675)
(0.312581 3.61114 0.789142)
(0.770511 3.48737 0.684078)
(0.814974 3.27461 0.725597)
(0.529094 3.29353 0.352691)
(-0.457461 3.40662 0.209127)
(-1.01746 3.07475 -0.633773)
(-0.231046 3.72498 1.28984)
(-0.158647 3.7419 1.36787)
(0.220292 3.84975 1.31254)
(0.354211 3.7507 1.3768)
(0.967641 3.75214 1.06821)
(1.12327 3.71283 1.07656)
(1.0096 3.88791 0.706855)
(0.822643 3.83614 0.858999)
(0.0953186 3.57825 -0.0173305)
(-0.60009 3.41691 0.195547)
(-0.306519 3.99732 1.89593)
(-0.473662 4.12373 1.67661)
(-0.428581 4.17991 1.6379)
(-0.105981 4.08628 1.81394)
(0.180961 3.88764 1.769)
(0.895849 3.63681 1.32134)
(1.19335 3.64386 1.58596)
(1.1241 4.10674 1.59781)
(1.70089 4.19426 1.38509)
(0.939017 3.8509 0.388173)
(0.0259669 3.8172 0.187253)
(0.629682 3.35669 2.09415)
(0.348534 4.12474 2.45841)
(0.500547 4.12732 2.83326)
(0.487179 3.84172 2.9699)
(0.23617 3.87305 2.83981)
(0.247824 3.90786 2.55428)
(0.638377 3.74713 2.0502)
(0.390392 4.30975 1.58668)
(1.62061 4.05712 1.51281)
(4.40014 3.4455 1.13371)
(3.17021 4.86586 1.70967)
(0.301223 4.6721 -0.23423)
(1.276 2.22416 -0.181671)
(0.432562 2.44699 0.739385)
(-0.342859 2.71881 2.54744)
(-0.183696 3.08655 2.21508)
(0.211501 3.03102 1.71706)
(0.596602 2.67484 1.62811)
(0.914977 1.99622 1.35927)
(1.02348 1.67163 1.4524)
(0.765222 2.57161 1.5458)
(0.714609 2.78515 1.11515)
(2.47772 2.66856 1.61722)
(2.63409 3.40414 2.90451)
(2.45598 4.93431 -0.0542874)
(0.675729 1.25671 -0.932564)
(0.232665 1.25371 -0.46748)
(-1.24846 1.56021 -0.164744)
(-1.67208 1.98056 0.258327)
(-0.296033 1.90416 -0.578716)
(0.502725 1.59496 -1.07857)
(0.416711 1.0014 -1.75313)
(0.406608 0.40827 -1.76892)
(0.161504 -0.120423 -1.74055)
(0.137247 0.480149 -0.865395)
(0.181901 0.773318 0.687198)
(-0.659248 2.24939 1.53318)
(1.20257 2.05035 1.74618)
(5.13772 0.154063 1.89236)
(0.795276 0.948729 -0.944074)
(0.71304 1.00518 -1.20452)
(0.851338 1.2863 -0.929157)
(-0.253135 1.36498 -0.799736)
(-0.069313 1.15591 -1.06361)
(0.376602 1.14578 -1.58654)
(0.163741 1.47403 -1.84636)
(0.571186 1.21844 -1.7744)
(-0.380366 0.415446 -2.02017)
(-0.537165 -0.112048 -1.12115)
(-0.762449 0.201961 0.512545)
(-0.217534 0.00353848 1.0786)
(0.288836 -0.43055 2.22778)
(-1.20586 -0.608469 2.06954)
(-0.448375 1.54183 1.58887)
(1.76255 0.632516 -1.12898)
(1.71865 0.456719 -1.04769)
(1.43803 0.714267 -1.04266)
(0.475238 1.271 -1.00002)
(-0.0346196 1.579 -0.803943)
(-0.215023 1.75147 -1.05379)
(-0.106034 2.10202 -0.534496)
(-0.377658 1.75497 -0.926247)
(-0.107103 1.66443 -0.167943)
(-0.470005 0.626336 -1.49656)
(-1.21811 -0.0879372 -1.13741)
(-1.33396 0.381663 -0.0576096)
(-0.901907 0.749917 0.666784)
(-0.379528 1.30577 0.939329)
(-1.03648 0.706 0.903576)
(0.135013 -0.0731568 0.586017)
(1.4173 0.229654 -1.29013)
(1.4444 0.0921758 -1.20603)
(1.327 -0.0104514 -0.647134)
(1.22939 0.960637 -0.0474357)
(0.676153 1.32615 -0.470506)
(0.13277 1.52439 -0.185984)
(-0.397996 1.74613 -0.459887)
(-0.24216 1.50301 -0.422499)
(0.0438969 1.54328 -0.547722)
(0.381218 0.965715 -0.882756)
(-0.268965 0.277428 -0.932375)
(-1.06797 0.25557 -1.30185)
(-1.32641 0.459202 -0.854709)
(-0.882107 0.684651 -0.762245)
(-0.0570329 0.89454 -0.123292)
(1.4486 0.721072 -0.108844)
(1.08852 -0.210054 -0.350033)
(-0.758054 1.74311 -0.0204172)
(-0.87948 2.03719 -0.0580055)
(-0.944345 1.78321 -0.0527881)
(-0.661406 2.36067 0.144889)
(-0.569803 2.30482 0.0169374)
(-0.103957 2.28753 0.0742939)
(-0.529433 2.05543 0.0480885)
(-0.39646 2.55805 0.249869)
(-0.398574 2.4993 0.243639)
(-0.416026 2.54297 0.00700278)
(-0.382638 2.43096 0.0558978)
(-0.826222 2.12903 0.0580264)
(-0.21089 2.6954 0.673641)
(-0.265467 2.69197 0.37974)
(-0.21614 2.73166 0.333703)
(-0.327146 2.74997 0.18753)
(-0.140484 2.57254 0.235187)
(-0.456268 2.37661 0.0367114)
(-0.368265 3.11871 0.764237)
(-0.201488 3.12963 0.620511)
(0.0809969 2.95824 0.740469)
(0.11307 2.97687 0.52487)
(0.0459382 2.79831 0.319433)
(0.0529608 2.86228 -0.0932447)
(-0.093317 2.84262 0.11758)
(-0.414579 2.61118 0.0342603)
(-0.45639 3.34417 0.981354)
(-0.0436178 3.37912 0.898961)
(0.0175768 3.41835 0.763127)
(0.366726 3.25593 0.807385)
(0.626548 3.08407 0.737086)
(0.576435 3.05899 0.402794)
(0.236849 3.09024 0.29918)
(-0.0918775 3.23682 0.00898242)
(0.0290756 2.80602 0.110861)
(-0.679271 3.60571 1.25028)
(-0.580429 3.65096 1.05063)
(-0.18539 3.75697 0.969781)
(0.0195502 3.62083 0.812709)
(0.40565 3.57155 0.812065)
(0.629402 3.47888 0.737014)
(0.759331 3.31905 0.666755)
(0.665107 3.45539 0.299485)
(-0.0461023 3.40816 0.224809)
(-0.663239 3.13528 -0.773114)
(-0.2169 3.53576 1.5599)
(0.0426827 3.76812 1.33404)
(0.0488229 3.74624 1.37585)
(0.51488 3.8224 1.36816)
(0.571981 3.77337 1.39177)
(1.01626 3.79455 1.06561)
(1.1915 3.75976 0.917616)
(1.21839 3.80637 0.757784)
(1.33318 3.65108 0.839222)
(0.822477 3.37176 -0.111849)
(-0.5817 3.42763 0.072275)
(0.278943 3.84624 2.21295)
(-0.150583 4.01786 1.96415)
(-0.295968 4.13578 1.66911)
(-0.0224917 4.08712 1.7329)
(0.271728 4.04438 1.84768)
(0.540404 3.92187 1.72152)
(0.935732 3.57274 1.6197)
(1.33476 3.7381 1.73819)
(1.70606 3.9621 1.68969)
(2.40008 3.53908 1.26975)
(1.3218 3.56737 0.691423)
(0.349774 3.90691 -0.0471219)
(0.685918 3.39122 2.10384)
(0.697461 3.18391 2.19585)
(0.857029 3.96499 2.74302)
(0.497087 4.04048 2.72385)
(0.50995 3.96915 2.67655)
(0.154216 4.00144 2.83549)
(2.68675 2.70045 2.71623)
(1.0868 3.59649 2.13714)
(1.29899 4.15806 1.58766)
(2.44294 3.5741 1.8492)
(4.05938 3.94194 1.05605)
(3.2408 5.36428 1.70728)
(1.02419 4.46854 0.190851)
(-0.265827 1.93956 0.3273)
(2.12695 2.04152 -1.63825)
(0.379812 2.03888 1.06061)
(-0.273714 2.81022 2.53989)
(0.152708 3.18993 2.01485)
(0.191266 3.03536 1.71832)