/*--------------------------------*- C++ -*----------------------------------*\
  =========                 |
  \\      /  F ield         | OpenFOAM: The Open Source CFD Toolbox
   \\    /   O peration     | Website:  https://openfoam.org
    \\  /    A nd           | Version:  7
     \\/     M anipulation  |
\*---------------------------------------------------------------------------*/
FoamFile
{
    version     2.0;
    format      ascii;
    class       volScalarField;
    location    "2";
    object      p;
}
// * * * * * * * * * * * * * * * * * * * * * * * * * * * * * * * * * * * * * //

dimensions      [0 2 -2 0 0 0 0];

internalField   nonuniform List<scalar> 
18750
(
-67.0024
-66.1675
-66.9169
-67.0506
-67.3772
-66.7348
-66.256
-69.0389
-66.8328
-67.1435
-67.4837
-59.5722
-68.18
-68.7034
-66.8461
-66.308
-69.9118
-69.0086
-66.8209
-67.2541
-62.9986
-65.7702
-69.1207
-67.3571
-53.1329
-68.6428
-69.0355
-68.6139
-67.1014
-66.3395
-70.1871
-69.9125
-68.9975
-66.8975
-67.3737
-60.9568
-64.4771
-63.5884
-67.435
-67.4805
-70.4787
-67.1207
-67.7065
-63.075
-68.8587
-69.0178
-69.0191
-68.5152
-67.2827
-66.3636
-70.4631
-70.2429
-69.9211
-68.9965
-67.0478
-67.4965
-59.5818
-62.6385
-61.1193
-65.7174
-65.6906
-63.7848
-67.6287
-68.5069
-69.5181
-71.4678
-67.6999
-67.1416
-67.9634
-63.5538
-69.0049
-69.953
-68.9457
-69.0076
-68.4527
-67.3405
-66.4087
-70.8358
-70.4451
-70.2931
-69.9399
-69.0042
-67.234
-67.6053
-57.7611
-59.5723
-59.9858
-62.6361
-63.0081
-61.1342
-66.2079
-66.6108
-66.5906
-64.3334
-67.476
-68.2177
-69.8483
-71.0643
-72.0435
-68.7111
-67.7576
-67.1818
-68.2634
-64.8647
-69.0455
-70.2511
-69.7289
-68.9365
-69.0076
-68.4179
-67.3651
-66.4718
-70.982
-70.8188
-70.4479
-70.2805
-69.9647
-69.0136
-67.4127
-67.7154
-56.81
-58.1669
-57.8563
-60.7203
-59.9879
-59.9179
-63.3427
-62.9314
-63.473
-60.7793
-65.9871
-66.8883
-67.8515
-67.3824
-64.6123
-67.9437
-67.7943
-68.8937
-71.1331
-72.241
-72.5571
-69.1232
-68.7585
-67.8763
-67.645
-68.6304
-66.2855
-68.7665
-70.4184
-70.2198
-69.7063
-68.9747
-69.0111
-68.3492
-67.4774
-66.5389
-71.2532
-70.9733
-70.8085
-70.4642
-70.2613
-69.9824
-68.9962
-67.5653
-67.8171
-55.8235
-56.9753
-56.6952
-58.3002
-58.5675
-57.8739
-60.7363
-61.0825
-60.2727
-60.1577
-63.2605
-63.637
-63.5305
-63.79
-60.8088
-66.2625
-66.3541
-67.5246
-69.2448
-68.2742
-64.705
-68.1322
-68.1091
-68.182
-69.5761
-72.1231
-73.1421
-72.1013
-69.1592
-69.1741
-68.8291
-68.0769
-67.9958
-68.9365
-67.69
-68.3208
-70.7209
-70.4014
-70.2156
-69.7563
-69.003
-69.0397
-68.3466
-67.6019
-66.5839
-71.3626
-71.2342
-70.9617
-70.8055
-70.4866
-70.2608
-70.0039
-68.9367
-67.7477
-67.8816
-55.1499
-55.7962
-55.8022
-57.1087
-57.0161
-56.9299
-58.5807
-58.4464
-58.9319
-57.7976
-61.0429
-60.9246
-61.3481
-60.2509
-60.2881
-63.7769
-63.2954
-64.0191
-64.1534
-64.3809
-60.4446
-66.2835
-66.5164
-67.0046
-68.3883
-70.4665
-68.8459
-64.7507
-67.8537
-68.3025
-68.3558
-68.5551
-70.1824
-72.7677
-73.4577
-71.4276
-69.2859
-69.1648
-69.1899
-68.8478
-68.2434
-68.3237
-69.3163
-69.2717
-68.1965
-70.7593
-70.7574
-70.3787
-70.1925
-69.6958
-68.9629
-69.0817
-68.4368
-67.6177
-66.6262
-71.2421
-71.3426
-71.2172
-70.9489
-70.8063
-70.5092
-70.2791
-70.033
-68.9571
-68.0028
-67.923
-55.3249
-55.1373
-55.9353
-55.9785
-55.7112
-57.0916
-57.2585
-57.0929
-57.0377
-58.6664
-58.685
-58.5414
-58.9911
-57.849
-61.1232
-61.1487
-61.2799
-61.6035
-60.3411
-60.3202
-64.0205
-63.7979
-63.7673
-64.6605
-64.8472
-64.87
-60.3454
-66.4517
-66.5927
-66.8488
-67.4054
-69.1788
-71.2854
-69.7852
-64.1331
-68.1262
-67.9742
-68.4696
-68.5956
-68.9333
-70.651
-72.9963
-73.0544
-70.8011
-69.3685
-69.383
-69.1568
-69.1935
-68.8876
-68.3858
-68.6483
-69.6717
-70.0836
-68.2311
-70.7138
-70.7485
-70.725
-70.3631
-70.1605
-69.5914
-68.9442
-69.1158
-68.5326
-67.7171
-66.6827
-70.9971
-71.2274
-71.3261
-71.1934
-70.9428
-70.8106
-70.5479
-70.2682
-70.0615
-69.0663
-68.2485
-67.9468
-54.4343
-55.1204
-55.3035
-55.0635
-55.9138
-55.9789
-55.943
-55.9456
-57.2731
-57.229
-57.3634
-57.3069
-57.0621
-58.7531
-58.7377
-58.8626
-58.6879
-59.0206
-57.8025
-61.4028
-61.2543
-61.5888
-61.4436
-61.7848
-60.3766
-60.3026
-63.9144
-64.205
-64.0996
-64.2449
-65.3535
-65.2969
-64.2849
-60.3238
-66.7364
-66.6516
-66.8812
-67.3072
-68.0345
-70.0535
-71.5993
-69.2494
-64.1324
-68.0363
-68.274
-68.1221
-68.7865
-68.8854
-69.5367
-71.0911
-72.9212
-72.3253
-70.3673
-69.219
-69.5001
-69.4276
-69.2076
-69.2583
-68.9809
-68.5243
-68.8769
-69.9014
-69.9664
-68.2231
-70.3879
-70.7427
-70.8285
-70.663
-70.3585
-70.1567
-69.6063
-68.9401
-69.1671
-68.6397
-67.9268
-66.7079
-70.2537
-71.0275
-71.2164
-71.3116
-71.177
-70.9414
-70.8185
-70.601
-70.2678
-70.0901
-69.1585
-68.4602
-67.9676
-53.7957
-54.3987
-54.4641
-55.385
-55.2245
-55.2823
-55.1876
-56.0183
-55.9693
-56.0541
-56.0568
-55.928
-57.2772
-57.3275
-57.1459
-57.4721
-57.2731
-57.1437
-58.7403
-58.8666
-58.7097
-59.0979
-58.5843
-59.1859
-58.0362
-61.2733
-61.3559
-61.4724
-61.936
-61.8769
-62.3966
-59.8165
-60.4278
-64.058
-64.2471
-64.4196
-64.5974
-64.9708
-66.119
-66.1406
-63.8793
-60.6994
-66.9367
-66.727
-66.8035
-67.3967
-67.8799
-68.9865
-70.8091
-71.9728
-68.1651
-64.1183
-67.6227
-68.2341
-68.4202
-68.2944
-69.0768
-69.2645
-69.9711
-71.4254
-72.6672
-71.6482
-69.7602
-69.4849
-69.2806
-69.6181
-69.5209
-69.2644
-69.3428
-69.0299
-68.6716
-69.0767
-69.9127
-69.7999
-68.1271
-69.8744
-70.4278
-70.7636
-70.8292
-70.652
-70.3609
-70.1585
-69.6268
-68.9608
-69.2173
-68.7799
-68.0281
-66.7236
-70.3364
-70.2534
-71.046
-71.2081
-71.2968
-71.1614
-70.9408
-70.8289
-70.6571
-70.3038
-70.1329
-69.2769
-68.612
-68.0253
-53.4553
-53.9533
-53.8332
-54.4925
-54.4946
-54.5072
-55.3387
-55.3315
-55.2244
-55.3136
-55.203
-56.0891
-56.0629
-55.9973
-56.0649
-56.1622
-55.9915
-57.4882
-57.2396
-57.12
-57.3363
-57.5654
-57.2636
-57.1448
-59.0527
-58.8373
-58.8629
-58.9167
-59.2956
-58.5184
-58.4361
-58.1165
-61.4024
-61.3636
-61.5012
-61.7031
-62.0652
-62.337
-62.8015
-60.5254
-60.2292
-64.042
-64.2589
-64.4838
-64.6893
-65.0253
-65.561
-66.9673
-67.1123
-63.8089
-60.5822
-66.4297
-67.093
-66.9793
-67.2471
-67.8696
-68.2726
-69.5598
-71.192
-71.4407
-68.9756
-64.0364
-67.5627
-67.776
-68.4317
-68.5938
-68.5375
-69.2994
-69.6174
-70.2191
-71.7029
-72.2107
-70.9412
-69.0559
-69.2221
-69.5659
-69.3815
-69.7111
-69.5874
-69.325
-69.4512
-69.1252
-68.776
-69.2702
-69.7625
-69.7482
-67.9559
-70.0795
-69.843
-70.4552
-70.7863
-70.7399
-70.6701
-70.3698
-70.1627
-69.6364
-69.0143
-69.2326
-68.8851
-67.9896
-66.7616
-70.7546
-70.3517
-70.2686
-71.0552
-71.202
-71.2828
-71.1483
-70.943
-70.838
-70.6966
-70.3688
-70.1955
-69.4471
-68.6896
-68.0816
-53.5984
-53.5759
-53.8782
-53.9007
-53.9492
-54.5414
-54.5588
-54.5377
-54.5813
-55.3651
-55.2912
-55.2222
-55.2655
-55.2777
-55.1702
-56.3473
-56.0574
-56.0019
-56.1302
-55.9928
-56.1788
-55.9203
-57.6606
-57.3335
-57.3137
-57.254
-57.4827
-57.433
-57.177
-57.1889
-59.1483
-59.0943
-59.0291
-58.8617
-59.0238
-59.4514
-58.595
-58.1642
-58.1387
-61.8224
-61.4708
-61.4182
-61.787
-61.9413
-62.3784
-62.684
-62.0401
-61.3758
-59.9262
-63.8238
-64.0527
-64.2831
-64.5644
-65.0344
-65.5849
-66.0865
-67.7867
-66.7741
-63.5326
-60.49
-66.3541
-66.572
-67.2686
-67.3458
-67.5809
-68.3553
-68.9744
-69.9954
-71.1839
-70.4917
-68.0511
-63.7741
-67.6146
-67.5776
-68.013
-68.6337
-68.7654
-68.805
-69.5742
-69.9078
-70.3738
-71.9097
-71.5689
-70.2696
-68.296
-69.7137
-69.2155
-69.6895
-69.4844
-69.811
-69.6548
-69.3991
-69.5839
-69.259
-68.8214
-69.3581
-69.6524
-69.606
-67.7049
-70.97
-70.0736
-69.8219
-70.4981
-70.8485
-70.7386
-70.6623
-70.387
-70.1745
-69.6556
-69.0413
-69.26
-68.9135
-67.9483
-66.828
-71.1255
-70.7707
-70.3669
-70.2937
-71.07
-71.1913
-71.2693
-71.1319
-70.9489
-70.8492
-70.7274
-70.4516
-70.225
-69.569
-68.7819
-68.1085
-53.2784
-53.5832
-53.5508
-53.5994
-53.9708
-53.9565
-54.014
-54.034
-54.5959
-54.4154
-54.5298
-54.5724
-54.5569
-55.4659
-55.3699
-55.2823
-55.2912
-55.2953
-55.2426
-55.1447
-56.4709
-56.2221
-56.0947
-56.071
-56.1351
-55.9403
-56.1294
-55.9237
-57.8169
-57.5831
-57.4847
-57.3504
-57.3816
-57.5213
-57.3826
-56.793
-57.0186
-59.4322
-59.2258
-59.2587
-59.0538
-59.1355
-59.1645
-59.4356
-58.312
-58.3442
-58.1835
-61.7076
-61.7215
-61.6427
-61.5372
-61.9657
-62.1467
-63.0639
-62.6884
-61.4865
-60.2165
-59.8667
-63.8052
-64.1668
-64.1105
-64.49
-64.8736
-65.657
-66.2712
-66.8144
-67.9941
-65.8392
-63.1199
-60.1659
-66.5907
-66.3775
-66.8903
-67.4375
-67.5196
-68.0262
-68.8824
-69.6621
-70.2394
-70.9112
-69.2041
-67.1751
-63.3946
-68.1117
-67.667
-67.7478
-68.2318
-68.8151
-68.8935
-69.112
-69.8227
-70.1449
-70.3961
-71.6453
-71.2372
-69.8068
-67.3568
-70.7543
-69.6941
-69.2224
-69.7963
-69.5872
-69.9198
-69.7179
-69.4869
-69.694
-69.3595
-68.8446
-69.3402
-69.5946
-69.2812
-67.4051
-71.387
-71.0329
-70.0844
-69.8191
-70.5794
-70.867
-70.7833
-70.6539
-70.418
-70.1733
-69.6794
-69.0771
-69.3086
-68.9568
-68.0437
-66.9376
-71.3409
-71.1616
-70.7786
-70.3823
-70.3134
-71.094
-71.1798
-71.2577
-71.1187
-70.9584
-70.8629
-70.7663
-70.5094
-70.2036
-69.6535
-68.8642
-68.1282
-52.9463
-53.3666
-53.3452
-53.6333
-53.6065
-53.5744
-53.6155
-54.0216
-53.9156
-53.9667
-54.0491
-54.0503
-54.6129
-54.5468
-54.4965
-54.5586
-54.5647
-54.5298
-55.448
-55.4459
-55.231
-55.3702
-55.3044
-55.2005
-55.1916
-55.1344
-56.6601
-56.4277
-56.1082
-56.2672
-56.1078
-56.2083
-55.9387
-56.0018
-55.9177
-57.8218
-57.7461
-57.6054
-57.5742
-57.4984
-57.5804
-57.412
-57.1366
-57.064
-56.9079
-59.6189
-59.3455
-59.3899
-59.1875
-59.2614
-59.186
-59.3864
-59.2795
-58.2149
-58.536
-58.3871
-61.567
-61.8713
-61.668
-61.5757
-61.7501
-61.9893
-62.7139
-63.3281
-62.6337
-61.9626
-60.5408
-60.3042
-64.0275
-63.9926
-64.364
-64.4599
-64.8609
-65.3149
-66.1513
-66.9414
-67.3634
-67.124
-65.6463
-63.2505
-60.0489
-66.7243
-66.6181
-66.5332
-67.2234
-67.6281
-67.5794
-68.4757
-69.3391
-70.1613
-70.1317
-70.3842
-68.4442
-66.7323
-62.8639
-68.5616
-68.1478
-67.7911
-67.9896
-68.3827
-68.9467
-68.9469
-69.4373
-69.9859
-70.4027
-70.4225
-71.311
-71.0953
-69.138
-66.9236
-70.5099
-70.6694
-69.6837
-69.2571
-69.8899
-69.6805
-70.0121
-69.8107
-69.5854
-69.7982
-69.4405
-68.8493
-69.2762
-69.5007
-68.5531
-67.2159
-72.0405
-71.4079
-71.086
-70.107
-69.8332
-70.6772
-70.8445
-70.8239
-70.6514
-70.4528
-70.1728
-69.6953
-69.107
-69.3728
-69.0017
-68.1774
-67.0685
-72.0743
-71.3723
-71.1914
-70.7902
-70.3881
-70.3252
-71.1182
-71.1727
-71.2444
-71.1043
-70.9675
-70.8742
-70.8223
-70.5365
-70.2268
-69.768
-68.9043
-68.1434
-52.7404
-53.0615
-52.9624
-53.3137
-53.3329
-53.3152
-53.6822
-53.5827
-53.6603
-53.6084
-53.6336
-54.0863
-53.9837
-53.9677
-53.9781
-54.0698
-54.0359
-54.7745
-54.576
-54.5735
-54.5638
-54.5331
-54.4922
-54.4884
-55.7113
-55.4596
-55.307
-55.3437
-55.2666
-55.3256
-55.15
-55.1338
-55.0989
-56.736
-56.6115
-56.3329
-56.3584
-56.1852
-56.176
-56.1779
-55.9308
-55.9523
-55.9396
-58.0856
-57.8365
-57.8135
-57.6949
-57.6787
-57.6392
-57.6337
-57.2992
-57.0473
-57.1631
-56.9155
-59.7331
-59.5348
-59.428
-59.4491
-59.3533
-59.2379
-59.3612
-59.5171
-59.1826
-58.443
-58.3926
-58.4453
-61.4308
-61.7259
-61.8418
-61.732
-61.6716
-61.9156
-62.6126
-63.1647
-63.5134
-63.0621
-61.9451
-60.7787
-59.7399
-64.2984
-64.0453
-63.8796
-64.3497
-64.5718
-65.2151
-65.7829
-66.7893
-67.5098
-67.5872
-67.1138
-64.8114
-63.2434
-60.1253
-67.1344
-66.7887
-66.6933
-66.9369
-67.4417
-67.7817
-67.9503
-68.9619
-69.8829
-70.4311
-69.9655
-69.551
-68.0508
-65.9334
-62.4522
-68.4042
-68.6616
-68.2039
-67.911
-68.1676
-68.5814
-69.119
-69.1488
-69.74
-70.2398
-70.3273
-70.2148
-71.0368
-70.9198
-68.1992
-66.7717
-70.5335
-70.4158
-70.5807
-69.6689
-69.2849
-69.9827
-69.7712
-70.1039
-69.889
-69.6465
-69.8973
-69.5002
-68.8323
-69.2443
-69.2588
-67.7376
-67.1262
-72.4616
-71.9845
-71.4179
-71.1356
-70.15
-69.8639
-70.7819
-70.8708
-70.857
-70.6495
-70.4659
-70.1648
-69.6829
-69.0904
-69.442
-69.0329
-68.2864
-67.2156
-72.1686
-72.0959
-71.3976
-71.2197
-70.8126
-70.3895
-70.3352
-71.1409
-71.1652
-71.2308
-71.0905
-70.9756
-70.893
-70.8849
-70.5678
-70.3109
-69.9533
-68.9731
-68.1411
-52.5432
-52.7322
-52.6788
-53.0669
-53.0499
-53.0457
-53.3546
-53.2873
-53.3898
-53.3086
-53.6613
-53.6208
-53.5765
-53.637
-53.6167
-53.6229
-54.1769
-54.0621
-54.0016
-54.0285
-54.0169
-54.0099
-53.9775
-54.8021
-54.6556
-54.6401
-54.562
-54.4917
-54.4057
-54.4816
-54.4698
-55.7988
-55.6473
-55.5361
-55.3682
-55.36
-55.2199
-55.2297
-55.106
-55.0541
-55.1333
-56.8911
-56.6949
-56.599
-56.3555
-56.3335
-56.2193
-56.2278
-56.1247
-55.9515
-55.9039
-55.8468
-58.0838
-57.9732
-57.939
-57.9124
-57.7517
-57.7775
-57.5766
-57.619
-57.3464
-56.6864
-57.0983
-56.715
-59.7088
-59.5857
-59.4839
-59.3591
-59.324
-59.3822
-59.4232
-59.551
-59.5743
-58.9465
-58.7041
-58.2961
-58.6824
-61.6163
-61.5086
-61.7975
-61.6375
-61.7676
-62.087
-62.2959
-63.0402
-63.4171
-63.881
-62.9871
-61.5202
-60.9895
-58.8215
-64.2412
-64.2111
-63.9975
-64.1485
-64.7555
-64.8165
-65.5096
-66.3774
-67.4499
-67.678
-67.8136
-66.0957
-64.3679
-63.0796
-60.3661
-66.7886
-66.9557
-66.836
-66.6957
-67.0517
-67.6201
-68.1007
-69.1558
-69.7112
-70.2399
-70.4107
-69.6564
-68.8222
-67.6219
-65.5785
-61.5913
-68.024
-68.4365
-68.6311
-68.3376
-68.1054
-68.3852
-68.7909
-69.3118
-69.7707
-70.0101
-70.4281
-70.2889
-69.7964
-70.8739
-70.5148
-67.7695
-66.746
-70.4649
-70.5301
-70.3191
-70.498
-69.6835
-69.3205
-70.0733
-69.8684
-70.1666
-69.9513
-69.7389
-69.9546
-69.4905
-68.7857
-69.2199
-68.945
-67.4558
-67.0795
-71.964
-72.6091
-71.9314
-71.4348
-71.1814
-70.2083
-69.9238
-70.8828
-70.9252
-70.8928
-70.6383
-70.4794
-70.1567
-69.6934
-69.084
-69.4952
-69.0493
-68.3497
-67.4014
-71.7474
-72.2193
-72.115
-71.4206
-71.2467
-70.8465
-70.4029
-70.3424
-71.1569
-71.1559
-71.2155
-71.0764
-70.9847
-70.9239
-70.9447
-70.6361
-70.3847
-70.1506
-69.0943
-68.1331
-52.3922
-52.5514
-52.5116
-52.7637
-52.6939
-52.7155
-53.0698
-52.9964
-53.0462
-53.0236
-53.3326
-53.3155
-53.3667
-53.3324
-53.2897
-53.7898
-53.6506
-53.6461
-53.5994
-53.6005
-53.6295
-53.5993
-54.2434
-54.0941
-54.0812
-54.0539
-54.0266
-53.9609
-53.9718
-53.9813
-54.8874
-54.7696
-54.6168
-54.6679
-54.5209
-54.4457
-54.433
-54.4551
-54.443
-55.9085
-55.7619
-55.6174
-55.4567
-55.4354
-55.397
-55.2468
-55.1785
-55.086
-54.9486
-55.0253
-57.0138
-56.9265
-56.6897
-56.6011
-56.4368
-56.2791
-56.281
-56.1011
-56.0525
-55.9232
-55.8583
-55.8433
-58.1273
-58.0505
-58.026
-57.9355
-57.9761
-57.8689
-57.576
-57.5776
-57.4738
-57.0056
-56.5628
-57.0937
-56.7309
-59.8459
-59.7568
-59.6823
-59.5115
-59.4584
-59.4499
-59.4279
-59.6275
-59.6801
-59.7965
-58.7362
-58.9758
-58.19
-58.6293
-61.8044
-61.6595
-61.5169
-61.2372
-61.7573
-61.9525
-62.2555
-62.6824
-63.1526
-63.6595
-64.2559
-62.7398
-61.2121
-60.8529
-58.1646
-63.9955
-64.1554
-64.1289
-64.2432
-64.4938
-64.913
-65.1448
-66.0209
-66.9638
-68.1226
-67.8654
-67.329
-65.8593
-63.8051
-63.4968
-60.5015
-65.9334
-66.765
-66.9086
-67.0248
-66.875
-67.3651
-67.9174
-68.2959
-69.3473
-70.3158
-70.4004
-70.1634
-69.0151
-68.5136
-66.7933
-65.282
-60.9799
-67.1873
-67.9808
-68.4951
-68.7186
-68.5017
-68.324
-68.5739
-68.9825
-69.4488
-69.8378
-70.3041
-70.547
-70.0238
-69.3174
-70.8084
-69.7836
-67.569
-66.5569
-69.4808
-70.5833
-70.4779
-70.2363
-70.4754
-69.7519
-69.4256
-70.1812
-69.9537
-70.2031
-70.0212
-69.8281
-69.9962
-69.4598
-68.7678
-69.1479
-68.5904
-67.4655
-67.0649
-70.3488
-72.0882
-72.7106
-71.9058
-71.4545
-71.2299
-70.2667
-69.9837
-70.9501
-70.9749
-70.9317
-70.6059
-70.4889
-70.154
-69.7439
-69.1257
-69.5284
-69.0586
-68.3946
-67.614
-71.0118
-71.756
-72.2268
-72.1316
-71.4372
-71.275
-70.8822
-70.4238
-70.3534
-71.174
-71.1516
-71.2023
-71.0646
-70.9932
-70.9465
-71.007
-70.7067
-70.4722
-70.2972
-69.2334
-68.1459
-52.2451
-52.3823
-52.3648
-52.6093
-52.5161
-52.4779
-52.7382
-52.7293
-52.7495
-52.74
-53.0196
-53.0402
-53.0152
-53.04
-53.0354
-53.3282
-53.3382
-53.3317
-53.2942
-53.2689
-53.2802
-53.7837
-53.7273
-53.7033
-53.6276
-53.6268
-53.6521
-53.5758
-53.5344
-54.303
-54.1892
-54.115
-54.1277
-54.0064
-53.9573
-53.9525
-54.0025
-53.9775
-54.9675
-54.8984
-54.8263
-54.6976
-54.6344
-54.5671
-54.5051
-54.4071
-54.3417
-54.4251
-56.0037
-55.9348
-55.6407
-55.6301
-55.537
-55.4446
-55.3594
-55.2242
-55.1395
-54.997
-54.9071
-55.0024
-57.0923
-56.9648
-56.8388
-56.7427
-56.5814
-56.4535
-56.3344
-56.2845
-56.1109
-55.9835
-55.9356
-55.7609
-55.7333
-58.2304
-58.0943
-58.0509
-58.1507
-58.0387
-57.7779
-57.7388
-57.6939
-57.5991
-57.3512
-56.8726
-56.5089
-57.0636
-56.7916
-59.8987
-59.8382
-59.9101
-59.711
-59.3699
-59.4582
-59.7504
-59.6907
-59.8963
-59.6954
-59.1182
-59.1494
-59.3731
-58.0859
-58.4877
-61.8584
-61.802
-61.5468
-61.3986
-61.6249
-62.0136
-62.2802
-62.5099
-62.9969
-63.4915
-63.9752
-63.9006
-62.1707
-60.6546
-60.625
-58.3715
-63.7169
-64.0287
-64.0521
-64.1539
-64.1306
-64.3978
-64.9724
-65.4262
-66.3445
-67.2837
-68.4655
-68.1022
-67.0339
-65.0728
-63.4756
-63.3976
-60.9203
-65.4463
-66.1513
-66.7263
-66.987
-67.0777
-67.2005
-67.6458
-68.1888
-68.3239
-69.0106
-70.6324
-70.3978
-69.7255
-68.3408
-68.3372
-66.0079
-64.5385
-61.2477
-66.5605
-67.3231
-68.0138
-68.6416
-68.9046
-68.6763
-68.5418
-68.7624
-69.2215
-69.4724
-69.8215
-70.792
-70.56
-69.6641
-68.8852
-70.3279
-68.8595
-67.1065
-66.1689
-68.7442
-69.6011
-70.6988
-70.4055
-70.1418
-70.4348
-69.809
-69.5034
-70.272
-70.0295
-70.2519
-70.1245
-69.9536
-70.0363
-69.4058
-68.7601
-69.0433
-68.224
-67.1347
-67.1768
-69.4726
-70.4396
-72.2457
-72.777
-71.9012
-71.4783
-71.2739
-70.3223
-70.105
-70.9907
-71.0055
-70.9613
-70.5831
-70.5006
-70.1835
-69.8016
-69.1398
-69.5468
-69.1056
-68.4583
-67.8022
-70.781
-71.0324
-71.7496
-72.2852
-72.1439
-71.459
-71.3057
-70.9097
-70.4427
-70.3681
-71.2003
-71.1515
-71.1923
-71.0554
-71.0071
-70.961
-71.0528
-70.7479
-70.5591
-70.3924
-69.3694
-68.2086
-52.1137
-52.2414
-52.2366
-52.4258
-52.3705
-52.3318
-52.5255
-52.5165
-52.5334
-52.5401
-52.7745
-52.7373
-52.7545
-52.7393
-52.7301
-53.0729
-52.9965
-53.0548
-53.0287
-53.0192
-53.0206
-53.4082
-53.3342
-53.3313
-53.2817
-53.237
-53.2565
-53.2271
-53.8807
-53.8538
-53.7173
-53.7222
-53.6436
-53.7224
-53.5789
-53.5317
-53.5434
-54.3944
-54.3546
-54.2273
-54.1127
-54.0677
-53.9899
-53.9244
-53.9883
-53.9405
-53.9049
-55.1725
-55.0348
-54.9079
-54.8052
-54.7242
-54.6683
-54.5146
-54.4507
-54.4083
-54.2745
-54.3964
-56.1292
-55.9999
-55.9444
-55.7471
-55.6579
-55.6062
-55.4212
-55.3221
-55.1388
-55.072
-54.8778
-54.8815
-54.8898
-57.1342
-57.0317
-56.9801
-56.8588
-56.6996
-56.653
-56.4247
-56.4455
-56.1977
-56.1049
-55.7522
-55.9527
-55.7644
-55.6647
-58.235
-58.1789
-58.1225
-58.11
-58.0464
-58.0039
-57.8875
-57.8704
-57.7548
-57.5562
-56.8507
-56.914
-56.4715
-56.8468
-56.8484
-59.9291
-59.9481
-59.843
-59.801
-59.5394
-59.6338
-59.699
-59.6142
-59.8231
-59.8224
-59.5284
-59.1053
-58.4216
-59.2868
-57.9833
-58.3735
-61.736
-61.7564
-61.7621
-61.2621
-61.6185
-61.7806
-61.9337
-62.4305
-62.7406
-63.2945
-63.7112
-63.9796
-62.9489
-61.1692
-60.7252
-60.3765
-59.4036
-63.3202
-63.8947
-63.9912
-63.9578
-64.1136
-64.086
-64.6227
-65.2114
-65.7691
-66.6976
-67.5479
-68.3914
-67.5611
-66.0283
-64.2864
-63.5796
-63.1662
-61.2323
-64.8383
-65.6916
-66.3911
-66.8385
-67.1588
-67.1839
-67.3242
-67.7601
-68.3384
-68.5707
-69.7454
-70.619
-70.389
-68.9203
-67.6986
-67.871
-65.1459
-63.9885
-61.7476
-65.322
-66.8035
-67.4739
-68.0558
-68.7745
-69.0389
-68.8494
-68.6971
-68.9505
-69.4891
-69.5499
-70.0334
-70.7855
-70.4201
-69.2891
-68.6945
-69.6139
-68.3229
-67.1175
-65.8498
-67.3841
-68.8603
-69.7197
-70.7643
-70.3023
-70.0953
-70.3811
-69.8542
-69.5791
-70.3701
-70.1055
-70.2988
-70.2114
-70.0223
-70.0626
-69.3235
-68.7526
-68.9236
-67.9362
-66.7012
-67.3627
-68.9947
-69.5908
-70.5706
-72.3357
-72.8684
-71.935
-71.5107
-71.3126
-70.3767
-70.2525
-71.0397
-71.0312
-70.983
-70.5768
-70.5148
-70.2226
-69.8707
-69.1591
-69.5784
-69.1655
-68.5831
-67.9818
-70.5762
-70.8257
-71.0575
-71.7479
-72.3479
-72.1505
-71.4831
-71.3359
-70.9327
-70.4596
-70.3789
-71.2278
-71.1466
-71.1837
-71.048
-71.0282
-70.9866
-71.0917
-70.8324
-70.6376
-70.5504
-69.4857
-68.336
-52.0075
-52.0956
-52.1171
-52.2574
-52.2199
-52.1961
-52.3712
-52.3768
-52.4353
-52.3437
-52.542
-52.5526
-52.5794
-52.5383
-52.5434
-52.8265
-52.7812
-52.6714
-52.7409
-52.7411
-52.7368
-53.1163
-53.0778
-53.0078
-53.0913
-53.007
-52.9594
-52.9864
-53.4813
-53.3873
-53.3113
-53.2866
-53.2825
-53.2409
-53.2163
-53.2242
-53.9963
-53.8837
-53.8481
-53.7301
-53.6839
-53.6102
-53.5348
-53.5673
-53.5677
-53.5524
-54.5769
-54.3916
-54.3094
-54.2147
-54.158
-54.0919
-54.0333
-54.0028
-53.9631
-53.8931
-53.9361
-55.3273
-55.1764
-55.0162
-54.9635
-54.8498
-54.7397
-54.558
-54.4816
-54.4323
-54.3771
-54.2838
-54.3567
-56.1978
-56.0922
-56.0269
-55.9198
-55.7345
-55.6716
-55.5357
-55.4363
-55.3409
-55.1246
-54.9329
-54.8933
-54.8937
-54.9649
-57.1153
-57.1301
-57.0202
-56.966
-56.8705
-56.7878
-56.632
-56.5759
-56.3667
-56.2188
-55.8978
-55.8131
-55.9962
-55.7821
-55.6607
-58.3455
-58.3334
-58.2495
-58.1189
-57.9897
-58.1177
-57.9705
-57.8813
-57.8928
-57.7667
-57.4362
-56.709
-56.6398
-56.6236
-56.8287
-57.039
-59.8992
-59.8843
-59.8642
-59.8372
-59.7143
-59.6613
-59.5662
-59.7885
-59.8229
-59.936
-59.6801
-59.0262
-58.8183
-58.8693
-59.2478
-58.509
-58.3395
-61.603
-61.666
-61.8244
-61.6148
-61.5962
-61.7176
-61.9418
-62.3632
-62.5178
-63.2691
-63.7344
-63.9753
-63.303
-62.0416
-61.8328
-60.7597
-60.214
-59.5581
-62.8185
-63.4582
-64.0488
-63.9866
-63.964
-64.0043
-64.2262
-64.7127
-65.3399
-66.0296
-67.5183
-68.5315
-68.179
-67.0442
-65.4338
-64.5888
-63.4837
-63.2322
-61.1692
-64.0911
-65.1158
-66.0697
-66.7681
-67.0497
-67.419
-67.4998
-67.4462
-68.0271
-68.6499
-69.05
-70.5065
-70.5535
-70.2062
-68.1981
-67.1393
-67.1307
-64.5471
-64.2055
-62.1516
-64.3583
-65.4882
-66.945
-67.8467
-68.3672
-68.9838
-69.1801
-69.0527
-68.8776
-69.1371
-69.6175
-69.6344
-69.751
-70.6457
-70.2256
-68.9044
-68.506
-68.9447
-67.7032
-67.0805
-65.4545
-66.8815
-67.5813
-68.988
-69.7843
-70.7119
-70.2375
-70.129
-70.3675
-69.9391
-69.7056
-70.4707
-70.1711
-70.2895
-70.2463
-70.0757
-70.0554
-69.2523
-68.7509
-68.7838
-67.7086
-66.5168
-67.4643
-68.3352
-69.0744
-69.7545
-70.7225
-72.4365
-72.8308
-71.9721
-71.5446
-71.3566
-70.43
-70.3509
-71.098
-71.0421
-70.9978
-70.5533
-70.528
-70.2682
-69.934
-69.2027
-69.6086
-69.259
-68.7817
-68.127
-69.5865
-70.6397
-70.8657
-71.0984
-71.7324
-72.338
-72.1571
-71.5058
-71.3641
-70.9554
-70.4798
-70.3824
-71.2612
-71.1426
-71.1742
-71.0416
-71.0443
-71.0213
-71.1325
-70.9465
-70.7217
-70.7456
-69.5787
-68.4083
-51.9037
-52.0049
-52.0104
-52.1475
-52.1095
-52.0826
-52.2241
-52.2745
-52.2223
-52.1898
-52.3838
-52.4254
-52.3598
-52.3697
-52.3673
-52.629
-52.5902
-52.5136
-52.5615
-52.5108
-52.5455
-52.8101
-52.8257
-52.7528
-52.687
-52.746
-52.7671
-52.7453
-53.1664
-53.1437
-53.063
-53.0311
-53.0069
-52.9763
-52.9583
-52.948
-53.421
-53.4735
-53.4465
-53.2856
-53.3324
-53.2869
-53.2442
-53.2248
-53.2117
-54.133
-53.8995
-53.8909
-53.7936
-53.6739
-53.6529
-53.5788
-53.5477
-53.5413
-53.4711
-53.5417
-54.6915
-54.5785
-54.3772
-54.312
-54.2782
-54.2178
-54.1442
-54.004
-53.9782
-53.9971
-53.9042
-53.9373
-55.4201
-55.2844
-55.2315
-55.0672
-54.917
-54.848
-54.6794
-54.5712
-54.5091
-54.3858
-54.3732
-54.4071
-54.3436
-56.3114
-56.1665
-56.1133
-56.0134
-55.8888
-55.7736
-55.6667
-55.5281
-55.4744
-55.2597
-55.02
-54.9252
-54.893
-54.9767
-54.9507
-57.1864
-57.136
-57.1349
-57.0345
-57.0089
-56.7686
-56.7266
-56.665
-56.5038
-56.4023
-56.0715
-55.9326
-55.779
-56.0609
-55.8849
-56.1817
-58.4267
-58.3678
-58.1993
-58.2242
-58.0058
-58.0419
-58.2016
-58.1245
-58.0244
-57.8335
-57.7238
-57.2162
-56.7314
-57.2347
-56.9048
-56.8632
-56.9901
-59.9409
-59.9051
-59.9257
-59.9989
-59.9524
-59.8103
-59.6622
-59.7181
-59.8479
-60.0855
-60.0505
-59.7459
-59.5659
-59.6147
-59.2591
-59.0043
-58.7154
-58.4749
-61.2088
-61.5409
-61.6031
-61.7868
-61.5086
-61.5712
-61.7979
-62.0274
-62.5154
-62.8633
-63.5055
-64.1861
-63.7491
-63.1486
-61.9928
-61.5509
-60.7123
-60.2462
-59.249
-62.3032
-62.9596
-63.6499
-64.064
-64.012
-63.9656
-64.0388
-64.1746
-64.9989
-65.4384
-66.3874
-67.6899
-69.4234
-67.6207
-66.3918
-64.8185
-64.1894
-63.3334
-63.0274
-61.1167
-63.5107
-64.4576
-65.3845
-66.3848
-67.0326
-67.2935
-67.4931
-67.6983
-67.6873
-68.052
-68.8307
-69.1923
-70.0064
-70.8725
-69.5521
-67.5027
-66.9286
-66.4547
-64.163
-64.7482
-62.2757
-64.7351
-64.619
-65.6773
-67.0364
-67.858
-68.5413
-69.1861
-69.3365
-69.2338
-69.1297
-69.4645
-69.7405
-69.7391
-69.8554
-70.6522
-70.0703
-68.6117
-68.224
-68.4381
-67.0824
-66.5487
-64.9881
-66.8453
-66.9387
-67.7314
-69.1701
-69.8966
-70.4712
-70.1818
-70.2628
-70.3997
-70.0384
-69.885
-70.5602
-70.2175
-70.3098
-70.2449
-70.1224
-70.0349
-69.1745
-68.7612
-68.6685
-67.5655
-66.3398
-67.4521
-67.852
-68.3983
-69.1267
-69.8824
-70.949
-72.5499
-72.8089
-72.0056
-71.5798
-71.4039
-70.4816
-70.4468
-71.153
-71.0446
-70.9902
-70.5256
-70.5364
-70.3078
-70.0111
-69.2705
-69.624
-69.3509
-68.9169
-68.1934
-68.8514
-69.6432
-70.6395
-70.9083
-71.1317
-71.708
-72.324
-72.1617
-71.5304
-71.3887
-70.9888
-70.5077
-70.3773
-71.3046
-71.1424
-71.164
-71.0344
-71.0585
-71.0581
-71.1718
-70.9685
-70.7701
-70.7525
-69.6645
-68.472
-51.7992
-51.9194
-51.8983
-52.0252
-52.0197
-51.9759
-52.1044
-52.1125
-52.0864
-52.101
-52.2781
-52.2744
-52.2159
-52.2813
-52.2209
-52.4645
-52.4108
-52.3511
-52.3951
-52.3647
-52.347
-52.6451
-52.6144
-52.6112
-52.5175
-52.5398
-52.4939
-52.5293
-52.8916
-52.8777
-52.8304
-52.743
-52.7576
-52.7605
-52.7559
-52.7444
-53.2322
-53.1575
-53.1244
-53.0127
-52.967
-52.9884
-52.9688
-52.9209
-52.9369
-53.5517
-53.4751
-53.4817
-53.403
-53.3542
-53.2391
-53.2153
-53.2297
-53.2147
-53.228
-54.2718
-54.0558
-53.9998
-53.8983
-53.8175
-53.6858
-53.6778
-53.5945
-53.579
-53.5434
-53.5439
-53.4945
-54.8011
-54.6923
-54.6012
-54.425
-54.3153
-54.3229
-54.1786
-54.0288
-53.9811
-53.9786
-53.9167
-53.9085
-53.8995
-55.4966
-55.4368
-55.2877
-55.1803
-55.0505
-54.9031
-54.7031
-54.6924
-54.5865
-54.4788
-54.3573
-54.4651
-54.3882
-54.4531
-56.3403
-56.2422
-56.1462
-56.0775
-55.9804
-55.8863
-55.8359
-55.686
-55.5924
-55.3762
-55.1945
-54.9871
-54.9248
-54.9507
-55.082
-55.0888
-57.2346
-57.2654
-57.1727
-57.0468
-57.0853
-56.9295
-56.8655
-56.7755
-56.5959
-56.4512
-56.3019
-55.8864
-56.0194
-55.9617
-56.1044
-55.9867
-56.2892
-58.4784
-58.3273
-58.3747
-58.2543
-58.2174
-58.0217
-58.0747
-57.8904
-58.0218
-58.0511
-57.9017
-57.6055
-57.3227
-56.9855
-57.1927
-57.0542
-56.9157
-56.9574
-59.9343
-59.9744
-59.8337
-59.8965
-59.9779
-59.9643
-59.8523
-59.8806
-60.0005
-60.1552
-60.0865
-59.6304
-59.8541
-59.7316
-59.4133
-58.8541
-59.1565
-58.9242
-58.2126
-61.0062
-61.2842
-61.3828
-61.5104
-61.6891
-61.6741
-61.5992
-61.972
-62.2174
-62.4095
-63.0698
-63.3345
-64.1473
-63.4248
-62.789
-61.9582
-60.9736
-60.8799
-59.7108
-59.4702
-61.7939
-62.4691
-63.1004
-63.67
-64.1342
-63.8717
-63.7295
-64.0235
-64.1812
-65.1387
-65.7415
-66.7418
-67.5032
-68.8168
-67.2157
-65.6462
-64.4922
-64.1583
-62.911
-62.5406
-61.2287
-63.7798
-63.5919
-64.764
-65.721
-66.6374
-67.2128
-67.4052
-67.3337
-67.7867
-67.8593
-68.3711
-68.9012
-69.1883
-69.9282
-70.3031
-68.9398
-67.2904
-66.7535
-65.9752
-64.067
-65.02
-62.3189
-64.7855
-64.7557
-64.7987
-65.8945
-67.1188
-67.9984
-68.6294
-69.3627
-69.5709
-69.3709
-69.3467
-69.6036
-69.8596
-69.8697
-69.9934
-70.544
-69.9234
-68.4782
-67.9815
-68.2122
-66.9769
-65.9637
-64.6132
-65.7714
-66.891
-67.0504
-67.8967
-69.3251
-69.9583
-70.28
-70.1393
-70.1758
-70.4616
-70.0969
-70.0655
-70.6412
-70.2586
-70.309
-70.2369
-70.1453
-70.0415
-69.1109
-68.7675
-68.6034
-67.569
-66.1977
-67.3656
-67.0979
-67.8383
-68.4924
-69.2039
-70.0156
-71.2112
-72.6353
-72.7894
-72.0533
-71.6031
-71.4515
-70.5171
-70.5923
-71.1846
-71.0599
-70.9686
-70.5063
-70.5423
-70.3649
-70.1082
-69.3449
-69.6437
-69.416
-69.0316
-68.2091
-68.915
-68.099
-69.6447
-70.6246
-70.9639
-71.1494
-71.6943
-72.3111
-72.1631
-71.5555
-71.4063
-71.0296
-70.5384
-70.3675
-71.3315
-71.1447
-71.1539
-71.0298
-71.0797
-71.0938
-71.2058
-70.9802
-70.811
-70.663
-69.7444
-68.6298
-51.6931
-51.8112
-51.8005
-51.9347
-51.9042
-51.8964
-52.0361
-52.0363
-52.0012
-51.9778
-52.1431
-52.1006
-52.0777
-52.1054
-52.1302
-52.3101
-52.2646
-52.3032
-52.2455
-52.2869
-52.2248
-52.4827
-52.454
-52.4232
-52.4197
-52.4071
-52.3446
-52.3308
-52.698
-52.6472
-52.6112
-52.5197
-52.5377
-52.5413
-52.5418
-52.5415
-52.8996
-52.8922
-52.8409
-52.787
-52.7669
-52.7689
-52.7424
-52.7122
-52.7109
-53.3182
-53.2508
-53.1452
-53.1108
-52.9999
-52.9779
-52.9954
-52.947
-52.9538
-52.9147
-53.6743
-53.5976
-53.4829
-53.4833
-53.3453
-53.3369
-53.2454
-53.2181
-53.2417
-53.2298
-53.2314
-54.4213
-54.1635
-54.0918
-53.9837
-53.8946
-53.8511
-53.7429
-53.6923
-53.5734
-53.5321
-53.5723
-53.4761
-53.5022
-54.8426
-54.8683
-54.6895
-54.5657
-54.4993
-54.3476
-54.237
-54.1305
-54.0362
-54.0011
-53.9391
-53.9027
-54.0185
-54.0004
-55.5977
-55.5125
-55.3851
-55.2265
-55.2089
-55.0588
-54.8167
-54.8225
-54.6931
-54.5358
-54.3632
-54.3751
-54.5122
-54.4489
-54.5003
-56.4899
-56.3228
-56.2867
-56.1068
-56.0944
-55.9032
-55.8836
-55.8514
-55.7167
-55.5035
-55.3326
-55.1521
-55.1598
-54.9712
-54.9004
-55.1106
-55.1649
-57.3552
-57.2868
-57.2268
-57.1328
-57.0901
-57.0816
-56.9856
-56.7935
-56.7671
-56.6596
-56.4723
-56.2359
-56.1024
-55.9704
-55.8341
-56.3369
-56.1779
-56.2281
-58.5302
-58.4344
-58.3018
-58.2617
-58.3371
-58.2843
-58.0975
-58.136
-58.1214
-58.1016
-58.0542
-57.8634
-57.5993
-57.0201
-56.9988
-57.3535
-57.3908
-57.0631
-56.9743
-59.7581
-59.7881
-59.9781
-59.9258
-59.8844
-59.9249
-59.8265
-59.9115
-59.7888
-60.1569
-60.2393
-59.9843
-59.77
-59.7008
-59.5519
-59.4735
-59.5988
-59.2305
-58.8766
-58.1352
-61.2261
-61.1349
-61.3826
-61.6302
-61.508
-61.8794
-61.8048
-61.9515
-62.1128
-62.4184
-62.7518
-63.1603
-63.8632
-63.4834
-63.258
-62.4131
-61.682
-61.3328
-61.0558
-59.4713
-59.4757
-61.5694