/*--------------------------------*- C++ -*----------------------------------*\
  =========                 |
  \\      /  F ield         | OpenFOAM: The Open Source CFD Toolbox
   \\    /   O peration     | Website:  https://openfoam.org
    \\  /    A nd           | Version:  7
     \\/     M anipulation  |
\*---------------------------------------------------------------------------*/
FoamFile
{
    version     2.0;
    format      ascii;
    class       surfaceScalarField;
    location    "2";
    object      phi_0;
}
// * * * * * * * * * * * * * * * * * * * * * * * * * * * * * * * * * * * * * //

dimensions      [0 3 -1 0 0 0 0];

internalField   nonuniform List<scalar> 
54095
(
3.17018e-05
-2.70789e-05
-0.00011197
-0.000216571
4.21101e-05
-0.000108867
0.000283918
-4.28571e-05
-0.0010042
1.32152e-05
-2.08156e-05
-0.00010437
-0.000454336
-0.000232697
0.000798388
0.000224072
7.90409e-05
-0.000891317
-0.000214591
5.3494e-05
6.54451e-05
0.000114925
-5.12276e-05
-0.00118864
0.000222351
-3.69428e-05
-0.00121043
2.70499e-06
-1.6058e-05
-9.10168e-05
-0.00103876
0.000477463
-0.00483965
-0.000162258
0.000363518
-0.00242676
-0.000334202
-0.000353176
0.00127118
6.64346e-05
8.97751e-05
-0.0019149
0.000101546
0.0001017
-0.000818719
-0.000183558
7.4426e-05
0.000177282
4.64666e-05
-4.82579e-05
-0.00147407
0.000104054
-4.98273e-05
-0.00127981
0.000165738
-3.35673e-05
-0.00135865
-1.14626e-05
-1.2362e-05
-6.71922e-05
-0.0012662
0.000616426
-0.00662261
-0.000435716
0.000739439
-0.00263903
-0.000860209
0.000479694
-0.00479334
-0.000364303
0.000383087
-0.000932848
-9.58759e-05
0.000387433
0.0040697
-0.000212271
-0.000291684
0.00159157
-6.89911e-05
9.44113e-05
-0.00190521
5.23322e-05
7.66389e-05
-0.00183812
6.21453e-05
0.000117627
-0.000758327
-0.000146782
8.97508e-05
0.00022285
4.88762e-05
-4.18753e-05
-0.00259709
3.99352e-05
-4.81638e-05
-0.00151566
0.00010011
-4.92461e-05
-0.00136424
0.000125623
-2.97273e-05
-0.00146691
-2.80369e-05
-9.46683e-06
-2.96885e-05
-0.00148174
0.000507897
-0.00462701
-0.00017893
0.00114368
-0.00618872
-0.00120168
0.000611426
-0.00689256
-0.000563661
0.000766782
-0.00253002
-0.000403178
0.000709786
-0.00256182
-0.000724434
0.000462115
-0.00474329
-0.000348415
0.000197256
-0.00159868
-0.000376229
0.0004455
-0.000562354
-9.04967e-05
0.000312962
0.0036177
-0.000106844
-0.000265806
0.00181744
3.20631e-05
2.14078e-05
-0.00181485
-6.83557e-05
5.06442e-05
-0.00177093
6.8395e-05
7.98653e-05
-0.00176864
3.57612e-05
0.0001292
-0.000707914
-0.000133263
0.000111603
0.000216473
7.02894e-05
-4.88493e-05
-0.00158429
3.69356e-05
-4.0629e-05
-0.00264156
4.36538e-05
-4.47239e-05
-0.00156384
9.45493e-05
-4.69306e-05
-0.00144159
9.73903e-05
-2.72205e-05
-0.00154655
-4.1876e-05
-6.97363e-06
1.91611e-05
-0.00130837
0.000193693
-0.00458535
-0.000249134
0.00125897
-0.0062244
-0.00135798
0.000325802
-0.00479652
-0.000202045
0.0011483
-0.00544093
-0.000339563
0.00110897
-0.00674988
-0.00121946
0.000737651
-0.00713518
-0.000501838
0.000743523
-0.00266368
-0.000691775
0.000733137
-0.00223782
-0.000405816
0.00068131
-0.0024657
-0.000390402
0.000420244
-0.00487998
-9.32089e-05
0.000130626
-0.0016598
-0.000344479
0.00025516
-0.00113221
-0.000308916
0.000326597
-0.000198677
-6.73745e-05
0.000256378
0.00319865
-1.65956e-05
-0.000212068
0.00191284
0.000104453
-9.07603e-05
-0.00173104
2.07226e-05
-1.26514e-05
-0.00173535
-6.25821e-05
6.61919e-05
-0.00165102
8.4274e-05
6.88247e-05
-0.00169799
4.40433e-05
0.000160758
-0.000703722
-0.000121133
0.00011401
0.00018172
1.84943e-05
-5.56124e-05
-0.000695407
4.02635e-05
-4.68296e-05
-0.00161836
3.08563e-05
-3.74885e-05
-0.00267965
3.74843e-05
-4.31675e-05
-0.00160509
8.65016e-05
-4.58683e-05
-0.00150944
7.89267e-05
-2.58015e-05
-0.00160665
-5.26875e-05
-5.21867e-06
7.70672e-05
-0.00135479
-5.36729e-05
-0.0044179
-0.000415962
0.000538243
-0.00649209
-0.00147982
0.000163889
-0.00462739
2.15458e-05
0.0011711
-0.00633334
-0.000373321
0.00121672
-0.00708156
-0.00138148
0.000261568
-0.00489607
-0.00024447
0.000941038
-0.0051234
-0.000491936
0.00112415
-0.00565595
-0.000498337
0.00120425
-0.00712396
-0.00089206
0.000870408
-0.00750393
-0.000308662
0.000718451
-0.00279894
-0.000544885
0.000710252
-0.00244039
-0.000649147
0.000704809
-0.00192109
-0.000369751
0.000630262
-0.00237334
-0.000318163
0.000337784
-0.0049162
-0.000109517
0.00012977
-0.00188515
-0.000138197
0.000163896
-0.00140961
-0.000340278
0.000168052
-0.000695973
-0.000225918
0.00028164
8.62531e-05
-4.19075e-05
0.000206106
0.00286643
3.947e-05
-0.000140037
0.00189228
-3.59008e-05
-0.000110682
-0.00167535
7.11034e-05
-9.24061e-05
-0.00168213
3.38318e-06
1.80015e-05
-0.00165968
-4.66674e-05
7.29453e-05
-0.00157099
9.77039e-05
7.08701e-05
-0.00161931
7.75943e-05
0.000165775
-0.000754154
-0.000111208
0.000104572
0.000135669
1.41484e-05
-6.6501e-05
-0.000521322
1.9165e-05
-5.50543e-05
-0.000706347
4.54315e-05
-4.55557e-05
-0.00165572
1.90585e-05
-3.61197e-05
-0.00270576
2.98024e-05
-4.26733e-05
-0.00163809
8.99976e-05
-4.53792e-05
-0.00157986
6.52667e-05
-2.57462e-05
-0.00165139
-6.08887e-05
-3.90533e-06
0.000141861
-0.00169074
0.000118353
-0.00348269
-0.000712761
0.00022641
-0.00451862
-0.00164074
2.86387e-05
-0.00428562
-0.000224362
0.000640258
-0.00593933
-0.000569743
0.000374725
-0.0065065
-0.0014028
-2.77149e-05
-0.00457836
-9.48674e-05
0.000888383
-0.00599881
-0.000182629
0.00133019
-0.00675613
-0.000852705
0.0011132
-0.00757882
-0.00114734
0.000303197
-0.00494398
-0.000316695
0.000789724
-0.00515056
-0.000277526
0.000858315
-0.00512493
-0.000630844
0.00114589
-0.0056159
-0.000593614
0.00119109
-0.00722077
-0.00101126
0.000818152
-0.00762898
-0.000289537
0.000652666
-0.00294538
-0.000411697
0.000709497
-0.00252468
-0.00055288
0.000662263
-0.00218524
-0.000513002
0.000650542
-0.00165429
-0.00027003
0.00051544
-0.00232287
-0.00014413
0.000236346
-0.00496894
-0.000206527
0.000129027
-0.00246101
-6.93845e-05
0.000166034
-0.0017468
-0.000201889
0.000109527
-0.00114581
-0.000289392
0.00017597
-0.000347579
-0.0001526
0.00023401
0.000308654
-1.07244e-05
0.000152453
0.00266225
0.000219863
-7.17033e-05
0.00163291
-3.02794e-05
-0.000113604
-0.00173594
-3.82204e-05
-0.000106356
-0.00160401
8.94835e-05
-7.1716e-05
-0.00163646
-7.85219e-06
5.26528e-05
-0.00161248
-4.46263e-05
6.48796e-05
-0.00149057
0.000119335
7.98972e-05
-0.00156277
0.000117635
0.000123441
-0.000825393
-0.000101156
9.41057e-05
8.18304e-05
7.21079e-06
-8.32442e-05
-0.000620359
1.36162e-05
-6.72315e-05
-0.000522761
1.70482e-05
-5.52141e-05
-0.000713737
3.9623e-05
-4.41278e-05
-0.00168734
6.66268e-06
-3.40683e-05
-0.00272102
2.85008e-05
-4.2271e-05
-0.00166969
9.20187e-05
-4.63106e-05
-0.00165132
5.34446e-05
-2.44648e-05
-0.00168427
-6.48539e-05
-3.0238e-06
0.000209739
-0.00163745
7.73292e-05
-0.00363598
-0.000890588
0.000273773
-0.00445687
-0.00167173
0.000118817
-0.00357051
-0.000537907
0.000593584
-0.00547871
-0.000893581
0.000187041
-0.00435318
-0.00140625
9.51449e-05
-0.00437732
-0.000197615
0.000591254
-0.00600741
-0.000307522
0.000517857
-0.00595757
-0.000918213
-8.44074e-06
-0.00646027
-0.00126686
0.00010987
-0.00456871
-0.000249901
0.000702876
-0.00609648
-8.84429e-05
0.00109048
-0.00594817
-0.000434409
0.00131442
-0.00715378
-0.0010952
0.00101685
-0.0077909
-0.00113545
0.000373569
-0.00519337
-0.000308817
0.000677015
-0.00512803
-0.000447448
0.000715636
-0.00497213
-0.000458182
0.000814187
-0.00488793
-0.000519727
0.0011162
-0.00553429
-0.000529261
0.000987199
-0.00713059
-0.000909035
0.000844598
-0.00770867
-0.0003316
0.000628941
-0.00307677
-0.000341414
0.000671869
-0.00263572
-0.000459777
0.000664454
-0.00226899
-0.000529205
0.000634436
-0.00192932
-0.00037522
0.000560744
-0.00147697
-0.000190961
0.000358392
-0.00226468
0.000192856
5.85838e-05
-0.00500052
-0.000119385
6.09674e-05
-0.0027975
-0.000153542
0.000118995
-0.00229865
-2.4649e-05
0.000149244
-0.00167238
-0.000146519
0.000131498
-0.000962677
-0.000229344
0.000173335
-0.000102186
-8.89719e-05
0.000160637
0.000508778
6.45761e-05
0.000128469
0.00251514
0.000184804
-4.78981e-06
0.00135174
-2.90925e-05
-0.000143072
-0.00226543
-1.88355e-05
-0.000112224
-0.00169762
-1.45887e-05
-9.96949e-05
-0.0015444
0.000113132
-5.52449e-05
-0.00160207
-2.7219e-05
8.89751e-05
-0.00160269
-1.7686e-05
7.0228e-05
-0.00143471
0.000156213
4.74753e-05
-0.001551
0.000151906
0.000104128
-0.000933877
-9.19432e-05
8.06853e-05
2.82345e-05
-1.42891e-05
-8.74377e-05
-0.000704262
8.7486e-06
-8.46817e-05
-0.000611657
1.09565e-05
-6.86111e-05
-0.000520321
1.60828e-05
-5.51375e-05
-0.00071881
3.97196e-05
-4.16391e-05
-0.00171948
-7.86922e-07
-3.28499e-05
-0.00272966
3.25006e-05
-4.2073e-05
-0.00170643
8.24611e-05
-4.6879e-05
-0.00171137
4.25327e-05
-2.65086e-05
-0.00170332
-6.67979e-05
-2.01791e-06
0.000278555
-7.44137e-06
-0.00349695
-0.000828404
6.96963e-05
-0.00430087
-0.00156894
5.76912e-05
-0.00379646
-0.00058759
0.000286048
-0.00489473
-0.000911439
0.000279282
-0.00459947
-0.00144854
0.00021628
-0.0037445
-0.000305857
0.000684903
-0.00573006
-0.000574871
0.000558705
-0.00558303
-0.000771761
0.000115256
-0.00451974
-0.00144565
0.000332536
-0.00453106
-0.000399854
0.000619341
-0.00588473
-0.000120385
0.000521081
-0.0059787
-0.000564154
0.000474434
-0.0063107
-0.00107988
-1.17496e-05
-0.00635396
-0.00121684
0.00018919
-0.00467651
-0.000235691
0.000553285
-0.00634198
-0.000345993
0.000723903
-0.00583136
-0.000342447
0.00114322
-0.00589271
-0.000459348
0.00132368
-0.00752099
-0.00113994
0.00102203
-0.00782867
-0.00108271
0.00053578
-0.00555548
-0.000182738
0.000578936
-0.00532659
-0.000474918
0.000657694
-0.00493659
-0.000472225
0.000635004
-0.0047805
-0.000654867
0.000922231
-0.00456829
-0.000462848
0.00096124
-0.0054207
-0.000487569
0.000919969
-0.00690935
-0.000835866
0.000874669
-0.00755462
-0.000192115
0.000669209
-0.00358155
-0.000297137
0.00064039
-0.0029017
-0.000245513
0.00064536
-0.00239576
-0.000372758
0.000651236
-0.00205955
-0.000426971
0.000598116
-0.00176907
-0.00019406
0.000419577
-0.00143307
2.31631e-05
0.000191415
-0.0023561
6.49276e-05
3.75634e-05
-0.00491821
-5.76046e-05
-3.62456e-05
-0.00230485
-8.69497e-05
3.63026e-05
-0.0026467
-0.000145102
0.000138972
-0.00215786
-6.16986e-05
0.000152285
-0.00151834
-0.000177879
0.000126752
-0.000765434
-0.000178091
0.000147926
7.09298e-05
-1.87483e-06
0.000128941
0.000666394
0.000119843
0.000101599
0.00244082
0.000133729
8.75927e-05
0.00103847
-8.06962e-05
-0.000170584
-0.00228418
-1.45484e-05
-0.00014492
-0.00220944
-2.06325e-05
-0.000114334
-0.00165139
-1.68959e-05
-9.28032e-05
-0.00147386
0.000122848
-1.53373e-05
-0.00158089
-3.66748e-05
7.1407e-05
-0.00156798
7.46755e-06
6.41203e-05
-0.00142632
0.000166799
3.15463e-05
-0.00156275
0.000159761
9.43771e-05
-0.0010648
-8.27595e-05
6.45236e-05
-2.03274e-05
-2.24744e-05
-8.62373e-05
-0.000649738
-1.95501e-05
-8.89932e-05
-0.0006804
2.64999e-05
-8.56584e-05
-0.00062111
5.83609e-06
-6.98426e-05
-0.000511452
1.19781e-05
-5.47775e-05
-0.00071765
2.29779e-05
-4.01175e-05
-0.0017352
-2.1175e-06
-3.22216e-05
-0.00273739
2.98701e-05
-4.17916e-05
-0.00174139
7.51355e-05
-4.82057e-05
-0.0017648
3.05129e-05
-2.70418e-05
-0.00170881
-6.31597e-05
-2.56835e-06
0.000344283
6.27277e-05
-0.00422389
-0.00150117
-2.24772e-05
-0.00354224
-0.000859629
0.000274565
-0.00457239
-0.000825707
1.16599e-05
-0.00434057
-0.00134454
-2.98726e-05
-0.00387059
-0.000449056
0.000497071
-0.00532801
-0.000649191
0.000287371
-0.0048285
-0.000796739
0.000297347
-0.00465556
-0.00146055
0.000100909
-0.00383051
-0.000284179
0.000658311
-0.0057769
-0.000271562
0.000735887
-0.00575607
-0.000707061
0.000374084
-0.00569895
-0.000797562
0.000244423
-0.00471395
-0.00132474
0.00018165
-0.00460481
-0.000381754
0.000693036
-0.00619919
-0.000418518
0.000598042
-0.00588917
-0.000255263
0.000510958
-0.0061024
-0.000695149
0.000630825
-0.00671747
-0.00114563
8.34541e-05
-0.00624254
-0.00118352
0.000378246
-0.00495395
-0.0001133
0.000460676
-0.00648371
-0.000457226
0.000499638
-0.00613541
-0.000382754
0.000806742
-0.00558435
-0.000474054
0.00122447
-0.0059743
-0.000592454
0.00126622
-0.00763558
-0.00128959
0.00121273
-0.0077036
-0.00110605
0.000708448
-0.00599374
-0.000289428
0.000563438
-0.00547019
-0.000436639
0.00063688
-0.00516627
-0.000475248
0.00064252
-0.00471437
-0.000513511
0.000692372
-0.00440989
-0.000546261
0.000873909
-0.00436167
-0.000178668
0.000752152
-0.00526828
-9.87751e-05
0.000784179
-0.00669692
-0.00081346
0.00062771
-0.00730394
-2.2529e-05
0.000551451
-0.00352465
-0.000260762
0.000668624
-0.00343597
-0.000356786
0.000625874
-0.00267053
-0.00044613
0.000648834
-0.00200893
-0.000418921
0.000640369
-0.00186076
-0.000400488
0.000493609
-0.0016207
1.07839e-05
0.000250222
-0.00150453
0.000425096
8.41244e-05
-0.00270791
8.24894e-06
-1.09422e-05
-0.00478178
-0.000134555
-0.000125587
-0.00217249
-3.12678e-05
-5.14188e-05
-0.00220041
-0.000103763
1.41055e-05
-0.0024387
-0.000197441
9.42557e-05
-0.00191929
-1.59865e-05
0.000119393
-0.00137214
-0.000169904
0.000136772
-0.000621051
-0.000138656
0.000115811
0.000230182
0.000107111
0.000109625
0.000718056
0.000240116
8.27305e-05
0.00236532
0.00010828
0.000145391
0.000702044
-0.000118962
-0.000167355
-0.00168057
-9.7168e-05
-0.000176997
-0.00217448
3.20942e-05
-0.000152005
-0.00217736
-3.19826e-05
-0.000108109
-0.00159827
-2.6995e-05
-8.70412e-05
-0.00136318
9.89808e-05
-2.78328e-05
-0.00155765
6.48528e-06
7.67456e-05
-0.00158921
2.81427e-05
6.12125e-05
-0.00145426
0.000169156
2.92102e-05
-0.00159161
0.000165305
7.00656e-05
-0.00120513
-7.84986e-05
5.55244e-05
-6.05129e-05
-4.36122e-05
-8.73278e-05
-0.000266046
-1.59838e-05
-8.80202e-05
-0.000634727
-1.87871e-05
-9.00399e-05
-0.000657232
-4.24305e-06
-8.60856e-05
-0.000600624
3.90736e-06
-7.08207e-05
-0.000499316
1.11106e-05
-5.40315e-05
-0.000714846
2.02974e-05
-3.88344e-05
-0.00174888
-1.04725e-05
-3.10926e-05
-0.00273762
2.64816e-05
-3.96675e-05
-0.00177641
6.96461e-05
-4.74953e-05
-0.001814
1.38506e-05
-2.59788e-05
-0.00169925
-5.74527e-05
-3.47794e-06
0.000405213
-0.00131148
-0.000241072
-0.00359913
0.00019353
-0.00437802
-0.00102125
0.000121126
-0.00417195
-0.00126098
-2.7466e-05
-0.00359833
-0.000420026
0.000338054
-0.00466091
-0.000733091
0.000176497
-0.00465333
-0.000789446
-1.61959e-05
-0.00436154
-0.00135884
-2.13531e-06
-0.00397017
-0.000323821
0.000621792
-0.00536367
-0.000532137
0.000503788
-0.00528385
-0.000647436
0.00026042
-0.0048512
-0.000847911
0.000221137
-0.00472544
-0.00131015
1.54163e-05
-0.00386052
-0.000366374
0.000672582
-0.00580674
-0.000225533
0.000704244
-0.00593824
-0.00023711
0.000618384
-0.00601852
-0.000782986
0.000329957
-0.00569664
-0.0010619
0.000312837
-0.00492887
-0.00140531
0.000120297
-0.00450331
-0.000341897
0.000777714
-0.00632738
-0.000442388
0.000639847
-0.00625584
-0.000258942
0.00056623
-0.00606825
-6.91121e-05
0.000687041
-0.00656356
-0.000798104
0.000748761
-0.00717713
-0.00136184
0.000358849
-0.00615089
-0.00115955
0.000159915
-0.00506037
-0.000279403
0.00038002
-0.00649639
-0.000364128
0.000376197
-0.00643278
-0.000426849
0.000547705
-0.00592478
-0.000361853
0.000892594
-0.00540414
-0.000363289
0.00119593
-0.00608699
-0.000525909
0.00140547
-0.00748107
-0.00106878
0.00149233
-0.00751748
-0.000980215
0.000833452
-0.00666043
-1.21904e-05
0.000637513
-0.006039
-0.000358302
0.00059295
-0.00532872
-0.000507046
0.000602929
-0.00497642
-0.000580581
0.000501888
-0.00438943
-0.000579343
0.000808583
-0.00418414
-0.00058574
0.000496762
-0.00392103
5.11945e-05
0.000521617
-0.00504613
0.000575952
0.0004041
-0.00662417
-0.000757375
0.00057887
-0.00711719
2.59177e-05
0.000299896
-0.00307402
-3.97224e-05
0.000570058
-0.00341763
-0.000258082
0.000651539
-0.00330731
-0.000464541
0.000605394
-0.00235999
-0.000326463
0.000668185
-0.00172626
-0.00059465
0.000591509
-0.00153391
-0.000348035
0.000392698
-0.0015538
0.000182945
0.000142839
-0.00163908
0.000177646
-3.515e-05
-0.00262123
-7.44395e-05
-4.00907e-05
-0.00455897
-0.000132452
-0.000193466
-0.0022967
-0.000144507
-0.000111355
-0.00206522
-3.91627e-05
-6.23798e-05
-0.00205266
-9.51278e-05
-1.70287e-05
-0.00226427
-0.00020046
5.78737e-05
-0.0016843
-1.12925e-05
0.000135945
-0.00126104
-7.97544e-05
0.000115129
-0.00053413
-7.25478e-05
0.000111226
0.000329272
0.000220322
6.87825e-05
0.000680837
0.000331736
9.2971e-05
0.00225131
0.000106686
0.000234631
0.000282228
-7.7396e-05
-0.00017738
-0.000803556
-9.87027e-05
-0.000187923
-0.00158693
-9.46383e-05
-0.000176322
-0.00207432
-5.08086e-05
-0.000162644
-0.00207626
-2.12744e-05
-0.000109763
-0.00155036
-7.95231e-06
-8.20343e-05
-0.00128992
0.00011963
-8.61698e-06
-0.00157162
1.923e-05
7.33073e-05
-0.00163101
4.31707e-05
4.43578e-05
-0.0014861
0.0001738
1.65841e-05
-0.00164228
0.000159785
5.90185e-05
-0.00135456
-5.34307e-05
4.97875e-05
-0.000114322
-5.90434e-05
-9.94565e-05
-1.43916e-05
-4.55229e-05
-9.00384e-05
-0.000218505
-2.31408e-05
-9.0003e-05
-0.000611623
-1.22522e-05
-9.04192e-05
-0.000640646
7.02879e-06
-8.61969e-05
-0.000592276
-5.08303e-07
-7.06717e-05
-0.000482167
1.02902e-05
-5.33008e-05
-0.00071067
1.22099e-05
-3.81099e-05
-0.00175407
-1.68493e-05
-2.90334e-05
-0.0027314
1.81274e-05
-3.93745e-05
-0.00180266
5.99315e-05
-4.55418e-05
-0.00185436
-2.60002e-06
-2.57776e-05
-0.00167435
-5.13802e-05
-4.70749e-06
0.000461301
-0.00132409
0.000109333
-0.00305236
-0.00137417
-6.18932e-05
-0.00380043
-0.00106976
-0.000233251
-0.0035571
0.0003389
-0.00450634
-0.000828913
0.000214733
-0.0043758
-0.000922885
8.39334e-05
-0.00414991
-0.00117117
-4.91869e-05
-0.00373682
-0.000468092
0.000454009
-0.00484976
-0.000662907
0.000282853
-0.0046365
-0.000707816
0.000152995
-0.00476214
-0.000924079
-4.68954e-05
-0.00424061
-0.00121443
-2.31073e-05
-0.00404278
-0.000399551
0.000652663
-0.00520164
-0.000258321
0.000591042
-0.00541814
-0.00042267
0.000479564
-0.00531743
-0.000757129
0.000230121
-0.00488604
-0.00113947
9.55409e-05
-0.00472799
-0.00138374
-1.95245e-05
-0.00386257
-0.000430545
0.000780756
-0.00578916
-0.000367919
0.000712159
-0.00588912
-0.000104236
0.000672202
-0.00614676
-7.38257e-05
0.000598368
-0.00628222
-0.000790963
0.000343057
-0.005734
-0.00117694
0.000258863
-0.00525234
-0.001439
0.000167321
-0.00439118
-0.000334053
0.000889744
-0.00654831
-0.000367639
0.00071277
-0.00639679
-0.000464131
0.000614803
-0.00626713
-6.26598e-05
0.000654907
-0.00633531
-0.00019162
0.00101392
-0.00700039
-0.000905392
0.000977669
-0.00741646
-0.00149517
0.000480059
-0.00604465
-0.00123941
0.000100361
-0.00490153
-4.69512e-05
0.00048842
-0.00659045
-0.000248642
0.000440372
-0.00667022
-0.000546405
0.000415464
-0.00626118
-0.000433873
0.000641156
-0.00582005
-0.000369612
0.000944668
-0.00536261
-0.000458646
0.00130215
-0.00611076
-0.000419746
0.00155828
-0.00707608
-0.000698156
0.00161091
-0.00702083
-0.00111509
0.000799552
-0.00710227
-8.5063e-06
0.000770296
-0.00466116
-0.000192308
0.00056749
-0.00586096
-0.000354722
0.000589028
-0.00521818
-0.000597278
0.000520936
-0.00486273
-0.000648497
0.00066435
-0.00392317
-0.000845584
0.000526336
-0.00396278
-0.000392702
0.00059306
-0.00394781
0.000287348
0.000320898
-0.00506733
-0.000142071
0.00038263
-0.00610821
-0.00074322
0.00042761
-0.00687602
-0.000127443
0.000106339
-0.00287643
-1.8071e-06
0.000353832
-0.00300049
-9.2501e-05
0.000561083
-0.00327383
-0.000247287
0.000589595
-0.00313936
-0.000406314
0.000619945
-0.00210589
-0.000315053
0.000681713
-0.00151271
-0.000318207
0.000531063
-0.00143383
-0.000279377
0.000299288
-0.00150342
0.000278735
7.07376e-05
-0.00180338
0.000455727
-0.000175691
-0.00260962
8.95967e-05
-2.22962e-05
-0.00451959
-6.11266e-05
-0.00018447
-0.00244619
-0.000159671
-0.000161499
-0.00218559
-0.000150051
-0.000105752
-0.00196643
-1.63105e-05
-6.43874e-05
-0.0020398
-8.48295e-05
-4.1613e-05
-0.00210123
-0.000170362
6.21706e-05
-0.00144812
-3.24623e-05
0.000108696
-0.00110252
5.99735e-07
9.33532e-05
-0.000497627
-5.7737e-06
7.89211e-05
0.000368078
0.000311499
6.46854e-05
0.000571424
0.000329867
0.000116794
0.00219907
0.000214439
0.000298439
-0.00028408
1.45761e-05
-0.000296641
-0.000253609
-7.83688e-05
-0.00019967
-0.000758964
-0.000138258
-0.000197268
-0.00145087
-6.75611e-05
-0.000197741
-0.00198391
-7.87787e-06
-0.000151072
-0.00202005
-2.34156e-05
-0.000109773
-0.00149972
2.61796e-06
-7.88302e-05
-0.00121203
0.000131467
-6.74963e-06
-0.00161082
3.48193e-05
5.249e-05
-0.00169081
4.75479e-05
4.16793e-05
-0.00154061
0.000160811
1.74109e-05
-0.00170155
0.000144508
6.05481e-05
-0.00151243
7.45061e-06
3.88779e-05
-0.000212031
-4.02755e-05
-0.000123488
0.00065587
-5.54969e-05
-0.000101189
5.22562e-05
-4.27799e-05
-9.28804e-05
-0.000172848
-1.81198e-05
-9.17158e-05
-0.000592207
-2.57168e-05
-9.01936e-05
-0.000610932
4.27999e-07
-8.58131e-05
-0.000577563
-3.87182e-06
-7.02089e-05
-0.000461388
6.49307e-06
-5.27587e-05
-0.000702514
8.4297e-06
-3.72994e-05
-0.00175424
-2.90753e-05
-2.96884e-05
-0.00271201
9.24216e-06
-4.10586e-05
-0.00181638
5.56584e-05
-4.42813e-05
-0.00189152
-1.64622e-05
-2.62582e-05
-0.00163634
-5.19833e-05
-6.63843e-06
0.000519923
0.000179777
-0.0025088
-0.00152692
0.000153037
-0.00321835
-0.00115631
-0.000174258
-0.00279155
-0.00104455
9.42997e-05
-0.00402324
-0.00110394
-0.000112009
-0.00374062
-0.00116388
-0.000166004
-0.00339838
0.000376513
-0.00452689
-0.000783973
0.000361246
-0.00453179
-0.000822473
0.000156006
-0.00433322
-0.00109771
9.39899e-05
-0.00411946
-0.00124264
-7.30684e-05
-0.00363553
-0.000526527
0.000623586
-0.004814
-0.000533584
0.000496657
-0.0047883
-0.000454129
0.000296324
-0.00474837
-0.000937495
0.000128865
-0.00475753
-0.00106638
-1.80414e-05
-0.00431876
-0.0013854
7.44503e-07
-0.00404186
-0.000421079
0.00068602
-0.0051309
-0.000412326
0.000637912
-0.00520411
-0.000322432
0.000624683
-0.00534506
-0.000326087
0.000439515
-0.00527457
-0.000800684
0.000236091
-0.00501687
-0.00117588
4.13021e-05
-0.00478987
-0.00138372
1.24464e-05
-0.00393029
-0.000501186
0.000911514
-0.00576236
-0.000500256
0.0008091
-0.00575349
-0.000356503
0.000729606
-0.00605416
2.04451e-06
0.00069062
-0.00630372
-0.000303455
0.000550642
-0.00637797
-0.000758414
0.000285261
-0.00590738
-0.00129561
0.000296967
-0.00558155
-0.00147837
9.29369e-05
-0.00424516
-9.33686e-05
0.000984258
-0.00661271
-0.000349368
0.000833114
-0.00656792
-0.000524058
0.000679199
-0.00648354
-0.000266815
0.00068232
-0.0064616
-7.66298e-05
0.000949051
-0.00656342
-0.0003555
0.00132997
-0.00745583
-0.000868978
0.00116894
-0.00765611
-0.00116751
0.000569403
-0.00604433
-0.00155649
0.000151141
-0.00461127
-0.000222921
0.000648501
-0.00659326
-0.000188111
0.000614636
-0.00676892
-0.000277164
0.000256889
-0.00658921
-0.00050284
0.000570264
-0.00628472
-0.000487436
0.000739216
-0.00577565
-0.000321341
0.00105167
-0.00563637
-0.000371202
0.00130163
-0.00587561
-0.000226085
0.00155993
-0.00651166
-0.00073422
0.00137092
-0.00700005
-0.00119584
0.000676914
-0.00732656
7.29653e-06
0.000754912
-0.00372896
-9.20018e-05
0.000676794
-0.00468027
-0.000106169
0.000545084
-0.00580335
-0.000402304
0.000576977
-0.0051192
-0.000642389
0.000625966
-0.00458827
-0.000627289
0.000764346
-0.00384894
-0.000604128
0.000678732
-0.00376253
-0.000142192
0.000410956
-0.00417505
0.000869406
0.000134806
-0.00541018
0.000473505
0.000136833
-0.00583521
-0.000534526
0.000384517
-0.00663641
-0.000120479
3.60374e-05
-0.00292233
-0.000187018
0.000193493
-0.00268874
-1.19787e-06
0.000384818
-0.00297308
-0.000105479
0.000525088
-0.00312016
-0.00025409
0.000589992
-0.00294014
-0.000395271
0.000636588
-0.00183586
-0.000442143
0.000641914
-0.00121388
-0.000233071
0.000488095
-0.00138896
-0.000166643
0.000236431
-0.00150824
0.000591199
-1.1287e-05
-0.00224748
0.00061632
-0.000181828
-0.00273655
0.000252937
5.68358e-05
-0.00461492
7.24366e-05
-0.000124512
-0.0024365
-8.82471e-05
-0.000171335
-0.00242647
-0.000206649
-0.000122781
-0.00210017
-0.000121705
-8.8992e-05
-0.00188768
2.00463e-06
-6.85324e-05
-0.00202277
-0.000123422
-4.73971e-05
-0.00189165
-0.00013986
3.50564e-05
-0.001232
4.60558e-05
8.23328e-05
-0.00100608
4.34933e-05
7.10566e-05
-0.000498437
4.97896e-05
6.07815e-05
0.00036974
0.000328428
3.10489e-05
0.000489553
0.000320679
0.000130116
0.00219122
0.000310065
0.000281395
-0.000868089
3.75121e-05
-0.00038603
8.40075e-05
-5.32155e-06
-0.000303371
-0.000200083
-6.96557e-05
-0.000220667
-0.000708689
-9.48214e-05
-0.000209729
-0.00136218
-9.84765e-05
-0.00018348
-0.00187874
-1.90124e-05
-0.000163455
-0.00194693
-2.06805e-05
-0.000113611
-0.00144813
5.35782e-06
-7.84591e-05
-0.00113919
0.000112298
-3.80722e-06
-0.00165839
3.88578e-05
4.79909e-06
-0.00172186
2.4884e-05
1.46027e-05
-0.00155345
0.000152136
1.76118e-05
-0.00175509
0.000122671
6.32713e-05
-0.00167595
5.91669e-05
2.22192e-05
-0.0003454
-2.32148e-05
-0.00012968
0.00106564
-3.90475e-05
-0.00012371
0.000717438
-5.44131e-05
-0.000102802
0.000116591
-3.84446e-05
-9.53198e-05
-0.000130799
-1.5649e-05
-9.30623e-05
-0.000573689
-1.96869e-05
-8.98857e-05
-0.000587173
2.83407e-06
-8.52476e-05
-0.000565358
-8.33285e-06
-6.97492e-05
-0.000436064
4.00199e-06
-5.23499e-05
-0.000691466
1.1022e-06
-3.70216e-05
-0.001748
-4.06391e-05
-3.26556e-05
-0.00267978
-1.91138e-06
-4.11188e-05
-0.00181763
5.10517e-05
-4.43134e-05
-0.00192452
-3.24381e-05
-2.93419e-05
-0.00158119
-5.85069e-05
-5.53494e-06
0.000583965
0.000331943
-0.00291242
-0.00145525
0.000181614
-0.00239148
-0.00136846
0.000280653
-0.00335082
-0.00137757
-6.72986e-05
-0.00305168
-0.0013256
2.21682e-05
-0.002652
-0.00086967
0.000232907
-0.00423733
-0.00106812
-1.6634e-05
-0.00387297
-0.00138895
2.37784e-05
-0.00363916
-0.00134134
-8.06169e-05
-0.00321907
0.000493196
-0.00444775
-0.000613751
0.000468436
-0.00455391
-0.000693795
0.000365537
-0.00450165
-0.00114415
0.000176432
-0.004209
-0.00126964
7.37751e-05
-0.00406305
-0.0013791
-0.000120648
-0.00352119
-0.000467655
0.000726194
-0.0048581
-0.000570549
0.000664746
-0.00482387
-0.000493213
0.000477498
-0.0047987
-0.000470968
0.0003348
-0.00480943
-0.00101233
0.000127455
-0.00469139
-0.00122761
3.53698e-05
-0.00430166
-0.0013844
-4.94088e-05
-0.00399177
-0.000554049
0.000793619
-0.00492733
-0.000568844
0.000727903
-0.00515231
-0.000301919
0.000639833
-0.00527384
-0.0002375
0.000600948
-0.00526695
-0.000411413
0.000402948
-0.00533346
-0.000823479
0.000211639
-0.00512214
-0.00138501
8.1147e-05
-0.00476918
-0.00143008
8.78604e-05
-0.00406644
-0.000300607
0.00107825
-0.00562834
-0.000404618
0.000894773
-0.00579279
-0.000414489
0.000820149
-0.0059536
-0.000153865
0.000775858
-0.00625234
-0.000148613
0.000698167
-0.00637926
-0.000462623
0.000484115
-0.0064697
-0.000792335
0.000324571
-0.00601163
-0.00111917
0.000278623
-0.00581558
-0.00159795
-0.000118894
-0.00408481
-1.85962e-06
0.00100601
-0.00669217
-0.000167649
0.000959684
-0.00675974
-0.000368131
0.00080753
-0.00660529
-0.000413494
0.00068942
-0.00657998
-0.000173021
0.000826365
-0.00665333
5.9716e-06
0.00125637
-0.00681714
-0.000534877
0.00146722
-0.00759043
-0.000906913
0.00117934
-0.00758522
-0.00103928
0.000801365
-0.00638949
-0.00175519
0.000259106
-0.00431103
9.40099e-05
0.00082142
-0.00639504
-0.000255914
0.000713968
-0.00652868
-0.000106028
0.000328983
-0.00684115
-0.000360197
0.000567308
-0.00662836
-0.000698364
0.000615823
-0.00610536
-0.000458367
0.000818583
-0.00571149
-0.000542481
0.00108583
-0.00548222
-0.00013449
0.00127016
-0.00559354
0.000779262
0.00142655
-0.00647715
6.84796e-05
0.00101937
-0.00693749
-0.00121844
0.00067579
-0.00731843
-4.45425e-05
0.000666059
-0.00399958
-0.000224545
0.000790468
-0.0038051
3.17202e-05
0.000647182
-0.00481529
-0.000339271
0.000528341
-0.00552092
-0.000459785
0.000655314
-0.00494286
-0.00062457
0.000692373
-0.004287
-0.000706303
0.000647349
-0.0035534
-0.000575689
0.000648619
-0.00365757
5.23233e-05
0.000337331
-0.00459654
0.000680992
0.000100437
-0.00546357
0.000592876
0.000145384
-0.00557264
-0.000490825
0.000521099
-0.00641375
-8.75417e-05
6.83692e-05
-0.00274108
-0.000169242
9.05483e-05
-0.00273839
-0.000223651
0.000258296
-0.00254522
-1.85894e-05
0.000416381
-0.00296749
-0.000106843
0.00051459
-0.00293591
-0.000373181
0.000578793
-0.00263259
-0.000379013
0.000629659
-0.00158445
-0.000260749
0.000652231
-0.00107121
-0.000137187
0.000436267
-0.00140812
5.65684e-05
0.000178281
-0.00170459
0.000553947
-5.46294e-05
-0.0026002
0.000426376
-9.04851e-05
-0.00269492
0.000292768
0.000370039
-0.00496766
7.17873e-05
-6.87803e-05
-0.00220239
3.36794e-05
-0.000117313
-0.00252952
-0.000114553
-0.000130401
-0.00237396
-0.00016406
-0.000101161
-0.00201877
-0.000123225
-7.5559e-05
-0.00185591
-3.78725e-05
-6.4254e-05
-0.00198705
-0.000132859
-4.2728e-05
-0.00170169
-6.50898e-05
1.72918e-05
-0.00109651
7.75149e-05
5.96968e-05
-0.000959942
0.000127822
5.17785e-05
-0.000578398
0.000104116
2.93868e-05
0.00029217
0.000283397
1.28602e-05
0.000475547
0.000393008
0.000131347
0.00207093
0.000466945
0.000155994
-0.00143186
6.08887e-05
-0.000324443
-0.000535147
3.17189e-05
-0.000376433
8.63029e-05
-2.48831e-05
-0.000306911
-0.000143369
-6.97226e-05
-0.000236927
-0.000650213
-9.98201e-05
-0.000214894
-0.00124659
-8.17874e-05
-0.000198398
-0.0017817
-1.10193e-07
-0.000165833
-0.00189176
-1.83267e-05
-0.000113842
-0.00140275
8.13156e-06
-7.71501e-05
-0.00106998
0.000110692
-4.3599e-05
-0.00171959
5.06854e-05
-2.84475e-05
-0.00177014
5.45462e-06
-3.93756e-06
-0.00153926
0.000139624
4.73505e-06
-0.00178513
9.62365e-05
7.24369e-05
-0.00185485
5.15391e-05
-3.09791e-06
-0.000452349
-2.95678e-05
-0.000118948
0.000989165
-1.82851e-05
-0.000128889
0.00108911
-3.7492e-05
-0.000123698
0.000775826
-5.63589e-05
-0.000104094
0.000181725
-3.16197e-05
-9.69671e-05
-9.52746e-05
-1.6896e-05
-9.36043e-05
-0.000553074
-2.44573e-05
-8.95624e-05
-0.000558401
-3.40203e-06
-8.46048e-05
-0.000547101
-1.16804e-05
-6.93204e-05
-0.000407413
3.32085e-06
-5.19725e-05
-0.000679836
-4.71793e-06
-3.7092e-05
-0.00173885
-4.92377e-05
-3.39929e-05
-0.00263767
-1.02287e-05
-3.84391e-05
-0.00181328
4.69133e-05
-4.69482e-05
-0.00195382
-5.48164e-05
-2.91124e-05
-0.0015028
-6.61857e-05
-4.93404e-06
0.000655084
-0.00169898
0.000212743
-0.00216913
0.000406999
-0.00307834
-0.00180525
0.000363242