/*--------------------------------*- C++ -*----------------------------------*\
  =========                 |
  \\      /  F ield         | OpenFOAM: The Open Source CFD Toolbox
   \\    /   O peration     | Website:  https://openfoam.org
    \\  /    A nd           | Version:  7
     \\/     M anipulation  |
\*---------------------------------------------------------------------------*/
FoamFile
{
    version     2.0;
    format      ascii;
    class       volVectorField;
    location    "2";
    object      U;
}
// * * * * * * * * * * * * * * * * * * * * * * * * * * * * * * * * * * * * * //

dimensions      [0 1 -1 0 0 0 0];

internalField   nonuniform List<vector> 
18750
(
(1.4585 0.0211115 -0.209392)
(-1.45145 0.180312 0.178859)
(3.22501 0.518065 -0.891027)
(1.16557 -0.0522594 -0.147291)
(-0.818383 -0.319618 -1.85141)
(2.37933 0.505409 0.443964)
(-1.47819 0.133906 0.111461)
(1.1834 0.759327 -0.955487)
(2.83637 0.495291 -0.698131)
(0.864436 -0.0903456 -0.0897041)
(-2.41253 3.44669 1.08819)
(0.205436 2.52278 0.290208)
(-0.843055 -0.63324 -2.48422)
(1.27335 1.27721 0.574441)
(1.3473 0.473603 0.668694)
(-1.31323 0.118497 0.154313)
(0.693556 0.982722 -1.1451)
(1.14603 0.751802 -0.909139)
(2.39554 0.496739 -0.560099)
(0.566862 -0.0915317 -0.0401692)
(-2.40895 4.48789 0.440443)
(-1.52984 1.84089 1.87959)
(-1.34789 3.48416 1.15719)
(-0.630498 0.781626 2.28796)
(-0.0346285 -0.381257 0.131447)
(-0.824555 -0.88837 -2.22798)
(0.178189 1.27775 0.705843)
(1.22223 1.18733 0.671112)
(0.787124 0.411832 0.900311)
(-1.19057 0.111144 0.154022)
(0.649838 1.75615 -0.841877)
(0.694429 0.960986 -1.12508)
(1.13369 0.740395 -0.908027)
(1.94911 0.53033 -0.456669)
(0.284046 -0.0633278 -0.000187836)
(-2.68065 3.08052 -0.819636)
(-0.256661 3.92089 2.33402)
(-2.01314 4.90641 0.37124)
(-2.03504 1.80011 2.27489)
(-0.823553 1.84322 1.81747)
(-0.411801 3.38562 1.03748)
(-0.819335 1.3647 1.19339)
(-0.596939 0.576766 2.48153)
(-0.495039 -3.71223 0.140825)
(-0.644781 -1.08482 -2.12216)
(0.386957 1.21571 0.639772)
(0.212812 1.24069 0.428695)
(1.32786 1.00552 0.682716)
(0.55495 0.378582 1.09915)
(-1.15782 0.169277 0.148325)
(0.421672 1.05322 -0.909768)
(0.673833 1.76342 -0.797856)
(0.718657 0.948064 -1.09008)
(1.17553 0.722086 -0.862284)
(1.53738 0.594999 -0.376222)
(0.0265072 -0.0132154 0.0285683)
(-2.23842 3.02273 0.293676)
(-0.233618 4.00978 2.54142)
(-2.25817 3.50573 -1.37517)
(-0.649547 3.60436 2.7822)
(-0.345583 4.5645 2.35585)
(-1.70448 4.94706 0.372361)
(-1.7114 1.87501 2.3223)
(-2.00245 1.81429 2.18536)
(-0.681177 1.99023 1.78328)
(0.297323 3.28318 0.860907)
(-0.00675844 1.1837 0.468941)
(-0.71534 0.768605 1.63626)
(-0.456517 0.255018 2.09403)
(-0.409482 -2.10567 0.195635)
(-0.600592 -1.13197 -1.84658)
(1.27578 0.907214 -0.382404)
(0.38211 1.15525 0.317441)
(0.452296 1.09528 0.445108)
(1.32628 0.905527 0.681281)
(0.628721 0.281039 1.40164)
(-1.08529 0.256853 0.12677)
(0.261485 0.471286 -1.15114)
(0.435625 1.05048 -0.856211)
(0.748077 1.72829 -0.718243)
(0.704714 0.946294 -1.06575)
(1.2009 0.693468 -0.857295)
(1.19661 0.678821 -0.297844)
(-0.206193 0.0469805 0.0445127)
(-1.30953 3.28196 -0.143743)
(-0.212319 4.33569 0.340895)
(-1.85226 3.41952 0.512121)
(0.16582 4.06833 2.34088)
(-0.290474 4.61759 2.44164)
(-2.13804 3.65036 -1.20016)
(-0.656827 3.41512 2.44856)
(-0.96788 3.86936 2.67815)
(-0.100713 4.88328 2.87881)
(-0.0210219 5.31029 1.15841)
(-0.653998 1.99118 2.10969)
(-1.67157 1.90544 2.2097)
(-1.62836 1.73211 2.10346)
(-0.366087 1.64771 1.6543)
(1.15973 3.19588 0.539923)
(-0.18849 1.35841 0.583826)
(0.0109428 1.00739 0.460826)
(-0.807736 0.823837 0.875614)
(-0.220113 0.108794 1.62669)
(-0.482917 -1.78928 0.238376)
(-0.60932 -1.17791 -1.45968)
(0.14729 1.14951 -0.795989)
(0.69085 1.15368 -0.494549)
(0.332514 1.10082 0.530386)
(0.484117 0.998908 0.27668)
(1.28496 0.824439 0.823849)
(0.888305 0.201502 1.44072)
(-0.978557 0.31584 0.0144724)
(0.195445 0.353185 -1.1473)
(0.286567 0.46062 -1.11579)
(0.427505 1.04647 -0.838848)
(0.729252 1.71204 -0.712225)
(0.71458 0.926416 -1.06043)
(1.29031 0.63872 -0.885405)
(0.947974 0.763202 -0.237824)
(-0.401532 0.111766 0.0479252)
(-2.02988 2.42039 -0.134607)
(-0.759476 3.1456 -0.0293048)
(-1.86827 2.89969 -0.0145296)
(0.170327 3.98391 1.17976)
(-0.154262 4.36398 0.00965795)
(-1.6317 3.34306 0.843181)
(0.0461607 4.07439 2.02352)
(-0.19214 4.41915 2.20551)
(-0.414286 5.17001 2.05026)
(-1.78239 3.82028 -0.846234)
(-0.835156 3.46158 1.84139)
(-0.581379 3.56855 2.42796)
(-0.703334 4.02858 2.73558)
(0.246383 4.94871 2.64212)
(-0.100324 5.38367 1.42233)
(-0.528251 2.06712 2.02077)
(-0.851224 1.84152 2.05178)
(-1.38465 1.79547 2.13702)
(-1.24529 1.50744 1.96924)
(0.0600909 1.7352 1.35974)
(1.68987 2.99582 0.240196)
(-0.452293 1.68517 0.543528)
(0.277715 1.13496 0.858373)
(-0.0129533 0.858686 0.486177)
(-0.666672 0.472844 0.945683)
(-0.00133027 -0.179818 1.29003)
(-0.630358 -2.08676 0.344175)
(-0.64064 -1.07807 -1.02163)
(0.105222 1.17475 -0.708929)
(0.244264 1.07021 -0.752093)
(1.02108 0.954251 -0.259681)
(0.248235 1.08032 0.784997)
(0.463673 0.930232 0.17629)
(1.36717 0.579653 0.819648)
(1.10703 0.104321 1.42426)
(-0.856145 0.371921 -0.132627)
(0.174044 0.432988 -1.66986)
(0.175829 0.345471 -1.17413)
(0.287063 0.448284 -1.08324)
(0.434932 1.05026 -0.800134)
(0.713049 1.71047 -0.711035)
(0.707025 0.915639 -1.04489)
(1.30955 0.640108 -0.920487)
(0.799685 0.813078 -0.188472)
(-0.551481 0.18707 0.0469128)
(-1.61038 2.43187 0.397296)
(-0.931225 3.01498 0.414732)
(-1.89678 2.50254 -0.132791)
(-0.551382 3.64795 0.60678)
(-0.975724 2.97895 0.0871255)
(-1.34081 3.26308 -0.0787562)
(-0.0352651 4.03398 0.869976)
(0.251877 3.90673 0.993867)
(-0.988171 4.60212 -0.936667)
(-0.77567 3.35908 1.46369)
(-0.159541 4.07653 1.42596)
(0.236503 3.90238 2.61285)
(-0.32441 4.79453 2.19942)
(-0.39248 5.40218 1.86026)
(-1.56086 4.00916 -0.725219)
(-0.78883 3.49104 1.74444)
(-0.820889 3.41045 1.55761)
(-0.582337 3.44828 2.53332)
(-0.0192946 3.87719 2.80714)
(0.724002 4.87761 2.16713)
(0.979505 5.25216 1.41269)
(-0.90534 2.18459 1.85099)
(-0.520588 1.93571 2.04347)
(-1.15298 1.81992 1.84785)
(-1.10843 1.68637 1.95983)
(-0.947124 1.41446 1.61088)
(0.32448 1.55175 1.01587)
(2.88593 2.40797 -0.351104)
(-0.31737 1.91808 0.577963)
(-0.414755 1.64987 0.562282)
(0.216373 1.16937 0.393187)
(0.0539678 0.701087 0.49464)
(-0.57122 0.285437 0.839015)
(0.104267 -0.347745 0.822988)
(-0.393685 -1.6923 0.415291)
(-0.611944 -0.890415 -0.606174)
(-0.0504114 1.54169 -0.890898)
(0.240713 1.1365 -0.682262)
(0.303347 1.03267 -0.697438)
(1.04787 0.950163 -0.074295)
(0.199112 1.0898 0.778433)
(0.616953 0.821963 0.2459)
(1.49495 0.490012 0.272442)
(1.21998 0.0538308 1.42293)
(-0.686371 0.365215 -0.25237)
(-0.0974779 0.487652 -1.83609)
(0.180881 0.41475 -1.68768)
(0.163214 0.33612 -1.22505)
(0.266901 0.44253 -1.05235)
(0.439633 1.06368 -0.736616)
(0.71786 1.7098 -0.718218)
(0.75443 0.897142 -1.06057)
(1.30975 0.599296 -0.94963)
(0.751548 0.860673 -0.159915)
(-0.675526 0.246196 0.0652369)
(-1.66527 2.3555 -0.234778)
(-0.816278 2.91173 -0.229824)
(-1.37898 2.59203 0.3166)
(-0.672366 3.26426 0.231813)
(-0.793082 3.06967 0.402538)
(-1.45345 2.77464 0.097391)
(-0.221939 3.79865 0.959575)
(-0.392284 3.70437 0.403014)
(-0.634623 3.13294 0.328621)
(-1.38073 3.30348 0.117667)
(-0.459839 3.89036 0.927082)
(0.186994 3.95166 0.687285)
(0.148116 4.1176 0.845912)
(-1.10052 4.63742 -1.05928)
(-0.522227 3.38919 1.4101)
(-0.241906 4.27644 1.155)
(-0.197887 3.99444 1.58454)
(-0.0586285 4.04773 2.53337)
(0.141335 5.10622 2.0813)
(0.0488051 5.50701 2.04743)
(-1.30611 4.48292 -0.426711)
(-0.553558 3.61346 1.32039)
(-0.672934 3.45024 1.6635)
(-0.410187 3.54561 1.30745)
(-0.458191 3.41391 2.3492)
(0.659505 3.72138 2.33182)
(1.15363 4.62872 2.3097)
(1.62278 4.90723 1.53201)
(-0.353415 2.40236 1.90175)
(-0.335361 2.01488 1.93156)
(0.0292388 1.68335 1.96274)
(-0.701961 1.62703 1.84997)
(-0.739185 1.5163 1.79997)
(-0.597115 1.24088 1.12355)
(0.680022 1.43675 0.632326)
(2.72318 2.34319 -0.125401)
(-0.127076 1.57491 -0.0880143)
(-0.159047 1.83075 0.464821)
(-0.0285724 1.51784 0.903998)
(0.613588 0.916706 0.579929)
(0.0214143 0.600479 0.57791)
(-0.461223 0.155742 0.629449)
(0.284558 -0.588022 0.596691)
(-0.26652 -1.60852 0.527744)
(-0.578705 -0.563551 0.0486001)
(-0.152805 1.51718 -1.08332)
(0.134343 1.53806 -0.928195)
(0.293418 1.08265 -0.650421)
(0.413692 0.939547 -0.658597)
(1.17329 0.632228 0.448776)
(0.209174 0.998498 0.793264)
(0.81011 0.684757 0.329615)
(1.39734 0.455922 0.0462247)
(1.16832 0.0212066 1.35694)
(-0.499533 0.361432 -0.371941)
(0.0285559 0.44179 -1.81752)
(-0.0418596 0.479037 -1.89036)
(0.201945 0.403995 -1.70692)
(0.160598 0.325658 -1.26508)
(0.249912 0.434075 -1.02645)
(0.443815 1.05545 -0.705056)
(0.714967 1.70887 -0.717138)
(0.745958 0.91275 -1.07845)
(1.34912 0.542603 -1.06648)
(0.719424 0.89974 -0.144644)
(-0.722896 0.299781 0.0143848)
(-0.760611 2.84596 0.211593)
(-1.43498 2.4588 -0.256122)
(-0.42837 3.02993 0.353473)
(-0.658856 2.93821 -0.20564)
(-0.88316 2.81755 0.097295)
(-0.330479 3.52098 0.443057)
(-0.495521 3.28645 0.253087)
(-0.31323 3.17806 0.406434)
(-1.17801 2.85139 -0.0541317)
(-0.380412 3.79556 0.922029)
(0.217745 3.7587 1.03529)
(-0.462926 3.88915 0.0354559)
(-0.468774 3.25885 0.699104)
(-0.991097 3.55411 -0.347635)
(-0.300219 4.08164 1.0091)
(-0.277138 3.89802 0.913014)
(0.108265 3.99349 0.745014)
(0.311439 4.4105 1.03251)
(-1.01581 4.67 -0.756678)
(0.0193676 3.47128 1.52947)
(0.0352974 4.2871 0.891077)
(-0.511979 4.15877 1.08532)
(-0.190474 3.8787 1.86093)
(-0.430239 4.07917 2.70197)
(0.298358 5.25711 1.9991)
(0.396389 5.54258 2.28797)
(-1.21925 4.6169 -0.385929)
(-0.474413 3.75971 1.35844)
(-0.655558 3.5365 1.32636)
(-0.529726 3.3037 1.63218)
(-0.231661 3.07039 1.99281)
(-0.110831 3.17874 2.14783)
(1.44975 3.37894 1.87966)
(2.2259 4.25011 2.22622)
(1.43181 4.86892 1.44865)
(-0.145038 2.37259 1.95695)
(-0.0271901 2.34473 1.91379)
(-0.489297 1.92681 1.87163)
(-0.601738 1.60428 1.93167)
(-0.824747 1.61566 1.79368)
(-0.459477 1.35302 1.44071)
(-0.0815751 1.15713 0.557198)
(1.03086 1.37926 0.295517)
(2.63824 2.23468 0.0878437)
(-0.556116 1.48571 -0.206997)
(0.0300101 1.49047 -0.194444)
(-0.0780739 1.69896 0.3116)
(-0.093542 1.38529 0.724249)
(0.578442 0.80771 0.459208)
(-0.0259286 0.458415 0.583671)
(-0.424456 0.0786132 0.567786)
(0.432591 -0.762996 0.371383)
(-0.391825 -1.75577 0.597349)
(-0.583322 -0.316184 0.473376)
(-0.641392 1.15462 -1.30819)
(-0.243191 1.49693 -1.06205)
(0.695377 1.30292 -1.0007)
(0.259915 1.04881 -0.608116)
(0.419181 0.847396 -0.622132)
(0.935347 0.803768 0.179801)
(0.475449 0.988599 0.633501)
(0.899051 0.613928 0.366969)
(1.29498 0.465185 -0.0203216)
(1.13621 0.186679 1.25351)
(-0.312105 0.292336 -0.373315)
(-0.323065 0.186784 -1.82748)
(0.0552241 0.432241 -1.84134)
(-0.00471844 0.46304 -1.92597)
(0.23261 0.387237 -1.72524)
(0.151048 0.313019 -1.28609)
(0.237907 0.42639 -1.00378)
(0.429611 1.07789 -0.673672)
(0.722228 1.69416 -0.670038)
(0.756831 0.921819 -1.01573)
(1.3571 0.529516 -1.07166)
(0.633384 0.93854 -0.119109)
(-0.746302 0.304955 -0.0466221)
(-0.843261 2.46573 -0.252425)
(-1.14273 2.86187 -0.0731366)
(-0.52768 2.81078 0.20363)
(-1.08085 2.58977 -0.275672)
(-0.430792 3.06654 0.237645)
(-0.31423 3.05112 0.231346)
(-0.480996 3.01282 -0.172852)
(-0.88287 2.80951 0.115833)
(-0.106002 3.50832 0.70129)
(-0.255815 3.53714 0.447374)
(-0.318169 3.2886 0.257096)
(-0.12928 3.29716 0.259314)
(-0.800995 2.96215 0.0704316)
(-0.5159 3.8197 0.856991)
(-0.122042 3.88793 0.973476)
(0.487017 3.83371 0.883214)
(-0.397823 4.01285 0.0515955)
(-0.276341 3.44276 0.774924)
(-0.957302 3.64971 -0.40138)
(-0.217663 4.13875 1.14309)
(-0.206393 4.13916 0.938815)
(0.113028 3.99194 0.821107)
(0.687527 4.1663 1.10086)
(0.447234 4.68725 1.02463)
(-1.17169 4.909 -0.27865)
(0.402379 3.53518 0.910708)
(-0.43532 4.2837 0.839441)
(-0.387213 4.30762 0.808739)
(-0.184448 4.0276 1.1285)
(-0.269797 3.70067 2.01033)
(0.148247 4.24821 2.67272)
(1.12802 5.01462 2.54854)
(1.71511 4.8243 2.90574)
(-0.0970147 4.97052 -0.0615178)
(0.206698 3.93221 1.10925)
(-0.84104 3.57325 1.62937)
(-0.509262 3.45355 1.266)
(-0.65738 3.29923 1.23273)
(-0.201886 2.9919 1.86797)
(-0.146562 2.90303 1.70564)
(2.11677 2.80723 1.3987)
(4.16175 2.75819 1.07255)
(1.63671 4.80239 0.953625)
(-0.191987 2.0399 1.32998)
(0.130475 2.30404 1.94265)
(-0.0190684 2.23796 1.88164)
(-0.661472 1.88803 1.9142)
(-0.129922 1.31852 1.92306)
(-0.674401 1.49029 1.50834)
(-0.168813 1.25245 0.972705)
(0.390068 0.946561 0.223042)
(1.87625 1.03321 -0.171587)
(2.67813 1.962 0.176185)
(-0.393193 1.52613 -0.78686)
(-0.444806 1.44916 -0.234629)
(0.0588593 1.38618 -0.219769)
(0.00385606 1.59068 0.0852525)
(-0.0953704 1.28588 0.562346)
(0.738631 0.661998 0.528737)
(0.226301 0.320067 0.406306)
(-0.311694 -0.118393 0.607665)
(0.542995 -0.88635 0.18716)
(-0.320219 -1.86911 0.642081)
(-0.600378 0.0237529 0.934443)
(-0.616334 0.553987 -1.06041)
(-0.369199 1.1146 -1.42685)
(-0.148879 1.51387 -1.08642)
(-0.0363681 1.46722 -0.934215)
(0.317751 1.00452 -0.571411)
(0.504575 0.76535 -0.561051)
(1.05377 0.684853 0.408796)
(0.49314 0.945439 0.54877)
(0.964001 0.569846 0.406158)
(1.24472 0.438068 -0.255275)
(1.01152 0.305383 1.13016)
(-0.164099 0.218409 -0.408222)
(-0.696272 0.0443833 -1.7758)
(-0.356678 0.178814 -1.89505)
(0.0868546 0.408403 -1.86213)
(0.0124241 0.452587 -1.93858)
(0.237534 0.353911 -1.74802)
(0.135282 0.30512 -1.28744)
(0.223114 0.423138 -0.987256)
(0.43476 1.08401 -0.663384)
(0.737175 1.69464 -0.591607)
(0.755619 0.924775 -0.972671)
(1.33548 0.509127 -1.04752)
(0.574936 1.01469 -0.107992)
(-0.739796 0.313248 -0.0951396)
(-0.917988 2.09541 0.0277339)
(-0.785276 2.6128 -0.143288)
(-0.480785 2.49881 -0.265994)
(-0.276146 3.00307 0.412356)
(-0.622736 2.98934 0.0427342)
(-0.25827 2.82015 0.215294)
(-0.756345 2.67368 -0.277105)
(-0.368092 3.20122 0.439818)
(-0.276131 3.06929 0.14978)
(-0.0573621 3.18033 0.134276)
(-0.394966 3.00624 -0.124764)
(-0.472154 3.0012 -0.0262131)
(-0.197496 3.42819 0.770663)
(0.253302 3.55442 0.708828)
(0.113367 3.51629 0.391649)
(-0.0683124 3.31029 0.230496)
(-0.514011 3.37832 -0.0510987)
(-0.669794 2.96491 0.0924911)
(-0.527287 3.77249 0.956653)
(-0.261813 3.89996 0.915986)
(0.611594 3.93273 0.827013)
(1.03615 4.00786 0.779863)
(-0.232403 4.00055 0.169261)
(-0.133934 3.75476 0.657245)
(-0.857631 3.64463 -0.255291)
(-0.231944 4.24411 1.28153)
(0.000724819 4.1955 1.05848)
(0.091404 4.16909 0.962122)
(0.762089 4.11275 1.05256)
(1.16997 4.38427 1.49114)
(0.550228 5.01625 1.35604)
(-1.1748 4.90179 -0.390752)
(0.445202 3.59191 0.458871)
(-0.0361922 4.33237 0.573082)
(0.183822 4.35901 0.574059)
(-0.306145 4.26354 0.943741)
(-0.0308731 4.02284 1.28609)
(-0.222291 3.78791 1.94503)
(0.383742 4.2145 2.7326)
(1.55136 4.69818 3.02478)
(2.31599 4.12562 3.00484)
(0.712547 5.09664 0.170226)
(0.484493 3.00714 1.72197)
(0.244684 3.87163 1.06507)
(-0.423248 3.56081 1.5133)
(-0.569956 3.49745 1.03719)
(-0.382604 2.91761 1.70563)
(-0.900057 3.37831 0.652898)
(0.0250187 2.90499 1.05856)
(2.61825 2.46812 0.782794)
(2.19679 3.64495 1.50584)
(1.54182 4.63553 0.750876)
(-0.382234 1.92952 0.506488)
(-0.154368 2.01201 1.44782)
(0.252855 2.13823 1.89025)
(0.185471 2.15134 1.75461)
(-0.568453 1.68813 2.02842)
(-0.206392 1.21821 1.89524)
(-0.280618 1.14989 1.37266)
(0.166371 1.0812 0.655373)
(1.07061 0.705487 -0.077175)
(2.12822 0.561934 -0.451294)
(2.97624 1.56227 0.168327)
(-0.0597897 1.59031 -0.877427)
(-0.310672 1.54541 -0.633024)
(-0.316229 1.38727 -0.30406)
(0.193018 1.33273 -0.251412)
(0.196194 1.45528 -0.0427005)
(0.0638472 1.05727 0.628004)
(0.88584 0.51119 0.518046)
(0.389912 0.171457 0.337273)
(-0.165544 -0.150408 0.42786)
(0.620623 -0.98703 0.226942)
(-0.0792108 -1.76423 0.938796)
(-0.255747 0.274538 1.25483)
(-0.388795 0.187024 -1.36435)
(-0.558182 0.57188 -1.24532)
(-0.526709 1.06852 -1.37789)
(0.101878 1.26128 -1.34486)
(0.378323 1.30891 -1.00345)
(0.295998 0.972644 -0.561504)
(0.576205 0.663214 -0.524827)
(1.02229 0.70426 0.426967)
(0.613285 0.9728 0.251672)
(0.937861 0.606598 0.472167)
(1.19584 0.489932 -0.268928)
(0.94156 0.457428 1.08789)
(-0.0291472 0.178111 -0.507699)
(-0.566569 -0.411333 -2.4308)
(-0.638132 0.0411514 -1.83597)
(-0.330195 0.172018 -1.97116)
(0.136186 0.384429 -1.87687)
(0.0314452 0.442324 -1.93161)
(0.239728 0.346329 -1.74826)
(0.111746 0.298211 -1.28432)
(0.208607 0.421454 -0.977873)
(0.443676 1.10125 -0.641822)
(0.663456 1.72707 -0.726075)
(0.767326 0.938526 -0.921734)
(1.36536 0.494938 -1.07314)
(0.524951 1.01723 -0.11751)
(-0.728011 0.339149 -0.137732)
(-0.793717 1.77434 0.0678161)
(-1.14567 2.14613 0.128)
(-0.56753 2.07652 -0.0595649)
(-0.363222 2.70184 0.0314199)
(-0.556423 2.6358 -0.123259)
(-0.321217 2.44458 -0.245603)
(-0.412912 2.95741 0.245211)
(-0.539485 2.99595 0.342055)
(-0.455112 2.97542 -0.0470189)
(-0.268064 2.86232 0.173373)
(-0.47089 2.74673 -0.286598)
(-0.462597 3.15033 0.535028)
(-0.156718 3.16229 0.423009)
(0.047832 3.10199 0.198292)
(-0.128329 3.27235 0.0186371)
(-0.298522 3.03645 -0.030881)
(-0.458845 3.03025 -0.0758473)
(-0.377164 3.35471 0.747098)
(0.0228435 3.40432 0.705486)
(0.365766 3.52621 0.712942)
(0.474376 3.46361 0.339991)
(0.203295 3.36858 0.246734)
(-0.325682 3.53041 -0.148209)
(-0.412113 3.07089 0.171522)
(-0.492099 3.7188 1.10499)
(-0.265009 3.81005 1.02482)
(-0.0442769 3.9511 0.945746)
(1.01172 4.00969 0.883445)
(0.79174 4.14919 0.682537)
(0.110683 4.05748 0.139742)
(0.032515 3.87693 0.699095)
(-0.756781 3.63401 -0.136302)
(0.168553 4.28639 1.4786)
(-0.121626 4.34155 1.17431)
(-0.112701 4.24675 0.990497)
(0.49334 4.18103 1.11496)
(1.25187 4.03401 1.73404)
(1.3062 4.72217 1.91203)
(1.10968 5.20528 1.78108)
(-0.384706 4.75352 -0.0743639)
(-0.157157 3.83447 -0.191615)
(-0.321941 4.31101 1.18637)
(-0.191863 4.25883 1.07979)
(0.324733 4.33232 0.64316)
(-0.0701881 4.27369 1.19461)
(-0.269283 4.01884 1.55998)
(0.118949 3.93304 2.28293)
(1.46319 3.79514 2.86939)
(2.53209 4.07013 3.1595)
(1.86804 4.43866 2.6591)
(1.44291 5.06527 0.381004)
(-0.174336 2.39137 1.82349)
(0.668242 3.01132 1.4485)
(0.195746 3.85338 1.13809)
(-0.251154 3.60921 1.41601)
(-0.151179 3.31939 1.35853)
(-0.130548 2.80618 1.74425)
(0.156716 2.69254 1.69663)
(0.243591 2.93818 0.779781)
(2.76375 2.50732 0.192774)
(3.38503 2.73366 1.04001)
(2.32927 4.01286 0.889603)
(-0.220319 1.95837 0.146545)
(-0.434294 1.86454 0.708782)
(-0.11212 2.00041 1.42293)
(0.496471 2.07351 1.68261)
(0.201387 2.01797 1.78318)
(-0.472234 1.50838 2.14715)
(-0.471904 1.25039 1.69718)
(0.215055 1.00404 1.14575)
(0.537122 0.837037 0.500749)
(1.59338 0.524975 -0.55985)
(2.02188 0.689255 -0.281326)
(3.57058 1.00159 0.38711)
(0.654279 1.52303 -0.581472)
(0.00030561 1.59617 -0.750965)
(-0.415885 1.43583 -0.514939)
(-0.186785 1.32548 -0.291812)
(0.340202 1.30471 -0.328445)
(0.301022 1.2882 -0.0687353)
(0.122235 0.906705 0.406855)
(1.0555 0.122875 0.409899)
(0.53255 0.0509209 0.254514)
(-0.0597716 -0.299158 0.354341)
(0.631982 -0.985901 0.134582)
(-0.148073 -1.83992 1.16795)
(0.462078 0.0988109 0.981962)
(-0.109842 -0.052264 -2.78306)
(-0.389488 0.178838 -1.486)
(-0.488991 0.560203 -1.42882)
(-0.366715 1.03109 -1.43809)
(-0.137404 1.39378 -1.12547)
(0.301618 1.29601 -1.01793)
(0.326202 0.927579 -0.561838)
(0.54933 0.576456 -0.519896)
(1.0389 0.563541 0.375868)
(0.61444 0.964065 0.150955)
(0.858829 0.646992 0.516828)
(1.24178 0.47975 -0.194626)
(0.91924 0.623297 1.02972)
(0.0116622 0.277222 -0.654238)
(-0.401948 -0.698911 -2.78548)
(-0.579984 -0.417712 -2.46132)
(-0.618456 0.0343918 -1.89874)
(-0.26744 0.149988 -2.04167)
(0.163647 0.35856 -1.88606)
(0.05807 0.417915 -1.93019)
(0.235678 0.326873 -1.74415)
(0.0846581 0.2941 -1.28229)
(0.190664 0.419449 -0.972224)
(0.44873 1.08595 -0.635094)
(0.636387 1.78516 -0.830686)
(0.762551 0.934322 -0.903062)
(1.34321 0.441149 -1.10441)
(0.463386 1.0662 -0.150631)
(-0.789363 0.380331 -0.114914)
(-0.866051 2.03879 0.178207)
(-0.709215 1.73363 0.0936783)
(-0.888395 2.34194 0.130205)
(-0.536813 2.25625 -0.220529)
(-0.691787 1.93821 0.00311039)
(-0.306483 2.82994 0.129773)
(-0.191735 2.67188 -0.0787868)
(-0.55006 2.59908 -0.0381944)
(-0.464473 2.39665 -0.181988)
(-0.434601 2.8963 0.460481)
(-0.355506 3.0055 0.3563)
(-0.00251095 3.00537 0.333381)
(-0.444911 2.96033 0.017348)
(-0.257351 2.92753 0.138311)
(-0.504701 2.6805 -0.30671)
(-0.338826 3.16431 0.737586)
(-0.287667 3.15739 0.6444)
(0.0145736 3.16655 0.418314)
(0.303756 3.16839 0.262402)
(-0.054014 3.2797 0.0082945)
(-0.144331 3.12475 0.0736274)
(-0.29553 3.06245 -0.11365)
(-0.582225 3.17041 0.880921)
(-0.34277 3.35473 0.777053)
(0.341744 3.39742 0.779744)
(0.699961 3.37333 0.689849)
(0.637642 3.45383 0.336065)
(0.466439 3.42674 0.23882)
(-0.29538 3.64967 -0.137638)
(-0.221914 3.175 0.21534)
(-0.177402 3.6646 1.34828)
(-0.0912757 3.80133 1.13004)
(-0.0554024 3.88871 1.05306)
(0.74701 3.99846 0.96731)
(1.02912 4.07585 0.859443)
(0.858004 4.19618 0.541087)
(0.40832 4.21154 0.19344)
(0.93115 3.82836 0.336292)
(-0.675018 3.67337 -0.0760706)
(-0.200287 4.36691 1.5194)
(0.463703 4.34935 1.40802)
(0.196917 4.34213 1.1187)
(0.372495 4.3754 1.05777)
(1.11294 4.20804 1.41324)
(1.69154 4.05974 2.30938)
(1.17526 5.01787 2.09865)
(1.51713 4.94764 1.7749)
(0.604058 4.59641 0.723)
(-0.582405 3.99439 -0.826577)
(0.393031 4.05057 1.24716)
(-0.291191 4.25809 1.17838)
(0.733 4.49797 0.402906)
(0.487687 4.33828 1.00552)
(-0.249543 4.29012 1.29757)
(-0.00863458 4.09127 1.68817)
(0.230902 3.9511 2.1887)
(2.54041 3.09339 2.85739)
(4.6039 1.65098 2.53532)
(3.81424 3.29259 1.95345)
(1.89587 4.81716 0.669345)
(-0.319497 2.61995 1.57313)
(-0.139083 2.4907 1.69614)
(0.966345 2.99339 1.30275)
(0.251212 3.81676 1.19923)
(-0.0333045 3.46989 1.62961)
(-0.0611844 3.08648 1.73543)
(-0.260403 2.83624 1.41449)
(0.273525 2.67502 1.16123)
(0.750656 3.06283 0.415303)
(3.90351 1.56049 -0.367686)
(4.13534 1.34764 0.824579)
(2.68762 3.5912 0.804419)
(-0.0795758 1.81203 0.102488)
(-0.234228 1.86025 0.463304)
(-0.430452 1.81952 0.934046)
(0.138277 1.96992 1.40834)
(0.62328 1.89854 1.67726)
(-0.0703118 1.9778 1.78194)
(-0.228719 1.42398 2.10877)
(-0.299385 0.872042 1.68035)
(0.318198 0.854609 0.961836)
(0.777356 0.741643 0.46253)
(1.8413 0.591367 -0.721639)
(2.02611 0.652767 0.0409847)
(3.7636 0.894822 0.725642)
(0.532709 1.39484 -0.427803)
(0.563706 1.56784 -0.574761)
(0.139045 1.57415 -0.546104)
(0.0242813 1.40753 -0.392932)
(-0.0549107 1.30433 -0.252549)
(0.471532 1.23349 -0.343966)
(0.376067 1.11758 -0.0841533)
(0.195285 0.759227 0.27861)
(0.895997 0.244865 0.311185)
(0.656205 -0.0409285 0.192448)
(-0.142261 -0.186133 0.147263)
(0.581642 -0.959063 0.0379876)
(-0.281935 -1.80123 1.2863)
(1.21449 -0.121074 -0.00731616)
(0.0154575 0.306632 -2.64131)
(-0.113184 -0.0495124 -2.77447)
(-0.38771 0.175658 -1.59669)
(-0.439228 0.549611 -1.54917)
(-0.267314 1.00313 -1.47039)
(0.0615339 1.25796 -1.28717)
(0.480272 1.18074 -1.08417)
(0.328804 0.898229 -0.575833)
(0.577779 0.516169 -0.481617)
(1.05601 0.685224 -0.144597)
(0.690508 0.959495 -0.303209)
(0.717595 0.71876 0.425849)
(1.26239 0.462982 -0.0756485)
(0.875642 0.840868 0.934837)
(0.0309453 0.425422 -0.753519)
(-0.499083 -0.64232 -2.61926)
(-0.410666 -0.695906 -2.79246)
(-0.589556 -0.418594 -2.48656)
(-0.658252 0.0409016 -1.95455)
(-0.14848 0.111697 -2.10231)
(0.194312 0.330011 -1.88738)
(0.0714262 0.401381 -1.92671)
(0.231797 0.31794 -1.73622)
(0.0554012 0.290791 -1.28026)
(0.174103 0.42731 -0.971162)
(0.472167 1.08841 -0.646856)
(0.651847 1.79272 -0.824419)
(0.781799 0.950978 -0.888345)
(1.34548 0.409898 -1.18746)
(0.504184 1.1142 -0.131173)
(-0.811669 0.44214 -0.0861003)
(-0.901458 1.63761 0.217091)
(-0.856542 2.12026 0.320626)
(-1.00131 1.97017 0.178271)
(-0.658467 1.71366 0.119356)
(-0.661537 2.5402 0.301316)
(-0.814916 2.28546 0.12475)
(-0.80992 2.11782 0.0327571)
(-0.600022 2.00849 -0.00354464)
(-0.191042 2.86893 0.262522)
(-0.310551 2.75642 0.0586787)
(-0.471465 2.63687 0.0823043)
(-0.552379 2.61256 0.0421713)
(-0.419211 2.39141 -0.0935087)
(-0.403958 2.94881 0.450958)
(-0.308058 2.94367 0.522526)
(-0.0386421 2.98903 0.364956)
(0.0960448 2.99102 0.306534)
(-0.299577 3.00754 0.00933565)
(-0.370544 2.90874 0.0645118)
(-0.321223 2.66014 -0.233839)
(-0.439595 3.09511 0.811655)
(-0.285041 3.20563 0.714918)
(0.102452 3.20498 0.594283)
(0.262032 3.18222 0.435184)
(0.382376 3.20551 0.252509)
(0.0525097 3.20425 0.0152588)
(-0.207559 3.20803 -0.00884012)
(-0.162748 3.04963 -0.15952)
(-0.399006 3.14095 0.969378)
(-0.248198 3.2773 0.951407)
(0.19215 3.41509 0.714583)
(0.56993 3.43641 0.732967)
(0.797742 3.37198 0.635536)
(0.710762 3.5256 0.282048)
(0.62003 3.47365 0.320791)
(-0.229149 3.60035 0.0296849)
(-0.215146 3.20731 -0.0894166)
(0.450687 3.49561 1.47889)
(-0.172894 3.63843 1.28327)
(0.0618688 3.8773 1.14126)
(0.408216 3.9541 1.14303)
(0.930515 4.08365 1.02352)
(1.31596 3.97487 0.850967)
(1.23718 4.24627 0.642368)
(0.5318 4.28686 0.44179)
(1.04565 4.06377 -0.305233)
(-0.371968 3.65753 0.214973)
(0.105847 3.80904 1.62054)
(0.286551 4.32851 1.54558)
(0.307714 4.39789 1.41352)
(0.309665 4.3281 1.14764)
(0.475741 4.44533 1.21523)
(1.5119 4.1581 1.80264)
(1.46134 4.5642 2.45199)
(1.32849 4.96768 2.15956)
(2.29619 4.11773 1.86926)
(1.77197 4.08363 1.64394)
(-0.616396 4.07212 -0.997371)
(0.362355 3.86435 1.76312)
(-0.106118 4.28594 1.43197)
(0.388044 4.34701 0.874141)
(0.303671 4.45061 1.08838)
(0.499089 4.36787 1.0452)
(0.132078 4.28188 1.44041)
(0.236136 4.08194 1.86095)
(0.591138 3.76751 2.1279)
(3.0039 2.36319 2.74814)
(3.24045 3.1674 1.92458)
(2.85024 3.3274 1.84451)
(2.05388 4.66454 0.778664)
(-0.281405 2.92798 1.54226)
(-0.274388 2.62589 1.86387)
(-0.0661303 2.52518 1.7562)
(0.93107 3.02807 1.17847)
(0.346276 3.50741 1.35484)
(-0.12203 3.39449 1.49887)
(0.0127822 3.09788 1.54832)
(0.427223 2.37098 1.76402)
(0.79604 2.37513 1.22076)
(2.10223 2.45164 0.867738)
(3.98476 1.70668 0.112069)
(3.47559 1.73495 1.54155)
(2.93099 3.11815 0.89488)
(0.0241153 1.89173 0.339119)
(-0.0407819 1.74792 0.110717)
(-0.35128 1.76648 0.621413)
(-0.442259 1.69909 1.14099)
(0.182848 1.97863 1.36047)
(0.351878 1.85814 1.64136)
(-0.134324 1.85943 1.78572)
(0.169142 0.962622 2.18177)
(0.262669 0.764847 1.55234)
(0.791886 0.656434 0.673141)
(1.3659 0.557074 0.356731)
(1.84682 0.836045 -0.465005)
(2.54979 0.070927 1.6694)
(4.06676 0.230325 1.2641)
(0.659692 1.86828 -0.172838)
(0.573007 1.3859 -0.370453)
(0.455184 1.61356 -0.439944)
(0.188131 1.5116 -0.497733)
(-0.0261713 1.33691 -0.321612)
(0.00737249 1.28646 -0.199898)
(0.587507 1.14149 -0.289058)
(0.467143 0.950813 -0.110865)
(0.223059 0.65504 0.17152)
(0.986435 0.0835523 0.197125)
(0.821499 -0.125856 0.132716)
(-0.093051 -0.138786 0.0741017)
(0.464332 -0.955331 -0.0700238)
(-0.255183 -1.64866 1.21495)
(1.43982 -0.0807996 -0.407565)
(0.00458678 0.877973 -1.76854)
(0.105142 0.397183 -2.53295)
(-0.115154 -0.0351359 -2.72909)
(-0.384826 0.164616 -1.70055)
(-0.43005 0.543761 -1.59939)
(-0.29924 0.901736 -1.52177)
(0.0108029 1.23811 -1.27431)
(0.403221 1.18009 -1.06781)
(0.35343 0.86 -0.604211)
(0.626625 0.41033 -0.506419)
(1.05985 0.667972 -0.177149)
(0.738756 0.954829 -0.518214)
(0.714218 0.745395 0.153695)
(1.2236 0.38826 0.152077)
(0.671835 1.31413 0.689564)
(0.000127434 0.602992 -0.725171)
(-0.561382 0.0325359 -2.29925)
(-0.506801 -0.622148 -2.60287)
(-0.44162 -0.687806 -2.79589)
(-0.609388 -0.41841 -2.49987)
(-0.772609 0.067648 -1.98306)
(-0.0515212 0.0609111 -2.14211)
(0.22293 0.299576 -1.88696)
(0.0924927 0.378433 -1.92642)
(0.229681 0.297431 -1.72886)
(0.0282534 0.292192 -1.27715)
(0.164168 0.426937 -0.96535)
(0.486338 1.11555 -0.662019)
(0.714697 1.76996 -0.726967)
(0.754533 0.942685 -0.948344)
(1.3691 0.429837 -1.18112)
(0.408085 1.11221 -0.144309)
(-0.837026 0.479872 -0.0630998)
(-0.912146 1.62168 0.00697342)
(-1.07545 1.89454 0.0554623)
(-0.841579 1.62319 0.265353)
(-0.723028 2.25321 0.255871)
(-0.779217 2.14184 0.33023)
(-0.802932 1.95993 0.0546712)
(-0.533477 1.79164 0.0539772)
(-0.415144 2.59395 0.289432)
(-0.657736 2.39976 0.224632)
(-0.551868 2.3161 0.068508)
(-0.759783 2.22346 0.0134985)
(-0.55945 2.05812 0.0443516)
(-0.119199 2.79949 0.29985)
(-0.14687 2.84473 0.332144)
(0.061476 2.74863 0.0726744)
(-0.160606 2.66783 -0.00295147)
(-0.600095 2.60999 0.0494423)
(-0.359776 2.35916 -0.09254)
(-0.418709 2.91415 0.706759)
(-0.215124 2.98227 0.498126)
(0.251377 2.97651 0.555584)
(0.350408 3.01868 0.35196)
(0.251941 3.01962 0.254383)
(-0.319196 2.9772 0.0159087)
(-0.157919 2.93518 -0.000684526)
(-0.308861 2.65197 -0.12629)
(-0.267248 3.14503 0.861619)
(-0.142513 3.19134 0.790475)
(0.129095 3.21398 0.743042)
(0.546332 3.26719 0.680973)
(0.512116 3.16391 0.403837)
(0.392168 3.23166 0.351815)
(0.224368 3.16745 -0.00909523)
(0.0429671 3.30119 0.0215008)
(-0.0231495 3.07519 -0.0836824)
(0.0588079 2.91392 1.44524)
(0.050596 3.1931 1.13497)
(0.328133 3.32462 0.99602)
(0.533593 3.45738 0.825236)
(0.868081 3.39125 0.673181)
(0.994573 3.41038 0.621342)
(0.823827 3.52421 0.315847)
(0.804061 3.52867 0.360859)
(-0.0591533 3.46181 0.24148)
(0.435726 3.32626 -0.145436)
(0.0976164 3.24869 1.81093)
(-0.270509 3.67292 1.42975)
(0.367166 3.68676 1.24956)
(0.223029 3.85773 1.14163)
(0.745873 4.06439 1.13369)
(1.00379 4.05269 1.01441)
(2.0924 3.82008 0.998319)
(1.65463 4.30819 0.7627)
(1.15178 4.213 0.665456)
(0.534139 4.31744 -0.695535)
(0.114842 3.50942 0.495779)
(0.0671645 3.57428 1.86473)
(0.280926 3.9882 1.62208)
(0.545712 4.3341 1.40007)
(0.346761 4.44036 1.38712)
(0.670147 4.38261 1.32096)
(1.4969 4.11897 1.75161)
(1.35041 4.31047 2.27308)
(1.54518 4.71002 2.36245)
(1.92644 4.39143 2.51005)
(3.08422 3.44403 1.81731)
(1.69647 3.75453 1.10289)
(-1.07871 4.31323 -1.22355)
(0.093505 3.83481 2.13142)
(0.230983 4.07756 1.67971)
(0.0195709 4.38051 1.26295)
(0.321751 4.309 1.05093)
(0.624761 4.43172 0.732772)
(0.566886 4.33594 0.953675)
(0.318069 4.20337 1.65256)
(0.364283 3.85791 2.18393)
(0.981272 3.47709 2.13911)
(2.703 2.55163 2.39768)
(4.28709 2.08874 1.52431)
(1.9213 3.61507 1.99265)
(2.06619 4.71781 0.602713)
(-0.23241 2.89271 1.50585)
(-0.29827 2.9134 1.8472)
(-0.265034 2.62762 1.97711)
(0.131179 2.68096 1.66346)