/*--------------------------------*- C++ -*----------------------------------*\
  =========                 |
  \\      /  F ield         | OpenFOAM: The Open Source CFD Toolbox
   \\    /   O peration     | Website:  https://openfoam.org
    \\  /    A nd           | Version:  7
     \\/     M anipulation  |
\*---------------------------------------------------------------------------*/
FoamFile
{
    version     2.0;
    format      ascii;
    class       volScalarField;
    location    "7";
    object      p;
}
// * * * * * * * * * * * * * * * * * * * * * * * * * * * * * * * * * * * * * //

dimensions      [0 2 -2 0 0 0 0];

internalField   nonuniform List<scalar> 
18780
(
-60.7421
-60.8686
-60.7614
-60.225
-61.0439
-60.9585
-60.3159
-60.7844
-60.2632
-59.9176
-60.8446
-61.0951
-60.3209
-61.0358
-60.3736
-59.9056
-60.8118
-60.3045
-59.9561
-59.4909
-61.8195
-60.9383
-60.6184
-61.1501
-60.4452
-59.6058
-61.0829
-60.4451
-60.0203
-59.2427
-60.8368
-60.3461
-60.0033
-59.5243
-59.2595
-59.7603
-61.9075
-60.8606
-61.023
-60.7995
-59.4502
-61.2213
-60.5579
-59.7265
-58.8036
-61.1163
-60.5355
-60.1116
-59.3335
-59.0409
-60.8616
-60.3787
-60.0468
-59.5533
-59.2903
-59.128
-57.5585
-59.9369
-59.1849
-62.0398
-61.1056
-58.905
-61.1098
-60.9406
-59.6991
-58.2485
-61.297
-60.6541
-59.863
-58.9432
-58.7396
-61.1569
-60.621
-60.2088
-59.4378
-59.1036
-59.0021
-60.8935
-60.4186
-60.0833
-59.5853
-59.3226
-59.1637
-58.3751
-55.4602
-57.7985
-57.3945
-60.0504
-59.5645
-57.6944
-62.0018
-61.4059
-59.1686
-57.5174
-61.1569
-61.0581
-60.0045
-58.4286
-57.9429
-61.3478
-60.7257
-60.0111
-59.0894
-58.7994
-59.0568
-61.1985
-60.7048
-60.2953
-59.5501
-59.1778
-59.0654
-58.3624
-60.9231
-60.4545
-60.1243
-59.6264
-59.3586
-59.2054
-58.3877
-58.2438
-53.5963
-55.6181
-54.9383
-57.9379
-57.689
-56.1015
-59.8635
-59.8584
-58.0756
-56.1685
-61.9955
-61.6107
-59.4849
-57.7621
-56.874
-61.2187
-61.1848
-60.2301
-58.6416
-57.9991
-58.4873
-61.3792
-60.8223
-60.1737
-59.2396
-58.8655
-59.1454
-57.4683
-61.2395
-60.781
-60.3751
-59.6592
-59.2599
-59.1282
-58.4733
-57.5633
-60.9534
-60.488
-60.1679
-59.6611
-59.3947
-59.2475
-58.409
-58.2628
-57.8564
-50.8626
-52.0319
-53.6583
-53.4197
-55.6512
-55.2518
-54.4335
-58.1195
-57.929
-56.4141
-54.9748
-59.9973
-60.0829
-58.4962
-56.307
-55.6733
-62.0214
-61.787
-59.7893
-57.9958
-56.9758
-56.3121
-61.2945
-61.2923
-60.461
-58.8867
-58.1095
-58.4956
-56.8042
-61.4055
-60.9432
-60.3084
-59.3921
-58.9536
-59.2691
-57.6794
-56.8761
-61.2803
-60.8465
-60.459
-59.7677
-59.3475
-59.1817
-58.6613
-57.7131
-56.6415
-60.9739
-60.52
-60.2048
-59.6891
-59.428
-59.2912
-58.3932
-58.3153
-57.9303
-56.6842
-50.0228
-50.8287
-50.7321
-52.1905
-51.9762
-53.7289
-53.5803
-53.039
-55.9854
-55.3676
-54.6857
-53.7517
-58.2822
-58.2543
-56.7208
-55.0854
-54.4697
-60.2987
-60.3169
-58.7906
-56.5542
-55.7965
-55.3801
-62.0612
-61.9438
-60.1147
-58.1315
-57.1562
-56.3935
-55.5404
-61.3868
-61.3934
-60.6966
-59.205
-58.2656
-58.5289
-56.9171
-55.813
-61.4185
-61.0395
-60.4135
-59.5513
-59.0482
-59.3746
-57.9977
-56.9769
-56.1581
-61.3075
-60.9047
-60.5398
-59.8775
-59.4377
-59.2363
-58.8691
-57.8604
-56.7322
-55.9225
-60.9908
-60.553
-60.238
-59.7192
-59.4579
-59.3354
-58.47
-58.3883
-58.0108
-56.6994
-55.6503
-49.4727
-50.0699
-50.0616
-50.9686
-50.7604
-50.7965
-52.0805
-52.0894
-51.698
-53.977
-53.7868
-53.2937
-52.7486
-56.2979
-55.5988
-54.8317
-53.8771
-53.234
-58.5115
-58.5307
-56.9287
-55.3242
-54.5462
-53.8575
-60.3997
-60.5718
-59.1042
-56.8824
-55.8772
-55.516
-54.2965
-62.0991
-62.1186
-60.4542
-58.3284
-57.3056
-56.5353
-55.6959
-54.8284
-61.428
-61.4864
-60.933
-59.4111
-58.4472
-58.6302
-57.1618
-55.8779
-55.0441
-61.4161
-61.1205
-60.51
-59.7009
-59.141
-59.4669
-58.3571
-57.0794
-56.3042
-54.9344
-61.3391
-60.9558
-60.6197
-59.9817
-59.5289
-59.2909
-59.0289
-57.9824
-56.8858
-55.9798
-55.0997
-61.0133
-60.5867
-60.2682
-59.7504
-59.4913
-59.3757
-58.5907
-58.4346
-58.027
-56.7109
-55.6647
-55.0429
-48.6098
-48.9665
-49.567
-49.4534
-50.1225
-50.025
-50.0154
-51.0503
-50.9755
-50.8459
-50.465
-52.4113
-52.3196
-51.92
-51.537
-54.1601
-53.9099
-53.4466
-52.855
-52.1288
-56.4063
-56.0863
-55.1123
-53.9697
-53.358
-52.9412
-58.6249
-58.7808
-57.2686
-55.6641
-54.6505
-53.9055
-53.1799
-60.6447
-60.8498
-59.5086
-57.1088
-56.0283
-55.6006
-54.4998
-53.4055
-62.0927
-62.2711
-60.8531
-58.6031
-57.4476
-56.6654
-55.7956
-54.7414
-53.9958
-61.4635
-61.5591
-61.1722
-59.6034
-58.6277
-58.649
-57.3888
-56.0224
-55.2503
-54.0737
-61.4147
-61.1969
-60.639
-59.8438
-59.2483
-59.5693
-58.5792
-57.2615
-56.4181
-55.106
-54.0042
-61.3681
-61.0032
-60.7012
-60.0801
-59.6209
-59.3414
-59.1617
-58.1417
-57.0183
-56.0693
-55.158
-54.1798
-61.0318
-60.6161
-60.298
-59.7856
-59.5269
-59.4164
-58.709
-58.4533
-58.0528
-56.7526
-55.6664
-55.0331
-54.136
-48.3701
-48.6631
-48.6694
-49.0019
-48.9597
-49.5241
-49.6519
-49.3269
-50.2094
-50.077
-50.1693
-49.8484
-51.04
-51.161
-50.845
-50.4252
-50.374
-52.6812
-52.5276
-52.3469
-51.8174
-51.2788
-54.3874
-54.1781
-53.676
-52.9493
-52.3425
-51.9916
-56.6035
-56.367
-55.3265
-54.1477
-53.5311
-53.2037
-52.4559
-58.8305
-59.085
-57.5849
-55.9749
-54.7436
-54.1139
-53.3657
-52.5902
-60.9487
-61.2169
-59.8877
-57.4039
-56.1543
-55.6201
-54.6415
-53.6832
-52.6566
-62.0067
-62.3681
-61.1729
-58.8361
-57.5753
-56.8265
-55.9616
-55.0052
-54.2281
-53.4135
-61.459
-61.6207
-61.3622
-59.8615
-58.9374
-58.7044
-57.6078
-56.2021
-55.4459
-54.2453
-52.8518
-61.4101
-61.2619
-60.772
-59.9748
-59.3656
-59.6908
-58.7953
-57.4385
-56.5405
-55.3126
-54.1105
-53.3413
-61.3925
-61.0487
-60.7762
-60.1792
-59.7201
-59.364
-59.2998
-58.3057
-57.1428
-56.1829
-55.2157
-54.2567
-53.4111
-61.0443
-60.6434
-60.3271
-59.8197
-59.5609
-59.4573
-58.8309
-58.4709
-58.1322
-56.8061
-55.7223
-55.0345
-54.1554
-53.2539
-48.1605
-48.4209
-48.4276
-48.6516
-48.699
-48.6779
-49.0561
-49.1088
-49.0964
-49.5728
-49.5462
-49.4851
-49.3537
-50.247
-50.276
-50.1258
-49.9164
-49.9292
-51.2385
-51.2184
-51.1614
-50.5861
-50.4583
-50.2109
-52.6125
-52.6431
-52.4197
-51.9906
-51.2993
-51.1482
-54.6305
-54.5491
-53.8903
-53.0753
-52.4867
-52.1375
-51.4954
-56.792
-56.6217
-55.6334
-54.6092
-53.9062
-53.567
-52.6204
-51.6744
-59.1633
-59.5337
-57.9393
-56.211
-54.8871
-54.1903
-53.4763
-52.6984
-51.8439
-61.2781
-61.5498
-60.2456
-57.7254
-56.3495
-55.8934
-54.8719
-53.8711
-52.8031
-52.2755
-61.9282
-62.4359
-61.4523
-59.0495
-57.8303
-57.0126
-56.2311
-55.1409
-54.3916
-53.4394
-52.6348
-61.4645
-61.6731
-61.506
-60.1521
-59.0422
-58.8436
-57.7495
-56.4222
-55.5272
-54.437
-53.4628
-52.5151
-61.4204
-61.3171
-60.8686
-60.1163
-59.4917
-59.8518
-59.0469
-57.6422
-56.7414
-55.5016
-54.2083
-53.4678
-52.6374
-61.426
-61.0914
-60.8397
-60.2714
-59.8247
-59.4555
-59.4348
-58.4744
-57.2995
-56.2839
-55.282
-54.3312
-53.4277
-52.6266
-61.0558
-60.6678
-60.3525
-59.8488
-59.5864
-59.4949
-58.9293
-58.4906
-58.1966
-56.8763
-55.7921
-55.0566
-54.1808
-53.2673
-52.6705
-47.9744
-48.1606
-48.1726
-48.4764
-48.491
-48.3857
-48.7691
-48.6535
-48.7872
-48.5574
-49.0984
-49.1531
-49.058
-49.0353
-49.6382
-49.6308
-49.5718
-49.4363
-49.2387
-50.3019
-50.2941
-50.2545
-50.1665
-49.8442
-49.6018
-51.3843
-51.3908
-51.3098
-50.8331
-50.5949
-50.2567
-49.8768
-52.7532
-52.8273
-52.6912
-52.0473
-51.4762
-51.2638
-50.7458
-54.6015
-54.8502
-54.1174
-53.2269
-52.6798
-52.3318
-51.6201
-50.8448
-57.0359
-56.9409
-56.0183
-54.9685
-54.2313
-53.6462
-52.9007
-51.8674
-51.0283
-59.7694
-60.0677
-58.3688
-56.5773
-55.0449
-54.3804
-53.5439
-52.7973
-51.9374
-51.2338
-61.5768
-61.6956
-60.6582
-58.1634
-56.4816
-56.0411
-55.0603
-53.9978
-52.9803
-52.3411
-51.766
-61.7691
-62.3984
-61.6962
-59.2749
-58.2318
-57.2608
-56.5162
-55.4002
-54.5575
-53.6314
-52.8482
-51.8069
-61.4229
-61.6703
-61.6497
-60.4108
-59.1817
-58.9753
-58.0212
-56.6261
-55.7063
-54.6094
-53.6875
-52.7285
-51.8201
-61.438
-61.371
-60.9626
-60.2548
-59.6198
-59.9814
-59.3466
-57.841
-56.8931
-55.6686
-54.3319
-53.604
-52.7598
-51.9097
-61.455
-61.131
-60.9002
-60.3627
-59.9286
-59.619
-59.5755
-58.6542
-57.4542
-56.4171
-55.3604
-54.4093
-53.439
-52.6708
-51.9402
-61.0621
-60.6908
-60.3756
-59.877
-59.6073
-59.5257
-59.0089
-58.5005
-58.2647
-56.9361
-55.8037
-55.0843
-54.2313
-53.2706
-52.6881
-52.247
-47.9055
-47.9559
-48.0278
-48.2886
-48.2082
-48.1565
-48.4783
-48.4624
-48.4646
-48.3513
-48.7731
-48.752
-48.7098
-48.6665
-48.5694
-49.102
-49.191
-49.1459
-49.0375
-48.9621
-49.7454
-49.6758
-49.6196
-49.4032
-49.3302
-49.2053
-50.3615
-50.4662
-50.4087
-50.223
-49.9089
-49.5638
-49.5304
-51.2865
-51.5402
-51.4903
-51.1207
-50.6355
-50.5233
-49.87
-49.5016
-52.878
-52.9153
-52.7511
-52.2199
-51.7378
-51.3426
-50.9917
-50.3347
-54.682
-55.1611
-54.4004
-53.3929
-52.8543
-52.4944
-51.8098
-51.1383
-50.4645
-57.1422
-57.3893
-56.3852
-55.3115
-54.3867
-53.6117
-52.8876
-52.169
-51.2275
-50.5335
-60.2356
-60.5603
-58.6793
-56.9525
-55.3363
-54.5552
-53.7141
-53.0013
-52.1561
-51.323
-50.5558
-61.6114
-61.8045
-61.0639
-58.5393
-56.6726
-56.1648
-55.1841
-54.1285
-53.2118
-52.4819
-51.8663
-50.869
-61.5275
-62.338
-61.9042
-59.5025
-58.45
-57.4571
-56.676
-55.6003
-54.5773
-53.8312
-53.046
-51.9674
-51.1752
-61.3892
-61.6852
-61.7751
-60.6783
-59.3732
-59.0864
-58.3304
-56.8489
-55.9299
-54.6841
-53.6542
-52.8337
-51.915
-51.2558
-61.4548
-61.4131
-61.0524
-60.3902
-59.7413
-60.0506
-59.6438
-58.0545
-57.0936
-55.8473
-54.451
-53.7474
-52.8831
-51.9248
-51.4934
-61.4716
-61.1652
-60.9599
-60.4557
-60.0274
-59.7091
-59.7215
-58.8562
-57.6117
-56.5509
-55.4226
-54.4805
-53.5568
-52.7366
-51.9681
-51.5575
-61.0641
-60.7124
-60.397
-59.9024
-59.6312
-59.5529
-59.1049
-58.5814
-58.3522
-56.9955
-55.817
-55.1062
-54.2647
-53.2724
-52.7578
-52.256
-52.0177
-47.9807
-48.0072
-47.947
-48.0539
-48.0413
-48.012
-48.2587
-48.2399
-48.1741
-48.1549
-48.5477
-48.5056
-48.4872
-48.4143
-48.3167
-48.7688
-48.7816
-48.7921
-48.6925
-48.6299
-48.4849
-49.2049
-49.2389
-49.2361
-49.0986
-48.9805
-48.7772
-49.6633
-49.7522
-49.74
-49.5233
-49.3476
-49.3116
-48.9709
-50.5318
-50.5373
-50.4534
-50.3377
-50.0374
-49.8308
-49.6425
-49.1338
-51.5582
-51.6371
-51.5634
-51.2124
-50.8751
-50.6242
-49.9029
-49.6109
-49.2354
-52.934
-53.0959
-52.9459
-52.4907
-51.8585
-51.5635
-50.8989
-50.4485
-49.8517
-54.9107
-55.351
-54.6741
-53.6272
-53.0195
-52.6995
-52.0802
-51.3553
-50.619
-49.9654
-57.2083
-57.875
-56.7468
-55.6391
-54.5303
-53.6251
-53.0879
-52.3572
-51.5161
-50.6086
-50.0099
-60.4764
-61.0918
-59.2433
-57.378
-55.6402
-54.7625
-53.8722
-53.0892
-52.3249
-51.5098
-50.6743
-50.1367
-61.3089
-61.9119
-61.346
-58.8494
-56.9135
-56.3777
-55.3905
-54.3635
-53.4386
-52.6418
-52.0388
-51.0696
-50.4984
-61.3154
-62.2238
-62.0351
-59.7893
-58.7261
-57.621
-56.8854
-55.8343
-54.7443
-53.9267
-53.2331
-52.1682
-51.3449
-50.6315
-61.3646
-61.7039
-61.8624
-60.9284
-59.5569
-59.1569
-58.5317
-57.0544
-56.0984
-54.8513
-53.9378
-52.9468
-52.0206
-51.3483
-51.2296
-61.4713
-61.4324
-61.1496
-60.5296
-59.8613
-60.1032
-59.9135
-58.2565
-57.28
-55.996
-54.5624
-53.8912
-52.9904
-51.9777
-51.4863
-51.1879
-61.4871
-61.2033
-61.0135
-60.5394
-60.1165
-59.8301
-59.8691
-59.0212
-57.7907
-56.6897
-55.4928
-54.5515
-53.6724
-52.8165
-52.0245
-51.587
-51.3478
-61.0685
-60.7318
-60.4142
-59.9245
-59.6559
-59.5817
-59.1903
-58.7175
-58.4298
-57.0593
-55.8552
-55.1254
-54.292
-53.3086
-52.7883
-52.2624
-52.0334
-51.8655
-47.9281
-47.9889
-47.9416
-47.9908
-48.008
-47.9495
-48.0627
-48.0443
-48.047
-47.988
-48.3191
-48.2556
-48.2079
-48.1517
-48.0672
-48.5127
-48.5963
-48.5354
-48.4801
-48.3435
-48.2734
-48.8034
-48.8402
-48.8326
-48.7692
-48.6773
-48.5569
-48.3973
-49.0945
-49.1862
-49.272
-49.0967
-49.0083
-48.9236
-48.6677
-49.8506
-49.8333
-49.7809
-49.6952
-49.4056
-49.3067
-49.0846
-48.7509
-50.5427
-50.5885
-50.556
-50.4347
-50.017
-50.0275
-49.4646
-49.15
-48.7826
-51.6801
-51.7674
-51.6584
-51.3997
-51.0559
-50.7244
-50.4007
-49.7306
-49.311
-48.9659
-53.2635
-53.2914
-53.0872
-52.663
-52.1286
-51.7749
-51.2285
-50.5591
-50.0225
-49.4695
-55.1348
-55.8817
-55.0379
-53.9783
-53.2313
-52.8747
-52.1643
-51.4376
-50.802
-50.0512
-49.4832
-57.3238
-58.2622
-57.2106
-56.0588
-54.6984
-53.8263
-53.268
-52.4333
-51.611
-50.8596
-50.2925
-49.6048
-60.2965
-61.189
-59.7349
-57.8367
-56.0107
-54.9287
-54.1075
-53.2426
-52.4738
-51.6465
-50.9737
-50.394
-49.8768
-60.9946
-61.9572
-61.5798
-59.2356
-57.5102
-56.5952
-55.5203
-54.5915
-53.6647
-52.9801
-52.2835
-51.3273
-50.5891
-50.1156
-61.2326
-62.0195
-62.1153
-60.0482
-58.8967
-57.83
-57.081
-55.9848
-54.9397
-54.0978
-53.3869
-52.3322
-51.5031
-50.6937
-50.5455
-61.3635
-61.6941
-61.9219
-61.1499
-59.7915
-59.2363
-58.8756
-57.2985
-56.2391
-55.0482
-54.1029
-53.1351
-52.1441
-51.4415
-51.2445
-50.8371
-61.4959
-61.4532
-61.2412
-60.6647
-59.9876
-60.1639
-60.2176
-58.4684
-57.4769
-56.1641
-54.7221
-54.0357
-53.1446
-52.0547
-51.5018
-51.3117
-50.8977
-61.5047
-61.2381
-61.0615
-60.616
-60.2017
-59.9463
-60.0026
-59.141
-57.9817
-56.8475
-55.5738
-54.6315
-53.708
-52.8536
-52.0851
-51.5875
-51.3781
-51.4012
-61.0713
-60.7499
-60.4228
-59.95
-59.6842
-59.6002
-59.2623
-58.8167
-58.482
-57.1365
-55.9148
-55.1638
-54.319
-53.3417
-52.8107
-52.2783
-52.0552
-51.8737
-51.7795
-47.8809
-48.0255
-47.9187
-48.2617
-47.9664
-47.8217
-48.0346
-47.9449
-47.9406
-47.8653
-48.0385
-48.1118
-48.0762
-48.0199
-47.9624
-48.3315
-48.3346
-48.239
-48.2054
-48.1266
-48.0453
-48.4934
-48.6357
-48.6296
-48.4772
-48.4767
-48.3418
-48.2109
-48.8761
-48.894
-48.8964
-48.8287
-48.664
-48.6197
-48.4626
-48.2493
-49.1236
-49.2801
-49.2992
-49.2353
-49.1048
-48.978
-48.7294
-48.43
-49.918
-49.9288
-49.9187
-49.8728
-49.5614
-49.3775
-49.2702
-48.8309
-48.5702
-50.7468
-50.6063
-50.6495
-50.5352
-50.2523
-50.0225
-49.5827
-49.28
-48.9104
-48.7003
-51.5438
-51.9146
-51.7978
-51.5852
-51.1352
-50.8784
-50.536
-49.8203
-49.4133
-49.0767
-48.6677
-53.2184
-53.4531
-53.1232
-52.7253
-52.3281
-51.9072
-51.4334
-50.7313
-50.1607
-49.6153
-49.1094
-55.1713
-55.9792
-55.429
-54.2893
-53.3301
-52.6681
-52.2454
-51.5516
-50.9813
-50.1828
-49.7108
-49.2317
-57.1782
-58.7734
-57.7677
-56.3274
-55.112
-54.2337
-53.3766
-52.6296
-51.808
-51.0188
-50.4907
-49.752
-49.4132
-59.851
-61.0195
-60.3789
-58.2801
-56.3746
-55.1671
-54.2211
-53.4401
-52.6985
-51.7682
-51.1388
-50.5192
-49.9939
-49.6017
-60.7899
-61.9865
-61.7286
-59.6204
-57.9057
-56.779
-55.8243
-54.7699
-53.8369
-53.1802
-52.4728
-51.4875
-50.6653
-50.1658
-49.9311
-61.027
-61.884
-62.1807
-60.2755
-59.1008
-58.0278
-57.3016
-56.2602
-55.1913
-54.2839
-53.5857
-52.563
-51.7016
-50.7294
-50.5035
-50.6008
-61.3579
-61.6718
-61.9752
-61.3435
-60.0388
-59.3967
-59.1189
-57.5772
-56.3377
-55.2412
-54.302
-53.3283
-52.2913
-51.6191
-51.2458
-50.9147
-50.4178
-61.5254
-61.462
-61.3209
-60.7863
-60.1154
-60.2442
-60.5056
-58.6916
-57.6953
-56.32
-54.8786
-54.178
-53.2939
-52.1499
-51.5388
-51.4441
-50.9213
-50.9401
-61.5178
-61.2734
-61.1046
-60.6824
-60.2822
-60.0569
-60.1105
-59.2686
-58.1825
-57.006
-55.6646
-54.7091
-53.806
-52.8903
-52.137
-51.6198
-51.4174
-51.4077
-51.4384
-61.0749
-60.7647
-60.4358
-59.9775
-59.7119
-59.6161
-59.3429
-58.8933
-58.5225
-57.207
-55.9556
-55.1924
-54.3542
-53.3816
-52.8328
-52.2875
-52.0776
-51.8968
-51.78
-51.7841
-47.7165
-47.9256
-47.8582
-48.0611
-47.9352
-47.7142
-48.1895
-48.0615
-47.882
-47.7398
-47.9067
-47.9665
-47.9693
-47.853
-47.8057
-48.1633
-48.1702
-48.1442
-48.0176
-48.0209
-47.9125
-48.3116
-48.3516
-48.3397
-48.247
-48.1821
-48.1184
-48.0159
-48.4966
-48.6576
-48.6452
-48.5744
-48.5086
-48.3096
-48.2398
-48.0425
-48.7844
-48.9397
-48.9205
-48.737
-48.7675
-48.6455
-48.5265
-48.3091
-48.158
-49.3137
-49.2752
-49.3544
-49.4089
-49.1676
-48.9005
-48.7937
-48.4696
-48.3169
-49.906
-50.0119
-49.9608
-49.9899
-49.7599
-49.5617
-49.0993
-48.9516
-48.6309
-48.4181
-50.6081
-50.7441
-50.7559
-50.6663
-50.4434
-50.1562
-49.9086
-49.382
-49.0691
-48.8439
-48.4506
-51.6755
-51.7964
-51.9356
-51.7103
-51.2715
-50.9346
-50.6525
-50.031
-49.5729
-49.169
-48.6871
-48.5547
-53.2425
-53.8492
-53.4157
-53.0299
-52.5788
-51.8886
-51.6017
-50.8885
-50.3278
-49.6615
-49.2888
-48.9372
-55.0904
-56.0707
-55.9175
-54.686
-53.7135
-53.0664
-52.3187
-51.7818
-51.0992
-50.2754
-49.7659
-49.3985
-48.9781
-57.0385
-59.4253
-58.1606
-56.7946
-55.3856
-54.3216
-53.5387
-52.6916
-51.92
-51.2581
-50.6482
-49.8132
-49.4632
-49.2381
-59.323
-61.0535
-60.8886
-58.71
-56.7089
-55.4176
-54.4153
-53.5884
-52.8347
-51.8936
-51.2804
-50.5998
-50.0574
-49.6367
-49.5309
-60.4638
-61.9138
-61.8207
-59.836
-58.1504
-56.9179
-56.0614
-55.0035
-54.0855
-53.4002
-52.6405
-51.6701
-50.7431
-50.2094
-49.956
-49.9188
-60.8823
-61.7579
-62.238
-60.5349
-59.3508
-58.2463
-57.554
-56.6058
-55.3791
-54.4751
-53.7878
-52.8177
-51.9214
-50.7895
-50.4893
-50.6357
-50.2452
-61.3892
-61.6462
-61.9824
-61.5138
-60.2871
-59.5365
-59.3822
-57.8181
-56.582
-55.3874
-54.4419
-53.57
-52.4784
-51.7465
-51.2865
-50.9469
-50.4759
-50.4239
-61.5598
-61.4812
-61.4022
-60.8921
-60.246
-60.3176
-60.7634
-58.9699
-57.8664
-56.5063
-55.038
-54.3048
-53.4398
-52.3173
-51.5664
-51.4539
-50.948
-50.9262
-51.0263
-61.5291
-61.3058
-61.1442
-60.7358
-60.362
-60.1667
-60.1565
-59.3931
-58.3854
-57.1489
-55.7619
-54.794
-53.8984
-52.98
-52.1956
-51.6546
-51.4557
-51.4155
-51.4184
-51.4752
-61.086
-60.779
-60.4506
-59.9993
-59.7326
-59.64
-59.3941
-58.9676
-58.566
-57.2747
-55.9967
-55.2302
-54.4166
-53.4133
-52.8598
-52.2953
-52.1026
-51.9303
-51.7809
-51.7797
-51.8968
-47.6199
-47.67
-47.7376
-47.7253
-47.8426
-47.7773
-48.0034
-47.9745
-47.7846
-47.6015
-48.1705
-48.0084
-47.9331
-47.8103
-47.6816
-47.9611
-47.99
-47.9566
-47.903
-47.8287
-47.7823
-48.0967
-48.1948
-48.1517
-48.0718
-48.0601
-47.944
-47.8692
-48.3176
-48.3568
-48.3987
-48.265
-48.2483
-48.103
-48.0457
-47.8669
-48.5288
-48.5945
-48.6547
-48.6256
-48.5264
-48.375
-48.2671
-48.1058
-47.9715
-48.8317
-48.956
-48.9191
-48.8397
-48.8418
-48.7149
-48.5959
-48.3552
-48.1938
-47.9815
-49.2757
-49.3616
-49.404
-49.4935
-49.3537
-49.1769
-48.9631
-48.4865
-48.3907
-48.1877
-50.0351
-49.9811
-50.0491
-50.0118
-49.8143
-49.6421
-49.2955
-48.931
-48.7359
-48.49
-48.2645
-50.6916
-50.6778
-50.8386
-50.9109
-50.5195
-50.296
-49.9229
-49.6058
-49.1817
-48.8146
-48.4458
-48.3144
-51.6776
-52.066
-51.9829
-52.0949
-51.618
-51.1429
-50.8485
-50.1767
-49.7093
-49.2958
-48.7009
-48.6218
-48.3813
-53.3517
-53.9128
-53.8381
-53.2772
-52.7129
-52.0554
-51.8161
-51.0696
-50.488
-49.7911
-49.3335
-49.0002
-48.5948
-55.0382
-56.219
-56.4229
-55.1007
-54.1087
-53.1825
-52.577
-51.9908
-51.3316
-50.4887
-49.9255
-49.5794
-49.0642
-48.9489
-56.9004
-59.1018
-58.5457
-57.4236
-55.788
-54.5486
-53.6118
-52.7857
-52.1922
-51.4744
-50.7867
-50.0432
-49.6084
-49.2937
-49.1773
-59.1081
-61.2647
-61.3943
-59.1824
-57.1141
-55.8025
-54.642
-53.7574
-52.9275
-52.1388
-51.5153
-50.831
-50.1757
-49.6222
-49.5681
-49.5288
-60.1417
-61.5767
-61.9346
-60.1708
-58.5564
-57.1983
-56.2397
-55.1598
-54.2167
-53.4048
-52.8224
-51.8358
-50.8029
-50.2471
-49.9649
-49.9322
-49.7891
-60.8749
-61.5831
-62.256
-60.7609
-59.6243
-58.4642
-57.8163
-56.7771
-55.5985
-54.6721
-53.8461
-53.0348
-52.0875
-50.9899
-50.5162
-50.6402
-50.3728
-50.0529
-61.4416
-61.6018
-61.9676
-61.6495
-60.55
-59.6662
-59.7195
-58.192
-56.8548
-55.5299
-54.6101
-53.7803
-52.6919
-51.8642
-51.2643
-50.9198
-50.5458
-50.4117
-50.681
-61.5984
-61.4997
-61.4585
-60.9881
-60.3778
-60.3874
-61.0868
-59.2407
-58.0551
-56.7428
-55.204
-54.4384
-53.5929
-52.5013
-51.639
-51.4492
-50.9744
-50.9358
-50.9933
-51.2176
-61.5409
-61.3356
-61.1786
-60.7946
-60.4367
-60.2788
-60.1976
-59.5189
-58.5766
-57.2881
-55.8643
-54.8838
-53.9954
-53.068
-52.2988
-51.6873
-51.4967
-51.4277
-51.4122
-51.45
-51.7417
-61.0917
-60.7941
-60.4636
-60.0168
-59.7605
-59.6613
-59.4421
-59.0548
-58.6128
-57.3594
-56.0555
-55.2689
-54.468
-53.4306
-52.8725
-52.3068
-52.1267
-51.9543
-51.7842
-51.7809
-51.8736
-52.0806
-47.3376
-47.5589
-47.5827
-47.7259
-47.675
-47.5131
-47.8284
-47.9027
-47.6783
-47.6396
-47.9767
-47.91
-47.8229
-47.684
-47.5678
-48.1433
-47.9736
-47.9087
-47.8237
-47.7218
-47.6521
-48.0089
-48.0349
-47.9806
-47.9291
-47.8497
-47.8107
-47.6979
-48.0547
-48.149
-48.2088
-48.1596
-48.0735
-47.9901
-47.8819
-47.8164
-48.2848
-48.4101
-48.4283
-48.3178
-48.2644
-48.1607
-48.0686
-47.9292
-47.8297
-48.4903
-48.5913
-48.6535
-48.7038
-48.5762
-48.4357
-48.3204
-48.0923
-47.9743
-47.8406
-48.8728
-48.9805
-49.0032
-48.9798
-48.8732
-48.8001
-48.6355
-48.416
-48.2186
-48.0116
-47.912
-49.258
-49.4023
-49.4484
-49.5051
-49.3421
-49.3985
-48.974
-48.4538
-48.5746
-48.2383
-48.0845
-49.8774
-50.074
-50.1038
-50.0882
-49.9031
-49.6811
-49.4119
-49.0189
-48.8735
-48.5554
-48.3556
-48.1347
-50.6662
-50.7333
-50.9348
-50.8949
-50.6461
-50.4242
-50.0508
-49.668
-49.2454
-48.9213
-48.4755
-48.3305
-48.2321
-51.8192
-52.3403
-52.2407
-52.2477
-51.6837
-51.1911
-50.995
-50.4085
-49.8984
-49.4518
-48.9478
-48.7337
-48.4046
-48.3217
-53.3844
-53.4001
-54.3
-53.4157
-52.9361
-52.2429
-51.8536
-51.2803
-50.6332
-50.0833
-49.3836
-49.0556
-48.6375
-48.5849
-55.1463
-56.5574
-56.852
-55.6311
-54.4633
-53.2498
-52.5948
-52.1551
-51.5477
-50.7692
-50.1624
-49.651
-49.0511
-48.9457
-48.7636
-56.8017
-58.7554
-58.7034
-57.9153
-56.1605
-54.9758
-53.8754
-53.0188
-52.5332
-51.7058
-50.9842
-50.2797
-49.7204
-49.3906
-49.1832
-49.2549
-58.8615
-60.9592
-61.8547
-59.5524
-57.6033
-56.2108
-54.9479
-54.031
-53.1971
-52.1831
-51.7238
-51.1242
-50.3315
-49.6513
-49.545
-49.5478
-49.3927
-59.9537
-61.2377
-62.015
-60.5024
-58.8419
-57.5625
-56.5454
-55.5657
-54.4151
-53.6193
-53.0584
-52.0015
-51.038
-50.3433
-49.8947
-50.0209
-49.8992
-49.7301
-60.9323
-61.4835
-62.2077
-60.9424
-59.9212
-58.709
-58.1367
-57.0216
-55.8085
-54.6418
-54.0726
-53.3049
-52.2894
-51.221
-50.5422
-50.6034
-50.4345
-50.0649
-50.3268
-61.5044
-61.5847
-61.9774
-61.7352
-60.7924
-59.8331
-60.0386
-58.5782
-57.0923
-55.77
-54.7388
-53.9776
-52.9024
-52.0043
-51.2973
-50.8951
-50.5864
-50.4226
-50.6373
-50.9852
-61.6201
-61.525
-61.4933
-61.0961
-60.5018
-60.4617
-61.3496
-59.5301
-58.2907
-56.9521
-55.3801
-54.5809
-53.7442
-52.6311
-51.6981
-51.4851
-51.0105
-50.9439
-50.9585
-51.1636
-51.5462
-61.5507
-61.3634
-61.205
-60.847
-60.5062
-60.3853
-60.3485
-59.659
-58.7609
-57.44
-55.974
-54.9757
-54.0966
-53.1596
-52.3866
-51.7242
-51.5467
-51.436
-51.3994
-51.4163
-51.7069
-51.9999
-61.0972
-60.8061
-60.4821
-60.0308
-59.7892
-59.6799
-59.4946
-59.1136
-58.6435
-57.4319
-56.096
-55.3151
-54.5038
-53.4514
-52.8922
-52.3238
-52.1526
-51.9777
-51.7879
-51.7778
-51.8496
-52.054
-52.2379
-47.3661
-47.3583
-47.4902
-47.5596
-47.4076
-47.5402
-47.7998
-47.424
-47.3817
-47.9415
-47.9254
-47.7376
-47.5499
-47.543
-47.9311
-47.996
-47.8759
-47.701
-47.5852
-47.5444
-48.0426
-47.9999
-47.9583
-47.8204
-47.7381
-47.6703
-47.5805
-48.0098
-48.0681
-48.0266
-47.9381
-47.8876
-47.8148
-47.7897
-47.6724
-48.0157
-48.2096
-48.2106
-48.2044
-48.1415
-48.0079
-47.9529
-47.8988
-47.6775
-48.2909
-48.4486
-48.3722
-48.3644
-48.3294
-48.2388
-48.1029
-47.9949
-47.8522
-47.7057
-48.5008
-48.591
-48.6794
-48.7449
-48.5873
-48.5356
-48.3619
-48.1442
-48.007
-47.8722
-47.7419
-48.8097
-48.9923
-49.0764
-49.0336
-48.9533
-48.9264
-48.6568
-48.5101
-48.2771
-48.0679
-47.9071
-47.8242
-49.2744
-49.4618
-49.4661
-49.5193
-49.3894
-49.2961
-48.9476
-48.8654
-48.8035
-48.3358
-48.1573
-48.0278
-49.8171
-50.0082
-50.2203
-50.1397
-49.9647
-49.812
-49.4899
-49.2256
-49.0569
-48.6397
-48.4779
-48.1064
-48.0679
-50.6851
-50.878
-51.0749
-51.0129
-50.7144
-50.5332
-50.1296
-49.8393
-49.3608
-48.8972
-48.6154
-48.3596
-48.2836
-48.2231
-51.9574
-52.2775
-52.2813
-52.262
-51.8382
-51.3709
-51.1753
-50.6916
-50.0718
-49.6215
-49.0461
-48.7303
-48.4524
-48.2988
-48.2136
-53.3527
-53.495
-54.6244
-53.6727
-52.9946
-52.3763
-51.7776
-51.4486
-50.8757
-50.2646
-49.5481
-49.0842
-48.717
-48.6767
-48.5137
-55.1992
-56.394
-57.0714
-56.139
-54.946
-53.6667
-52.7856
-52.2482
-51.6848
-51.051
-50.288
-49.7688
-49.0904
-49.058
-48.8257
-48.8451
-56.8
-58.6256
-59.1654
-58.4573
-56.5543
-55.3964
-54.163
-53.4003
-52.6531
-52.0297
-51.0969
-50.4258
-49.7336
-49.3986
-49.2621
-49.316
-49.1472
-58.7217
-60.5418
-62.3546
-59.938
-58.0886
-56.4788
-55.2469
-54.2046
-53.4571
-52.5884
-51.9259
-51.4179
-50.6007
-49.8247
-49.5163
-49.5885
-49.4748
-49.5486
-59.8927
-60.9168
-61.954
-60.6285
-59.3066
-57.8322
-56.7968
-55.7921
-54.7174
-53.8057
-53.2842
-52.1657
-51.2877
-50.5636
-49.9912
-50.0735
-49.9715
-49.7492
-49.8359
-61.0111
-61.4353
-62.1889
-61.1181
-60.1663
-58.9658
-58.4341
-57.497
-55.9921
-54.828
-54.2006
-53.4876
-52.542
-51.4271
-50.5689
-50.4866
-50.454
-50.1161
-50.2901
-50.6052
-61.5706
-61.5832
-61.982
-61.798
-60.963
-59.9955
-60.3392
-58.9226
-57.3763
-55.9664
-54.8997
-54.1746
-53.1296
-52.1935
-51.3921
-50.908
-50.6125
-50.4372
-50.5908
-50.9205
-51.3878
-61.6405
-61.5706
-61.5178
-61.1935
-60.6399
-60.5351
-61.525
-59.8412
-58.5504
-57.1421
-55.5308
-54.7327
-53.8999
-52.745
-51.7933
-51.5319
-51.0661
-50.9462
-50.9369
-51.1193
-51.4869
-51.8865
-61.5599
-61.3882
-61.2223
-60.8997
-60.5698
-60.4839
-60.5382
-59.7346
-58.9365
-57.5899
-56.0878
-55.0698
-54.2048
-53.2575
-52.4606
-51.7727
-51.5967
-51.4495
-51.3832
-51.4226
-51.6681
-51.9673
-52.2913
-61.1154
-60.817
-60.5058
-60.0407
-59.8052
-59.6953
-59.5532
-59.1448
-58.6971
-57.5197
-56.1325
-55.3672
-54.5389
-53.4714
-52.9135
-52.345
-52.1833
-52.0026
-51.7992
-51.7759
-51.8284
-52.0267
-52.1976
-52.5049
-47.3489
-47.3712
-47.2329
-47.5613
-47.5939
-47.418
-47.399
-47.7765
-47.7596
-47.4681
-47.3619
-47.3855
-47.775
-47.9016
-47.8255
-47.593
-47.4652
-47.4504
-47.8801
-47.9438
-47.8149
-47.7248
-47.6967
-47.5627
-47.4731
-47.945
-48.0826
-47.9895
-47.8514
-47.8075
-47.7413
-47.6647
-47.5567
-47.9873
-47.9979
-48.0598
-47.9834
-47.9587
-47.8475
-47.8601
-47.7241
-47.6059
-48.0424
-48.2409
-48.1968
-48.2306
-48.1813
-48.11
-48.0001
-47.8939
-47.73
-47.7006
-48.3479
-48.3945
-48.4271
-48.3977
-48.3309
-48.2667
-48.1978
-48.0633
-47.9064
-47.7402
-47.6028
-48.351
-48.5896
-48.7217
-48.7888
-48.6608
-48.5862
-48.3943
-48.2902
-48.0714
-47.902
-47.7943
-47.7167
-48.8317
-49.0003
-49.0674
-49.0578
-48.9933
-48.9346
-48.7223
-48.661
-48.3294
-48.1263
-47.9543
-47.8269
-47.8657
-49.2774
-49.4138
-49.5832
-49.5649
-49.4476
-49.337
-49.0764
-49.0758
-48.7887
-48.4264
-48.2311
-48.0801
-47.9233
-49.8613
-50
-50.2575
-50.2001
-50.0706
-49.922
-49.6008
-49.2282
-49.006
-48.7632
-48.482
-48.1014
-48.0551
-48.0579
-50.7819
-51.1682
-51.0791
-51.2223
-50.82
-50.7535
-50.2305
-50.0192
-49.4938
-49.013
-48.7891
-48.463
-48.2973
-48.2241
-48.177
-51.9607
-52.2641
-52.5159
-52.3089
-52.0959
-51.5808
-51.2877
-50.7569
-50.1779
-49.6911
-49.1492
-48.7418
-48.5853
-48.3075
-48.2461
-48.2637
-53.2731
-53.8067
-54.9436
-54.0284
-53.2576
-52.5722
-51.7931
-51.6685
-51.0248
-50.4166
-49.719
-49.2396
-48.8054
-48.6877
-48.5667
-48.5097
-55.1958
-56.3183
-56.9613
-56.6812
-55.3316
-54.0111
-53.0983
-52.4787
-51.7326
-51.4108
-50.474
-49.9307
-49.3139
-48.9952
-48.8118
-48.8649
-48.8584
-56.8921
-58.2876
-59.5746
-58.8869
-56.9598
-55.5937
-54.4055
-53.3602
-52.5733
-51.9639
-51.1981
-50.5735
-49.7946
-49.5138
-49.3149
-49.2835
-49.1964
-49.3373
-58.8968
-59.9999
-62.4492
-60.4554
-58.5011
-56.8169
-55.5004
-54.4806
-53.6217
-53.0087
-52.2268
-51.6568
-50.7945
-49.8386
-49.5947
-49.6259
-49.6114
-49.5771
-49.8244
-59.8736
-60.5733
-61.9556
-60.9953
-59.6558
-58.1503
-57.0781
-55.999
-54.9275
-53.8228
-53.3732
-52.408
-51.5213
-50.533
-50.2889
-50.0402
-50.0319
-49.7785
-49.8394
-50.3873
-61.0736
-61.3736
-62.1071
-61.2423
-60.4223
-59.2214
-58.718
-57.8039
-56.2718
-54.964
-54.2793
-53.6013
-52.7758
-51.6081
-50.7895
-50.4545
-50.4766
-50.1162
-50.2735
-50.5724
-51.0612
-61.6246
-61.5924
-61.988
-61.8539
-61.101
-60.1584
-60.6417
-59.3164
-57.7554
-56.285
-55.1434
-54.3918
-53.3716
-52.4009
-51.4996
-50.9812
-50.6288
-50.4612
-50.5655
-50.8509
-51.3366
-51.7645
-61.6516
-61.5966
-61.5214
-61.2877
-60.7311
-60.6119
-61.6142
-60.2044
-58.825
-57.3604
-55.6746
-54.9053
-54.0589
-52.9088
-51.9178
-51.5675
-51.128
-50.9624
-50.9334
-51.0849
-51.4152
-51.8341
-52.2106
-61.5642
-61.4108
-61.2396
-60.9511
-60.6241
-60.5761
-60.6712
-59.874
-59.1025
-57.7554
-56.2064
-55.1655
-54.3048
-53.3513
-52.5475
-51.8373
-51.6468
-51.4751
-51.3726
-51.434
-51.6091
-51.9334
-52.2305
-52.7745
-60.8267
-60.5333
-60.0487
-59.8193
-59.7077
-59.6052
-59.2065
-58.7519
-57.5942
-56.1679
-55.4002
-54.5753
-53.4911
-52.937
-52.3693
-52.2226
-52.0201
-51.8105
-51.7777
-51.8138
-51.9999
-52.1573
-52.4715
-52.9003
-47.1129
-47.3759
-47.2215
-47.2093
-47.5726
-47.6803
-47.4369
-47.3873
-47.2546
-47.6027
-47.5897
-47.6468
-47.4312
-47.3676
-47.2614
-47.7335
-47.8417
-47.6495
-47.616
-47.5833
-47.5007
-47.3823
-47.8805
-47.9673
-47.8548
-47.7615
-47.6808
-47.6001
-47.5259
-47.4262
-47.9658
-48.0462
-48.0015
-47.9236
-47.9027
-47.7526
-47.6958
-47.6034
-47.4781
-47.9583
-48.0299
-48.0828
-48.046
-47.9722
-47.9415
-47.8433
-47.7448
-47.6331
-47.5768
-47.9842
-48.2019
-48.2298
-48.2543
-48.2101
-48.1355
-48.0496
-47.9264
-47.805
-47.6599
-47.5143
-48.2927
-48.3566
-48.4464
-48.4201
-48.3209
-48.3241
-48.24
-48.1231
-47.9702
-47.7464
-47.6783
-47.5807
-48.4261
-48.5815
-48.7392
-48.7857
-48.7062
-48.6254
-48.4701
-48.2998
-48.1395
-47.945
-47.8141
-47.6958
-47.7103
-48.8312
-49.0194
-49.0913
-49.1663
-49.0328
-48.8781
-48.7563
-48.6094
-48.2741
-48.1828
-48.0541
-47.8646
-47.8482
-47.9877
-49.3268
-49.3878
-49.6386
-49.6174
-49.4967
-49.4227
-49.205
-49.0653
-48.53
-48.325
-48.2717
-48.0711
-47.9293
-47.943
-50.0643
-50.0838
-50.3749
-50.3058
-50.1279
-50.0182
-49.7641
-49.4736
-49.1361
-48.8144
-48.5103
-48.2041
-48.0832
-48.0899
-48.0564
-50.7994
-51.093
-51.2354
-51.264
-50.9927
-50.6533
-50.3835
-50.097
-49.6227
-49.1626
-48.7889
-48.556
-48.3702
-48.2009
-48.1232
-48.385
-51.9186
-52.3937
-52.7526
-52.5126
-52.1794
-51.8605
-51.2315