/*--------------------------------*- C++ -*----------------------------------*\
  =========                 |
  \\      /  F ield         | OpenFOAM: The Open Source CFD Toolbox
   \\    /   O peration     | Website:  https://openfoam.org
    \\  /    A nd           | Version:  7
     \\/     M anipulation  |
\*---------------------------------------------------------------------------*/
FoamFile
{
    version     2.0;
    format      ascii;
    class       surfaceScalarField;
    location    "7";
    object      phi;
}
// * * * * * * * * * * * * * * * * * * * * * * * * * * * * * * * * * * * * * //

dimensions      [0 3 -1 0 0 0 0];

internalField   nonuniform List<scalar> 
54184
(
-7.58416e-05
0.000510958
-7.46751e-05
-9.58121e-05
-0.000593618
-0.000211163
-8.15575e-05
0.0005993
-8.20288e-05
-6.56614e-05
-0.000195095
-6.4438e-05
-3.5882e-05
-0.00159138
-0.000330494
-9.71318e-05
-0.000562603
-0.000231976
-0.000127377
-0.00104206
-0.000176076
-7.59311e-05
0.000681417
-8.16169e-05
-7.54157e-05
-0.000130865
-7.08434e-05
-7.70636e-05
-0.000809458
-5.42866e-05
-1.28671e-05
-0.00165036
-0.000329909
-4.05036e-05
-0.00159937
-0.00036468
-0.000230242
-0.00116314
-0.000280977
-8.14367e-05
-0.000542665
-0.000229921
-0.000149524
-0.00100734
-0.000192586
-0.000125244
-0.00139094
-0.000138873
-7.40936e-05
0.000761266
-8.10363e-05
-7.15588e-05
-7.03549e-05
-7.05678e-05
-9.15185e-05
-0.000729005
-5.97778e-05
-0.000103065
-0.000903956
-5.65559e-05
-5.21575e-05
-0.0034972
0.000222806
-1.51901e-05
-0.00161
-0.000396328
-0.000317858
-0.00144264
-0.00025941
-1.47284e-05
-0.0016001
-0.000364522
-0.000245767
-0.00111971
-0.000311864
-0.000245933
-0.00162599
-0.000199419
-8.06405e-05
-0.000524389
-0.000225093
-0.000126163
-0.000990849
-0.000191805
-0.000160374
-0.00136463
-0.00015004
-0.000185944
-0.00128867
-0.000148301
-7.06501e-05
0.000837489
-8.07115e-05
-7.44944e-05
-6.95861e-06
-6.99381e-05
-8.86938e-05
-0.00065089
-5.99891e-05
-0.000120392
-0.000781312
-6.20298e-05
-9.7801e-05
-0.000335849
-6.6554e-05
-0.000103968
-0.00546512
0.00121048
-0.000112289
-0.00345103
0.000250332
-0.000503799
-0.00361061
0.000335138
3.46414e-06
-0.00155411
-0.000401012
-0.00036233
-0.00143663
-0.000285773
-0.000598126
-0.00283269
5.41385e-05
5.65941e-06
-0.00160437
-0.000355036
-0.00021434
-0.00108276
-0.000313301
-0.000302269
-0.00157373
-0.000222229
-0.000345984
-0.00159139
-0.000132477
-8.54239e-05
-0.000500726
-0.000220335
-0.00010018
-0.00100114
-0.000189118
-0.000154743
-0.00133489
-0.00015549
-0.000228228
-0.00117518
-0.00015569
-0.000112843
-0.00119082
-0.000183474
-7.22761e-05
0.000914915
-8.00188e-05
-7.53756e-05
5.6707e-05
-6.90015e-05
-9.17634e-05
-0.000569115
-5.99499e-05
-0.000117307
-0.000662203
-6.17907e-05
-0.000110064
-0.000214524
-7.32905e-05
-0.000128304
-5.49641e-05
-7.3634e-05
-0.000382796
-0.00604802
0.00192228
-0.000257552
-0.00521628
0.00127858
-0.000654843
-0.00529258
0.0011812
2.71923e-05
-0.00347828
0.000209833
-0.000616377
-0.00343152
0.000325294
-0.000895044
-0.00411104
0.000407
4.03201e-05
-0.0015246
-0.000377571
-0.000320518
-0.0014417
-0.000289759
-0.000699331
-0.00271307
-8.33827e-06
-0.000506918
-0.00284449
0.000260126
7.8372e-06
-0.00160886
-0.000330457
-0.000137322
-0.00108507
-0.000315579
-0.000313725
-0.00151425
-0.000213801
-0.00039255
-0.00150798
-0.00014132
-0.00022287
-0.00242434
-0.000113919
-9.70935e-05
-0.000470566
-0.000214683
-9.90556e-05
-0.0010122
-0.000185594
-0.000159032
-0.00130087
-0.000155871
-0.000224555
-0.00106818
-0.000155246
-0.000149633
-0.00110318
-0.000203762
-0.00027264
-0.000800346
-0.000141417
-6.48666e-05
0.00098513
-8.00416e-05
-7.66075e-05
0.000121727
-6.84313e-05
-9.33593e-05
-0.000485236
-5.95207e-05
-0.000118884
-0.000541889
-6.13791e-05
-0.000113226
-9.01277e-05
-7.29604e-05
-0.000136345
8.8046e-05
-7.99553e-05
-0.00015787
-0.00035217
-7.37704e-05
-0.000311914
-0.00676383
0.0023017
-0.000531361
-0.00590013
0.00217785
-0.00077836
-0.00607752
0.00193328
-2.8722e-05
-0.00515695
0.00136931
-0.000765068
-0.00506381
0.00119851
-0.000941629
-0.00527151
0.00100456
-9.72817e-06
-0.00340948
0.000151204
-0.000531688
-0.00328101
0.000270488
-0.000980061
-0.00391067
0.00040565
-0.000633776
-0.00472068
0.000464866
9.97685e-05
-0.00154414
-0.000332972
-0.000306362
-0.00138896
-0.000261277
-0.00070951
-0.00267103
6.39959e-05
-0.000555241
-0.00290179
0.000211656
-0.000392422
-0.00341241
0.00021085
-4.16602e-05
-0.00157527
-0.000306674
-0.000109672
-0.00108919
-0.000315727
-0.000326108
-0.00143947
-0.000223282
-0.000405641
-0.00141094
-0.00012975
-0.00026546
-0.00229467
-0.000155163
-0.000373239
-0.00207692
-2.53044e-05
-8.1451e-05
-0.000444888
-0.000213839
-0.000109376
-0.00101286
-0.000181257
-0.000140619
-0.00128044
-0.000158762
-0.000223849
-0.000968216
-0.000150867
-0.000169368
-0.00100364
-0.000198649
-0.000278468
-0.000690892
-0.000171094
-0.000399751
-0.00187525
-6.64269e-05
-6.28513e-05
0.00105304
-7.92067e-05
-7.28636e-05
0.000182441
-6.7892e-05
-9.30532e-05
-0.000401525
-5.909e-05
-0.000118028
-0.000422374
-6.10088e-05
-0.000114879
3.51819e-05
-7.18102e-05
-0.000131967
0.000226526
-7.94727e-05
-0.000174505
-0.000179217
-7.84033e-05
-0.000146643
-0.000802296
-5.88264e-05
-0.000452774
-0.00698756
0.00269179
-0.000525656
-0.00676206
0.00257624
-0.000758547
-0.00627454
0.00234448
-0.000410726
-0.00562134
0.00222631
-0.000884767
-0.00589998
0.00212
-0.000995851
-0.00593146
0.00182063
-7.18019e-05
-0.00495652
0.00123275
-0.000550461
-0.00494147
0.00126574
-0.00118169
-0.00494367
0.0010723
-0.0007911
-0.00573442
0.000914885
-4.01275e-05
-0.00322047
0.000125843
-0.000572432
-0.00306026
0.000196534
-0.0009294
-0.00373641
0.000316116
-0.000724691
-0.00470391
0.000558326
-0.000472551
-0.0043663
0.000518729
8.14826e-06
-0.00151694
-0.000287605
-0.000274819
-0.00132365
-0.000233137
-0.000713377
-0.00258866
4.36218e-05
-0.000582124
-0.00293386
0.000272553
-0.000401759
-0.00333063
0.000266182
-0.000361766
-0.00482076
0.000241775
1.79549e-06
-0.00155702
-0.000300621
-9.61051e-05
-0.00109553
-0.000313597
-0.000287849
-0.0013618
-0.000246166
-0.000383347
-0.00133984
-0.000134882
-0.000336843
-0.00210491
-0.000152032
-0.00040023
-0.0020202
-9.01212e-05
-0.000410512
-0.00297955
-3.7952e-05
-5.51667e-05
-0.000443977
-0.000213943
-0.000104243
-0.00101476
-0.000180559
-0.000131082
-0.00126648
-0.000157188
-0.000213094
-0.000880152
-0.000151759
-0.000176882
-0.000908085
-0.000184417
-0.000259609
-0.00060484
-0.00015706
-0.000440281
-0.00169437
-8.62e-05
-0.000326006
-0.00322971
-4.94603e-05
-5.71231e-05
0.00111455
-7.83928e-05
-6.78775e-05
0.000238463
-6.73509e-05
-9.24786e-05
-0.000317827
-5.91107e-05
-0.000118702
-0.000302236
-6.05257e-05
-0.000115886
0.000160359
-7.02999e-05
-0.000132815
0.00036377
-7.62395e-05
-0.000177605
-4.06171e-06
-7.70233e-05
-0.000168556
-0.000647758
-6.43862e-05
-0.000148194
-0.00252511
-4.23608e-05
-0.000451377
-0.005729
0.00306332
-0.000562712
-0.00615322
0.00293971
-0.000692388
-0.00689433
0.00308335
-0.000888873
-0.00592941
0.0026942
-0.000582878
-0.00661794
0.00257902
-0.000779206
-0.00642525
0.0026214
-0.000927037
-0.0060514
0.00215018
-0.000330941
-0.00544433
0.00217385
-0.000727914
-0.00565886
0.00216265
-0.00131081
-0.00568103
0.00199869
-0.000716893
-0.00626737
0.00148356
-0.000257621
-0.00456948
0.0012786
-0.00054273
-0.00480637
0.00106795
-0.000960277
-0.0047032
0.00105615
-0.000828316
-0.00553847
0.000979979
-0.000338719
-0.00586205
0.000856402
-7.92275e-05
-0.00308664
0.000160974
-0.000595861
-0.00280349
0.000190111
-0.00089784
-0.00360491
0.000249496
-0.000709105
-0.00477335
0.000512539
-0.000529947
-0.00431038
0.000630603
-0.000495498
-0.00500055
0.000458761
4.48081e-05
-0.00148888
-0.000262225
-0.000232186
-0.00126258
-0.00021259
-0.00070148
-0.00245852
5.03479e-05
-0.000613646
-0.00292625
0.000266307
-0.00053344
-0.00311297
0.00025149
-0.000414511
-0.00481298
0.000272683
-0.000382449
-0.00437974
0.000376556
2.32498e-05
-0.00152407
-0.000296412
-0.000107324
-0.0010861
-0.000306978
-0.000264412
-0.00129072
-0.000251353
-0.000387057
-0.00126548
-0.000146564
-0.000343726
-0.00191977
-0.000153185
-0.000391778
-0.00193455
-0.000105505
-0.000459307
-0.00299381
-5.68364e-05
-0.000447186
-0.00434147
-1.69935e-05
-6.49283e-07
-0.000492115
-0.000209912
-0.000102632
-0.00101535
-0.00017859
-0.000130982
-0.00124992
-0.00015862
-0.00021832
-0.000784543
-0.00015318
-0.00018522
-0.000816622
-0.000173889
-0.000243024
-0.000530898
-0.000148149
-0.000449221
-0.00150467
-7.51502e-05
-0.000375564
-0.00305377
-5.51279e-05
-0.000300476
-0.00298756
-9.25327e-05
-5.1798e-05
0.00117008
-7.75755e-05
-6.85788e-05
0.000295639
-6.69902e-05
-9.52402e-05
-0.000230928
-5.90096e-05
-0.000116828
-0.000184158
-6.03605e-05
-0.000114921
0.000283768
-6.90132e-05
-0.00013548
0.000501171
-7.22208e-05
-0.000178695
0.000172396
-7.40026e-05
-0.000170448
-0.000491173
-6.31603e-05
-0.000173678
-0.00236839
-4.74274e-05
-0.000166302
-0.00275309
-4.63316e-05
-0.000527743
-0.00524003
0.00327816
-0.000558348
-0.00566278
0.00304149
-0.000500015
-0.00598069
0.00298969
-0.000793464
-0.00610484
0.00336648
-0.000771685
-0.0062132
0.00283827
-0.000844403
-0.00667914
0.0030814
-0.000763468
-0.00600849
0.00314668
-0.00107139
-0.00579756
0.00251554
-0.000418752
-0.00652803
0.00256925
-0.000874133
-0.0063085
0.00260848
-0.00110826
-0.00610949
0.00247693
-0.00061212
-0.00668296
0.00186304
-0.000502665
-0.005298
0.00223522
-0.00065212
-0.00548407
0.00210845
-0.00108468
-0.00538649
0.00199251
-0.000773118
-0.00605533
0.00173146
-0.000210593
-0.00651017
0.00131713
-0.000111835
-0.00433646
0.00127774
-0.000454891
-0.00468953
0.00102078
-0.000745408
-0.00473552
0.000947841
-0.000809855
-0.00531526
0.000933697
-0.000611909
-0.00573281
0.000932694
-0.000625384
-0.00558114
0.000710411
-1.94319e-05
-0.00299235
0.000146039
-0.000569781
-0.002534
0.000229074
-0.000960731
-0.00339699
0.000241443
-0.000847385
-0.00476163
0.000471517
-0.000684916
-0.00428773
0.000641364
-0.000515819
-0.00481895
0.000550314
-0.000563472
-0.00539214
0.000576933
4.82605e-05
-0.00151322
-0.000241189
-0.000198361
-0.00121293
-0.000220834
-0.000694053
-0.00227961
3.81376e-05
-0.000640653
-0.00287609
0.000253781
-0.000567621
-0.00291058
0.000287812
-0.000494278
-0.00466212
0.000203128
-0.000497022
-0.00444318
0.000373837
-0.000526041
-0.00465039
0.000333274
0.000105136
-0.00151519
-0.000277483
-0.000104633
-0.00107972
-0.000300791
-0.00025333
-0.0012294
-0.000245951
-0.000388397
-0.00119269
-0.000154064
-0.000373043
-0.00173351
-0.000144991
-0.000360753
-0.00187611
-9.38973e-05
-0.00059113
-0.00290827
-4.91377e-05
-0.000467962
-0.00425983
-4.6073e-05
-0.000515356
-0.00373838
8.61216e-05
-9.58103e-06
-0.000531206
-0.000199606
-0.000117283
-0.00100301
-0.000173549
-0.000147345
-0.00121701
-0.000159388
-0.000218694
-0.000686611
-0.000154685
-0.000183811
-0.000725562
-0.00017535
-0.000250023
-0.000450365
-0.000139878
-0.000465925
-0.00128359
-8.1995e-05
-0.000395982
-0.00284618
-5.72106e-05
-0.00036267
-0.00276282
-9.08735e-05
-0.000322447
-0.00318199
-9.76309e-05
-4.52901e-05
0.00121861
-7.69504e-05
-8.07766e-05
0.000365306
-6.64656e-05
-9.47198e-05
-0.000144525
-5.86736e-05
-0.000114344
-6.88294e-05
-5.99939e-05
-0.000114219
0.000405823
-6.81969e-05
-0.000135969
0.000637426
-6.92993e-05
-0.000181177
0.000353074
-7.17218e-05
-0.000170798
-0.000333603
-6.07745e-05
-0.000185256
-0.00219906
-4.72343e-05
-0.000200605
-0.00254871
-5.11976e-05
-0.0001249
-0.00311503
-5.35201e-05
-0.000381877
-0.00502053
0.00347036
-0.000471753
-0.0053841
0.00328718
-0.000443149
-0.00529209
0.00323175
-0.000423958
-0.00593531
0.00336217
-0.000497593
-0.00613732
0.00292403
-0.000601159
-0.0056677
0.0028889
-0.000694197
-0.0063424
0.0033571
-0.000670065
-0.00611724
0.00317712
-0.000958473
-0.00624578
0.00262985
-0.000478559
-0.00666912
0.0031685
-0.000807398
-0.0060843
0.00309047
-0.0010224
-0.00563027
0.00289353
-0.000545103
-0.00660935
0.00235919
-0.000522671
-0.00651489
0.00257524
-0.000732862
-0.00623122
0.00257271
-0.00106831
-0.005992
0.00247463
-0.000621401
-0.00650384
0.00214609
-0.00036282
-0.0064759
0.00190622
-0.000319511
-0.00519126
0.00221393
-0.000389396
-0.00534628
0.00203193
-0.000712119
-0.00537144
0.00206011
-0.000922351
-0.0056457
0.00169538
-0.000651867
-0.00609755
0.00135879
-0.000558159
-0.00538986
0.00141464
-0.000127465
-0.00407366
0.00129306
-0.000493981
-0.00451422
0.00102664
-0.00103016
-0.00452714
0.000881825
-0.000909063
-0.00519763
0.000891881
-0.000810592
-0.00561815
0.000944718
-0.000456604
-0.00550367
0.000796008
-0.000481234
-0.00537356
0.000673515
2.80673e-05
-0.00296921
0.000150729
-0.000531037
-0.00233354
0.000278258
-0.000964031
-0.00317082
0.000272886
-0.000937718
-0.00465886
0.000435741
-0.000673188
-0.00434837
0.000637722
-0.000592128
-0.00462727
0.000547532
-0.000576954
-0.00514
0.000378107
-0.000741084
-0.00530854
0.000652546
9.50728e-05
-0.00142612
-0.000246219
-0.000142439
-0.00119791
-0.000218406
-0.000690011
-0.0020698
6.03839e-06
-0.000634406
-0.00282763
0.000235686
-0.000580487
-0.0027437
0.00029434
-0.000506005
-0.00443118
0.000202124
-0.000731625
-0.00442204
0.000322487
-0.000573922
-0.00452696
0.000356361
-0.000604709
-0.00439125
0.000339313
8.62518e-05
-0.00148999
-0.000251863
-0.000119713
-0.00107221
-0.000282561
-0.000253906
-0.00116771
-0.000255919
-0.000395474
-0.00110589
-0.000155973
-0.000375691
-0.00155432
-0.000141384
-0.000378434
-0.00181687
-7.58232e-05
-0.000660171
-0.00280291
-5.00966e-06
-0.000551201
-0.00411099
-4.27602e-05
-0.000559224
-0.00367135
8.34476e-05
-0.000476818
-0.00391395
0.00010868
-3.3129e-06
-0.000566766
-0.000196705
-0.000145076
-0.00097211
-0.00016621
-0.000146264
-0.00118176
-0.00015726
-0.000198867
-0.000612042
-0.000149435
-0.000183674
-0.000634595
-0.000176197
-0.000261978
-0.000367513
-0.000132193
-0.00046118
-0.0010568
-8.66636e-05
-0.000403117
-0.00263153
-6.43268e-05
-0.000388892
-0.00254464
-7.17478e-05
-0.000358943
-0.00301663
-9.78938e-05
-0.000240483
-0.0037027
-8.11416e-05
-4.092e-05
0.00126283
-7.64178e-05
-7.42412e-05
0.000428552
-6.59556e-05
-9.39941e-05
-5.84653e-05
-5.85314e-05
-0.000113562
4.52855e-05
-5.92267e-05
-0.000116498
0.000529425
-6.70982e-05
-0.000133547
0.000768956
-6.61804e-05
-0.000183408
0.000536806
-6.96239e-05
-0.000166427
-0.000180028
-5.88693e-05
-0.000195517
-0.00202112
-4.32011e-05
-0.000196694
-0.00234961
-4.96399e-05
-0.000147037
-0.00296089
-5.83028e-05
-0.000110323
-0.00311691
-5.60899e-05
-0.000338208
-0.00469219
0.00396596
-0.000250638
-0.00487798
0.00371231
-0.000245462
-0.00526456
0.00356153
-0.00038837
-0.00502832
0.00344253
-0.000157317
-0.00563784
0.00365482
-0.000350327
-0.00542205
0.00326988
-0.000431139
-0.00570342
0.00315074
-0.000259197
-0.00627775
0.0033487
-0.000407633
-0.00615875
0.00312117
-0.000425122
-0.00607542
0.0027984
-0.000371822
-0.00582265
0.00291269
-0.000271693
-0.00667154
0.00338659
-0.000735122
-0.00621607
0.00338364
-0.000852087
-0.00612232
0.00288336
-0.000295363
-0.00693675
0.00259791
-0.000463209
-0.00678326
0.00314914
-0.0006575
-0.00616126
0.0031701
-0.000894915
-0.00560493
0.00289174
-0.000310495
-0.00665099
0.00262426
-0.000516504
-0.00637818
0.00243198
-0.000510121
-0.00645105
0.00261859
-0.00059677
-0.00600738
0.00255877
-0.000889546
-0.00579776
0.00255589
-0.000763995
-0.00623272
0.00204516
-0.000667654
-0.00642427
0.00211025
-0.000555925
-0.00525776
0.00199739
-0.000326577
-0.00514173
0.00220135
-0.000514513
-0.00520422
0.00209241
-0.00104159
-0.00522668
0.0018986
-0.00101493
-0.00525038
0.00177066
-0.000753877
-0.0058126
0.00135371
-0.000316491
-0.00547177
0.0013006
-0.000354305
-0.00499282
0.00139913
-5.91139e-05
-0.00385755
0.00126137
-0.000587495
-0.00422416
0.00105946
-0.000973937
-0.00440355
0.000912957
-0.00131338
-0.00478447
0.00084434
-0.000699828
-0.00560597
0.000906342
-0.000521774
-0.00544649
0.000817188
-0.000453405
-0.00552537
0.000824267
-0.000745663
-0.0050949
0.000712288
3.37251e-05
-0.0028843
0.000116735
-0.000520932
-0.00221774
0.000413427
-0.00101093
-0.00288878
0.000317138
-0.000948651
-0.00450157
0.000429839
-0.000646515
-0.0044345
0.000587902
-0.000617998
-0.00444856
0.00057101
-0.000603426
-0.00519219
0.000471526
-0.000730435
-0.00519623
0.00042231
-0.000759793
-0.00582815
0.000531178
0.000185661
-0.00148976
-0.000235503
-9.63436e-05
-0.00122845
-0.000239051
-0.000628667
-0.00187263
-4.08117e-05
-0.000660042
-0.00278508
0.000228058
-0.000640621
-0.0025486
0.000305518
-0.000537715
-0.00422006
0.000242503
-0.000751148
-0.00442541
0.000296466
-0.000746216
-0.00441062
0.000401171
-0.000655207
-0.00430803
0.000369131
-0.000554072
-0.00414364
0.000314356
0.000100862
-0.00146934
-0.000237342
-9.07473e-05
-0.00109701
-0.000281395
-0.000238625
-0.0011171
-0.000240814
-0.000368608
-0.00103214
-0.000159929
-0.000373392
-0.00137836
-0.000142208
-0.000396796
-0.00177354
-4.98971e-05
-0.000643462
-0.00271734
2.08876e-05
-0.00056723
-0.00393912
-1.27699e-05
-0.000529441
-0.00360498
3.14164e-05
-0.000480329
-0.00384847
0.000139357
-0.000353147
-0.00427783
5.00886e-05
-1.14536e-05
-0.00058663
-0.000191728
-0.000112312
-0.000966819
-0.000163926
-0.000144494
-0.00113984
-0.000157634
-0.000206261
-0.000535057
-0.000141546
-0.000204099
-0.000533066
-0.000163363
-0.000259751
-0.000284452
-0.000133054
-0.000462302
-0.000836297
-7.38026e-05
-0.000395483
-0.00237557
-0.000113565
-0.000396273
-0.00234486
-6.33561e-05
-0.000383428
-0.00282922
-7.24228e-05
-0.00028692
-0.00357783
-8.28768e-05
-0.000258139
-0.00372308
-8.97671e-05
-3.48676e-05
0.00130092
-7.58356e-05
-7.35988e-05
0.000491324
-6.55906e-05
-9.5117e-05
2.9111e-05
-5.84149e-05
-0.000112531
0.000157812
-5.8526e-05
-0.000117699
0.000653751
-6.58535e-05
-0.000135161
0.000900384
-6.33652e-05
-0.000184096
0.000721336
-6.66148e-05
-0.000165784
-2.44269e-05
-5.9441e-05
-0.000193806
-0.00184694
-3.92363e-05
-0.000214223
-0.00213184
-4.67561e-05
-0.000161671
-0.00279269
-5.61684e-05
-0.00016019
-0.00295534
-5.96758e-05
-0.000148527
-0.00305867
-5.43073e-05
-0.000201558
-0.00474783
0.00411792
-0.000190893
-0.00470789
0.00398537
-0.000292483
-0.00472462
0.00386457
-0.000123921
-0.00496542
0.00372561
-0.000374664
-0.00495167
0.00366256
-0.000372527
-0.00518423
0.00401457
-9.02113e-05
-0.00518842
0.00346152
-0.000351457
-0.00513826
0.0034172
-5.75304e-05
-0.00589676
0.00361411
-0.000255739
-0.00561343
0.0036943
-0.00027884
-0.00571056
0.00313074
-0.000201214
-0.00552988
0.00319384
-0.000174037
-0.00637751
0.00342823
-0.000531078
-0.0062155
0.0032014
-0.00052196
-0.00629617
0.0030118
-0.0002418
-0.00596855
0.00289074
-0.000260594
-0.00559436
0.00277817
-0.000394331
-0.00680876
0.00336413
-0.000510871
-0.00637425
0.00339815
-0.000712722
-0.00611657
0.00319569
-0.000268956
-0.00698937
0.00289444
-0.000459868
-0.00597389
0.00276121
-0.000504096
-0.00689247
0.00313012
-0.000598608
-0.00619602
0.00318573
-0.000843169
-0.00540924
0.00292803
-0.000392932
-0.00664237
0.00251205
-0.000622025
-0.00647256
0.00267301
-0.000510362
-0.00560647
0.00245028
-0.000393956
-0.00653922
0.00257055
-0.000703161
-0.00573956
0.00253941
-0.000978994
-0.00580011
0.00249853
-0.000882856
-0.00585003
0.00204112
-0.000625498
-0.00648481
0.00197732
-0.000626411
-0.00500704
0.00216945
-0.000556922
-0.00491598
0.00181351
-0.000303289
-0.00508241
0.00218611
-0.000716844
-0.00497537
0.00210184
-0.00106117
-0.00502782
0.00198078
-0.00143646
-0.00491814
0.00168944
-0.000562314
-0.00549362
0.00131417
-0.000372604
-0.00552061
0.00125337
-0.000597737
-0.00493141
0.00138352
-0.000704682
-0.00515019
0.00127935
-0.000139455
-0.00364923
0.00127907
-0.000644824
-0.00391066
0.00107175
-0.00104605
-0.0042672
0.000958231
-0.00116759
-0.00450468
0.000852095
-0.000704431
-0.00554882
0.000845109
-0.000633527
-0.00532044
0.000795814
-0.000459389
-0.00562461
0.000772386
-0.000686319
-0.0052101
0.000895343
-0.000846693
-0.00570469
0.000740976
0.000126226
-0.00276421
8.55299e-05
-0.000405838
-0.00211092
0.000319405
-0.000967813
-0.00255778
0.000421575
-0.00101829
-0.00422323
0.000397042
-0.000715655
-0.00449285
0.000563218
-0.000641826
-0.00430487
0.000548326
-0.000624012
-0.00517788
0.000429555
-0.000857488
-0.00517114
0.00055771
-0.000860603
-0.00571335
0.00051291
-0.000614835
-0.00563653
0.000381911
0.000220008
-0.00156288
-0.000219056
-1.48354e-05
-0.00129519
-0.000244669
-0.000585387
-0.00169395
-7.0968e-05
-0.000713485
-0.00269182
0.000210803
-0.000563444
-0.00242583
0.000295337
-0.000556251
-0.00401136
0.000256271
-0.000721767
-0.00443228
0.000327685
-0.000748083
-0.00430968
0.000376379
-0.000563338
-0.00427096
0.000397995
-0.000502189
-0.00405111
0.000298465
-0.000547629
-0.00363213
0.000276613
6.18367e-05
-0.00142582
-0.000218968
-4.71965e-05
-0.00111911
-0.000280352
-0.000235149
-0.00106084
-0.000246999
-0.000396571
-0.000934462
-0.000148184
-0.000413558
-0.00121661
-0.000112221
-0.000441183
-0.00169976
-3.45535e-05
-0.000680225
-0.00260713
5.78175e-05
-0.000547519
-0.0037684
2.20495e-06
-0.000510788
-0.00353707
3.38364e-05
-0.000506893
-0.00379956
0.000105973
-0.000406931
-0.0040502
3.1746e-05
-0.000332484
-0.00382165
-3.09505e-05
2.07996e-05
-0.000628483
-0.000191244
-0.000110023
-0.000956602
-0.000165521
-0.000150686
-0.00108983
-0.000158364
-0.000205032
-0.000461892
-0.000138297
-0.000222074
-0.000426304
-0.000143934
-0.000262257
-0.000189836
-0.000130881
-0.00045358
-0.000622429
-7.74384e-05
-0.000420436
-0.00213043
-6.42933e-05
-0.000370147
-0.00217618
-0.000105905
-0.00040424
-0.00264456
-5.7997e-05
-0.000308231
-0.00342429
-7.93998e-05
-0.000320945
-0.00355555
-8.96529e-05
-0.000292615
-0.003618
-0.000100912
-2.98507e-05
0.00133401
-7.52669e-05
-6.87172e-05
0.000549477
-6.52711e-05
-9.11639e-05
0.000113047
-5.83632e-05
-0.000109881
0.000267054
-5.77764e-05
-0.000116739
0.000776536
-6.45714e-05
-0.00013494
0.00103221
-6.27435e-05
-0.000183069
0.000904412
-6.33716e-05
-0.000163567
0.000131838
-5.93132e-05
-0.000204158
-0.00166163
-4.06006e-05
-0.000217349
-0.00190799
-4.57312e-05
-0.000172273
-0.00261066
-5.65125e-05
-0.000159641
-0.00279515
-5.67226e-05
-0.000183727
-0.00287252
-6.20972e-05
-0.000132867
-0.0024825
-5.48896e-05
-0.000199089
-0.0048252
0.00411284
-6.34365e-05
-0.00479825
0.00423491
-8.28e-05
-0.00475862
0.00401069
-0.000146468
-0.00465912
0.00399872
-0.000235147
-0.00481764
0.00393888
-0.000144551
-0.00469665
0.00376683
-0.000168623
-0.00509758
0.00413308
-2.64193e-05
-0.00501008
0.00372023
-0.000302527
-0.00497625
0.00365591
1.80314e-05
-0.00530686
0.00403339
-0.000233822
-0.00510719
0.00391142
-0.000127252
-0.00528001
0.00345169
-0.000122643
-0.00514742
0.00339035
-0.000178862
-0.00591899
0.00360137
-0.000219459
-0.00591281
0.00360187
-0.000347276
-0.00573532
0.00354438
-0.000220594
-0.00558145
0.00316111
-0.000255623
-0.0057251
0.00309106
-0.00043239
-0.00638695
0.00353766
-0.000414798
-0.00617727
0.00329394
-0.000389242
-0.00648501
0.00306675
-0.00030005
-0.00608001
0.00315435
-0.000294632
-0.00570831
0.00283945
-0.000403781
-0.00591381
0.00257679
-0.000491513
-0.00689028
0.00335659
-0.000470506
-0.00656865
0.00343043
-0.000770592
-0.00606117
0.00327018
-0.000353315
-0.00682804
0.00299474
-0.000592924
-0.00619769
0.00308914
-0.000325352
-0.00573051
0.00256815
-0.000447763
-0.00695832
0.00316037
-0.000755805
-0.00621271
0.00319946
-0.000826968
-0.00530835
0.00293282
-0.000524815
-0.00650795
0.00243557
-0.000485158
-0.0066059
0.00250506
-0.000654511
-0.00556118
0.00265581
-0.000579327
-0.00519222
0.00222469
-0.000297043
-0.00660774
0.00254778
-0.000734291
-0.00572021
0.00256864
-0.000935472
-0.00575159
0.0023652
-0.000993786
-0.00577046
0.00197629
-0.000514852
-0.00631004
0.00181889
-0.000425594
-0.00505217
0.00207544
-0.000919622
-0.00442543
0.00200079
-0.000707028
-0.00535968
0.00166969
-0.000248701
-0.00516253
0.002153
-0.000802628
-0.00476171
0.00213025
-0.000998968
-0.00496876
0.0019957
-0.00117481
-0.00464009
0.00170994
-0.00046283
-0.00533593
0.00129014
-0.000411336
-0.00557717
0.00114854
-0.000594964
-0.00488817
0.00134571
-0.000755799
-0.00501271
0.00131552
-0.000817469
-0.00517442
0.00114738
-0.000101625
-0.00342885
0.00119251
-0.000566826
-0.00366009
0.00118949
-0.00107209
-0.00407688
0.000985708
-0.00133224
-0.00409949
0.000866996
-0.000859566
-0.00540263
0.000849809
-0.000597861
-0.00533444
0.000815147
-0.000464369
-0.00570309
0.00071466
-0.000727842
-0.00535468
0.000787325
-0.000925699
-0.00560013
0.000855875
-0.000656102
-0.0059757
0.000703351
0.000190093
-0.00266815
6.81998e-05
-0.000250479
-0.00205311
0.000263363
-0.000789795
-0.00240105
0.000367079
-0.00109439
-0.00386116
0.00044041
-0.000668924
-0.0045152
0.000524868
-0.000702338
-0.00420083
0.000605257
-0.000652768
-0.00510685
0.000408301
-0.000903531
-0.00510625
0.000520111
-0.000852396
-0.00541881
0.000552224
-0.000587516
-0.00543184
0.000393547
-0.00064945
-0.00529306
0.000380146
0.000235962
-0.00170676
-0.000198249
7.24446e-05
-0.00138133
-0.000252559
-0.000542196
-0.00153886
-9.2711e-05
-0.000776009
-0.00255569
0.000172344
-0.000666338
-0.00228254
0.0003203
-0.000589464
-0.00384683
0.000279091
-0.00076663
-0.00440678
0.000317174
-0.000717418
-0.00417892
0.000366816
-0.000425101
-0.00438408
0.000403815
-0.000555362
-0.00402913
0.000424484
-0.000616375
-0.00342017
0.000295949
-0.000271292
-0.00393625
9.81697e-05
0.000111538
-0.0014223
-0.000201369
-4.44939e-05
-0.00114276
-0.000260848
-0.000232378
-0.00101204
-0.000247457
-0.00039038
-0.000846818
-0.000149296
-0.000409973
-0.00106891
-0.000107982
-0.000457818
-0.00159375
-2.26692e-05
-0.000644662
-0.00252533
7.4729e-05
-0.000577223
-0.00358948
3.56899e-05
-0.000462738
-0.00349381
5.15376e-05
-0.000487551
-0.00374532
6.29031e-05
-0.000420111
-0.00387228
3.99277e-05
-0.000404161
-0.00364913
-5.75593e-05
-0.000398476
-0.00382563
-4.37722e-05
-3.06613e-05
-0.000614961
-0.000181647
-9.13596e-05
-0.000960263
-0.000164941
-0.000150304
-0.00103417
-0.000162036
-0.000198775
-0.000386385
-0.000144977
-0.00023321
-0.000306584
-0.000141547
-0.000255309
-9.05831e-05
-0.000122818
-0.000449205
-0.00040742
-7.97545e-05
-0.000434012
-0.00185464
-8.27798e-05
-0.000406051
-0.00198871
-4.98642e-05
-0.000408369
-0.00250538
-5.40654e-05
-0.000322757
-0.00324711
-8.47008e-05
-0.000340247
-0.00336464
-8.97014e-05
-0.000370967
-0.00341267
-0.000107745
-0.000153112
-0.00339065
-0.000139278
-2.32973e-05
0.00136053
-7.47704e-05
-6.867e-05
0.000607997
-6.51169e-05
-9.2104e-05
0.00019821
-5.83297e-05
-0.000107998
0.000374342
-5.76533e-05
-0.000112842
0.000895021
-6.34204e-05
-0.000127615
0.00115652
-6.12632e-05
-0.000177256
0.00108055
-6.16249e-05
-0.000163618
0.000289469
-5.73846e-05
-0.000209099
-0.00147072
-4.11247e-05
-0.000223898
-0.00167811
-4.65817e-05
-0.000184177
-0.00241576
-5.64564e-05
-0.000172136
-0.00262197
-5.75541e-05
-0.000197381
-0.00267393
-5.79378e-05
-0.000136191
-0.00234386
-6.45503e-05
-0.000114619
-0.00245469
-5.8836e-05
-0.000167312
-0.00442344
0.00446176
-9.94301e-05
-0.00477026
0.0041463
1.66153e-05
-0.00485532
0.00403247
-4.36623e-05
-0.00485341
0.00427094
3.6429e-06
-0.00483839
0.00407589
1.12008e-05
-0.00472567
0.0038827
7.21599e-05
-0.0048291
0.00442676
-0.000108613
-0.00473495
0.00399822
-0.00011315
-0.00480662
0.00385947
-9.08409e-05
-0.00475617
0.0037923
4.28519e-05
-0.00510016
0.00424915
-5.09486e-05
-0.0051265
0.00406663
-9.24839e-05
-0.004977
0.00368621
-8.5239e-05
-0.00501699
0.00368285
-0.000150513
-0.00536539
0.00400541
-5.5097e-05
-0.00517175
0.00393358
-0.000127319
-0.00538139
0.00379284
-5.39391e-05
-0.00522744
0.00336506
-8.37803e-05
-0.00537438
0.00336095
-0.00037039
-0.00597244
0.00353693
-0.00044968
-0.00589616
0.0036196
-0.000213664
-0.00584893
0.00353989
2.71317e-05
-0.00583279
0.00346854
-0.000246696
-0.00562555
0.00301362
3.61156e-05
-0.00564851
0.00314014
-0.000523747
-0.00642815
0.00360567
-0.000419902
-0.0061511
0.00346088
-0.000545098
-0.00649533
0.00307876
-0.000285966
-0.00624656
0.00316595
-0.000456521
-0.00584598
0.00315561
-9.20932e-05
-0.00595596
0.00264834
-0.000101326
-0.00578887
0.00243966
-0.000444968
-0.00690148
0.0033078
-0.00080657
-0.00656682
0.00340553
-0.000651259
-0.00611855
0.00331209
-0.000443936
-0.00672588
0.00308714
-0.000435619
-0.00634972
0.00309722
-0.000400568
-0.00584471
0.0029494
-0.000473374
-0.00582856
0.00239015
-0.000316767
-0.00706086
0.00310852
-0.000720321
-0.00627607
0.00320976
-0.000711513
-0.00524513
0.00291227
-0.000623891
-0.00630832
0.00236329
-0.000481521
-0.00656709
0.00236344
-0.000543825
-0.00550644
0.00256855
-0.000719897
-0.00514022
0.0024041
-0.000575573
-0.00593015
0.00197854
-0.000155164
-0.006759
0.00255617
-0.000783443
-0.0057541
0.00256249
-0.000954859
-0.0056234
0.00239633
-0.00105774
-0.00551969
0.00199737
-0.000205203
-0.00619899
0.00160761
-0.000164153
-0.00539856
0.0019181
-0.000412502
-0.00447249
0.00194004
-0.000857787
-0.00510674
0.00184983
-0.000841884
-0.00516238
0.00150094
-5.22928e-06
-0.00549153
0.00205356
-0.000720755
-0.00452944
0.00207467
-0.00104641
-0.00491361
0.00204942
-0.00135237
-0.00436074
0.00173648
-0.000712709
-0.00510642
0.00133357
-0.000406705
-0.00559236
0.00111417
-0.000534898
-0.00495449
0.00128539
-0.000787013
-0.00494983
0.001342
-0.000914611
-0.00507208
0.0012021
-0.000529624
-0.00608321
0.000974309
0.000221412
-0.00349986
0.00106119
-0.000447997
-0.00337697
0.00110691
-0.000959367
-0.00379625
0.00107843
-0.00132935
-0.00376969
0.000890867
-0.000973023
-0.00508092
0.000849384
-0.000725632
-0.00530136
0.000840021
-0.000614138
-0.0056549
0.000728325
-0.000789943
-0.00541871
0.000665103
-0.000988622
-0.00544772
0.000771144
-0.000683875
-0.00582804
0.000804569
-0.000555643
-0.00604733
0.000561084
0.000390307
-0.0028032
7.15359e-05
-0.000184954
-0.00196771
0.000240198
-0.000776937
-0.00226182
0.000358878
-0.00115866
-0.00353504
0.000423614
-0.000856997
-0.00444242
0.000558297
-0.000665303
-0.00419524
0.000595124
-0.00076901
-0.00498873
0.000489521
-0.000807637
-0.00509283
0.000485108
-0.000721039
-0.00517353
0.000570768
-0.000720317
-0.00509236
0.0003777
-0.000651517
-0.00523038
0.000366012
-0.000274475
-0.00495244
0.000357581
0.000159267
-0.0017253
-0.000197569
9.43542e-05