/*--------------------------------*- C++ -*----------------------------------*\
  =========                 |
  \\      /  F ield         | OpenFOAM: The Open Source CFD Toolbox
   \\    /   O peration     | Website:  https://openfoam.org
    \\  /    A nd           | Version:  7
     \\/     M anipulation  |
\*---------------------------------------------------------------------------*/
FoamFile
{
    version     2.0;
    format      ascii;
    class       volVectorField;
    location    "7";
    object      U;
}
// * * * * * * * * * * * * * * * * * * * * * * * * * * * * * * * * * * * * * //

dimensions      [0 1 -1 0 0 0 0];

internalField   nonuniform List<vector> 
18780
(
(-0.275272 0.736265 -1.68544)
(0.293606 0.459718 -1.61196)
(-0.272774 0.736963 -1.68853)
(0.0818437 0.645019 -1.69852)
(0.771424 0.408442 -1.52984)
(0.297729 0.445457 -1.61146)
(0.521813 0.453562 -1.56346)
(-0.270824 0.726035 -1.69591)
(0.0913338 0.646541 -1.69287)
(0.384075 0.721498 -1.28582)
(0.849643 -0.224722 -1.00438)
(0.8137 0.280051 -1.50267)
(0.575432 0.634437 -1.41796)
(0.321128 0.390041 -1.60364)
(0.505458 0.476422 -1.55079)
(0.736624 0.588633 -1.12404)
(-0.259022 0.727908 -1.69695)
(0.106476 0.641582 -1.68979)
(0.389558 0.722107 -1.28888)
(0.43173 0.933177 -1.19566)
(1.71852 0.4072 0.303258)
(0.783267 -0.182137 -1.07626)
(0.704256 0.730214 -1.17242)
(0.813964 0.131649 -1.47492)
(0.593672 0.609765 -1.45156)
(0.801059 0.468288 -1.16003)
(0.329897 0.383368 -1.58598)
(0.541675 0.364889 -1.54163)
(0.682454 0.648701 -1.14796)
(0.639736 0.77442 -0.953925)
(-0.270545 0.718329 -1.70187)
(0.122324 0.64943 -1.68245)
(0.408202 0.711511 -1.28981)
(0.434215 0.931045 -1.19607)
(0.151574 0.986975 -1.41169)
(2.73434 -0.152585 2.3833)
(1.75709 0.202185 0.298705)
(1.80016 0.751205 0.847649)
(0.796806 -0.256209 -1.06418)
(0.741642 0.628883 -1.30053)
(1.40618 1.04021 -0.454118)
(0.834204 0.0545514 -1.3939)
(0.598274 0.477205 -1.48866)
(0.809317 0.476712 -1.14221)
(0.80234 0.816009 -0.6065)
(0.343173 0.367951 -1.57171)
(0.554276 0.380239 -1.50139)
(0.737188 0.526521 -1.1607)
(0.637544 0.843338 -0.896406)
(0.587945 0.530387 -1.33613)
(-0.244936 0.735879 -1.69614)
(0.13975 0.658742 -1.67323)
(0.411098 0.720017 -1.28505)
(0.429941 0.91524 -1.21264)
(0.157494 0.982164 -1.40255)
(0.0183529 1.13511 -1.6851)
(3.02054 0.631782 3.20195)
(2.68667 -0.0613974 2.44046)
(2.5413 1.00407 2.54157)
(1.75534 0.0175552 0.184367)
(1.7908 0.752629 0.873001)
(1.99551 1.63029 0.882016)
(0.717869 -0.377271 -1.01451)
(0.763129 0.516615 -1.35204)
(1.40169 1.06841 -0.330611)
(1.26663 1.22546 0.828334)
(0.844061 0.0395594 -1.29042)
(0.5759 0.169453 -1.50307)
(0.822649 0.469814 -1.12107)
(0.799229 0.829889 -0.648281)
(1.21416 0.492949 -0.628069)
(0.37312 0.394693 -1.53676)
(0.603484 0.346027 -1.46139)
(0.748682 0.50872 -1.17179)
(0.631062 0.745121 -0.964061)
(0.586396 0.542015 -1.28865)
(0.396492 0.932254 -1.50026)
(-0.280551 0.709128 -1.7085)
(0.145865 0.67001 -1.66286)
(0.421371 0.722688 -1.2699)
(0.438441 0.911364 -1.22233)
(0.163987 0.988147 -1.38635)
(0.0213427 1.11294 -1.70202)
(0.151186 1.14629 -1.64931)
(3.354 0.457323 3.43252)
(3.0143 0.547748 3.31091)
(3.01395 1.02457 3.33328)
(2.50755 -0.563481 2.55601)
(2.71869 0.91099 2.24627)
(2.58897 1.45895 2.32538)
(1.72881 -0.128698 0.0489721)
(1.73212 0.556697 0.805016)
(2.0648 1.53146 0.665867)
(2.30172 1.03295 1.14551)
(0.645529 -0.474622 -0.846889)
(0.78817 0.350326 -1.27481)
(1.45826 0.997306 -0.315645)
(1.57868 1.13064 0.291261)
(1.67218 0.834072 0.833486)
(0.840744 0.0321324 -1.208)
(0.565137 0.117293 -1.4165)
(0.815954 0.42843 -1.14059)
(0.803589 0.826667 -0.615434)
(1.19579 0.574292 -0.545679)
(0.981482 1.4849 -0.4673)
(0.37471 0.353419 -1.53371)
(0.625362 0.327379 -1.43137)
(0.769322 0.476417 -1.17415)
(0.630627 0.740095 -0.970599)
(0.577229 0.571375 -1.21915)
(0.397073 0.841639 -1.57914)
(0.92626 1.69174 -0.633738)
(-0.247485 0.750494 -1.69583)
(0.162864 0.679812 -1.65146)
(0.433781 0.708077 -1.26598)
(0.44792 0.906793 -1.22802)
(0.175311 0.994835 -1.37033)
(0.0219638 1.0973 -1.716)
(0.174927 1.1757 -1.58819)
(0.372035 1.04693 -1.79758)
(3.41388 0.404119 3.52905)
(3.36466 0.374659 3.536)
(2.99946 0.944582 3.39273)
(2.8391 0.1379 3.43476)
(2.99583 0.865066 3.40349)
(2.85098 1.27916 3.37145)
(2.47589 -0.563495 2.46562)
(2.4449 0.5903 2.44085)
(2.60216 1.26924 2.26915)
(2.88475 1.18256 1.8103)
(1.60862 -0.372051 -0.00618875)
(1.70494 0.531224 0.663175)
(2.02578 1.40399 0.48958)
(2.32467 0.882765 1.17379)
(2.12375 0.877682 1.12897)
(0.727402 -0.33352 -0.664638)
(0.747927 0.180629 -1.18121)
(1.48904 0.98265 -0.235692)
(1.48911 1.07328 0.719933)
(1.71646 0.657844 0.957657)
(2.38629 0.687671 0.443016)
(0.798261 -0.121546 -1.20993)
(0.625881 0.132569 -1.32008)
(0.788677 0.211341 -1.25017)
(0.81458 0.740114 -0.68232)
(1.15144 0.588902 -0.473829)
(1.05516 1.33313 -0.814977)
(1.42452 1.6026 0.269936)
(0.365932 0.271256 -1.55504)
(0.623095 0.202031 -1.43549)
(0.78599 0.424319 -1.1582)
(0.629251 0.688302 -1.01704)
(0.572078 0.577128 -1.15715)
(0.391224 0.773337 -1.58592)
(0.89088 1.59138 -0.777026)
(1.5779 1.48022 -0.36287)
(-0.239434 0.751684 -1.69493)
(0.173627 0.674423 -1.64578)
(0.44242 0.702902 -1.26643)
(0.446424 0.911512 -1.22214)
(0.180701 1.00439 -1.3573)
(0.0175649 1.10664 -1.69441)
(0.155836 1.17353 -1.56928)
(0.378901 1.08627 -1.73331)
(1.2446 1.21401 -0.920038)
(2.79162 0.55445 3.20641)
(3.03603 0.611129 3.51724)
(3.43937 0.372421 3.53821)
(2.94895 0.860054 3.45582)
(3.31224 0.123161 3.48811)
(3.22967 0.785084 3.39401)
(2.95772 1.2314 3.5041)
(2.77534 -0.0915622 3.39362)
(2.88219 0.308868 3.4175)
(2.97234 1.48466 3.27969)
(3.13675 1.20698 2.8353)
(2.32539 -0.445678 2.64617)
(2.57869 0.460144 2.03829)
(2.43902 1.00622 2.33444)
(2.77967 1.09261 1.7696)
(2.83195 0.823251 1.85078)
(1.53306 -0.358544 0.142203)
(1.60678 0.460669 0.590795)
(2.05682 1.1894 0.287845)
(2.45747 0.794634 0.955014)
(2.15515 0.710383 1.31824)
(2.46851 0.876437 1.41789)
(0.621615 -0.447996 -0.623968)
(0.661401 0.00273427 -1.09477)
(1.50449 0.891117 -0.173839)
(1.68015 0.890157 0.520819)
(1.70749 0.855174 0.907065)
(2.39592 0.584206 0.521027)
(2.11514 0.779061 1.2045)
(0.723673 -0.312428 -1.20516)
(0.649542 0.157282 -1.28628)
(0.714748 0.108904 -1.3348)
(0.811136 0.62882 -0.765233)
(1.09916 0.543487 -0.437559)
(1.10986 1.17881 -0.8652)
(1.47449 1.5695 0.128932)
(2.09971 1.35008 -0.639743)
(0.353724 0.177944 -1.57384)
(0.582327 0.0902873 -1.43177)
(0.807934 0.356587 -1.15536)
(0.634163 0.670746 -1.01661)
(0.572971 0.579097 -1.13042)
(0.400523 0.783637 -1.45012)
(0.968263 1.60857 -0.594957)
(1.60072 1.45165 -0.404867)
(1.46166 1.27253 -0.388864)
(-0.238379 0.748905 -1.69925)
(0.188007 0.664816 -1.64049)
(0.455985 0.709938 -1.26214)
(0.454183 0.898543 -1.22942)
(0.178475 1.01213 -1.35219)
(0.0268677 1.12557 -1.65691)
(0.153043 1.20878 -1.47604)
(0.372861 1.05627 -1.69981)
(1.23234 1.19975 -0.971887)
(1.36653 1.38031 -1.00862)
(2.48142 0.59102 3.01819)
(2.72355 0.516775 3.23817)
(2.81805 0.718891 3.08844)
(3.01293 0.597069 3.54416)
(3.04993 0.940136 3.23665)
(3.39522 0.324985 3.59471)
(2.89246 0.524448 3.70655)
(2.90505 0.890145 3.48102)
(3.26024 -0.198951 3.51173)
(3.18962 0.623492 3.45782)
(3.03309 1.12145 3.60627)
(3.31866 0.652742 2.85214)
(2.73769 -0.0092234 3.4372)
(2.86458 0.0788288 3.30558)
(2.85153 0.860415 3.43584)
(3.01022 0.813547 2.92514)
(3.22925 0.289641 2.16777)
(2.18154 -0.551677 2.69922)
(2.49676 0.392797 2.01953)
(2.54117 0.879728 1.99071)
(2.77892 0.798395 1.67406)
(2.92192 0.713265 1.77896)
(2.69358 0.993967 1.58203)
(1.43822 -0.460218 0.0159655)
(1.48736 0.390585 0.600333)
(2.03295 1.04024 0.326495)
(2.52614 0.824716 0.872686)
(2.20285 0.766918 1.3476)
(2.43822 0.739435 1.50527)
(2.68646 0.945075 0.892644)
(0.635031 -0.46203 -0.57692)
(0.636066 -0.0622598 -0.988692)
(1.47146 0.771226 -0.156333)
(1.66904 0.910317 0.499156)
(1.62657 0.799554 1.0819)
(2.41484 0.482514 0.49208)
(2.19569 0.622682 1.16566)
(2.19677 1.17479 1.18783)
(0.492617 -0.693966 -1.11905)
(0.680533 0.209202 -1.26273)
(0.701069 0.086472 -1.31316)
(0.826393 0.615954 -0.735566)
(1.05442 0.519014 -0.445643)
(1.11149 0.941146 -0.91028)
(1.70312 1.45935 0.0521298)
(2.17531 1.26292 -0.624106)
(1.81853 1.37774 0.479117)
(0.364033 0.102952 -1.55281)
(0.629079 0.0730165 -1.36862)
(0.818112 0.352442 -1.14067)
(0.623274 0.630632 -1.05175)
(0.564485 0.557757 -1.15693)
(0.454675 0.814736 -1.33185)
(0.9708 1.53083 -0.635501)
(1.60849 1.43377 -0.433055)
(1.43199 1.28942 -0.352072)
(1.56695 1.36108 -1.03074)
(-0.234317 0.739298 -1.70525)
(0.206776 0.677438 -1.62181)
(0.470808 0.707082 -1.26184)
(0.456845 0.883488 -1.23785)
(0.182831 1.01657 -1.34852)
(0.0304204 1.14758 -1.62228)
(0.157852 1.25831 -1.36142)
(0.376049 1.05213 -1.67298)
(1.24173 1.19002 -0.970172)
(1.25863 1.44984 -0.989503)
(1.51313 1.05296 -1.07994)
(2.36606 0.595684 3.00704)
(2.57719 0.482106 3.04975)
(2.52229 0.525568 3.07849)
(2.78561 0.411496 3.2711)
(2.91492 0.516642 3.04053)
(2.60979 0.861181 3.07581)
(3.02543 0.46156 3.54103)
(2.97133 0.534981 3.50219)
(2.81924 1.2172 3.29083)
(3.29506 -0.0693425 3.74814)
(3.06759 0.470683 3.64635)
(2.72948 0.792393 3.6785)
(3.1912 0.819176 3.04013)
(3.2653 -0.287753 3.5326)
(3.16897 0.292787 3.43154)
(3.0722 0.863259 3.5502)
(3.20752 0.621959 3.07817)
(3.2119 0.385536 2.60441)
(2.56032 -0.561019 3.46383)
(2.63599 -0.378605 3.4703)
(2.59949 0.111731 3.43119)
(2.99682 0.70525 2.83393)
(3.07558 0.625697 2.37436)
(2.38764 0.819854 2.36068)
(1.90158 -0.754837 2.69251)
(2.46469 0.181403 1.97924)
(2.57217 0.975188 1.84846)
(2.76577 0.859213 1.64183)
(2.85146 0.822197 1.71859)
(2.75113 0.712021 1.6174)
(2.56646 1.02234 1.35676)
(1.37328 -0.604874 -0.0545028)
(1.39897 0.222529 0.653027)
(1.99161 0.978443 0.498208)
(2.5606 0.642076 0.818904)
(2.27633 0.729131 1.24965)
(2.42009 0.833451 1.53701)
(2.5363 1.07216 0.995005)
(2.31972 1.19689 2.0064)
(0.556285 -0.512373 -0.698966)
(0.575316 -0.216186 -0.907317)
(1.39349 0.646578 -0.332793)
(1.72131 0.781387 0.407345)
(1.61193 0.845953 1.03558)
(2.33493 0.367035 0.531982)
(2.27445 1.17263 0.77186)
(2.31551 0.863887 1.01482)
(2.11219 1.49887 0.968671)
(0.510575 -0.615121 -0.951031)
(0.730393 0.240583 -1.19769)
(0.695731 0.144386 -1.27822)
(0.833618 0.603339 -0.72196)
(0.991146 0.444812 -0.532457)
(1.11771 0.875584 -0.834803)
(1.66614 1.60541 0.171221)
(2.20749 1.20719 -0.479595)
(1.86142 1.40455 0.231245)
(1.9007 1.33995 0.335886)
(0.351219 0.0161905 -1.52433)
(0.728327 0.268752 -1.25435)
(0.831297 0.27908 -1.1355)
(0.611177 0.584235 -1.08715)
(0.560075 0.547128 -1.14866)
(0.450636 0.810819 -1.33508)
(0.900065 1.49235 -0.652585)
(1.57247 1.367 -0.480819)
(1.4466 1.3301 -0.353901)
(1.52048 1.35388 -0.920404)
(1.80503 1.08949 -0.440486)
(-0.230856 0.740093 -1.70485)
(0.218259 0.68258 -1.60683)
(0.479252 0.699255 -1.26781)
(0.465861 0.874954 -1.23461)
(0.189559 1.02357 -1.33472)
(0.0352844 1.15592 -1.60224)
(0.128511 1.30541 -1.28227)
(0.351412 1.03236 -1.69984)
(1.20012 1.21573 -0.919831)
(1.35388 1.31042 -0.988238)
(1.4971 1.0225 -1.11416)
(1.56975 0.811656 -1.43193)
(2.21357 0.623349 2.89446)
(2.29697 0.306196 2.97818)
(2.50028 0.342241 3.07)
(2.37247 0.516106 2.94472)
(2.64567 -0.000299353 3.127)
(2.56192 0.409143 3.10241)
(2.68206 0.522919 2.96251)
(3.05147 0.0164103 3.20139)
(3.02642 0.291704 3.00805)
(2.79578 0.542113 3.01549)
(2.68639 0.639619 2.90435)
(3.24308 -0.210429 3.45527)
(3.10547 0.254868 3.48721)
(3.19193 0.686519 3.1397)
(3.29346 0.379704 2.75566)
(3.30514 -0.246316 3.77023)
(3.03964 0.142635 3.74176)
(2.85413 0.602711 3.66538)
(3.2445 0.343111 3.1384)
(3.12033 0.575052 3.03839)
(3.14962 -0.45779 3.5114)
(3.12796 -0.141139 3.48196)
(3.00417 0.502661 3.5279)
(3.2309 0.664394 3.14881)
(3.11676 0.55247 2.62704)
(2.56183 0.68304 2.98109)
(2.52133 -0.520228 3.40313)
(2.60434 -0.378181 3.41504)
(2.85071 0.373321 3.04874)
(2.83011 0.586787 3.0466)
(3.02033 0.634483 2.37926)
(2.77957 0.169045 1.88914)
(2.39984 0.416519 2.52792)
(1.76155 -0.929541 2.55098)
(2.32455 0.0745871 2.06161)
(2.53737 0.811067 1.91882)
(2.76479 1.01032 1.55557)
(2.87506 0.482395 1.60776)
(2.77748 0.51594 1.72008)
(2.70549 0.435463 1.35677)
(2.46576 1.29694 1.39449)
(1.24797 -0.814804 -0.0205216)
(1.25759 0.0918293 0.742911)
(2.01326 0.947708 0.677244)
(2.53033 0.491093 0.805309)
(2.37431 0.491812 1.143)
(2.37456 0.710477 1.62276)
(2.62152 1.06505 0.973126)
(2.75757 1.15005 0.766419)
(2.86665 1.18619 1.26373)
(0.503108 -0.570932 -0.705468)
(0.525653 -0.248453 -0.814663)
(1.3251 0.506258 -0.422892)
(1.7335 0.709822 0.380593)
(1.6308 0.836503 1.02128)
(2.24873 0.334146 0.63834)
(2.40766 1.0864 0.719349)
(2.28216 1.07754 1.12429)
(2.20102 1.1627 1.05213)
(1.97319 1.36017 1.19095)
(0.470069 -0.619978 -0.833387)
(0.724484 0.137127 -1.16884)
(0.734528 0.109923 -1.19341)
(0.782812 0.441394 -0.858163)
(0.921821 0.38338 -0.560464)
(1.2157 0.900221 -0.723538)
(1.73305 1.51036 0.233879)
(2.16016 1.12301 -0.207472)
(1.92536 1.35386 0.10784)
(1.93047 1.16158 0.489805)
(2.11003 0.975254 0.639609)
(0.348669 -0.0361975 -1.49001)
(0.675069 0.11134 -1.25554)
(0.815396 0.232518 -1.15221)
(0.61618 0.563023 -1.0719)
(0.577828 0.593325 -1.04713)
(0.469313 0.766388 -1.36531)
(0.950173 1.47117 -0.552399)
(1.55544 1.26639 -0.533443)
(1.49588 1.27584 -0.422518)
(1.57078 1.32336 -0.654678)
(1.81295 1.06715 -0.423257)
(1.80723 1.09708 -0.792248)
(-0.220036 0.742277 -1.70374)
(0.236279 0.686261 -1.59167)
(0.494975 0.691322 -1.27146)
(0.470104 0.868329 -1.23172)
(0.193386 1.0311 -1.31563)
(0.0501764 1.17594 -1.57615)
(0.153754 1.35417 -1.17874)
(0.356732 1.00976 -1.69815)
(1.26031 1.2348 -0.813476)
(1.30466 1.40663 -0.865261)
(1.50595 1.05279 -1.08027)
(1.44552 1.07495 -1.36723)
(1.48398 1.20735 -1.12198)
(2.23358 0.431097 2.82872)
(2.22446 0.399598 2.93565)
(2.19092 0.571172 2.84934)
(2.3634 0.0987135 2.98202)
(2.35101 0.410526 2.86854)
(2.53068 0.033844 3.08533)
(2.50332 0.246099 3.04223)
(2.41372 0.505513 2.92396)
(2.81977 -0.245494 3.08524)
(2.64262 0.0728106 3.12548)
(2.78303 0.282375 3.00718)
(2.59561 0.402372 2.96664)
(3.08023 -0.414082 3.2405)
(3.07049 0.263217 3.08763)
(3.04559 0.367417 2.87662)
(2.85564 0.257258 2.82451)
(2.63869 0.462229 3.03281)
(3.34813 -0.473494 3.51106)
(3.07048 -0.0331964 3.60005)
(2.94496 0.334076 3.59178)
(3.40074 -0.0400769 2.88079)
(2.79893 0.554496 3.18236)
(3.39799 -0.516342 3.69454)
(3.09011 -0.0930433 3.70424)
(2.79331 0.285418 3.78182)
(3.2745 0.143937 3.15932)
(3.09475 0.495921 3.02252)
(2.69421 0.587448 3.22742)
(3.1305 -0.860328 3.4111)
(2.93281 -0.165632 3.63451)
(3.03521 0.550577 3.45595)
(3.06551 0.627683 3.39796)
(3.24317 0.363175 2.32245)
(2.53661 0.391707 2.95021)
(2.50771 0.610266 2.89566)
(2.41493 -0.765215 3.34098)
(2.57653 -0.274887 3.46071)
(2.61218 0.13951 3.30909)
(2.74103 1.19266 2.92783)
(2.81649 0.333 2.43094)
(2.67592 0.189997 1.86729)
(2.46534 0.497262 2.15245)
(2.48152 0.942992 2.188)
(1.66905 -0.863668 2.46875)
(2.26103 0.0448941 2.07873)
(2.5821 0.727975 1.96422)
(2.69597 0.937985 1.6084)
(2.90025 0.282998 1.52717)
(2.69387 0.419554 1.70916)
(2.71503 0.192505 1.35862)
(2.5088 0.817272 1.71289)
(2.74988 1.41184 1.48702)
(0.95221 -1.13616 0.0496861)
(1.15286 -0.142485 0.548728)
(1.78457 0.783363 1.22247)
(2.47324 0.434399 0.860258)
(2.32845 0.497282 1.14879)
(2.33568 0.618004 1.52095)
(2.71471 0.884033 1.01752)
(2.6133 1.29098 1.20347)
(2.88703 1.18967 1.10133)
(2.73774 1.07637 1.37193)
(0.416058 -0.699616 -0.645998)
(0.508583 -0.393103 -0.743911)
(1.19194 0.381315 -0.655183)
(1.80769 0.596116 0.203761)
(1.67505 0.7968 1.002)
(2.17006 0.182809 0.734115)
(2.42823 0.835929 0.852706)
(2.34727 0.983558 1.04694)
(2.17479 0.811178 1.20464)
(2.0581 1.068 1.09708)
(1.72298 0.999104 0.893263)
(0.479961 -0.565084 -0.750808)
(0.673211 -0.0140661 -1.18077)
(0.691617 0.0976124 -1.21632)
(0.791114 0.466168 -0.823619)
(0.895627 0.453469 -0.459194)
(1.22908 0.866823 -0.707621)
(1.80827 1.42889 0.33219)
(2.17928 0.947999 -0.0520545)
(1.9646 1.27157 0.0871055)
(1.98882 1.18567 0.17035)
(2.09189 0.898939 0.652077)
(1.87112 1.10446 -0.1917)
(0.301653 -0.116462 -1.48252)
(0.672468 0.0697123 -1.22921)
(0.843102 0.212168 -1.13609)
(0.621963 0.54559 -1.07033)
(0.600438 0.627853 -0.957402)
(0.457607 0.810842 -1.28354)
(0.903651 1.4349 -0.547794)
(1.54043 1.25615 -0.461373)
(1.28071 1.10241 -1.06604)
(1.58315 1.34207 -0.458874)
(1.82028 1.05869 -0.344851)
(1.79932 1.14325 -0.719499)
(1.78807 1.26838 -0.571826)
(-0.207825 0.747484 -1.70051)
(0.250746 0.685156 -1.58082)
(0.501006 0.686545 -1.28195)
(0.467119 0.866025 -1.23203)
(0.198362 1.037 -1.29971)
(0.0585854 1.18747 -1.55334)
(0.157811 1.4002 -1.10151)
(0.341406 1.001 -1.67913)
(1.25432 1.2146 -0.852318)
(1.33316 1.37472 -0.820274)
(1.5055 1.04795 -1.09716)
(1.5275 0.946863 -1.30747)
(1.45057 1.24653 -1.10613)
(1.12241 1.23231 -1.31787)
(2.26633 0.451117 2.60566)
(2.27068 0.219566 2.93004)
(2.20795 0.424756 2.73599)
(2.23067 0.183571 2.94471)
(2.27694 0.445461 2.86567)
(2.22583 0.400232 2.75718)
(2.45515 0.234081 3.01237)
(2.36929 0.00137865 2.92693)
(2.37295 0.390902 2.8684)
(2.52312 -0.2067 3.16062)
(2.45653 0.0938521 3.15437)
(2.49775 0.240194 2.9291)
(2.46843 0.321681 2.91262)
(2.88685 -0.320613 3.07526)
(2.86399 -0.115817 3.06571)
(2.73402 0.173463 3.12439)
(2.65111 0.292487 2.92098)
(2.74298 0.433192 2.92896)
(3.09743 -0.433926 3.34055)
(3.00952 -0.212241 3.25529)
(3.13551 0.114991 2.96133)
(2.90915 0.207692 2.83453)
(2.67002 0.348033 3.07916)
(2.77718 0.663215 2.71119)
(3.26338 -0.603705 3.52711)
(3.22472 -0.318907 3.56791)
(3.05831 0.16695 3.5943)
(3.37006 -0.13153 3.12153)
(2.93939 0.328382 3.16972)
(2.71194 0.51978 3.14801)
(3.35301 -0.747459 3.69951)
(3.13537 -0.216505 3.75464)
(2.68071 0.0648749 3.87543)
(3.26811 0.0285142 3.17012)
(3.26929 0.169373 2.77471)
(2.71678 0.565197 3.20522)
(2.51867 0.637873 3.12483)
(3.09865 -1.00218 3.43112)
(2.92479 -0.162947 3.62565)
(3.14694 0.536589 3.28471)
(3.06093 0.658259 3.33965)
(3.13872 -0.0803192 2.1263)
(2.45362 0.159406 2.86605)
(2.26483 0.671786 2.91169)
(2.61723 0.82095 2.49734)
(2.36744 -0.844875 3.28817)
(2.49585 -0.337481 3.4817)
(2.69961 0.0695715 3.30791)
(2.68132 0.5326 2.97381)
(2.78884 0.183742 2.32778)
(2.77798 0.215801 1.68699)
(2.41252 0.428257 2.04394)
(2.49707 0.753823 2.11074)
(2.4084 1.07816 2.23949)
(1.50065 -0.844658 2.27589)
(2.03757 -0.154048 2.23109)
(2.55391 0.635723 2.02321)
(2.60955 0.994037 1.74131)
(2.88307 0.228615 1.5318)
(2.75403 0.264401 1.57678)
(2.841 0.106078 1.29286)
(2.68346 0.714845 1.51242)
(2.76704 1.10185 1.58666)
(2.89388 1.06265 1.50796)
(0.82225 -1.19261 0.176231)
(0.970687 -0.413378 0.332704)
(1.75002 0.671016 0.963608)
(2.42557 0.494514 0.830997)
(2.50067 -0.130991 0.932682)
(2.3497 0.607384 1.40187)
(2.82261 0.701194 1.00224)
(2.71703 1.06056 0.977214)
(2.77298 0.881416 1.30494)
(2.70275 0.66494 1.25894)
(2.51692 1.46887 0.539589)
(0.530051 -0.696084 -0.526222)
(0.455827 -0.532427 -0.708957)
(1.13522 0.328002 -0.772211)
(1.78154 0.631406 0.257869)
(1.52702 0.896316 1.09467)
(2.16539 0.258813 0.706456)
(2.49441 0.827719 0.841496)
(2.30351 0.806969 1.12424)
(2.17613 0.542327 1.14071)
(2.03934 0.916579 1.13174)
(1.96897 0.947533 0.692061)
(1.92055 0.772223 0.837185)
(0.292028 -0.727529 -0.65624)
(0.668455 -0.0650004 -1.12353)
(0.671534 0.0821001 -1.19928)
(0.786813 0.416542 -0.858396)
(0.915717 0.502419 -0.401073)
(1.27479 0.773135 -0.551678)
(1.84488 1.31729 0.435396)
(2.18078 0.949836 0.172009)
(2.04701 1.09128 0.0691955)
(2.06556 1.11798 0.20521)
(1.95734 0.823171 0.713612)
(1.84998 1.09443 -0.39733)
(1.84944 1.21512 -0.0928773)
(0.272592 -0.190269 -1.391)
(0.619579 -0.0361018 -1.2411)
(0.770982 0.137047 -1.19515)
(0.609241 0.507998 -1.09701)
(0.608035 0.642819 -0.919992)
(0.539416 0.811764 -1.09681)
(0.898544 1.37229 -0.61707)
(1.49122 1.20969 -0.524468)
(1.47268 1.17192 -0.427657)
(1.59401 1.28632 -0.426421)
(1.82281 1.03596 -0.345343)
(1.79341 1.07968 -0.760592)
(1.73391 1.34018 -0.511672)
(1.64817 0.787396 -0.968137)
(-0.197485 0.744444 -1.7002)
(0.266658 0.682663 -1.57066)
(0.50945 0.683597 -1.2902)
(0.47301 0.862925 -1.22953)
(0.203054 1.05836 -1.27731)
(0.0680446 1.19893 -1.53394)
(0.144789 1.4248 -1.10293)
(0.334395 1.00726 -1.61731)
(1.23941 1.22342 -0.881527)
(1.30438 1.36618 -0.844674)
(1.5028 1.05775 -1.11121)
(1.44486 1.01921 -1.30348)
(1.46285 1.26909 -1.05841)
(1.2042 0.97309 -1.45198)
(1.07814 1.12729 -1.26687)
(2.04282 0.38822 2.6274)
(2.27818 0.253868 2.64161)
(2.28724 0.333993 2.56355)
(2.32237 0.121888 2.93712)
(2.28466 0.229082 2.8174)
(2.17213 0.432118 2.6614)
(2.29596 -0.205816 2.9896)
(2.26174 0.165472 2.91023)
(2.23276 0.370732 2.85414)
(2.25253 0.356769 2.70976)
(2.45037 -0.307857 3.08725)
(2.47664 0.0214148 2.939)
(2.33808 0.0730782 2.92381)
(2.35882 0.277726 2.88943)
(2.564 -0.34974 3.15876)
(2.48024 -0.138563 3.15224)
(2.58996 0.0757137 2.95756)
(2.47973 0.165159 2.94619)
(2.51477 0.367199 2.87536)
(2.86176 -0.330042 3.06624)
(2.85888 -0.165504 3.11263)
(2.80329 -0.163217 3.09156)
(2.7804 0.0444519 2.93713)
(2.68945 0.259666 2.94407)
(2.59487 0.392923 2.92298)
(3.11782 -0.537563 3.40516)
(2.98546 -0.414593 3.38134)
(3.23798 -0.0307994 2.96318)
(2.98278 0.00941158 2.87268)
(2.82736 0.379204 3.03195)
(2.7957 0.161944 2.81741)
(2.75857 0.430903 2.5849)
(3.26568 -0.94786 3.48957)
(3.2224 -0.374942 3.56819)
(3.05717 0.0306397 3.69022)
(3.27988 -0.227248 3.28505)
(3.08834 -0.0104728 3.18543)
(2.80545 0.350646 3.24166)
(2.80564 0.611008 2.7709)
(3.2308 -1.24079 3.63957)
(3.07042 -0.53001 3.83747)
(2.59483 -0.390992 3.90224)
(3.16704 -0.213689 3.14253)
(3.24051 0.00557516 2.60185)
(2.76616 0.0780851 3.04563)
(2.48258 0.838257 3.08531)
(2.82954 0.782386 2.64413)
(3.00716 -1.41206 3.41949)
(2.98901 -0.265544 3.57215)
(3.0517 0.12436 3.38721)
(3.07274 0.455183 3.18755)
(3.02421 -0.474879 2.03375)
(2.45233 -0.132641 2.67979)
(2.1679 0.454164 2.80143)
(2.53959 0.661929 2.48996)
(2.49812 0.964783 2.40395)
(2.35584 -1.18782 3.08033)
(2.34359 -0.494191 3.44193)
(2.65798 -0.0425706 3.39705)
(2.58046 0.707268 3.07589)
(2.72102 0.309346 2.38924)
(2.78593 -0.0884697 1.72023)
(2.46065 0.148436 1.91943)
(2.44133 0.602289 2.13485)
(2.53841 1.02451 2.02282)
(2.92136 0.879591 1.65355)
(1.34018 -1.07318 2.07402)
(1.82642 -0.413409 2.15111)
(2.24759 0.0601533 2.36107)
(2.58342 0.968474 1.79545)
(2.87152 0.312096 1.48517)
(2.78111 0.144437 1.59007)
(2.89839 0.00779477 1.49231)
(2.75113 0.744873 1.38879)
(2.79 1.05018 1.41648)
(2.86639 0.865969 1.54294)
(2.90269 0.747217 1.33496)
(0.567511 -1.36748 0.275338)
(0.774634 -0.645335 0.127844)
(1.65262 0.482246 0.906011)
(2.34575 0.530139 0.840044)
(2.41905 0.152124 1.15151)
(2.38241 0.394174 1.45951)
(2.7383 0.604535 1.3744)
(2.725 0.839243 0.913904)
(2.66927 0.311854 1.37947)
(2.58457 0.738086 1.24887)
(2.59224 1.27603 0.507916)
(2.35408 0.474858 1.34987)
(0.426381 -0.761601 -0.560313)
(0.420586 -0.567676 -0.701709)
(1.10494 0.271354 -0.867951)
(1.79361 0.538365 0.244085)
(1.6923 0.597485 0.814164)
(2.14986 0.242985 0.755043)
(2.5383 0.470832 0.993415)
(2.36173 0.698912 1.08793)
(2.31395 0.183319 1.00645)
(2.07484 0.59099 1.2336)
(1.49874 0.904583 1.41154)
(1.94152 0.734463 1.00638)
(1.86267 1.04552 -0.18664)
(0.620138 -0.38218 -0.744319)
(0.637797 -0.161174 -1.09519)
(0.734492 0.0990397 -1.0971)
(0.751512 0.379134 -0.890967)
(0.910358 0.534178 -0.379312)
(1.1839 0.638669 -0.570688)
(1.90183 1.25487 0.371105)
(2.17992 0.930302 0.224016)
(2.03271 1.05549 0.117054)
(2.08976 0.996025 0.370967)
(2.03242 0.720474 0.341574)
(1.82863 1.09765 -0.397386)
(1.85948 1.27392 -0.0828017)
(2.02957 0.543396 -0.29791)
(0.188292 -0.245045 -1.35833)
(0.632018 -0.0617382 -1.21012)
(0.789073 0.113956 -1.17724)
(0.605231 0.478921 -1.10096)
(0.570585 0.595875 -1.00115)
(0.476851 0.747799 -1.11609)
(0.852639 1.31629 -0.696056)
(1.43904 1.18753 -0.49347)
(1.41445 1.15279 -0.627721)
(1.61246 1.28267 -0.287917)
(1.82859 1.02781 -0.325092)
(1.76862 0.998074 -0.843626)
(1.67843 1.33616 -0.474846)
(1.61424 0.860376 -0.976513)
(1.35913 0.568697 -1.13729)
(-0.183664 0.748471 -1.69529)
(0.282212 0.680177 -1.56215)
(0.514228 0.676706 -1.30443)
(0.475883 0.856044 -1.2301)
(0.207942 1.04669 -1.28361)
(0.0692649 1.20262 -1.51947)
(0.159372 1.45298 -1.07253)
(0.309376 1.04085 -1.54263)
(1.27457 1.21649 -0.865151)
(1.29424 1.38159 -0.840001)
(1.48185 1.06751 -1.12667)
(1.50262 0.912746 -1.2906)
(1.45918 1.21217 -1.11623)
(1.17718 1.15885 -1.33813)
(1.22917 0.935086 -1.29306)
(0.962632 1.01417 -1.41556)
(1.89882 0.366639 2.53826)
(2.08835 0.228804 2.61374)
(2.08435 0.312569 2.61858)
(2.27555 0.0606649 2.66013)
(2.30107 0.178803 2.59915)
(2.25609 0.223674 2.52363)
(2.27739 -0.0194012 2.98219)
(2.32648 0.101397 2.89073)
(2.28921 0.160772 2.68818)
(2.1791 0.421416 2.58101)
(2.29593 -0.205395 2.96329)
(2.29422 -0.131466 2.93893)
(2.30029 0.173638 2.89507)
(2.24165 0.22944 2.78156)
(2.25058 0.230942 2.75726)
(2.43554 -0.300427 3.05592)
(2.4323 -0.280701 3.04816)
(2.45485 -0.0934854 2.87939)
(2.40351 0.0510722 2.89479)
(2.3435 0.184262 2.89165)
(2.60217 -0.446391 3.17921)
(2.52149 -0.151943 3.13957)
(2.58301 -0.104653 2.9936)
(2.48595 -0.264988 2.94987)
(2.59498 0.2279 2.84486)
(2.47599 0.0159842 2.86886)
(2.87854 -0.522878 3.10849)
(2.86747 -0.340632 3.03881)
(2.85928 -0.212933 3.10004)
(2.82163 -0.169234 2.96657)
(2.70376 0.0427099 2.97701)
(2.73979 0.128599 2.77657)
(2.53804 0.210317 2.85421)
(3.04952 -0.67714 3.42354)
(3.05075 -0.240799 3.45736)
(3.06903 -0.469068 3.17578)
(3.13153 -0.162108 2.90822)
(2.85448 0.0917023 3.04791)
(2.91005 0.0432148 2.8836)
(2.74232 0.284777 2.66419)
(2.66377 0.579911 2.47577)
(3.28157 -1.10188 3.60908)
(3.20082 -0.548442 3.51145)
(3.02803 -0.0644528 3.69718)
(3.23498 -0.194488 3.34241)
(3.12611 -0.239589 3.22606)
(2.88704 0.271981 3.24148)
(2.83338 0.213974 2.94543)
(2.75693 0.452785 2.70272)
(3.13016 -1.52405 3.60645)
(3.05983 -0.745095 3.8038)
(2.5939 -0.297034 3.88224)
(3.05354 -0.282424 3.11298)
(3.10392 -0.589599 2.47616)
(2.52591 -0.411983 2.91253)
(2.52179 -0.200364 3.10359)
(2.86814 0.761568 2.57309)
(2.67977 0.920403 2.43983)
(2.7868 -1.99622 3.38256)
(2.92217 -0.568423 3.60311)
(2.9844 0.013679 3.4571)
(2.92257 0.445038 3.20459)
(2.98645 -0.360384 2.25848)
(2.80971 -0.264643 2.26705)
(2.21569 0.292722 2.57909)
(2.47976 0.615258 2.43681)
(2.44309 0.771732 2.44622)
(2.82232 0.52732 2.00824)
(2.13453 -2.0819 2.49077)
(2.13121 -0.62143 3.36846)
(2.66362 0.0580027 3.31665)
(2.50934 0.467269 3.18905)
(2.75527 0.188114 2.39218)
(2.82542 0.00683018 1.80549)
(2.49214 0.278905 1.81082)
(2.55956 0.373689 2.07573)
(2.55366 0.916309 2.08246)
(2.92253 0.603105 1.67009)
(2.89592 0.878519 1.68752)
(1.11018 -1.54298 1.78055)
(1.68504 -0.392735 1.89896)
(2.19668 0.0741774 2.10053)
(2.534 0.983609 1.85064)
(2.79091 0.339419 1.55843)
(2.69756 -0.0760815 1.6422)
(2.84791 0.142535 1.58377)
(2.83421 0.299887 1.26542)
(2.84664 0.921207 1.0992)
(2.86976 0.85733 1.39831)
(2.8958 0.403729 1.40791)
(2.89099 0.548655 0.986313)
(0.872581 -1.26045 0.0195546)
(0.645625 -0.727015 0.0416512)
(1.48776 0.182665 0.985679)
(2.21999 0.470542 0.868422)
(2.41367 -0.0948769 1.06772)
(2.39771 0.379933 1.43493)
(2.7813 0.5276 1.28598)
(2.80658 0.429386 0.921914)
(2.5753 -0.0874723 1.27908)
(2.70204 0.457316 1.21583)
(2.67654 0.884616 0.43381)
(2.40138 0.565343 1.16646)
(2.04202 0.51927 0.458224)
(0.600157 -0.695717 -0.575059)
(0.508889 -0.549488 -0.67353)
(0.917077 0.014275 -1.07364)
(1.76264 0.467186 0.254413)
(1.55678 0.615973 0.809349)
(2.08021 0.186834 0.876868)
(2.52825 0.459662 1.06475)
(2.35922 0.66221 1.12309)
(2.35154 0.149769 1.00457)
(2.13786 0.629353 0.940815)
(1.8207 0.750401 0.549003)
(1.79484 0.68147 1.26942)
(1.83227 1.17593 -0.0936706)
(1.78893 0.574068 -0.487751)
(0.533527 -0.441085 -0.714556)
(0.489994 -0.32915 -1.07251)
(0.713098 0.0912555 -1.04418)
(0.708968 0.348716 -0.889019)
(0.835746 0.462233 -0.500244)
(1.15399 0.486764 -0.584709)
(1.91742 1.20881 0.451339)
(2.19418 0.916584 0.325326)
(2.15505 0.831713 0.325273)
(2.10824 0.801941 0.479899)
(1.96961 0.722812 0.430546)
(1.82706 1.09268 -0.447174)
(1.87049 1.29623 -0.222907)
(1.95036 0.708747 -0.274671)
(1.52162 0.284012 -0.957814)
(0.11981 -0.291545 -1.30801)
(0.635159 -0.0944726 -1.18853)
(0.760963 0.0721635 -1.20169)
(0.597301 0.447934 -1.10375)
(0.540325 0.556101 -1.07372)
(0.477279 0.693323 -1.10134)
(0.835684 1.30399 -0.618416)
(1.4013 1.10243 -0.593002)
(1.43924 1.15284 -0.588375)
(1.63307 1.23743 -0.320922)
(1.82214 1.04965 -0.337347)
(1.74058 1.03757 -0.719223)
(1.80378 1.04309 -0.708541)
(1.63991 0.845106 -0.979552)
(1.44751 0.526257 -1.04822)
(1.08427 0.864462 -1.10306)
(-0.17994 0.732415 -1.6994)
(0.298199 0.678778 -1.55344)
(0.527315 0.672345 -1.31164)
(0.490222 0.861601 -1.21874)
(0.207094 1.04951 -1.27948)
(0.083708 1.20016 -1.50937)
(0.167502 1.43761 -1.09108)
(0.36053 1.09233 -1.39986)
(1.26696 1.19865 -0.893825)
(1.29728 1.36428 -0.873201)
(1.45796 1.08262 -1.16952)
(1.45305 1.03418 -1.23413)
(1.43029 1.24066 -1.11892)
(1.18915 1.11726 -1.34354)
(1.16861 1.05678 -1.29819)
(0.940421 1.06743 -1.41045)
(0.816127 0.526423 -1.34634)
(1.92445 0.340036 2.29628)
(1.86388 0.280076 2.58624)
(1.96911 0.186885 2.49268)
(2.14544 0.0837203 2.60657)
(2.11189 0.125176 2.63927)
(2.0399 0.2577 2.6197)
(2.23757 -0.0605081 2.70529)
(2.32563 -0.0422456 2.6104)
(2.31337 0.0633086 2.53862)
(2.19629 0.288845 2.47466)
(2.2736 -0.189103 3.03439)
(2.32295 -0.0801226 2.94695)
(2.38837 -0.0848812 2.7357)
(2.16608 0.203736 2.67578)
(2.19116 0.254933 2.55085)
(2.19785 -0.387783 2.99208)
(2.32531 -0.199918 2.95349)
(2.34789 -0.162064 2.90173)
(2.2785 0.0819496 2.84584)
(2.28091 0.129933 2.77322)
(2.30339 0.113153 2.7188)
(2.46937 -0.431645 3.05034)
(2.45514 -0.346836 3.02137)
(2.46006 -0.281014 2.94169)
(2.3939 -0.0574997 2.90502)
(2.44403 0.0784752 2.85471)
(2.28673 0.0391087 2.85066)
(2.62351 -0.421124 3.17362)
(2.53703 -0.420193 3.11929)
(2.56743 -0.125062 3.01483)
(2.55145 -0.145637 2.92229)
(2.59082 0.0590015 2.85366)
(2.63734 0.000226935 2.78697)
(2.38072 0.0692769 2.8302)
(2.88219 -0.712081 3.11581)
(2.87479 -0.423971 3.05285)