/*--------------------------------*- C++ -*----------------------------------*\
  =========                 |
  \\      /  F ield         | OpenFOAM: The Open Source CFD Toolbox
   \\    /   O peration     | Website:  https://openfoam.org
    \\  /    A nd           | Version:  7
     \\/     M anipulation  |
\*---------------------------------------------------------------------------*/
FoamFile
{
    version     2.0;
    format      ascii;
    class       volScalarField;
    location    "3";
    object      p;
}
// * * * * * * * * * * * * * * * * * * * * * * * * * * * * * * * * * * * * * //

dimensions      [0 2 -2 0 0 0 0];

internalField   nonuniform List<scalar> 
18780
(
-73.9201
-73.3187
-73.8575
-74.0104
-72.419
-73.2219
-73.8314
-73.7566
-73.9675
-74.0065
-71.7346
-72.4623
-73.1031
-73.0886
-73.679
-74.2088
-73.6558
-73.903
-73.9128
-73.7963
-70.9352
-71.6157
-72.4378
-72.3645
-72.8885
-73.7423
-72.9223
-73.5289
-74.0679
-74.1731
-73.6062
-73.7939
-73.8052
-73.7395
-73.8737
-70.1835
-70.8378
-71.5353
-71.5753
-72.2793
-73.3704
-72.1526
-72.7652
-73.4452
-74.221
-72.8151
-73.3148
-73.9169
-74.0384
-74.3017
-73.5736
-73.6971
-73.7047
-73.6667
-73.8342
-73.7163
-69.3926
-70.039
-70.6238
-70.827
-71.4721
-72.7591
-71.5275
-72.0712
-72.9691
-74.0158
-72.0459
-72.6658
-73.1379
-74.0179
-74.6007
-72.7632
-73.1129
-73.774
-73.8875
-74.1768
-74.4729
-73.5151
-73.6331
-73.6213
-73.5829
-73.7806
-73.6563
-73.5935
-68.7259
-69.2409
-69.9835
-69.9251
-70.373
-71.5985
-70.7258
-71.1637
-72.3173
-73.9342
-71.4413
-71.8557
-72.5995
-73.6651
-74.5256
-71.9333
-72.5359
-72.8542
-73.7636
-74.4232
-74.9226
-72.6496
-73.0224
-73.6255
-73.7431
-74.0444
-74.3447
-74.5047
-73.4392
-73.563
-73.5514
-73.5015
-73.7169
-73.6003
-73.5241
-73.1746
-67.8967
-68.662
-69.3476
-69.1995
-69.7132
-70.9509
-69.9699
-70.4322
-71.1812
-72.8175
-70.6592
-71.1067
-71.9925
-73.3648
-74.8775
-71.3834
-71.6948
-72.3069
-73.3446
-74.2578
-75.3826
-71.8651
-72.3845
-72.6364
-73.5074
-74.267
-74.7042
-75.3062
-72.5197
-72.883
-73.448
-73.584
-73.9106
-74.2006
-74.3998
-73.8111
-73.3668
-73.4832
-73.4687
-73.4203
-73.6747
-73.5396
-73.4766
-73.1374
-71.7378
-66.6548
-67.0772
-67.7334
-68.9233
-68.5795
-69.1989
-70.5138
-69.1246
-69.4702
-70.5657
-72.2464
-69.8744
-70.1844
-71.1094
-72.5884
-74.0559
-70.6387
-70.8979
-71.6388
-72.867
-74.4477
-75.2726
-71.3134
-71.5424
-72.008
-73.0476
-73.9277
-75.1083
-75.7766
-71.7899
-72.2613
-72.4885
-73.2643
-74.0624
-74.4972
-75.1681
-75.283
-72.4502
-72.75
-73.2698
-73.4178
-73.7722
-74.0584
-74.2727
-73.76
-72.7826
-73.2938
-73.4038
-73.3757
-73.328
-73.5976
-73.4774
-73.4415
-73.0828
-71.7004
-70.9918
-65.7751
-66.3716
-67.8277
-66.8055
-68.2989
-67.4721
-68.539
-70.1908
-68.3974
-68.8993
-70.2147
-71.2533
-69.0575
-69.1828
-70.7003
-71.8244
-73.349
-69.7203
-69.7945
-70.7975
-72.1378
-73.7843
-75.021
-70.5369
-70.6067
-71.2853
-72.4769
-73.9125
-74.9753
-76.2874
-71.2064
-71.4175
-71.7033
-72.7532
-73.704
-74.8282
-75.6194
-75.6996
-71.6819
-72.1536
-72.3631
-72.9501
-73.8282
-74.3051
-75.0054
-75.1805
-74.0557
-72.4346
-72.7076
-73.1474
-73.2347
-73.6338
-73.8958
-74.1333
-73.724
-72.7648
-72.038
-73.2316
-73.318
-73.3343
-73.2472
-73.5187
-73.4204
-73.3979
-73.0041
-71.6736
-70.9913
-70.2953
-64.9699
-65.7707
-66.9531
-66.0819
-67.452
-68.885
-66.4652
-67.8852
-69.8173
-67.3329
-68.1798
-69.6323
-70.7524
-68.1743
-68.5207
-69.8065
-71.0042
-72.2226
-68.9534
-69.0752
-70.2244
-71.4493
-72.9367
-74.5616
-69.5792
-69.7018
-70.4723
-71.6693
-73.5648
-74.7169
-75.9596
-70.4609
-70.443
-70.9657
-72.1107
-73.5109
-74.6318
-75.8353
-76.3174
-71.1604
-71.2129
-71.5229
-72.4321
-73.5003
-74.5606
-75.3995
-75.6101
-75.0875
-71.6185
-72.0266
-72.2223
-72.6722
-73.6166
-74.1522
-74.8178
-75.0471
-74.003
-73.2496
-72.3775
-72.6611
-73.0258
-73.0298
-73.496
-73.7447
-73.9912
-73.6853
-72.7901
-72.0418
-71.1803
-73.2101
-73.2441
-73.3144
-73.1821
-73.4448
-73.3775
-73.3454
-72.8594
-71.6611
-70.985
-70.3343
-69.4106
-63.9688
-64.3873
-64.9281
-65.8883
-65.4467
-66.6508
-67.7915
-65.8209
-67.155
-68.9278
-69.714
-66.3302
-67.1775
-69.2498
-70.554
-67.2584
-67.9726
-69.4554
-70.4162
-70.9816
-68.0311
-68.4461
-69.2714
-70.6549
-72.0184
-73.3122
-68.8418
-68.952
-69.5367
-71.095
-72.594
-74.2045
-75.7126
-69.4929
-69.5468
-70.1047
-71.2582
-73.2369
-74.3471
-75.6846
-76.4517
-70.3947
-70.2589
-70.6546
-71.5625
-73.1428
-74.2846
-75.5629
-76.0454
-75.9954
-71.0577
-70.9977
-71.5256
-72.0083
-73.2675
-74.3509
-75.1753
-75.5286
-75.0058
-74.392
-71.5993
-71.9025
-72.0346
-72.3839
-73.3629
-73.9662
-74.6109
-74.8989
-73.9272
-73.2413
-72.5695
-72.3144
-72.6014
-72.8977
-72.8379
-73.3616
-73.6243
-73.8535
-73.6284
-72.7759
-72.0278
-71.196
-70.5312
-73.2066
-73.2434
-73.2978
-73.1302
-73.3667
-73.3305
-73.2913
-72.7803
-71.6383
-70.9838
-70.3734
-69.4271
-68.813
-63.9036
-63.9716
-64.5264
-64.3653
-65.0634
-64.8793
-65.7923
-66.8492
-65.1893
-66.3976
-67.6355
-68.4109
-65.7061
-66.6581
-68.7092
-69.6542
-69.7291
-66.3349
-67.1732
-68.9211
-70.3602
-70.4304
-67.1324
-67.7563
-68.8126
-70.0299
-70.8207
-71.6202
-67.964
-68.3858
-68.9275
-70.3537
-71.7381
-72.8157
-74.8095
-68.6399
-68.8934
-69.3632
-70.6481
-72.2599
-73.7456
-75.3163
-76.2798
-69.4523
-69.4216
-69.5312
-71.161
-72.6863
-73.9868
-75.3217
-76.1871
-76.5203
-70.3613
-70.1953
-70.391
-71.2716
-72.7734
-73.9688
-75.2287
-75.797
-75.898
-75.2956
-70.9663
-70.9391
-71.2205
-71.6304
-73.0576
-74.247
-74.9406
-75.4694
-74.8898
-74.3693
-74.05
-71.5802
-71.9577
-71.8329
-72.1087
-73.1227
-73.7598
-74.3937
-74.7404
-73.8294
-73.2041
-72.579
-71.8074
-72.2665
-72.5625
-72.7971
-72.673
-73.2438
-73.4713
-73.7168
-73.557
-72.7099
-71.9872
-71.2057
-70.5658
-69.7413
-73.2235
-73.2434
-73.2797
-73.0802
-73.2887
-73.2702
-73.2566
-72.7525
-71.6181
-71.0027
-70.397
-69.4395
-68.8365
-68.1618
-63.5452
-63.8387
-64.1567
-63.9735
-64.459
-65.1637
-64.3161
-65.0243
-65.8771
-64.7445
-65.6925
-66.5696
-67.2351
-65.3203
-66.1697
-67.6106
-68.3138
-68.7941
-65.5868
-66.33
-68.0564
-69.3696
-69.3858
-70.0559
-66.1701
-66.9609
-68.1773
-70.1505
-70.2927
-70.4313
-66.8958
-67.5569
-68.2617
-69.6554
-70.4538
-71.5247
-73.2983
-67.7603
-68.2407
-68.7687
-70.0191
-71.3761
-72.7218
-74.4375
-75.7433
-68.4058
-68.6648
-69.1893
-70.3183
-71.7903
-73.3459
-74.818
-75.962
-76.4755
-69.4334
-69.3686
-69.5292
-70.682
-72.1678
-73.5538
-74.9307
-75.8812
-76.3551
-75.8806
-70.2793
-70.1024
-70.0634
-70.9002
-72.4598
-73.6164
-74.8327
-75.5635
-75.7588
-75.2284
-74.9086
-70.8672
-70.8282
-70.9076
-71.3335
-72.8486
-74.0009
-74.7545
-75.3054
-74.7321
-74.3287
-74.0297
-73.0791
-71.5449
-71.879
-71.9872
-71.9265
-72.951
-73.5455
-74.1526
-74.5737
-73.7603
-73.1764
-72.5737
-71.8752
-70.7931
-72.2268
-72.5173
-72.6827
-72.526
-73.1141
-73.3149
-73.5878
-73.4709
-72.665
-71.951
-71.2104
-70.5923
-69.7683
-68.8554
-73.2377
-73.2276
-73.281
-73.0335
-73.1978
-73.2001
-73.2258
-72.6996
-71.6017
-71.0254
-70.4041
-69.4688
-68.8533
-68.1633
-68.0412
-63.2662
-63.3889
-63.7893
-63.6512
-63.9731
-64.4833
-63.9645
-64.338
-65.1252
-65.4311
-64.2324
-64.8231
-65.5461
-66.1938
-64.6351
-65.4429
-66.4513
-67.2061
-67.661
-65.069
-65.9134
-67.2221
-68.0604
-68.6208
-68.9422
-65.4862
-66.2559
-67.6733
-69.215
-70.3983
-70.0526
-70.531
-65.994
-66.6818
-67.6494
-69.1183
-69.8135
-70.3631
-71.448
-66.794
-67.4062
-67.9727
-69.2455
-70.3588
-71.4764
-72.9144
-74.1517
-67.5171
-68.0577
-68.597
-69.6655
-70.9415
-72.4753
-74.0532
-75.3733
-76.1438
-68.3336
-68.5582
-68.9642
-69.8631
-71.2685
-72.9377
-74.3914
-75.6305
-76.3192
-75.9156
-69.4211
-69.2193
-69.3431
-70.3046
-71.8244
-73.208
-74.6112
-75.5666
-76.2753
-75.8018
-75.5803
-70.2247
-70.004
-69.8468
-70.5643
-72.0926
-73.4014
-74.5401
-75.4344
-75.5886
-75.1432
-74.9136
-74.0521
-70.7953
-70.6648
-70.7053
-71.0758
-72.5659
-73.6157
-74.5913
-75.0388
-74.5904
-74.2401
-73.9782
-73.1514
-72.2733
-71.5168
-71.7308
-71.7633
-71.7891
-72.7866
-73.3135
-73.9392
-74.3687
-73.6358
-73.106
-72.5481
-71.924
-70.8993
-69.7852
-72.1906
-72.4557
-72.5549
-72.4252
-72.9807
-73.1691
-73.48
-73.3824
-72.6097
-71.9148
-71.2044
-70.6088
-69.7966
-68.8741
-68.536
-73.2449
-73.208
-73.2884
-72.9584
-73.0989
-73.1192
-73.1737
-72.6247
-71.6016
-71.0275
-70.4047
-69.4888
-68.8635
-68.1612
-68.0377
-67.5584
-62.9989
-63.0807
-63.4708
-63.2201
-63.6608
-64.0603
-63.7108
-63.9129
-64.4038
-64.8107
-63.7603
-64.172
-64.8038
-65.4594
-65.7022
-64.0329
-64.5862
-65.5648
-66.1125
-66.4755
-64.5507
-65.4546
-66.2401
-67.172
-68.1441
-67.7546
-64.937
-65.5742
-66.8453
-68.1315
-68.524
-68.7956
-69.3526
-65.3954
-66.0922
-67.3016
-68.76
-69.6295
-70.1545
-70.368
-71.1675
-65.9073
-66.5531
-67.3117
-68.567
-69.3543
-69.8576
-71.2027
-72.4247
-66.6637
-67.2756
-67.8459
-68.9229
-70.0837
-71.2921
-72.9005
-73.9062
-74.8614
-67.3127
-67.8813
-68.3155
-69.289
-70.6237
-72.0613
-73.6956
-75.0086
-75.9652
-75.8786
-68.2088
-68.5103
-68.6788
-69.6878
-70.9109
-72.5832
-74.0446
-75.2987
-76.1371
-75.897
-75.4419
-69.2907
-69.0727
-69.0306
-69.942
-71.3634
-72.8637
-74.2458
-75.3178
-76.0807
-75.7189
-75.5468
-75.391
-70.1837
-70.0715
-69.6744
-70.2479
-71.7105
-73.268
-74.181
-75.34
-75.3776
-75.0316
-74.8919
-74.2903
-73.3195
-70.7122
-70.5987
-70.4668
-70.8571
-72.1622
-73.2609
-74.2923
-74.9737
-74.4478
-74.1229
-73.9175
-73.2065
-72.3898
-71.2111
-71.4879
-71.6959
-71.2813
-71.677
-72.582
-73.0808
-73.7132
-74.1288
-73.4935
-73.0268
-72.5182
-71.9154
-70.9836
-69.8988
-68.7524
-72.1715
-72.3913
-72.4244
-72.3494
-72.8486
-73.0248
-73.3463
-73.2901
-72.5454
-71.8419
-71.1879
-70.6093
-69.8269
-68.9022
-68.5626
-68.2172
-73.2565
-73.1999
-73.2863
-72.8859
-72.9932
-73.0422
-73.1127
-72.5522
-71.6084
-71.0083
-70.4045
-69.4998
-68.8805
-68.1601
-68.0264
-67.5735
-66.429
-62.9018
-62.9858
-63.2151
-62.9427
-63.318
-63.7288
-63.2822
-63.5711
-63.9506
-64.3402
-63.5295
-63.7812
-64.2754
-64.7932
-65.0769
-63.7473
-64.0683
-64.7477
-65.2811
-65.5679
-66.0484
-63.8816
-64.4678
-65.419
-66.1259
-66.4232
-66.7907
-64.2928
-65.2616
-66.0764
-66.8442
-66.5191
-67.6711
-68.0851
-64.7945
-65.4103
-66.6039
-67.8945
-68.7543
-69.0541
-69.4142
-69.7969
-65.2852
-65.9306
-66.9379
-68.4387
-69.2572
-69.711
-70.2317
-71.1926
-71.46
-65.7105
-66.4603
-67.049
-68.2799
-69.1138
-69.8666
-71.092
-72.2901
-72.8895
-66.4632
-67.1544
-67.6375
-68.5407
-69.7269
-71.0464
-72.5922
-73.7157
-74.8128
-75.2358
-67.219
-67.7777
-68.1013
-68.9831
-70.3245
-71.68
-73.2183
-74.7837
-75.7809
-75.9617
-75.2033
-67.9934
-68.3547
-68.5085
-69.1288
-70.5543
-72.1208
-73.6094
-75.009
-75.9338
-75.8949
-75.7325
-75.206
-69.2257
-69.0469
-68.9172
-69.4631
-70.917
-72.4635
-73.9397
-75.0571
-75.8109
-75.5652
-75.5714
-75.3896
-74.7442
-70.1179
-70.0153
-69.7167
-69.9617
-71.335
-72.8925
-73.9439
-75.1294
-75.1804
-74.9142
-74.8556
-74.407
-73.4425
-71.8032
-70.6122
-70.5519
-70.3403
-70.6751
-71.7874
-73.0152
-73.9677
-74.7833
-74.2893
-73.9816
-73.8377
-73.2198
-72.4644
-71.3526
-69.5419
-71.4575
-71.6255
-71.2657
-71.5526
-72.37
-72.8686
-73.4942
-73.8732
-73.3681
-72.9371
-72.47
-71.9163
-71.0736
-70.0229
-68.8325
-67.8544
-72.1616
-72.3255
-72.3142
-72.2605
-72.7082
-72.8753
-73.2055
-73.1883
-72.4753
-71.78
-71.1641
-70.6101
-69.8156
-68.9236
-68.5958
-68.2227
-66.6234
-73.266
-73.2007
-73.2776
-72.8952
-72.8929
-72.9923
-73.0474
-72.4615
-71.5843
-70.9849
-70.4018
-69.5168
-68.8906
-68.1587
-68.0185
-67.5871
-66.4434
-65.7946
-62.8061
-62.9213
-63.0758
-62.8433
-63.1269
-63.3611
-62.9302
-63.152
-63.6104
-63.9419
-63.2009
-63.4423
-63.8457
-64.1614
-64.6671
-63.4627
-63.6775
-64.1722
-64.6809
-64.9742
-65.3987
-63.5716
-63.9731
-64.5729
-65.1602
-65.5531
-65.9881
-66.2964
-63.8857
-64.5015
-65.3084
-65.8616
-66.3208
-66.7318
-66.9814
-64.2363
-64.6742
-65.9159
-66.5988
-67.2762
-67.2496
-68.0986
-68.5221
-64.6572
-65.2744
-66.26
-67.5121
-68.6508
-68.8623
-69.3821
-69.7154
-70.0878
-65.0353
-65.6614
-66.5245
-67.9425
-68.9906
-69.4347
-69.7469
-71.166
-71.729
-71.5706
-65.4867
-66.3813
-66.823
-67.8991
-68.8822
-69.8702
-71.0774
-72.3607
-72.9516
-73.1353
-66.403
-66.9615
-67.384
-68.2732
-69.3393
-70.7009
-72.1336
-73.5987
-74.6914
-75.2013
-74.7136
-67.0657
-67.6324
-67.9125
-68.6563
-69.9823
-71.2844
-72.8726
-74.4179
-75.4947
-75.9057
-75.3584
-75.1133
-67.9119
-68.0964
-68.3714
-68.9314
-70.1819
-71.6663
-73.3393
-74.7532
-75.7113
-75.7694
-75.6619
-75.5991
-74.9585
-69.1202
-69.1544
-68.8997
-69.315
-70.4977
-72.1282
-73.6503
-74.8142
-75.5704
-75.4062
-75.4228
-75.4651
-74.9717
-74.3221
-70.0466
-69.992
-69.597
-69.6794
-70.9992
-72.4416
-73.764
-74.9163
-74.9913
-74.7811
-74.8216
-74.4498
-73.7373
-72.1124
-70.4377
-70.5224
-70.4935
-70.3256
-70.4905
-71.4948
-72.6425
-73.6691
-74.6413
-74.1202
-73.8219
-73.7234
-73.1975
-72.5338
-71.4203
-69.7493
-67.9436
-71.425
-71.538
-71.5838
-71.4204
-72.1672
-72.6672
-73.2581
-73.6862
-73.234
-72.8268
-72.4031
-71.8994
-71.1374
-70.096
-68.9588
-67.9785
-66.8507
-72.1445
-72.2691
-72.2621
-72.1659
-72.5903
-72.7345
-73.068
-73.0692
-72.3952
-71.735
-71.1342
-70.6001
-69.7954
-68.9501
-68.6281
-68.2203
-66.6367
-65.6711
-73.2784
-73.1946
-73.2659
-72.9034
-72.8444
-72.9193
-72.9383
-72.3706
-71.5445
-70.9747
-70.3947
-69.5224
-68.8933
-68.1553
-68.0056
-67.5924
-66.4576
-65.8029
-65.3996
-62.7015
-62.789
-62.8897
-62.8694
-63.0537
-63.1715
-62.7818
-63.108
-63.3196
-63.5343
-62.9115
-63.2133
-63.5406
-63.8276
-64.1453
-63.0567
-63.3665
-63.6596
-64.1264
-64.5689
-64.7852
-63.3338
-63.6117
-63.9922
-64.5049
-64.9262
-65.3307
-65.5005
-63.4292
-63.6047
-64.5345
-65.0372
-65.5541
-65.8881
-66.2149
-66.474
-63.7851
-64.3509
-65.1904
-65.7594
-66.2538
-66.4947
-66.9312
-67.2122
-64.0533
-64.4687
-65.5473
-66.5538
-67.1665
-67.4876
-68.1176
-68.5204
-68.7469
-64.5162
-65.0766
-65.9317
-67.1443
-68.5844
-68.6674
-68.981
-69.718
-70.3341
-70.1658
-64.9624
-65.4446
-66.2144
-67.5945
-68.7166
-69.2402
-69.7257
-70.9727
-71.7545
-71.5001
-71.4778
-65.364
-66.1638
-66.7102
-67.6037
-68.5994
-69.6618
-70.8815
-72.1577
-72.8591
-73.3303
-73.5333
-66.2358
-66.8155
-67.2452
-68.018
-69.1246
-70.3559
-71.7031
-73.2825
-74.3878
-75.1674
-74.8605
-74.4618
-66.9827
-67.3713
-67.6312
-68.3938
-69.543
-70.8835
-72.4345
-74.066
-75.2448
-75.8131
-75.3095
-75.2781
-73.8262
-67.7958
-68.0616
-68.1996
-68.7328
-69.8005
-71.2528
-73.0792
-74.6052
-75.4411
-75.6026
-75.5724
-75.7126
-75.357
-73.9646
-69.0381
-68.9398
-68.7497
-69.0459
-70.2094
-71.7861
-73.273
-74.5685
-75.2645
-75.2455
-75.3523
-75.4307
-75.1144
-74.9034
-71.3757
-70.011
-69.8724
-69.4925
-69.4762
-70.5784
-72.2162
-73.4678
-74.5907
-74.7639
-74.6113
-74.768
-74.4854
-73.9561
-72.5406
-70.6633
-68.6815
-70.4919
-70.4496
-70.2935
-70.3071
-71.1821
-72.2513
-73.387
-74.4023
-73.9368
-73.6397
-73.6034
-73.1969
-72.5372
-71.5074
-69.9238
-68.1343
-66.8963
-71.3833
-71.5513
-71.4047
-71.2927
-71.9573
-72.452
-73.0312
-73.5827
-73.1065
-72.7245
-72.3268
-71.8628
-71.1736
-70.1381
-69.0694
-68.0915
-66.89
-66.0308
-72.1476
-72.2342
-72.1862
-72.061
-72.4854
-72.5881
-72.9399
-72.9389
-72.3058
-71.6757
-71.0963
-70.5697
-69.8182
-68.9734
-68.6595
-68.217
-66.6444
-65.6922
-65.4546
-73.2976
-73.1951
-73.2483
-72.8972
-72.7871
-72.7895
-72.816
-72.2769
-71.5153
-70.9417
-70.3797
-69.5265
-68.8937
-68.1507
-67.9854
-67.5967
-66.4659
-65.8111
-65.4065
-65.8425
-62.5275
-62.6558
-62.7851
-62.7025
-62.8344
-62.9667
-62.6842
-63.015
-63.1212
-63.288
-62.7859
-63.0079
-63.2852
-63.4994
-63.6859
-62.8091
-63.1379
-63.4162
-63.6981
-64.0619
-64.2872
-63.0025
-63.2235
-63.6221
-64.0591
-64.3095
-64.6954
-64.9773
-63.1949
-63.5054
-63.9434
-64.5352
-64.8199
-65.1994
-65.4987
-65.7283
-63.3614
-63.941
-64.3872
-64.9854
-65.4921
-65.7487
-66.1366
-66.492
-66.5538
-63.7027
-64.0341
-64.8318
-65.6667
-66.1012
-66.4301
-66.9025
-67.2151
-67.5647
-63.7904
-64.5657
-65.2011
-66.4735
-67.1416
-67.5567
-68.1125
-68.4555
-68.7027
-68.9283
-64.4018
-64.9084
-65.56
-67.1695
-68.3533
-68.6531
-68.82
-69.5838
-70.6444
-70.4537
-69.9861
-64.88
-65.4244
-66.2405
-67.1757
-68.339
-69.0025
-69.7877
-70.8114
-71.5884
-71.5952
-71.7767
-71.0995
-65.4069
-66.011
-66.4145
-67.2785
-68.286
-69.4011
-70.5742
-71.8365
-72.7961
-73.4986
-73.6253
-73.4562
-66.1159
-66.5752
-67.0241
-67.788
-68.8415
-69.9915
-71.4372
-73.0602
-74.1391
-75.2584
-74.9429
-74.6871
-73.2533
-66.8952
-67.1799
-67.5064
-68.1155
-69.1687
-70.4473
-71.9747
-73.8598
-74.9971
-75.6112
-75.3935
-75.3709
-74.2272
-72.7008
-67.6638
-67.9433
-68.0461
-68.3908
-69.5301
-70.8173
-72.6522
-74.3972
-75.2148
-75.4666
-75.6198
-75.9023
-75.6648
-74.4088
-71.6334
-68.8274
-68.818
-68.6293
-68.8107
-69.9034
-71.3406
-72.9041
-74.3614
-74.9895
-75.0286
-75.3384
-75.4335
-75.1502
-74.8183
-71.9524
-69.3834
-69.7859
-69.8214
-69.3853
-69.3207
-70.2208
-71.8053
-73.0991
-74.2481
-74.5152
-74.3899
-74.6854
-74.5123
-73.9071
-72.8942
-70.9574
-68.8281
-67.119
-70.4383
-70.4414
-70.2338
-70.1893
-70.9315
-72.0112
-73.0877
-74.0368
-73.7454
-73.4486
-73.4045
-73.1212
-72.5179
-71.575
-70.0761
-68.3824
-67.0314
-66.0772
-71.3371
-71.4762
-71.2905
-71.2586
-71.7346
-72.2361
-72.8307
-73.4696
-72.9808
-72.6007
-72.2078
-71.788
-71.1747
-70.1691
-69.1907
-68.1722
-66.9406
-66.085
-65.5499
-72.1732
-72.208
-72.1285
-71.9618
-72.3855
-72.446
-72.8118
-72.8401
-72.2063
-71.6101
-71.0535
-70.53
-69.8469
-68.9955
-68.6888
-68.2104
-66.6492
-65.7313
-65.4817
-65.4464
-73.3141
-73.1908
-73.2343
-72.8705
-72.7102
-72.6548
-72.7071
-72.1866
-71.4908
-70.9117
-70.3521
-69.5327
-68.9199
-68.1433
-67.9599
-67.5964
-66.4835
-65.8203
-65.4193
-65.8436
-66.4716
-62.4856
-62.463
-62.592
-62.5827
-62.6933
-62.8348
-62.5983
-62.7545
-62.8928
-63.0101
-62.689
-62.7766
-63.087
-63.1807
-63.4668
-62.7134
-62.9474
-63.1654
-63.4257
-63.6775
-63.902
-62.7227
-63.02
-63.3165
-63.6711
-63.901
-64.2602
-64.5236
-62.9724
-63.1809
-63.5068
-64.0228
-64.2286
-64.6618
-64.9524
-65.2001
-63.0687
-63.5082
-63.8401
-64.3661
-64.7224
-65.2226
-65.435
-65.6239
-65.9014
-63.3224
-63.7913
-64.2699
-64.8659
-65.4289
-65.6414
-66.1087
-66.449
-66.5087
-66.6897
-63.5402
-64.0185
-64.5447
-65.5868
-66.0731
-66.4778
-66.8339
-67.2799
-67.6603
-67.7546
-63.9261
-64.4212
-65.0192
-66.2522
-66.9906
-67.7851
-67.8545
-68.3567
-68.6808
-69.104
-68.8006
-64.3326
-64.7925
-65.1775
-66.8979
-68.1185
-68.6372
-68.8401
-69.5583
-70.6476
-71.2026
-70.207
-69.6551
-64.8659
-65.2344
-65.96
-66.753
-67.9764
-68.7157
-69.5397
-70.6447
-71.5424
-71.7993
-71.8994
-71.5319
-70.1608
-65.3551
-65.7776
-66.2229
-67.0077
-68.084
-69.0623
-70.2669
-71.6257
-72.8455
-73.6222
-73.7355
-73.6547
-72.5083
-65.9625
-66.383
-66.7823
-67.5196
-68.5597
-69.5813
-71.114
-72.6614
-74.1065
-75.1192
-74.9652
-74.8405
-73.7526
-71.755
-66.7166
-66.9395
-67.3261
-67.8597
-68.8602
-70.019
-71.4692
-73.5939
-74.7899
-75.4615
-75.3674
-75.4897
-74.5952
-73.3131
-70.9069
-67.4676
-67.8953
-67.8282
-68.1872
-69.1117
-70.4182
-72.2554
-74.1292
-75.0798
-75.2965
-75.4584
-75.8636
-75.8754
-74.8196
-72.1383
-69.5954
-68.7193
-68.6787
-68.4913
-68.6738
-69.4217
-70.9522
-72.6078
-74.1786
-74.7257
-74.8045
-75.1356
-75.4275
-75.1038
-74.9672
-72.5312
-69.8418
-67.464
-69.7395
-69.561
-69.3088
-69.2108
-70.068
-71.244
-72.6648
-73.9887
-74.2332
-74.1312
-74.5316
-74.4502
-73.9808
-73.177
-71.1935
-69.1416
-67.3587
-65.9293
-70.3859
-70.4635
-70.2636
-70.0935
-70.7958
-71.766
-72.7555
-73.7105
-73.5306
-73.2857
-73.2556
-73.0349
-72.486
-71.6381
-70.2002
-68.6368
-67.1774
-66.1391
-65.3639
-71.2759
-71.42
-71.2503
-71.1667
-71.493
-72.028
-72.6114
-73.2202
-72.8754
-72.4583
-72.0921
-71.7284
-71.1904
-70.2243
-69.2968
-68.256
-67.0096
-66.1206
-65.5751
-65.229
-72.1935
-72.1991
-72.0203
-71.8662
-72.289
-72.3098
-72.6763
-72.7415
-72.1037
-71.5469
-71.0002
-70.4941
-69.8594
-69.0142
-68.7152
-68.2003
-66.6578
-65.7697
-65.5151
-65.443
-65.8724
-73.3321
-73.1808
-73.2104
-72.826
-72.6445
-72.5455
-72.6183
-72.1216
-71.4621
-70.8926
-70.3224
-69.5343
-68.9244
-68.1302
-67.9332
-67.591
-66.5053
-65.8252
-65.4357
-65.8474
-66.5162
-67.4204
-62.3816
-62.4401
-62.5896
-62.4231
-62.4887
-62.6735
-62.5045
-62.6545
-62.7281
-62.9339
-62.5407
-62.6972
-62.8418
-62.9882
-63.1744
-62.6566
-62.746
-62.9194
-63.1678
-63.4173
-63.6333
-62.6474
-62.8735
-63.1234
-63.3078
-63.5833
-63.8357
-64.1876
-62.7168
-62.9069
-63.1738
-63.6421
-63.7737
-64.3053
-64.4259
-64.7901
-62.8374
-63.1575
-63.3657
-63.8231
-64.1946
-64.5124
-64.8768
-65.0311
-65.3718
-63.0265
-63.3826
-63.7405
-64.2495
-64.5986
-65.0349
-65.3825
-65.7492
-65.9246
-66.0415
-63.1983
-63.6319
-64.1396
-64.7662
-65.3306
-65.617
-66.0246
-66.3449
-66.6456
-66.6599
-66.5485
-63.553
-63.9377
-64.4346
-65.2229
-66.0583
-66.6403
-66.7618
-67.4148
-67.6008
-67.9104
-67.5458
-63.887
-64.2572
-64.8614
-65.8958
-66.894
-67.7371
-67.7867
-68.3551
-68.5929
-69.3741
-69.0073
-68.3877
-64.2817
-64.5838
-64.9858
-66.4423
-67.8532
-68.565
-68.8067
-69.5244
-70.5063
-70.9886
-70.3813
-69.9953
-69.0755
-64.6163
-65.0113
-65.5473
-66.2728
-67.6984
-68.3793
-69.2181
-70.3379
-71.2877
-71.7818
-72.0354
-71.9378
-70.6087
-69.2051
-65.17
-65.6203
-66.0154
-66.796
-67.8202
-68.7386
-69.909
-71.3721
-72.6031
-73.5761
-73.8779
-73.8183
-72.9018
-70.7281
-65.7546
-66.2157
-66.5302
-67.1553
-68.2029
-69.3075
-70.7068
-72.3003
-73.6345
-74.8453
-75.0951
-74.9841
-74.1933
-72.3441
-70.0697
-66.551
-66.7589
-67.1514
-67.5955
-68.4105
-69.6568
-71.0404
-73.395
-74.502
-75.2796
-75.3493
-75.6171
-74.8731
-73.8991
-71.5711
-68.7245
-67.6592
-67.7205
-67.7085
-67.9244
-68.7357
-70.1953
-71.8317
-73.7199
-74.8904
-75.0644
-75.3361
-75.8912
-76.0036
-75.1085
-72.8595
-70.0086
-67.5838
-68.6836
-68.5058
-68.3552
-68.4785
-69.1836
-70.6388
-72.2437
-73.877
-74.4591
-74.6051
-74.8714
-75.4099
-75.133
-74.9644
-73.092
-70.2422
-67.7936
-66.1444
-69.5973
-69.5986
-69.2962
-69.0726
-69.8296
-70.8118
-72.1976
-73.5926
-73.9993
-73.8223
-74.3022
-74.3969
-74.0543
-73.3781
-71.5434
-69.5961
-67.4077
-66.1068
-65.277
-70.3479
-70.4151
-70.2402
-69.9977
-70.5657
-71.4387
-72.4116
-73.4776
-73.3092
-73.1158
-73.0961
-72.9895
-72.4974
-71.6587
-70.3489
-68.8982
-67.3437
-66.1997
-65.4503
-65.035
-71.2328
-71.3481
-71.0962
-71.0709
-71.2654
-71.8242
-72.3864
-72.9334
-72.7089
-72.3184
-71.9872
-71.6666
-71.1419
-70.2931
-69.3787
-68.3131
-67.0967
-66.1361
-65.6081
-65.2318
-65.2545
-72.2111
-72.1827
-71.94
-71.7706
-72.188
-72.1784
-72.5343
-72.5966
-71.9959
-71.4796
-70.939
-70.4507
-69.8106
-69.0332
-68.7335
-68.1851
-66.6595
-65.8067
-65.5278
-65.4495
-65.8765
-66.6991
-73.3471
-73.1938
-73.2128
-72.795
-72.5738
-72.4845
-72.5399
-72.0589
-71.4334
-70.8398
-70.2889
-69.5256
-68.9253
-68.1172
-67.916
-67.6013
-66.5243
-65.8321
-65.4562
-65.8554
-66.5479
-67.4435
-67.564
-62.3461
-62.4968
-62.3501
-62.5237
-62.7021
-62.3803
-62.4293
-62.5874
-62.7633
-62.473
-62.5213
-62.6784
-62.866
-63.0428
-62.547
-62.6176
-62.7418
-62.9091
-63.1122
-63.4194
-62.5717
-62.6753
-62.8374
-63.0267
-63.2771
-63.5798
-63.8905
-62.6253
-62.7711
-63.0066
-63.2372
-63.4699
-63.7463
-64.0924
-64.3869
-62.6835
-62.9427
-63.0812
-63.4709
-63.7665
-64.1621
-64.3825
-64.6762
-64.9094
-62.7834
-63.0931
-63.4385
-63.7559
-64.0174
-64.5029
-64.7881
-65.0183
-65.4241
-65.4189
-62.9434
-63.2629
-63.7153
-64.1194
-64.6212
-64.9222
-65.3394
-65.6084
-65.8449
-65.9813
-65.9577
-63.0967
-63.5102
-63.9999
-64.5643
-65.2794
-65.5844
-65.9559
-66.3658
-66.718
-66.7342
-66.6577
-66.6215
-63.3297
-63.8586
-64.3978
-64.9227
-66.0235
-66.4883
-66.8636
-67.1888
-67.6886
-67.4211
-67.7627
-67.3721
-63.652
-64.2583
-64.6643
-65.5809
-66.9609
-67.5988
-67.812
-68.2148
-69.0869
-69.6592
-69.3523
-68.632
-67.9551
-64.1207
-64.4444
-65.0014
-66.0988
-67.6039
-68.3656
-68.6751
-69.3773
-70.2431
-70.8075
-70.8008
-70.3171
-69.3925
-68.3506
-64.3784
-64.9224
-65.4784
-66.2212
-67.363
-68.2068
-68.9494
-70.1266
-71.1768
-71.859
-72.1386
-72.2631
-71.2009
-69.6097
-67.9974
-65.0176
-65.4436
-65.8354
-66.7079
-67.5372
-68.4736
-69.5872
-71.1744
-72.0896
-73.4095
-74.0306
-73.9289
-73.2259
-71.2936
-68.9813
-65.698
-65.9712
-66.4208
-66.9645
-67.8745
-69.0151
-70.3745
-72.0361
-73.0288
-74.6007
-75.1905
-75.178
-74.5185
-72.915
-70.7349
-68.2778
-66.4002
-66.6673
-67.088
-67.307
-68.1138
-69.2596
-70.9063
-72.9973
-74.3081
-75.1039
-75.2911
-75.7733
-75.232
-74.4579
-72.2278
-69.073
-67.0824
-67.4846
-67.7133
-67.5407
-67.6958
-68.5183
-69.6729
-71.4743
-73.2911
-74.6247
-74.7301
-75.1715
-75.8023
-76.1119
-75.4146
-73.7369
-70.441
-67.9584
-66.228
-68.5714
-68.5539
-68.2518
-68.3317
-69.0701
-70.2537
-71.9038
-73.6251
-74.2117
-74.3892
-74.7209
-75.3141
-75.2021
-74.9366
-73.4281
-70.422
-68.2708
-66.3667
-65.0573
-69.5726
-69.5534
-69.2538
-69.0175
-69.5871
-70.5128
-71.776
-73.1104
-73.6989
-73.6368
-74.012
-74.2694
-74.015
-73.4462
-71.9063
-70.0063
-67.6031
-66.3805
-65.3687
-64.8793
-70.3181
-70.3677
-70.2388
-69.9444
-70.3121
-71.1145
-72.0946
-73.2161
-73.0977
-72.9429
-72.903
-72.8758
-72.4088
-71.6839
-70.4788
-69.085
-67.5195
-66.291
-65.5267
-65.0602
-64.8254
-71.2086
-71.2877
-71.0959
-71.0153
-71.0949
-71.6279
-72.1346
-72.7952
-72.4705
-72.1642
-71.861
-71.5769
-71.1052
-70.3081
-69.4367
-68.3649
-67.1821
-66.1726
-65.6566
-65.2178
-65.2657
-65.6551
-72.2439
-72.1785
-71.8832
-71.6851
-72.0864
-72.0532
-72.4176
-72.4527
-71.8756
-71.3985
-70.8722
-70.4019
-69.7814
-69.0473
-68.737
-68.1707
-66.6677
-65.852
-65.5528
-65.4486
-65.8946
-66.796
-67.0683
-73.358
-73.183
-73.2052
-72.7942
-72.51
-72.4757
-72.4633
-71.9921
-71.4067
-70.7435
-70.2402
-69.5128
-68.9207
-68.1072
-67.8933
-67.5993
-66.5373
-65.8206
-65.4763
-65.8721
-66.6302
-67.4913
-67.6399
-66.9958
-62.275
-62.425
-62.5778
-62.3473
-62.464
-62.6071
-62.7977
-62.3398
-62.4343
-62.4998
-62.7027
-62.8809
-62.409
-62.5214
-62.5931
-62.7919
-62.9959
-63.2756
-62.4604
-62.5108
-62.7262
-62.8614
-63.0733
-63.3548
-63.6582
-62.5061
-62.65
-62.7647
-62.9214
-63.2147
-63.4652
-63.8458
-64.0712
-62.506
-62.7498
-62.9503
-63.1663
-63.4141
-63.8225
-64.0305
-64.3839
-64.6026
-62.5814
-62.9093
-63.1285
-63.3707
-63.6954
-64.0749
-64.4025
-64.5821
-64.8377
-65.0327
-62.7673
-62.9454
-63.3775
-63.7306
-64.0238
-64.2874
-64.7295
-65.0613
-65.3215
-65.5077
-65.5036
-62.7207
-63.1209
-63.5501
-64.0039
-64.5972
-64.8448
-65.2945
-65.5242
-65.8407
-65.9058
-66.1793
-65.9623
-63.0419
-63.5241
-63.8484
-64.4776
-65.202
-65.441
-65.9861
-66.353
-66.8355
-66.8634
-66.6277
-66.6894
-66.4401
-63.2813
-63.7777
-64.3374
-64.9191
-65.9081
-66.2742
-66.8465
-67.1095
-67.618
-67.728
-68.2649
-67.5082
-67.1681
-63.6648
-64.1808
-64.3958
-65.1395
-66.6459
-67.4745
-67.8592
-68.1179
-68.7748
-69.6057
-69.4896
-69.0098
-68.3057
-67.3038
-63.9028
-64.33
-64.8071
-65.7704
-67.2484
-68.2337
-68.3742
-69.1322
-70.1301
-70.7311
-71.0234
-70.7763
-69.7962
-68.7415
-67.3511
-64.3249
-64.7874
-65.3524
-66.0072
-67.0396
-67.9818
-68.6323
-69.9096
-71.1733
-71.838
-72.3028
-72.4778
-71.8426
-70.0555
-68.2902
-67.0441
-64.8606
-65.2748
-65.7894
-66.5381
-67.193
-68.1907
-69.3527
-70.7854
-72.7564
-73.2586
-74.1268
-74.0962
-73.5672
-71.8337
-69.5589
-67.6068
-65.5545
-65.8204
-66.3147
-66.8041
-67.7155
-68.6758
-69.964
-71.6982
-73.689
-74.2721
-75.0302
-75.2866
-74.802
-73.4984
-71.383
-68.7175
-67.0675
-66.2551
-66.3989
-66.9632
-67.1527
-67.7619
-68.8911
-70.611
-72.5841
-74.287
-74.7876
-75.1715
-75.7226
-75.5447
-74.944
-72.8077
-69.5419
-67.2431
-66.1019
-67.3564
-67.5528
-67.5401
-67.4823
-68.1858
-69.3677
-71.0485
-72.9202
-74.2993
-74.4885
-74.953
-75.663
-76.0947
-75.6329
-74.4331
-70.9173
-68.3519
-66.4455
-65.1943
-68.4724
-68.4358
-68.0868
-68.2258
-68.7312
-69.8469
-71.4738
-73.3532
-74.0362
-74.1305
-74.5278
-75.1193
-75.1536
-74.9651
-73.5441
-70.8181
-68.6996
-66.5907
-65.3021
-64.46
-69.5186
-69.4713
-69.2304
-68.9579
-69.3743
-70.2793
-71.3971
-72.7527
-73.3476
-73.3946
-73.827
-74.054
-73.9135
-73.478
-72.1534
-70.3279
-67.9947
-66.5849
-65.4992
-64.9135
-64.5438
-70.2358
-70.3182
-70.2273
-69.9268
-70.1441
-70.8604
-71.7992
-72.812
-72.9577
-72.7352
-72.7262
-72.7706
-72.3275
-71.69
-70.5775
-69.2241
-67.6869
-66.456
-65.5904
-65.0923
-64.8214
-65.0762
-71.2037
-71.2164
-71.0354
-70.9542
-70.9945
-71.4393
-71.8552
-72.5612
-72.2842
-72.0217
-71.7001
-71.4868
-71.04
-70.2909
-69.5191
-68.4261
-67.2567
-66.2067
-65.6838
-65.2057
-65.2645
-65.7002
-66.2758
-72.2823
-72.1822
-71.8406
-71.6108
-71.9855
-71.9285
-72.3259
-72.2501
-71.7548
-71.3105
-70.7939
-70.3515
-69.7447
-69.0425
-68.7353
-68.1533
-66.6939
-65.8893
-65.5737
-65.4484
-65.9441
-66.9303
-67.229
-67.0081
-73.1818
-73.1907
-72.7274
-72.4884
-72.4348
-72.3905
-71.9155
-71.3758
-70.6594
-70.1721
-69.5093
-68.8964
-68.1008
-67.8759
-67.5934
-66.5352
-65.8137
-65.4953
-65.8802
-66.7126
-67.5906
-67.7084
-66.9885
-66.4827
-62.2637
-62.369
-62.4952
-62.6766
-62.2486
-62.4394
-62.5466
-62.7507
-62.9112
-62.2233
-62.4081
-62.5327
-62.6474
-62.8806
-63.1699
-62.3655
-62.4286
-62.5517
-62.7396
-62.9373
-63.2369
-63.5652
-62.377
-62.5165
-62.619
-62.7545
-63.0165
-63.303
-63.6092
-63.9647
-62.3583
-62.5513
-62.7397
-62.9048
-63.1158
-63.4514
-63.7586
-64.0778
-64.3929
-62.4479
-62.6865
-62.8372
-63.1121
-63.3819
-63.6781
-64.0093
-64.2799
-64.5145
-64.7802
-62.5527
-62.7935
-63.0764
-63.3582
-63.6635
-63.8478
-64.3174
-64.5579
-64.859
-65.0072
-65.2338
-62.5677
-62.8717
-63.2053
-63.5958
-63.9438
-64.2273
-64.6764
-64.9944
-65.3465
-65.4092
-65.5262
-65.5716
-62.7031
-63.0329
-63.4997
-63.8927
-64.4362
-64.814
-65.1666
-65.5586
-65.8187
-66.059
-66.1936
-66.111
-65.8613
-62.9492
-63.3318
-63.7979
-64.2765
-64.9079
-65.422
-65.8941
-66.2925
-66.5569
-66.9712
-67.0034
-66.842
-66.6154
-65.9678
-63.2595
-63.5692
-63.9791
-64.7482
-65.526
-66.2461
-66.7085
-67.1678
-67.6485
-67.9389
-68.2485
-67.7561
-67.2985
-66.7504
-63.5093
-63.882
-63.9232
-64.9952
-66.5435
-67.3535
-67.7028
-68.1472
-68.5871
-69.3496
-69.7529
-69.3338
-68.629
-67.5689
-66.6687
-63.7989
-64.2022
-64.6033
-65.6723
-66.8773
-67.8514
-68.2275
-68.8928
-70.0408
-70.6814
-71.2641
-71.1491
-70.1082
-69.0844
-67.6384
-66.8022
-64.3706
-64.6706
-65.1546