/*--------------------------------*- C++ -*----------------------------------*\
  =========                 |
  \\      /  F ield         | OpenFOAM: The Open Source CFD Toolbox
   \\    /   O peration     | Website:  https://openfoam.org
    \\  /    A nd           | Version:  7
     \\/     M anipulation  |
\*---------------------------------------------------------------------------*/
FoamFile
{
    version     2.0;
    format      ascii;
    class       surfaceScalarField;
    location    "3";
    object      phi;
}
// * * * * * * * * * * * * * * * * * * * * * * * * * * * * * * * * * * * * * //

dimensions      [0 3 -1 0 0 0 0];

internalField   nonuniform List<scalar> 
54184
(
0.000192192
-0.00200057
-4.83591e-05
0.000369939
-0.00341664
-0.000137703
0.000196619
-0.00219354
-5.14536e-05
0.000205441
-0.00185744
-4.81629e-05
0.000440443
-0.00385587
-0.000304502
0.000349134
-0.00352808
-0.000179953
0.000396657
-0.00325825
-0.000162939
0.00016977
-0.00236043
-5.0409e-05
0.000212834
-0.00207193
-4.97884e-05
0.000257108
-0.000762101
-3.98458e-05
0.000627921
-0.00367156
-0.000347173
0.000408544
-0.00382065
-0.000326544
0.000548743
-0.00450931
-0.000269997
0.000290685
-0.00360785
-0.000220808
0.000379843
-0.00340824
-0.000196968
0.000450692
-0.00174731
-0.000160135
0.000161499
-0.00251973
-5.01462e-05
0.00019984
-0.00227489
-4.72949e-05
0.000274295
-0.00104702
-3.91688e-05
0.000275818
-8.10308e-05
-4.15741e-05
0.000862192
-0.00359925
0.000185882
0.000459893
-0.00340263
-0.000356705
0.000693448
-0.00455751
-0.000397774
0.000364767
-0.00383894
-0.000323906
0.000492496
-0.00464717
-0.000301342
0.000701903
-0.00321973
-0.000197236
0.000290425
-0.00369183
-0.000196074
0.000332607
-0.00355295
-0.000208867
0.000450113
-0.00193586
-0.000184235
0.000491342
-0.00047307
-0.000131009
0.000154437
-0.00267254
-5.11603e-05
0.000186878
-0.00246668
-4.52346e-05
0.000258692
-0.00131885
-3.41483e-05
0.000307474
-0.000383585
-4.40881e-05
0.000222319
0.00075014
-4.55873e-05
0.000960126
-0.00377454
0.000272393
0.000735025
-0.00354964
-6.15058e-05
0.000897555
-0.00470869
-0.000217108
0.000483776
-0.00327592
-0.000232722
0.000686731
-0.00463844
-0.000470005
0.000887966
-0.00391049
-0.00023294
0.000361223
-0.00383234
-0.000262433
0.000422064
-0.00477622
-0.000284314
0.000700428
-0.00353055
-0.000240842
0.000738078
-0.00110622
-0.000121503
0.000295313
-0.00378517
-0.000209227
0.000290757
-0.00363223
-0.000220672
0.000406485
-0.00211145
-0.000181069
0.000536049
-0.000726636
-0.000159244
0.000409473
0.000447699
-8.27653e-05
0.00014608
-0.00281764
-5.0913e-05
0.000172285
-0.00264738
-4.27406e-05
0.000242775
-0.00157668
-3.01881e-05
0.000305028
-0.000681993
-4.07685e-05
0.000244803
0.000511737
-5.04869e-05
0.000230009
0.00142372
-4.67605e-05
0.000921977
-0.00461315
0.000890868
0.000999385
-0.00372537
0.000315398
0.00109164
-0.00452401
2.27368e-05
0.000821771
-0.00348989
7.52921e-06
0.000872513
-0.00469868
-0.000257302
0.00100976
-0.00506932
-0.000287328
0.000468487
-0.00318614
-0.000166986
0.000642442
-0.00472313
-0.00036841
0.000940262
-0.00430568
-0.00031465
0.0010344
-0.00144622
-6.57871e-05
0.000371401
-0.00383065
-0.000198308
0.000373721
-0.00483437
-0.000287249
0.000612259
-0.00375394
-0.000266697
0.000746163
-0.00139988
-0.000157292
0.000654398
2.27094e-05
-0.000148409
0.000251744
-0.0038478
-0.000201982
0.000270504
-0.00372312
-0.000216558
0.000361479
-0.00226639
-0.000184433
0.000521755
-0.000963823
-0.000160609
0.000452932
0.000196893
-0.000116567
0.000450202
0.00128399
-8.47604e-05
0.000133495
-0.00295019
-4.95334e-05
0.000164667
-0.00282261
-4.03548e-05
0.000239116
-0.00183227
-2.62588e-05
0.000298828
-0.000973721
-3.72876e-05
0.00024615
0.000274711
-4.98931e-05
0.000256573
0.00116915
-5.24862e-05
0.000173616
0.0025316
-4.15011e-05
0.00113652
-0.00530719
0.00126882
0.000865895
-0.00442885
0.000990105
0.00128504
-0.0047185
0.000595375
0.00103375
-0.00355562
0.000311062
0.00104518
-0.00447016
8.88814e-05
0.00123585
-0.00517988
-5.55909e-05
0.000744263
-0.00358879
5.84363e-05
0.000862172
-0.00456184
-0.000349034
0.00106501
-0.00504893
-0.000402439
0.00104282
-0.0024474
-8.27654e-05
0.000454986
-0.00311677
-8.86005e-05
0.000499821
-0.0047165
-0.000299716
0.000842047
-0.00459536
-0.000308525
0.00104012
-0.00190226
-0.000152567
0.000981278
-0.000662596
1.05041e-06
0.000295925
-0.00380978
-0.000205744
0.000304599
-0.00476783
-0.000298938
0.000534543
-0.00392361
-0.000290645
0.000690445
-0.00162733
-0.000207943
0.000701877
-0.000257649
-0.000125879
0.000689073
0.000646311
-0.000172362
0.000206691
-0.00386482
-0.00022374
0.000251074
-0.00379423
-0.000217273
0.000338676
-0.00240511
-0.000177397
0.000503535
-0.00119173
-0.000161235
0.000453024
-3.24612e-05
-0.000138128
0.000512428
0.00102626
-0.000114693
0.000356084
0.00197882
-7.01011e-05
0.000119846
-0.00306898
-4.87787e-05
0.000143683
-0.0029775
-3.8328e-05
0.000231556
-0.00208213
-2.20599e-05
0.000293951
-0.00125789
-3.6036e-05
0.00025024
3.58115e-05
-4.86282e-05
0.000260945
0.000911427
-5.31143e-05
0.000205144
0.00232048
-4.6505e-05
7.78767e-05
0.00389272
-3.32322e-05
0.00148901
-0.00517897
0.001501
0.00096288
-0.00517475
0.00154526
0.00176865
-0.00528561
0.000814594
0.000971968
-0.0043215
0.00100362
0.00123662
-0.00465172
0.000731885
0.00151567
-0.00514933
0.000312629
0.000957695
-0.00365136
0.000597769
0.000955063
-0.00428571
3.37167e-05
0.00119391
-0.00524987
2.99641e-05
0.00110058
-0.00413417
0.000112423
0.000696093
-0.00354595
-4.17971e-05
0.000733289
-0.00447746
-0.000259409
0.000944778
-0.00512012
-0.000380567
0.00121831
-0.0028215
-0.000206528
0.00105219
-0.00114022
8.46286e-05
0.000424688
-0.00310755
-0.000114073
0.000457493
-0.00475102
-0.000206974
0.000763856
-0.00481706
-0.00030732
0.00094152
-0.00225413
-0.000207729
0.00107237
-0.00113783
-4.78319e-05
0.000937418
-0.000289818
3.7842e-05
0.000280644
-0.00381617
-0.000199495
0.000277275
-0.00471396
-0.000285819
0.00045574
-0.00402899
-0.000310622
0.000644489
-0.00180413
-0.000254798
0.000659686
-0.000516392
-0.000155861
0.000785165
0.000415817
-0.000168123
0.000493684
0.00116553
-0.000114333
0.000164569
-0.00386655
-0.000218835
0.000199809
-0.00385047
-0.000223625
0.000328204
-0.00252881
-0.00019022
0.000506133
-0.00142602
-0.000155289
0.000457735
-0.000246802
-0.000154388
0.000515223
0.00076283
-0.000128974
0.000412381
0.00174261
-8.57172e-05
0.000153225
0.00308514
-6.71427e-05
0.000107322
-0.00317595
-4.77919e-05
0.000133872
-0.00312404
-3.61051e-05
0.000224548
-0.00232689
-1.81156e-05
0.000285335
-0.00152945
-3.58438e-05
0.000258028
-0.000209444
-4.88089e-05
0.000266997
0.000649122
-5.33202e-05
0.000219009
0.00209238
-4.40311e-05
8.71816e-05
0.00379653
-3.7494e-05
-1.52614e-05
0.00313963
-2.58773e-05
0.00233351
-0.00499037
0.00223063
0.00184688
-0.0051564
0.0017773
0.00136455
-0.00530088
0.00174228
0.00224418
-0.005554
0.000865389
0.000986889
-0.00517348
0.00159015
0.0016063
-0.00514691
0.00103687
0.00189359
-0.00517901
0.000552067
0.000963753
-0.0043555
0.00103178
0.00104307
-0.00454624
0.000810134
0.00152205
-0.00513361
0.000388022
0.00109158
-0.00487953
0.000437617
0.000939151
-0.00360639
0.000493168
0.000969283
-0.00421319
0.000289257
0.00103006
-0.00516986
-0.000131574
0.00138318
-0.00442454
0.000155461
0.00107828
-0.00271805
0.000390169
0.000675997
-0.0035692
0.000127278
0.000663704
-0.00439151
-0.000333964
0.00101374
-0.00515784
-0.000471585
0.00116388
-0.00325151
-0.000172916
0.00112406
-0.00141941
2.0972e-05
0.000978045
-0.000831872
0.000143479
0.000463383
-0.00313872
-1.99484e-05
0.000412348
-0.00479107
-0.000209095
0.000694332
-0.00495491
-0.000307724
0.000870722
-0.00255373
-0.000233953
0.00102716
-0.00164314
-6.98808e-05
0.00101669
-0.000556124
-1.30526e-05
0.00069266
0.00109008
7.99543e-05
0.000234487
-0.00382173
-0.000215364
0.000238447
-0.00465052
-0.000301571
0.000380917
-0.00406568
-0.000301841
0.000666896
-0.00198907
-0.000286441
0.000627079
-0.000728245
-0.000212289
0.000766763
0.000197324
-0.000188907
0.000578713
0.000983293
-0.000152214
0.000247068
0.00227506
-0.000120283
0.000169475
-0.00388705
-0.000220226
0.00018544
-0.00391087
-0.000210007
0.000317532
-0.00265749
-0.000187936
0.000512453
-0.00168378
-0.000159576
0.000482451
-0.000467939
-0.000158574
0.000510512
0.000497066
-0.000132139
0.000437856
0.00148696
-9.21726e-05
0.000192917
0.00296795
-7.42672e-05
1.82593e-05
0.00264888
-7.8313e-05
9.62349e-05
-0.00327216
-4.71042e-05
0.000118049
-0.00325559
-3.42905e-05
0.000223741
-0.00257277
-1.39661e-05
0.000280129
-0.00179233
-3.53612e-05
0.000262893
-0.000458072
-5.01088e-05
0.000274414
0.000378717
-5.28186e-05
0.000231793
0.00185162
-4.43538e-05
0.000106371
0.00368084
-3.47154e-05
-1.3453e-06
0.00313209
-2.86126e-05
-5.41159e-05
0.00311915
-2.72249e-05
0.00226857
-0.00526231
0.00318607
0.00221809
-0.00511341
0.00233115
0.00277087
-0.00530671
0.00255243
0.00174983
-0.00514534
0.00201223
0.00269038
-0.00578088
0.00143645
0.00128872
-0.00525268
0.0017234
0.00217599
-0.0055211
0.0011397
0.00213603
-0.00547398
0.000882215
0.000983885
-0.00516171
0.00153082
0.00140866
-0.00517168
0.00124934
0.00196497
-0.00517307
0.000588015
0.000935536
-0.00479844
0.000638027
0.000960646
-0.00443622
0.00101687
0.00092996
-0.00419299
0.000717843
0.00125934
-0.00496634
0.000413573
0.00152754
-0.00487556
0.0002397
0.000892827
-0.00397838
0.000659696
0.00102523
-0.00377182
0.000686956
0.000846273
-0.00411667
0.00021408
0.00150183
-0.00525095
-0.000117734
0.00142215
-0.00472221
-9.21746e-05
0.00127627
-0.00308085
0.000366037
0.000943111
-0.00156016
0.000442004
0.000690365
-0.00356646
0.000281221
0.000671305
-0.00431048
-0.000212705
0.000848856
-0.00511394
-0.000532384
0.00100857
-0.00361785
-0.00024309
0.0011418
-0.00170761
6.34432e-07
0.00113457
-0.000994909
6.61273e-05
0.000863074
5.00432e-05
0.000143366
0.00049002
-0.00320253
-1.23179e-05
0.00033834
-0.00468551
-0.000225404
0.000581847
-0.00501162
-0.000353307
0.000897562
-0.00285487
-0.000237249
0.000922422
-0.00207835
-9.40944e-05
0.000957009
-0.000801985
-1.42666e-05
0.000849336
0.000823032
-1.66285e-05
0.000491947
0.00147419
9.72955e-06
0.000275954
-0.00384337
-0.00018898
0.000253939
-0.00464422
-0.000290168
0.000332402
-0.00407936
-0.00030276
0.000721263
-0.00221266
-0.000287071
0.000611722
-0.000902993
-0.000240964
0.000744777
-1.61956e-05
-0.000233035
0.000634269
0.000776142
-0.000178169
0.000313362
0.00215552
-0.000153119
0.000118591
0.00241914
-0.000143824
0.000151382
-0.00389395
-0.000230343
0.000153187
-0.00395509
-0.000211147
0.000315803
-0.00279211
-0.000167447
0.000500324
-0.00192794
-0.000163973
0.00049956
-0.000701977
-0.000162204
0.0005211
0.000231906
-0.0001401
0.000465331
0.00120862
-8.73317e-05
0.000206439
0.00287833
-0.000102613
6.52569e-05
0.00258871
-8.06999e-05
-6.22422e-05
0.00251213
-7.92614e-05
8.17287e-05
-0.00335328
-4.68172e-05
0.00010714
-0.00337719
-3.2647e-05
0.000217752
-0.00281483
-9.98297e-06
0.000273368
-0.00204619
-3.34745e-05
0.000263084
-0.00070543
-5.10867e-05
0.00028254
9.82509e-05
-5.21831e-05
0.000239969
0.00160299
-4.41485e-05
0.000124233
0.00354647
-3.42187e-05
6.59577e-06
0.00311972
-2.89421e-05
-5.35179e-05
0.00317454
-3.04812e-05
-5.93602e-05
0.00282079
-4.01495e-05
0.00173964
-0.00505407
0.00383393
0.00228884
-0.00557655
0.00309628
0.00218394
-0.00503214
0.00376594
0.00197762
-0.00515293
0.00258846
0.00259241
-0.00538003
0.00250244
0.00128328
-0.00511332
0.00317608
0.0016801
-0.0052182
0.00196237
0.0027454
-0.00595684
0.00161878
0.00210698
-0.00550039
0.00173694
0.00127307
-0.0053298
0.00186812
0.00195729
-0.00543104
0.00108471
0.00217015
-0.00542026
0.000880798
0.000822336
-0.00434937
0.00118461
0.00110526
-0.00524277
0.00136606
0.00122964
-0.00514969
0.00120915
0.00176186
-0.00516586
0.000739609
0.00140959
-0.00487814
0.000785664
0.000606817
-0.00490036
0.000726917
0.00114401
-0.00447762
0.000901633
0.000925595
-0.0041989
0.000943455
0.00178732
-0.00476257
0.00022859
0.00159081
-0.00491849
0.000287855
0.00104939
-0.00388883
0.000377033
0.00101298
-0.0031314
0.000661499
0.00112943
-0.00411322
0.0007451
0.000875583
-0.00400281
0.000368822
0.000894468
-0.00508481
2.32967e-06
0.00130665
-0.00505319
-8.48407e-05
0.00110769
-0.0033582
0.000219299
0.0012177
-0.00171329
0.000436045
0.00108392
-0.000929484
0.000366274
0.000683324
-0.00368471
0.000370991
0.000598528
-0.00423856
-5.08905e-05
0.000857728
-0.00505984
-0.000542687
0.000994722
-0.00391376
-0.000333636
0.00109601
-0.00209696
-2.73184e-05
0.00115871
-0.00124549
4.95154e-05
0.00107523
-0.000176431
6.67116e-05
0.000709934
0.0002865
0.00010275
0.000478162
-0.00326502
2.19294e-05
0.000335747
-0.00452511
-0.000254529
0.00050764
-0.00500829
-0.000403976
0.000886394
-0.00308594
-0.000287367
0.000785872
-0.00238517
-0.000104578
0.000877215
-0.000969137
-5.93812e-05
0.000947471
0.000524702
-2.9138e-05
0.000600739
0.00125677
-8.65783e-05
0.00024945
0.00207301
-6.94794e-05
0.000273946
-0.00389095
-0.000189747
0.000196402
-0.00456933
-0.000307086
0.000290472
-0.0040358
-0.000308394
0.000694273
-0.00243349
-0.000275872
0.000612975
-0.00106324
-0.000240241
0.000727947
-0.000221818
-0.000242188
0.000678439
0.000527252
-0.000197254
0.000320775
0.00202236
-0.000159349
0.000191
0.0023114
-0.000171125
-4.3212e-05
0.00226308
-0.000119586
0.000130707
-0.00389561
-0.000236795
0.00013212
-0.00398816
-0.000222251
0.000318674
-0.00293773
-0.00016645
0.000479574
-0.00215478
-0.000146815
0.000496953
-0.000932626
-0.000167193
0.000550407
-4.77089e-05
-0.000150456
0.000488489
0.000913456
-9.34605e-05
0.000235587
0.00276235
-8.27097e-05
1.61625e-05
0.00258647
-0.000109946
-6.7429e-05
0.00252983
-8.4487e-05
-7.76637e-05
0.00274836
-0.000107085
6.44356e-05
-0.00341667
-4.59928e-05
9.66252e-05
-0.00349167
-2.89676e-05
0.000205829
-0.00304468
-8.62152e-06
0.000256104
-0.00228312
-2.91564e-05
0.000260781
-0.000947609
-5.20764e-05
0.000288972
-0.000190864
-5.09446e-05
0.000242583
0.00135233
-4.41105e-05
0.000141347
0.00339524
-3.42627e-05
3.79178e-05
0.00307669
-2.91073e-05
-3.10499e-05
0.00320692
-3.0275e-05
-5.16907e-05
0.002887
-4.50039e-05
-5.72874e-05
0.00277712
-5.0924e-05
0.000733036
-0.00530338
0.00468428
0.00109597
-0.00534788
0.00420792
0.00203096
-0.00515748
0.00363657
0.00160667
-0.00527419
0.00429753
0.00162879
-0.00552493
0.00356279
0.00226793
-0.00516342
0.00355205
0.00101244
-0.00523703
0.00411726
0.00178438
-0.00518859
0.00256423
0.00281974
-0.00542462
0.0025587
0.00178695
-0.00518355
0.00289271
0.0004607
-0.0048794
0.00343661
0.00162077
-0.00528545
0.00190558
0.00249382
-0.00559873
0.00106773
0.00247526
-0.00581298
0.00162626
0.000744474
-0.00457215
0.00214719
0.00125205
-0.00536656
0.00192873
0.00174718
-0.00531646
0.001236
0.00231946
-0.00560305
0.000709894
0.00130734
-0.00458456
0.00121825
0.000409601
-0.00430741
0.00134338
0.00118395
-0.00523643
0.00135689
0.00107501
-0.00512947
0.00119642
0.00194743
-0.00488656
0.000769743
0.0016371
-0.00490913
0.000724301
0.000472685
-0.00456233
0.00102434
0.00077776
-0.00470653
0.000916155
0.00133553
-0.00468837
0.0010708
0.000926155
-0.00418553
0.0008377
0.00123711
-0.0046624
0.000500639
0.00159813
-0.00507148
9.01009e-05
0.00133056
-0.00416598
0.000342136
0.00109202
-0.0031646
0.000535911
0.00110481
-0.00197617
0.000716341
0.00107731
-0.00450756
0.000831455
0.000861197
-0.0040604
0.000540012
0.000974287
-0.00490632
7.37678e-05
0.00121853
-0.00509846
-0.000176204
0.00116239
-0.00356521
5.57843e-05
0.00129144
-0.00194277
0.000316045
0.00126186
-0.00110896
0.000428889
0.000738353
-0.000556858
0.000419828
0.000705826
-0.00379675
0.000414105
0.000519193
-0.00409717
4.61555e-05
0.000737763
-0.00495634
-0.000384511
0.000996469
-0.0041081
-0.000458419
0.00104238
-0.00260445
-8.26538e-05
0.00113527
-0.0015092
-2.1663e-05
0.00120514
-0.000467263
8.26794e-05
0.000832632
3.50582e-05
8.62606e-05
0.000279673
0.000920868
4.29125e-05
0.000479115
-0.00336514
4.31259e-05
0.000265191
-0.00433488
-0.000237089
0.00042607
-0.00498487
-0.000413552
0.00080279
-0.00321866
-0.000379778
0.00073048
-0.00264054
-0.000149496
0.000812556
-0.00108904
-6.92797e-05
0.00102973
0.000138254
-2.42207e-05
0.000617404
0.000981154
-5.01534e-05
0.000369117
0.0019456
-0.000137286
3.53887e-05
0.00178732
-1.97782e-05
0.000283965
-0.00396267
-0.000178101
0.000185055
-0.00450912
-0.000302888
0.000358293
-0.00406936
-0.000313146
0.000631434
-0.00263329
-0.000260453
0.000639958
-0.00125429
-0.000227825
0.000759485
-0.000415633
-0.000255504
0.0007214
0.000258131
-0.000205978
0.000359429
0.00186698
-0.000165708
0.000148718
0.00219938
-0.000179883
-1.16138e-05
0.00217584
-0.0001397
-7.56239e-05
0.00307426
-0.000137737
0.000114432
-0.00390187
-0.000237543
0.000114847
-0.00401446
-0.000228711
0.000288993
-0.00306836
-0.000174787
0.000410556
-0.00233318
-0.0001425
0.000479906
-0.00113083
-0.000167736
0.00057551
-0.000343694
-0.000157746
0.000499616
0.000608241
-0.000102274
0.000269118
0.00263936
-9.82451e-05
0.00012333
0.00250576
-8.74092e-05
-1.21619e-05
0.0024948
-9.37989e-05
-5.37764e-05
0.00278594
-0.000119982
-7.80431e-05
0.00315093
-0.000129309
4.95437e-05
-0.00346692
-4.53817e-05
8.34364e-05
-0.00358818
-3.2915e-05
0.000191873
-0.00326015
-5.37472e-06
0.000241343
-0.00250588
-2.72022e-05
0.000256536
-0.0011829
-5.03995e-05
0.000287716
-0.000479251
-5.14053e-05
0.000242205
0.00110265
-4.34731e-05
0.00015765
0.00322763
-3.41495e-05
4.84752e-05
0.00302315
-2.91974e-05
-2.43229e-05
0.0032323
-3.0161e-05
-3.30674e-05
0.00293574
-4.59434e-05
-5.18176e-05
0.00284057
-5.66376e-05
-8.90402e-05
0.00232393
-4.28954e-05
0.000479898
-0.00490728
0.00490532
0.000642107
-0.00513365
0.00458408
0.000887211
-0.00547995
0.0049545
0.00157169
-0.00514264
0.00402576
0.00108622
-0.00574263
0.0046518
0.00128954
-0.00507118
0.00401207
0.00187549
-0.00526763
0.00402245
0.000871112
-0.00556625
0.00448635
0.0013912
-0.00546515
0.0035259
0.00271677
-0.00522676
0.0037291
0.00177345
-0.00549685
0.00382536
0.000608273
-0.00528558
0.00412649
0.00157719
-0.00504437
0.0025683
0.00250157
-0.00531987
0.00245173
0.0025849
-0.00540455
0.00267006
0.000824726
-0.00514651
0.00307956
-0.00030792
-0.00478511
0.00357051
0.00134499
-0.00523342
0.00212143
0.00233246
-0.00566573
0.00138728
0.00270419
-0.00571847
0.000588492
0.00145305
-0.00483873
0.00174713
9.48422e-05
-0.00373408
0.00239513
0.00128422
-0.00546122
0.00200109
0.00150316
-0.00520632
0.00139044
0.00202533
-0.00523559
0.000790633
0.00190115
-0.0049468
0.00080808
0.00061422
-0.00468114
0.00145045
0.000370457
-0.00504032
0.00159517
0.00131991
-0.00522955
0.00129731
0.000953361
-0.00500479
0.001205
0.00160771
-0.00495919
0.000898452
0.0017892
-0.00505228
0.000721814
0.00137861
-0.00468146
0.000795374
0.000721244
-0.00431577
0.00100436
0.000972123
-0.00381043
0.000996912
0.0014607
-0.00498842
0.00109755
0.00103017
-0.00437235
0.00108865
0.00119517
-0.00462776
0.000582174
0.00150855
-0.00494765
8.67843e-05
0.00145297
-0.00456544
0.000198982
0.00125663
-0.00324475
0.000457091
0.00135902
-0.00218867
0.000651247
0.000836865
-0.00163314
0.000852199
0.00105661
-0.00480937
0.000815986
0.000810256
-0.00396017
0.00044017
0.000929455
-0.00464745
8.94559e-05
0.00117803
-0.00502193
-0.000184332
0.00133778
-0.00389554
-0.000141265
0.00128691
-0.00225358
0.000214954
0.00135723
-0.00133045
0.000385445
0.000976735
-0.000731339
0.000459267
0.000294348
9.27712e-05
0.00044469
0.000687249
-0.00391459
0.000426815
0.000458195
-0.00402881
0.000152737
0.0006488
-0.00485674
-0.000276176
0.00109349
-0.00437631
-0.000406996
0.000973764
-0.00308263
-0.000223525
0.00109263
-0.00182111
-5.0814e-05
0.0012674
-0.000768597
4.19939e-05
0.000878101
-0.000271149
0.000128189
0.000434748
0.00091019
3.13073e-05
0.000140571
0.000880429
-1.42553e-05
0.000576747
-0.00358963
6.03648e-05
0.000291569
-0.0042012
-0.000197058
0.000458414
-0.00494048
-0.000381601
0.000805994
-0.00341529
-0.000391483
0.00074974
-0.00284792
-0.000282183
0.000779111
-0.00115895
-9.92156e-05
0.00104494
-0.000269336
1.47741e-05
0.000586453
0.000769115
-3.92062e-05
0.000413415
0.00174826
-0.000117515
9.34418e-05
0.00162286
-7.78841e-05
-6.16538e-05
0.00277288
-6.87191e-05
0.000263143
-0.00400935
-0.000211703
0.000175831
-0.00444619
-0.000302013
0.000240161
-0.00401472
-0.000308696
0.000540461
-0.00282246
-0.000253887
0.000677248
-0.00148263
-0.000229455
0.000820815
-0.000618472
-0.00027029
0.000742713
6.93754e-06
-0.000247407
0.000407674
0.00170877
-0.000186323
0.000229982
0.00210889
-0.000181867
3.92093e-05
0.00210724
-0.000162658
-3.43206e-07
0.00305328
-0.000172149
-0.000138584
0.00334163
-0.000102425
9.60554e-05
-0.00390794
-0.000237322
0.00013484
-0.00407081
-0.000232594
0.000259927
-0.00318372
-0.000181403
0.000353278
-0.00247703
-0.000142873
0.000463393
-0.00131412
-0.000166064
0.000582912
-0.000647717
-0.000158909
0.000507699
0.000290824
-0.000105823
0.000286973
0.00249815
-9.03854e-05
0.000120554
0.0024424
-0.000106963
1.30785e-05
0.00246212
-9.21303e-05
-3.51421e-06
0.00279026
-0.000127668
-4.89923e-05
0.00317926
-0.000151133
-0.000259142
0.00204406
-0.000109781
3.66701e-05
-0.00350379
-4.52934e-05
7.53872e-05
-0.00367918
-2.97718e-05
0.000174359
-0.00345746
-9.96006e-06
0.000230002
-0.00271473
-2.65249e-05
0.000250334
-0.00141239
-4.8044e-05
0.000285867
-0.000763292
-5.22259e-05
0.000243767
0.000850265
-4.27839e-05
0.000176964
0.00304209
-3.48995e-05
6.91214e-05
0.00294909
-2.92032e-05
-9.48788e-06
0.0032427
-3.01125e-05
-1.82975e-05
0.00296977
-4.58921e-05
-3.5102e-05
0.0028874
-5.7671e-05
-8.35415e-05
0.00239908
-4.82519e-05
-0.00017055
0.00155786
-3.18913e-05
0.000545204
-0.0049526
0.00477478
0.000532471
-0.00501325
0.00481893
0.000869924
-0.00484494
0.00505412
0.00108733
-0.00491801
0.0044615
0.000869374
-0.00565484
0.00497582
0.000993508
-0.0052088
0.00502572
0.000937544
-0.00487829
0.00424039
0.00137594
-0.00563692
0.0044196
0.000735924
-0.00572113
0.00475674
0.00126444
-0.00520628
0.00397994
0.00258954
-0.00539808
0.00426975
0.00146821
-0.00550081
0.00426225
0.00074588
-0.00580697
0.00446898
0.00142696
-0.00571544
0.00355165
0.00237292
-0.00514096
0.00356875
0.00216367
-0.00534315
0.00399663
0.000891879
-0.00549346
0.00396609
-5.96156e-05
-0.00541577
0.0041279
0.00114283
-0.00490232
0.00278291
0.00237665
-0.00521551
0.00241974
0.00269925
-0.00530178
0.0023539
0.00107478
-0.00499477
0.00289659
-0.000360843
-0.00455846
0.0033086
-0.000265891
-0.0048465
0.0036961
0.00141777
-0.00546194
0.00248512
0.00197588
-0.00550041
0.00148341
0.0022025
-0.00546909
0.000960739
0.00187765
-0.00513138
0.000904648
0.000835135
-0.0042288
0.00202094
0.000221234
-0.00419849
0.00232929
0.00148392
-0.00567338
0.00190367
0.00136804
-0.00514065
0.00152075
0.00189327
-0.00509661
0.000965904
0.00184349
-0.00503228
0.000821823
0.00132621
-0.00491464
0.00109398
0.000605158
-0.00511621
0.00164243
0.00080601
-0.00515877
0.00164257
0.00160029
-0.00530593
0.00132074
0.00108601
-0.00500094
0.00123762
0.00139679
-0.00495437
0.000998571
0.00179541
-0.00509055
0.000649872
0.00169411
-0.0049325
0.000731712
0.00122077
-0.00433101
0.000846484
0.00128214
-0.00372428
0.000995087
0.000822662
-0.00332684
0.00115805
0.00148268
-0.00521516
0.00106791
0.00104161
-0.00459005
0.00108389
0.00111014
-0.00458427
0.000864475
0.00150828
-0.00489934
0.000203617
0.00161287
-0.00480948
5.57282e-05
0.0013337
-0.00359126
0.000498713
0.00152707
-0.00250783
0.000606416
0.00110631
-0.00195031
0.000838837
0.000339619
-0.00104026
0.000768325
0.00113149
-0.0051853
0.000842899
0.000841057
-0.00412507
0.000598016
0.000913185
-0.00449585
2.41757e-05
0.00140979
-0.00490115
-0.000347634
0.00129309
-0.00416111
-0.0002381
0.0013152
-0.00279336
0.000175944
0.00136201
-0.00158239
0.000372279
0.00110169
-0.00104127
0.000471791
0.000478819
8.89833e-05
0.000418984
0.000217605
0.000111724
0.000360363
0.000740106
-0.00406897
0.000388627
0.000407926
-0.00393869
0.000220345
0.000580283
-0.00460212
-0.000223751
0.000859975
-0.00438151
-0.000324955
0.000975179
-0.00356738
-0.000147682
0.00101452
-0.00223112
-4.89261e-05
0.00125356
-0.00107079
4.27616e-05
0.000816936
-0.00057398
0.000114343
0.000523258
0.000873727
5.48087e-05
0.000219664
0.000830236
-4.47222e-05
-3.2158e-05
0.00160733
-8.71701e-05
0.000567623
-0.00381482
-1.29336e-05
0.000318057
-0.00413732
-0.000145744
0.00030312
-0.00486402
-0.000336476
0.000713552
-0.00363462
-0.000335363
0.000803484
-0.00306171
-0.00030393
0.00083941
-0.00125861
-0.000201117
0.0010161
-0.000619866
-2.20719e-05
0.00062573
0.000605396
-3.9562e-05
0.0004527
0.00161482
-0.000128487
0.000167309
0.00149852
-0.000121271
6.00931e-05
0.00274434
-0.000109787
-0.000235038
0.00303098
-8.10949e-05
0.00026444
-0.00409219
-0.000204564
0.000214621
-0.00437526
-0.000362419
0.000193218
-0.00393474
-0.000315287
0.000448406
-0.00296972
-0.000256558
0.00068317
-0.00172124
-0.000235059
0.000879939
-0.000871671
-0.000273283
0.00077305
-0.000238379
-0.000290324
0.000445371
0.00151239
-0.00020943
0.000233432
0.00199705
-0.000187363
0.000131683
0.00198458
-0.000177808
7.14434e-05
0.00299174
-0.000176079
-0.000108403
0.00341273
-0.000183838
-0.000359992
0.00292631
-9.38784e-05
6.48823e-05
-0.00389553
-0.000239908
6.29368e-05
-0.0040589
-0.000236782
0.000237481
-0.00329324
-0.000186193
0.000313343
-0.00260138
-0.000140388
0.000461726
-0.00149877
-0.000169614
0.000588863
-0.00095576
-0.000161017
0.000532683
-5.22549e-05
-0.000104747
0.000297628
0.00236409
-9.24295e-05
0.000149053
0.00237431
-0.000102229
5.44171e-05
0.00238934
-9.80901e-05
3.50259e-05
0.0027788
-0.000133999
-1.5375e-05
0.00318361
-0.000151741
-0.000230471
0.00218224
-0.000142383
-0.000397029
0.00137623
-0.000106402
2.33692e-05
-0.00352636
-4.63576e-05
6.20963e-05
-0.00375619
-3.03801e-05
0.000161447
-0.0036396
-9.07512e-06
0.000219922
-0.00291822
-2.63955e-05
0.000244207
-0.00163649
-4.66335e-05
0.00028474
-0.00104452
-5.15548e-05
0.000245008
0.000594915
-4.18832e-05
0.000190275
0.00284249
-3.34575e-05
8.25344e-05
0.00286194
-3.02917e-05
3.59622e-06
0.00323972
-2.98134e-05
-3.42323e-06
0.00298879
-4.57117e-05
-1.63642e-05
0.00291551
-5.76359e-05
-7.0691e-05
0.00246057
-4.84681e-05
-0.000170304
0.00171622
-3.63024e-05
-0.000145667
0.00167605
-3.00947e-05
0.000187145
-0.00484642
0.00461969
0.000579957
-0.0051903
0.00472841
0.000747302
-0.00481725
0.00500186
0.000880448
-0.00498023
0.00473193
0.000891744
-0.00501774
0.00496935
0.000975124
-0.0050284
0.0051413
0.000874789
-0.00495671
0.00465936
0.00106366
-0.00568697
0.0048059
0.000856885
-0.00540562
0.00505168
0.000652811
-0.00529809
0.00504452
0.00120373
-0.00477969
0.00412007
0.00202831
-0.00553171
0.00469642
0.000968681
-0.00549507
0.00469307
0.00062584
-0.00561466
0.00485208
0.00134579
-0.00529412
0.00366622
0.00254016
-0.00562083
0.00403545
0.00171947
-0.00551554
0.00472869
0.000938689
-0.00595932
0.00436779
0.00018883
-0.00568241
0.00444171
0.00101279
-0.00550276
0.00317288
0.0024918
-0.00500656
0.00330211
0.00261998
-0.00519921
0.00350408
0.000981744
-0.00524963
0.00384584
-0.000156908
-0.00574126
0.00408765
-0.000409886
-0.00584134
0.0042906
0.00143728
-0.00512282
0.00282596
0.00254482
-0.00531078
0.00230923
0.00298944
-0.00575287
0.00208389
0.00189096
-0.00477908
0.00212491
0.00166426
-0.00523562
0.00274462
-6.26581e-07
-0.00455296
0.00323692
9.43554e-05
-0.00496351
0.00366897
0.00138149
-0.0055898
0.0024877
0.00184866
-0.00540975
0.00191383
0.00230232
-0.00528673
0.000892003
0.00176697
-0.00484775
0.000753624
0.00144114
-0.0047997
0.00136061
0.000885487
-0.00463807
0.00218019
0.000674086
-0.00517804
0.00222667
0.00162187
-0.0057479
0.00176008
0.00133602
-0.00508983
0.00160283
0.00162508
-0.00494086
0.0011367
0.00195065
-0.00514489
0.000923273
0.00184131
-0.00522231
0.000982289
0.00110556
-0.00540621
0.00149919
0.0010833
-0.00498956
0.00167206
0.00053601
-0.00471349
0.00185305
0.00187406
-0.00569316
0.00141164
0.00109251
-0.00496536
0.00123427
0.00124567
-0.00501258
0.0011603
0.00166944
-0.00501863
0.000765497
0.00183504
-0.004988
0.000483214
0.00154208
-0.00462689
0.000819204
0.00139359
-0.0036534
0.00090909
0.00112744
-0.003489
0.00113612
0.000296736
-0.0025211
0.00126858
0.00154935
-0.00563564
0.00108807
0.00112658
-0.00478544
0.000977783
0.00105387
-0.00459479
0.00095373
0.00153546
-0.00462286
0.000462325
0.00156587
-0.00488098
2.32846e-06
0.00149971
-0.00413189
0.000411846
0.00145036
-0.00270196
0.000604486
0.00118272
-0.0021382
0.000713275
0.000555159
-0.00105472
0.000776952
7.06684e-05
-0.000824261
0.000657859
0.00105636
-0.00547118
0.000858237
0.000809822
-0.00429854
0.000614477
0.000890716
-0.00437932
0.000171061
0.000965166
-0.00480434
-0.000177821
0.00123925
-0.00449807
-0.000274746
0.00131654
-0.00348107
0.000147586
0.00134446
-0.00186637
0.000369025
0.00116243
-0.00138878
0.000374295
0.000566578
0.000104683
0.000412771
0.000146394
0.000262925
0.000341054
-0.000202297
-0.000200378
0.000184206
0.000770984
-0.00416245
0.000324304
0.000376088
-0.00385866
0.000250568
0.00055423
-0.00451902
-0.000113864
0.000973138
-0.0045197
-0.000345151
0.000900926
-0.00377966
-0.000210123
0.00104515
-0.00259692
1.23736e-05
0.00118642
-0.00137202
8.19838e-05
0.000805241
-0.000767417
5.66872e-05
0.000704063
0.000698192
3.85147e-05
0.00029804
0.000839633
-8.53189e-05
5.13908e-05
0.00167172
-0.000100405
-0.000289543
0.00167478
-0.000121571
0.000549253
-0.00397332
-7.7393e-05
0.00030351
-0.00403827
-0.000200875
0.000244783
-0.0047249
-0.000336425
0.000642044
-0.00381931
-0.000345424
0.00087621
-0.00325185
-0.000338261
0.00102898
-0.00143527
-0.000276318
0.000985941
-0.000933521
-0.000100353
0.000725277
0.000385013
-8.15956e-05
0.000480563
0.00151234
-0.000184209
0.000253956
0.00139307
-0.000145313
0.000143099
0.00270174
-0.00015032
-0.000212233
0.00315298
-0.000127954
-0.000443498
0.00286154
-5.6846e-05
0.000207528
-0.00415256
-0.00024062
7.04748e-05
-0.00428661
-0.000300746
0.000183186
-0.00388793
-0.000354931
0.000357787
-0.00306973
-0.000259724
0.000687399
-0.00197051
-0.00023296
0.000900519
-0.00116297
-0.000255421
0.000829592
-0.00055362
-0.000254952
0.000457831
0.00129747
-0.000235609
0.000255079
0.00186685
-0.000185258
0.000169144
0.00186689
-0.0001844
0.000105689
0.00294057
-0.000197294
-1.3118e-05