/*--------------------------------*- C++ -*----------------------------------*\
  =========                 |
  \\      /  F ield         | OpenFOAM: The Open Source CFD Toolbox
   \\    /   O peration     | Website:  https://openfoam.org
    \\  /    A nd           | Version:  7
     \\/     M anipulation  |
\*---------------------------------------------------------------------------*/
FoamFile
{
    version     2.0;
    format      ascii;
    class       volScalarField;
    location    "5";
    object      nut;
}
// * * * * * * * * * * * * * * * * * * * * * * * * * * * * * * * * * * * * * //

dimensions      [0 2 -1 0 0 0 0];

internalField   nonuniform List<scalar> 
18720
(
0.000376655
0.000299773
0.000337261
0.000277041
0.000134719
0.000345278
0.000387689
0.000328441
0.000391882
0.000197843
0.000551266
0.000158473
0.000115687
0.000679786
0.000528912
0.000375193
0.000344206
0.000384541
0.000442623
0.000175903
0.00045991
0.00020712
0.000842792
0.000243252
0.000184758
0.000229865
0.000373815
0.000663873
0.000788597
0.000604311
0.000275821
0.000347392
0.000558105
0.000294962
0.000679049
0.000291642
0.000367196
0.000747716
0.000860967
0.000415514
0.0006163
0.00016205
0.000439514
0.000321177
0.000451359
0.000609021
0.000559104
0.000587533
0.000542363
0.000544872
0.000736968
0.00065054
0.000684213
0.000234103
0.000215087
0.000417012
0.000311493
0.000419703
0.000666724
0.000510663
0.000266056
0.000680113
0.000498451
0.000687943
0.000340447
0.000445912
5.47496e-05
0.000179068
0.000752032
0.000523995
0.00031935
0.00067066
0.000983048
0.000518253
0.000432964
0.000562811
0.00049523
0.000521269
0.000512024
0.000745147
0.000747301
0.000527227
0.000785494
0.00068217
0.000639727
0.000322625
0.000590769
0.000429359
0.000282515
0.00145257
0.000401006
0.000358281
0.000232149
0.000174727
0.000783317
0.00128189
0.000351385
0.000158688
0.000374662
4.20149e-05
0.000247415
0.000557835
0.000478757
0.000295991
9.6517e-05
0.000705183
0.00036497
0.000775047
0.000986241
0.000546193
0.000737202
0.00051557
0.000466849
0.000571089
0.000390139
0.000432837
0.0006773
0.000686285
0.000658706
0.000816527
0.000891861
0.00058764
0.000776
0.00101072
0.00114117
0.000207174
0.000744338
0.000444385
0.000327627
0.00093042
0.00014252
0.000254208
0.00025197
0.000403645
0.000720276
0.000738893
0.00122957
0.000606132
0.000296765
0.000123625
0.000317351
8.59079e-05
0.000459427
0.000545816
0.000516
0.000256896
9.56626e-05
0.000791979
0.00065461
0.000501215
0.000926755
0.000562713
0.00064188
0.000915873
0.000589557
0.000418356
0.000536932
0.000547517
0.000644981
0.000461116
0.000622871
0.000620158
0.000501142
0.000368049
0.000734814
0.000730813
0.00044535
0.00138383
0.000743621
0.000758678
0.0007175
0.000639119
0.000670776
0.00082101
0.000259539
0.000245876
0.00031272
0.000336802
0.000288525
0.000773921
0.000213257
0.000455958
0.000297173
0.000188264
0.00037216
0.000505953
0.000533157
0.00132695
0.000186035
0.000303693
0.000278053
0.000250947
0.000223523
0.000105711
0.000292407
0.000798765
0.000667453
0.000342553
0.00015607
0.000142692
0.000128609
0.000418225
0.000711971
0.000417827
0.000497801
0.000622379
0.00061927
0.000505189
0.000450405
0.000485866
0.00035933
0.000515642
0.000510411
0.000506475
0.000670038
0.000575691
0.000615938
0.00054348
0.000632342
0.000364236
0.000288201
0.000433784
0.000571605
0.000650697
0.000500074
0.000591975
0.000748489
0.00106252
0.000677271
0.000455286
0.00058789
0.000705155
0.000667353
0.000712715
0.000947067
0.000804172
0.00025895
0.000686235
0.000421306
0.000319111
0.000774857
0.000381855
0.000287996
0.000307933
0.000226952
0.000100721
0.00021116
0.000334767
0.000919482
0.000992398
0.000316592
0.000198553
0.000223386
0.000252194
0.000145919
0.000179108
0.00023393
0.000530869
0.000770468
0.000620068
0.00032453
0.000107751
0.000360387
6.29319e-05
0.000129421
0.000444107
0.000629728
0.000417311
0.000771157
0.00061454
0.000517966
0.000612761
0.00050267
0.000535906
0.000420047
0.000629754
0.000374946
0.00041509
0.000528923
0.000564969
0.00108622
0.000747501
0.000827809
0.000606959
0.000338474
0.000735868
0.000923204
0.000453326
0.000458343
0.000528053
0.000473919
0.00086235
0.000435146
0.000486189
0.000402452
0.00065036
0.000767154
0.00079499
0.000638118
0.00119672
0.000681895
0.000596623
0.000571653
0.000767571
0.000426833
0.00131754
0.000690827
0.00053835
0.00032483
0.000415928
0.00064595
0.00037512
0.000405447
0.000554749
0.000475334
0.000337509
0.000615483
0.000331176
0.00030278
0.00037532
0.000233256
0.000969293
0.000871304
0.000630621
0.000563633
0.000332761
0.000203666
0.000292018
0.000186534
0.000174811
0.000275812
0.000176144
0.000611297
0.000683186
0.000705908
0.000457818
0.00014916
0.000315567
7.87558e-05
0.000115127
9.85237e-05
0.000396795
0.000560371
0.000447818
0.00025453
0.000586704
0.000266727
0.000443327
0.000688482
0.000611464
0.000510327
0.000574547
0.000305834
0.000387448
0.000436743
0.00053556
0.000850923
0.000712488
0.000756586
0.000594093
0.000558669
0.000659603
0.000883107
0.000799148
0.00047297
0.000547621
0.000378096
0.000240818
0.000669507
0.000731691
0.000332478
0.000569145
0.000618795
0.000349643
0.000727049
0.000666389
0.000601467
0.000521346
0.000416397
0.00079556
0.00109911
0.000950643
0.000634535
0.000867662
0.000269177
0.000766641
0.000737804
0.000529733
0.000702089
0.000697887
0.00146043
0.000600016
0.000653656
0.000595427
0.000506128
0.000488137
0.00065363
0.000287151
0.000528794
0.000579463
0.000536895
0.000281942
0.00052491
0.000307893
0.000934905
9.02089e-05
0.000509332
0.000226617
0.00049105
0.000612724
0.000752625
0.000443932
0.000330727
0.000163446
0.000299929
0.000349371
0.000605512
0.000101502
0.00036549
0.000146288
0.000634717
0.000793165
0.000660822
0.000297688
0.000102932
0.000158407
0.000103392
0.000108971
0.00016729
0.000318156
0.000358046
0.000510647
0.000360053
0.000323442
0.000396138
0.000303252
0.000436799
0.000487373
0.000566044
0.000332635
0.000402078
0.000611056
0.000482656
0.000508408
0.000619109
0.00048641
0.000465728
0.000326031
0.000356027
0.000488439
0.000488918
0.000612402
0.000812099
0.000924015
0.000802258
0.000466614
0.000211274
0.00057814
0.000592771
0.000571459
0.000606359
0.000519399
0.000389254
0.000291083
0.000819273
0.00064121
0.000577955
0.00050211
0.000701142
0.000693892
0.000551295
0.00043171
0.00092202
0.000823105
0.000580822
0.000730615
0.000417153
0.000772753
0.00093262
0.000726487
0.0007004
0.000937884
0.000462346
0.000885434
0.000705908
0.000676629
0.000522218
0.000594017
0.0010927
0.00159006
0.000444529
0.000511474
0.000447914
0.00106568
0.000866259
0.000500623
0.00065925
0.000468439
0.000364051
0.000452734
0.00112885
0.000539343
0.000605442
0.000347035
0.000870755
0.00094589
0.000743779
0.00040533
0.000246409
0.000656548
0.000544196
0.000861752
0.000612515
0.000307774
0.000232515
0.000269551
0.000271061
0.000566854
0.000861618
0.000470925
0.000369462
0.000120716
0.00069795
0.000674382
0.000609734
0.000443231
0.000141693
0.000146866
0.000149518
8.51151e-05
0.000220043
0.000217152
0.000197335
0.000565587
0.000486526
0.000277465
0.000488643
0.000340985
0.000408768
0.000229769
0.000551347
0.00065354
0.000460861
0.000345092
0.000453533
0.000478356
0.000502439
0.000209735
0.00039531
0.000453915
0.000630948
0.000539762
0.000412448
0.000582101
0.000532953
0.000526061
0.000448329
0.000569736
0.000547357
0.00044357
0.000564674
0.000422054
0.000571588
0.000505569
0.000338616
0.000591148
0.000457395
0.000428916
0.000414159
0.000421932
0.000896264
0.000515548
0.000452403
0.000539777
0.000538911
0.001437
0.000968346
0.000897601
0.00108909
0.000813393
0.000511297
0.000783327
0.000701553
0.000578586
0.000767961
0.000788343
0.000577613
0.000541652
0.000404648
0.000373265
0.000634576
0.000841353
0.000420249
0.00085463
0.0011356
0.000532058
0.000129585
0.000929892
0.000517021
0.000877574
0.000740608
0.000747977
0.000871025
0.00141348
0.000728218
0.00119533
0.000355812
0.00082666
0.000866614
0.00103347
0.000644504
0.000503669
0.000447564
0.000445842
0.000407299
0.00207886
0.000766435
0.000552399
0.000412763
0.000562046
0.000852283
0.00108853
0.000696038
0.000291487
0.000249939
0.000569603
0.000611457
0.000598541
0.000582081
0.000465849
0.000315133
0.000294504
0.000190308
0.000408487
0.000785098
0.000461953
0.0004409
0.000380688
0.000104336
0.000461704
0.000488668
0.000566926
0.000187515
0.000188943
0.00011993
0.000178742
0.0001218
0.000229831
0.000228529
0.000368317
0.000117566
0.000356036
0.000491177
0.000319214
0.000421896
0.000484122
0.000495836
0.000551986
0.000380916
0.000542081
0.00066795
0.000391027
0.000378188
0.000433155
0.000375255
0.000670912
0.000327198
0.000434464
0.000583522
0.000295455
0.000314847
0.00050138
0.00034855
0.000281528
0.000708834
0.0005456
0.000563238
0.000625378
0.000298703
0.000421219
0.000489182
0.000624555
0.000251926
0.000484715
0.000497079
0.000493411
0.000512636
0.000634632
0.00049878
0.000414595
0.000505079
0.000462417
0.000523756
0.000293509
0.000926294
0.000460141
0.000466085
0.000837769
0.000572343
0.000844236
0.000555776
0.000300462
0.000723774
0.00146364
0.000625706
0.000453302
0.00116148
0.000835043
0.000945504
0.000650309
0.000690639
0.000533458
0.000714455
0.000920091
0.000474777
0.000379274
0.000374345
0.000516373
0.000612008
0.000507612
0.00120244
0.0006367
0.00162537
0.00101329
0.000672673
0.000490359
0.000697304
0.0010104
0.000569203
0.000780742
0.000979988
0.000564708
0.000796296
0.000952632
0.00137543
0.00125691
0.000358338
0.000655884
0.000801765
0.000813845
0.00116328
0.000698773
0.00056064
0.000447999
0.000444228
0.000519932
0.00179003
0.000596112
0.000388424
0.000549494
0.000831351
0.00081229
0.000926222
0.000697776
0.000394432
0.000180826
0.000360573
0.00043605
0.00060304
0.000433411
0.000747214
0.000556537
0.000284466
0.00116675
0.000195562
0.000314684
0.000654509
0.000595335
0.000286521
0.00029265
0.000377509
0.000168676
0.000405518
0.000576541
0.000483915
0.000252945
0.000136984
0.000157309
0.000218154
9.41119e-05
0.000121251
0.000236683
0.000588429
0.000268964
0.000125485
0.000415188
0.000369684
0.000326358
0.000411384
0.000342684
0.000344051
0.000410711
0.000413667
0.000313702
0.000339861
0.000403794
0.000285088
0.000443827
0.00042094
0.000509926
0.000317437
0.000449675
0.000443043
0.000240802
0.000223518
0.000506935
0.000263328
0.000259502
0.000466362
0.000436892
0.000391122
0.000457659
0.000590202
0.000385101
0.000292038
0.000479821
0.000518161
0.00064318
0.000451652
0.000484778
0.000627574
0.000706949
0.000511355
0.000459399
0.000254679
0.000336709
0.000274827
0.00040338
0.000317294
0.00048339
0.000526638
0.000602813
0.000601778
0.000411406
0.000488103
0.000315066
0.000920809
0.000522192
0.00105509
0.000484194
0.000564754
0.000362646
0.000786958
0.000829989
0.000565495
0.000317824
0.000887116
0.000713315
0.000878598
0.000341356
0.000477485
0.000691207
0.000410575
0.000881397
0.000737077
0.000689749
0.000774625
0.00037082
0.00120921
0.000705426
0.000262524
0.000887178
0.00054923
0.000592145
0.000690253
0.000373578
0.000784692
0.000920695
0.00140456
0.000664812
0.000853921
0.000699736
0.000450735
0.000619723
0.00080615
0.000552763
0.000656754
0.000641365
0.000606389
0.000858501
0.000992955
0.0015952
0.000722084
0.000333677
0.000488997
0.000759595
0.000750582
0.000775263
0.00112224
0.000708453
0.00044828
0.000600544
0.000376574
0.000475853
0.000622854
0.00085936
0.000439498
0.00052
0.00057918
0.000677826
0.00068988
0.000755363
0.000391413
0.000232689
0.000162872
0.000384693
0.000286752
0.000427157
0.000852238
0.00106412
0.000379472
0.000270423
0.000362396
0.000198885
0.000291811
0.000463081
0.000717549
0.000305122
0.000343221
0.000125724
0.000344891
0.00015589
0.000454489
0.00059932
0.000399359
0.000366599
0.000211164
0.000120433
7.38595e-05
0.000497513
0.000108816
0.000200084
0.000614215
0.000285822
0.000121109
0.000109726
0.000423333
0.000454041
0.000387209
0.000551584
0.000393224
0.000441498
0.000300447
0.000215909
0.000357334
0.000418091
0.000488846
0.000198194
0.000367139
0.000384645
0.000262736
0.000605196
0.000353516
0.000546491
0.000301956
0.000310064
0.000439178
0.00020442
0.000322242
0.000263136
0.000416331
0.000340494
0.000530693
0.000388203
0.000420351
0.000239308
0.000478764
0.000503602
0.000465056
0.00044881
0.000428062
0.000419762
0.00055156
0.00035279
0.00045586
0.00053847
0.000634597
0.000321098
0.00077562
0.000611586
0.000756352
0.000838055
0.000522991
0.000471956
0.000684859
0.000305243
0.000416217
0.000383936
0.000334278
0.00115294
0.000551567
0.000451631
0.000551051
0.000527294
0.000540113
0.0005429
0.000510782
0.000457813
0.00071123
0.00043605
0.000497987
0.000443397
0.000488546
0.000308922
0.000726951
0.000529415
0.000506953
0.000381984
0.000502994
0.000948464
0.00103089
0.000574191
0.000561748
0.000376595
0.000560708
0.00078943
0.000474206
0.000828513
0.000637157
0.000621277
0.000669523
0.000812355
0.000723929
0.000512786
0.000853579
0.000831813
0.000496092
0.000570202
0.000447825
0.000561713
0.000571623
0.00085423
0.000765199
0.000900075
0.00106637
0.000485297
0.00109313
0.000400186
0.00116823
0.000659522
0.000411912
0.000703049
0.000685672
0.000573213
0.000723771
0.000683246
0.00147394
0.000778039
0.000557382
0.000495308
0.000626233
0.000786378
0.000840836
0.000672095
0.000363836
0.000533695
0.000540883
0.000305449
0.000442889
0.000464437
0.000681514
0.00099692
0.000445925
0.000296684
0.000433302
0.000448589
0.000695417
0.000587197
0.000307106
0.000544444
0.000323745
0.000238011
0.000248301
0.000410104
0.000576186
0.000743333
0.000907227
0.000496347
0.000570305
0.000719021
0.000312929
0.000278531
0.000300796
0.000674024
0.000532524
0.000325016
0.000315842
0.000149699
0.000308896
0.000173411
0.000344753
0.000674151
0.00036218
0.00048683
0.00019853
8.39328e-05
0.000107023
0.000182513
0.000137382
0.000155392
0.000527808
0.000224601
0.000144179
0.00014029
0.000156642
0.000287305
0.000409612
0.000550949
0.000324334
0.00041118
0.000302802
0.000306832
0.000265593
0.000103089
0.000375687
0.000523691
0.00024559
0.000308964
0.000410285
0.000351535
0.000503684
0.000167007
0.000314358
0.000408524
0.000416992
0.000319637
0.000298024
0.000334163
0.000310664
0.000378978
0.000239119
0.000353144
0.000373692
0.000379488
0.000429784
0.000260994
0.000481408
0.000301441
0.000540172
0.000594349
0.000306469
0.000617938
0.000256207
0.000383321
0.000443167
0.000415736
0.000461804
0.000451864
0.000588385
0.00030078
0.000557463
0.000395702
0.000415935
0.000393798
0.000377263
0.000455553
0.000456961
0.000577211
0.000492085
0.000792193
0.00058044
0.000356819
0.000309201
0.000451018
0.000327356
0.000302282
0.000270107
0.000401538
0.000646077
0.000630419
0.000575884
0.000453192
0.000560602
0.000565131
0.000730095
0.000594728
0.000366214
0.000580729
0.000321968
0.000596678
0.00102249
0.000929659
0.000448264
0.000396455
0.000548841
0.000723987
0.0006046
0.000416319
0.000533392
0.000562218
0.000763745
0.00115296
0.000575455
0.000859249
0.000806009
0.000432348
0.000439157
0.000969986
0.000282837
0.000607819
0.000686004
0.000868669
0.00059456
0.000897075
0.000671667
0.000717506
0.000620778
0.000854076
0.000931231
0.000523991
0.000399226
0.000429405
0.000459983
0.0007126
0.000789537
0.000465571
0.00120715
0.00133802
0.000382508
0.000857623
0.000392459
0.00101217
0.000332706
0.000506216
0.000327662
0.000657389
0.000686619
0.000514891
0.000495692
0.000530757
0.00099262
0.000718015
0.000828412
0.000571696
0.000630056
0.000552278
0.000938147
0.00108407
0.000415195
0.000338491
0.000437868
0.000472372
0.000496878
0.000394149
0.000492654
0.00074663
0.00081215
0.000444611
0.000454763
0.000642581
0.000534534
0.000758441
0.000494138
0.000595354
0.000545183
0.000535048
0.000350637
0.000244412
0.000294863
0.000555507
0.000662648
0.000275412
0.00116489
0.000726425
0.000194355
0.000610751
0.000232217
0.00029367
0.000394235
0.000428099
0.00041685
0.000302649
0.000332311
0.000431658
0.000146926
0.000276647
0.000133979
0.000370732
0.000547455
0.000316415
0.000374921
0.000168833
0.000126108
0.000111946
0.000111733
9.98519e-05
0.000148517
0.000277188
0.000200414
0.000146575
0.000285925
0.00017156
0.000217644
0.000280385
0.000326454
0.000224859
0.00046342
0.0003827
0.000531631
0.000609971
0.000409037
0.000426039
0.000433332
0.000165101
0.000375369
0.000342853
0.000424387
0.000305258
0.000416409
0.000249565
0.000267467
0.000345318
0.000282917
0.000231014
0.00043703
0.000204668
0.000364689
0.000317058
0.000212423
0.000317775
0.000394694
0.000370699
0.000331739
0.000191127
0.000461942
0.000275533
0.000318621
0.000239128
0.000375014
0.000299763
0.00049895
0.000421798
0.000664588
0.000442268
0.000627243
0.000314298
0.000310865
0.000281513
0.00063768
0.000403744
0.000502333
0.000342316
0.000450039
0.000453729
0.000367621
0.000317101
0.000343255
0.000330906
0.000539048
0.000312303
0.000256909
0.00061087
0.000366795
0.000419193
0.000424738
0.000470819
0.00104318
0.00108988
0.000799464
0.000497563
0.000422904
0.00041678
0.000320891
0.000373392
0.00029024
0.000390354
0.000495842
0.000410012
0.000667032
0.000543563
0.000490576
0.000426175
0.000493079
0.000574187
0.000508639
0.000535197
0.00035706
0.000351785
0.000641552
0.000628375
0.000930213
0.000734662
0.000607729
0.00045992
0.00044435
0.00060863
0.000634332
0.000727432
0.000278085
0.000545321
0.000593866
0.000918178
0.000689413
0.000805564
0.00101105
0.00103663
0.000886221
0.000425205
0.000551167
0.000420418
0.00041411
0.000439449
0.000660311
0.000688615
0.000461442
0.000865088
0.000618291
0.000691919
0.000537166
0.000984218
0.00113588
0.00116682
0.000320882
0.000422949
0.000519329
0.00023787
0.000379315
0.000699456
0.000454846
0.00110954
0.000945371
0.000518553
0.000509518
0.000682115
0.000433186
0.000498761
0.000401731
0.000336416
0.000318743
0.000556354
0.000943549
0.000783076
0.00100242
0.000591222
0.000675833
0.000632799
0.000827518
0.000612587
0.000395343
0.0004228
0.000708409
0.000845786
0.000478382
0.000406536
0.000474538
0.000376505
0.000457835
0.000577571
0.000371377
0.000395851
0.000624134
0.000635039
0.000421417
0.000370288
0.000729743
0.000721152
0.000692634
0.000533097
0.000846204
0.000514014
0.00047106
0.000266797
0.000459814
0.000271725
0.000266254
0.000751516
0.000521722
0.000289078
0.00110356
0.000932671
0.000338162
0.00026928
0.000380109
0.000303138
0.000580908
0.000550047
0.00047679
0.000261749
0.000278585
0.000447343
0.000256348
0.00021591
0.000232165
0.000146031
0.000310614
0.00041209
0.000241989
0.00020277
0.000193523
0.000174542
0.000144182
0.00010618
9.15416e-05
0.000313635
0.00013688
0.000143525
0.000188992
0.000120937
0.000160758
0.000507851
0.000116339
0.000421233
0.00024972
0.000210129
0.000330739
0.000447705
0.000297189
0.000220269
0.000417172
0.000512456
0.000461443
0.000342077
0.000598775
0.000308476
0.000259228
0.00040599
0.000451755
0.000338749
0.000393176
0.000216551
0.000241018
0.000303778
0.000319865
0.000301468
0.000355968
0.000240472
0.000233223
0.000229295
0.000269136
0.000408539
0.000319195
0.000188163
0.000327104
0.000567176
0.000336867
0.000268371
0.000394739
0.00037438
0.000351525
0.000254756
0.000572099
0.000406693
0.000312353
0.00042094
0.000441146
0.00039607
0.000339442
0.000426072
0.0002616
0.00033247
0.000368195
0.000558265
0.000405459
0.000181477
0.00035064
0.000346295
0.000469104
0.000425142
0.000426866
0.000374241
0.000360637
0.000378371
0.000588825
0.000439532
0.000680713
0.000817189
0.000442026
0.000464804
0.000332858
0.000253069
0.00028854
0.000414835
0.00036389
0.000388735
0.00063351
0.00070085
0.000559651
0.000566358
0.000410696
0.000739833
0.000389109
0.000385913
0.000464831
0.000391973
0.000357055
0.000447144
0.000224004
0.000560559
0.000844189
0.000791679
0.000678083
0.000376332
0.000766146
0.000539726
0.000571091
0.000428919
0.000510963
0.00028789
0.00047235
0.000596817
0.000660815
0.00084083
0.00112897
0.000950006
0.000833224
0.000504638
0.000587319
0.000414771
0.0005023
0.000698941
0.000276187
0.000471944
0.000561612
0.000481966
0.00072746
0.000672631
0.000467154
0.000971237
0.000994832
0.00076043
0.000327919
0.000497071
0.000373226
0.000445448
0.000597849
0.000556941
0.000660842
0.000544856
0.000399308
0.000564116
0.000380405
0.000800916
0.000867298
0.000642559
0.000444817
0.000429547
0.000340861
0.000527875
0.000488232
0.000547399
0.000235458
0.000578152
0.000869703
0.0010192
0.000474302
0.000761419
0.00038458
0.000876656
0.000429757
0.00146295
0.00031994
0.000502263
0.000442551
0.000402681
0.000521265
0.000740381
0.000430139
0.000775459
0.000665135
0.00081511
0.000857028
0.000561917
0.000737792
0.00069161
0.000558839
0.000678894
0.000618152
0.000481941
0.000463996
0.000378942
0.000296828
0.000386436
0.000496686
0.000483381
0.00045431
0.00052974
0.000965336
0.000532474
0.000389926
0.000347729
0.000667715
0.000449136
0.000743251
0.000964139
0.000951489
0.000315943
0.000440246
0.000274208
0.000366023
0.000285863
0.000368986
0.00013379
0.000330048
0.000461334
0.000288209
0.000579846
0.000624871
0.000226918
0.00028834
0.000295136
0.00031105
0.000476907
0.0010021
0.000509482
0.000337327
0.000228768
0.000423351
0.000428417
0.000211796
5.55493e-05
0.000194146
0.000100585
0.000238133
0.000334449
0.000187427
0.000215189
0.000464694
8.07168e-05
0.000165909
9.96213e-05
9.76809e-05
0.000258115
0.000306932
0.000150941
0.000172533
0.000130353
0.000176361
0.000511705
0.000192846
0.000208776
0.000582495
0.00018401
7.23954e-05
0.000323927
0.000144694
0.000218295
0.000245387
0.000131098
0.000313801
0.000262076
0.000223417
0.000361058
0.00038155
0.000308642
0.000417053
0.000431531
0.000398322
0.000366757
0.000276657
0.000253605
0.000369972
0.000303178
0.000350454
0.000318016
0.000299827
0.000301126
0.000448111
0.00031557
0.000351619
0.000322612
0.000198753
0.00020432
0.000251368
0.000298116
0.000431112
0.000196936
0.00033335
0.000328103
0.00027
0.000333359
0.000374801
0.000312269
0.000344811
0.000337633
0.000449986
0.000469138
0.000380364
0.000348367
0.00057792
0.00045584
0.000494537
0.000383253
0.000292372
0.000460069
0.000506963
0.000311577
0.000384063
0.000396055
0.000243756
0.000399876
0.000274557
0.000334463
0.000170878
0.000443344
0.000521609
0.000313195
0.000201848
0.000361533
0.000149861
0.000433137
0.000388049
0.000397818
0.000514127
0.000267421
0.000553769
0.000441315
0.00054975
0.000317561
0.000439966
0.000571603
0.000280666
0.000259146
0.000470711
0.000304534
0.000483761
0.000692858
0.000634382
0.000735593
0.000971605
0.000876016
0.00047103
0.000586031
0.000481101
0.000308879
0.000487756
0.000303968
0.000340926
0.000486892
0.000332434
0.000591504
0.000628116
0.000914806
0.00145739
0.000797401
0.000329107
0.000490815
0.000416972
0.00053479
0.000407701
0.000470373
0.000353563
0.000310527
0.000602155
0.000608567
0.0007504
0.000969672
0.00105968
0.000603965
0.000628736
0.000474212
0.000437338
0.000489129
0.000500561
0.000498088
0.000329679
0.000289284
0.000551372
0.000689235
0.000675794
0.000521434
0.000567258
0.00091715
0.00103609
0.000619124
0.000454832
0.000443975
0.000433121
0.000430807
0.000309759
0.00033571
0.000445971
0.00067042
0.000384264
0.000425704
0.000657082
0.000530555
0.00053628
0.000583237
0.00134628
0.000255912
0.000519769
0.000574894
0.000652448
0.000492858
0.00040367
0.000600114
0.000766947
0.000696736
0.000899172
0.000910285
0.000480426
0.000945092
0.000268786
0.000425794
0.000407777
0.000666729
0.000344114
0.000512425
0.00073276
0.00037867
0.000501917
0.00105277
0.000555821
0.000361426
0.000591142
0.00052866
0.000500772
0.000736657
0.0004928
0.000999557
0.00100645
0.00043393
0.000761986
0.000470166
0.000699545
0.000461659
0.000488193
0.000255427
0.000340426
0.000454407
0.000510118
0.000365084
0.00044593
0.000495511
0.000737784
0.000411072
0.000305549
0.000278356
0.000570311
0.000576185
0.000712962
0.00129593
0.000833059
0.000211601
0.000392379
0.000335113
0.000526592
0.00016641
0.00021535
0.000333331
0.000246346
0.000245996
0.000293251
0.000314955
0.00049061
0.000697486
0.000270197
0.000236744
0.000289319
0.000310604
0.000397014
0.000895594
0.000632597
0.000429902
0.000259059
0.000403511
0.000503536
0.000320818
0.000530893
0.000278017
0.000180388
9.59709e-05
0.000301008
0.00029239
0.000219501
0.000170424
0.000600563
9.94044e-05
0.000144406
0.000115644
0.000161246
0.000128351
0.000321588
0.000106241
0.000386869
0.000102047
0.000163964
0.000316059
0.000250527
0.000149407
0.000252478
0.000751558
0.000273709
0.000569185
0.000340687
0.000256933
0.000504135
0.000379635
0.000225653
0.000333127
0.000341706
0.000217916
0.000384678
0.000339713
0.000379568
0.000335616
0.00024866
0.000271452
0.000350515
0.000240583
0.000329281
0.000398848
0.000376724
0.000421334
0.000360798
0.000297948
0.000326833
0.00022052
0.000384501
0.000407804
0.000394506
0.000336392
0.000205668
0.000236368
0.000342748
0.000337459
0.000238028
0.000352464
0.000329609
0.000319463
0.000355028
0.000436032
0.000404722
0.000305026
0.000369621
0.000350066
0.000306027
0.000274164
0.000355434
0.000381172
0.000352537
0.000429015
0.00028902
0.000375024
0.00037501
0.000393629
0.000398455
0.000450386
0.000424451
0.000278003
0.000204336
0.000591202
0.000431657
0.000306445
0.000500693
0.000302683
0.000316261
0.000317819
0.000489631
0.000276768
0.000323199
0.000349754
0.000263311
0.000360701
0.000426498
0.000303101
0.000336951
0.000502282
0.000472251
0.000231798
0.000346247
0.00028904
0.000188117
0.000420559
0.000332863
0.000385122
0.000380611
0.000478757
0.000459115
0.00104559
0.00097966
0.000522305
0.000466222
0.000430568
0.000342527
0.000481734
0.000348052
0.000323823
0.000480886
0.000342426
0.000658819
0.000750235
0.000866139
0.00137475
0.000976555
0.000998274
0.000591745
0.000624037
0.000453522
0.000381882
0.000289767
0.000335092
0.000438105
0.000383938
0.000523658
0.000596058
0.00101144
0.000926062
0.000963467
0.000444742
0.00042591
0.000356444
0.00037222
0.000450761
0.000503957
0.000237512
0.000333937
0.000510128
0.000710166
0.000569786
0.000737282
0.000862779
0.00109873
0.000829023
0.000684877
0.000538361
0.000404479
0.000301837
0.000485655
0.000556994
0.000467324
0.000373369
0.00032052
0.00040294
0.000469925
0.000873934
0.00061361
0.000477013
0.000823071
0.00119639
0.000673446
0.000489085
0.00056118
0.0003191
0.000433282
0.000351187
0.000417664
0.000364083
0.000409193
0.000488761
0.000732204
0.000596898
0.000824858
0.000319586
0.000359036
0.000404597
0.0012726
0.00041147
0.000498391
0.000632941
0.000518368
0.0010172
0.000482614
0.000416999
0.000267786
0.000574539
0.000608674
0.000724868
0.000463498
0.00080116
0.000716194
0.000615338
0.000445515
0.000417668
0.000396038
0.000585945
0.000509006
0.000596996
0.000467821
0.000487007
0.00101326
0.000494834
0.000382739
0.000922474
0.000599181
0.000845796
0.000416742
0.000392812
0.000363539
0.000921137
0.000422431
0.000350236
0.00080901
0.000415816
0.00135319
0.000491112
0.000507959
0.000583718
0.00055938
0.000204026
0.000868191
0.000500677
0.000323486
0.000281558
0.000444025
0.000828735
0.000999116
0.000768002
0.000451451
0.000861448
0.000421119
0.000497624
0.000877941
0.000670912
0.000648033
0.000416652
0.000394915
0.000371762
0.000446277
0.000332195
0.00056061
0.0002275
0.000319453
0.000276076
0.000264973
0.000316427
0.00044724
0.00074558
0.000396385
0.000265141
0.000335713
0.000308317
0.000444577
0.000693892
0.000761521
0.000428149
0.000248086
0.000395444
0.000378526
0.00029097
0.000549331
0.000611586
0.00025759
0.000163683
0.000117635
0.000404768
0.000294393
0.000226833
8.00465e-05
0.000530677
0.00028541
0.000171544
8.13444e-05
0.000121725
0.00014545
0.000233634
0.00014666
0.000259987
7.71692e-05
0.000145836
0.00024003
0.000258004
0.00017912
0.000223232
0.000412363
0.00145094
0.000744462
0.000827925
0.000812332
0.00033154
0.000602141
0.000619371
0.000408798
0.00033175
0.000527141
0.000391605
0.000411656
0.000285506
0.000312006
0.000369398
0.000230522
0.000221286
0.00025332
0.000250709
0.000303387
0.000308159
0.000254081
0.000285978
0.000219715
0.000290267
0.000347932
0.000296762
0.000356707
0.00027278
0.000387185
0.000345589
0.000364348
0.000522545
0.000416156
0.000399266
0.000381663
0.00037565
0.000333884
0.000340888
0.00036442
0.000219037
0.000536634
0.000411183
0.000213889
0.000324406
0.00036284
0.000264665
0.000297695
0.000407107
0.000294059
0.000358285
0.000361803
0.0004678
0.000414127
0.000271396
0.000317
0.000395832
0.000377182
0.000209765
0.000295472
0.000283522
0.000343486
0.000356629
0.000322676
0.000260511
0.00046699
0.000348874
0.00041456
0.000298528
0.000392307
0.000453726
0.000431874
0.000287488
0.000404839
0.000363584
0.000405882
0.000484897
0.000404517
0.000370534
0.00045241
0.000320975
0.000336475
0.000415656
0.00024471
0.000632741
0.000325509
0.000421717
0.000246849
0.000961671
0.00125825
0.000484263
0.000236324
0.000362105
0.000300855
8.4494e-05
0.000369963
0.00019008
0.000674768
0.000433697
0.000418304
0.000626114
0.000930039
0.00115926
0.00114007
0.000816616
0.000417394
0.000264063
0.000376239
0.000335437
0.000419564
0.000287628
0.000448315
0.000485196
0.000713714
0.000692138
0.000855266
0.00135351
0.00129649
0.000849013
0.000768794
0.000294
0.000435168
0.000407031
0.000296064
0.000293947
0.000342714
0.000320923
0.000209834
0.000484307
0.000449598
0.000859082
0.000789004
0.00110785
0.00101637
0.000666986
0.000533002
0.000361768
0.000441976
0.000446494
0.000572691
0.0003334
0.000321777
0.000262203
0.000354826
0.000511851
0.000702623
0.00071325
0.00099729
0.00110134
0.00066967
0.00101928
0.000668173
0.000519146
0.000584404
0.000307214
0.000366035
0.000437847
0.000406941
0.000334997
0.000409504
0.000451569
0.000852472
0.000703606
0.000575049
0.000596213
0.000979421
0.000798143
0.000606123
0.000500524
0.000607319
0.000509469
0.000557588
0.00037203
0.000453067
0.000516652
0.000341891
0.00043737
0.00089705
0.000512757
0.000921496
0.000437359
0.000422112
0.000457819
0.000809932
0.00109525
0.000547587
0.000612543
0.00107215
0.0010338
0.000221247
0.000754372
0.000333137
0.000198313
0.000205108
0.000528574
0.000759066
0.000245543
0.000795983
0.000331771
0.00127327
0.000461832
0.000420696
0.000357794
0.00163726
0.000468169
0.000706324
0.000532813
0.000573533
0.000257119
0.00060796
0.000518112
0.00029349
0.000569303
0.00068644
0.000855476
0.000620347
0.000883268
0.000338769
0.000522526
0.00113684
0.000445607