/*--------------------------------*- C++ -*----------------------------------*\
  =========                 |
  \\      /  F ield         | OpenFOAM: The Open Source CFD Toolbox
   \\    /   O peration     | Website:  https://openfoam.org
    \\  /    A nd           | Version:  7
     \\/     M anipulation  |
\*---------------------------------------------------------------------------*/
FoamFile
{
    version     2.0;
    format      ascii;
    class       volScalarField;
    location    "5";
    object      p;
}
// * * * * * * * * * * * * * * * * * * * * * * * * * * * * * * * * * * * * * //

dimensions      [0 2 -2 0 0 0 0];

internalField   nonuniform List<scalar> 
18720
(
-71.161
-70.0448
-71.0541
-71.1626
-70.0874
-68.5902
-69.9477
-70.1838
-68.58
-70.0247
-71.1554
-70.1259
-68.7719
-66.725
-68.4522
-68.6848
-67.3544
-68.4938
-70.2921
-68.6574
-68.0268
-68.6871
-71.1963
-70.1678
-68.8312
-67.8045
-65.6581
-66.5461
-66.9403
-65.6186
-67.2949
-68.8143
-67.4793
-66.7197
-67.9613
-70.4081
-68.7154
-68.0364
-67.0856
-67.7092
-71.2636
-70.2355
-68.9185
-67.8293
-67.17
-64.1799
-65.5193
-65.8236
-64.6337
-65.5024
-67.1833
-65.78
-64.4623
-66.7251
-68.8965
-67.6207
-66.7555
-66.3094
-67.0243
-70.5033
-68.8224
-68.1615
-67.1194
-66.564
-67.1469
-71.3282
-70.2896
-69.0389
-67.8979
-67.2122
-66.7323
-63.0063
-63.9819
-64.3041
-63.4085
-64.5429
-65.9134
-64.6688
-63.9672
-64.4338
-67.4108
-65.9201
-64.5321
-64.5166
-66.3681
-68.9774
-67.7156
-66.7728
-66.2643
-65.8331
-66.5502
-70.598
-68.9714
-68.3187
-67.1488
-66.6278
-65.4775
-66.7271
-71.3915
-70.321
-69.1135
-67.9689
-67.285
-66.7703
-65.95
-62.0239
-62.9888
-63.276
-62.5692
-63.3197
-64.4935
-63.5546
-63.1308
-63.9165
-66.0438
-64.7799
-64.0282
-63.4365
-64.5591
-67.6209
-66.0517
-64.711
-64.5847
-64.3927
-65.7658
-69.1207
-67.96
-66.8224
-66.2037
-65.814
-64.9753
-65.4995
-70.724
-69.1114
-68.3356
-67.1944
-66.6932
-65.4336
-65.3412
-65.9373
-71.454
-70.3391
-69.1812
-68.0542
-67.3559
-66.8292
-65.9708
-65.4411
-61.4103
-62.0039
-62.0654
-61.6795
-62.479
-63.4578
-62.779
-62.1179
-63.0907
-64.707
-63.7378
-63.1721
-62.6163
-63.4285
-66.1607
-64.9153
-64.215
-63.4295
-63.2205
-64.3244
-67.7757
-66.1923
-64.8344
-64.5284
-64.3998
-64.0356
-64.9376
-69.2895
-68.1978
-66.8988
-66.172
-65.7341
-64.9756
-64.7182
-65.3264
-70.8524
-69.2552
-68.483
-67.1887
-66.692
-65.4168
-65.376
-65.1604
-65.4732
-71.5192
-70.3357
-69.2316
-68.1946
-67.4233
-66.8509
-65.9902
-65.4488
-65.4734
-60.7336
-61.2465
-61.3878
-61.0563
-61.7363
-62.2381
-61.7898
-61.5216
-62.0866
-63.6442
-62.8289
-62.1155
-62.0139
-62.6535
-64.8593
-63.8654
-63.1535
-62.6663
-62.4645
-63.2413
-66.3874
-65.0752
-64.3837
-63.524
-63.2032
-63.3316
-63.9735
-68.004
-66.459
-65.0073
-64.4283
-64.2439
-64.0076
-63.7983
-64.6873
-69.439
-68.3656
-66.9496
-66.106
-65.6661
-64.9853
-64.7727
-64.5993
-65.1706
-70.9646
-69.4698
-68.5969
-67.1949
-66.6672
-65.4267
-65.392
-65.1627
-65.1517
-65.4929
-71.5819
-70.276
-69.2787
-68.3541
-67.495
-66.8542
-66.0165
-65.4878
-65.4626
-65.5207
-60.1184
-60.7245
-60.8486
-60.6347
-60.9059
-61.5434
-61.2443
-60.912
-61.4127
-62.4193
-61.8666
-61.5115
-61.2251
-62.0506
-63.6239
-62.7425
-62.1328
-61.9604
-61.9014
-62.516
-65.1238
-64.2391
-63.2387
-62.7111
-62.4682
-62.518
-63.2614
-66.5946
-65.2719
-64.5151
-63.6406
-63.2253
-63.396
-63.2413
-63.7921
-68.3393
-66.5701
-65.2031
-64.5086
-64.1819
-64.0646
-63.8463
-63.9305
-64.6403
-69.6186
-68.5638
-67.0305
-66.0598
-65.6109
-65.0273
-64.819
-64.563
-64.5324
-65.195
-71.0678
-69.6609
-68.5907
-67.2238
-66.638
-65.4599
-65.3866
-65.1717
-65.1049
-65.2123
-65.5506
-71.6338
-70.2316
-69.4056
-68.4429
-67.5667
-66.8718
-66.0526
-65.4976
-65.4407
-65.4691
-65.7466
-59.8512
-60.07
-60.2469
-60.0474
-60.4921
-60.928
-60.749
-60.4827
-60.875
-61.6183
-61.3313
-60.9918
-60.811
-61.2991
-62.5432
-62.051
-61.595
-61.2536
-61.2566
-61.8803
-63.8291
-62.851
-62.397
-61.9577
-61.9305
-62.0557
-62.5693
-65.4355
-64.5268
-63.2925
-62.7287
-62.482
-62.5572
-62.6129
-63.2378
-66.793
-65.5533
-64.6368
-63.7239
-63.2819
-63.3703
-63.2303
-63.3262
-63.9813
-68.6484
-66.7821
-65.3783
-64.5878
-64.1858
-64.1542
-63.8941
-63.8877
-64.1633
-64.5911
-69.8213
-68.6798
-67.1312
-66.0625
-65.5459
-65.1135
-64.8853
-64.5526
-64.4925
-64.6537
-65.2693
-71.1829
-69.8641
-68.73
-67.2721
-66.5896
-65.5333
-65.4379
-65.1653
-65.0596
-65.1456
-65.4733
-65.7775
-71.6811
-70.2409
-69.4955
-68.4976
-67.6327
-66.9039
-66.0939
-65.4958
-65.4137
-65.4055
-65.7138
-65.9301
-59.5007
-59.7175
-59.9399
-59.7525
-60.0515
-60.4353
-60.12
-60.0163
-60.4599
-61.0036
-60.8003
-60.5301
-60.3928
-60.6678
-61.6872
-61.4015
-61.1501
-60.8006
-60.7609
-61.2361
-62.6202
-61.9837
-61.673
-61.288
-61.326
-61.3103
-62.0929
-64.0198
-63.1869
-62.5424
-61.9875
-61.9486
-62.0267
-62.0848
-62.6684
-65.7119
-64.8794
-63.5366
-62.8307
-62.4548
-62.5367
-62.6051
-62.5973
-63.4321
-67.004
-65.7415
-64.8035
-63.8463
-63.2697
-63.3723
-63.2591
-63.1956
-63.755
-64.2404
-68.9652
-67.011
-65.6092
-64.7606
-64.309
-64.1981
-63.9241
-63.8647
-64.0605
-64.5567
-64.7471
-70.0101
-68.896
-67.2193
-66.0537
-65.4745
-65.1114
-64.9614
-64.5805
-64.4629
-64.5709
-65.2758
-65.5443
-71.3005
-70.056
-68.9288
-67.3508
-66.5622
-65.6453
-65.4694
-65.1716
-65.0195
-65.0724
-65.3998
-65.948
-65.9778
-71.7226
-70.2573
-69.5082
-68.6317
-67.6787
-66.9431
-66.1216
-65.5012
-65.3959
-65.3616
-65.6926
-65.8828
-66.8565
-59.173
-59.4488
-59.6527
-59.4279
-59.6706
-60.0356
-59.9009
-59.8076
-59.9239
-60.5425
-60.2036
-60.0385
-59.9615
-60.3381
-61.1715
-60.8958
-60.6545
-60.3878
-60.3469
-60.7754
-61.7724
-61.4763
-61.1738
-60.8658
-60.6683
-60.6916
-61.3745
-62.8279
-62.2152
-61.8139
-61.4278
-61.3343
-61.3098
-61.4576
-62.0482
-64.2335
-63.2781
-62.6592
-62.0269
-61.9211
-61.9786
-62.0578
-62.0426
-62.6801
-65.7324
-64.3929
-63.7322
-62.902
-62.4821
-62.6107
-62.6634
-62.5857
-63.1479
-63.953
-67.2627
-65.9048
-65.0202
-63.9687
-63.2856
-63.2909
-63.2317
-63.1671
-63.5806
-64.7752
-64.7403
-69.2776
-67.2592
-65.8059
-64.9378
-64.3355
-64.2674
-63.9826
-63.8476
-63.9656
-64.4251
-65.3983
-65.41
-70.2312
-69.0875
-67.3468
-66.077
-65.4612
-65.1966
-65.0423
-64.5966
-64.4159
-64.4944
-65.1369
-65.8231
-66.0451
-71.4334
-70.27
-69.0933
-67.3755
-66.6088
-65.7275
-65.4138
-65.2158
-64.997
-65.0146
-65.3174
-65.8456
-67.4719
-66.8927
-71.7555
-70.2869
-69.514
-68.6899
-67.7165
-66.9906
-66.1582
-65.5081
-65.3798
-65.3288
-65.6756
-65.8495
-66.8345
-67.7585
-58.995
-59.152
-59.3008
-59.2325
-59.2837
-59.6362
-59.5666
-59.4347
-59.6272
-60.0711
-60.0126
-59.8375
-59.6058
-59.731
-60.7427
-60.3824
-60.1639
-60.0756
-59.8115
-60.3159
-61.3
-60.9708
-60.7387
-60.5657
-60.2982
-60.298
-60.7729
-61.9234
-61.5336
-61.2743
-61.0276
-60.813
-60.8242
-60.9143
-61.3301
-62.975
-62.3807
-61.8442
-61.4927
-61.3204
-61.3852
-61.4559
-61.499
-62.1132
-64.2865
-63.2607
-62.7365
-61.9859
-61.9169
-61.9742
-62.0139
-61.9769
-62.454
-63.3229
-66.0632
-64.5484
-63.9241
-62.9256
-62.5286
-62.5806
-62.6901
-62.5374
-63.0589
-64.3928
-65.0974
-67.5361
-66.1048
-65.1809
-64.1401
-63.4536
-63.259
-63.3451
-63.1923
-63.4674
-64.4345
-65.2879
-65.5735
-69.4977
-67.4953
-66.056
-65.0674
-64.1942
-64.128
-63.9463
-63.8378
-63.9321
-64.2667
-65.2318
-66.7814
-66.0961
-70.4982
-69.2431
-67.5063
-66.1537
-65.4918
-65.3312
-65.1096
-64.5914
-64.3711
-64.4234
-65.0144
-65.7177
-68.3076
-67.6131
-71.5693
-70.5006
-69.2863
-67.4313
-66.6432
-65.7806
-65.4385
-65.2792
-65.0029
-64.9686
-65.2414
-65.7473
-67.3313
-69.2937
-67.7558
-71.7831
-70.3231
-69.5186
-68.6408
-67.7508
-66.9761
-66.209
-65.5178
-65.3646
-65.2733
-65.6268
-65.834
-66.7908
-67.7543
-67.6703
-58.9056
-58.9591
-59.06
-58.9485
-59.1557
-59.3082
-59.2922
-59.1267
-59.3659
-59.77
-59.6643
-59.4076
-59.2842
-59.5546
-60.1658
-60.1265
-59.81
-59.7157
-59.5525
-59.8342
-60.8887
-60.4362
-60.2718
-60.1121
-59.868
-59.8118
-60.2684
-61.4532
-60.9845
-60.8302
-60.6029
-60.251
-60.3947
-60.3163
-60.9197
-62.049
-61.5451
-61.3885
-61.1067
-60.8762
-60.8799
-60.8453
-60.7321
-61.5768
-63.1826
-62.5951
-61.9623
-61.6357
-61.3676
-61.3858
-61.3936
-61.3546
-61.7421
-62.6056
-64.5119
-63.5153
-62.8536
-62.2513
-61.9758
-61.9645
-62.0296
-61.9877
-62.5568
-63.596
-64.7573
-66.3003
-65.2325
-64.336
-63.1208
-62.6786
-62.5612
-62.5702
-62.5404
-62.7764
-64.007
-64.8971
-65.4862
-67.7899
-66.3287
-65.4032
-64.2754
-63.5437
-63.3004
-63.5668
-63.2219
-63.3448
-64.1743
-64.9533
-66.2299
-67.0466
-69.7436
-67.7434
-66.2675
-65.2056
-64.2693
-64.0656
-63.8686
-63.8618
-63.8855
-64.1308
-65.077
-66.424
-68.5871
-68.5567
-70.7308
-69.4347
-67.7696
-66.2605
-65.5289
-65.266
-65.1846
-64.6089
-64.3495
-64.3444
-64.8904
-65.5973
-68.1741
-70.991
-69.3056
-71.7084
-70.6894
-69.3939
-67.5662
-66.678
-65.8427
-65.5256
-65.2989
-64.9481
-64.9278
-65.1686
-65.6594
-67.1961
-69.2353
-69.5514
-67.657
-71.8033
-70.3741
-69.5356
-68.6506
-67.7839
-67.0026
-66.2568
-65.5457
-65.3542
-65.238
-65.5611
-65.8172
-66.7402
-67.7434
-67.6877
-67.0339
-58.7356
-58.7975
-58.9626
-58.8254
-58.8653
-59.1886
-59.1311
-58.9139
-59.1844
-59.5226
-59.351
-59.1715
-59.1312
-59.3444
-59.8769
-59.762
-59.5257
-59.347
-59.2216
-59.5108
-60.2545
-60.1244
-59.89
-59.7584
-59.5599
-59.4565
-59.7394
-60.9451
-60.6334
-60.3829
-60.1662
-59.8838
-59.8424
-59.8426
-60.4314
-61.6278
-61.0848
-60.8786
-60.6347
-60.4241
-60.315
-60.3948
-60.1551
-60.9297
-62.254
-61.7187
-61.5967
-61.2045
-60.942
-60.8707
-60.8724
-60.7302
-61.0468
-61.79
-63.3222
-62.8234
-62.1615
-61.7514
-61.4579
-61.4015
-61.4414
-61.3767
-61.6055
-62.315
-63.9038
-64.7448
-63.7416
-63.0151
-62.4419
-62.0418
-62.0087
-62.0129
-61.9756
-62.235
-63.2958
-64.2896
-65.2363
-66.595
-65.2863
-64.3744
-63.2992
-62.7638
-62.6707
-62.6215
-62.5672
-62.5646
-63.5645
-64.535
-65.4883
-66.4542
-68.0697
-66.5885
-65.5654
-64.4251
-63.6553
-63.3275
-63.5697
-63.1557
-63.3235
-63.9865
-64.5629
-65.97
-67.3571
-69.0972
-70.0255
-68.0003
-66.4187
-65.3612
-64.4384
-63.9946
-63.8916
-63.9382
-63.8236
-64.0358
-64.8576
-66.1238
-68.0418
-70.2294
-70.9255
-71.0625
-69.6263
-67.9212
-66.4303
-65.589
-65.1877
-65.2454
-64.6528
-64.3946
-64.2601
-64.7593
-65.426
-68.0356
-71.0162
-69.9099
-69.4917
-71.8479
-70.7955
-69.4861
-67.6785
-66.7584
-65.9282
-65.5773
-65.2662
-64.886
-64.887
-65.0964
-65.5719
-67.0698
-69.1598
-69.6087
-67.9345
-66.9985
-71.8196
-70.4325
-69.6622
-68.727
-67.8298
-67.056
-66.2844
-65.5802
-65.3486
-65.253
-65.5277
-65.7897
-66.6855
-67.7201
-67.7019
-67.0628
-66.141
-58.6792
-58.6648
-58.8167
-58.7278
-58.8187
-59.059
-58.9376
-58.8116
-59.0059
-59.2321
-59.1496
-59.0869
-58.9095
-59.0862
-59.5723
-59.4116
-59.2576
-59.0705
-58.9795
-59.1489
-59.9434
-59.7885
-59.5803
-59.4431
-59.2659
-59.1294
-59.398
-60.4272
-60.2236
-59.9676
-59.8057
-59.6675
-59.496
-59.4354
-59.8055
-61.0233
-60.8374
-60.5277
-60.2402
-60.005
-59.9386
-59.9203
-59.7118
-60.1513
-61.6746
-61.2594
-60.9149
-60.7119
-60.4733
-60.3734
-60.3369
-60.2105
-60.3211
-61.1339
-62.4305
-61.8792
-61.6998
-61.2379
-61.0462
-60.8983
-60.8396
-60.7981
-60.8835
-61.2054
-62.5338
-63.5833
-63.0057
-62.3029
-61.8556
-61.5478
-61.4195
-61.501
-61.3751
-61.5965
-62.1524
-62.7361
-64.5751
-64.9685
-63.9724
-63.168
-62.6348
-62.1398
-62.0802
-62.0879
-61.9387
-62.0658
-62.783
-63.8702
-64.5585
-65.7624
-66.9402
-65.4755
-64.588
-63.4869
-62.8763
-62.6601
-62.6617
-62.6331
-62.4888
-63.3437
-64.2742
-65.1509
-66.3427
-67.6869
-68.3864
-66.8815
-65.7414
-64.6209
-63.7656
-63.3909
-63.473
-63.1697
-63.324
-63.8422
-64.3149
-65.6085
-67.0367
-68.9306
-70.1465
-70.332
-68.2993
-66.7323
-65.4885
-64.4896
-63.915
-63.9281
-64.0057
-63.8074
-63.9323
-64.6201
-65.8512
-67.5068
-70.1978
-69.115
-69.728
-71.3513
-69.8769
-68.1173
-66.5982
-65.6673
-65.2046
-65.2879
-64.6883
-64.3674
-64.1792
-64.5995
-65.2637
-67.7599
-70.9401
-70.142
-68.0246
-67.8418
-71.9831
-70.8533
-69.5291
-67.7473
-66.8259
-65.96
-65.5782
-65.298
-64.8887
-64.8499
-65.0212
-65.4785
-66.9378
-69.0813
-69.6536
-68.0333
-66.6868
-66.1159
-71.8375
-70.5043
-69.7282
-68.8154
-67.8967
-67.1252
-66.3204
-65.6145
-65.3477
-65.2826
-65.5049
-65.7437
-66.6301
-67.6888
-67.7096
-67.0888
-66.1666
-65.3489
-58.6218
-58.6605
-58.7587
-58.6606
-58.7149
-58.8848
-58.81
-58.6661
-58.7651
-59.0372
-59.0283
-58.8857
-58.7863
-58.8565
-59.3151
-59.2059
-59.117
-58.9521
-58.8224
-58.8728
-59.6637
-59.5067
-59.3661
-59.1883
-59.075
-58.9008
-59.0522
-60.0191
-59.7589
-59.7229
-59.5426
-59.286
-59.1785
-59.1669
-59.3713
-60.5454
-60.3229
-60.0565
-59.9215
-59.6772
-59.5
-59.5403
-59.4423
-59.6768
-61.0793
-60.9883
-60.6388
-60.3888
-60.1099
-60.0171
-60.0313
-59.7281
-59.8062
-60.314
-61.6765
-61.4107
-61.0486
-60.8806
-60.5043
-60.4375
-60.3899
-60.2738
-60.501
-60.3429
-61.2835
-62.5337
-61.917
-61.7437
-61.3464
-61.1437
-60.9227
-60.9004
-60.8643
-60.906
-61.1741
-61.3723
-62.8935
-63.8444
-63.1598
-62.4617
-61.9273
-61.6268
-61.4645
-61.5132
-61.4135
-61.4482
-61.9354
-62.4755
-63.0894
-64.7843
-65.2311
-64.1989
-63.4666
-62.8588
-62.2397
-62.1104
-62.1471
-61.9753
-62.0338
-62.6457
-63.5437
-64.4325
-65.3659
-66.544
-67.1834
-65.6962
-64.6649
-63.6274
-62.9659
-62.7211
-62.6211
-62.6181
-62.4872
-63.2106
-64.0365
-64.9052
-66.1477
-66.9022
-69.0622
-68.7473
-67.1509
-65.9565
-64.7256
-63.9285
-63.4968
-63.4436
-63.2785
-63.3332
-63.7116
-64.1618
-65.2048
-66.7067
-68.7146
-68.4054
-68.9994
-70.6383
-68.5763
-67.0336
-65.632
-64.3747
-63.8696
-63.9013
-64.0343
-63.8147
-63.8889
-64.4026
-65.5815
-67.1339
-70.0039
-69.2565
-68.0868
-67.8732
-71.6569
-70.1421
-68.3807
-66.7843
-65.7629
-65.234
-65.316
-64.7598
-64.3866
-64.1223
-64.4787
-65.1084
-67.4006
-70.7314
-70.4095
-68.1979
-67.0169
-66.6169
-72.123
-70.925
-69.613
-67.8153
-66.9106
-65.9674
-65.6164
-65.3336
-64.8948
-64.812
-64.9469
-65.3766
-66.8018
-68.9655
-69.6997
-68.1299
-66.7556
-65.8577
-65.3451
-71.8587
-70.5807
-69.6387
-68.9005
-67.9591
-67.2127
-66.3491
-65.6714
-65.3536
-65.2869
-65.4672
-65.6886
-66.5655
-67.6541
-67.7132
-67.1165
-66.1921
-65.3524
-65.0027
-58.5468
-58.5672
-58.7379
-58.5702
-58.5361
-58.8145
-58.7785
-58.6387
-58.516
-58.9484
-58.884
-58.7444
-58.6122
-58.6573
-59.1855
-59.0435
-58.9426
-58.7816
-58.6409
-58.7651
-59.4107
-59.2618
-59.1619
-59.0303
-58.9079
-58.7066
-58.8133
-59.7618
-59.5858
-59.4527
-59.2866
-59.1282
-58.9729
-58.8248
-59.0739
-60.153
-59.9663
-59.8496
-59.599
-59.3832
-59.2265
-59.1339
-59.069
-59.3468
-60.6369
-60.3473
-60.2091
-60.0099
-59.8317
-59.6392
-59.631
-59.4841
-59.4474
-59.7408
-61.1946
-61.0343
-60.7029
-60.4874
-60.2516
-60.0977
-60.0996
-59.6959
-59.9373
-59.6656
-60.2708
-61.7886
-61.6125
-61.1894
-60.9757
-60.6823
-60.4674
-60.423
-60.318
-60.4076
-60.3586
-60.4737
-61.5425
-62.7124
-62.0808
-61.7856
-61.4551
-61.182
-61.0477
-60.9117
-60.9245
-60.9294
-61.0574
-61.2815
-61.6316
-63.2026
-64.0243
-63.3321
-62.6323
-62.0396
-61.7831
-61.6006
-61.476
-61.4824
-61.3831
-61.7692
-62.2734
-63.0273
-63.5868
-65.3866
-65.4309
-64.5105
-63.5634
-62.9777
-62.397
-62.1855
-62.1727
-61.9795
-61.9695
-62.473
-63.2637
-64.1519
-65.0908
-65.4737
-67.2153
-67.4925
-65.9627
-64.7707
-63.8025
-63.0573
-62.84
-62.7101
-62.6109
-62.4872
-63.0496
-63.7683
-64.5942
-65.9049
-66.8096
-67.0737
-68.2995
-69.0999
-67.4545
-66.1469
-64.8919
-63.9806
-63.5293
-63.3034
-63.3396
-63.3951
-63.6749
-64.0324
-64.9625
-66.4628
-68.4059
-68.4649
-67.627
-67.9402
-70.9605
-68.8241
-67.2654
-65.8322
-64.5722
-63.9013
-63.9094
-64.1029
-63.8382
-63.7468
-64.1119
-65.3248
-66.8362
-69.6624
-69.4733
-68.2604
-66.9553
-66.9213
-71.9559
-70.4087
-68.609
-66.9931
-65.8329
-65.2809
-65.3425
-64.8664
-64.4156
-64.0922
-64.4249
-64.9826
-67.0637
-70.4686
-70.6851
-68.4302
-67.0834
-66.1621
-65.812
-72.2597
-70.9834
-69.8365
-67.9164
-66.9891
-65.9925
-65.709
-65.3682
-64.917
-64.7935
-64.8826
-65.2627
-66.6675
-68.8177
-69.7508
-68.2205
-66.8227
-65.9037
-65.2541
-64.9997
-71.8822
-70.6585
-69.5572
-68.9786
-67.9743
-67.2519
-66.3882
-65.7306
-65.3502
-65.2767
-65.4213
-65.6511
-66.4921
-67.6189
-67.7117
-67.1413
-66.2141
-65.3698
-65.0047
-64.6576
-58.5063
-58.5701
-58.7616
-58.6038
-58.5026
-58.7584
-58.7133
-58.5986
-58.4487
-58.8864
-58.791
-58.7318
-58.517
-58.5168
-59.0332
-58.897
-58.8121
-58.662
-58.4931
-58.5753
-59.2491
-59.0971
-58.9686
-58.8935
-58.6996
-58.4854
-58.5962
-59.508
-59.3322
-59.2273
-59.0809
-58.9793
-58.7893
-58.5801
-58.7431
-59.8193
-59.7107
-59.5311
-59.2951
-59.2304
-59.0503
-58.8733
-58.7253
-58.9657
-60.2722
-60.0966
-59.9213
-59.5685
-59.5096
-59.3182
-59.1595
-59.1497
-59.0001
-59.3486
-60.7973
-60.4802
-60.3017
-60.0464
-59.9253
-59.7382
-59.7223
-59.489
-59.4289
-59.2632
-59.6448
-61.3129
-61.0881
-60.846
-60.5826
-60.2966
-60.1602
-60.1183
-59.8986
-60.0154
-59.7507
-59.8778
-60.5348
-61.9989
-61.7263
-61.2912
-61.0601
-60.7432
-60.5816
-60.4642
-60.363
-60.3592
-60.38
-60.4308
-60.4513
-61.6789
-62.8141
-62.2669
-61.8999
-61.5646
-61.2332
-61.1291
-61.0202
-60.9532
-60.9461
-61.0864
-61.2675
-61.5302
-61.8598
-63.6206
-64.28
-63.5706
-62.8531
-62.1696
-61.9278
-61.681
-61.6076
-61.5749
-61.4079
-61.7636
-62.1132
-62.7547
-63.5189
-64.1063
-65.5866
-65.6749
-64.7582
-63.8057
-63.0903
-62.5148
-62.2568
-62.2204
-62.025
-61.9253
-62.3213
-62.9297
-63.7166
-64.783
-65.4011
-65.8533
-67.0935
-67.851
-66.2663
-65.0017
-63.9473
-63.2249
-62.9379
-62.7668
-62.5706
-62.5175
-62.8805
-63.5254
-64.3762
-65.5399
-66.6183
-67.0801
-66.7224
-67.4834
-69.4719
-67.7955
-66.3198
-65.1627
-64.0555
-63.6171
-63.3408
-63.3842
-63.4222
-63.6394
-63.8844
-64.8202
-66.1364
-68.0644
-68.4732
-67.8039
-66.4513
-66.8084
-71.3506
-69.089
-67.5404
-66.0357
-64.8237
-63.9892
-63.9492
-64.1914
-63.9185
-63.6918
-63.9464
-65.1148
-66.6073
-69.284
-69.7031
-68.4816
-67.1347
-66.1212
-66.0897
-72.2459
-70.7211
-68.8326
-67.2147
-65.946
-65.3484
-65.3938
-64.9487
-64.4242
-64.0427
-64.3402
-64.9069
-66.7485
-70.1637
-70.9771
-68.6921
-67.1466
-66.2404
-65.48
-65.2052
-72.3869
-71.0324
-70.061
-68.0194
-67.0753
-66.0613
-65.7234
-65.3929
-64.9242
-64.7653
-64.8337
-65.1623
-66.528
-68.651
-69.8254
-68.3197
-66.8827
-65.9359
-65.3058
-64.5579
-64.6391
-71.9014
-70.7328
-69.4686
-69.0477
-67.9669
-67.2486
-66.455
-65.7562
-65.3496
-65.2671
-65.3756
-65.6188
-66.4225
-67.5793
-67.7022
-67.1652
-66.2336
-65.3944
-65.0026
-64.6706
-64.644
-58.592
-58.4602
-58.5671
-58.4414
-58.5951
-58.7395
-58.6542
-58.5308
-58.4457
-58.8529
-58.7132
-58.5533
-58.4274
-58.3994
-58.986
-58.8594
-58.7168
-58.5976
-58.4076
-58.3855
-59.0649
-59.0005
-58.8591
-58.7416
-58.5679
-58.3108
-58.3818
-59.3301
-59.1847
-59.0491
-58.9267
-58.7641
-58.6039
-58.3408
-58.4561
-59.6097
-59.4866
-59.299
-59.169
-59.0378
-58.8422
-58.6486
-58.4925
-58.6348
-59.8598
-59.7932
-59.6132
-59.4418
-59.3625
-59.1264
-58.9475
-58.8044
-58.588
-58.8877
-60.2901
-60.1588
-59.937
-59.7015
-59.6297
-59.4315
-59.2622
-59.1794
-59.0941
-58.9479
-59.2588
-60.9548
-60.5638
-60.405
-60.1353
-59.9604
-59.7622
-59.7723
-59.5645
-59.5588
-59.4162
-59.366
-59.9187
-61.4555
-61.18
-60.9178
-60.6402
-60.394
-60.1985
-60.1883
-60.0256
-60.0231
-59.8081
-59.8529
-59.5076
-60.3772
-62.0781
-61.7729
-61.4155
-61.1257
-60.8382
-60.6731
-60.5675
-60.4039
-60.4634
-60.4454
-60.4577
-60.4733
-60.7814
-62.0644
-62.9975
-62.4362
-62.0025
-61.68
-61.3651
-61.1959
-61.0869
-61.0024
-61.0012
-61.0477
-61.2184
-61.4221
-61.9436
-62.8466
-64.1999
-64.4366
-63.8188
-63.0045
-62.3323
-61.9739
-61.733
-61.6688
-61.6227
-61.4781
-61.6446
-61.9368
-62.5225
-63.4493
-64.0605
-64.6727
-65.9345
-66.1145
-64.9867
-64.0454
-63.261
-62.6931
-62.3516
-62.2963
-62.1164
-61.9679
-62.1686
-62.8391
-63.5544
-64.5144
-65.2648
-65.8338
-66.1248
-66.737
-68.2316
-66.5849
-65.1912
-64.1759
-63.3208
-63.0442
-62.795
-62.4819
-62.6309
-62.8553
-63.3942
-64.1851
-65.2033
-66.3775
-66.9748
-66.6997
-66.1081
-66.47
-69.8791
-68.099
-66.6417
-65.4164
-64.3435
-63.7249
-63.5326
-63.4742
-63.4961
-63.5758
-63.6911
-64.6204
-65.8493
-67.6975
-68.5516
-68.0377
-66.5081
-65.6468
-66.0189
-71.7032
-69.4838
-67.8897
-66.1088
-64.9001
-64.0515
-63.9696
-64.2807
-63.9904
-63.923
-63.8975
-64.9884
-66.373
-68.8636
-69.9881
-68.7145
-67.344
-66.2215
-65.2526
-65.4004
-72.5004
-71.0112
-69.0625
-67.4486
-66.0909
-65.3812
-65.267
-64.9568
-64.4473
-64.0068
-64.2567
-64.8361
-66.4872
-69.821
-71.1978
-68.9428
-67.2643
-66.3305
-65.5636
-64.7251
-64.5208
-72.5084
-71.1069
-70.2808
-68.1164
-67.1832
-66.1699
-65.7274
-65.4395
-64.9434
-64.7438
-64.7788
-65.0806
-66.4029
-68.4723
-69.8797
-68.4066
-66.9422
-65.9614
-65.3617
-64.6099
-64.5793
-64.6433
-71.9174
-70.7791
-69.4184
-69.1083
-67.9746
-67.224
-66.5127
-65.782
-65.3562
-65.2635
-65.3506
-65.5817
-66.3439
-67.5331
-67.6827
-67.193
-66.2498
-65.4016
-64.9979
-64.6681
-64.644
-64.6645
-58.4138
-58.5423
-58.4693
-58.4417
-58.4173
-58.6151
-58.5764
-58.4283
-58.4201
-58.7262
-58.7142
-58.5901
-58.3796
-58.3302
-58.9367
-58.8525
-58.677
-58.5301
-58.3357
-58.3585
-59.0798
-58.9648
-58.8299
-58.6388
-58.4545
-58.2137
-58.2173
-59.1628
-59.0721
-58.9337
-58.8424
-58.6836
-58.4286
-58.1848
-58.2814
-59.419
-59.2927
-59.1637
-58.978
-58.8638
-58.6689
-58.4924
-58.2228
-58.3417
-59.6769
-59.5846
-59.42
-59.3279
-59.0932
-58.9549
-58.6582
-58.5637
-58.1726
-58.4577
-60.0659
-59.8983
-59.6659
-59.5697
-59.4472
-59.239
-59.1164
-58.8895
-58.7159
-58.5869
-58.8716
-60.4327
-60.3551
-60.03
-59.858
-59.6932
-59.5673
-59.4841
-59.2432
-59.1489
-59.0221
-59.0251
-59.3332
-60.9969
-60.7283
-60.4672
-60.2337
-60.0674
-59.881
-59.8132
-59.6184
-59.6487
-59.4801
-59.4301
-59.183
-59.4704
-61.685
-61.2078
-61.0948
-60.674
-60.5092
-60.2741
-60.2588
-60.1073
-59.9865
-59.8591
-59.847
-59.7407
-60.3422
-61.0636
-62.1947
-61.8765
-61.554
-61.1842
-60.9537
-60.8221
-60.5873
-60.5094
-60.4459
-60.3579
-60.3983
-60.524
-60.7591
-61.9606
-63.0263
-63.2892
-62.6179
-62.1496
-61.7921
-61.5096
-61.2746
-61.1342
-61.0133
-61.0786
-60.9287
-61.1611
-61.3231
-61.895
-62.8519
-63.5935
-64.8198
-64.7795
-63.9061
-63.1603
-62.5017
-62.0691
-61.8094
-61.6973
-61.7241
-61.5198
-61.5866
-61.9356
-62.4261
-63.3127
-64.0382
-64.5215
-65.0898
-66.1959
-66.3983
-65.1879
-64.2649
-63.446
-62.7896
-62.4595
-62.3627
-62.1786
-62.0508
-62.1695
-62.6873
-63.4152
-64.2332
-65.1008
-65.8076
-66.0141
-65.6995
-66.1054
-68.6547
-66.8127
-65.4384
-64.3642
-63.5327
-63.1177
-62.8907
-62.4608
-62.703
-62.8903
-63.2909
-63.9615
-64.9157
-66.1902
-67.0327
-66.7288
-66.1249
-65.3358
-65.632
-70.2636
-68.4211
-67.0198
-65.6036
-64.5288
-63.8317
-63.4664
-63.5053
-63.6066
-63.5388
-63.5371
-64.4211
-65.5716
-67.3137
-68.6933
-68.2687
-66.5752
-65.6771
-64.9343
-65.2137
-72.0106
-69.8759
-68.1355
-66.392
-65.0299
-64.1569
-63.9562
-64.3213
-64.0432
-63.8371
-63.6801
-64.7638
-66.0925
-68.3736
-70.1321
-68.9495
-67.5402
-66.3411
-65.35
-64.672
-64.6396
-72.6026
-71.2954
-69.287
-67.6407
-66.2272
-65.4691
-65.2539
-65.0608
-64.5378
-64.2011
-64.198
-64.7595
-66.2908
-69.4324
-71.2097
-69.2063
-67.3899
-66.429
-65.6415
-64.8224
-64.6738
-64.5744
-72.6202
-71.2288
-70.473
-68.2234
-67.2716
-66.2655
-65.7854
-65.505
-64.9767
-64.7363
-64.7271
-64.9955
-66.3138
-68.2849
-69.8747
-68.4839
-67.0022
-65.982
-65.4169
-64.6733
-64.5906
-64.6006
-64.6416
-71.9484
-70.8325
-69.4307
-69.1694
-67.9961
-67.182
-66.5528
-65.8125
-65.3605
-65.26
-65.3189
-65.5202
-66.2546
-67.4881
-67.6592
-67.2096
-66.2625
-65.4109
-64.9926
-64.67
-64.6428
-64.6744
-64.8819
-58.3873
-58.4713
-58.5055
-58.377
-58.4639
-58.5477
-58.4894
-58.3662
-58.3533
-58.7601
-58.6299
-58.5043
-58.256
-58.2575
-58.816
-58.7829
-58.6469
-58.4648
-58.2124
-58.2054
-58.9982
-58.8834
-58.7462
-58.6106
-58.375
-58.1115
-58.1238
-59.191
-59.067
-58.8831
-58.7563
-58.5636
-58.3345
-58.0506
-58.1115
-59.2201
-59.1405
-59.028
-58.8825
-58.7758
-58.5576
-58.2878
-58.0346
-58.1348
-59.5093
-59.3554
-59.2433
-58.9996
-58.9397
-58.7746
-58.5699
-58.3097
-58.0041
-58.1669
-59.7893
-59.693
-59.4863
-59.3182
-59.1255
-59.0011
-58.7853
-58.6636
-58.2698
-58.2656
-58.4385
-60.0548
-59.9715
-59.7831
-59.6706
-59.4796
-59.3803
-59.214
-58.9788
-58.7719
-58.6859
-58.4632
-58.9358
-60.6567
-60.3716
-60.143
-59.9546
-59.7695
-59.693
-59.5128
-59.3366
-59.242
-59.0715
-59.0047
-58.6961
-59.1273
-61.1009
-60.8655
-60.5276
-60.3999
-60.2055
-59.997
-59.8839
-59.7162
-59.6093
-59.5112
-59.4142
-59.2706
-59.7293
-60.3256
-61.5922
-61.3747
-61.1872
-60.738
-60.5949
-60.471
-60.2704
-60.1787
-60.0649
-59.9862
-59.8544
-59.9801
-60.1631
-61.9413
-62.2686
-62.3999
-61.9974
-61.6202
-61.2806
-61.033
-60.9015
-60.6478
-60.6418
-60.5423
-60.4409
-60.4047
-60.5745
-60.8259
-61.6933
-63.4192
-63.9427
-63.4079
-62.7369
-62.3338
-61.9149
-61.5907
-61.359
-61.184
-61.0755
-61.1156
-60.9667
-61.1494
-61.3846
-61.8713
-62.6527
-63.4158
-65.1907
-65.2198
-65.1922
-64.1582
-63.3745
-62.667
-62.1645
-61.8905
-61.7447
-61.7355
-61.5745
-61.5413
-61.7636
-62.3712
-63.073
-63.8918
-64.4389
-65.2117
-65.2516
-65.6666
-66.6402
-65.4785
-64.4953
-63.628
-62.8778
-62.546
-62.4166
-62.3051
-62.0277
-62.2465
-62.4149
-63.2301
-63.9607
-64.862
-65.6355
-65.8704
-65.7027
-65.2426
-65.3729
-69.1948
-67.2267
-65.75
-64.596
-63.7604
-63.2247
-63.0191
-62.5796
-62.7025
-62.8331
-63.1564
-63.7255
-64.6744
-65.8927
-66.9409
-66.7505
-66.1499
-65.3709
-64.7355
-64.8238
-70.6682
-68.9094
-67.2418
-65.8008
-64.4307
-63.9114
-63.4542
-63.3571
-63.5787
-63.5938
-63.4412
-64.2078
-65.316
-66.9396
-68.565
-68.4851
-66.7302
-65.7573
-64.9558
-64.3143
-64.6038
-72.3355
-70.166
-68.353
-66.8126
-65.3002
-64.2258
-64.0387
-64.3216
-64.085
-63.6483
-63.5231
-64.5396
-65.843
-67.9524
-70.1548
-69.2075
-67.7283
-66.4297
-65.454
-64.7581
-64.367
-64.6715
-72.9644
-71.5621
-69.5269
-67.8596
-66.3768
-65.5468
-65.4456
-65.2466
-64.5984
-64.1835
-64.1564
-64.6449
-66.1025
-69.0156
-71.1293
-69.4891
-67.5186
-66.5511
-65.7124
-64.9236
-64.6937
-64.371
-64.6089
-72.7232
-71.3592
-70.6084
-68.3559
-67.3589
-66.4033
-65.8468
-65.5612
-65.0182
-64.7342
-64.6908
-64.8902
-66.2223
-68.1089
-69.8144
-68.5419
-67.0619
-65.9979
-65.4741
-64.7348
-64.6068
-64.6057
-64.8663
-64.8824
-71.9977
-70.8686
-69.4412
-69.228
-68.02
-67.1436
-66.5811
-65.8569
-65.3741
-65.2609
-65.276
-65.4419
-66.2008
-67.4361
-67.6335
-67.211
-66.273
-65.4162
-64.987
-64.6724
-64.6434
-64.6819
-64.8803
-64.6495
-58.25
-58.3986
-58.4032
-58.3428
-58.3629
-58.5085
-58.3726
-58.263
-58.2662
-58.5987
-58.5951
-58.5062
-58.2827
-58.1884
-58.7066
-58.6076
-58.5846
-58.4136
-58.0951
-58.0878
-58.8821
-58.8235
-58.7103
-58.5437
-58.311
-58.0668
-58.0479
-59.0202
-58.9085
-58.8326
-58.6674
-58.4382
-58.1748
-57.8626
-57.9526
-59.2199
-59.1476
-58.9655
-58.9204
-58.6232
-58.4186
-58.1416
-57.8552
-57.9476
-59.3825
-59.2227
-59.0901
-58.9693
-58.7697
-58.6177
-58.4066
-58.1445
-57.821
-57.9401
-59.5331
-59.4857
-59.3295
-59.1959
-59.1607
-58.8578
-58.5611
-58.4423
-58.1201
-57.8958
-58.0907
-59.8427
-59.6877
-59.5798
-59.3893
-59.3246
-59.1443
-58.968
-58.7378
-58.3759
-58.3785
-57.8612
-58.3269
-60.0752
-59.9858
-59.8408
-59.7009
-59.6029
-59.4281
-59.2307
-59.0942
-58.9169
-58.793
-58.6059
-58.3444
-58.6177
-60.5323
-60.4596
-60.1491
-60.0504
-59.8394
-59.8927
-59.597
-59.4735
-59.3607
-59.1769
-59.0656
-58.8356
-59.0249
-59.6287
-61.1817
-60.9257
-60.7599
-60.517
-60.295
-60.0887
-59.9642
-59.8051
-59.707
-59.6214
-59.5372
-59.5615
-59.8448
-61.0364
-62.3331
-61.6614
-61.4512
-61.2467
-61.0286
-60.7599
-60.4805
-60.289
-60.2936
-60.2082
-60.0776
-60.0069
-60.1001
-60.0245
-61.384
-64.1639
-63.8948
-62.5434
-62.2127
-61.726
-61.3918
-61.0936
-60.8889
-60.7254
-60.6843
-60.6355
-60.5443
-60.5161
-60.6349
-60.8596
-61.5791
-63.3558
-64.7771
-65.1659
-63.6448
-62.9153
-62.4863
-62.0433
-61.6983
-61.4569
-61.2707
-61.126
-61.0801
-61.0269
-61.1414
-61.4327
-61.8403
-62.5863
-63.4853
-64.7367
-64.9871
-65.31
-65.5264
-64.4776
-63.584
-62.824
-62.1805
-61.9599
-61.7552
-61.6854
-61.6275
-61.5378
-61.6368
-62.2038
-62.8207
-63.7125
-64.2383
-64.9269
-65.0838
-65.1266
-65.1072
-67.0403
-65.7344
-64.7305
-63.7038
-63.1169
-62.6758
-62.5496
-62.4129
-62.0435
-62.2438
-62.3231
-63.0385
-63.7368
-64.6008
-65.2643
-65.7539
-65.7677
-65.2561
-64.4161
-64.6554
-69.6163
-67.7735
-66.0407
-64.9362
-63.9154
-63.3553
-63.1705
-62.6459
-62.6792
-62.8442
-63.0217
-63.5136
-64.4836
-65.6157
-66.7671
-66.7532
-66.1579
-65.4029
-64.8047
-64.1382
-64.2735
-71.0793
-69.311
-67.5769
-66.078
-64.6525
-63.9915
-63.5117
-63.2732
-63.6316
-63.5615
-63.3241
-63.9468
-65.1092
-66.7162
-68.3422
-68.7139
-66.9504
-65.8242
-65.0231
-64.4034
-64.0823
-64.3249
-72.7471
-70.4757
-68.6115
-67.0716
-65.542
-64.2848
-64.0947
-64.4249
-64.0843
-63.8011
-63.5381
-64.3812
-65.6431
-67.6128
-69.9763
-69.4823
-67.9443
-66.5278
-65.5048
-64.8256
-64.3963
-64.1532
-64.3714
-73.0742
-71.8521
-69.7654
-68.0583
-66.4993
-65.6325
-65.543
-65.3119
-64.648
-64.1872
-64.0681
-64.5446
-65.9168
-68.6319
-70.9843
-69.7236
-67.6564
-66.6823
-65.7782
-65.0062
-64.7088
-64.3899
-64.5704
-64.9052
-72.8446
-71.4954
-70.7306
-68.4909
-67.4564
-66.5699
-65.8827
-65.6032
-65.0735
-64.7395
-64.6581
-64.8028
-66.104
-67.951
-69.7313
-68.5827
-67.1236
-66.0079
-65.5289
-64.7978
-64.632
-64.6161
-64.8297
-64.3416
-64.6538
-72.0532
-70.9014
-69.3863
-69.2583
-68.0516
-67.1173
-66.6049
-65.8979
-65.388
-65.2585
-65.2716
-65.4037
-66.164
-67.3674
-67.6055
-67.21
-66.2816
-65.4193
-64.9813
-64.6744
-64.6474
-64.689
-64.8795
-64.6452
-64.3109
-58.2363
-58.3366
-58.1895
-58.3028
-58.4754
-58.3807
-58.2175
-58.1788
-58.4394
-58.4706
-58.3403
-58.1439
-58.1064
-58.7699
-58.6715
-58.5762
-58.356
-58.0793
-57.9631
-58.8394
-58.6561
-58.6587
-58.5027
-58.205
-57.9202
-57.9245
-59.0203
-58.8331
-58.7996
-58.6268
-58.3777
-58.1004
-57.8258
-57.8563
-59.0881
-58.9876
-58.8835
-58.7568
-58.5892
-58.3263
-58.0819
-57.718
-57.7662
-59.2619
-59.1833
-59.0529
-58.9793
-58.6953
-58.5596
-58.3073
-57.9637
-57.721
-57.7407
-59.4717
-59.3977
-59.2125
-59.0754
-58.8643
-58.7643
-58.455
-58.2422
-57.8948
-57.6421
-57.7449
-59.6179
-59.5311
-59.3989
-59.2628
-59.1723
-59.0232
-58.7484
-58.56
-58.2546