/*--------------------------------*- C++ -*----------------------------------*\
  =========                 |
  \\      /  F ield         | OpenFOAM: The Open Source CFD Toolbox
   \\    /   O peration     | Website:  https://openfoam.org
    \\  /    A nd           | Version:  7
     \\/     M anipulation  |
\*---------------------------------------------------------------------------*/
FoamFile
{
    version     2.0;
    format      ascii;
    class       surfaceScalarField;
    location    "5";
    object      phi;
}
// * * * * * * * * * * * * * * * * * * * * * * * * * * * * * * * * * * * * * //

dimensions      [0 3 -1 0 0 0 0];

internalField   nonuniform List<scalar> 
54006
(
-0.000125055
0.00224238
-0.00214969
-3.29498e-05
-0.000181214
0.0038015
-0.0037687
6.28145e-05
-0.000129883
-3.22742e-05
-0.000152997
-0.00203336
-3.72196e-05
-0.000106398
0.00404997
-0.00395974
-1.67857e-05
-0.000366756
0.0049234
-0.00487379
-5.69301e-05
-0.000192711
6.20495e-05
-0.000241266
-0.00371523
8.12568e-05
-0.000151897
0.00434636
-0.00431757
7.95315e-05
-0.00010061
-1.64686e-05
-0.000146766
-0.00192277
-3.72933e-05
-0.000140935
-0.00383723
-1.87923e-05
-9.70404e-05
0.00379902
-0.00369123
-2.75422e-05
-0.000452429
0.00509224
-0.00495081
0.000247687
-0.000348574
-4.73389e-05
-0.000441171
-0.00479095
-8.53511e-05
-0.000202144
0.00481175
-0.00476868
-4.97567e-05
-0.00014057
9.96833e-05
-0.00020735
-0.0036861
9.1585e-05
-0.000239635
-0.00422671
8.9094e-05
3.1654e-06
0.00397966
-0.00408099
8.06552e-05
-9.10345e-05
-2.72663e-05
-0.000150055
-0.00180678
-3.31167e-05
-0.000151606
-0.00370319
-1.97279e-05
-0.000120939
-0.00355718
-3.18933e-05
-6.95382e-05
0.00336982
-0.00328744
-4.03883e-05
-0.000402683
0.00629807
-0.0062997
0.000613083
-0.0003596
0.000242133
-0.000542661
-0.00482355
0.000270052
-0.000264202
0.00537948
-0.00526974
0.000200003
-0.000153826
-5.17856e-05
-0.000409034
-0.00470126
-9.06785e-05
-0.000298602
-0.0047433
-5.1766e-05
7.94753e-05
0.00552619
-0.00560024
-5.20224e-05
1.3526e-05
9.58465e-05
-0.000242074
-0.00362626
8.92592e-05
-0.000282419
-0.00406515
6.08326e-05
-1.02489e-05
-0.00418422
8.16369e-05
9.18566e-05
0.00340958
-0.00358579
9.54655e-05
-6.89456e-05
-3.85647e-05
-0.000156705
-0.00168211
-2.90929e-05
-0.000162169
-0.0035529
-2.12323e-05
-0.000123597
-0.00341854
-3.47785e-05
-9.19013e-05
-0.00317896
-4.8469e-05
-7.63598e-05
0.00351528
-0.00346034
-1.89693e-05
-0.000326516
0.00668848
-0.00661936
0.000935507
-0.000344665
0.000593496
-0.000627917
-0.00623918
0.000726267
-0.000383174
0.00626
-0.00609285
0.000564912
-0.00016661
0.000200247
-0.00048458
-0.00475096
0.00026491
-0.000348939
-0.00517688
0.00022753
-7.20112e-06
0.00533
-0.00522362
0.000180306
0.000109295
-6.14095e-05
-0.000444522
-0.00458827
-8.90006e-05
-0.000364572
-0.00469172
-6.0103e-05
5.76186e-05
-0.00569644
-2.34359e-05
0.000283671
0.00573662
-0.00601111
3.06485e-05
5.93639e-05
9.93032e-05
-0.000272341
-0.00355277
8.20023e-05
-0.000316017
-0.00387455
5.25119e-05
-4.63384e-05
-0.00426044
5.97958e-05
8.08544e-05
-0.00378434
0.000107439
-3.13226e-06
0.00330641
-0.00341297
0.000128792
-6.72899e-05
-1.65985e-05
-0.000164495
-0.00154832
-2.5743e-05
-0.000178528
-0.00338093
-2.25368e-05
-0.000138984
-0.00326458
-3.62088e-05
-8.70606e-05
-0.00307434
-5.23373e-05
-7.27219e-05
-0.00341039
-2.56972e-05
-8.31954e-05
0.00386343
-0.00380313
3.93048e-06
-0.000336571
0.0066255
-0.00646814
0.00128771
-0.000444829
0.000957613
-0.000607904
-0.00646502
0.0011108
-0.000329859
0.00610628
-0.00619303
0.000968941
-0.000210127
0.000568352
-0.000492102
-0.00603096
0.000677135
-0.000516296
-0.00586749
0.000668265
2.96845e-05
0.00580013
-0.00582788
0.000555779
3.76306e-05
0.000195663
-0.000568811
-0.00465608
0.000281845
-0.000392824
-0.00511736
0.000233641
-8.59147e-05
-0.00505143
0.00019887
0.000307797
0.00599902
-0.00600499
0.00016215
0.000272162
8.51336e-05
-0.000463117
-0.00443283
-0.000107356
-0.00041368
-0.00462753
-5.55296e-05
-3.26285e-05
-0.00573877
-3.14774e-05
0.000238427
-0.00620291
1.07933e-05
0.000242637
0.00444217
-0.00480102
0.000143727
-3.29815e-05
0.000132069
-0.000308911
-0.00345185
6.82559e-05
-0.000326455
-0.00369615
5.15314e-05
-7.87365e-05
-0.00432301
5.48279e-05
6.09848e-05
-0.00399193
0.000119336
9.3432e-05
-0.00362362
0.000151938
-0.000133232
0.0036213
-0.00353627
9.37983e-05
-6.78857e-05
4.44973e-06
-0.000169041
-0.00140861
-2.29049e-05
-0.000194348
-0.00318708
-2.52418e-05
-0.000152156
-0.003096
-3.89572e-05
-8.89734e-05
-0.00296763
-5.39522e-05
-7.44858e-05
-0.00336161
-2.66326e-05
-9.32648e-05
-0.00373673
1.16643e-06
-4.3408e-05
0.00310061
-0.00305302
-2.54811e-07
-0.000175356
0.00642166
-0.00649015
0.0017498
-0.000355796
0.00133118
-0.000294161
-0.00666123
0.00145038
-4.20584e-05
0.0061034
-0.00629158
0.00118809
-0.000257851
0.000990504
-0.000383125
-0.00635095
0.00104543
-0.000464426
-0.00619643
0.00106234
0.000179054
0.00595996
-0.00603663
0.00089624
4.77497e-05
0.000578402
-0.000641353
-0.00590287
0.000701323
-0.00049376
-0.00570875
0.000619331
-7.0122e-05
-0.00577524
0.000599838
0.000219021
0.005416
-0.00532874
0.000557301
0.00027422
0.000227147
-0.00057104
-0.00461835
0.000310074
-0.000436006
-0.00505715
0.000243969
-0.000137972
-0.00499851
0.000286064
0.000261568
-0.00596055
0.000131289
0.000415753
0.00550632
-0.00579941
0.000282126
0.000117245
0.000202915
-0.000478131
-0.00428137
-9.16061e-05
-0.000328125
-0.00468246
-5.0754e-05
-9.88199e-05
-0.00573647
-3.77476e-05
0.00014017
-0.00631447
9.00319e-07
0.000347788
-0.0051567
0.000112123
-0.000175878
0.00299734
-0.00299369
0.000182725
-0.00010617
9.04276e-05
-0.000312853
-0.00334171
5.27174e-05
-0.000343992
-0.00352618
4.79299e-05
-0.000113572
-0.00436789
5.78299e-05
7.43312e-05
-0.00423476
0.000134356
0.000125204
-0.00386788
0.000163909
-0.000144392
-0.00344688
0.000113677
-5.00034e-05
0.00326984
-0.00320516
3.57076e-05
-2.97958e-05
-1.10092e-06
-0.000175963
-0.00126115
-2.00344e-05
-0.000211329
-0.00297403
-2.46336e-05
-0.000147888
-0.00292958
-4.37707e-05
-0.000115682
-0.00283793
-5.29712e-05
-6.82174e-05
-0.00331985
-2.7495e-05
-0.000101306
-0.0036648
2.73947e-06
-5.89411e-05
-0.00299542
2.50935e-06
3.3606e-05
0.00316451
-0.00319576
-2.61616e-06
-1.14305e-05
0.0060675
-0.00615791
0.00208668
-0.000132012
0.00175297
8.18902e-06
-0.00674003
0.00193913
0.000135638
0.00601562
-0.00601377
0.00157026
-7.96932e-05
0.00118854
-9.25081e-05
-0.00680534
0.00146238
-0.000187267
-0.00644985
0.00133149
0.000310399
0.00592874
-0.00598086
0.00110887
0.000230004
0.000830686
-0.000515234
-0.00623028
0.00107104
-0.000463151
-0.00616745
0.000985834
-4.64258e-06
-0.00605952
0.00101975
0.000258754
0.00541871
-0.00533886
0.00077665
0.000218187
0.000575203
-0.000623868
-0.005748
0.000679848
-0.000531618
-0.00558974
0.000677921
-0.0001676
-0.00569527
0.000568981
0.000244945
-0.00527183
0.00055955
0.000447523
0.00551126
-0.00551176
0.000526035
0.000339582
0.00029469
-0.000596441
-0.00461656
0.000334916
-0.000366782
-0.00499467
0.000286246
-0.000212213
-0.00488441
0.000243258
0.000115182
-0.00584413
0.000194631
0.000464119
-0.00605515
0.000270696
4.69495e-05
0.00339395
-0.00354091
0.00020626
-0.000120433
0.000146952
-0.000459574
-0.00413124
-7.97533e-05
-0.000389028
-0.00465976
-6.92724e-05
-0.000189278
-0.00571366
2.14206e-06
9.11783e-05
-0.00637149
2.42497e-06
0.000385909
-0.00551528
9.87763e-05
-0.000225082
-0.00299454
0.000193664
4.51902e-05
0.00311135
-0.0031145
9.06842e-05
-1.71969e-05
2.70908e-05
-0.000336211
-0.00321936
5.38416e-05
-0.000384751
-0.00333593
3.58847e-05
-9.9037e-05
-0.0044288
5.9995e-05
1.0131e-05
-0.004453
0.000150252
0.00016927
-0.00415123
0.000180213
-0.00014905
-0.00335841
0.000123184
-9.05493e-05
-0.00310376
4.38884e-05
9.32607e-05
0.00340152
-0.00342499
-4.72266e-07
4.95479e-05
-4.085e-06
-0.000180833
-0.00110554
-2.0273e-05
-0.000213878
-0.00275378
-2.64046e-05
-0.000177603
-0.00273075
-4.58651e-05
-0.000121561
-0.00270645
-5.36867e-05
-5.65244e-05
-0.00329193
-2.43653e-05
-0.000115382
-0.00357965
2.739e-06
-7.83993e-05
-0.00291246
-1.81707e-06
3.49772e-06
-0.00319709
3.42743e-07
0.000105076
0.00296867
-0.00306475
-1.16116e-05
8.84748e-05
0.00588502
-0.00588292
0.0020051
3.89568e-06
0.00204357
3.56549e-05
-0.00615273
0.00241083
0.000119048
0.00568839
-0.00562667
0.00204155
0.000107835
0.00154732
-4.74161e-05
-0.00675585
0.00191982
2.34259e-06
-0.00604714
0.00178289
0.000323226
0.00555606
-0.00554613
0.00154751
0.000399052
0.00109949
-0.000282821
-0.00686392
0.00147769
-0.00040969
-0.00639145
0.00135052
9.01125e-05
-0.00597721
0.00123308
0.00032319
0.00566794
-0.00566232
0.00103881
0.000229142
0.000710576
-0.000564255
-0.00609518
0.001093
-0.000402902
-0.00617695
0.00095182
-0.000161811
-0.0060361
0.000956627
0.00035808
-0.00531948
0.00088724
0.000526251
0.0053792
-0.00536242
0.000681149
0.00052523
0.00050059
-0.000730754
-0.00561625
0.000691671
-0.000519843
-0.00548387
0.000727042
-0.000265123
-0.00555619
0.000591754
0.000195492
-0.00530116
0.000518003
0.000459851
-0.00549249
0.000544544
0.000371186
0.00366172
-0.00394011
0.000480191
8.29262e-05
0.000115023
-0.000619553
-0.00458009
0.000341264
-0.000412268
-0.0049499
0.000313383
-0.000263281
-0.00482317
0.000299014
6.75926e-05
-0.00570397
0.00012669
0.000476869
-0.00615929
0.000207818
8.56948e-05
-0.00385775
0.000276758
0.000179333
0.00318111
-0.00321344
0.000104452
0.000128415
6.15052e-05
-0.000486765
-0.00393442
-8.4325e-05
-0.000422591
-0.00463974
-6.19354e-05
-0.000252801
-0.00562522
-3.9484e-06
-4.49592e-06
-0.00636195
7.22123e-06
0.000398412
-0.00584309
0.000101094
-0.000214999
-0.00301769
0.000187871
-4.15801e-05
-0.00305253
8.27221e-05
0.000234725
0.00298514
-0.00308693
5.10107e-05
0.000125995
-6.653e-06
-0.000357546
-0.0030762
5.29899e-05
-0.000370056
-0.00317557
4.96665e-05
-0.000174662
-0.00446829
7.24341e-05
5.97966e-06
-0.00467257
0.000152028
0.000208092
-0.00446696
0.000201365
-0.000178407
-0.00322583
0.000110658
-0.000116339
-0.00299792
5.52834e-05
6.40032e-05
-0.00345001
8.39901e-06
0.000255064
0.00326113
-0.00340596
-5.63531e-06
0.000116662
-1.21569e-05
-0.000184464
-0.000943726
-2.04112e-05
-0.000226204
-0.00251908
-2.87682e-05
-0.000184084
-0.00252254
-5.05302e-05
-0.000124813
-0.00257306
-5.44454e-05
-5.48778e-05
-0.00326478
-2.5957e-05
-0.000115726
-0.00349126
2.96814e-06
-9.01874e-05
-0.0028193
-2.37938e-07
7.81921e-06
-0.00320194
-4.78712e-06
0.000103181
-0.00315491
-1.26893e-05
0.00013073
0.00225002
-0.00237121
-2.1145e-05
0.000175929
0.00559417
-0.00561826
0.00224175
9.62508e-05
0.00192148
3.61579e-05
-0.00572573
0.00227871
0.000143069
0.00557902
-0.00559725
0.00199931
-6.55082e-05
0.00194968
-0.000227371
-0.00605824
0.00243019
0.00016219
-0.00571619
0.00234051
0.000275856
0.00559662
-0.00548244
0.00197474
0.000273105
0.00155747
-0.000189782
-0.00673347
0.00189024
-8.75859e-05
-0.00627629
0.00182686
0.000248826
-0.00563068
0.00170873
0.000250881
0.00563229
-0.00552634
0.00151386
0.000476614
0.00100688
-0.000399087
-0.00672733
0.00137048
-0.000203068
-0.00652765
0.00141407
-9.70154e-05
-0.0059131
0.00122161
0.0003641
-0.00556173
0.00112648
0.000525578
0.0051557
-0.00512243
0.00100622
0.000657694
0.000681281
-0.000664092
-0.00602354
0.00110741
-0.000236472
-0.00630076
0.000933443
-0.000265592
-0.00606032
0.000976513
0.000447606
-0.00547466
0.000859693
0.000630584
-0.00534924
0.000703323
0.000553725
0.00444361
-0.00466848
0.000723481
0.000395986
0.000394924
-0.000772852
-0.00538471
0.0007081
-0.000373638
-0.00553051
0.000699681
-0.000335421
-0.00545138
0.000694374
0.000161051
-0.00530382
0.000500947
0.000437978
-0.0054104
0.000474807
0.000422079
-0.00427602
0.000544065
0.000259266
0.00351018
-0.00341676
0.000306834
0.000288699
8.86458e-05
-0.000725758
-0.00445363
0.000355713
-0.000452203
-0.00489639
0.000317372
-0.000353926
-0.00475195
0.00034329
-8.51238e-05
-0.00551011
0.000185777
0.000485228
-0.00624989
0.000130468
0.000207072
-0.00429768
0.000225677
6.5743e-05
-0.00315825
0.00011424
0.000338608
0.00291037
-0.00307213
0.000162332
0.000251192
4.56615e-05
-0.000535516
-0.00367668
-8.89553e-05
-0.00039263
-0.00462501
-7.64715e-05
-0.000295405
-0.00557212
5.70272e-06
-9.03023e-05
-0.00628883
1.92146e-05
0.000353025
-0.00607841
9.76089e-05
-0.000153438
-0.00312197
0.000180405
-8.38922e-05
-0.00293891
4.18078e-05
0.000237995
-0.00322119
4.29856e-05
0.000415533
0.0028138
-0.00295116
2.7899e-05
0.000273991
-1.07174e-05
-0.000370941
-0.00292231
5.19025e-05
-0.000424453
-0.00294356
1.92221e-05
-0.000194371
-0.00450793
9.95877e-05
7.6414e-07
-0.00487737
0.000151652
0.000198535
-0.00476962
0.000201271
-0.000172049
-0.00309435
0.000126203
-0.000131687
-0.00289681
5.1049e-05
1.7573e-05
-0.00341914
1.46572e-05
0.00026062
-0.00354277
-1.22253e-05
0.000227289
0.00245514
-0.00254771
-9.62229e-06
0.000138521
-2.07473e-05
-0.000189232
-0.000778039
-1.86516e-05
-0.000229632
-0.0022776
-3.22635e-05
-0.00017462
-0.00232315
-5.35317e-05
-0.000149259
-0.00241964
-5.4687e-05
-5.67027e-05
-0.00323693
-2.55926e-05
-0.000125241
-0.00339159
-3.85667e-07
-0.00010808
-0.00270793
-3.18777e-07
-1.57625e-05
-0.00318367
-2.74298e-06
8.79371e-05
-0.00323473
-1.29021e-05
0.000134467
-0.0024958
-2.25741e-05
0.000155923
0.00164451
-0.00178805
-3.35327e-05
0.000249468
0.00527169
-0.00525428
0.0024652
1.04537e-06
0.00228886
-7.33772e-06
-0.00545822
0.00246917
5.82982e-05
0.00551818
-0.00538203
0.00219037
9.28338e-05
0.00189905
-0.000225152
-0.0055942
0.00246161
0.000241219
-0.0057271
0.00232954
0.000288946
0.00537059
-0.00528939
0.00190502
9.3236e-05
0.00194431
-0.000297944
-0.00594092
0.00236044
0.000133701
-0.00591458
0.0024073
0.000470852
-0.00559999
0.00223603
0.000215502
0.0055473
-0.00548634
0.00194916
0.000441898
0.00152279
-0.000349011
-0.00665604
0.00186154
-3.17468e-05
-0.00636649
0.00180913
-6.34295e-05
-0.0055495
0.00171209
0.000242171
-0.00536332
0.00166765
0.000508821
0.00556336
-0.00554123
0.00150849
0.000668556
0.000968356
-0.000439569
-0.00676194
0.00149259
4.78986e-07
-0.00668937
0.00129524
-8.7779e-05
-0.00595316
0.00127631
0.000627742
-0.00565689
0.00113664
0.000776245
-0.00523725
0.00109563
0.000652325
0.00487868
-0.00491668
0.000945614
0.000619076
0.000639133
-0.000687584
-0.00604157
0.00114278
-0.000101728
-0.00637467
0.000909399
-0.000340835
-0.00606409
0.00094263
0.000333706
-0.0055995
0.000928698
0.00050488
-0.00530322
0.000746773
0.000636235
-0.00492425
0.000744944
0.000466384
0.00378737
-0.00384582
0.000574813
0.000423938
0.000185187
-0.000943242
-0.0051608
0.000773993
-0.000533634
-0.00548905
0.000748077
-0.000447895
-0.00536734
0.000709607
-6.63831e-06
-0.00521477
0.000526845
0.000407822
-0.0052303
0.000398253
0.000620904
-0.00475927
0.000544224
0.000197351
-0.00342909
0.00042479
0.00051828
0.0038845
-0.00385828
0.000100936
0.000378981
0.000148268
-0.000760775
-0.00436524
0.000403014
-0.000422628
-0.00483759
0.000326913
-0.000412821
-0.00471027
0.000393101
-0.000189253
-0.00532564
0.00025777
0.000468781
-0.00630078
0.000120909
0.000365688
-0.00483687
0.000150536
-4.78825e-05
-0.00302182
5.32337e-05
0.000319345
-0.00319053
0.00015129
0.000623112
0.00257085
-0.00272726
0.000111162
0.000460462
-4.47716e-06
-0.000514006
-0.00341442
-8.262e-05
-0.000472466
-0.00457034
-9.56168e-05
-0.000356793
-0.00550725
2.10793e-05
-0.000188654
-0.00614088
4.71696e-05
0.000266511
-0.00622053
9.33577e-05
-0.000128798
-0.00325479
0.000187174
-0.00011372
-0.00283227
5.57946e-05
0.000184677
-0.00335132
4.83206e-06
0.000413776
-0.0031443
8.29668e-05
0.000491244
0.00216783
-0.00236336
-4.05295e-05
0.000244629
-2.28773e-05
-0.000401336
-0.00273962
3.98815e-05
-0.000392206
-0.00278124
5.21596e-05
-0.000190955
-0.00455096
7.85923e-05
-4.5815e-05
-0.00502408
0.000142858
0.000163173
-0.00503538
0.00019754
-0.000181364
-0.00296661
0.000129663
-0.000165323
-0.00277135
5.7982e-05
-3.10904e-05
-0.00337611
2.33488e-05
0.000232463
-0.00365915
-1.34896e-05
0.000240041
-0.00265592
-9.59022e-06
0.000344901
0.00206706
-0.00218747
-7.8185e-05
0.000160278
-3.45976e-05
-0.00019123
-0.000607797
-2.06506e-05
-0.00023953
-0.00202396
-3.27578e-05
-0.000201318
-0.00209622
-5.78814e-05
-0.000152989
-0.00226581
-5.43715e-05
-6.11397e-05
-0.00320568
-2.48018e-05
-0.000134098
-0.00328117
-1.91514e-06
-0.000121832
-0.00258582
-6.66763e-07
-3.31275e-05
-0.00314836
-2.5001e-06
7.08323e-05
-0.00329528
-1.30263e-05
0.000124418
-0.0026107
-2.24134e-05
0.000166236
-0.00194091
-3.59572e-05
0.000178978
0.000961075
-0.001132
-4.15822e-05
0.000320901
0.00528478
-0.00520128
0.00272058
-1.08164e-05
0.00246091
-8.75167e-05
-0.00506416
0.00273192
0.000121407
0.00518353
-0.00528266
0.00250123
0.000277867
0.00224178
-0.000143937
-0.0053943
0.0024721
6.3108e-05
-0.00519933
0.00246458
0.000461145
0.00513665
-0.00527602
0.00215754
0.000132404
0.00183748
-0.000377383
-0.00538774
0.00250383
3.92606e-05
-0.00559381
0.00242276
0.000529383
-0.0052604
0.00224202
0.0001449
0.00537311
-0.00533603
0.00193854
0.000212823
0.00191355
-0.000469175
-0.00577115
0.00229745
1.00881e-05
-0.0060284
0.00243242
9.20391e-05
-0.00553669
0.00218853
0.000263149
-0.00542245
0.00215116
0.000430948
0.0053874
-0.00528406
0.00192369
0.000628909
0.00153335
-0.00033257
-0.00664347
0.00186923
9.18718e-06
-0.00629538
0.00178172
0.000153725
-0.00569301
0.00171113
0.000368665
-0.0051453
0.00175315
0.000505205
-0.00524968
0.00164714
0.000667927
0.0054391
-0.00540729
0.00146107
0.000691126
0.000949432
-0.000480079
-0.00679395
0.00152451
-0.000130923
-0.00656035
0.00139277
-7.78123e-05
-0.00617686
0.00125593
0.000403498
-0.00567094
0.00122057
0.000559817
-0.0053075
0.00115195
0.000795981
-0.0050658
0.00108501
0.000675135
0.00462842
-0.00475181
0.00086025
0.000578745
0.000459571
-0.000909202
-0.00611666
0.00125472
-0.000446621
-0.00627234
0.000953436
-0.000392232
-0.00616184
0.000951485
0.000237874
-0.00579453
0.000893139
0.000490681
-0.00520297
0.000745591
0.000709093
-0.00500641
0.000740741
0.000432798
-0.00408025
0.000743926
0.000684347
0.00405114
-0.00396439
0.000322003
0.000626853
2.85613e-05
-0.000720478
-0.00513291
0.000819474
-0.000402702
-0.00550886
0.000773876
-0.000521336
-0.00527505
0.000764301
-2.89166e-05
-0.00522474
0.000559243
0.000541196
-0.00515663
0.000380763
0.000701801
-0.00519413
0.000497006
0.000198852
-0.00365954
0.00052794
0.000426051
-0.00371328
0.000173088
0.000851585
0.00303336
-0.00316839
7.49023e-06
0.000725702
-2.27726e-05
-0.000760021
-0.0041814
0.000467385
-0.000506279
-0.00478515
0.000384383
-0.000467092
-0.00460742
0.000334363
-0.000235693
-0.00528207
0.000396571
0.000357873
-0.00621868
8.43185e-05
0.000415944
-0.00537878
0.00011808
-9.96007e-05
-0.00294781
6.24155e-05
0.000247679
-0.00333794
0.000137639
0.000609043
-0.00295096
0.000179718
0.00091357
0.00223135
-0.00257831
3.57959e-05
0.000506591
-9.53391e-05
-0.000628475
-0.00307966
-2.76963e-05
-0.000428332
-0.00449719
-0.000119645
-0.000404334
-0.00539936
9.87511e-06
-0.00022932
-0.00599871
6.24217e-05
0.00015273
-0.00625534
9.24187e-05
-3.4432e-06
-0.00355107
0.000211718
-0.000154422
-0.0027571
0.000101102
8.30319e-05
-0.00343004
2.03978e-05
0.000355832
-0.00335387
9.1037e-05
0.000518048
-0.00260301
4.46142e-05
0.000589532
0.00169619
-0.00186327
-0.000118086
0.000373134
-0.000104818
-0.000412095
-0.00254536
3.16975e-05
-0.000437328
-0.00260604
6.24802e-05
-0.000248089
-0.00456657
0.000114541
-4.67087e-05
-0.0051839
0.000132126
0.000126634
-0.00526292
0.000182628
-0.000129587
-0.00291647
0.000142886
-0.000195565
-0.00262918
6.12258e-05
-8.2244e-05
-0.00329532
2.63055e-05
0.000194893
-0.00374756
-1.23063e-05
0.00023953
-0.0027792
-5.32676e-06
0.000350078
-0.00232489
-5.60105e-05
0.000435024
0.00131704
-0.00152017
-0.000131096
0.00017895
-4.46529e-05
-0.000193985
-0.000432676
-2.19921e-05
-0.000242517
-0.00176745
-3.46391e-05
-0.000198632
-0.00186835
-6.19959e-05
-0.000159858
-0.00211071
-5.31253e-05
-7.21719e-05
-0.00316314
-2.47357e-05
-0.000139574
-0.00316219
-4.2018e-06
-0.000141014
-0.00244575
-9.69753e-07
-4.85502e-05
-0.00309852
-1.9544e-06
5.41199e-05
-0.0033397
-1.21981e-05
0.000112593
-0.00271468
-2.16476e-05
0.000161698
-0.00208999
-3.50307e-05
0.000198318
-0.00132103
-4.52468e-05
0.000222564
-0.000221666
1.78605e-05
-6.03404e-05
0.000170833
0.00494093
-0.0048238
0.00312178
6.085e-05
0.00273786
7.34949e-06
-0.00510585
0.00296909
0.000290179
0.00491647
-0.00519411
0.00282945
0.000283811
0.00253369
-8.26184e-05
-0.00496267
0.00276825
0.000153141
-0.00537236
0.00273159
0.000583173
0.00469367
-0.00479904
0.00248457
0.000250109
0.00218893
-0.000230528
-0.00546885
0.0025236
-5.00308e-06
-0.00508912
0.00240616
0.000524185
-0.00521954
0.00241329
0.000228849
0.00491968
-0.00499449
0.0021484
0.000164335
0.00185349
-0.000470223
-0.00527414
0.00256138
-4.4114e-05
-0.00551185
0.00247608
0.000402037
-0.00542736
0.00227972
0.000289681
-0.00527746
0.00215691
0.000158671
0.00516962
-0.00495748
0.00199868
0.000500845
0.00188815
-0.000419228
-0.00560832
0.00229259
-7.01119e-05
-0.00600884
0.00235718
0.000230796
-0.00549058
0.00230924
0.000316319
-0.00533006
0.00214848
0.000379194
-0.00514559
0.00213871
0.000509924
0.00534998
-0.00520029
0.001932
0.000664668
0.00151192
-0.000527231
-0.00650281
0.00190734
-0.000163657
-0.00620298
0.00180956
0.000132424
-0.00579793
0.00167641
0.000363605
-0.00507766
0.00168338
0.000497751
-0.00519308
0.00175861
0.000694995
-0.00531213
0.00165297
0.000768593
0.00511023
-0.00514777
0.00140516
0.000596534
0.00105955
-0.000665077
-0.00685035
0.0015051
-0.000347953
-0.00656154
0.00142703
-0.000214672
-0.00623199
0.00127034
0.00038768
-0.00582873
0.00126391
0.000493386
-0.00532413
0.00123449
0.000688959
-0.00501799
0.00112427
0.000625863
-0.00471311
0.000853245
0.000791496
0.00435344
-0.00440656
0.000806223
0.000736683
0.000280294
-0.000626353
-0.00595132
0.00107152
-0.000178682
-0.00642702
0.00118538
-0.000347288
-0.00632716
0.000944701
0.000178764
-0.00595757
0.000906846
0.000523101
-0.0050781
0.000786363
0.000605579
-0.00491886
0.000754264
0.00050127
-0.0043913
0.000749372
0.000810861
-0.00408192
0.00047664
0.000981035
0.00409498
-0.004066
0.00016357
0.000934651
2.92313e-05
-0.000896189
-0.00495692
0.000872704
-0.000602301
-0.00536133
0.000767961
-0.00042622
-0.00531707
0.000775022
1.14364e-06
-0.00536014
0.000662863
0.000452929
-0.00509505
0.000402605
0.00070378
-0.00552868
0.000427478
0.00015454
-0.00404656
0.000629884
0.000290942
-0.00344129
0.000212682
0.000841734
-0.00323962
1.16296e-05
0.00110297
0.00235098
-0.0025677
3.47994e-05
0.000853913
-0.000104819
-0.000898668
-0.00398334
0.000497022
-0.000555011
-0.00465218
0.000461098
-0.0005012
-0.00449839
0.00037222
-0.000266443
-0.00522253
0.000311952
0.000175002
-0.00603153
0.000187145
0.000560102
-0.00593837
8.03601e-05
-3.14223e-05
-0.0031196
0.000166864
9.22561e-05
-0.00343842
0.000153676
0.000498643
-0.00320083
0.000244702
0.000977981
-0.00299674
0.000138211
0.000784634
0.00176887
-0.00196773
3.95613e-05
0.000680659
-0.000187314
-0.000622656
-0.00273098
-8.15642e-06
-0.000491015
-0.0043749
-9.62991e-05
-0.000409979
-0.00535905
1.93357e-06
-0.000287405
-0.00580941
6.12665e-05
6.39285e-05
-0.00626059
0.000130379
0.000114472
-0.00392895
0.000226242
-0.000187758
-0.00270637
0.000153178
-9.07977e-05
-0.00339063
7.0244e-05
0.000304299
-0.00350204
5.91589e-05
0.000497982
-0.00285017
7.97416e-05
0.000591555
-0.00200049
-5.96374e-05
0.000846301
0.000775852
-0.00123561
-6.96085e-05
0.00043773
-0.000150444
-0.000436056
-0.00233541
3.24722e-05
-0.00043784
-0.00244981
7.0787e-05
-0.00025677
-0.00457313
0.000127172
-7.16971e-05
-0.00528287
0.000125351
6.80114e-05
-0.00543644
0.000165457
-2.60061e-05
-0.00298788
0.000140469
-0.000223782
-0.00247585
7.23217e-05
-0.000116406
-0.00319616
2.99232e-05
0.000145249
-0.00380318
-9.19836e-06
0.000239644
-0.00290982
-8.73229e-06
0.000335362
-0.00246882
-3.506e-05
0.00047032
-0.00172183
-0.000126353
0.000588127
-0.000681824
0.000309191
-0.000124027
0.000217424
-6.33458e-05
-0.00019494
-0.000255248
-2.29074e-05
-0.000246869
-0.00150646
-3.61153e-05
-0.000211015
-0.00162943
-6.25408e-05
-0.000187339
-0.00193317
-5.21953e-05
-8.58768e-05
-0.00310766
-2.27288e-05
-0.000145142
-0.0030355
-6.28443e-06
-0.000146022
-0.00230222
-1.71448e-06
-6.22513e-05
-0.00303565
-1.59018e-06
3.49287e-05
-0.00336532
-1.12595e-05
0.000102362
-0.002809
-2.02359e-05
0.000158049
-0.00223702
-3.26645e-05
0.000194714
-0.00150373
-4.70456e-05
0.000237229
-0.000197021
-6.75934e-05
0.000117452
-0.00113947
0.00102399
-6.23136e-05
9.57004e-05
0.00463773
-0.00458128
0.00335124
1.31038e-05
0.00311145
6.10958e-05
-0.00484504
0.00340328
0.000318144
0.00481021
-0.00484608
0.00312969
0.000264608
0.00282861
3.75203e-06
-0.00494414
0.00297386
0.000320801
-0.00542458
0.00303191
0.000595237
0.00483484
-0.00475532
0.00273787
0.000161171
0.00248834
-3.04148e-05
-0.00505006
0.00289694
6.15437e-05
-0.00536194
0.00269129
0.000482116
-0.00478568
0.00276029
0.000325475
0.00468769
-0.00476348
0.00246373
0.000131156
0.00219345
-0.000152663
-0.00565181
0.00247796
0.000122496
-0.00513065
0.00239852
0.000498579
-0.00528905
0.00237912
0.000386699
-0.00502727
0.00234906
7.89812e-05
0.00495745
-0.00490304
0.00217368
0.000368598
0.00192353
-0.000381904
-0.00512091
0.00257574
-5.32707e-05
-0.00547029
0.00250297
0.000316104
-0.00543125
0.00239466
0.000457356
-0.00535187
0.00221309
0.000231534
-0.00490914
0.00225623
0.000360563
0.00533761
-0.0051342
0.00194463
0.000500599
0.0018682
-0.000417843
-0.00560093
0.002246
-0.00019245
-0.0059653
0.00227785
0.000125169
-0.0054963
0.00237016
0.000420989
-0.00522679
0.00214858
0.000531934
-0.00519634
0.00216505
0.000659669
-0.00511322
0.00208696
0.000677584
0.00543655
-0.00524798
0.00183444
0.000563413
0.001504
-0.000722295
-0.00639952
0.00191464
-0.000148898
-0.00627349
0.00177879
-0.00011923
-0.00577538
0.00169156
0.000474465
-0.00519928
0.00171124
0.000324925
-0.00506387
0.00172263
0.000696328
-0.00528557
0.00172469
0.000631309
-0.00508566
0.00158541
0.000881066
0.00527215
-0.00534061
0.00138405
0.000661717
0.000941525
-0.000644346
-0.00662773
0.00151554
-0.000228567
-0.00646933
0.00146277
-9.5787e-06
-0.00644391
0.00130124
0.000197064
-0.00578124
0.00120455
0.000418691
-0.00521406
0.00125825
0.000578046
-0.0049222
0.00116623
0.000522711
-0.00476367
0.00115339
0.000982945
-0.00449052
0.000765124
0.00103818
0.00457958
-0.00447342
0.000642918
0.00132587
0.000149964
-0.000892667
-0.0058714
0.00129197
-0.000419704
-0.00644956
0.000911465
-0.000280933
-0.00627572
0.000988655
0.000119094
-0.0060602
0.000929384
0.000620414
-0.00512239
0.000783648
0.000658337
-0.00479788
0.000710824
0.000515955
-0.0047842
0.000785746
0.000486446
-0.00414944
0.000621391
0.00109377
-0.00406324
0.000221843
0.00114935
0.00395086
-0.00398271
0.000149032
0.00105572
0.00010181
-0.000957478
-0.00485881
0.000911319
-0.000700365
-0.00516372
0.000820446
-0.000483116
-0.00535476
0.000787574
-0.000367611
-0.00529018
0.000806223
0.000391285
-0.00518284
0.000534366
0.000639073
-0.00561037
0.000405319
0.000381468
-0.00459757
0.0005656
9.38996e-05
-0.0031803
0.000367248
0.000752993
-0.00335413
7.2842e-05
0.00120024
-0.00282439
4.60619e-05
0.000950328
0.00216638
-0.0024916
0.000194323
0.000754257
-8.60819e-05
-0.000876275
-0.00381831
0.000531627
-0.00057731
-0.00461654
0.000547675
-0.000466373
-0.0044115
0.0004306
-0.000385155
-0.00510186
0.000349294
-1.90342e-05
-0.00587787
0.000241258
0.000533137
-0.00629742
0.000127526
0.00019074
-0.00368069
0.000262955
-0.000131697
-0.00346137
0.000230709
0.00040765
-0.00342737
0.000276866
0.000861426
-0.00334595
0.000230466
0.000912845
-0.00224379
9.29742e-05
0.000916098
0.00198904
-0.00212362
0.000104345
0.000859184
-0.000115971
-0.000656731
-0.00236992
1.88267e-05
-0.000537276
-0.00422674
-5.68832e-05
-0.000462302
-0.00522857
-2.12405e-05
-0.000337711
-0.00561839
7.69238e-05
-1.48334e-05
-0.00625858
0.0001421
0.000257014
-0.00435699
0.000275396
-0.000155065
-0.00274596
0.000197116
-0.000181555
-0.00327109
9.87865e-05
0.000237335
-0.0035667
4.28162e-05
0.000481583
-0.00311785
8.49055e-05
0.000606119
-0.00218652
-4.98648e-06
0.000835088
-0.00162329
-3.67249e-05
0.000960135
-2.40732e-05
-0.000536431
0.000118888
0.000552214
-0.000128897
-0.000450093
-0.00210728
2.78977e-05
-0.0004556
-0.00228298
7.4381e-05
-0.000298635
-0.0045432
0.000128477
-0.000153476
-0.00531278
0.000123224
1.77387e-06
-0.00553467
0.000135933
8.42106e-07
-0.00311735
0.000148945
-0.000205872
-0.00235353
7.80078e-05
-0.000141802
-0.00310637
6.20848e-05
9.14762e-05
-0.00382443
-5.38171e-06
0.00023709
-0.00304074
-1.30115e-05
0.000339338
-0.00263733
-2.15167e-05
0.000445596
-0.00189435
-0.00011343
0.000630032
-6.73519e-05
-0.000142613
0.000165657
-0.00201678
0.00194911
-0.00010456
0.000106056
-6.32546e-05
-0.000193729
-7.82124e-05
-2.33922e-05
-0.000251454
-0.00124262
-3.52986e-05
-0.000224833
-0.00137828
-6.24306e-05
-0.000192529
-0.00175388
-4.93031e-05
-0.000102205
-0.00303708
-2.0569e-05
-0.000154598
-0.00289638
-7.25158e-06
-0.000162219
-0.00214457
-1.70775e-06
-8.27956e-05
-0.00295326
-1.31021e-06
-1.21492e-05
-0.00334395
-1.08121e-05
9.20457e-05
-0.00289219
-2.01115e-05
0.00015339
-0.00237967
-3.09788e-05
0.000193282
-0.00168111
-4.85666e-05
0.000221389
-0.000394717
-7.07393e-05
0.000127125
0.000898516
-6.92446e-05
-5.99666e-05
-0.00144358
0.00149141
-5.01795e-05
-4.98686e-05
0.00442886
-0.00437057
0.00346784
-5.91114e-06
0.00331333
2.48783e-05
-0.00455887
0.00371617
0.000232597
0.00462095
-0.00450559
0.00332143
0.000209905
0.00316724
-4.12285e-05
-0.00476792
0.00341807
0.000262262
-0.00483201
0.00344776
0.000394466
0.00486206
-0.00463522
0.00310362
0.000290523
0.00263197
5.73297e-05
-0.00484461
0.0030591
0.000114865
-0.00550396
0.00299991
0.000449089
-0.0047074
0.00301701
0.000337034
0.00488219
-0.00481601
0.00266013
0.000197737
0.00242024
8.10985e-06
-0.00524611
0.00298991
0.000263193
-0.00528555
0.00267985
0.000387957
-0.00476719
0.00278342
0.000570979
-0.00488933
0.00270186
0.000280612
0.00452009
-0.00464055
0.00238256
0.000466513
0.0021535
-0.000210658
-0.00566875
0.00253363
-2.64038e-05
-0.00512138
0.00244182
0.000333067
-0.00529698
0.00238949
0.000373134
-0.00494519
0.00238126
0.000157892