/*--------------------------------*- C++ -*----------------------------------*\
  =========                 |
  \\      /  F ield         | OpenFOAM: The Open Source CFD Toolbox
   \\    /   O peration     | Website:  https://openfoam.org
    \\  /    A nd           | Version:  7
     \\/     M anipulation  |
\*---------------------------------------------------------------------------*/
FoamFile
{
    version     2.0;
    format      ascii;
    class       surfaceScalarField;
    location    "5";
    object      phi_0;
}
// * * * * * * * * * * * * * * * * * * * * * * * * * * * * * * * * * * * * * //

dimensions      [0 3 -1 0 0 0 0];

internalField   nonuniform List<scalar> 
54006
(
-0.000125522
0.00222354
-0.00213037
-3.25495e-05
-0.000182368
0.0037982
-0.00376438
6.17798e-05
-0.000131499
-3.23155e-05
-0.000152938
-0.00201397
-3.70603e-05
-0.000105999
0.00405042
-0.00396069
-1.62817e-05
-0.000363897
0.00492026
-0.00487567
-5.3963e-05
-0.000194568
6.3342e-05
-0.000243719
-0.00370845
8.02374e-05
-0.000147946
0.00434238
-0.00432023
8.15679e-05
-0.000102777
-1.59653e-05
-0.000148354
-0.00190216
-3.74482e-05
-0.000139555
-0.00383999
-1.82086e-05
-9.81982e-05
0.00380387
-0.00369536
-2.65914e-05
-0.000448654
0.0051025
-0.0049632
0.000246968
-0.000351111
-4.34847e-05
-0.00044374
-0.00479459
-8.00712e-05
-0.00019721
0.00481578
-0.00477099
-4.94957e-05
-0.000139914
0.000102738
-0.000209381
-0.00368012
9.1599e-05
-0.000233953
-0.00423539
8.97981e-05
1.52054e-06
0.00396307
-0.0040641
8.28805e-05
-9.29254e-05
-2.64984e-05
-0.000150588
-0.00178608
-3.41802e-05
-0.000152791
-0.00370581
-1.88356e-05
-0.000120893
-0.00356142
-3.12562e-05
-6.94402e-05
0.00336439
-0.00328232
-3.92166e-05
-0.000394332
0.0062912
-0.00629758
0.000611662
-0.00035817
0.00024278
-0.000546498
-0.00483371
0.000269093
-0.00025869
0.00538911
-0.00528131
0.000200644
-0.000150613
-5.10639e-05
-0.000408896
-0.00470788
-8.80125e-05
-0.000290493
-0.00474435
-5.01634e-05
7.96639e-05
0.00552369
-0.00559712
-5.42051e-05
1.18136e-05
9.80356e-05
-0.000238597
-0.00362439
9.17066e-05
-0.000280041
-0.00408297
6.64343e-05
-8.3128e-06
-0.00416936
8.24762e-05
8.60364e-05
0.00339084
-0.00355976
9.63274e-05
-6.81609e-05
-3.76126e-05
-0.000156441
-0.00166178
-2.99531e-05
-0.000162336
-0.00355722
-2.04361e-05
-0.000125948
-0.00342069
-3.3622e-05
-9.39254e-05
-0.00317186
-4.77909e-05
-7.78896e-05
0.00350782
-0.00345082
-1.83252e-05
-0.000322611
0.00669456
-0.00662515
0.00093162
-0.000344142
0.000592507
-0.000632556
-0.0062366
0.000726993
-0.000375005
0.00626588
-0.00610311
0.000565207
-0.00016023
0.000202921
-0.000486108
-0.00475895
0.000262519
-0.000345753
-0.00518471
0.00022775
-4.60761e-06
0.00534459
-0.00524246
0.000182782
0.00011054
-6.22753e-05
-0.000441973
-0.00459583
-8.63481e-05
-0.000360062
-0.00469384
-5.85022e-05
6.16513e-05
-0.00569209
-2.51593e-05
0.000283335
0.00569641
-0.00598634
3.84239e-05
5.53117e-05
0.000100118
-0.00026979
-0.00355336
8.46438e-05
-0.000312493
-0.00389543
5.43244e-05
-4.70609e-05
-0.00424651
6.46956e-05
8.05952e-05
-0.00375873
0.000106922
-1.41876e-05
0.00329488
-0.00339151
0.000129256
-6.72626e-05
-1.57501e-05
-0.000164273
-0.00152815
-2.66122e-05
-0.00017835
-0.0033872
-2.16156e-05
-0.000139876
-0.00326579
-3.54549e-05
-9.16888e-05
-0.00306254
-5.12576e-05
-7.66483e-05
-0.00339731
-2.4654e-05
-8.27192e-05
0.00385942
-0.00379939
4.36029e-06
-0.00033608
0.00662586
-0.00646463
0.00128652
-0.00044658
0.000957583
-0.000613952
-0.00647116
0.00111147
-0.000324397
0.00610031
-0.00619023
0.000970927
-0.00020096
0.000569945
-0.000493498
-0.00603624
0.000676827
-0.000515753
-0.0058751
0.000668976
3.22481e-05
0.00579683
-0.00582793
0.000559449
3.92809e-05
0.000198452
-0.000567628
-0.004661
0.000278427
-0.000391653
-0.00512327
0.000232677
-8.08651e-05
-0.00507184
0.000199649
0.000306183
0.00600257
-0.00601309
0.000170453
0.00026764
8.97727e-05
-0.000463485
-0.00444266
-0.000103197
-0.000411476
-0.00462625
-5.49616e-05
-2.58656e-05
-0.00574225
-2.95416e-05
0.000241897
-0.00618631
1.35047e-05
0.000222912
0.00440475
-0.00475712
0.000153695
-3.73897e-05
0.000132829
-0.000307814
-0.00345522
7.2328e-05
-0.000328103
-0.00371371
5.26742e-05
-7.73346e-05
-0.00431069
5.59722e-05
5.54736e-05
-0.00395903
0.000117837
7.85564e-05
-0.00359043
0.000150629
-0.000133162
0.00362411
-0.00353743
9.30203e-05
-6.82232e-05
4.64612e-06
-0.000168597
-0.00138868
-2.38227e-05
-0.000193772
-0.00319571
-2.43315e-05
-0.00015374
-0.00309598
-3.76838e-05
-8.79797e-05
-0.00295621
-5.37982e-05
-7.81012e-05
-0.00334382
-2.665e-05
-9.56435e-05
-0.00372993
1.54114e-06
-4.36015e-05
0.0031066
-0.00305851
-1.30216e-07
-0.000176495
0.00641199
-0.0064757
0.00174883
-0.000357
0.00132939
-0.000313317
-0.00664632
0.00144951
-3.96589e-05
0.00609165
-0.00627698
0.00118711
-0.000247055
0.000987482
-0.000387134
-0.00635744
0.00104481
-0.000463367
-0.00619767
0.00106654
0.00018684
0.00595439
-0.00603075
0.000892695
5.09956e-05
0.000581038
-0.000640075
-0.00590512
0.000701604
-0.000494432
-0.00571425
0.000618754
-6.19172e-05
-0.0057812
0.000603299
0.000216295
0.00542644
-0.00533821
0.000561107
0.000271569
0.000235637
-0.000571084
-0.00462056
0.000305426
-0.000435795
-0.00506294
0.000242416
-0.00013363
-0.0050115
0.0002801
0.00026677
-0.0059751
0.000136786
0.000406878
0.0054757
-0.00577695
0.00028774
9.9197e-05
0.000208067
-0.000476616
-0.00429401
-9.01776e-05
-0.000335636
-0.00467269
-4.92151e-05
-9.33441e-05
-0.00574384
-3.73629e-05
0.000146252
-0.0063093
2.67773e-06
0.000335976
-0.00511792
0.000116886
-0.00017397
0.00299736
-0.00298491
0.000182057
-0.00010533
8.98348e-05
-0.000311965
-0.00334642
5.46772e-05
-0.000341014
-0.00354472
5.05797e-05
-0.000114487
-0.00435497
5.76989e-05
7.49133e-05
-0.00419756
0.000131601
0.000114366
-0.00382698
0.000161925
-0.00014716
-0.00344768
0.000112393
-4.75509e-05
0.00327314
-0.00321092
3.47527e-05
-2.86417e-05
-1.38177e-06
-0.000175554
-0.00124159
-2.06462e-05
-0.00021221
-0.00298346
-2.38675e-05
-0.000148175
-0.00292982
-4.23177e-05
-0.000115112
-0.00282524
-5.35486e-05
-7.32202e-05
-0.00329611
-2.82871e-05
-0.000101811
-0.00365719
2.41525e-06
-5.70135e-05
-0.00300246
2.50455e-06
3.55349e-05
0.00315657
-0.00318922
-3.00973e-06
-1.54016e-05
0.00606456
-0.00615167
0.00208357
-0.000135366
0.00174878
-3.0163e-06
-0.00673022
0.0019386
0.000142632
0.00600743
-0.00600858
0.00156768
-7.31358e-05
0.00118536
-9.60348e-05
-0.00679337
0.00146089
-0.000177762
-0.00644318
0.00133011
0.000318005
0.00592288
-0.00597537
0.00110843
0.000234378
0.000822987
-0.000514579
-0.00623608
0.00106893
-0.000470876
-0.00616646
0.000990046
6.4316e-06
-0.00605371
0.00102114
0.000255358
0.00542302
-0.00534246
0.000773073
0.000219533
0.000575994
-0.000621258
-0.0057509
0.000681058
-0.000527776
-0.00559458
0.000673923
-0.000162007
-0.00570464
0.000570566
0.000244269
-0.00527793
0.000565516
0.000446847
0.00551072
-0.00551641
0.000526827
0.000322716
0.000298354
-0.000592801
-0.00461835
0.000332834
-0.000369101
-0.00500575
0.000281696
-0.000208379
-0.00489701
0.000242958
0.000123502
-0.00586508
0.000192831
0.000457701
-0.00603821
0.000276319
4.61032e-05
0.00338244
-0.00351591
0.000201138
-0.000116343
0.000142889
-0.00046072
-0.00414256
-8.01993e-05
-0.00038722
-0.00464964
-6.70248e-05
-0.000182569
-0.00572308
-1.89279e-06
9.7702e-05
-0.00637236
2.90237e-06
0.000376438
-0.00547699
9.96813e-05
-0.000223976
-0.0029858
0.000194586
5.24565e-05
0.00311276
-0.00312162
9.09134e-05
-1.43862e-05
2.62602e-05
-0.000334999
-0.00322592
5.49516e-05
-0.000386543
-0.00335126
3.55528e-05
-9.82053e-05
-0.0044135
5.91371e-05
1.0885e-05
-0.00441533
0.000149476
0.00015581
-0.00410102
0.000176609
-0.000147977
-0.00336321
0.000123626
-8.86153e-05
-0.00310995
4.3021e-05
9.62757e-05
0.00340004
-0.00342446
-1.56923e-06
5.1469e-05
-4.45053e-06
-0.000180311
-0.0010871
-2.0054e-05
-0.000213821
-0.00276403
-2.62533e-05
-0.000176907
-0.00273217
-4.46186e-05
-0.000123555
-0.00269013
-5.38675e-05
-6.22116e-05
-0.00326171
-2.57339e-05
-0.000118239
-0.00356945
2.21689e-06
-7.69448e-05
-0.00292127
-1.8277e-06
4.76895e-06
-0.00319208
5.88422e-07
0.000105585
0.00295774
-0.0030546
-1.17285e-05
9.09237e-05
0.00588273
-0.00588952
0.00200076
-2.29134e-06
0.00203946
4.17571e-05
-0.00615802
0.00240692
0.000115898
0.00569402
-0.00562195
0.00203824
0.000104762
0.00154596
-4.22709e-05
-0.00675726
0.00192073
7.16192e-06
-0.00603383
0.00177893
0.000319805
0.00556048
-0.0055428
0.0015482
0.000404453
0.00109762
-0.000278143
-0.00685951
0.00147724
-0.000418532
-0.00638254
0.00134789
0.000102576
-0.00597488
0.00123347
0.000324822
0.00566381
-0.00566365
0.00103881
0.000228463
0.000706539
-0.000556822
-0.00610211
0.00109049
-0.00039958
-0.00618002
0.000954288
-0.00015151
-0.00603344
0.000959286
0.000350665
-0.00531387
0.000886148
0.000526159
0.00537614
-0.00536453
0.000682147
0.000528435
0.000497198
-0.000726649
-0.00562238
0.000691153
-0.000528721
-0.00548344
0.00072953
-0.00026114
-0.0055642
0.000586247
0.000199515
-0.00530579
0.00052242
0.000458857
-0.00550088
0.000548828
0.000370116
0.0036477
-0.00392294
0.000478053
8.75351e-05
0.000106753
-0.000616978
-0.00458723
0.000340797
-0.000415578
-0.00495643
0.000311873
-0.000257718
-0.00483495
0.000294785
7.70827e-05
-0.00572763
0.000126129
0.000470081
-0.00615547
0.000216449
8.13699e-05
-0.00382251
0.000277569
0.000187728
0.00318065
-0.00321861
0.000103833
0.000135702
5.7626e-05
-0.000483607
-0.0039504
-8.30442e-05
-0.000423152
-0.0046306
-6.26271e-05
-0.000248597
-0.0056354
-4.31005e-06
5.25473e-08
-0.00636927
5.84723e-06
0.000394838
-0.00581477
0.000101653
-0.000220339
-0.0030022
0.000188441
-3.78851e-05
-0.00306282
8.50577e-05
0.000236799
0.00297579
-0.00307735
5.19435e-05
0.000128818
-7.51338e-06
-0.00035618
-0.00308489
5.42432e-05
-0.000369222
-0.00319153
5.06152e-05
-0.000171987
-0.00445137
6.85072e-05
3.71292e-07
-0.00463309
0.000152972
0.000200207
-0.00441357
0.000199602
-0.000179668
-0.00323491
0.000109739
-0.000115293
-0.00300289
5.49163e-05
6.74982e-05
-0.00345203
7.85824e-06
0.000255899
0.00324964
-0.00339558
-5.94275e-06
0.000117201
-1.24463e-05
-0.000184109
-0.000925509
-2.07797e-05
-0.00022602
-0.00253072
-2.73433e-05
-0.000186579
-0.00252216
-4.9684e-05
-0.000124921
-0.00255465
-5.51824e-05
-5.97289e-05
-0.00323018
-2.5676e-05
-0.000117024
-0.00348094
2.7795e-06
-8.88006e-05
-0.00282996
-2.99378e-07
8.79676e-06
-0.00319795
-4.74889e-06
0.000103664
-0.00314513
-1.25498e-05
0.000131061
0.00224229
-0.002364
-2.10834e-05
0.000178919
0.00559988
-0.00562486
0.00224196
9.36721e-05
0.00191994
4.38929e-05
-0.0057342
0.00227221
0.000137492
0.00557632
-0.00559208
0.00199493
-7.27734e-05
0.00194571
-0.000219909
-0.00606377
0.0024327
0.0001617
-0.0057065
0.00233692
0.000265661
0.00560546
-0.00548592
0.00197284
0.000273985
0.0015591
-0.000182977
-0.00673864
0.00189099
-9.24808e-05
-0.00626457
0.00182542
0.000257961
-0.00562794
0.00170869
0.00025613
0.0056376
-0.00553604
0.00151532
0.000470232
0.00100686
-0.000390251
-0.00672966
0.00137358
-0.000204913
-0.00651331
0.00141335
-8.54227e-05
-0.00591423
0.00122116
0.000353117
-0.00556005
0.00112742
0.000526182
0.00515712
-0.00512421
0.00100587
0.000661378
0.000682234
-0.000662233
-0.00602396
0.00110444
-0.000261856
-0.00629088
0.00093449
-0.000260115
-0.00605841
0.000978233
0.000452123
-0.00546625
0.000859062
0.000630602
-0.00535354
0.000703419
0.000553849
0.00443109
-0.00465517
0.000722488
0.000397619
0.000390553
-0.000765056
-0.00539513
0.00070627
-0.000379478
-0.00552589
0.000697511
-0.000328579
-0.00545539
0.000691581
0.000168352
-0.00531286
0.000502045
0.000436293
-0.00542573
0.000481067
0.000413602
-0.0042502
0.000543854
0.000265492
0.00351841
-0.00341874
0.00030062
0.00029583
8.54095e-05
-0.000718619
-0.00446502
0.000352578
-0.000449104
-0.00490802
0.000318344
-0.000349754
-0.00476119
0.000339272
-7.52754e-05
-0.00553663
0.000179118
0.000482978
-0.00625138
0.000133903
0.000191812
-0.00424938
0.000231168
7.03457e-05
-0.00316633
0.000117053
0.000341605
0.0029029
-0.0030676
0.000163734
0.000253667
4.47833e-05
-0.000534319
-0.00369696
-8.66748e-05
-0.000391273
-0.00461671
-7.48915e-05
-0.00029234
-0.00558112
3.44734e-06
-8.35452e-05
-0.00630685
1.71899e-05
0.00035551
-0.00606172
9.74935e-05
-0.000158889
-0.00310267
0.000181351
-8.18321e-05
-0.00295108
4.32368e-05
0.000241967
-0.00321235
4.55943e-05
0.000418244
0.0028041
-0.00294035
2.58481e-05
0.000274613
-1.14931e-05
-0.000369503
-0.00293321
5.38904e-05
-0.000424571
-0.00296066
2.19247e-05
-0.000193052
-0.00449159
9.72992e-05
1.18347e-06
-0.00484346
0.000152768
0.000194967
-0.00471804
0.000202749
-0.000175344
-0.0031016
0.000124612
-0.000130043
-0.00290198
5.00698e-05
2.1052e-05
-0.00342258
1.3216e-05
0.000261834
-0.00353475
-1.1144e-05
0.000227746
0.00244486
-0.00253782
-9.66165e-06
0.00013904
-2.08001e-05
-0.000188787
-0.000760486
-1.88117e-05
-0.000229967
-0.00229054
-3.09939e-05
-0.000176622
-0.00232063
-5.22499e-05
-0.000148926
-0.00240034
-5.50621e-05
-6.13178e-05
-0.00319795
-2.60962e-05
-0.000125437
-0.00338193
7.51532e-07
-0.000106518
-0.00272042
-2.4261e-07
-1.39249e-05
-0.0031815
-2.82969e-06
8.89451e-05
-0.00322622
-1.25977e-05
0.000134873
-0.00248894
-2.24877e-05
0.000155947
0.00164359
-0.00178706
-3.35545e-05
0.000252787
0.00527715
-0.00525994
0.00246447
-9.33788e-08
0.00228827
6.77775e-07
-0.00546571
0.00246841
6.18249e-05
0.00551595
-0.00538771
0.0021894
8.91333e-05
0.00189604
-0.0002158
-0.0056029
0.00245648
0.000244711
-0.00572774
0.00232485
0.000279816
0.00537271
-0.00529274
0.0019008
8.80069e-05
0.00194361
-0.0002912
-0.00595035
0.00236494
0.000136189
-0.00590621
0.00240374
0.000474448
-0.00560046
0.00223497
0.000214576
0.00555516
-0.00548927
0.00194851
0.000437266
0.00152444
-0.000345029
-0.00665738
0.00186243
-3.16875e-05
-0.00635706
0.00181025
-5.95045e-05
-0.00554064
0.0017122
0.000234614
-0.00537641
0.00166757
0.000513977
0.0055664
-0.00554919
0.00151033
0.000672127
0.000968494
-0.000441244
-0.0067582
0.00148663
-1.48171e-05
-0.00668621
0.00129945
-9.15594e-05
-0.00594345
0.001274
0.000628923
-0.00565121
0.00113552
0.000774358
-0.00523648
0.00109593
0.000649535
0.00488107
-0.00491614
0.000945257
0.000619023
0.00063546
-0.000680379
-0.00603677
0.00113877
-9.48788e-05
-0.00638138
0.000910341
-0.000334971
-0.00606154
0.000944014
0.000341888
-0.00558959
0.00092803
0.000503753
-0.00530797
0.000746024
0.000630638
-0.00491514
0.000746354
0.000470877
0.003791
-0.0038433
0.000569409
0.000430192
0.000179922
-0.000940303
-0.00516569
0.000769087
-0.000532002
-0.00548346
0.000746734
-0.000441924
-0.00537156
0.000705851
1.11573e-06
-0.00522224
0.000524565
0.000401745
-0.00524525
0.000402792
0.000608776
-0.0047327
0.000546609
0.000200938
-0.0034242
0.000418713
0.000526676
0.00388736
-0.00386657
9.47641e-05
0.000383013
0.000146164
-0.000760289
-0.00437691
0.000396799
-0.000422103
-0.00484917
0.000324554
-0.000410205
-0.00472179
0.00039681
-0.000183308
-0.00534712
0.000249522
0.000472359
-0.00631319
0.000124076
0.000356442
-0.00478561
0.0001548
-4.3992e-05
-0.00302647
5.34709e-05
0.000325002
-0.00318577
0.000152184
0.000628861
0.00256466
-0.0027169
0.000105352
0.000463245
-7.79047e-06
-0.000509181
-0.00343942
-8.32616e-05
-0.000472025
-0.00456402
-9.19068e-05
-0.000352314
-0.00551749
2.0736e-05
-0.000184117
-0.00616163
4.35293e-05
0.000271979
-0.00621514
9.3599e-05
-0.000140562
-0.00322603
0.000186073
-0.000111088
-0.00284216
5.34802e-05
0.000191757
-0.00334586
6.03543e-06
0.000416078
-0.00313105
8.20544e-05
0.00049323
0.00215378
-0.00234904
-4.43741e-05
0.000245913
-2.43699e-05
-0.000400046
-0.00275229
4.21002e-05
-0.000393421
-0.00279265
4.93373e-05
-0.000193411
-0.00453157
7.87009e-05
-4.84098e-05
-0.00499226
0.00014559
0.000163429
-0.00498904
0.000199023
-0.000183083
-0.00296994
0.000128734
-0.000163244
-0.00277806
5.74147e-05
-2.65719e-05
-0.00338225
2.23853e-05
0.000234519
-0.00365326
-1.38562e-05
0.000239647
-0.00264401
-9.73276e-06
0.000346308
0.00205755
-0.00217785
-7.97199e-05
0.0001601
-3.46123e-05
-0.000190887
-0.000591007
-2.04325e-05
-0.000239475
-0.00203811
-3.17627e-05
-0.000201224
-0.00209364
-5.67538e-05
-0.000154608
-0.00224308
-5.49034e-05
-6.46606e-05
-0.00316316
-2.51834e-05
-0.000134484
-0.00327226
-1.28546e-06
-0.000120391
-0.00259869
-5.8044e-07
-3.15053e-05
-0.00314774
-2.49546e-06
7.21555e-05
-0.00328813
-1.30738e-05
0.00012461
-0.00260399
-2.21575e-05
0.00016583
-0.00193938
-3.60053e-05
0.00017846
0.000962106
-0.00113258
-4.15404e-05
0.000322756
0.00528787
-0.00520818
0.00272343
-1.52767e-05
0.00246123
-8.01265e-05
-0.00507175
0.00273277
0.000125412
0.00517775
-0.00527862
0.00250174
0.000279455
0.00224181
-0.000140482
-0.00539549
0.00247035
6.37208e-05
-0.0052037
0.00246539
0.000454576
0.00513122
-0.00527369
0.0021571
0.000126775
0.00183432
-0.00036956
-0.00539608
0.00250161
4.38552e-05
-0.00559794
0.00241903
0.000525877
-0.00525792
0.00223861
0.000138735
0.00537515
-0.00533457
0.00193606
0.000211181
0.00191047
-0.000464727
-0.00578304
0.00229977
1.6606e-05
-0.00602465
0.00243509
9.24305e-05
-0.00553323
0.00218458
0.000256299
-0.0054259
0.00214991
0.000432864
0.00539396
-0.00528664
0.0019223
0.000631281
0.00153592
-0.00032963
-0.00664919
0.00186741
1.06883e-05
-0.00630079
0.00178065
0.000146649
-0.00568049
0.00171189
0.000367433
-0.00515655
0.00175383
0.000503534
-0.00525905
0.00164825
0.00066528
0.00544222
-0.00541046
0.00146281
0.000688836
0.000949688
-0.000474153
-0.00678942
0.00152383
-0.000119448
-0.00656285
0.00138783
-7.10253e-05
-0.00616566
0.00125772
0.000412759
-0.00566493
0.00121685
0.000562317
-0.00530814
0.00114862
0.000793795
-0.00506676
0.0010834
0.000675428
0.00462972
-0.00475315
0.000864135
0.000583011
0.00045438
-0.000911631
-0.00610264
0.00124796
-0.000444285
-0.00627857
0.000948244
-0.00039636
-0.00615154
0.000954771
0.000243513
-0.00578287
0.000894903
0.000488213
-0.00521275
0.000746345
0.000707224
-0.00500859
0.000741023
0.000434335
-0.00407044
0.00074009
0.000687363
0.00405951
-0.00396974
0.000318953
0.000635066
2.31437e-05
-0.000728018
-0.005133
0.000815856
-0.000404678
-0.00550461
0.000772811
-0.000522843
-0.00527538
0.000763188
-3.24454e-05
-0.00522322
0.000555972
0.000537784
-0.00516737
0.000381259
0.000696236
-0.00516948
0.00049978
0.000197994
-0.00364328
0.000523705
0.00043548
-0.00372611
0.000167776
0.000856311
0.0030289
-0.00316673
5.13998e-06
0.000731487
-2.7681e-05
-0.000753772
-0.00419442
0.000459948
-0.000502458
-0.00480074
0.000378798
-0.000466473
-0.00461762
0.000334536
-0.000233462
-0.00529302
0.000392056
0.00036724
-0.00624411
8.51815e-05
0.000400665
-0.00532673
0.000123971
-9.84007e-05
-0.00294395
5.95945e-05
0.000255686
-0.00333302
0.000136789
0.000614208
-0.00293753
0.00017469
0.00091318
0.00221325
-0.00255892
3.10745e-05
0.000508286
-9.98582e-05
-0.000625376
-0.00310524
-3.11622e-05
-0.000430251
-0.00449175
-0.000118696
-0.000403274
-0.00541067
1.11412e-05
-0.000227056
-0.0060237
6.14495e-05
0.000161026
-0.00625981
9.05984e-05
-1.56308e-05
-0.00351012
0.000210228
-0.000151593
-0.00276552
9.7776e-05
9.23348e-05
-0.00342862
1.7336e-05
0.000359267
-0.00334231
9.25475e-05
0.000520387
-0.00258859
4.08667e-05
0.00059147
0.0016819
-0.00184958
-0.000121859
0.00037404
-0.000107215
-0.000410541
-0.00256021
3.33896e-05
-0.000436401
-0.00261392
6.0296e-05
-0.000246532
-0.00454713
0.000110198
-5.26116e-05
-0.00514985
0.000134293
0.000128674
-0.00522345
0.000186668
-0.000145855
-0.00290026
0.000140708
-0.000193911
-0.00263613
6.03244e-05
-7.98662e-05
-0.00330245
2.59743e-05
0.000197899
-0.00374411
-1.2508e-05
0.000239277
-0.00276752
-5.01157e-06
0.000350229
-0.00231366
-5.83234e-05
0.000435136
0.00130952
-0.00151376
-0.000132156
0.000178639
-4.46697e-05
-0.000193649
-0.000416454
-2.1869e-05
-0.000242696
-0.00178208
-3.3772e-05
-0.000199239
-0.00186552
-6.06488e-05
-0.000159249
-0.00208615
-5.44371e-05
-7.42877e-05
-0.00311846
-2.5322e-05
-0.000142138
-0.00315201
-3.30103e-06
-0.000139527
-0.00245951
-9.42965e-07
-4.76694e-05
-0.00309845
-2.20222e-06
5.53144e-05
-0.00333351
-1.24363e-05
0.000112802
-0.00270786
-2.20106e-05
0.000161329
-0.00208781
-3.50492e-05
0.00019789
-0.00132137
-4.51138e-05
0.000223791
-0.000229598
2.43287e-05
-6.00621e-05
0.000172442
0.00494453
-0.00482745
0.00312251
5.61962e-05
0.00273729
1.22844e-05
-0.00511286
0.00296853
0.000290563
0.0049103
-0.00518339
0.00283137
0.000284747
0.00253442
-8.48206e-05
-0.00496497
0.00276349
0.000154765
-0.00537002
0.00273313
0.000574571
0.00469449
-0.0047976
0.00248486
0.000241233
0.00218934
-0.00022879
-0.00546416
0.00252251
-2.83359e-06
-0.00509321
0.00240655
0.00052372
-0.00521919
0.00241305
0.000216908
0.0049235
-0.00499438
0.00214981
0.000160938
0.00185198
-0.000467152
-0.00528248
0.00256047
-3.99129e-05
-0.00551442
0.00247461
0.000406045
-0.00542666
0.00227415
0.000281475
-0.00527711
0.00215598
0.000160281
0.00517606
-0.00496297
0.00199554
0.000505371
0.00188472
-0.000420726
-0.00561714
0.00229402
-6.37793e-05
-0.00601167
0.00236126
0.000230966
-0.0054868
0.00230433
0.00031351
-0.00533608
0.00214868
0.000380322
-0.00515105
0.00213753
0.000506551
0.0053607
-0.00520791
0.00192824
0.000658075
0.00151534
-0.000516167
-0.00651148
0.00190655
-0.000161656
-0.00620085
0.00180969
0.000141682
-0.00578979
0.00167725
0.000358334
-0.00507574
0.00168551
0.000498695
-0.00519879
0.00175719
0.000699629
-0.00531958
0.00165154
0.00076227
0.00511883
-0.00515155
0.00140869
0.000594826
0.00106328
-0.000666167
-0.00684847
0.00150489
-0.000349127
-0.00655911
0.00142494
-0.00022678
-0.00621646
0.00126906
0.000392883
-0.00582433
0.00126775
0.000494748
-0.0053312
0.00123338
0.000689982
-0.00502409
0.00112319
0.0006298
-0.0047133
0.000848079
0.000790247
0.00436018
-0.0044096
0.000810662
0.000744272
0.000278333
-0.000631503
-0.00595392
0.00107698
-0.000185764
-0.00642395
0.00117443
-0.000352043
-0.00631871
0.000944613
0.00017953
-0.00594733
0.000907255
0.000512518
-0.00507924
0.000786663
0.000603198
-0.00492704
0.000757837
0.000495239
-0.00437523
0.000748572
0.000817502
-0.00408239
0.000470717
0.000987986
0.00409832
-0.00407423
0.000163193
0.000942004
2.77901e-05
-0.000888902
-0.00495665
0.000868914
-0.000589919
-0.00536859
0.000767295
-0.000434124
-0.00530988
0.000774967
1.89307e-05
-0.00536249
0.000650062
0.000458472
-0.00510232
0.000399695
0.000700717
-0.00552069
0.000432416
0.0001491
-0.00401855
0.000627551
0.000299041
-0.00345333
0.000207565
0.000847548
-0.00323981
7.51812e-06
0.00110098
0.00234148
-0.00255849
3.43423e-05
0.000851128
-0.000108572
-0.000897678
-0.00399252
0.000491964
-0.000553346
-0.00466729
0.000449601
-0.000501515
-0.00451024
0.00036966
-0.000260091
-0.00523802
0.000312573
0.000193284
-0.00605662
0.000172309
0.000549064
-0.00588888
8.26346e-05
-4.63081e-05
-0.00308545
0.000160179
0.000101972
-0.00343578
0.00015272
0.000504826
-0.0031879
0.000241599
0.000982775
-0.00297714
0.000130521
0.000781409
0.00175754
-0.00195503
3.8629e-05
0.000682431
-0.000189608
-0.000619079
-0.00276112
-1.01995e-05
-0.000485899
-0.00437335
-0.000100067
-0.000409197
-0.00536973
3.03196e-06
-0.000285708
-0.00583988
6.04222e-05
6.94473e-05
-0.00626761
0.000128477
9.31822e-05
-0.00388247
0.000223916
-0.000188134
-0.0027099
0.000148837
-8.13146e-05
-0.00339683
6.74343e-05
0.000307856
-0.00349684
6.19081e-05
0.000499018
-0.00283547
7.96826e-05
0.00059233
-0.0019873
-6.35185e-05
0.000846771
0.000757238
-0.0012188
-7.19321e-05
0.000438243
-0.000150732
-0.000434553
-0.00235171
3.30984e-05
-0.000438217
-0.0024558
7.07915e-05
-0.000257026
-0.00455378
0.000124735
-6.47905e-05
-0.00526049
0.000126377
7.29485e-05
-0.00540638
0.00016998
-3.68471e-05
-0.00295845
0.000139571
-0.000223336
-0.00248343
7.18236e-05
-0.00011469
-0.00320414
2.90313e-05
0.000149572
-0.00380277
-9.62033e-06
0.000239145
-0.00289853
-7.84316e-06
0.000334751
-0.0024564
-3.5697e-05
0.000470743
-0.00171765
-0.000127281
0.000589504
-0.000693217
0.000319106
-0.000123757
0.000218593
-6.31702e-05
-0.000194708
-0.000239305
-2.29429e-05
-0.000247091
-0.00152141
-3.54414e-05
-0.000210645
-0.00162684
-6.18097e-05
-0.000186449
-0.00190749
-5.28587e-05
-8.70638e-05
-0.00306229
-2.35424e-05
-0.000146283
-0.00302536
-5.68507e-06
-0.000144739
-0.0023165
-1.56811e-06
-6.06981e-05
-0.00303694
-1.752e-06
3.74409e-05
-0.00336157
-1.15821e-05
0.000102668
-0.00280255
-2.04121e-05
0.000157099
-0.00223376
-3.31613e-05
0.000194589
-0.00150405
-4.69536e-05
0.000238607
-0.000191862
-6.75286e-05
0.000117287
-0.00114398
0.00102889
-6.22586e-05
9.75126e-05
0.00463973
-0.00458445
0.00335142
1.19733e-05
0.00311161
6.48922e-05
-0.00484835
0.00340361
0.000318555
0.00481
-0.00484578
0.0031303
0.000263842
0.00282702
2.79929e-06
-0.00495244
0.00297118
0.000325363
-0.00541959
0.00303413
0.000587429
0.00484032
-0.00475728
0.00273547
0.000155719
0.00248705
-2.98406e-05
-0.00504652
0.00289088
6.25257e-05
-0.00536499
0.00269309
0.000484672
-0.00478435
0.00275893
0.000314974
0.00468723
-0.0047629
0.00246246
0.000133129
0.00219326
-0.000152508
-0.00564657
0.00247716
0.000123596
-0.00513202
0.00239781
0.000501642
-0.00528776
0.00237952
0.0003786
-0.00502769
0.00234923
8.57849e-05
0.00495728
-0.00490626
0.00217328
0.000375177
0.00192196
-0.000388979
-0.00512585
0.00257242
-4.42229e-05
-0.00547488
0.00250137
0.000322492
-0.00543485
0.00239128
0.000447636
-0.00534797
0.00221089
0.000227719
-0.00490812
0.00225373
0.000363784
0.00534462
-0.0051481
0.00194179
0.000493714
0.00186511
-0.000416978
-0.00560019
0.00224715
-0.000189965
-0.00597209
0.00228275
0.000131027
-0.00548521
0.00237033
0.000412902
-0.00523187
0.00214556
0.000529837
-0.00519792
0.00216441
0.000661463
-0.00511788
0.00208567
0.000670243
0.00544691
-0.00525904
0.00183239
0.000565229
0.00150589
-0.000717731
-0.00641161
0.00191357
-0.000149212
-0.0062719
0.00177768
-0.000124997
-0.00577341
0.00169152
0.000478058
-0.00519611
0.00171245
0.000328335
-0.00507142
0.00172455
0.000695448
-0.0052913
0.00172345
0.000634367
-0.0050878
0.00158322
0.000884671
0.00527614
-0.00534764
0.00138576
0.000663877
0.000944659
-0.000640688
-0.00663683
0.0015139
-0.000226552
-0.00647585
0.00146241
-6.23896e-06
-0.00643422
0.00129689
0.000209368
-0.00578965
0.00120454
0.000404037
-0.0052173
0.00126233
0.000576731
-0.00493065
0.00116641
0.000518209
-0.00476415
0.00115107
0.000989257
-0.00449657
0.000763296
0.0010455
0.00459367
-0.00448165
0.000641121
0.00133855
0.00014957
-0.000885533
-0.00587033
0.00128453
-0.000402191
-0.00645354
0.000918837
-0.000287142
-0.0062749
0.000983642
0.00014938
-0.00606067
0.000927503
0.000620202
-0.00511759
0.000783877
0.000652627
-0.00480609
0.000713803
0.000510539
-0.00476636
0.000787524
0.000495727
-0.00414708
0.000616569
0.00109743
-0.00407173
0.000218332
0.00115248
0.00395322
-0.0039912
0.000149669
0.00105177
0.000103198
-0.000958936
-0.00485843
0.000909854
-0.000694651
-0.00517473
0.000816366
-0.000488463
-0.00534497
0.000789334
-0.000356865
-0.00529294
0.000802195
0.000403613
-0.00518209
0.000519502
0.000642699
-0.00561947
0.00040484
0.000356512
-0.00455954
0.000570587
0.000100823
-0.00318448
0.000359854
0.000760653
-0.00335285
6.47815e-05
0.00120136
-0.00281068
4.11236e-05
0.000943306
0.00216099
-0.0024838
0.000195256
0.000749714
-9.00123e-05
-0.000875592
-0.00382385
0.000529235
-0.000565595
-0.00463591
0.000540275
-0.000466454
-0.00442647
0.000423092
-0.000383154
-0.00511727
0.000346352
-1.12756e-05
-0.00590023
0.000236904
0.000538882
-0.00628073
0.000118459
0.000175904
-0.00362474
0.000257887
-0.000119317
-0.00346384
0.00022624
0.000412903
-0.00341784
0.000277613
0.000867793
-0.00332996
0.00022564
0.000910651
-0.00223139
8.8559e-05
0.000913393
0.00198348
-0.00211581
0.00010434
0.00085799
-0.000116939
-0.000653261
-0.00240114
1.38218e-05
-0.000535427
-0.00422733
-5.90084e-05
-0.000456017
-0.00524931
-2.14963e-05
-0.000334157
-0.00564348
7.60016e-05
-7.3749e-06
-0.00626865
0.000141786
0.000244389
-0.00430749
0.000272262
-0.000160898
-0.00274291
0.00019449
-0.000177674
-0.00328136
9.63506e-05
0.000243951
-0.00356732
4.35361e-05
0.000481987
-0.00310358
8.71802e-05
0.000605213
-0.00216982
-8.25888e-06
0.000835557
-0.001608
-3.91359e-05
0.000958633
-3.47725e-05
-0.000524386
0.000118097
0.000553413
-0.000127965
-0.000450302
-0.002124
2.84705e-05
-0.000454727
-0.00228833
7.32585e-05
-0.000295647
-0.00452634
0.000128358
-0.000151637
-0.00529683
0.000126269
6.90551e-06
-0.00551412
0.000140153
-2.28493e-06
-0.00308218
0.000149714
-0.000207735
-0.00235835
7.74877e-05
-0.000140372
-0.00311456
6.19259e-05
9.63571e-05
-0.0038275
-5.14968e-06
0.000237088
-0.00303003
-1.25454e-05
0.000338641
-0.00262457
-2.1215e-05
0.000446441
-0.00189148
-0.000113721
0.000631805
-5.92798e-05
-0.000142093
0.000161958
-0.00202137
0.00195714
-0.000104198
0.000105617
-6.32631e-05
-0.000193489
-6.25862e-05
-2.3384e-05
-0.000251525
-0.00125818
-3.46525e-05
-0.000226168
-0.00137352
-6.25931e-05
-0.000192901
-0.00172631
-5.00858e-05
-0.000101895
-0.00299168
-2.15691e-05
-0.000155042
-0.00288699
-6.86903e-06
-0.000161397
-0.00215919
-1.59872e-06
-8.12908e-05
-0.00295579
-1.4336e-06
-9.63321e-06
-0.00334281
-1.08771e-05
9.2524e-05
-0.00288655
-2.01073e-05
0.000153124
-0.00237623
-3.10723e-05
0.000192846
-0.00168154
-4.8513e-05
0.000222384
-0.000390495
-7.07053e-05
0.000125206
0.00090561
-6.94488e-05
-6.04276e-05
-0.00144217
0.00149051
-5.01694e-05
-5.15249e-05
0.00443184
-0.00437144
0.00346899
-8.08455e-06
0.00331374
3.15086e-05
-0.00456396
0.00371536
0.000229983
0.00462509
-0.00450631
0.00332122
0.000211925
0.00316738
-3.73104e-05
-0.00477596
0.00341741
0.000266029
-0.00483158
0.00344874
0.000392411
0.00486195
-0.00463947
0.00310284
0.000290413
0.00263083
5.94404e-05
-0.00485062
0.00305424
0.000116497
-0.00550556
0.00300318
0.000453444
-0.00470643
0.00301451
0.000333346
0.00487476
-0.00481638
0.00265871
0.000202212
0.00241859
1.29946e-05
-0.00524558
0.00298821
0.000262391
-0.00528948
0.00267658
0.000390746
-0.00476359
0.00278323
0.000560842
-0.00488818
0.00270197
0.000287311
0.00451848
-0.00463735
0.00237981
0.000473981
0.00215145
-0.000210395
-0.00567052
0.00252976
-2.02776e-05
-0.00512004
0.00244124
0.000340056
-0.00529691
0.0023894
0.000366619
-0.00494798
0.00238083