/*--------------------------------*- C++ -*----------------------------------*\
  =========                 |
  \\      /  F ield         | OpenFOAM: The Open Source CFD Toolbox
   \\    /   O peration     | Website:  https://openfoam.org
    \\  /    A nd           | Version:  7
     \\/     M anipulation  |
\*---------------------------------------------------------------------------*/
FoamFile
{
    version     2.0;
    format      ascii;
    class       volVectorField;
    location    "5";
    object      U_0;
}
// * * * * * * * * * * * * * * * * * * * * * * * * * * * * * * * * * * * * * //

dimensions      [0 1 -1 0 0 0 0];

internalField   nonuniform List<vector> 
18720
(
(-1.2889 1.04575 -1.3448)
(-0.755044 1.89409 0.718844)
(-1.36112 0.99058 -1.31904)
(-1.30085 1.07213 -1.37777)
(-1.00943 1.97002 -0.164552)
(-0.932382 2.47492 -0.583137)
(-0.982782 1.82295 0.574956)
(-0.822622 1.88696 0.766154)
(-0.778481 2.18699 0.274518)
(-1.08218 1.95762 -0.169462)
(-1.27526 1.09891 -1.38388)
(-0.998906 1.98734 -0.182053)
(-1.1172 1.82854 -0.569443)
(-1.2077 2.48733 0.877751)
(-1.0354 2.38982 -0.51062)
(-0.908793 2.4465 -0.654809)
(-0.647969 2.37395 0.0988119)
(-0.916138 2.05756 0.429341)
(-0.553093 1.92505 1.00267)
(-0.936671 2.18415 0.385729)
(-0.455468 2.00933 0.919451)
(-1.16894 1.83052 -0.551602)
(-1.20512 1.12714 -1.20968)
(-0.985562 1.98965 -0.197931)
(-1.11503 1.81251 -0.562843)
(-0.875067 1.67171 -0.658416)
(-0.913211 3.1415 1.47498)
(-1.32642 2.46969 0.86621)
(-1.14456 2.47782 0.844787)
(-0.547239 2.65196 0.679132)
(-0.685447 2.39087 0.122958)
(-0.625748 2.47407 -0.714948)
(-0.733897 2.39033 -0.00167299)
(0.405145 2.78455 -0.57237)
(-0.555608 1.91496 1.08322)
(-0.50946 1.93059 1.11059)
(-0.894618 2.18493 0.31166)
(-0.400733 2.05285 0.818717)
(-0.151651 1.73478 0.378755)
(-0.801469 1.65526 -0.664963)
(-1.14446 1.15214 -1.0094)
(-0.921665 1.98596 -0.244911)
(-1.08531 1.85194 -0.578728)
(-0.97301 1.53216 -0.745047)
(-0.785968 1.68854 -1.13412)
(-0.54303 3.42559 1.86745)
(-0.728452 3.13067 1.43762)
(-0.825838 3.12082 1.51399)
(-0.768913 3.09737 1.55647)
(-0.561798 2.66795 0.663424)
(-0.955924 2.52471 0.773198)
(-0.507797 2.64624 0.694506)
(-0.0844309 2.63895 0.675995)
(0.309191 2.79063 -0.602162)
(-0.62978 2.47042 -0.726677)
(-0.858971 2.47791 -0.017092)
(0.575412 2.78714 -0.435339)
(0.787522 2.96157 0.0618459)
(-0.523367 1.60391 0.440866)
(-0.520609 1.98467 1.01893)
(-0.849384 2.17678 0.202616)
(-0.234025 2.16676 0.572538)
(-0.0226547 1.84634 0.359324)
(-0.548299 1.6221 1.03658)
(-0.791397 1.68517 -1.04914)
(-1.10987 1.16216 -0.875252)
(-0.900565 1.96893 -0.273279)
(-1.095 1.88981 -0.604856)
(-0.834625 1.60415 -0.827871)
(-0.758172 1.7108 -1.23677)
(-0.759436 1.86959 0.275472)
(-0.584873 3.24216 2.30029)
(-0.950452 3.23922 1.84141)
(-0.846557 3.22562 2.21681)
(-0.630905 3.06884 1.93902)
(-0.671809 3.1201 1.47676)
(-0.39438 3.17025 1.52009)
(-0.684016 2.93641 1.75918)
(-0.107487 2.89839 1.26939)
(-0.141197 2.69359 0.700799)
(-0.827705 2.52489 0.857208)
(-0.399207 2.62293 0.742512)
(-0.0701721 2.55888 0.703319)
(0.689404 2.97739 0.44263)
(0.669291 2.83869 0.0250273)
(-0.571088 2.49079 -0.667448)
(-0.889948 2.50401 -0.00322078)
(0.401262 2.83644 -0.48118)
(0.840437 3.01245 0.215642)
(0.390711 2.30544 0.309773)
(-0.567146 1.60772 1.03221)
(-0.544522 2.00322 0.894325)
(-0.890934 2.1628 0.195272)
(-0.188236 2.20907 0.523842)
(0.0510263 1.90268 0.367986)
(-0.128236 1.74297 1.0681)
(-0.63909 1.77566 1.00891)
(-0.768934 1.86931 0.315423)
(-1.08247 1.17217 -0.764517)
(-0.882309 1.95659 -0.272492)
(-1.11298 1.84484 -0.622921)
(-0.910729 1.6689 -0.883652)
(-0.778264 1.74569 -1.31926)
(-0.724649 1.89512 0.194211)
(-0.411568 1.51309 -0.0612233)
(-0.405229 3.16316 2.70373)
(-0.925902 3.15569 2.45385)
(-0.512757 3.21385 2.34726)
(-0.475452 3.05113 2.11372)
(-0.514911 2.94405 2.02929)
(-0.449062 3.28178 2.11938)
(-0.652416 3.08533 1.91585)
(0.0511175 2.98821 1.95002)
(-0.232559 2.8687 1.36896)
(-0.49656 3.06364 1.63607)
(-0.598448 2.98165 1.55242)
(-0.100363 2.83533 1.26875)
(0.36749 2.67896 1.52097)
(0.350253 3.04593 0.511263)
(-0.692392 2.54252 0.917553)
(-0.289164 2.59216 0.764362)
(-0.0042128 2.52755 0.677638)
(0.646027 2.98276 0.412241)
(0.757714 2.81414 0.688401)
(-0.0316258 2.12483 0.822075)
(-0.580728 2.45429 -0.450526)
(-0.675004 2.56775 -0.221559)
(0.453164 2.83798 -0.466003)
(0.914068 3.04222 0.232293)
(0.948009 2.42289 -0.101213)
(-0.616798 1.45609 1.13609)
(-0.614319 1.76648 1.05623)
(-0.493481 2.00694 0.837486)
(-0.867086 2.18176 0.160425)
(-0.132437 2.20821 0.507968)
(0.5233 1.99338 0.290331)
(0.179227 1.85289 1.21304)
(-0.486662 1.74816 1.11528)
(-0.36562 1.60494 0.371932)
(-0.377341 1.52978 -0.0935036)
(-1.06266 1.18376 -0.671546)
(-0.906407 1.9291 -0.267701)
(-1.07148 1.86388 -0.723198)
(-0.999245 1.6617 -0.960903)
(-0.765526 1.79003 -1.38917)
(-0.712518 1.9087 0.1912)
(-0.362876 1.5197 -0.122851)
(0.297357 1.61925 0.0562039)
(-0.140889 3.01898 2.73331)
(-0.453667 3.10732 2.73333)
(0.0818416 3.22135 2.66164)
(0.227613 2.97447 2.42009)
(-0.720354 2.87153 2.11528)
(0.103827 3.39264 2.30604)
(-0.336786 3.23855 2.13732)
(0.322821 2.95409 1.91601)
(-0.112785 2.91978 1.88835)
(-0.421147 3.24252 2.21142)
(-0.289474 3.12676 1.76731)
(0.114409 2.97273 1.97478)
(0.180701 2.63303 1.7344)
(0.230554 2.73942 1.51663)
(-0.27589 3.06126 1.60422)
(-0.548222 2.92893 1.58625)
(-0.0245592 2.90803 1.23757)
(0.509846 2.59111 1.46882)
(0.756184 2.75776 1.26332)
(0.197606 2.66629 1.04587)
(-0.460159 2.56398 1.00342)
(0.249622 2.58061 0.866281)
(-0.0246727 2.50217 0.720324)
(0.453195 2.89974 0.920012)
(0.97668 2.93451 0.405003)
(-0.387442 1.68516 1.20986)
(-0.599357 1.45227 1.10955)
(-0.407383 2.40549 -0.446607)
(-0.538085 2.62608 -0.345397)
(0.409036 2.86557 -0.192891)
(0.891945 3.06777 0.151786)
(1.21081 2.50311 -0.21506)
(-0.592497 1.49885 1.10711)
(-0.107227 1.53932 0.504739)
(-0.357032 1.60661 0.28036)
(-0.489815 2.03841 0.810679)
(-0.956801 2.15104 -0.0315468)
(0.315406 2.24127 0.496317)
(0.416192 2.11251 0.33937)
(0.577548 1.91103 1.49236)
(-0.32226 1.74723 1.12991)
(-0.389307 1.60385 0.381943)
(0.18238 1.69604 0.156488)
(0.320356 1.58084 0.0291673)
(-1.0454 1.19758 -0.602342)
(-0.86967 1.94298 -0.223051)
(-1.12039 1.92604 -0.722966)
(-1.03985 1.71715 -1.06199)
(-0.694001 1.82954 -1.31206)
(-0.644296 1.92278 0.189095)
(-0.412258 1.51682 -0.0840248)
(0.0799029 1.63417 0.230239)
(0.702192 1.53224 -0.203444)
(-0.0638311 2.85274 2.35495)
(-0.362334 2.92104 2.6242)
(0.11312 3.03703 2.86339)
(-0.0995883 2.7662 2.65027)
(0.0284827 2.97528 2.38268)
(0.382095 3.34908 2.55264)
(0.189848 2.94169 2.48273)
(0.270125 2.73985 2.23137)
(0.274185 2.9224 1.87852)
(0.179488 3.43772 2.35219)
(-0.308393 3.19526 2.20267)
(0.106593 2.94504 2.00873)
(0.347046 2.79985 1.87528)
(-0.0174462 2.73296 1.50179)
(-0.222566 3.18119 2.26372)
(-0.0846194 3.09961 1.77185)
(0.137252 2.9762 1.86715)
(0.40029 2.57986 1.84917)
(0.551105 2.64784 1.38452)
(0.65865 2.78032 1.33069)
(-0.247093 3.05286 1.6139)
(-0.489964 2.92199 1.53699)
(0.040245 2.89475 1.43563)
(0.537757 2.5686 1.37404)
(0.937036 2.68324 1.08666)
(0.496961 1.88891 1.36934)
(-0.267767 1.62416 0.91495)
(-0.292123 2.57375 1.04283)
(0.139369 2.55239 0.953524)
(-0.0665534 2.49208 0.863812)
(0.624591 2.80222 0.676481)
(1.30153 2.9164 0.21966)
(-0.369846 1.81522 1.25389)
(0.351382 1.57893 0.0881622)
(-0.0185609 1.5367 0.168224)
(-0.336544 2.3795 -0.326453)
(-0.585941 2.62256 -0.269149)
(0.391899 2.83032 -0.206161)
(0.890273 3.06524 0.175463)
(1.45414 2.62539 -0.132995)
(-0.56925 1.52548 1.08063)
(-0.162829 1.54083 0.484495)
(0.567038 1.50822 0.311159)
(0.217267 1.69879 0.117274)
(-0.452157 2.04035 0.856935)
(-0.805964 2.19438 -0.0106881)
(0.0620353 2.32721 0.496429)
(0.63608 2.1527 0.387229)
(1.02139 1.93684 1.70362)
(-0.449534 1.73215 1.05501)
(-0.460298 1.52901 0.531965)
(0.124923 1.7007 0.214524)
(1.03581 1.67477 -0.181507)
(0.704607 1.51196 -0.237696)
(-1.03912 1.2086 -0.567276)
(-0.886149 1.93432 -0.260867)
(-1.17963 1.87516 -0.868201)
(-1.11131 1.79974 -1.17811)
(-0.610529 1.8568 -1.23292)
(-0.571921 1.92689 0.219747)
(-0.414841 1.50954 -0.0916093)
(0.312089 1.55752 0.00782937)
(0.711453 1.52893 -0.211333)
(1.14313 1.1983 -0.329287)
(0.0601801 2.73636 2.27922)
(-0.169166 2.9189 2.18706)
(0.147844 2.88628 2.40485)
(0.141156 2.71485 2.25817)
(-0.32512 2.81395 2.59373)
(0.155197 3.01656 2.79842)
(0.00496591 2.77582 2.79425)
(0.219647 2.73085 2.60323)
(0.190475 2.74803 2.1974)
(0.35793 3.32831 2.6016)
(0.0391112 3.01923 2.56223)
(0.297188 2.74397 2.29986)
(0.278455 2.73849 2.28812)
(0.148784 2.79229 1.87241)
(0.27625 3.36331 2.41324)
(0.103495 3.11948 2.30849)
(0.0699831 2.90546 2.05144)
(0.643251 2.74271 1.80995)
(0.73747 2.55198 1.69739)
(0.586274 2.69631 1.33673)
(-0.203759 3.20378 2.25176)
(0.201325 3.09211 1.79468)
(0.175336 3.01512 1.75714)
(0.577695 2.67946 1.72099)
(0.60886 2.61409 1.40423)
(0.633484 2.18903 1.38602)
(0.333225 1.76552 1.16423)
(-0.153691 3.01889 1.67023)
(-0.185234 2.94553 1.57938)
(0.19176 2.68362 1.74983)
(0.535631 2.59206 1.29055)
(1.02824 2.60626 1.00302)
(0.838493 1.98823 1.38294)
(0.311957 1.69308 1.02253)
(0.537232 1.60382 -0.23241)
(-0.226464 2.59864 1.1068)
(0.320195 2.48941 0.978195)
(-0.0649218 2.52711 0.955648)
(0.461891 2.77535 0.848579)
(1.55278 2.84465 0.0694993)
(-0.125926 1.96866 1.08758)
(0.102511 1.58985 0.374162)
(0.657785 1.49663 0.57263)
(0.604189 1.49707 0.345341)
(-0.316203 2.35442 -0.247367)
(-0.200948 2.73154 -0.4151)
(0.450275 2.82151 -0.241805)
(0.931113 3.02247 0.170725)
(1.67942 2.65711 -0.131916)
(-0.455166 1.62042 1.01388)
(-0.0947969 1.50585 0.458523)
(0.545088 1.51401 0.210309)
(1.0287 1.4381 0.172564)
(1.03247 1.66482 -0.23382)
(-0.400888 2.02059 0.834086)
(-0.855354 2.16718 -0.0689498)
(0.196905 2.29564 0.687686)
(1.06118 2.13741 0.509856)
(1.29227 1.99773 1.71151)
(-0.269964 1.67624 1.17445)
(-0.438946 1.5586 0.431451)
(0.0880799 1.70069 0.234546)
(1.04099 1.67986 -0.107304)
(0.889733 1.26044 0.0953061)
(1.13308 1.24881 -0.326038)
(-1.03393 1.22356 -0.571741)
(-0.87106 1.92976 -0.31726)
(-1.04723 1.96129 -0.890602)
(-1.17978 1.85892 -1.26191)
(-0.505976 1.88178 -1.17785)
(-0.54778 1.94413 0.139326)
(-0.445411 1.51012 -0.0959528)
(0.232593 1.56536 0.0794888)
(0.713489 1.52623 -0.210753)
(1.12668 1.1785 -0.307199)
(1.30406 0.897602 -0.654481)
(0.0333867 2.57881 2.37154)
(-0.175312 2.74845 2.33494)
(0.110797 2.7254 2.24133)
(-0.0673858 2.69156 2.31365)
(-0.318821 2.68584 2.1911)
(0.0340536 2.77095 2.61432)
(0.443747 2.79573 2.33612)
(0.0992699 2.6329 2.26608)
(-0.132187 2.81465 2.43769)
(0.311342 2.93312 2.80114)
(0.357171 2.80992 2.9551)
(0.365086 2.62971 2.67305)
(0.075884 2.72577 2.49978)
(0.471817 2.78834 2.31377)
(0.421535 3.29448 2.58166)
(0.473934 3.09663 2.50113)
(0.298248 2.70676 2.37325)
(0.310027 2.69981 2.27099)
(0.362383 2.74936 2.20433)
(0.753184 2.58368 1.5581)
(0.412919 3.33021 2.45319)
(0.660457 3.29987 1.9591)
(0.1409 2.92345 2.13245)
(1.09916 2.63805 1.71735)
(1.13897 2.46307 1.71738)
(0.720235 2.41022 1.70187)
(0.632623 2.18923 1.41956)
(-0.0658545 3.27494 2.24116)
(0.775524 3.15553 1.83573)
(0.148381 3.01506 1.70256)
(0.845538 2.51177 1.92165)
(0.80181 2.5613 1.46958)
(0.577854 2.40569 1.1826)
(0.473751 1.86235 1.55073)
(0.356139 1.8079 0.769582)
(-0.289005 2.98151 1.78788)
(-0.167649 2.97988 1.5999)
(0.193186 2.76973 1.59625)
(0.47355 2.5554 1.4767)
(1.16354 2.50824 0.996676)
(1.29304 2.08636 1.14387)
(0.269356 1.64709 1.10982)
(0.627231 1.92807 0.489833)
(0.538546 1.43864 0.777712)
(-0.301537 2.63326 1.1156)
(0.451232 2.49084 1.00137)
(-0.0150525 2.53549 0.972765)
(0.373252 2.75383 1.01095)
(1.51099 2.84544 0.219653)
(0.367371 2.23622 0.735628)
(0.0119872 1.5303 0.270494)
(0.776243 1.50816 0.305833)
(1.15247 1.31313 0.488008)
(0.996305 1.4385 0.0707247)
(-0.271918 2.31964 -0.0661436)
(-0.40776 2.7253 -0.529716)
(0.45324 2.85585 -0.198959)
(0.828808 3.00604 0.273423)
(1.72699 2.67301 -0.0317947)
(-0.414427 1.68278 0.97403)
(-0.0458695 1.44741 0.472632)
(0.442201 1.58578 -0.103138)
(1.07252 1.45432 0.175112)
(0.971323 1.1251 0.0694601)
(0.866866 1.26444 0.064318)
(-0.378138 2.00577 0.646978)
(-0.778367 2.1749 -0.0576275)
(0.554701 2.34037 0.348068)
(1.02414 2.25188 0.742163)
(1.45545 2.03362 1.59898)
(-0.218161 1.63351 1.20834)
(-0.496554 1.58962 0.514698)
(0.0427058 1.69439 0.270794)
(1.03467 1.68251 -0.0512475)
(0.941757 1.24296 -0.0432234)
(1.19759 1.07868 -0.237753)
(1.28855 0.91136 -0.643201)
(-1.01252 1.23319 -0.62103)
(-0.892867 1.93268 -0.219413)
(-1.16516 1.95063 -1.0105)
(-1.19852 1.91341 -1.35729)
(-0.388793 1.90023 -1.09483)
(-0.5388 1.97151 0.0618549)
(-0.453231 1.51666 -0.103994)
(0.208178 1.5641 0.0869768)
(0.700849 1.52389 -0.201802)
(1.1144 1.18494 -0.314776)
(1.31407 0.902352 -0.648824)
(1.46945 0.573554 -0.873532)
(0.176001 2.53099 2.36869)
(-0.308311 2.57589 2.23322)
(0.0597238 2.51204 2.44191)
(0.00240866 2.55347 2.25385)
(-0.0152028 2.67531 2.34752)
(0.181715 2.63709 2.33282)
(0.120732 2.52375 2.37266)
(0.227077 2.56633 2.23604)
(-0.209658 2.65149 2.13507)
(0.110404 2.71111 2.71151)
(0.412847 2.71482 2.5617)
(0.599369 2.43179 2.50809)
(0.152856 2.60768 2.13641)
(-0.0639298 2.7115 2.52986)
(0.347557 2.90155 2.7458)
(0.459651 2.90156 2.81)
(0.124504 2.78972 2.67717)
(0.297733 2.62307 2.5836)
(0.524899 2.53605 2.51743)
(0.367867 2.75145 2.20082)
(0.577254 3.26201 2.58571)
(0.787122 3.05056 2.47884)
(0.604213 2.66937 2.38251)
(0.797832 2.49254 2.23894)
(0.667483 2.70695 2.17642)
(0.687661 2.65744 2.21103)
(0.642506 2.42971 1.71196)
(0.721763 3.35381 2.50334)
(0.905889 3.14211 2.24983)
(0.363438 3.01793 2.06397)
(0.880575 2.6539 1.84273)
(0.963094 2.54827 1.84146)
(1.12699 2.39284 1.63789)
(0.670901 2.32719 1.53701)
(0.743798 1.92367 1.16771)
(-0.158656 3.33912 2.20912)
(0.649877 3.17346 1.98052)
(0.195278 3.07472 1.63284)
(0.779787 2.75738 1.83056)
(0.907312 2.49902 1.51864)
(1.02491 2.315 1.27913)
(0.45454 1.88701 1.57926)
(1.0275 1.98406 0.811628)
(0.708808 1.96826 0.137117)
(-0.0340102 2.93071 2.01836)
(0.119679 2.94987 1.77637)
(0.224556 2.74036 1.81883)
(0.468689 2.52934 1.68742)
(1.51278 2.26464 0.921075)
(1.77311 2.16976 0.797515)
(0.137374 1.69614 1.38998)
(0.536421 1.83131 0.803215)
(1.31643 1.56787 -0.00785551)
(1.26998 1.34837 0.168055)
(0.0456406 2.57654 1.44802)
(0.507211 2.46577 1.27656)
(0.0298223 2.53903 0.99021)
(0.280977 2.59948 1.35055)
(1.43067 2.84621 0.498005)
(0.73649 2.39509 0.511749)
(-0.0095912 1.48273 0.18464)
(0.848454 1.51939 0.0411557)
(1.05679 1.34152 0.590779)
(1.66734 1.18779 0.198554)
(0.999352 1.10861 -0.132725)
(-0.440239 2.24961 0.10709)
(0.0988627 2.69614 -0.689707)
(0.456227 2.84554 -0.233361)
(0.851291 2.94439 0.381376)
(1.67702 2.68089 0.0902143)
(-0.304346 1.79072 0.84003)
(-0.0571999 1.43117 0.555098)
(0.334797 1.6493 -0.0259199)
(1.09751 1.49118 0.157198)
(0.988379 1.17945 0.519248)
(1.62734 0.917118 -0.494381)
(1.15291 1.08701 -0.427984)
(-0.336957 1.98343 0.522773)
(-0.786386 2.1928 -0.0499829)
(0.414948 2.37014 0.734161)
(1.25576 2.18932 0.83696)
(1.57935 2.0903 1.28453)
(-0.155038 1.60978 1.2736)
(-0.545087 1.5881 0.546322)
(0.0096406 1.68076 0.297215)
(1.01366 1.67802 0.0440649)
(0.991995 1.23736 -0.137278)
(1.24711 1.06568 -0.0877694)
(1.38978 0.737431 -0.953355)
(1.40371 0.572992 -0.929874)
(-0.989446 1.23379 -0.687221)
(-0.887159 1.93515 -0.238855)
(-1.10347 1.99165 -1.1547)
(-1.19551 2.01432 -1.4387)
(-0.290444 1.91146 -1.00216)
(-0.512323 1.97694 0.0135596)
(-0.471058 1.49427 -0.115345)
(0.170641 1.56932 0.0821945)
(0.694024 1.52464 -0.196532)
(1.12065 1.17658 -0.346616)
(1.33686 0.889136 -0.631316)
(1.50943 0.56793 -0.834222)
(1.67232 -0.00532815 -1.04819)
(0.0941723 2.34947 2.44397)
(-0.176884 2.5579 2.27961)
(-0.00123005 2.53421 2.38094)
(0.0256641 2.44875 2.32246)
(-0.0265407 2.4588 2.33707)
(0.120052 2.42534 2.53033)
(0.123123 2.58341 2.21163)
(0.285661 2.30732 2.42347)
(-0.0242184 2.45728 2.2845)
(0.20331 2.59789 2.36803)
(0.178133 2.50008 2.34997)
(0.373795 2.51689 2.2769)
(-0.0714012 2.40369 2.20689)
(-0.0498658 2.61941 2.07455)
(0.108116 2.65951 2.76131)
(0.48986 2.68537 2.57591)
(0.571469 2.61516 2.48999)
(0.301647 2.54809 2.18467)
(0.115765 2.43553 2.29831)
(0.415767 2.74705 2.39385)
(0.596115 2.73832 2.77103)
(0.616453 2.9146 2.72416)
(0.540142 2.61932 2.92311)
(0.379615 2.58396 2.51864)
(0.475067 2.54441 2.48082)
(0.534221 2.57232 2.46442)
(0.537618 2.7037 2.25922)
(0.637191 3.22332 2.69279)
(0.664013 2.9732 2.51976)
(0.844264 2.72835 2.32883)
(0.877827 2.35145 2.26061)
(0.745043 2.39709 2.4327)
(0.773351 2.57796 2.22927)
(0.805316 2.50136 2.12056)
(0.454655 2.26881 1.56067)
(0.668605 3.41289 2.4805)
(0.598131 3.2364 2.30902)
(0.572528 2.95536 2.09384)
(1.13754 2.66307 1.92073)
(1.14456 2.45296 1.94877)
(1.19065 2.38204 1.70983)
(0.748784 2.24697 1.7446)
(0.74166 2.10234 1.47617)
(1.07367 2.0749 0.704614)
(0.590366 3.08543 2.53056)
(0.997561 2.63818 2.51922)
(0.312778 3.18392 1.6639)
(1.0336 2.71256 1.92296)
(1.24736 2.26614 1.52107)
(1.13147 2.33105 1.24797)
(0.840807 1.99599 1.4594)
(0.905475 1.92528 1.21045)
(1.39126 2.00571 0.478387)
(1.43093 1.5488 -0.0188923)
(-0.0269837 2.98255 2.08107)
(0.117209 3.05423 1.76581)
(0.283255 2.74689 1.78663)
(0.665068 2.55415 1.74404)
(1.54694 2.14017 0.888697)
(1.95376 2.26053 0.791419)
(0.178055 1.83656 1.53194)
(0.42988 1.74492 1.02025)
(1.31902 1.50715 -0.0316621)
(1.91593 1.25397 0.0284311)
(1.5822 1.16097 -0.340913)
(-0.251841 2.6647 1.4477)
(0.532861 2.42278 1.36064)
(0.0650981 2.52997 1.04036)
(0.435572 2.72586 0.986924)
(1.27528 2.7704 1.03369)
(1.6265 2.42513 -0.0127404)
(-0.0161823 1.48606 0.242452)
(0.686095 1.56787 0.170203)
(0.954854 1.40165 0.767591)
(1.686 1.30378 0.449203)
(1.47746 0.950122 0.00665865)
(1.78997 0.938699 -0.796048)
(-0.398525 2.25314 0.19469)
(-0.0351571 2.70467 -0.404974)
(0.517958 2.8232 -0.295619)
(0.89198 2.87324 0.337801)
(1.65291 2.65986 0.139754)
(0.213801 1.89898 0.682429)
(-0.0725184 1.43131 0.887802)
(0.181741 1.69815 0.269995)
(1.07438 1.53111 0.173032)
(1.11675 1.22293 0.629482)
(1.45878 0.885978 -0.191378)
(2.2646 0.586624 -0.555605)
(1.40301 0.720054 -1.17613)
(-0.3255 1.97749 0.416009)
(-0.734521 2.2115 -0.0720167)
(0.637391 2.32309 0.883565)
(1.49944 2.12646 0.89814)
(1.6041 2.15653 1.03073)
(-0.0774422 1.62173 1.4174)
(-0.721167 1.47871 0.649662)
(0.0131663 1.69676 0.309271)
(0.984458 1.68542 0.0702253)
(0.99848 1.25361 -0.215641)
(1.32456 1.04322 0.0703028)
(1.46856 0.748161 -0.696257)
(2.05973 -0.190786 -1.09481)
(1.61178 -0.00611298 -1.12574)
(-0.966621 1.22909 -0.75477)
(-0.904404 1.92802 -0.239486)
(-1.12493 2.02861 -1.23975)
(-1.20355 2.05898 -1.4716)
(-0.205704 1.92429 -0.909738)
(-0.432798 1.96855 -0.0900093)
(-0.483937 1.49485 -0.150999)
(0.153823 1.56762 0.0769091)
(0.680476 1.53254 -0.180945)
(1.11699 1.15605 -0.32796)
(1.3605 0.87972 -0.596922)
(1.52841 0.565822 -0.81172)
(1.63325 -0.00700151 -1.0651)
(1.02935 -0.499251 -1.74268)
(-0.0328016 2.22221 2.42297)
(-0.194408 2.38904 2.44609)
(0.182412 2.32745 2.43953)
(0.189951 2.31938 2.46526)
(0.00250888 2.32265 2.43828)
(0.252671 2.40435 2.51335)
(0.25261 2.5572 2.26114)
(0.390894 2.23277 2.48566)
(-0.0528818 2.28455 2.42225)
(0.293742 2.36548 2.65542)
(0.321407 2.58148 2.19252)
(0.472129 2.30644 2.44231)
(0.252825 2.25716 2.25206)
(-0.116543 2.37577 2.23435)
(0.413078 2.71123 2.31702)
(0.309303 2.48786 2.39306)
(0.570853 2.50271 2.17319)
(0.275495 2.4321 2.21784)
(0.0114367 2.38673 2.22108)
(0.0391707 2.5667 2.15915)
(0.23473 2.59004 2.82319)
(0.567025 2.61556 2.67286)
(0.717024 2.56124 2.61257)
(0.641461 2.51742 2.29022)
(0.293786 2.38477 2.30926)
(0.207079 2.59607 2.28059)
(0.335721 2.6442 2.46502)
(0.533412 2.72569 2.76445)
(0.763896 2.85347 2.6981)
(0.65272 2.55603 2.90407)
(0.594582 2.5483 2.56719)
(0.692077 2.43266 2.53024)
(0.676809 2.50435 2.50223)
(0.584373 2.51147 2.49131)
(0.543785 2.56913 2.23417)
(0.716921 3.20101 2.68245)
(0.885722 2.94446 2.50884)
(0.642982 2.76492 2.37822)
(0.928797 2.36609 2.23272)
(0.763619 2.45179 2.26909)
(0.802373 2.51201 2.30757)
(0.781775 2.44286 2.20015)
(0.921169 2.60465 2.00797)
(0.516469 2.06329 2.04246)
(0.976917 3.2697 2.51983)
(1.06978 3.04223 2.34746)
(1.04009 2.96062 2.17668)
(1.09029 2.63068 1.94317)
(1.13393 2.35454 2.04672)
(1.14188 2.27824 1.90699)
(0.8179 2.24333 1.81234)
(1.31074 2.21259 0.956816)
(1.22222 2.32238 1.30674)
(1.33442 2.07219 0.404945)
(0.463497 3.19296 2.54277)
(1.16599 3.29917 1.56089)
(0.89915 3.03543 1.91856)
(1.35972 2.56612 1.88837)
(1.24252 2.23804 1.49994)
(1.27852 2.14305 1.38498)
(0.947438 2.11039 1.54426)
(0.850185 1.9143 1.37465)
(1.35536 2.01504 0.526006)
(1.55664 2.0048 0.138251)
(1.60022 1.22686 0.137858)
(0.00776053 3.00625 2.11622)
(0.159874 2.96776 1.9652)
(0.419891 2.7112 1.7977)
(0.814558 2.546 1.84306)
(1.36261 2.20068 1.28439)
(2.00491 2.28608 0.924433)
(0.665174 2.02877 1.22547)
(0.214307 1.5706 1.36749)
(1.22179 1.49226 -0.0741017)
(1.9855 1.2066 0.0630324)
(1.68173 1.19366 0.163207)
(1.68996 0.949304 -0.332629)
(-0.0555438 2.54294 1.66961)
(0.664753 2.4211 1.59231)
(0.268286 2.43306 1.3851)
(0.387891 2.68679 1.15132)
(1.16115 2.69803 0.914069)
(2.04766 2.46662 -0.0357546)
(0.0633445 1.66222 0.525011)
(0.194793 1.70298 0.715025)
(0.959112 1.49554 0.728707)
(1.63972 1.40732 0.675073)
(1.47886 0.969446 0.310936)
(2.1375 0.954197 0.237738)
(2.20292 0.426405 -0.852977)
(-0.457337 2.26089 0.387791)
(0.164978 2.64263 -0.299497)
(0.560633 2.87603 -0.418869)
(0.853283 2.82503 0.328902)
(1.5928 2.69126 0.176416)
(1.32195 1.66944 0.932333)
(-0.00597691 1.43819 1.16818)
(0.130961 1.67832 0.379617)
(0.95969 1.55579 0.297428)
(1.32094 1.26461 0.358582)
(1.39998 0.878189 0.014771)
(2.18793 0.630352 -0.290023)
(2.71944 0.231792 -0.144144)
(2.06419 -0.231533 -1.15378)
(-0.326031 1.94706 0.359091)
(-0.706509 2.23012 0.0282114)
(0.719895 2.34137 1.06414)
(1.3045 2.32644 0.954636)
(1.59235 2.23177 0.871599)
(0.0143813 1.67164 1.43969)
(-0.524227 1.65616 0.512777)
(0.0265862 1.70736 0.338376)
(0.957601 1.70072 0.108508)
(1.03292 1.26462 -0.202944)
(1.40426 1.02848 0.107165)
(1.52704 0.741109 -0.543963)
(1.97545 -0.121253 -1.09601)
(0.795828 -0.934705 -0.848152)
(0.949877 -0.498294 -1.78412)
(-0.938157 1.22032 -0.8265)
(-0.908473 1.9307 -0.221141)
(-1.14419 2.04579 -1.32088)
(-1.12937 2.09006 -1.44288)
(-0.136938 1.93758 -0.818042)
(-0.430352 1.94296 -0.11072)
(-0.482197 1.51667 -0.150405)
(0.12381 1.5648 0.0855808)
(0.642463 1.53511 -0.155029)
(1.10928 1.12069 -0.30898)
(1.40158 0.864296 -0.547825)
(1.55249 0.555857 -0.773596)
(1.53565 0.00123059 -1.17187)
(0.948334 -0.49701 -1.78725)
(-0.349452 -0.742312 -1.10444)
(0.00605637 2.10438 2.28877)
(-0.207812 2.20463 2.42151)
(0.0342205 2.19605 2.44398)
(0.0639583 2.15015 2.47962)
(-0.108544 2.33979 2.47064)
(0.218024 2.31221 2.44957)
(0.281469 2.32175 2.43681)
(0.214279 2.28712 2.47971)
(-0.160287 2.41775 2.3337)
(0.449726 2.33408 2.56428)
(0.285114 2.66284 2.14106)
(0.306967 2.30969 2.44923)
(0.0488533 2.32383 2.24187)
(-0.122048 2.29703 2.21179)
(0.598765 2.47891 2.5592)
(0.691801 2.56344 2.2646)
(0.574283 2.24189 2.42443)
(0.403686 2.28277 2.29532)
(-0.0327433 2.19634 2.32848)
(0.127883 2.38624 2.23175)
(0.734243 2.71679 2.46288)
(0.541124 2.40893 2.40056)
(0.630215 2.52145 2.15215)
(0.530476 2.37563 2.28411)
(0.216405 2.35479 2.2072)
(0.258608 2.39581 2.28487)
(0.0815838 2.60305 2.24149)
(0.611273 2.42981 2.97622)
(0.561864 2.62202 2.67009)
(0.759473 2.53335 2.59177)
(0.950963 2.53155 2.42772)
(0.660392 2.29232 2.34063)
(0.569861 2.38682 2.38173)
(0.493569 2.54905 2.15833)
(0.097833 2.74798 2.32606)
(0.455793 2.80116 2.76765)
(0.930124 2.72571 2.63799)
(0.742872 2.65222 2.76404)
(1.07817 2.31323 2.71804)
(0.667589 2.46048 2.49909)
(0.968659 2.3468 2.54847)
(0.548187 2.54216 2.4059)
(0.772001 2.557 2.25582)
(0.663968 2.62311 2.14907)
(0.783295 3.10837 2.72626)
(1.03285 2.91268 2.55115)
(1.04062 2.60829 2.35032)
(0.893107 2.38574 2.245)
(0.858554 2.30225 2.39582)
(0.919133 2.45473 2.36627)
(0.774142 2.42588 2.32095)
(0.902669 2.49248 2.03679)
(1.06025 2.50441 2.11576)
(1.94384 2.14427 1.18192)
(0.864033 3.25123 2.6463)
(1.04589 3.03805 2.36151)
(1.03135 3.04093 2.25932)
(0.995573 2.61715 1.9837)
(1.73494 2.16681 1.83365)
(1.38705 2.09745 1.89631)
(1.08319 2.19719 1.75312)
(0.784781 2.07747 1.82648)
(1.4562 2.1886 1.36264)
(1.4569 2.63541 0.803306)
(1.51996 1.99942 0.159832)
(0.558349 3.15256 2.66273)
(0.950634 3.08291 2.31012)
(0.968279 3.13413 1.84302)
(0.534718 3.10321 1.84205)
(1.603 2.11298 1.58608)
(1.3505 1.98167 1.42174)
(1.44687 2.13263 1.25634)
(0.691773 1.98073 1.44403)
(1.42917 1.77236 0.905691)
(1.66773 1.85606 0.235483)
(1.2391 1.8067 0.503683)
(1.20298 1.10318 0.418335)
(0.109651 2.94341 2.1798)
(0.269832 2.84279 2.1874)
(0.694608 2.78741 1.81045)
(0.690883 2.58016 1.90183)
(1.07026 2.35966 1.88869)
(1.92564 2.23839 1.09888)
(1.77955 1.95578 0.942026)
(0.0991314 1.55505 1.43689)
(1.10159 1.47889 0.279576)
(1.81521 1.25474 0.35708)
(2.03548 1.20683 0.138689)
(1.58884 1.21596 0.783311)
(2.15511 1.19525 -0.263509)
(0.0186319 2.53298 1.66521)
(0.475533 2.54618 1.60241)
(0.337984 2.458 1.71699)
(0.490839 2.66921 1.14362)
(1.16298 2.62492 0.968848)
(2.02104 2.53688 0.478423)
(0.46568 1.91211 0.767368)
(-0.0415423 1.76368 1.02577)
(0.999511 1.52652 0.621143)
(1.55448 1.42839 0.939215)
(1.76118 0.991302 0.643419)
(1.86543 1.0377 0.216254)
(2.37083 1.1458 0.412755)
(2.40882 0.041842 -0.268462)
(-0.637698 2.11148 0.753829)
(0.24275 2.60436 -0.276311)
(0.501591 2.93204 -0.187553)
(0.805487 2.81601 0.246336)
(1.49159 2.72649 0.315076)
(1.83648 1.55426 1.00534)
(0.148575 1.40851 1.35041)
(0.128726 1.63483 0.498506)
(0.82468 1.58133 0.428673)
(1.49156 1.27589 0.0790954)
(1.50291 0.886049 0.34889)
(2.04431 0.686145 -0.0637018)
(2.66752 0.301963 -0.0661045)
(0.435372 -0.105529 1.13582)
(0.804361 -0.927192 -0.848971)
(-0.301678 1.90906 0.373062)
(-0.654225 2.28683 0.0218298)
(0.684624 2.4275 1.01592)
(1.34937 2.3085 0.822804)
(1.54773 2.27108 0.830188)
(0.134387 1.75809 1.17204)
(-0.740847 1.61184 0.648961)
(-0.142834 1.62164 0.564058)
(0.362798 1.82363 0.57283)
(1.0692 1.272 -0.178595)
(1.47515 1.02943 0.0298258)
(1.61485 0.719169 -0.384587)
(1.86192 -0.0696349 -1.06269)
(0.750077 -0.970936 -0.938287)
(-0.80694 -0.346275 -0.758992)
(-0.357534 -0.743092 -1.1054)
(-0.917571 1.20117 -0.904459)
(-0.95289 1.92773 -0.172156)
(-1.08265 2.06362 -1.31183)
(-1.06262 2.07954 -1.40357)
(-0.0887849 1.94962 -0.737594)
(-0.352295 1.96111 -0.119327)
(-0.497166 1.49118 -0.178293)
(0.0905567 1.58132 0.0840788)
(0.630659 1.53797 -0.150054)
(1.11864 1.14522 -0.302541)
(1.40491 0.853307 -0.554354)
(1.5614 0.556798 -0.741459)
(1.45009 0.0108366 -1.28309)
(0.894965 -0.4905 -1.82018)
(-0.34607 -0.736354 -1.10208)
(-0.78284 -0.476674 -1.17982)
(-0.178943 1.97949 2.29746)
(-0.192101 2.12813 2.2802)
(0.134144 2.07967 2.31925)
(0.0531117 2.0575 2.40734)
(-0.0407314 2.25467 2.41196)
(0.181294 2.17518 2.42823)
(0.140551 2.21944 2.46518)
(0.105601 2.29789 2.35031)
(0.099322 2.33683 2.45777)
(0.378658 2.2651 2.46709)
(0.340238 2.29685 2.45032)
(0.366944 2.16658 2.52653)
(0.225163 2.25596 2.41063)
(-0.0142037 2.33627 2.19572)
(0.521407 2.26724 2.5956)
(0.50617 2.5749 2.23893)
(0.347918 2.22494 2.53838)
(0.444598 2.28768 2.26923)
(0.318695 2.06564 2.29833)
(0.166131 2.16642 2.27942)
(0.551842 2.47135 2.60133)
(0.548764 2.38956 2.54387)
(0.630076 2.26046 2.37412)
(0.439744 2.40565 2.33464)
(0.131686 2.24726 2.27823)
(0.442248 2.17831 2.16219)
(0.0638022 2.37446 2.23742)
(0.902006 2.56978 2.62474)
(0.439469 2.46027 2.41411)
(0.661598 2.4503 2.22148)
(0.705602 2.27062 2.36421)
(0.459742 2.28056 2.24237)
(0.214252 2.35208 2.31501)
(0.623772 2.33193 1.94938)
(0.338225 2.46041 2.17812)
(0.854132 2.41261 3.0175)
(0.558563 2.44202 2.7897)
(0.885763 2.45299 2.68366)
(1.0006 2.38235 2.50717)
(0.714878 2.31152 2.37108)
(0.640323 2.16886 2.48444)
(0.708216 2.48463 2.2219)
(0.573977 2.37505 2.16902)
(0.618156 2.68766 2.28624)
(0.748116 2.83148 2.74022)
(1.10138 2.58511 2.62323)
(1.00971 2.6235 2.61163)
(0.983326 2.33557 2.75264)
(0.826995 2.39616 2.53855)
(0.852613 2.34593 2.53449)
(0.85152 2.39036 2.51224)
(0.704593 2.48134 2.29344)
(0.967724 2.46839 2.41458)
(1.02381 2.61169 2.02093)
(0.933503 3.04417 2.73294)
(1.09669 2.91432 2.58448)
(0.964745 2.64785 2.43639)
(1.05233 2.33473 2.23441)
(1.00152 2.29168 2.26217)
(1.05248 2.33857 2.38374)
(1.07599 2.35955 2.30512)
(0.724547 2.39002 2.32978)
(1.12296 2.4098 2.24418)
(1.08386 2.69734 1.89724)
(1.28217 2.69959 0.837496)
(1.09139 3.25425 2.70571)
(0.830485 3.22987 2.3853)
(1.10077 3.03656 2.25317)
(0.830762 2.69878 2.23274)
(1.85982 1.99985 1.81918)
(1.44609 2.01802 1.92557)
(1.12902 2.12091 1.78356)
(1.02529 2.10613 1.68404)
(0.99338 1.96952 1.93731)
(1.40202 2.39324 1.1971)
(1.32504 2.46438 0.890877)
(0.945764 1.7846 0.640668)
(0.847619 2.99916 2.81096)
(0.997535 3.06011 2.33704)
(1.54542 2.59336 2.21235)
(0.816297 2.86568 2.13928)
(1.67318 2.20078 1.84378)
(1.31687 1.96694 1.54956)
(1.67026 2.09979 1.11104)
(1.14636 1.898 1.39919)
(1.29068 1.64504 1.05278)
(1.63081 1.69501 0.381125)
(1.45418 1.81076 0.494337)
(1.23792 1.81656 0.76779)
(1.27856 1.25503 0.653567)
(0.405042 2.80548 2.42467)
(0.114906 3.06869 2.01341)
(0.66277 2.86808 1.8731)
(0.852608 2.53932 1.83988)
(1.11313 2.40471 1.91609)
(1.61591 2.1576 1.5714)
(2.13837 2.10481 1.03364)
(0.175629 1.70806 1.55574)
(1.03755 1.44981 0.513465)
(1.70446 1.33199 0.568885)
(2.0428 1.27113 0.547624)
(1.84721 1.30728 0.728142)
(1.09724 1.47481 1.20302)
(2.27226 1.26597 0.378747)
(0.100717 2.56248 1.68863)
(0.453709 2.46307 1.68848)
(0.261258 2.47602 1.74184)
(0.582533 2.62978 1.36396)
(1.14708 2.67411 1.21208)
(1.92428 2.56358 0.675147)
(1.03828 1.99484 0.924881)
(0.0213729 1.77307 1.23847)
(0.892824 1.54841 0.57713)
(1.55627 1.53104 0.916985)
(2.01226 0.991071 0.767328)
(1.86406 0.97844 0.465009)
(2.24194 1.05958 0.57881)
(0.0455465 1.23169 1.10537)
(0.221608 -0.0831398 1.0154)
(-0.425997 2.04674 0.942867)
(0.293217 2.57767 -0.0388278)
(0.559368 2.85453 0.110126)
(0.850288 2.80501 0.275545)
(1.5042 2.69492 0.350466)