/*--------------------------------*- C++ -*----------------------------------*\
  =========                 |
  \\      /  F ield         | OpenFOAM: The Open Source CFD Toolbox
   \\    /   O peration     | Website:  https://openfoam.org
    \\  /    A nd           | Version:  7
     \\/     M anipulation  |
\*---------------------------------------------------------------------------*/
FoamFile
{
    version     2.0;
    format      ascii;
    class       volScalarField;
    location    "3";
    object      nut;
}
// * * * * * * * * * * * * * * * * * * * * * * * * * * * * * * * * * * * * * //

dimensions      [0 2 -1 0 0 0 0];

internalField   nonuniform List<scalar> 
18720
(
0.000222871
0.000186554
5.34128e-05
0.000212388
0.000114504
0.000361975
0.000108939
0.000146713
0.000288865
6.75873e-05
4.00728e-05
0.000138275
6.61331e-05
0.000285102
0.000372877
0.000365582
0.000245422
0.000186687
0.000135895
0.000288467
0.000212996
6.38809e-05
4.72074e-05
0.000117266
0.000273272
0.000236711
0.000353425
0.000396976
0.000414593
0.000608185
0.000386625
0.000279211
0.000253576
0.000191153
0.000363804
0.000234322
0.000240224
0.000406691
0.000225227
9.41772e-05
0.000259414
0.000131556
5.30996e-05
0.000230282
8.66461e-05
0.000506807
0.000430798
0.000422463
0.000401118
0.000565456
0.000441746
0.000665306
0.000382696
0.000140669
0.000245872
0.00028998
0.000175111
0.000436097
0.00052379
0.000184509
0.000214962
0.000171208
0.000809803
0.000374748
0.000266291
0.00022517
0.000157707
8.297e-05
0.000109949
0.000126934
0.000123651
0.000504037
0.000591593
0.000722943
0.000448867
0.000302242
0.000535767
0.000431213
0.000452292
0.000506051
0.000435994
0.000513947
0.000405129
0.000586285
0.00047599
0.000240499
0.000355378
0.000230025
0.000420776
0.000428227
0.000144233
0.000193922
0.00021813
0.000164048
0.00020486
0.000151376
0.000615856
0.000114358
4.94357e-05
0.000162299
0.000136149
8.95541e-05
0.000116461
0.000159069
0.000143127
0.000804187
0.000223691
0.000283812
0.000348831
0.000521597
0.000736923
0.000412599
0.000153683
0.000504506
0.000602821
0.000653457
0.000590031
0.000597615
0.00043391
0.000432668
0.000457351
0.000386217
0.000634962
0.00035115
0.000829705
0.000272657
0.000352175
0.000185007
0.000308106
0.000403392
0.000515914
0.000361018
0.000168346
0.000200728
0.000148979
0.000215745
0.00023279
0.00059003
0.000247094
0.000117039
5.30122e-05
0.000108677
0.000336127
0.000120475
6.56442e-05
0.000238674
8.72979e-05
0.000165075
0.000360154
0.000553746
0.000832266
0.000817753
0.000360723
0.00042037
0.00077444
0.000695912
0.000762059
0.000587099
0.000465983
0.0010658
0.000274515
0.00051351
0.00117743
0.000683299
0.00057298
0.000483138
0.000332454
0.000492135
0.000332967
0.000376601
0.000342761
0.000451922
0.00041133
0.000649543
0.000512331
0.000324831
0.000289631
0.000204915
0.000341698
0.000908286
0.000458003
0.000335906
0.00027681
0.000230883
0.000216675
8.45839e-05
0.000168637
0.000232092
0.000438978
0.000291981
0.000272934
0.000206546
0.000108649
0.000202316
0.000117789
0.000178874
9.78532e-05
0.000279217
9.6747e-05
0.000200403
0.000105678
0.000534205
0.000845231
0.000624299
0.000547444
0.000237468
0.000560271
0.000303307
0.000185663
0.000225221
0.0010332
0.000601781
0.000535978
0.000562345
0.000309935
0.000713454
0.000207888
0.000794848
0.000702538
0.000168133
0.000470901
0.000700613
0.000598999
0.000569246
0.000358032
0.000387617
0.000808779
0.000815547
0.000539207
0.000373563
0.00041627
0.000499179
0.000334714
0.000420969
0.000386814
0.000386939
0.000163778
0.000296968
0.000214834
0.000284426
0.000440496
0.000398377
0.000482646
0.000528589
0.000200941
0.000198756
0.000183105
0.000107919
0.000242702
0.000135204
0.000390506
0.00028937
0.000181111
0.00034073
0.000318743
0.000220712
0.000182349
7.09695e-05
0.000193997
0.000118302
6.47598e-05
0.000221721
0.000206332
0.000122167
0.000184899
0.000545344
0.000432248
0.00081149
0.000305271
0.000549385
0.000527632
0.0011156
0.000244164
0.00066373
0.000253522
0.00056593
0.000454193
0.000364883
0.00015613
0.000260457
0.000579619
0.000617158
0.000234089
0.000536219
0.000195608
0.00107548
0.000950811
0.000400631
0.000548682
0.000480852
0.000181203
0.000787669
0.00104575
0.000754991
0.000270081
0.000749152
0.000477944
0.000378275
0.000292163
0.000321176
0.000432624
0.000411331
0.000427296
0.000556874
0.000331866
0.000456598
0.000659328
0.00039879
0.000643635
0.000253219
0.000317894
0.000300279
0.000268832
0.000385587
0.000440494
0.000405553
0.00046644
0.000395635
0.000320786
8.98967e-05
0.000157039
0.000132792
0.000279718
0.000161794
0.000253861
0.000207434
0.000274544
0.000373785
0.000355946
4.63543e-05
0.000215691
0.000132263
0.000250571
0.00010709
6.33585e-05
7.34028e-05
0.000135791
0.000219567
0.000206451
0.000164072
0.00016529
0.000654193
0.000687896
0.000521538
0.000844537
0.000375571
0.00065752
0.000390906
0.000376533
0.000408373
0.000452764
0.00147403
0.000455232
0.000186974
0.000314539
0.000528243
0.0009171
0.000283307
0.000292574
0.000565214
0.000207269
0.000470515
0.000689819
0.000752535
0.000307447
0.00026495
0.00040402
0.000151069
0.00103115
0.000402552
0.000410481
0.000465607
0.000449838
0.000523873
0.000215605
0.000362544
0.00075885
0.000645267
0.000557446
0.000726641
0.000324931
0.000577
0.00107111
0.000321457
0.000709411
0.000509975
0.000425647
0.000454032
0.000559681
0.000340036
0.000615092
0.000332885
0.000426197
0.000430077
0.000406746
0.000460916
0.00033013
0.000415966
0.000267772
0.000371946
0.000500977
0.000360291
0.000495549
0.000234162
0.000466631
0.000346678
0.000178196
0.000161345
0.000243907
0.000166726
0.000174349
0.000194227
0.000240055
0.000230839
0.000720575
0.000373208
0.0004732
0.000231238
0.000112855
0.00015455
0.000422934
0.000105893
6.51719e-05
5.71316e-05
8.96875e-05
0.000407581
0.00011973
0.000105423
0.000124426
0.000117127
0.000546149
0.000501064
0.000808131
0.000463275
0.000762801
0.000754973
0.000870691
0.00077352
0.000555356
0.000619924
0.000504708
0.000480224
0.000603367
0.000398017
0.000523405
0.00116074
0.00055364
0.000276829
0.000188014
0.000520298
0.00041183
0.000282823
0.000563347
0.000603833
0.000416535
0.000226209
0.000348803
0.000490514
0.000734806
0.000698412
0.000447909
0.000455574
0.000420664
0.000235874
0.000216334
0.000822555
0.000959644
0.00034752
0.00050864
0.000471126
0.000307657
0.000145005
0.0003694
0.00049661
0.00086655
0.000654997
0.000184267
0.000707483
0.000446856
0.000512338
0.000599624
0.000523656
0.000382089
0.000694427
0.00049157
0.000415443
0.000465148
0.00058993
0.000474865
0.000408178
0.000321711
0.000386544
0.000381157
0.000511853
0.000489174
0.000193422
0.000347668
0.000276114
0.00040899
0.000384168
0.000314152
0.000686681
0.000389775
0.000512069
0.00056007
0.000453509
0.00032093
0.000228761
0.000288271
0.000237644
0.000188528
0.000131889
0.000209196
0.000258484
0.000141667
0.000564215
0.000344687
0.000328499
0.000287555
0.000252577
0.000238101
0.00017989
0.000130053
0.000168522
7.62781e-05
0.000104516
0.000154331
0.000261846
7.0102e-05
0.000106623
0.000147872
0.000169512
0.000109498
0.000550537
0.00047192
0.000876376
0.000420339
0.000424131
0.000810527
0.000651046
0.00057648
0.000575689
0.000883291
0.000712204
0.000745085
0.000613935
0.000423668
0.000924292
0.00114058
0.000673379
0.000683271
0.000279786
0.00035995
0.000277332
0.000543917
0.000513783
0.000440475
0.00038608
0.000654377
0.000192797
0.000386332
0.00085087
0.000470989
0.000222183
0.000310299
0.000235371
0.000421218
0.000240081
0.000833524
0.000545334
0.000308903
0.000387274
0.000477664
0.00034119
0.000343974
0.000475433
0.000402563
0.000734914
0.000842336
0.000700667
0.000466617
0.000649383
0.000223586
0.000315181
0.000551687
0.000352957
0.000650459
0.000891037
0.000619984
0.000364306
0.000658505
0.000502729
0.000448669
0.00029129
0.000656942
0.000557699
0.000539641
0.00035939
0.000559622
0.000448692
0.000633017
0.000579929
0.000419062
0.00081552
0.000800603
0.000524832
0.000425321
0.000479733
0.000372679
0.00045067
0.000341796
0.000280379
0.000291991
0.000451214
0.000411158
0.000598298
0.000288643
0.000385597
0.000497174
0.00050307
0.000451801
0.000394751
0.000418717
0.000160159
0.000385372
0.000113433
0.000111949
0.000158386
0.000525775
0.000205498
0.000409327
0.000349541
0.000327462
0.000244002
0.000309969
0.000398514
0.000175839
0.000400166
0.000202244
0.000169634
0.000304361
8.42422e-05
0.000177836
0.000113898
0.000152107
7.12095e-05
0.000194674
0.000142737
0.000163158
0.000170839
0.000182488
0.000487918
0.000594684
0.000511541
0.000479586
0.000481375
0.000825338
0.000657511
0.000439973
0.000669917
0.000617699
0.000659879
0.000503794
0.000845032
0.000354723
0.000487665
0.000362882
0.000882869
0.000746549
0.000665408
0.000417646
0.00111643
0.000617129
0.000834439
0.000438075
0.000615855
0.00072646
0.000402576
0.00018245
0.000737093
0.000703197
0.000567175
0.000630113
0.000310568
0.000517639
0.000444175
0.000355303
0.000206408
0.000572836
0.000203611
0.000707257
0.000497172
0.000565433
0.000652955
0.000438053
0.00094579
0.0008457
0.000958317
0.00048843
0.000638862
0.000429341
0.00028022
0.000415203
0.000502934
0.000608162
0.000723494
0.00086859
0.000492672
0.000453856
0.000373418
0.000188728
0.000587466
0.000365877
0.000402138
0.00046708
0.000559496
0.00070129
0.00065824
0.000135143
0.000577632
0.000458855
0.000544355
0.00033022
0.000758627
0.00054867
0.000530797
0.000471642
0.000450638
0.000181067
0.000565282
0.000552538
0.000589729
0.000436524
0.000714203
0.000481441
0.000356294
0.000550244
0.000464866
0.000428762
0.000544912
0.0003477
0.000114591
0.000346251
0.0002032
0.000379282
0.000403395
0.000744694
0.000417047
0.000515286
0.00023224
0.000473401
0.000452958
0.000364635
0.000376872
0.000409136
0.000251654
0.000322447
0.000181893
0.000366379
0.000165446
0.000217091
0.000208386
0.000519458
0.000479859
0.000318003
0.000311207
0.000337265
0.000490938
0.000293368
6.62699e-05
0.000531186
0.000209728
0.000144238
0.000164747
6.84825e-05
0.000358733
8.81309e-05
0.00014916
0.000109048
0.00012251
0.000139693
0.000136555
0.000174005
0.000227775
0.00034703
0.000399884
0.000271106
0.000496275
0.000435005
0.000430342
0.000837025
0.000395515
0.000419009
0.000497642
0.000706512
0.000715887
0.000577225
0.000494798
0.000721115
0.000493745
0.00104811
0.00049375
0.000669821
0.000444148
0.000531395
0.000700059
0.000587885
0.000756324
0.000786235
0.000667193
0.000454365
0.000520403
0.00115231
0.000572073
0.000661108
0.000386075
0.000476666
0.000527246
0.000561244
0.000649277
0.000405663
0.000574974
0.000665598
0.000451739
0.000596424
0.000631748
0.000678761
0.00107334
0.000701104
0.000438608
0.000465056
0.000292156
0.000668521
0.000343721
0.000337608
0.000329937
0.000884153
0.000670751
0.000409539
0.00108327
0.000780863
0.000705597
0.000553671
0.000212045
0.000433947
0.000674478
0.000360359
0.000512979
0.000300267
0.000858181
0.00104658
0.000851832
0.000368196
0.000734854
0.000595277
0.000243163
0.000613689
0.000242455
0.000319353
0.000666265
0.000517159
0.000412733
0.000715199
0.000755569
0.000419528
0.000711469
0.000532124
0.00101162
0.000330626
0.000584484
0.000486977
0.000605079
0.000535821
0.000351877
0.000339326
0.000538229
0.000383585
0.000568643
0.000657208
0.000314848
0.000215516
0.000207313
0.000421972
0.000240391
0.00036125
0.0004766
0.000536743
0.000181442
0.000427578
0.000486361
0.00043233
0.000291372
0.000635584
0.000433084
0.000390398
0.000415095
0.000339695
0.000380703
0.000412009
0.000455627
0.000354171
0.000488324
0.000495301
0.000354224
0.00031395
0.000478013
0.000128186
0.000185879
0.000526574
0.000265011
0.000180352
0.000388919
0.000313286
0.000292668
0.000211495
0.000340043
0.000385905
0.000346253
0.000533392
0.000441203
0.000643721
0.000238198
9.88171e-05
9.54528e-05
0.000104193
0.000208905
0.00017862
0.000116705
9.48382e-05
3.08281e-05
0.000225814
0.000167693
9.84675e-05
7.96129e-05
0.00028144
0.000471583
0.000423215
0.000450621
0.000491636
0.000460772
0.00038937
0.000347731
0.000522496
0.000519986
0.000340072
0.000663708
0.000558158
0.000428274
0.000431772
0.000467007
0.000752675
0.000633567
0.000586132
0.000442285
0.00074403
0.000538897
0.000643773
0.00093725
0.000694952
0.000431005
0.000786976
0.000696166
0.00036054
0.000832412
0.00041204
0.000526321
0.000586396
0.000739576
0.000749057
0.000471373
0.000666769
0.00110806
0.00053349
0.00103607
0.00088781
0.000781711
0.000374337
0.000876014
0.000748353
0.000771755
0.000421997
0.000971489
0.000506405
0.000814099
0.000774656
0.000731323
0.000623792
0.000586699
0.00100071
0.00112035
0.000578125
0.000487702
0.00118937
0.0011119
0.000451161
0.00041396
0.000785905
0.000561598
0.000472463
0.000568283
0.000567062
0.00119137
0.0011029
0.00107864
0.000553569
0.000635526
0.000729274
0.000506195
0.000471918
0.000325723
0.000369515
0.000578392
0.000705502
0.000988034
0.000530545
0.000892198
0.00036254
0.000611756
0.000201243
0.00044727
0.000351616
0.000222807
0.000404199
0.000953488
0.000358783
0.000508093
0.00041318
0.000381861
0.000512288
0.000540993
0.000595486
0.000488823
0.000554944
0.000706008
0.000383884
0.000512208
0.000523427
0.000555908
0.000326566
0.000399673
0.000817926
0.000251912
0.000339312
0.000673974
0.000461068
0.000217585
0.00166879
0.000782926
0.000373834
0.000207187
0.00041588
0.000396854
0.000329659
0.000399959
0.00038519
0.0010258
0.000442465
0.000303329
0.000203356
0.000402568
0.00041881
0.000510071
0.000399012
0.000219577
0.00044951
0.000451091
0.000371536
0.000521351
0.000733548
0.000255332
0.000357696
0.000909376
0.000972871
0.00038097
8.54838e-05
0.00015594
0.000490437
0.000202062
0.000202351
0.000266347
0.000310537
0.000470577
0.000393995
0.000445884
0.000359005
0.00034537
0.000285881
0.000421271
0.000677287
0.000395364
0.000259612
0.000146676
0.000116801
8.89397e-05
0.000111896
8.25767e-05
0.000127505
3.3158e-05
0.000143171
0.000121357
9.50813e-05
8.90508e-05
0.000196205
0.000322173
0.000123938
0.000323231
0.00048595
0.000569775
0.000441364
0.000445299
0.000422402
0.000532925
0.000512111
0.000452287
0.000535149
0.000550807
0.000491252
0.000275442
0.000396224
0.00049083
0.000611677
0.000407554
0.000431414
0.000346813
0.000584043
0.000580478
0.000618821
0.000563301
0.000518036
0.000590382
0.000511515
0.000632658
0.000407555
0.000765411
0.00083655
0.000550372
0.000777201
0.000479516
0.000256019
0.000636338
0.000657605
0.000674049
0.000416399
0.000484691
0.000618417
0.000624844
0.000598447
0.00026624
0.000758642
0.000404514
0.000816592
0.00109342
0.000907203
0.000904307
0.000424504
0.000877271
0.000597671
0.000562876
0.000531655
0.000405971
0.000665695
0.000369928
0.0008959
0.00110464
0.000888331
0.000546795
0.000784832
0.000632866
0.000778888
0.000884655
0.00084718
0.000595138
0.000453037
0.0006563
0.000716959
0.000307937
0.0009146
0.000500753
0.000784913
0.000960162
0.000468473
0.000598567
0.00148359
0.00098553
0.000803725
0.000493391
0.000472131
0.000885558
0.000460504
0.00061233
0.000339417
0.000477442
0.000503485
0.000292573
0.000521482
0.000869431
0.000947532
0.000190113
0.000387489
0.000603219
0.000208615
0.000512084
0.000292389
0.000401009
0.000352672
0.000577708
0.000314308
0.000463106
0.000278755
0.000576851
0.000267195
0.0004406
0.000526249
0.000658491
0.00075403
0.0017113
0.000387974
0.000525571
0.000431863
0.000333477
0.000498092
0.000318729
0.000466233
0.000482161
0.000653937
0.00037906
0.00035653
0.000561001
0.000392272
0.000261811
0.000888439
0.00076779
0.000490472
0.000385651
0.000377219
0.000375077
0.000482746
0.00061625
0.000932282
0.000270264
0.000725384
0.000619544
9.38163e-05
0.000398785
0.000514364
0.000556769
0.000474382
0.00032703
0.000228256
0.000355407
0.000372917
0.000351155
0.000513267
0.000599785
0.000174449
0.000130468
0.000465118
0.000720046
0.000794364
0.000136107
7.12182e-05
0.00037032
0.000349237
0.000394976
0.000225809
0.000310872
0.000254865
0.000262675
0.000398199
0.000445073
0.000215724
0.000530116
0.000295212
0.000259595
0.000140934
0.000664738
0.000639753
0.0003784
0.000139841
9.37453e-05
6.39022e-05
5.73216e-05
9.97464e-05
9.786e-05
7.24537e-05
0.000150402
0.000159019
0.00013383
0.000316262
0.000150321
0.0002382
0.000266009
0.000145733
0.000366038
0.000433928
0.000456829
0.000510078
0.000662327
0.000432686
0.000509811
0.000479401
0.000594872
0.000361663
0.00041768
0.000666212
0.00041998
0.000395872
0.000470689
0.000537966
0.000403341
0.000369089
0.000543105
0.000413725
0.000650117
0.000383953
0.00051677
0.000340703
0.000571407
0.000472857
0.000516533
0.000635411
0.000754391
0.000619282
0.000572118
0.000588729
0.00060039
0.000338532
0.000354197
0.000102861
0.000698987
0.000923447
0.000674357
0.000523195
0.000624992
0.000458431
0.000538238
0.00043437
0.00101292
0.000937904
0.000860692
0.000842526
0.000456691
0.00101004
0.000685174
0.000747035
0.000369605
0.00056578
0.000470117
0.00093994
0.000587861
0.000816159
0.000556613
0.000502559
0.000597751
0.000562826
0.000618553
0.00050488
0.000859447
0.000482138
0.000267505
0.000387558
0.000527035
0.000612027
0.000813672
0.000747751
0.000690006
0.000690317
0.000467614
0.000388016
0.000313931
0.00114705
0.00116153
0.000718955
0.000333837
0.000447053
9.9641e-05
0.000584894
0.000792353
0.000555553
0.000917471
0.000508626
0.000534386
0.000318157
0.00135107
0.00112768
0.000575912
0.000293173
0.000360174
0.000416238
0.000443869
0.000356227
0.00038593
0.000350182
0.000569689
0.000310033
0.000515443
0.000390883
0.000691862
0.00068302
0.000411648
0.000223528
0.00057132
0.000332439
0.00034983
0.00046585
0.000519004
0.00030196
0.0003915
0.000413812
0.000420723
0.000723207
0.000323418
0.000686947
0.000162069
0.000209422
0.000559832
0.000505008
0.000477852
0.000421013
0.000589075
0.000631797
0.000526918
0.000440015
0.000429761
0.000345043
0.000593367
0.000145937
0.000621311
0.000447412
0.00040537
0.000928318
0.000501925
0.000381294
0.000381421
0.000461093
0.000438067
0.000397092
0.000326476
0.000419483
0.000356634
0.000657157
0.000666989
0.000624728
0.000136959
0.000233997
0.000525608
0.000712761
0.000162593
0.000141752
0.000325503
0.000341303
0.000768577
0.000501719
0.000497183
0.000367512
0.000394674
0.000366224
0.000610651
0.000486046
0.000303272
0.000354252
0.000419768
0.000285895
0.000110309
0.00068364
0.000143668
0.000234875
0.000260665
0.000268885
0.000193261
0.000249296
0.000272943
0.000234958
0.000235289
0.000367266
0.000396495
0.000225135
0.000410311
0.000286337
0.00029952
0.000245788
0.000148366
0.000505195
0.000745744
0.00019222
0.000120637
5.12215e-05
0.000168447
0.000112602
0.000147757
0.000216826
9.9086e-05
0.000141549
0.000187828
0.00012899
0.000103493
0.000114572
0.000172775
0.000322698
0.000159956
0.000153398
0.000451243
0.000548863
0.000586444
0.00045621
0.000309757
0.000390822
0.000388959
0.000266129
0.00037225
0.000500852
0.000404588
0.0003605
0.000266713
0.000368257
0.000476171
0.000515816
0.000369213
0.000416334
0.000441091
0.000532018
0.000343137
0.000463699
0.000553028
0.000447217
0.000374697
0.000454397
0.000522414
0.000557006
0.000411513
0.000451272
0.000547329
0.000431033
0.00032309
0.000576901
0.000284533
0.000656736
0.00074091
0.000509589
0.000904545
0.000369746
0.000671039
0.000539635
0.000344834
0.000583993
0.000759436
0.000580379
0.000878032
0.000447083
0.00071419
0.00061738
0.000649294
0.000425604
0.000604837
0.000524057
0.000759282
0.00083033
0.00116013
0.00104007
0.000413992
0.000656534
0.00047527
0.000481732
0.000520183
0.00056028
0.000451188
0.000363354
0.000602062
0.00066177
0.000247566
0.00094765
0.000779669
0.000450661
0.00082657
0.000658703
0.0006228
0.000379174
0.000269122
0.000586773
0.000764371
0.000857933
0.000545953
0.000283542
0.000593962
0.000666603
0.000634946
0.000740979
0.00059358
0.000475762
0.00028096
0.000272922
0.00131824
0.00113776
0.000367831
0.00014433
0.000351012
0.000105779
0.00051093
0.000815843
0.000553249
0.000495927
0.000430914
0.000575393
0.000492941
0.000272537
0.00128723
0.00125096
0.000968703
0.000186024
0.000662146
0.000662218
0.000786115
0.000374196
0.000275915
0.00025982
0.000464244
0.000350252
0.000352894
0.00045074
0.000648434
0.000584972
0.000604956
0.000552213
0.000267795
0.000529714
0.000239449
0.000529124
0.000648705
0.000252387
0.000409922
0.000605544
0.000449925
0.000532534
0.000849292
0.000360923
0.000310862
0.000664817
0.000568892
0.00020534
0.000292559
0.000488373
0.000508897
0.000410663
0.000436751
0.00055101
0.000260419
0.000552974
0.000330244
0.000617374
0.000675925
0.000530909
0.000320898
0.000172452
0.000442187
0.000602717
0.000339774
0.000399206
0.000258793
0.000331204
0.000753533
0.000699771
0.000443925
0.000304957
0.000383256
0.000348486
0.000520727
0.000764722
0.000549767
0.00102423
0.000548219
0.000427244
0.00045795
0.000582561
0.000201472
0.000210512
0.00133565
0.000563734
0.000717904
0.000952015
0.000282123
0.000416151
0.000407539
0.000497528
0.000625537
0.000349754
0.000262643
0.000321571
0.000395687
0.00047027
0.000255682
0.000394499
0.0011018
0.000552788
0.000184923
0.000147631
0.000116457
8.09877e-05
0.000134451
0.00024766
0.00023032
0.000325904
0.000426577
0.00043654
0.000201845
0.000236402
0.000279186
0.000383034
0.000243963
0.000256738
0.00015799
0.000303812
0.000708985
0.000181905
0.000162896
7.50361e-05
0.000107694
0.000180751
0.00024617
8.5979e-05
2.98938e-05
0.000134499
0.000138865
8.57017e-05
0.000151238
8.35985e-05
0.000165819
0.000212317
0.000153632
0.000167937
7.81612e-05
0.000799982
0.000474052
0.00057171
0.000406434
0.000467336
0.000509018
0.000445273
0.000307369
0.000580624
0.000418042
0.000449272
0.00039866
0.000377107
0.000476737
0.000525792
0.000408361
0.000470583
0.000496883
0.000350685
0.000436215
0.00037442
0.000457198
0.00051972
0.000538658
0.000494074
0.000439732
0.000344995
0.000676596
0.000458798
0.000365727
0.000490781
0.000543316
0.000548448
0.000472829
0.000252515
0.000436432
0.000579845
0.00038436
0.000597339
0.000419256
0.000451953
0.000521813
0.000312991
0.000343771
0.000604043
0.000796674
0.000781236
0.000642566
0.000214749
0.000703367
0.000691868
0.00030596
0.000380635
0.000525532
0.00105371
0.000647822
0.000731465
0.00083398
0.000744995
0.000665757
0.000714501
0.000517995
0.000427502
0.000593283
0.00038309
0.000850189
0.000612058
0.00094884
0.000516447
0.000488969
0.000388921
0.000781455
0.000380505
0.000779184
0.000606755
0.000530803
0.000517918
0.000587573
0.00034708
0.000661707
0.000385104
0.000930348
0.00054423
0.000335541
0.000574615
0.00072123
0.00051482
0.000517093
0.000460308
0.000327501
0.00044902
0.000454838
0.000326402
0.000561322
0.000616408
0.000591587
0.000651758
0.000521773
0.000546528
0.000797348
0.000644314
0.000449261
0.000415733
0.000504344
0.00138748
0.00141782
0.000789077
0.000352397
0.000554368
0.000312183
0.000359112
0.000708169
0.000409003
0.000520445
0.000815628
0.000402473
0.0007183
0.000498225
0.000334035
0.00128964
0.00124767
0.00105112
0.00030106
0.000310697
0.000476741
0.000447586
0.000211249
0.000180188
0.000286188
0.00046051
0.000710532
0.000377178
0.000445731
0.000555139
0.000338833
0.000453799
0.000678708
0.000562492
0.000351204
0.000425328
0.00050524
0.000544992
0.000793479
0.00038915
0.000200791
0.000650857
0.000509515
0.000609038
0.000813086
0.000339127
0.00028375
0.000428887
0.000752773
0.000457931
0.000376697
0.000261796
0.000478142
0.000339278
0.00104593
0.000315466
0.000414281
0.000439652
0.000453073
0.000422226
0.00105884
0.000544362
0.000672052
0.000368167
0.000564166
0.000484848
0.000620357
0.000990741
0.000372818
0.00033158
0.000360672
0.000317335
0.000455457
0.0013297
0.000393594
0.00026196
0.000291462
0.000497445
0.000606421
0.000655214
0.000540025
0.000166778
0.000412709
0.000494735
0.000431451
0.000265735
0.00108143
0.000341174
0.000445151
0.000355299
0.000867881
0.000501138
0.000902556
0.000159848
0.000461446
0.000390185
0.000678853
0.000658497
0.000275407
0.000374424
0.000323753
0.000338468
0.000457076
0.000326865
0.000293911
0.00029993
9.99184e-05
0.000313142
0.000505418
6.5873e-05
0.000200552
0.000542948
0.000197974
0.000275194
0.000185966
0.00023831
0.00053792
0.000502575
0.000229672
0.000182862
0.000291383
0.000457236
0.00023816
0.000251348
0.000200967
6.89933e-05
0.000247029
0.000553046
0.000159963
0.000109098
0.00022236
0.000198711
0.000140766
0.00010333
0.000140058
5.57277e-05
0.000124548
0.000165451
6.71919e-05
0.000231836
8.73277e-05
0.000238626
0.000152793
0.000153131
0.000252575
0.000119234
0.000170877
0.000913336
0.000695007
0.000796163
0.000597608
0.000397101
0.000589133
0.000445637
0.000489428
0.000546058
0.00046546
0.000549815
0.000382938
0.000465323
0.000553205
0.000475163
0.000440076
0.000370949
0.000391439
0.00045076
0.000475546
0.000564866
0.000492047
0.0003924
0.000552886
0.00032747
0.000373318
0.000402038
0.000449656
0.000392092
0.000693958
0.000568638
0.000472724
0.000526331
0.000346225
0.000430147
0.000520501
0.000644877
0.000380882
0.000560773
0.000532668
0.000456248
0.00052661
0.000348321
0.000219785
0.000485784
0.000552332
0.000406141
0.000832327
0.000518465
0.000408461
0.000605311
0.000371687
0.000321749
0.00038403
0.000653608
0.000979472
0.000661978
0.000427394
0.00070401
0.000860635
0.000651409
0.000614331
0.000194637
0.000571938
0.000953063
0.00090144
0.000761898
0.00087585
0.000672168
0.000485653
0.000722754
0.000702075
0.000512736
0.000431966
0.000582753
0.000461754
0.000842941
0.00113575
0.000524929
0.00106848
0.000671526
0.000855399
0.000451262
0.000610542
0.00048352
0.000492099
0.000567531
0.000340294
0.000507035
0.000750078
0.000527294
0.000498979
0.000750782
0.000511037
0.000556563
0.000497475
0.000508099
0.000667766
0.000902332
0.000957981
0.00045325
0.000457504
0.000257016
0.000447258
0.000760328
0.000737037
0.000431955
0.000737615
0.00106632
0.00102643
0.000872384
0.000454048
0.000610061
0.000583712
0.00109044
0.000405697
0.000584292
0.000240767
0.000465538
0.00128127
0.00150246
0.00119488
0.00066625
0.000631631
0.000278976
0.000133328
9.87498e-05
0.000370189
0.000564901
0.000837544
0.000802572
0.000650366
0.000381965
0.000285002
0.00030225
0.0011529
0.00108618
0.000820441
0.000276372
0.000338134
0.00063121
0.000531246
0.000518048
0.000491231
0.000244082
0.000428846
0.000764545
0.000646412
0.000525048
0.000575144
0.000558669
0.000352338
0.00020137
0.000943034
0.000544242
0.000109773
0.000414846
0.000451694
0.000235374
0.000385505
0.000498841
0.000359325
0.00070418
0.00039958
0.000649664
0.000813768
0.000592957
0.000700234
0.000433633
0.000518166
0.000419718
0.000392309
0.000252303
0.00022112
0.000493505
0.000430854
0.0003105
0.000291819
0.000390172
0.000454679
0.000213025
0.00037282
0.000653164
0.000371732
0.000350686
0.000315465
0.000499983
0.000526372
0.000554682
0.000356896
0.000338628
0.000319327
0.000457696
0.000500602
0.000395149
0.000585191
0.000534676
0.000260257
0.000345049
0.000485284
0.00102212
0.000510192
0.000599312
0.000712984
0.000728379
0.000416552
0.000677326
0.000770226
0.000353762
0.000507384
0.000939818
0.000438139
0.000357538
0.000561632
0.000544386
0.00061763
0.000225044
8.6627e-05
0.000417969
0.000487952
0.000962624
0.000739682
0.000350913
0.00040693
0.000833937
0.000441088
0.000461043
0.000371251
0.000226099
0.000150504
9.03502e-05
0.0002756
0.000251019
0.000263124
5.70151e-05
0.00021812
0.000486553
0.000113314
0.000242544
0.000196737
0.000224873
0.000523059
0.000330784
0.000301368
0.000239578
0.000355491
0.00051162
0.00028025
0.000281005
0.000229179
0.000158939
0.000126756
0.000176349
0.000276248
1.78796e-05
0.000113353
0.000103378
0.000321283
7.76089e-05
0.000122077
0.000218853
0.000163721
0.00014979
0.000101106
5.10675e-05
0.000102706
8.70583e-05
0.000159175
0.000141578
0.000172163
0.000305022
0.000113502
0.00016071
0.000175249
0.00136017
0.0011024
0.00131702
0.00109253
0.000691537
0.000727029
0.000914594
0.000760722
0.000426982
0.00053788
0.000572015
0.000423611
0.000419384
0.000398291
0.000544072
0.000489981
0.000461371
0.000368065
0.000373564
0.000381012
0.000441037
0.000492679
0.000378588
0.000471101
0.000398919
0.00034501
0.000328852
0.000563272
0.000453412
0.000517595
0.000386814
0.000489658
0.000373527
0.00045423
0.000495079
0.000428911
0.000693648
0.000402016
0.000518992
0.000489236
0.000515281
0.000504543
0.000578345
0.000292249
0.000399991
0.000482335
0.000741298
0.000392765
0.0004092
0.000785069
0.000308573
0.000729544
0.000322559
0.00032944
0.000555328
0.000458718
0.000631173
0.000524599
0.000443071
0.000696044
0.000600321
0.000678233
0.000463779
0.000634086
0.000606008
0.000882925
0.000584323
0.000332581
0.00105678
0.000918303
0.000630262
0.000605696
0.000805096
0.000299467
0.000672306
0.000288276
0.000690335
0.000925285
0.000810157
0.000663267
0.000589355
0.000463596
0.000904678
0.000760526
0.000797759
0.000526868
0.00039946
0.000582781
0.00028757
0.000293892
0.000358449
0.000498446
0.000966515
0.000774536
0.00111162
0.000315853
0.000699932
0.000848391
0.000250687
0.000757752
0.000459949
0.000313957
0.00038807
0.000594562
0.000464952
0.000509052
0.000788775
0.000638531
0.00118689
0.000869942
0.00060231
0.000414846
0.000471271
0.000965434
0.000371069
0.000622063
0.000601395
0.000403297
0.000385557
0.000653315
0.000700001
0.000348185
0.000540805
0.000683019
0.000937243
0.000901385
0.000499444
0.000606431
0.000882312
0.00065562
0.000488579
0.000416876
0.000515843
0.000336851
0.000384714
0.0012265
0.00158203
0.00128222
0.000726344
0.000325547
0.000873637
0.00102809
0.00238087
0.000820879
0.000711214
0.000615791
0.000884032
0.000743622
0.0002963
0.000281486
0.000582292
0.00062423
0.00111193
0.00112257
0.00101235
0.000424067
0.000331679
0.00057718
0.000652614
0.000433327
0.000334204
0.00052227
0.00055324
0.000603311
0.000379983
0.000516789
0.000626426
0.000351025
0.000427304
0.000323592
0.000286496
0.000723549
0.000488861
0.000395249
0.000366051
0.000445138
0.000301767
0.000624681
0.000536736
0.00027228
0.00067556
0.000609931
0.000790156
0.00069328
0.000506996
0.000429076
0.000352034
0.000657353
0.000486206
0.000505494
0.000990904
0.000684522
0.000216073
0.000418605
0.000314767
0.000436376
0.000462797
0.000252757
0.00052486
0.000225865
0.000352678
0.000802637
0.000513872
0.000726813
0.000624746
0.000471801
0.00057325
0.000471081
0.000696461
0.00033457
0.00038156
0.000403826
0.000502054
0.000419365
0.000289892
0.000739082
0.000726225
0.000256856
0.000267919