/*--------------------------------*- C++ -*----------------------------------*\
  =========                 |
  \\      /  F ield         | OpenFOAM: The Open Source CFD Toolbox
   \\    /   O peration     | Website:  https://openfoam.org
    \\  /    A nd           | Version:  7
     \\/     M anipulation  |
\*---------------------------------------------------------------------------*/
FoamFile
{
    version     2.0;
    format      ascii;
    class       surfaceScalarField;
    location    "3";
    object      phi;
}
// * * * * * * * * * * * * * * * * * * * * * * * * * * * * * * * * * * * * * //

dimensions      [0 3 -1 0 0 0 0];

internalField   nonuniform List<scalar> 
54006
(
9.78988e-05
-0.00311101
0.00300794
-3.78693e-06
0.000226758
-0.00261019
0.00246253
-1.46252e-05
8.55255e-05
-3.61916e-06
0.000126042
0.0028774
-5.17913e-06
8.2709e-05
-0.00353317
0.00345466
-7.98883e-06
0.000233307
-0.00136071
0.00141214
-4.52129e-05
0.000191529
-1.53463e-05
0.000288031
0.00228435
-1.73889e-05
0.000141685
-0.00337406
0.0033033
-2.84487e-06
6.64573e-05
-8.59185e-06
0.000137815
0.00273395
-4.81555e-06
0.000112623
0.00334731
-1.04496e-05
-3.26944e-06
-0.00420995
0.00421723
-1.19923e-05
0.000153284
0.000716566
-0.000739673
0.00026429
0.000171281
-2.60259e-05
0.000330964
0.00143721
-6.1524e-05
6.81903e-05
-0.00236749
0.00241365
-1.78858e-05
9.97593e-05
1.17357e-05
0.000319685
0.00208596
-1.76821e-05
0.000209829
0.00318135
7.36058e-06
-6.14215e-05
-0.00375366
0.00379049
1.84731e-05
-5.2829e-06
-1.36149e-05
0.000148147
0.0025801
-5.8017e-06
0.000132053
0.00322077
-1.03312e-05
2.78765e-05
0.0041926
-1.36999e-05
-9.77172e-06
-0.00413953
0.00416332
-2.60084e-05
2.87347e-05
0.00270974
-0.00273175
0.000588822
6.23298e-05
0.00027747
0.000204879
-0.000697293
0.000252657
-8.1804e-05
0.000408677
-0.000240531
0.000246139
1.25018e-05
-9.65574e-06
0.000429287
0.00139852
-7.34382e-05
0.000155747
0.00243093
-2.47192e-05
-0.000119024
-0.0026964
0.00271025
2.58618e-05
-7.08934e-05
2.9256e-06
0.000350094
0.00186601
-1.31536e-05
0.000266662
0.00302149
7.57022e-06
-1.49977e-06
0.0038168
1.04314e-05
-5.8818e-05
-0.00370551
0.00376453
8.49658e-06
-2.09138e-05
-2.72134e-05
0.00015943
0.00241346
-5.78083e-06
0.000148956
0.00307771
-1.16941e-05
4.53852e-05
0.0041513
-1.44153e-05
-1.40712e-06
0.00417966
-2.8633e-05
-3.99557e-05
-0.00365999
0.00371362
-3.96841e-05
-0.000172317
0.00299994
-0.0030099
0.00111161
-5.34331e-05
0.000638113
1.49479e-05
-0.00271906
0.000616119
-0.000235107
0.00226587
-0.00224336
0.000719614
-0.000119729
0.000287407
0.000332109
-0.000650173
0.000191653
-2.17428e-05
-3.6229e-05
0.000225844
-0.000277556
0.000252409
-0.00014782
0.000300081
-0.00017756
4.38583e-05
0.000506879
0.00131831
-8.22424e-05
0.000250705
0.00240285
-2.93983e-05
-6.11525e-05
0.00271775
2.74318e-05
-0.000192646
-0.00256314
0.00269297
2.98557e-05
-0.000101969
-1.95636e-05
0.000379966
0.00162864
-9.84778e-06
0.000320371
0.00282577
1.1152e-05
4.19674e-05
0.00382845
-6.67457e-07
-3.55802e-05
0.00382539
-1.62495e-05
-0.000127384
-0.00319257
0.00331992
-3.14208e-05
-4.94498e-05
-4.00285e-05
0.00016955
0.00223711
-6.13099e-06
0.000164658
0.00291924
-1.19677e-05
6.94817e-05
0.00408497
-1.48526e-05
2.84197e-05
0.00416635
-2.95222e-05
-2.63472e-05
0.00375551
-4.4176e-05
-8.44743e-05
-0.0036344
0.00371756
-3.83648e-05
-0.000342255
0.00370795
-0.00357526
0.00153318
-0.000302231
0.00113043
-0.000125311
-0.00312332
0.00122262
-0.000373805
0.00314564
-0.00318383
0.0012885
-0.00025865
0.000775774
0.000142742
-0.00269894
0.000569998
-0.000208268
-0.00216002
0.000719307
-0.000183845
0.00107086
-0.00120464
0.00075968
-0.000393831
0.000341653
0.000437516
-0.000606871
0.000157716
0.000142129
8.70333e-05
0.000176967
-0.000208794
-3.70926e-05
0.000262758
-0.000458256
-0.000112917
0.000318724
0.000359885
-0.000259367
6.09681e-05
0.000573126
0.00118655
-8.06804e-05
0.000344055
0.00232883
-3.19067e-05
-8.4006e-06
0.00271584
2.28872e-05
-0.000153925
0.00279031
4.8438e-05
-0.000356557
-0.00220996
0.00237103
9.79575e-05
-0.000114629
-3.70248e-05
0.000410586
0.00137258
-9.35189e-06
0.00037211
0.00259876
9.70891e-06
8.53231e-05
0.00381536
8.40188e-06
1.76564e-05
0.00386468
-2.92007e-05
-7.0417e-05
0.00336204
-1.43012e-05
-0.000203203
-0.0025577
0.00266037
-1.53589e-05
-9.50673e-05
-3.90152e-05
0.000176549
0.00205377
-6.77407e-06
0.000178285
0.00274616
-1.13319e-05
9.24348e-05
0.00399644
-1.58709e-05
4.01318e-05
0.00414064
-2.92782e-05
-1.02471e-05
0.00377909
-4.28554e-05
-8.21274e-05
0.00379796
-4.2449e-05
-0.000176178
-0.00236123
0.00253046
-3.14068e-05
-0.000668902
0.00529252
-0.00492935
0.00183109
-0.000265346
0.00155825
-0.000111205
-0.00359887
0.00160629
-0.000526685
0.00397135
-0.0037616
0.00147631
-0.000452778
0.00129794
-0.000134787
-0.00309198
0.00120504
-0.000262324
-0.00325028
0.00134312
-0.000215444
0.00291972
-0.00281892
0.00121931
-0.000542429
0.000812868
0.000281651
-0.00267601
0.000518336
-8.75185e-05
-0.00200433
0.00064396
-0.000347065
-0.00112549
0.000778429
-0.000413872
0.000879983
-0.000866244
0.000701558
-0.000515239
0.000387353
0.000542117
-0.000588609
0.000127873
0.000260362
0.000182697
0.000145745
-0.000171504
7.97213e-05
0.000223256
-0.000466768
0.000558055
0.00033627
-0.000610687
0.000447538
-0.000261687
0.000428164
-0.000343734
0.000131171
0.000640592
0.00101046
-7.82569e-05
0.000435499
0.00221369
-2.89303e-05
6.33677e-05
0.00267993
2.59515e-05
-8.58018e-05
0.00288911
2.75475e-05
-0.000295608
0.00252224
0.00012242
-0.000488961
-0.000964767
0.001128
0.000220483
-0.000220234
-2.09915e-05
0.000434486
0.00110183
-1.12266e-05
0.00041429
0.00234728
6.12159e-06
0.00014312
0.00377808
-3.69057e-06
5.21142e-05
0.00388546
-2.43608e-05
-6.80006e-05
0.00340208
-1.14856e-05
-0.000209761
0.00277179
1.90851e-06
-0.000418713
-0.0012614
0.00147607
1.25088e-05
-0.00018311
-3.22821e-05
0.000184406
0.00186185
-7.36753e-06
0.000189731
0.00256297
-1.33206e-05
0.000106144
0.00389376
-1.47959e-05
6.49235e-05
0.00408953
-2.96824e-05
4.33865e-06
0.00378785
-4.23777e-05
-7.30842e-05
0.00386878
-4.05934e-05
-0.000183563
0.00270565
-3.40797e-05
-0.000250487
-0.00103183
0.00127819
-2.728e-05
-0.000876406
0.00604343
-0.00589665
0.00246662
-0.000377347
0.00211875
-0.000300536
-0.00472916
0.00198816
-0.000542173
0.00545408
-0.005462
0.0018545
-0.000570761
0.00152723
-5.19896e-05
-0.00370174
0.00155107
-0.000329683
-0.0036587
0.00157075
-0.000592085
0.0043332
-0.00387047
0.00139021
-0.000495895
0.0011259
0.000219482
-0.00327003
0.0012527
-2.2198e-05
-0.00345217
0.00134162
-0.0003575
-0.00273415
0.00126878
-0.000475278
0.00322418
-0.00304079
0.00109733
-0.000603834
0.000707607
0.000170265
-0.00239194
0.000464464
3.85844e-05
-0.00187496
0.000610743
-0.000380592
-0.000988545
0.000716104
-0.000522462
-0.000785037
0.000752915
-0.00057819
0.00174876
-0.00162733
0.000547631
-0.000645623
0.000470827
0.000703096
-0.000652951
9.9203e-05
0.000402057
0.000219923
0.00012409
-8.68542e-05
0.000184707
0.000190981
-0.000332427
0.000693005
0.000334932
-0.000629664
-2.14891e-05
0.000430129
-0.000740811
0.000754641
-0.000554426
0.000479799
-0.000488654
0.000229987
0.000704129
0.000786511
-6.80963e-05
0.000512384
0.00206571
-2.83745e-05
0.000153642
0.00264002
4.60258e-07
-1.4876e-05
0.00294882
3.32319e-05
-0.000278676
0.00265601
0.000104456
-0.000518798
0.00131557
0.000243888
-0.000686172
0.000478314
-0.000179491
0.000189119
-0.000431457
1.53638e-05
0.000448187
0.000825193
-9.50627e-06
0.000447597
0.00207096
7.22106e-06
0.000199034
0.00368955
1.75735e-06
9.02634e-05
0.00389184
-3.54057e-05
-5.18067e-05
0.00346439
-3.05226e-05
-0.000197929
0.00288172
3.43435e-06
-0.000443725
0.0017234
1.47422e-05
-0.000568913
0.00047695
-0.000181828
3.58128e-05
-0.000255285
-2.83183e-05
0.000194555
0.00165969
-8.16341e-06
0.000201683
0.00236712
-1.32009e-05
0.00012492
0.00377222
-1.67029e-05
8.0458e-05
0.00402444
-3.01653e-05
2.09417e-05
0.00377941
-4.21781e-05
-5.60732e-05
0.00392297
-4.04893e-05
-0.00017137
0.00286961
-3.31752e-05
-0.000272113
0.00154682
-3.05937e-05
-0.000217788
0.000854011
-0.000639031
-2.44721e-05
-0.000815649
0.00706517
-0.00701283
0.00294915
-0.000940088
0.00251827
-0.000569112
-0.00569438
0.00258313
-0.000865071
0.00681245
-0.00660844
0.00258552
-0.000604624
0.00201353
3.03675e-05
-0.00480045
0.00186183
-0.000539943
-0.00523104
0.00196746
-0.00069088
0.00542516
-0.00531387
0.001842
-0.000564365
0.00140216
0.000312295
-0.00383215
0.00151741
7.54155e-05
-0.00375277
0.00154753
-0.000393361
-0.00381895
0.00155509
-0.000814774
0.00434404
-0.00400139
0.00138706
-0.000600847
0.00100565
0.000190252
-0.00347311
0.00119816
5.00306e-05
-0.00356351
0.00135259
-0.000244579
-0.00278997
0.00126143
-0.000534631
-0.00291699
0.00115715
-0.000740331
0.00340149
-0.00323919
0.00109717
-0.00068425
0.000570899
0.000560846
-0.00231023
0.000387614
0.000199731
-0.00176217
0.000554
-0.000361208
-0.000765963
0.000662515
-0.000476439
-0.000665381
0.000740461
-0.000648836
-0.00148573
0.000630481
-0.000762706
0.00220023
-0.00220962
0.000578914
-0.000723105
0.00049442
0.000708556
-0.00066073
6.158e-05
0.000492127
0.000226967
0.000112417
-2.01047e-05
0.000316221
0.000166322
-0.000249024
0.000819019
0.000299114
-0.000570625
0.000175597
0.000429796
-0.000791829
-0.00034529
0.000494025
-0.000932665
0.00140487
-0.00108177
0.000403195
-0.000712026
0.000182765
0.000742136
0.000534966
-6.51802e-05
0.000575995
0.00189441
-2.51865e-05
0.000240699
0.00255198
1.8004e-05
3.44897e-05
0.00300079
4.25887e-06
-0.00025105
0.0027895
9.89821e-05
-0.000475075
0.00146132
0.00023585
-0.000763783
0.000162578
0.000221877
-0.000701146
0.00126595
-0.00104029
9.56926e-05
-0.000585675
3.51525e-05
0.00045502
0.000556411
-8.06196e-06
0.000476532
0.00178046
6.14501e-06
0.000250677
0.00356626
4.75249e-06
0.000138844
0.00386121
-2.6001e-05
-3.54412e-06
0.00347821
-2.47439e-05
-0.000168027
0.00297485
-1.16971e-05
-0.000427973
0.00197014
1.32939e-05
-0.000614825
0.000129603
4.60226e-05
-0.000437462
0.00174973
-0.00148989
-4.35332e-06
-0.000216659
-2.46896e-05
0.000202033
0.00144917
-8.8313e-06
0.000211162
0.00216163
-1.38294e-05
0.000142059
0.00363372
-1.67549e-05
9.99959e-05
0.00393791
-3.01628e-05
3.65966e-05
0.00375477
-4.21276e-05
-4.32449e-05
0.00396448
-4.04463e-05
-0.000161291
0.00302564
-3.52342e-05
-0.000269013
0.00181093
-2.82682e-05
-0.000244513
-0.000396917
-2.81963e-05
-0.000206231
0.00132271
-0.00111996
-2.09856e-05
-0.000773911
0.00711862
-0.00717722
0.00353691
-0.000901523
0.00292736
-0.000725688
-0.00683986
0.00328083
-0.000985607
0.00733822
-0.00727629
0.00300775
-0.000809175
0.00264305
-0.000241996
-0.00547349
0.00243145
-0.00127522
-0.00611201
0.00282198
-0.000803899
0.00671758
-0.00661255
0.0025935
-0.000860217
0.00182226
0.000309173
-0.00474738
0.00179642
-0.00035226
-0.00493669
0.00199516
-0.000713088
-0.005
0.00197332
-0.000949801
0.00575143
-0.00567226
0.00189786
-0.00076125
0.00142874
0.000479082
-0.00416918
0.00156026
0.000192679
-0.00393636
0.00155835
-0.000257181
-0.00389804
0.00163923
-0.000693826
-0.00383445
0.00154734
-0.0010536
0.00504924
-0.00478317
0.00143425
-0.000761234
0.00104758
0.000342108
-0.003398
0.00111387
-0.000122602
-0.00342037
0.00137735
-0.000157147
-0.00288885
0.00124742
-0.000500949
-0.00281111
0.00118005
-0.000851667
-0.00303976
0.00116055
-0.0010334
0.00453797
-0.00434389
0.00117379
-0.00082905
0.000615322
0.000465526
-0.00212778
0.000398764
0.000207969
-0.00159452
0.000504123
-6.67743e-05
-0.000753379
0.000588085
-0.000455161
-0.000515252
0.000718523
-0.000614673
-0.00138482
0.000683597
-0.000866577
-0.00212363
0.000619237
-0.000961371
0.00434131
-0.0043438
0.000610108
-0.000961634
0.000365125
0.00078231
-0.000721128
2.75659e-05
0.000542137
0.000213589
0.000108816
7.30471e-05
0.000449246
0.000147044
-0.00023016
0.000963245
0.000286746
-0.000550874
0.000396596
0.000377938
-0.000728574
-0.000148395
0.000486399
-0.00105992
-0.000712814
0.000421204
-0.000995855
0.00470952
-0.00437346
0.000361846
-0.000645973
8.82249e-05
0.000750495
0.000273015
-5.85493e-05
0.000636401
0.00168561
-1.62568e-05
0.000335664
0.0024532
-1.13941e-05
0.000132365
0.00298866
3.6615e-05
-0.000174617
0.0028715
9.33375e-05
-0.000453952
0.00159531
0.000250914
-0.000738525
0.000507499
0.000201482
-0.000726159
-0.000838893
0.000131811
-0.000761066
0.00206656
-0.00183311
0.000185847
-0.000436178
-8.68278e-06
0.000454503
0.000300535
-9.64625e-06
0.000501393
0.00147754
4.62941e-06
0.000298357
0.00340466
1.14502e-05
0.000190726
0.00379471
-1.94727e-05
5.64024e-05
0.00345579
-2.33901e-05
-0.00014269
0.00305574
-6.1951e-06
-0.00039756
0.00218321
1.14976e-05
-0.000608922
0.000443646
3.91596e-05
-0.000482992
-0.00120175
-3.64134e-06
-0.000384108
0.0018695
-0.00165197
-4.40067e-05
-0.000203623
-2.18904e-05
0.000206793
0.00123303
-9.4336e-06
0.000220276
0.0019483
-1.57779e-05
0.000154836
0.00348221
-1.71574e-05
0.000118614
0.00383276
-3.02252e-05
5.17013e-05
0.00371427
-4.13676e-05
-2.50255e-05
0.00398749
-4.01089e-05
-0.00014746
0.00316365
-3.09922e-05
-0.000255554
0.0020605
-2.92514e-05
-0.000247008
-0.000150787
-2.73903e-05
-0.000232623
-0.000892402
-2.31348e-05
-0.000152143
0.00149615
-0.00133548
-2.95105e-05
-0.000817735
0.00642457
-0.00634585
0.00364999
-0.000719502
0.0034828
-0.000929335
-0.00705204
0.00397056
-0.000869117
0.0065929
-0.00661464
0.00344216
-0.000909063
0.0029855
-0.000462888
-0.00669085
0.00326438
-0.00136051
-0.00723753
0.00332736
-0.000871009
0.00694552
-0.00696283
0.00309217
-0.000869739
0.00265288
7.61786e-05
-0.00527742
0.00238296
-0.00127903
-0.00553938
0.00278558
-0.00091219
-0.00643298
0.00284151
-0.00108255
0.00661751
-0.00653037
0.00263912
-0.00096859
0.00187141
0.000280106
-0.00460365
0.00185477
-0.000219452
-0.00474927
0.00202114
-0.000522019
-0.00478255
0.00204254
-0.000960266
-0.00549979
0.0020673
-0.00121751
0.00593305
-0.00589869
0.00202741
-0.00103731
0.0014763
0.000293673
-0.00417964
0.0015964
7.60723e-05
-0.00426555
0.00169078
-4.81545e-05
-0.00411499
0.0016663
-0.000674346
-0.00369582
0.001674
-0.00106775
-0.00461242
0.00159267
-0.00131947
0.00543005
-0.00517866
0.00146893
-0.00111585
0.0011295
0.000327851
-0.00341458
0.000949104
0.000145122
-0.00352996
0.0012863
-0.000222305
-0.00263212
0.00127615
-0.000618373
-0.00261043
0.00120995
-0.000772133
-0.00286541
0.00116316
-0.00120978
-0.00410912
0.00126898
-0.0013511
0.00401681
-0.0037127
0.00125941
-0.0010222
0.000616075
0.000595817
-0.00203529
0.000365333
0.000374574
-0.00148333
0.000455135
-0.000111875
-0.000604598
0.000540265
-0.000425792
-0.000415338
0.000683803
-0.000632083
-0.00125673
0.000671647
-0.000900801
-0.0018456
0.000577794
-0.00105532
-0.00435336
0.000624195
-0.00130861
0.00346186
-0.00324896
0.000709956
-0.000893835
0.000330651
0.000800302
-0.000820517
4.17033e-05
0.000607946
0.000158401
0.000111209
0.000192715
0.000567749
0.000133261
-0.000145833
0.00112916
0.000259322
-0.000446112
0.000583314
0.000371524
-0.000743323
5.08248e-06
0.000513832
-0.00102389
-0.000369509
0.000428462
-0.00104303
-0.00402929
0.000393894
-0.000992424
0.00343118
-0.00317121
0.00033324
-0.000736749
0.00017626
0.000749045
-1.16777e-05
-4.29172e-05
0.000692926
0.00143698
-1.44957e-06
0.000429208
0.0022826
2.34861e-05
0.000197076
0.00296868
2.23119e-06
-7.80054e-05
0.00294631
9.62126e-05
-0.000416924
0.00172399
0.000238899
-0.000690025
0.000821894
0.000228984
-0.000787156
-0.000578779
0.0001196
-0.000838808
-0.00156673
0.000221246
-0.000644236
0.00310014
-0.00283233
0.000178173
-0.000366111
-5.35775e-05
0.000471112
3.75964e-05
-1.48001e-05
0.000525933
0.00115615
6.08486e-06
0.000345381
0.00322361
-4.86372e-06
0.000244289
0.00369817
-1.7688e-05
7.69641e-05
0.00343055
-1.94933e-05
-0.000122092
0.00313314
-3.71823e-06
-0.000372529
0.00238406
1.8027e-05
-0.000576353
0.000758903
1.70393e-05
-0.000494253
-0.000901416
-1.39251e-05
-0.000454921
-0.00139254
-4.07754e-05
-0.000350449
0.00268772
-0.00251768
-1.57377e-05
-0.000140354
-3.02283e-05
0.000210084
0.00101362
-1.06071e-05
0.000229165
0.00172585
-1.61527e-05
0.000171064
0.00331399
-1.86186e-05
0.000132489
0.00371368
-3.05642e-05
6.67906e-05
0.00365898
-4.17166e-05
-8.85702e-06
0.00399479
-3.981e-05
-0.000135252
0.00329076
-3.19693e-05
-0.000252558
0.00230682
-2.47521e-05
-0.000248736
9.52963e-05
-2.65982e-05
-0.000235278
-0.00066084
-2.36746e-05
-0.000175053
-0.00115162
-3.19461e-05
-0.000155011
0.00193031
-0.00176104
-4.37732e-05
-0.000885889
0.00587527
-0.00588475
0.00387838
-0.000782251
0.00365324
-0.000841039
-0.00635644
0.00405267
-0.000900939
0.00629265
-0.00630453
0.00369369
-0.000879489
0.00336123
-0.000803905
-0.0068061
0.00399631
-0.000925443
-0.00692336
0.0038442
-0.000803284
0.00665843
-0.00663172
0.00334772
-0.00105675
0.00309435
-0.000338544
-0.00649261
0.00336883
-0.0015322
-0.00702762
0.00330765
-0.00102942
-0.00702434
0.00350609
-0.00129986
0.0067604
-0.00659258
0.00314166
-0.00100627
0.00267846
-2.47025e-05
-0.00503359
0.00231929
-0.000911255
-0.00518157
0.00271696
-0.000781651
-0.00616944
0.00278167
-0.00120837
-0.00636707
0.00292631
-0.00141425
0.0064006
-0.006204
0.00263926
-0.00129805
0.0020273
0.000369486
-0.00461031
0.00190491
7.92907e-05
-0.00500259
0.00210487
-0.000228277
-0.00460097
0.00201968
-0.00111024
-0.00512938
0.00210802
-0.00138357
-0.00574755
0.00223199
-0.00140996
0.0061976
-0.00612367
0.00204396
-0.00135837
0.00149085
0.000411924
-0.00437871
0.00163701
0.000468884
-0.00471509
0.00172217
-0.000328693
-0.00409498
0.00177716
-0.00075329
-0.00368407
0.00178946
-0.000994133
-0.00438107
0.00166465
-0.00153588
-0.00488497
0.00162508
-0.00147637
0.006419
-0.00626712
0.00144231
-0.00140265
0.00123076
0.000386158
-0.0034035
0.000775694
6.20636e-05
-0.00339743
0.00112909
5.28343e-05
-0.00270023
0.0011897
-0.000595627
-0.00236282
0.00119838
-0.000558685
-0.00292073
0.00119187
-0.00121435
-0.00391369
0.00128128
-0.0014352
-0.00344723
0.00138339
-0.00136843
0.00492499
-0.00475251
0.00114675
-0.00128636
0.000704767
0.000580143
-0.0018999
0.000354396
0.000421589
-0.00134101
0.000409369
0.000234415
-0.000649909
0.000458747
-0.000434263
-0.000211021
0.000624379
-0.000632914
-0.0010981
0.000711972
-0.000914521
-0.00162581
0.000623059
-0.00100366
-0.0043274
0.000531604
-0.00149567
-0.00295332
0.000781199
-0.00125375
0.004429
-0.00421109
0.000753368
-0.000929987
0.000327266
0.000778861
-0.000900652
3.83036e-05
0.000687256
9.67313e-05
0.000109043
0.000293003
0.000682522
0.000132641
-7.32694e-05
0.001288
0.000244767
-0.000414034
0.000824502
0.000354162
-0.000679982
0.000200768
0.000438896
-0.000945128
-7.44304e-05
0.000473856
-0.00109918
-0.00369885
0.000410046
-0.00111824
-0.00285922
0.000361333
-0.00094031
0.00327
-0.00302918
0.000388493
-0.000594223
0.000180504
0.000740521
-0.000280953
-3.2496e-05
0.000767694
0.00114713
5.17297e-06
0.000534574
0.00206441
2.75553e-05
0.000277377
0.00292832
3.07659e-05
-3.48472e-05
0.00295459
0.000105761
-0.00039068
0.00187299
0.000215795
-0.0007077
0.00116096
0.000235002
-0.000715041
-0.000317363
0.000106257
-0.000862668
-0.00128692
0.000208204
-0.000756003
-0.00249599
0.000185985
-0.000562116
0.00305329
-0.00281616
0.000152718
-0.000324774
-3.08168e-05
0.000482088
-0.000229023
-3.0195e-05
0.00054957
0.000821424
-4.74873e-07
0.000389237
0.00300432
7.20402e-06
0.000279148
0.00357455
-2.79053e-05
0.000108431
0.00340531
-3.40916e-05
-6.11714e-05
0.00317005
-4.08871e-06
-0.000365582
0.00259473
1.59482e-05
-0.000547246
0.00104704
2.45812e-05
-0.000514808
-0.000582967
-3.53381e-05
-0.000482838
-0.00111604
-4.28642e-05
-0.000410461
-0.00231481
-8.24698e-06
-0.000287801
0.0028312
-0.00268129
-3.28645e-05
-0.000145468
-4.36073e-05
0.00021546
0.000790133
-1.21553e-05
0.000234533
0.00149858
-1.78647e-05
0.000189212
0.0031274
-1.8771e-05
0.000151513
0.00357441
-3.08635e-05
8.20198e-05
0.00358831
-4.19156e-05
1.26969e-05
0.00398083
-4.04598e-05
-0.000119793
0.00340334
-3.25991e-05
-0.000238316
0.0025388
-2.56385e-05
-0.000244704
0.000341866
-2.66182e-05
-0.000235952
-0.000427668
-2.38182e-05
-0.000179694
-0.000964242
-3.13588e-05
-0.000179988
-0.00156471
-4.82857e-05
-0.000142472
0.00127245
-0.00113497
-3.87817e-05
-0.000962373
0.00534857
-0.00539302
0.00412779
-0.000881101
0.00383802
-0.000907953
-0.00582594
0.00436102
-0.000915695
0.00570405
-0.00574384
0.00393292
-0.000749217
0.00363219
-0.000683134
-0.00640512
0.00409638
-0.000995778
-0.00625785
0.00407633
-0.000903732
0.00657815
-0.00640715
0.00362313
-0.00100019
0.00329698
-0.000684406
-0.00659196
0.00396949
-0.00109485
-0.00721035
0.00384596
-0.000971345
-0.00664656
0.00380097
-0.00126954
0.00629447
-0.0062445
0.00326743
-0.00126119
0.00311453
-0.00048793
-0.006377
0.00336897
-0.00123471
-0.00668952
0.00335419
-0.00108431
-0.00699617
0.00358214
-0.00128093
-0.00654816
0.00353424
-0.00134064
0.00647376
-0.00643035
0.00302464
-0.00121608
0.00261631
0.000429036
-0.00511775
0.00224263
-0.000208453
-0.00514109
0.00256655
-0.000526715
-0.00582088
0.00266684
-0.00118654
-0.00640759
0.00289848
-0.00163246
-0.00601986
0.00299106
-0.0013451
0.00648964
-0.00638753
0.00247229
-0.00151403
0.00200712
0.000602778
-0.00476849
0.00202915
-4.07546e-07
-0.00476001
0.00213162
-4.08486e-05
-0.00490689
0.00212295
-0.000920877
-0.00497072
0.00202861
-0.00129384
-0.00554555
0.00220573
-0.00166065
-0.00605171
0.0022848
-0.00154668
0.0062648
-0.00614949
0.00199896
-0.00153008
0.00144618
0.000254833
-0.00442724
0.00150909
0.000132577
-0.00490427
0.00175568
0.00024021
-0.00436927
0.00180909
-0.000724244
-0.0034809
0.0017026
-0.000816268
-0.00409505
0.00176102
-0.00137494
-0.00472975
0.00167003
-0.00155287
-0.0061056
0.00158124
-0.001542
0.0060962
-0.00591445
0.00143412
-0.00139193
0.00116224
0.000349896
-0.0033703
0.000662782
9.12564e-05
-0.00328948
0.000998075
5.50319e-05
-0.00249886
0.0011071
-0.000635503
-0.00215933
0.00118745
-0.000962917
-0.00255605
0.0011637
-0.00122135
-0.00365714
0.00124215
-0.00131351
-0.00327243
0.00141634
-0.00154801
-0.00459933
0.00128254
-0.00140089
0.00488157
-0.00473477
0.00114709
-0.0011868
0.000719774
0.000562018
-0.00183788
0.000373757
0.000528463
-0.00122241
0.000394592
0.000241406
-0.000592439
0.000403496
-0.00032467
-7.96737e-05
0.0005788
-0.000614073
-0.000949036
0.000675354
-0.000827978
-0.00137085
0.000605006
-0.000959497
-0.00425202
0.000562046
-0.00146318
-0.00285518
0.000797473
-0.00140008
-0.00397416
0.000826115
-0.00107372
0.00507473
-0.00484501
0.000657055
-0.000802214
0.00038508
0.000793265
-0.00101861
5.10893e-05
0.000787382
2.64276e-05
8.89198e-05
0.000382219
0.000833911
0.000110009
2.56238e-05
0.00143873
0.000233667
-0.000313434
0.00105537
0.000292487
-0.000625039
0.000347501
0.000441788
-0.000877082
7.84282e-05
0.00045542
-0.000993265
-0.00336796
0.00042119
-0.00114576
-0.00254891
0.000382836
-0.00102621
-0.00281998
0.000422348
-0.000734259
0.00376951
-0.00358648
0.00037761
-0.000507106
0.000160869
0.000741948
-0.000546769
-3.16616e-05
0.000809718
0.000832836
2.16495e-05
0.000617649
0.0018385
2.6682e-06
0.000332273
0.00289412
8.62466e-06
2.26265e-05
0.00298722
8.39376e-05
-0.000353021
0.00201834
0.000252256
-0.000653461
0.00143611
0.000228527
-0.000690631
-7.31762e-05
0.0001342
-0.000897032
-0.000995726
0.000197289
-0.000801586
-0.00214077
0.000171729
-0.000648239
-0.00255535
0.000162946
-0.000407888
0.00329502
-0.00315745
0.000135235
-0.000262018
-4.29056e-05
0.000498645
-0.000510004
-3.92644e-05
0.000564012
0.000480356
-1.86061e-05
0.000429681
0.00277198
-8.61075e-06
0.000326714
0.00342547
-1.89159e-05
0.000134551
0.00336161
-3.67307e-05
-6.03558e-05
0.00322305
-1.40379e-05
-0.000290004
0.00275294
7.91098e-06
-0.000515658
0.0013248
1.55234e-05
-0.000498283
-0.000272639
-3.21676e-05
-0.000479673
-0.000869979
-3.76759e-05
-0.000433196
-0.00209913
-5.04178e-06
-0.000348366
-0.00247717
-4.39846e-05
-0.000257744
0.00282171
-0.00269071
-4.85963e-05
-0.000120661
-3.94288e-05
0.000215347
0.000568767
-1.53328e-05
0.000237188
0.00126882
-1.95889e-05
0.000204935
0.00292481
-2.02184e-05
0.000162185
0.00342522
-3.176e-05
9.57076e-05
0.00350328
-4.15435e-05
2.63043e-05
0.00395289
-4.02761e-05
-0.0001043
0.00349977
-3.25916e-05
-0.000223261
0.00275584
-2.63784e-05
-0.000239977
0.000582328
-2.61228e-05
-0.000233687
-0.000196306
-2.42932e-05
-0.000185893
-0.000770341
-3.18258e-05
-0.000189589
-0.00135898
-4.75019e-05
-0.000153374
-0.000987722
-4.21631e-05
-7.88926e-05
0.00267996
-0.00261398
-2.58657e-05
-0.000862951
0.00497103
-0.00491864
0.0044229
-0.0010157
0.0040615
-0.0010413
-0.0053982
0.00459932
-0.000884957
0.00537486
-0.00534072
0.00406291
-0.000852865
0.00391396
-0.000722236
-0.00589546
0.00446128
-0.0010782
-0.00566401
0.00436362
-0.00104371
0.00553594
-0.00544528
0.00398223
-0.000776216
0.0035572
-0.000637601
-0.00641642
0.0041415
-0.0010625
-0.006273
0.00407918
-0.0010746
-0.0062538
0.00402625
-0.000905782
0.00588911
-0.00616711
0.00353737
-0.00125937
0.00318656
-0.000642045
-0.00651668
0.00390587
-0.00105155
-0.00727276
0.00384873
-0.000977333
-0.00682562
0.00391803
-0.00122258
-0.00621758
0.00371571
-0.00117491
0.00621345
-0.00614659
0.00303483
-0.00118273
0.0030199
-5.84063e-05
-0.0061242
0.00308165
-0.00063047
-0.00630112
0.00340258
-0.00098607
-0.00676038
0.00357775
-0.0011054
-0.0066192
0.00357205
-0.0014373
-0.0064681
0.00337682
-0.00122467
0.0063002
-0.00624199
0.002846
-0.00137251
0.00245245
0.00076493
-0.00528714
0.00216983
-0.000436339
-0.0049441
0.00248157
-0.000472151
-0.00544514
0.00262212
-0.00112573
-0.00632431
0.00278841
-0.0014713
-0.00592015
0.00297624
-0.00154173
-0.00631592
0.00280053
-0.00144922
0.00634958
-0.00633291
0.00235816
-0.0015483
0.00199473
0.00039029
-0.00489441
0.00203734
0.000116705
-0.00491635
0.00220137
0.000112929
-0.00485359
0.00220561
-0.000749779
-0.00483833
0.00201609
-0.00122795
-0.00523051
0.00212525
-0.00160431
-0.00594032
0.00232371
-0.00180196
-0.00587282
0.00225722
-0.00136835
0.00552925
-0.00558162
0.00187769
-0.00149296
0.00143398
0.000222713
-0.00446817
0.00130861
0.000102788
-0.00495753
0.00155082
-0.000175308
-0.00426147
0.00187823
-0.000652959
-0.00340791
0.00175355
-0.00104596
-0.00398424
0.00167484
-0.00137293
-0.00447756
0.00166042
-0.00147187
-0.00584703
0.00156981
-0.00165668
-0.0058545
0.00162996
-0.00123792
0.00604735
-0.00610612
0.00132993
-0.00125085
0.000977553
0.000342468
-0.00348058
0.000584106
0.00025715
-0.0031051
0.000749717
0.000557603
-0.00280722
0.000990237
-0.000671269
-0.00187494
0.00116931
-0.000712569
-0.00243503
0.00116493
-0.00108049
-0.0034131
0.00117217
-0.00119846
-0.0031732
0.00138188
-0.00161523
-0.00431615
0.00128521
-0.00148598
-0.00458293
0.0012166
-0.00113697
0.0051064
-0.004996
0.00109994
-0.000996044
0.000595811
0.000662065
-0.00187396
0.000372604
0.000638229
-0.00109694
0.000397438
0.000528111
-0.000709739
0.000366
-0.000194584
1.71501e-05
0.00052688
-0.000587154
-0.000732657
0.000636141
-0.000784453
-0.0012138
0.000677721
-0.00103332
-0.00396518
0.000474409
-0.00138489
-0.00266774
0.000766219
-0.00140631
-0.00376525
0.000849112
-0.00121146
-0.00452499
0.000691341
-0.000836345
0.00527068
-0.00514218
0.000630641
-0.000694355
0.000383654
0.000919237
-0.00128218
7.69408e-05
0.00090288
-0.000110123
9.44788e-05
0.000519311
0.000915066
0.000106102
7.80189e-05
0.00158978
0.000213211
-0.000211207
0.00123561
0.00028726
-0.000663052
0.000502471
0.000447549
-0.000812207
0.00022043
0.000458532
-0.000975205
-0.00307878
0.000450821
-0.00117467
-0.00223676
0.000386669
-0.00111915
-0.00256859
0.000449007
-0.000874673
-0.00335698
0.000419281
-0.000529816
0.00388187
-0.00375888
0.000376546
-0.000373719
0.000148288
0.000751965
-0.000808502
-2.21081e-05
0.000842753
0.000504058
1.83754e-05
0.00067218
0.00157055
4.70983e-05
0.000413488
0.00282705
-1.70307e-05
7.3115e-05
0.00300099
5.6293e-05
-0.000330985
0.00213822
0.000234687
-0.00042835
0.00155245
0.000274263
-0.000632179
0.000120745
0.000151126
-0.000841771
-0.000730754
0.000212715
-0.000807511
-0.00179824
0.000182602
-0.000697676
-0.00228204
0.000162901
-0.000506492
-0.00298803
0.000151652
-0.000346822
0.00353992
-0.00343006
0.000114453
-0.000189096
-5.27289e-05
0.000502332
-0.000790333
-4.28701e-05
0.000564827
0.000139463
-2.6011e-05
0.000455996
0.00252122
-1.8904e-05
0.000358172
0.00325539
-3.45155e-05
0.00016379
0.00330022
-2.56101e-05
-3.23024e-05
0.00325991
-1.49867e-05
-0.000249815
0.00288965
-5.23363e-06
-0.0004831
0.00159082
1.73098e-06
-0.000483703
2.51854e-05
-3.8575e-05
-0.000490402
-0.000615842
-2.95893e-05
-0.000453468
-0.00187333
4.10249e-06
-0.000376897
-0.00224841
-4.64984e-05
-0.000284771
-0.00255274
-5.05573e-05
-0.000202512
0.00392502
-0.00388651
3.65117e-05
-6.85186e-05
-2.77206e-05
0.000213096
0.000351488
-1.90805e-05
0.000237522
0.00103716
-2.11957e-05
0.000220533
0.00270585
-2.11567e-05
0.000176584
0.00326063
-3.2215e-05
0.000107105
0.00340619
-4.17746e-05
4.76903e-05
0.00390448
-4.08282e-05
-9.03664e-05
0.0035821
-3.22383e-05
-0.00020841
0.00295789
-2.62243e-05
-0.000233993
0.000816254
-2.63115e-05
-0.000231651
3.44403e-05
-2.5218e-05
-0.000189996
-0.000573476
-3.11624e-05
-0.00019617
-0.00114665
-4.79779e-05
-0.000162552
-0.000831149
-4.15226e-05
-0.000102648
-0.00252716
-2.63311e-05
-9.12942e-05
0.00237483
-0.00228604
-2.33557e-05
-0.000845097
0.00529357
-0.00521648
0.00442186
-0.000849939
0.00431881
-0.000830772
-0.00508124
0.00497946
-0.000809211
0.00520335
-0.00504741
0.00419121
-0.000850921
0.00402964
-0.000959281
-0.00526227
0.00465823
-0.00105031
-0.00532859
0.00455929
-0.00104569
0.00535773
-0.00531585
0.00402302
-0.000944847
0.00393669
-0.00062014
-0.00599167
0.0044823
-0.00100259
-0.00571319
0.00445054
-0.00116095
-0.00537582
0.00438051
-0.000753211
0.00564239
-0.00567194
0.00385921
-0.00101676
0.00354344
-0.000633484
-0.00644533
0.0041914
-0.000985963
-0.00629004
0.00409295
-0.00109756
-0.00614353
0.00408914
-0.00101008
-0.00627946
0.00392609
-0.000881494
0.00580116
-0.00582064
0.00326344
-0.00109309
0.0029626
-0.000583579
-0.00622197
0.00399984
-0.000921785
-0.00693928
0.0038637
-0.00102696
-0.00692103
0.00398504
-0.00113322
-0.00610937
0.00383764
-0.00134303
-0.00598831
0.00346317
-0.00109475
0.00630375
-0.00625703
0.00285819
-0.00112417
0.00278133
5.15684e-06
-0.00563818