/*--------------------------------*- C++ -*----------------------------------*\
  =========                 |
  \\      /  F ield         | OpenFOAM: The Open Source CFD Toolbox
   \\    /   O peration     | Website:  https://openfoam.org
    \\  /    A nd           | Version:  7
     \\/     M anipulation  |
\*---------------------------------------------------------------------------*/
FoamFile
{
    version     2.0;
    format      ascii;
    class       surfaceScalarField;
    location    "3";
    object      phi_0;
}
// * * * * * * * * * * * * * * * * * * * * * * * * * * * * * * * * * * * * * //

dimensions      [0 3 -1 0 0 0 0];

internalField   nonuniform List<scalar> 
54006
(
9.7747e-05
-0.00311059
0.00300777
-4.12805e-06
0.000225751
-0.0026085
0.00246236
-1.49116e-05
8.48326e-05
-3.81086e-06
0.000126031
0.00287699
-5.29475e-06
8.36153e-05
-0.00352958
0.00345027
-8.44041e-06
0.000231402
-0.00136031
0.00141263
-4.56045e-05
0.000190539
-1.57019e-05
0.000286571
0.00228608
-1.7907e-05
0.000141552
-0.00337404
0.00330385
-2.65756e-06
6.66992e-05
-8.58528e-06
0.000137133
0.002734
-5.09748e-06
0.000113068
0.00334241
-1.04973e-05
-2.47917e-06
-0.00420519
0.00421071
-1.14763e-05
0.000151569
0.000719206
-0.000743025
0.000263857
0.000169628
-2.64416e-05
0.000328102
0.00143898
-6.18833e-05
6.68302e-05
-0.00236649
0.00241364
-1.80317e-05
9.87476e-05
1.13576e-05
0.000318121
0.00208855
-1.77215e-05
0.00021008
0.0031809
8.03239e-06
-6.22186e-05
-0.00375217
0.00379027
1.89752e-05
-6.55091e-06
-1.38969e-05
0.000147476
0.00258036
-6.00839e-06
0.000132406
0.00321537
-1.04652e-05
2.68793e-05
0.00418715
-1.38136e-05
-1.38258e-05
-0.00413875
0.00416647
-2.53623e-05
2.77883e-05
0.00271268
-0.00273507
0.000590145
5.93311e-05
0.0002769
0.000202262
-0.000701712
0.000252806
-8.33983e-05
0.000415198
-0.000248097
0.000246984
1.02704e-05
-9.87407e-06
0.000426542
0.00140153
-7.39035e-05
0.00015447
0.00243178
-2.44078e-05
-0.000119068
-0.0026917
0.00270448
2.60375e-05
-7.47557e-05
4.53744e-06
0.000348819
0.00186944
-1.32491e-05
0.000266736
0.00302078
8.0718e-06
-1.90362e-06
0.00381714
9.94785e-06
-6.10732e-05
-0.00370536
0.00376364
7.94418e-06
-1.98494e-05
-2.76374e-05
0.000158798
0.00241416
-5.84442e-06
0.000148601
0.00307278
-1.20209e-05
4.40767e-05
0.00414723
-1.46291e-05
-1.72686e-06
0.00418313
-2.87439e-05
-3.99851e-05
-0.00364986
0.00370423
-3.97405e-05
-0.000177839
0.00300121
-0.00300642
0.00111364
-5.37945e-05
0.000640031
1.56994e-05
-0.00272427
0.00061693
-0.000232993
0.00225727
-0.00223937
0.00072184
-0.000122109
0.000288312
0.000328005
-0.000654422
0.000192136
-2.72545e-05
-4.04523e-05
0.000226885
-0.000279694
0.000263623
-0.000156521
0.000300509
-0.000178891
4.36775e-05
0.000504797
0.00132191
-8.24561e-05
0.000249229
0.00240446
-2.90775e-05
-6.21924e-05
0.00271224
2.81251e-05
-0.000192482
-0.00256092
0.0026888
2.95613e-05
-0.000101315
-1.72419e-05
0.000378966
0.00163278
-1.0171e-05
0.000320151
0.00282449
1.14874e-05
4.01605e-05
0.00382961
-4.83727e-07
-3.57917e-05
0.00382572
-1.80697e-05
-0.000128076
-0.00318783
0.00331438
-3.05134e-05
-4.95318e-05
-4.01486e-05
0.000168812
0.00223848
-6.28672e-06
0.0001644
0.00291422
-1.1688e-05
7.04286e-05
0.00407983
-1.5051e-05
2.9154e-05
0.00416908
-2.97412e-05
-2.69727e-05
0.00374652
-4.40661e-05
-8.59236e-05
-0.00362725
0.00371206
-3.86192e-05
-0.00034516
0.00370921
-0.00358088
0.00153491
-0.000301929
0.0011328
-0.000120829
-0.00312283
0.00122331
-0.000374574
0.00314791
-0.00318319
0.0012905
-0.00026084
0.000777632
0.000137772
-0.0027039
0.000571022
-0.000208834
-0.00216292
0.000722054
-0.000187545
0.00106492
-0.00119671
0.000761472
-0.000395575
0.0003416
0.000432713
-0.000609441
0.000158066
0.000137741
8.50702e-05
0.000178102
-0.000209317
-4.62394e-05
0.000263727
-0.000458775
-0.000103472
0.000310418
0.000359856
-0.000259525
5.99814e-05
0.000571631
0.00119008
-8.08098e-05
0.000342602
0.00233105
-3.15022e-05
-1.00141e-05
0.00270957
2.37591e-05
-0.000154091
0.00278629
4.89429e-05
-0.000355973
-0.00220851
0.00236943
9.65325e-05
-0.000115965
-3.54465e-05
0.000409955
0.00137711
-9.94015e-06
0.00037152
0.00259802
9.18202e-06
8.53513e-05
0.00381732
8.85768e-06
1.72675e-05
0.00386684
-2.97204e-05
-7.11484e-05
0.00335259
-1.21008e-05
-0.000204491
-0.00254916
0.00265233
-1.51163e-05
-9.58062e-05
-3.93541e-05
0.000176398
0.00205513
-6.9696e-06
0.000178397
0.00274111
-1.15721e-05
9.12802e-05
0.0039928
-1.59295e-05
3.85456e-05
0.00414468
-2.91875e-05
-1.11788e-05
0.00377066
-4.26967e-05
-8.44531e-05
0.00379504
-4.25924e-05
-0.000176094
-0.00236723
0.00253661
-3.19082e-05
-0.000666754
0.0053097
-0.00495575
0.0018379
-0.000266891
0.00155883
-0.000117344
-0.00359499
0.00160832
-0.000529242
0.00397869
-0.00376734
0.00147822
-0.000452415
0.00129841
-0.000132122
-0.00309825
0.00120517
-0.00026685
-0.00324563
0.00134376
-0.000217078
0.0029204
-0.00281814
0.00121777
-0.000549459
0.000814026
0.000280957
-0.00268694
0.000520335
-9.03667e-05
-0.00200939
0.000645603
-0.000341163
-0.00112351
0.000780704
-0.000418903
0.000888039
-0.000867661
0.000701222
-0.000516476
0.000387596
0.000539766
-0.000591242
0.000128443
0.000255898
0.000182919
0.000146921
-0.000173025
7.03033e-05
0.000224569
-0.000468256
0.000551359
0.000336951
-0.000612199
0.000458323
-0.000271601
0.000429359
-0.00034379
0.000128788
0.000639321
0.0010143
-7.84489e-05
0.000433693
0.00221668
-2.8611e-05
6.29962e-05
0.00267441
2.60132e-05
-8.59705e-05
0.0028861
2.71783e-05
-0.000295177
0.00251973
0.000122677
-0.000488417
-0.000965314
0.00112673
0.000219041
-0.000220996
-2.05763e-05
0.000433882
0.00110713
-1.17675e-05
0.000413288
0.00234721
5.97474e-06
0.000143803
0.00377777
-3.79444e-06
5.00364e-05
0.00388862
-2.44154e-05
-7.19048e-05
0.00339782
-1.42227e-05
-0.000212486
0.00276468
3.5834e-06
-0.000418265
-0.0012635
0.00147826
1.229e-05
-0.000182978
-3.28013e-05
0.000184624
0.0018631
-7.69272e-06
0.000189775
0.00255766
-1.32898e-05
0.000104097
0.0038921
-1.49697e-05
6.5313e-05
0.00409333
-2.98999e-05
2.89725e-06
0.0037809
-4.23319e-05
-7.3838e-05
0.00386686
-4.06744e-05
-0.000183461
0.00271206
-3.45814e-05
-0.000249905
-0.0010293
0.00127541
-2.81114e-05
-0.000889606
0.00607668
-0.00591456
0.00247468
-0.000370986
0.00212791
-0.000319799
-0.0047425
0.00199096
-0.000537418
0.00544846
-0.00546181
0.00185942
-0.000571225
0.00152787
-5.0376e-05
-0.00369673
0.00155043
-0.000342864
-0.0036558
0.0015728
-0.000594589
0.00434739
-0.00388222
0.00139056
-0.000503173
0.00112391
0.000211941
-0.00327087
0.00125417
-2.13776e-05
-0.00345
0.00134056
-0.000349426
-0.00273585
0.00126973
-0.000481807
0.00323119
-0.00304602
0.00109551
-0.000605464
0.00070724
0.000165804
-0.00240266
0.000465621
3.43069e-05
-0.00187983
0.000612367
-0.00037927
-0.000989539
0.000717877
-0.000519077
-0.000788918
0.000752782
-0.000581456
0.00175996
-0.00163775
0.000548277
-0.000645883
0.000474201
0.000697989
-0.000652646
9.99001e-05
0.000397677
0.000222251
0.000125127
-8.8992e-05
0.000176876
0.000192336
-0.000333834
0.000687935
0.000335857
-0.00063052
-3.05007e-05
0.000431193
-0.000740704
0.000763998
-0.00056398
0.000481629
-0.000487463
0.000228044
0.000701719
0.000791724
-6.84135e-05
0.000509577
0.00207012
-2.81777e-05
0.000153788
0.00263491
9.09936e-07
-1.54395e-05
0.00294519
3.24085e-05
-0.000283266
0.00265455
0.000103713
-0.000519488
0.00131276
0.000243652
-0.000687133
0.000497445
-0.000197313
0.000187779
-0.000430755
1.51201e-05
0.00044795
0.000831053
-9.92123e-06
0.000446495
0.0020714
7.31924e-06
0.000199105
0.00368552
3.21755e-06
8.92254e-05
0.00389573
-3.4817e-05
-5.33825e-05
0.00346047
-3.07857e-05
-0.000198553
0.00287462
5.53093e-07
-0.000443445
0.00172733
1.44976e-05
-0.000570937
0.00049136
-0.000194386
3.63478e-05
-0.00025484
-2.9266e-05
0.000194822
0.0016608
-8.43911e-06
0.000201926
0.00236122
-1.31815e-05
0.000123473
0.00377202
-1.66843e-05
7.88768e-05
0.00402954
-3.00583e-05
1.91504e-05
0.00377393
-4.20737e-05
-5.65791e-05
0.00392185
-4.07467e-05
-0.000171256
0.00287653
-3.38852e-05
-0.000271638
0.0015433
-3.08373e-05
-0.000217465
0.000846281
-0.000632132
-2.4795e-05
-0.000824632
0.00707918
-0.00703038
0.00294554
-0.000935691
0.00252397
-0.000587992
-0.005715
0.00259554
-0.000844806
0.00682056
-0.00662655
0.00258806
-0.000613431
0.00201255
1.48452e-05
-0.00480015
0.00186551
-0.000538214
-0.00524134
0.00196584
-0.000695679
0.00544196
-0.00532448
0.00184304
-0.000564172
0.00140236
0.000300035
-0.00382063
0.00151632
6.81851e-05
-0.00374302
0.00154809
-0.000391811
-0.00382141
0.00155438
-0.000818237
0.00435748
-0.00402001
0.00138952
-0.000602412
0.00100514
0.000188172
-0.00347707
0.00120156
5.9249e-05
-0.003571
0.00135023
-0.000250471
-0.00278496
0.00126088
-0.00053046
-0.00292246
0.00115754
-0.000741338
0.00340619
-0.00324953
0.00109874
-0.000688376
0.000572401
0.000549364
-0.0023167
0.000390688
0.000198576
-0.00177111
0.000556002
-0.000364597
-0.000766039
0.000664472
-0.000475013
-0.000670795
0.000740934
-0.000649507
-0.00149484
0.000628851
-0.000765888
0.00219898
-0.00220748
0.000581964
-0.000723412
0.000496014
0.000705416
-0.000659674
6.29616e-05
0.000488059
0.000230374
0.000113295
-2.23358e-05
0.000310574
0.000167553
-0.000249782
0.000813818
0.000300795
-0.00057079
0.000162333
0.000430547
-0.000794019
-0.000353998
0.000495742
-0.000934237
0.00143505
-0.00110832
0.000402009
-0.000714177
0.000182239
0.00074152
0.000540391
-6.57522e-05
0.000572649
0.00190034
-2.47878e-05
0.000240805
0.00254626
1.87741e-05
3.44654e-05
0.00299528
5.5761e-06
-0.000252112
0.00278699
9.86981e-05
-0.000476096
0.0014583
0.000235712
-0.000763876
0.000145911
0.000220858
-0.00070223
0.00125417
-0.00102987
9.47676e-05
-0.000588149
3.61364e-05
0.000455012
0.000562889
-8.56708e-06
0.000475522
0.00178177
6.11589e-06
0.00024972
0.00356025
6.33884e-06
0.000138772
0.00386263
-2.357e-05
-1.72618e-06
0.00347066
-2.41305e-05
-0.000168522
0.00296825
-1.2473e-05
-0.000428235
0.00197176
1.30991e-05
-0.000617418
0.000119488
4.64035e-05
-0.000437161
0.00178107
-0.00152062
-4.3999e-06
-0.000216461
-2.52247e-05
0.000202074
0.00145035
-9.09663e-06
0.000211323
0.00215587
-1.4407e-05
0.000140365
0.00363503
-1.65571e-05
9.85402e-05
0.00394441
-3.00922e-05
3.4725e-05
0.00375109
-4.19462e-05
-4.49919e-05
0.00396548
-4.07064e-05
-0.000161468
0.00303259
-3.53357e-05
-0.000268251
0.00180705
-2.93836e-05
-0.000243943
-0.000391049
-2.79812e-05
-0.000206294
0.00134352
-0.00114131
-2.07088e-05
-0.000764211
0.00710422
-0.00717822
0.00353011
-0.000907827
0.00292647
-0.000735636
-0.00686305
0.00328174
-0.000974578
0.0073466
-0.00728
0.0030087
-0.000806246
0.00264848
-0.000281949
-0.00547658
0.00244156
-0.00125067
-0.00614278
0.00282422
-0.000799345
0.00671474
-0.00661924
0.00259623
-0.000864582
0.00182027
0.000304688
-0.00475347
0.00179342
-0.000356622
-0.00494407
0.00199304
-0.000715718
-0.00500875
0.00197402
-0.000949637
0.00575747
-0.00568254
0.00189951
-0.000761921
0.00142901
0.000487893
-0.00416832
0.00155743
0.0001988
-0.00392102
0.00155477
-0.000272166
-0.00389012
0.0016385
-0.000696672
-0.00384552
0.0015461
-0.00105405
0.00506857
-0.00480338
0.00143705
-0.000769137
0.00104721
0.000338833
-0.00340933
0.0011223
-0.000126482
-0.00342213
0.00137775
-0.000152969
-0.00289195
0.00124559
-0.000498933
-0.00281595
0.00117829
-0.000854723
-0.00305042
0.00116365
-0.00103698
0.00454205
-0.00434816
0.00117594
-0.000835366
0.000617038
0.000465041
-0.00213593
0.000398792
0.000202128
-0.00160068
0.000506186
-7.08168e-05
-0.000751521
0.000589964
-0.000453544
-0.000521749
0.000719188
-0.000615269
-0.00139242
0.000683001
-0.000866888
-0.00212807
0.000622307
-0.000967578
0.00432979
-0.00432692
0.00061243
-0.000965641
0.000365018
0.000778923
-0.000716325
2.67365e-05
0.000538153
0.000218476
0.000109355
6.99912e-05
0.000446091
0.000148592
-0.000231042
0.000958352
0.000288527
-0.00055321
0.000384798
0.000379428
-0.000730138
-0.000157155
0.000487746
-0.00106226
-0.000737462
0.000423263
-0.000989042
0.00473282
-0.00440211
0.000358111
-0.000648675
8.76998e-05
0.000749785
0.000278898
-5.91323e-05
0.000633036
0.00169257
-1.5495e-05
0.000335012
0.00244658
-1.04083e-05
0.000131955
0.00298367
3.7201e-05
-0.000170482
0.00286702
9.43011e-05
-0.000454388
0.00159185
0.00025102
-0.000739458
0.00049284
0.000200007
-0.000727916
-0.00083076
0.000132247
-0.000760393
0.00208422
-0.00185174
0.00018552
-0.000435844
-8.40785e-06
0.000454835
0.000307441
-1.06639e-05
0.000500607
0.00147883
5.08573e-06
0.000297334
0.00339897
1.04261e-05
0.000191628
0.00379383
-1.79509e-05
5.40076e-05
0.00345048
-2.26812e-05
-0.000143793
0.00304948
-6.56205e-06
-0.00039743
0.00218396
1.1296e-05
-0.000612309
0.000435912
4.07324e-05
-0.000482445
-0.00123209
-3.62198e-06
-0.000382615
0.00188571
-0.00166772
-4.60719e-05
-0.000203608
-2.17144e-05
0.000205956
0.00123496
-9.57052e-06
0.000220453
0.00194236
-1.60412e-05
0.000154233
0.00348413
-1.7737e-05
0.000117311
0.00384065
-3.01092e-05
4.98494e-05
0.00371241
-4.12599e-05
-2.45431e-05
0.00398832
-4.02499e-05
-0.000147617
0.00317126
-3.17644e-05
-0.000255899
0.00205713
-2.95177e-05
-0.000246555
-0.000145869
-2.80085e-05
-0.000233006
-0.00091357
-2.27175e-05
-0.00015119
0.00151074
-0.00135051
-2.97501e-05
-0.000812225
0.00643249
-0.00635409
0.00364981
-0.000725676
0.00347887
-0.000926591
-0.007064
0.00396522
-0.00086839
0.00659384
-0.00660502
0.0034351
-0.000900291
0.0029902
-0.000501404
-0.00671005
0.00326408
-0.0013419
-0.00723825
0.00333123
-0.000873149
0.00693908
-0.00695235
0.00309578
-0.000874065
0.00265687
6.63638e-05
-0.00527961
0.00238824
-0.0012703
-0.00557747
0.00278993
-0.000908999
-0.00644531
0.00284357
-0.00107317
0.00661512
-0.00653585
0.0026405
-0.000969054
0.00187505
0.00028081
-0.00460777
0.00185417
-0.000227728
-0.00474364
0.00201951
-0.000542261
-0.00478837
0.00204276
-0.000960007
-0.00551494
0.00206975
-0.00121588
0.00593947
-0.00590624
0.00202811
-0.00104608
0.00147678
0.000296632
-0.00418078
0.00159337
6.38747e-05
-0.00424067
0.00168672
-4.42872e-05
-0.00410892
0.00166488
-0.000672377
-0.00370508
0.00167151
-0.00107679
-0.00462656
0.00159134
-0.00132144
0.00545475
-0.00520479
0.00147154
-0.00112594
0.00112952
0.000329461
-0.00342528
0.000957821
0.000147037
-0.00353543
0.0012907
-0.000228608
-0.00263245
0.00127604
-0.000613532
-0.0026194
0.00120903
-0.000777145
-0.00287376
0.0011635
-0.00120755
-0.00411707
0.00127323
-0.00135681
0.00402657
-0.00372076
0.00125936
-0.00103073
0.000615171
0.000593939
-0.00204623
0.000366879
0.000368884
-0.00149034
0.000457719
-0.000116829
-0.000600487
0.000541973
-0.000426205
-0.000422211
0.000685588
-0.000632171
-0.00126425
0.000669977
-0.000899335
-0.00185409
0.000578225
-0.0010608
-0.00433483
0.000628759
-0.00130795
0.00349074
-0.0032703
0.000710894
-0.000884483
0.000331119
0.000797059
-0.000812585
4.06846e-05
0.000604578
0.000161923
0.000111748
0.000189317
0.000566458
0.000134683
-0.000148321
0.00112566
0.000261563
-0.000447558
0.000577533
0.000372868
-0.000745206
-3.16426e-06
0.000516255
-0.00103061
-0.000387702
0.000429135
-0.00104138
-0.00405768
0.000392306
-0.000991358
0.00342218
-0.0031656
0.000332497
-0.000734075
0.000176155
0.000747389
-4.33936e-06
-4.31476e-05
0.000689444
0.00144566
-1.05869e-06
0.00042806
0.00227423
2.61356e-05
0.000196706
0.00296563
2.5489e-06
-8.05686e-05
0.00294174
9.70622e-05
-0.000418179
0.00172099
0.000239541
-0.000689169
0.000808156
0.000227443
-0.000787776
-0.000576885
0.000121599
-0.000838423
-0.00158542
0.000221911
-0.000640446
0.00312038
-0.00285481
0.000177785
-0.000365372
-5.50039e-05
0.000471481
4.39606e-05
-1.57942e-05
0.00052579
0.00115683
6.00133e-06
0.000345004
0.00321732
-4.02938e-06
0.000243374
0.00369672
-1.85276e-05
7.39639e-05
0.00342857
-2.01505e-05
-0.000121903
0.00312825
-4.09401e-06
-0.000372252
0.0023841
1.79264e-05
-0.000579893
0.000753126
1.80767e-05
-0.000493093
-0.000931916
-1.29089e-05
-0.000453155
-0.00141073
-4.04679e-05
-0.000347208
0.00270234
-0.00253437
-1.80252e-05
-0.000139039
-3.02649e-05
0.000209871
0.00101582
-1.09574e-05
0.000229252
0.00171975
-1.6213e-05
0.000171689
0.00331533
-1.89367e-05
0.000131548
0.00372209
-3.07205e-05
6.52857e-05
0.00365901
-4.19964e-05
-8.84542e-06
0.00399592
-4.00135e-05
-0.000135571
0.00329927
-3.26868e-05
-0.000252102
0.0023031
-2.56282e-05
-0.000248361
9.9777e-05
-2.68035e-05
-0.000235532
-0.000682686
-2.33604e-05
-0.000174402
-0.00116656
-3.22734e-05
-0.000154447
0.00194125
-0.00177273
-4.38314e-05
-0.000883211
0.00587586
-0.0058831
0.00387748
-0.00078003
0.00365265
-0.000857648
-0.00635137
0.00405147
-0.000893903
0.00629147
-0.00630764
0.00369149
-0.000874144
0.00336012
-0.000818279
-0.00683641
0.00399197
-0.000924657
-0.00689785
0.00384081
-0.000811972
0.00665723
-0.00662659
0.00334328
-0.00105739
0.00309686
-0.000339934
-0.00650869
0.00336388
-0.00152164
-0.00703359
0.00331076
-0.00102044
-0.00701307
0.00350339
-0.00129741
0.00677085
-0.00659414
0.00314331
-0.00100449
0.00268184
-3.43171e-05
-0.00503104
0.00232463
-0.000950334
-0.00519072
0.00272409
-0.000788418
-0.00619574
0.00278651
-0.00121647
-0.00636536
0.00292955
-0.00140765
0.00640338
-0.0062073
0.00263619
-0.0013086
0.0020318
0.000361289
-0.00460861
0.00189717
7.72015e-05
-0.00500529
0.0021025
-0.000236502
-0.00459425
0.00201761
-0.00110948
-0.00514575
0.00211067
-0.00138808
-0.00576023
0.00223503
-0.00141513
0.00620569
-0.00612695
0.00204306
-0.00136115
0.00149363
0.000421087
-0.00438147
0.0016394
0.000480261
-0.00470133
0.0017208
-0.000342005
-0.00408322
0.00177442
-0.000753264
-0.00368968
0.00178922
-0.000993938
-0.00440058
0.00166232
-0.00153552
-0.00491116
0.00162567
-0.00148579
0.00642547
-0.00626949
0.00144453
-0.00140337
0.00122898
0.000385124
-0.0034161
0.000782934
6.63589e-05
-0.00341096
0.00113588
4.68386e-05
-0.00269756
0.00119215
-0.000595211
-0.00237161
0.00119726
-0.000558566
-0.00292988
0.00119154
-0.00121561
-0.00392054
0.00128324
-0.00144044
-0.0034524
0.00138451
-0.00137068
0.00492644
-0.00475236
0.00114802
-0.00128385
0.000703515
0.000578507
-0.00191225
0.000355215
0.000417843
-0.00134736
0.000410642
0.000234015
-0.000648073
0.000460606
-0.000433288
-0.00022133
0.000626059
-0.00063174
-0.00110551
0.000711028
-0.0009169
-0.00163606
0.000623642
-0.00101545
-0.00430558
0.000533819
-0.00149587
-0.00296832
0.000781268
-0.00125304
0.00445021
-0.00422868
0.000751053
-0.000923896
0.000327211
0.000776052
-0.000893432
3.96552e-05
0.000682876
9.96112e-05
0.000109565
0.000289509
0.0006826
0.000134158
-7.60613e-05
0.00128641
0.000246695
-0.000415158
0.000818323
0.000355362
-0.000682852
0.000192386
0.000441991
-0.000948325
-8.78225e-05
0.000475531
-0.00109977
-0.00372304
0.000406483
-0.00111874
-0.00285255
0.000359571
-0.000936899
0.00327536
-0.00303574
0.000389332
-0.000590252
0.000179426
0.00073826
-0.000271504
-3.29267e-05
0.000762769
0.0011596
5.93299e-06
0.000532474
0.0020585
2.71971e-05
0.000276152
0.00292722
3.17674e-05
-3.81114e-05
0.0029499
0.000106463
-0.000391211
0.0018703
0.000217065
-0.000707225
0.00114933
0.000233336
-0.000718664
-0.000316828
0.000106158
-0.000861456
-0.00130435
0.000208892
-0.000752017
-0.00251956
0.000185524
-0.000559201
0.00307305
-0.00283587
0.0001526
-0.000321558
-3.28811e-05
0.000482455
-0.000222847
-3.0899e-05
0.000549719
0.000821831
-1.26134e-06
0.000389862
0.00299867
6.47496e-06
0.000278396
0.00357269
-2.68475e-05
0.00010564
0.00340473
-3.50379e-05
-6.08529e-05
0.00316582
-5.7081e-06
-0.000365891
0.00259554
1.47867e-05
-0.000551153
0.00104472
2.5385e-05
-0.000515377
-0.000612093
-3.47298e-05
-0.000482061
-0.00113364
-4.34644e-05
-0.000408435
-0.00233251
-8.29408e-06
-0.000285756
0.00284172
-0.00269457
-3.38695e-05
-0.000144878
-4.34529e-05
0.000215708
0.000792149
-1.25148e-05
0.000234694
0.00149259
-1.84954e-05
0.000190092
0.00312814
-1.91153e-05
0.000151312
0.00358292
-3.10772e-05
8.06445e-05
0.00358938
-4.17313e-05
1.46442e-05
0.00398034
-4.10622e-05
-0.000119933
0.00341227
-3.30811e-05
-0.00023744
0.00253428
-2.64272e-05
-0.000244459
0.000345324
-2.67157e-05
-0.000236265
-0.000449669
-2.35554e-05
-0.000179084
-0.000979671
-3.11615e-05
-0.000179241
-0.00157724
-4.85165e-05
-0.000141579
0.00127513
-0.00113845
-3.89367e-05
-0.000964975
0.00534883
-0.00538546
0.00412416
-0.000882126
0.00383696
-0.000927801
-0.00582108
0.00435483
-0.000913882
0.00570008
-0.0057375
0.00393488
-0.000737344
0.00362631
-0.000695262
-0.00640366
0.00409305
-0.000994233
-0.00626204
0.00407545
-0.000894252
0.00657243
-0.00641731
0.00361864
-0.0010021
0.00329674
-0.000688761
-0.00661631
0.00396943
-0.00107957
-0.00719512
0.00384716
-0.000970058
-0.00663187
0.0037957
-0.00127807
0.00629778
-0.00623751
0.00326368
-0.00125514
0.00311537
-0.000499172
-0.00639378
0.00337999
-0.00126982
-0.00670155
0.00335133
-0.00107662
-0.00699855
0.00358446
-0.00129912
-0.00653933
0.00353122
-0.00133517
0.00647402
-0.00642746
0.00302427
-0.00121419
0.00261489
0.000407731
-0.00510788
0.00224669
-0.000219064
-0.00514378
0.00257396
-0.000530873
-0.00584864
0.00267136
-0.00118697
-0.00640492
0.00290356
-0.0016341
-0.00602152
0.00298979
-0.00134702
0.00649521
-0.00639636
0.00246924
-0.0015096
0.00200897
0.000608262
-0.00476365
0.00202339
2.32543e-06
-0.00475942
0.00212923
-5.37913e-05
-0.00489622
0.00211625
-0.000935186
-0.0049788
0.00203259
-0.00129428
-0.00556123
0.00221202
-0.00166086
-0.00605185
0.00228527
-0.00154679
0.00626377
-0.00615796
0.00199826
-0.00152997
0.00144903
0.000262059
-0.00443373
0.00152073
0.000146555
-0.00489726
0.00175514
0.000234566
-0.00435767
0.00180752
-0.000726573
-0.00348716
0.00170326
-0.000817449
-0.00411181
0.00175933
-0.001384
-0.00475022
0.00166977
-0.00156101
-0.00610789
0.00158465
-0.00153935
0.00609655
-0.0059185
0.00143515
-0.00139127
0.00116237
0.000349979
-0.0033792
0.000667078
8.62385e-05
-0.00330608
0.00100965
6.45399e-05
-0.00250298
0.00111077
-0.000631175
-0.0021686
0.00118702
-0.000959289
-0.0025691
0.00116403
-0.00122818
-0.00366343
0.0012457
-0.00132563
-0.00327412
0.00141515
-0.00154866
-0.00459894
0.00128387
-0.00140081
0.00488293
-0.00473496
0.00114781
-0.00118102
0.000716205
0.000560676
-0.00184892
0.000372605
0.000520997
-0.00122569
0.000395419
0.000230767
-0.000583462
0.000404773
-0.000332927
-8.46855e-05
0.000580827
-0.000613563
-0.000956974
0.000675928
-0.000831
-0.00138017
0.000603287
-0.000963369
-0.00423215
0.000565254
-0.00146618
-0.00286689
0.000798799
-0.00140222
-0.00398818
0.000824244
-0.00107279
0.00509615
-0.00486256
0.000653352
-0.0007919
0.000385728
0.000786272
-0.00100905
5.29725e-05
0.000782214
2.81727e-05
9.16492e-05
0.000378447
0.000834977
0.000111214
2.22306e-05
0.00143902
0.000235475
-0.000315131
0.00104816
0.000293874
-0.000627109
0.000339449
0.000444196
-0.000882557
7.24832e-05
0.000457017
-0.000999525
-0.00338517
0.000418522
-0.00114631
-0.00254202
0.000380819
-0.00102353
-0.00282669
0.000422036
-0.000732829
0.00377582
-0.00359064
0.000377783
-0.00050417
0.000159198
0.000740068
-0.00053574
-3.21869e-05
0.000805892
0.000848371
2.21273e-05
0.00061512
0.00183521
3.96614e-06
0.000329857
0.00289513
7.83381e-06
1.93076e-05
0.00298586
8.21368e-05
-0.000353275
0.00201479
0.000254393
-0.000653876
0.0014265
0.000227884
-0.000694644
-7.33071e-05
0.000133307
-0.000898965
-0.00101025
0.00019564
-0.000798572
-0.00216369
0.000169527
-0.000644848
-0.0025758
0.000161866
-0.00040459
0.00330761
-0.00317129
0.000135115
-0.00025955
-4.30203e-05
0.000498863
-0.000503491
-3.99246e-05
0.000564362
0.000480141
-1.88772e-05
0.000430256
0.00276593
-8.67979e-06
0.000325125
0.00342551
-2.01557e-05
0.000131386
0.00336278
-3.56464e-05
-6.25962e-05
0.0032235
-1.54749e-05
-0.000288661
0.00275296
5.60108e-06
-0.000518265
0.00132538
1.49517e-05
-0.000499473
-0.000299489
-3.22055e-05
-0.000479125
-0.000887083
-3.84271e-05
-0.000430994
-0.00211762
-6.44425e-06
-0.000346481
-0.00249197
-4.36519e-05
-0.000254635
0.00281897
-0.00269075
-4.90357e-05
-0.000120974
-3.96223e-05
0.000215676
0.000570551
-1.56428e-05
0.00023745
0.00126241
-1.97874e-05
0.000205371
0.00292508
-2.08036e-05
0.000162756
0.00343296
-3.1911e-05
9.37695e-05
0.00350597
-4.14404e-05
2.43887e-05
0.0039547
-4.04783e-05
-0.000104682
0.0035088
-3.29151e-05
-0.000223136
0.00275109
-2.67589e-05
-0.000239767
0.000584892
-2.62289e-05
-0.000234172
-0.000218226
-2.39867e-05
-0.00018532
-0.000786196
-3.1711e-05
-0.000189031
-0.00137212
-4.72486e-05
-0.000154258
-0.000990247
-4.24653e-05
-7.85384e-05
0.00265774
-0.00259134
-2.6802e-05
-0.000867959
0.00497486
-0.00491447
0.00441251
-0.00101628
0.00405767
-0.0010527
-0.00539648
0.00459497
-0.00088454
0.0053758
-0.00534043
0.00405946
-0.000848133
0.00391559
-0.000736241
-0.00588608
0.0044567
-0.00107863
-0.00566113
0.00436287
-0.00103275
0.00554334
-0.00545043
0.00398046
-0.000774583
0.00355379
-0.000643945
-0.00641248
0.00413635
-0.00105743
-0.00627033
0.0040792
-0.00107014
-0.00626438
0.00402259
-0.000911793
0.00586778
-0.00614978
0.00353437
-0.00125487
0.0031825
-0.000652852
-0.00653674
0.00390446
-0.00105571
-0.00728804
0.00384824
-0.000978155
-0.00679762
0.00391444
-0.00123511
-0.00621493
0.00370911
-0.0011682
0.00622294
-0.00615695
0.00303072
-0.0011696
0.0030181
-8.65391e-05
-0.00614103
0.00309498
-0.000638595
-0.00630826
0.00340623
-0.000986462
-0.00677547
0.00358383
-0.00110366
-0.00661231
0.00357413
-0.00143772
-0.00646566
0.00337304
-0.00122033
0.0063003
-0.00624491
0.00284219
-0.00137044
0.00245071
0.000770128
-0.00528301
0.00217148
-0.000443454
-0.00493753
0.00248622
-0.000485283
-0.00547034
0.00262715
-0.0011328
-0.00633545
0.0027995
-0.00148127
-0.0059114
0.00298043
-0.00153771
-0.00632387
0.00279416
-0.0014375
0.00633906
-0.00633572
0.00235661
-0.00154424
0.00199417
0.000409722
-0.0048991
0.00203556
0.000110267
-0.00490144
0.0022017
0.000117191
-0.00485185
0.00220223
-0.000762586
-0.00484232
0.00201578
-0.00123558
-0.00524545
0.00213493
-0.00161133
-0.00593958
0.00232708
-0.00180141
-0.00588718
0.00225488
-0.00136764
0.00553453
-0.00558139
0.00187341
-0.0014918
0.00143435
0.00022272
-0.00446946
0.00132216
0.000103925
-0.00495881
0.00156459
-0.000166567
-0.00425035
0.00187892
-0.000658045
-0.00340498
0.00175221
-0.00104313
-0.00399889
0.00167418
-0.00138431
-0.00450058
0.00166583
-0.00147748
-0.00585752
0.00157125
-0.00165888
-0.00585467
0.00163103
-0.00123607
0.00604698
-0.0061071
0.00133051
-0.00124372
0.000972258
0.000341651
-0.00348182
0.00058563
0.000255198
-0.00312541
0.000752212
0.000535748
-0.00279805
0.000999744
-0.000675765
-0.00188633
0.00117134
-0.000714045
-0.00244718
0.00116558
-0.00108874
-0.00341819
0.00117653
-0.00119366
-0.00318161
0.00138348
-0.00161391
-0.00432209
0.00128603
-0.00148901
-0.00458213
0.00121784
-0.00113211
0.00512309
-0.00500981
0.00109386
-0.000982465
0.000592898
0.000644844
-0.00187628
0.000372139
0.000633002
-0.00109976
0.000395883
0.000534312
-0.000710043
0.000366136
-0.000199569
1.28149e-05
0.000529072
-0.000586907
-0.000741656
0.000637286
-0.000785463
-0.00121876
0.000672869
-0.00103174
-0.00395766
0.000477984
-0.00139445
-0.0026753
0.000768599
-0.00140589
-0.00377858
0.000848772
-0.00120381
-0.00455022
0.000692186
-0.000833608
0.00527112
-0.00514548
0.000628487
-0.000689976
0.00038443
0.000912384
-0.00126849
7.7545e-05
0.000895876
-0.000105394
9.65549e-05
0.000513293
0.000920495
0.000107958
7.51558e-05
0.00158964
0.000215296
-0.000213965
0.00122798
0.00028893
-0.000664495
0.000493735
0.000450809
-0.000817423
0.000217547
0.000462681
-0.00098079
-0.0030912
0.000449197
-0.00117957
-0.00222857
0.000385671
-0.0011127
-0.00258069
0.000448954
-0.000868553
-0.00336406
0.000419157
-0.000526124
0.0038882
-0.0037659
0.000377016
-0.000370953
0.000148439
0.000749989
-0.000796032
-2.22709e-05
0.000840176
0.000521336
1.90336e-05
0.000668612
0.00156895
5.00306e-05
0.000411586
0.00282952
-1.68838e-05
6.90414e-05
0.00299868
5.73654e-05
-0.000332504
0.00213276
0.000234072
-0.000427109
0.00154418
0.000275162
-0.000634274
0.000119352
0.000151234
-0.000844481
-0.000742962
0.000211031
-0.000805337
-0.00182236
0.000180526
-0.00069423
-0.00230521
0.000162171
-0.000501178
-0.00300513
0.000150405
-0.000344871
0.00354905
-0.00343785
0.000114147
-0.000189783
-5.13781e-05
0.000503657
-0.000785556
-4.30491e-05
0.000565296
0.00013837
-2.59995e-05
0.000456569
0.00251465
-1.87993e-05
0.00035676
0.00325862
-3.57971e-05
0.000160747
0.00329997
-2.4321e-05
-3.3022e-05
0.00326055
-1.52941e-05
-0.000250421
0.00288927
-6.04601e-06
-0.000484692
0.00159223
3.02247e-07
-0.000484911
-4.75298e-07
-3.89176e-05
-0.000490098
-0.000633036
-3.03268e-05
-0.000451333
-0.00189323
3.19973e-06
-0.000375823
-0.00226407
-4.75561e-05
-0.000285247
-0.00255193
-5.14763e-05
-0.000200612
0.00392375
-0.00388925
3.85415e-05
-6.76593e-05
-2.8846e-05
0.000213114
0.000353416
-1.93399e-05
0.000237891
0.00103018
-2.12969e-05
0.000219686
0.00270672
-2.11151e-05
0.000176988
0.00326748
-3.23117e-05
0.000105037
0.00341055
-4.1525e-05
4.41693e-05
0.00390997
-4.08812e-05
-9.05768e-05
0.00359145
-3.25464e-05
-0.000208555
0.00295317
-2.64399e-05
-0.000233965
0.000818399
-2.63016e-05
-0.000232217
1.26802e-05
-2.49175e-05
-0.000189496
-0.000589604
-3.10829e-05
-0.000195621
-0.00116026
-4.79587e-05
-0.000162667
-0.000833114
-4.17142e-05
-0.00010097
-0.00250554
-2.72978e-05
-9.14606e-05
0.00235446
-0.00226572
-2.40785e-05
-0.000846269
0.00528993
-0.00521589
0.00441581
-0.000848911
0.00431201
-0.000834955
-0.00507608
0.00497165
-0.000809412
0.00520998
-0.00505627
0.00418368
-0.000849307
0.00402864
-0.000971782
-0.00525957
0.00465339
-0.001048
-0.00532948
0.00455339
-0.00103917
0.00535852
-0.0053158
0.00402315
-0.000938654
0.00393358
-0.000625011
-0.00598407
0.00448018
-0.00100644
-0.00570261
0.00444718
-0.00116079
-0.00537591
0.00437901
-0.000750408
0.00564205
-0.00567627
0.0038533
-0.00102021
0.00354272
-0.000635894
-0.00644589
0.0041857
-0.00100067
-0.00628032
0.0040913
-0.00109653
-0.0061527
0.00408589
-0.00100801
-0.00627562
0.00392133
-0.000881122
0.00579918
-0.00581672
0.00326485
-0.00108839
0.002961
-0.000605512
-0.00623963
0.00399529
-0.000928081
-0.00695732
0.00386323
-0.00102047
-0.0068998
0.00398443
-0.0011325
-0.00610182
0.00383017
-0.00134513
-0.00599593
0.00345551
-0.00109474
0.00631219
-0.00626463
0.00285757
-0.00111751