/*--------------------------------*- C++ -*----------------------------------*\
  =========                 |
  \\      /  F ield         | OpenFOAM: The Open Source CFD Toolbox
   \\    /   O peration     | Website:  https://openfoam.org
    \\  /    A nd           | Version:  7
     \\/     M anipulation  |
\*---------------------------------------------------------------------------*/
FoamFile
{
    version     2.0;
    format      ascii;
    class       volVectorField;
    location    "3";
    object      U;
}
// * * * * * * * * * * * * * * * * * * * * * * * * * * * * * * * * * * * * * //

dimensions      [0 1 -1 0 0 0 0];

internalField   nonuniform List<vector> 
18720
(
(0.776547 -1.52936 0.081614)
(1.01548 -1.24848 -0.150356)
(0.779184 -1.54119 0.0810717)
(0.78527 -1.49385 0.0791483)
(0.621959 -1.76133 -0.250227)
(0.888824 -0.682861 -0.0201071)
(0.965819 -1.25387 -0.197555)
(1.07855 -1.22043 -0.118935)
(0.9372 -1.66973 -0.052288)
(0.619005 -1.75639 -0.242373)
(0.803979 -1.4869 0.0836018)
(0.662335 -1.74458 -0.283722)
(0.0958248 -2.16222 -0.120058)
(0.340009 0.38845 0.900091)
(0.744196 -0.596326 0.0818277)
(1.00595 -0.765795 -0.0689399)
(0.239658 -1.16841 -0.369533)
(0.865173 -1.66743 -0.0145247)
(1.10301 -1.20995 -0.13193)
(1.0193 -1.66479 -0.101096)
(-0.0934335 -1.92631 0.00339681)
(0.147912 -2.12769 -0.152819)
(0.807833 -1.49787 0.0852934)
(0.663006 -1.74148 -0.276225)
(0.15144 -2.15103 -0.154837)
(-0.0708518 -2.1303 -0.409044)
(0.286644 1.40147 1.30024)
(0.164677 0.373311 0.851365)
(0.564045 0.377649 0.826719)
(0.130241 0.175033 0.832216)
(0.130143 -1.16956 -0.300917)
(1.12482 -0.821664 -0.129294)
(0.394661 -1.23477 -0.416859)
(-0.369713 -1.36716 0.191423)
(0.0913259 -1.88807 0.17834)
(1.13631 -1.1922 -0.0814123)
(1.1164 -1.67692 -0.0943127)
(0.0679217 -1.92538 0.188895)
(0.014597 -1.89206 0.309071)
(0.000185775 -2.09931 -0.456362)
(0.81428 -1.48116 0.08147)
(0.678081 -1.72466 -0.324354)
(0.143968 -2.12292 -0.158225)
(-0.089867 -2.1184 -0.403308)
(-0.344585 -1.87901 -0.788939)
(-0.278118 1.45202 2.05656)
(-0.0417703 1.33766 1.34665)
(0.307255 1.34215 1.31543)
(-0.509478 1.12937 1.63442)
(0.0100039 0.231875 0.949474)
(0.917191 0.241234 0.649037)
(0.295268 0.0657859 0.687735)
(-0.291409 0.0908615 0.749107)
(-0.432897 -1.38638 0.203227)
(1.23104 -0.895958 -0.172004)
(0.561238 -1.29429 -0.45377)
(-0.219249 -1.34285 0.196047)
(-0.401759 -1.36841 0.0751147)
(-0.042876 -1.83604 -0.121347)
(1.16833 -1.16982 -0.0350491)
(1.1803 -1.70047 -0.0858263)
(0.103462 -1.94027 0.186729)
(-0.0728024 -1.93729 -0.0265117)
(-0.22135 -1.62597 -0.183265)
(-0.347714 -1.84213 -0.789819)
(0.819578 -1.44401 0.0879106)
(0.671179 -1.71724 -0.319062)
(0.170941 -2.15177 -0.173268)
(-0.0192129 -2.11244 -0.440341)
(-0.323481 -1.89917 -0.79664)
(-0.698581 -1.88565 -1.04904)
(-0.343181 1.82554 2.58603)
(-0.381351 1.49273 2.06147)
(-0.170409 1.53672 2.01322)
(-0.315538 1.5812 2.41129)
(-0.615064 1.05608 1.80161)
(0.551896 1.31153 1.21613)
(-0.352084 1.12934 1.47732)
(-0.860232 0.542211 1.98478)
(-0.50431 0.122562 0.885749)
(1.17276 0.122259 0.559147)
(0.503849 -0.0756227 0.505982)
(-0.163354 0.0474537 0.630145)
(-0.715958 -0.116557 1.25021)
(-0.539828 -1.30706 0.232995)
(1.34415 -0.970733 -0.198277)
(0.751168 -1.32767 -0.486078)
(-0.145901 -1.3624 0.192291)
(-0.297618 -1.3346 0.0602757)
(-0.782448 -1.11589 0.181884)
(-0.141952 -1.63544 -0.184859)
(1.1936 -1.15033 -0.0319643)
(1.24321 -1.69142 -0.0890968)
(0.139816 -1.98335 0.224922)
(0.0302757 -1.93819 -0.192372)
(-0.19966 -1.67604 -0.212703)
(-0.590869 -1.30965 -0.281932)
(-0.68376 -1.89162 -1.05889)
(0.81433 -1.43207 0.0748428)
(0.691879 -1.6936 -0.339057)
(0.181508 -2.17513 -0.194703)
(-0.0680688 -2.12236 -0.434236)
(-0.305056 -1.87489 -0.799579)
(-0.70697 -1.88376 -1.06734)
(-1.36907 -1.29977 -0.719765)
(-0.61372 2.54389 2.66468)
(-0.816116 1.73829 2.66237)
(-0.0707619 1.78421 2.46847)
(-0.868472 1.86114 2.61673)
(-0.440601 1.5494 2.50421)
(0.203024 1.6295 1.94709)
(-0.148372 1.55008 2.43626)
(0.191092 1.38442 2.75178)
(-1.14438 0.452189 2.11293)
(0.798525 1.24348 1.12183)
(0.148988 1.01208 1.3791)
(-0.589914 0.584268 1.82982)
(-1.13601 0.371699 1.89155)
(-0.863886 -0.0789951 1.38716)
(1.35448 -0.0137276 0.454395)
(0.685289 -0.178104 0.396327)
(-0.0458248 0.00546092 0.526889)
(-0.616355 -0.2202 0.965312)
(-1.24912 0.155478 1.05663)
(-0.573093 -1.13635 0.318695)
(1.48507 -1.01615 -0.180857)
(0.945138 -1.38858 -0.452149)
(-0.0599498 -1.36643 0.199599)
(-0.237318 -1.37453 0.0223031)
(-0.437062 -1.26807 0.323376)
(-1.18759 -0.568801 0.653124)
(-0.582785 -1.32371 -0.360171)
(1.22871 -1.1113 -0.0686025)
(1.28284 -1.68688 -0.0856973)
(0.209843 -2.0192 0.209691)
(-0.0318087 -1.98155 -0.090536)
(-0.207226 -1.6823 -0.225088)
(-0.655785 -1.33015 0.021528)
(-1.61164 -0.733071 0.0181473)
(-1.36057 -1.29845 -0.732833)
(0.819379 -1.43657 0.0685834)
(0.704012 -1.69216 -0.357381)
(0.130506 -2.14384 -0.142087)
(-0.0326825 -2.15733 -0.44828)
(-0.298098 -1.89059 -0.801248)
(-0.760684 -1.90051 -1.01439)
(-1.36607 -1.28094 -0.712974)
(-1.90751 -0.667666 -0.695542)
(-0.934831 2.88873 3.18289)
(-0.202085 2.60618 2.97512)
(-0.00867855 2.31914 2.60386)
(-0.556093 2.78026 2.71299)
(-1.19041 1.92617 2.63242)
(-0.253532 1.80659 2.35725)
(-0.430901 1.86685 2.49657)
(-0.874982 1.90697 2.42094)
(-0.920597 1.50899 2.62751)
(0.540429 1.35045 2.12339)
(-0.139512 1.69823 2.47337)
(-0.418224 1.30962 2.52511)
(-0.341733 1.50536 2.29156)
(-1.2489 0.354073 1.97255)
(1.09092 1.09578 1.00342)
(0.470682 0.90992 1.25534)
(-0.548175 0.602347 1.57208)
(-1.08612 0.483484 1.77731)
(-1.2538 0.801067 1.54929)
(-1.32581 0.162437 1.06565)
(1.52508 -0.138583 0.338396)
(0.84629 -0.306824 0.32153)
(0.118117 -0.0889903 0.442983)
(-0.426707 -0.274264 0.84687)
(-1.20092 0.0742954 0.997161)
(-1.43145 0.266207 1.71035)
(-1.23933 -0.55043 0.804802)
(1.57385 -1.0969 -0.120974)
(1.09913 -1.44913 -0.453594)
(0.115208 -1.38808 0.188213)
(-0.127791 -1.46923 0.0436313)
(-0.612977 -1.21717 0.202664)
(-1.13044 -0.573006 0.63072)
(-1.75963 0.102002 1.43433)
(-1.62246 -0.733082 0.0070233)
(1.26887 -1.10828 -0.0636242)
(1.32486 -1.68043 -0.075369)
(0.257234 -2.03996 0.158437)
(0.00289616 -2.0052 -0.249978)
(-0.232973 -1.69643 -0.262795)
(-0.730817 -1.3657 0.0664546)
(-1.57901 -0.751636 -0.0100711)
(-2.39375 0.099433 0.198842)
(-1.89671 -0.66198 -0.711995)
(0.848837 -1.43373 0.0668297)
(0.713373 -1.67993 -0.377293)
(0.167212 -2.11021 -0.212033)
(-0.026246 -2.1607 -0.46932)
(-0.312619 -1.90149 -0.808062)
(-0.751015 -1.8644 -0.998209)
(-1.36952 -1.29953 -0.70987)
(-1.92045 -0.682676 -0.683662)
(-1.80989 0.297141 -0.584647)
(-0.815849 3.46311 3.42592)
(-1.07733 2.99405 3.21994)
(-0.423706 2.87508 3.01638)
(-0.700852 3.30915 3.26339)
(-0.590745 2.45844 3.20593)
(0.58312 2.32837 2.38941)
(-0.167658 2.71755 2.63893)
(-0.695592 2.61281 2.7447)
(-0.71694 2.21908 2.5081)
(0.527593 1.83464 2.30624)
(0.438478 1.79165 2.43475)
(-0.336651 1.89176 2.41121)
(-1.03758 1.95742 2.35526)
(-1.01 1.606 2.03093)
(0.109493 1.79919 1.98403)
(0.0873033 1.77423 2.48422)
(-0.407406 1.41076 2.50656)
(-0.468231 1.48126 2.19742)
(-0.794233 1.5962 2.16242)
(-1.38459 0.797131 1.51802)
(1.5559 0.70693 0.685296)
(0.850981 0.757076 1.11027)
(-0.390894 0.55551 1.49125)
(-0.780372 0.445823 1.7696)
(-1.08604 0.782181 1.59086)
(-1.59789 1.03487 1.25263)
(-1.34932 0.327669 1.93517)
(1.73137 -0.280796 0.119524)
(0.980457 -0.421956 0.263687)
(0.275566 -0.187128 0.389699)
(-0.29013 -0.346871 0.751963)
(-1.0328 0.100708 1.07663)
(-1.41567 0.256474 1.57228)
(-2.2401 0.543248 1.27631)
(-1.82477 0.16343 1.36456)
(1.62374 -1.02554 -0.108775)
(1.18948 -1.51817 -0.43286)
(0.297786 -1.44921 0.192478)
(-0.0961742 -1.52566 -0.17978)
(-0.674032 -1.23697 0.226449)
(-1.10723 -0.572015 0.612476)
(-1.72773 0.0559289 1.46554)
(-2.3739 0.544416 0.247242)
(-2.45999 0.0575348 0.255244)
(1.33979 -1.08083 -0.019586)
(1.35867 -1.67136 -0.0583923)
(0.27217 -2.04893 0.163565)
(-0.0262443 -2.04093 -0.120909)
(-0.223903 -1.75823 -0.259206)
(-0.681073 -1.38359 -0.166116)
(-1.5747 -0.770908 -0.0229052)
(-2.36543 0.0870016 0.240111)
(-1.75689 0.73199 0.373209)
(-1.82237 0.299927 -0.608074)
(0.862285 -1.42911 0.0627932)
(0.731616 -1.66079 -0.411432)
(0.162505 -2.14703 -0.199381)
(-0.0360425 -2.14015 -0.477535)
(-0.306212 -1.88441 -0.811767)
(-0.784491 -1.85183 -0.991206)
(-1.38492 -1.29483 -0.715594)
(-1.94723 -0.685407 -0.641246)
(-1.81061 0.28576 -0.628349)
(-1.68804 0.508219 -0.51031)
(-0.753724 3.48815 3.62812)
(-1.2044 3.35571 3.38764)
(-0.263432 3.36817 3.56086)
(-1.0883 3.50947 3.32392)
(-1.13447 3.31958 3.32503)
(-0.0388793 2.78489 2.8003)
(-0.598335 3.13361 3.15251)
(-0.8703 3.26946 3.34783)
(-1.04825 2.66384 2.72722)
(0.892219 2.27736 2.29831)
(0.133455 2.43443 2.57355)
(-0.416857 2.63533 2.66431)
(-1.02168 2.73648 2.71418)
(-0.918559 2.16952 2.33406)
(1.2296 1.74244 2.25636)
(0.643043 1.76497 2.40491)
(0.168761 1.91062 2.43786)
(-0.727571 1.97003 2.4159)
(-1.31434 2.30749 2.3679)
(-1.18321 1.63673 2.04204)
(0.948402 1.48712 1.79178)
(0.361108 1.67753 2.44573)
(-0.401266 1.56829 2.50791)
(-0.530069 1.46454 2.19264)
(-0.852526 1.54716 2.09554)
(-1.13499 2.13375 2.24182)
(-1.69704 0.907635 1.37613)
(1.39792 0.648792 0.745564)
(1.02592 0.558277 1.05557)
(-0.34483 0.401583 1.36802)
(-0.636124 0.372815 1.65443)
(-0.974207 0.807111 1.56522)
(-1.45597 1.19782 1.32671)
(-1.49309 2.06205 1.55374)
(-2.33895 0.586813 1.15728)
(1.87981 -0.528624 -0.0929204)
(1.10986 -0.533268 0.243464)
(0.387568 -0.316856 0.376192)
(-0.219452 -0.379708 0.660664)
(-0.937558 0.000595875 0.947546)
(-1.26059 0.235906 1.55365)
(-2.30249 0.47177 1.19776)
(-1.58125 2.04174 1.40274)
(-2.47735 0.414607 0.248452)
(1.54994 -1.16577 -0.118628)
(1.29024 -1.55614 -0.421162)
(0.484498 -1.52107 0.198313)
(0.0930696 -1.58778 -0.0158527)
(-0.566474 -1.34345 0.207264)
(-1.0691 -0.614919 0.551029)
(-1.70587 0.0101072 1.41133)
(-2.32372 0.526684 0.315658)
(-2.01532 0.907362 0.652193)
(-1.79275 0.744936 0.306679)
(1.36917 -1.09391 -0.0205745)
(1.39081 -1.65965 -0.0841264)
(0.263927 -2.04348 0.133005)
(0.0572909 -2.07182 -0.0800241)
(-0.215617 -1.75167 -0.252611)
(-0.677267 -1.3874 -0.0934064)
(-1.56742 -0.789745 -0.021983)
(-2.3654 0.0716831 0.233119)
(-1.76091 0.725631 0.426956)
(-1.7475 0.80844 -0.452065)
(-1.69205 0.493021 -0.499891)
(0.858474 -1.38691 0.0642708)
(0.745996 -1.65831 -0.437465)
(0.138193 -2.15423 -0.194245)
(-0.0506685 -2.12903 -0.481697)
(-0.324438 -1.88765 -0.811902)
(-0.764417 -1.87182 -0.990044)
(-1.37198 -1.27013 -0.721974)
(-1.94497 -0.744541 -0.725478)
(-1.80735 0.300262 -0.577768)
(-1.69722 0.521715 -0.520403)
(-1.25976 0.623057 -0.46935)
(-0.602559 3.07767 3.39807)
(-0.888812 3.35556 3.57369)
(-0.640045 3.54474 3.65594)
(-0.75681 3.172 3.63705)
(-0.98868 3.55602 3.28513)
(0.29039 3.38031 3.54382)
(-1.37736 3.58554 3.23792)
(-0.795104 3.35177 3.53863)
(-1.23614 3.17899 3.41838)
(0.46217 2.60822 2.73448)
(-0.239972 2.86956 3.08301)
(-0.686988 3.18976 3.34262)
(-1.09818 3.1924 3.36639)
(-1.32094 2.73693 2.61597)
(0.804773 2.1454 2.34964)
(0.460285 2.31591 2.6025)
(-0.366618 2.37765 2.77205)
(-0.604722 2.86139 2.65491)
(-1.28883 2.83903 2.90026)
(-1.20614 2.44439 2.48827)
(0.967986 1.8729 2.37674)
(0.189916 2.01848 2.6299)
(0.64327 1.88944 2.50417)
(-0.364307 1.88204 2.65344)
(-1.10697 2.3556 2.38637)
(-1.73917 2.53959 2.58389)
(-1.44115 2.16204 2.13763)
(0.930932 1.46287 1.44945)
(0.334765 1.7322 2.3197)
(0.526815 1.24369 2.59078)
(-0.522647 1.45175 2.22681)
(-0.7175 1.53005 2.20249)
(-1.14512 2.10143 2.14458)
(-1.89891 1.81373 2.6084)
(-1.68313 2.04863 1.60112)
(1.48932 0.514712 0.666377)
(1.05736 0.407075 1.04637)
(-0.0748329 0.42332 1.22005)
(-0.656697 0.406322 1.45615)
(-0.967267 0.841281 1.55798)
(-1.34718 1.06976 1.60896)
(-1.37413 2.09654 1.40676)
(-2.54906 1.56876 1.5609)
(-1.31996 2.35594 1.2272)
(1.93183 -0.496868 -0.0557871)
(1.21991 -0.658308 0.242762)
(0.536488 -0.477757 0.375743)
(-0.103302 -0.515034 0.55935)
(-0.778846 -0.0864603 0.974958)
(-1.26679 0.237132 1.39249)
(-2.18356 0.565739 1.16151)
(-1.15908 2.21762 1.37834)
(-2.15444 1.55701 0.99463)
(-2.06924 0.861061 0.574247)
(1.63324 -1.0272 -0.0552735)
(1.36686 -1.62419 -0.370181)
(0.67131 -1.60857 0.265958)
(0.176051 -1.65634 -0.277245)
(-0.289688 -1.40474 0.305971)
(-1.00991 -0.604209 0.533362)
(-1.59052 -0.0636 1.57331)
(-2.30142 0.563723 0.224037)
(-1.91555 0.915507 0.822695)
(-1.44527 1.43288 1.01489)
(-1.76577 0.797293 -0.453382)
(1.44749 -1.11776 -0.0400352)
(1.42797 -1.65456 -0.104738)
(0.2512 -2.03258 0.138734)
(0.105964 -2.11744 0.0480266)
(-0.200585 -1.74583 -0.205184)
(-0.673717 -1.40715 -0.0844847)
(-1.5267 -0.824926 -0.00798831)
(-2.28814 0.0874023 0.205607)
(-1.77582 0.685164 0.339524)
(-1.75119 0.798876 -0.487332)
(-1.32658 1.21498 -0.231674)
(-1.22113 0.662368 -0.512141)
(0.834484 -1.37132 0.0405551)
(0.761318 -1.65225 -0.463246)
(0.213897 -2.13048 -0.249439)
(-0.0692773 -2.13422 -0.499426)
(-0.326359 -1.89895 -0.818568)
(-0.792686 -1.8521 -0.964123)
(-1.38452 -1.27926 -0.719938)
(-2.00955 -0.698742 -0.569239)
(-1.81624 0.305538 -0.548352)
(-1.69035 0.528156 -0.542254)
(-1.26464 0.624104 -0.456395)
(-1.31319 0.835582 -0.881652)
(-0.728924 2.83848 3.30545)
(-0.786362 3.09072 3.36361)
(-0.397154 3.08819 3.48601)
(-0.715402 2.99663 3.4716)
(-1.12035 3.12068 3.56192)
(-0.310704 3.41843 3.73327)
(-0.483158 3.30782 3.72442)
(-0.806259 3.20743 3.49574)
(-0.950244 3.33024 3.51801)
(0.633097 3.14944 3.51431)
(-1.37941 3.63948 3.26387)
(-0.586868 3.42813 3.66011)
(-1.03538 3.19138 3.60511)
(-1.17596 3.14028 3.43019)
(0.762534 2.39463 2.6542)
(-0.0511175 2.66056 3.0312)
(-0.0320519 3.15704 3.29367)
(-0.965378 3.16343 3.38257)
(-1.39232 3.03921 3.45965)
(-1.66694 2.75206 2.89399)
(0.940103 2.05949 2.49348)
(1.0013 2.26779 2.67336)
(-0.0887007 2.32155 2.76483)
(-0.650774 2.58229 2.77676)
(-0.98227 2.94539 2.89033)
(-1.5684 2.95931 3.05858)
(-1.92025 2.53036 2.60459)
(1.19637 1.78472 2.43298)
(1.22991 1.9681 2.63012)
(-0.296889 2.09003 2.70256)
(-0.467212 1.92093 2.69375)
(-0.806531 2.36983 2.53715)
(-1.63459 2.50771 2.61051)
(-1.88896 3.00546 2.40898)
(-2.13203 1.86112 2.51691)
(1.34014 1.28071 1.03865)
(0.916993 1.51553 2.07612)
(0.202012 1.32937 2.36102)
(-0.333435 1.31879 2.29697)
(-0.647342 1.56431 2.23435)
(-1.17375 2.09957 2.06292)
(-1.80638 1.84806 2.60746)
(-1.93594 2.27958 2.47875)
(-2.63312 1.51818 1.54007)
(1.54535 0.267152 0.656346)
(1.1708 0.256884 0.970619)
(0.137993 0.247163 1.00288)
(-0.530111 0.329301 1.37884)
(-0.751097 0.764918 1.59779)
(-1.35624 1.09373 1.5878)
(-1.19447 2.36423 0.936929)
(-2.5735 1.58941 1.49925)
(-2.08233 2.06093 1.9801)
(-2.08805 1.56119 0.988245)
(1.8274 -0.677859 0.0270011)
(1.33833 -0.752048 0.288662)
(0.668868 -0.612532 0.392648)
(-0.041617 -0.631625 0.478585)
(-0.683165 -0.135751 0.927405)
(-1.21375 0.255376 1.30282)
(-2.07267 0.425234 1.48742)
(-1.36868 1.92879 1.49396)
(-2.1222 1.53415 0.981321)
(-2.12317 1.43877 1.14554)
(-1.40774 1.44734 1.00896)
(1.61288 -1.09351 0.00802106)
(1.47271 -1.65544 -0.330884)
(0.884586 -1.67479 0.353639)
(0.317274 -1.75244 -0.0365608)
(-0.367634 -1.43297 0.291063)
(-1.0131 -0.61245 0.469727)
(-1.64919 -0.146315 1.48075)
(-2.12293 0.610731 0.322153)
(-1.91613 0.858133 0.822523)
(-1.54212 1.34951 0.972306)
(-1.56272 1.37583 0.651624)
(-1.28245 1.22939 -0.378402)
(1.52846 -1.17456 -0.061436)
(1.48522 -1.65307 -0.158354)
(0.319302 -2.02033 0.181759)
(0.0794315 -2.12939 -0.197418)
(-0.211832 -1.77454 -0.314592)
(-0.611694 -1.47408 -0.0826242)
(-1.53339 -0.810447 0.0213786)
(-2.21082 0.075145 0.282974)
(-1.7971 0.660413 0.0498041)
(-1.74586 0.775503 -0.549671)
(-1.34178 1.21982 -0.0859567)
(-1.23919 1.3067 0.0104945)
(-1.30068 0.855913 -0.867042)
(0.840399 -1.36081 0.0133543)
(0.770611 -1.64201 -0.492593)
(0.24567 -2.1425 -0.245658)
(-0.0850273 -2.13532 -0.522784)
(-0.311946 -1.89386 -0.820589)
(-0.737446 -1.87456 -0.981439)
(-1.38635 -1.28682 -0.738638)
(-1.98329 -0.695398 -0.618764)
(-1.80592 0.305203 -0.507176)
(-1.69458 0.531348 -0.543782)
(-1.27014 0.617843 -0.45668)
(-1.3182 0.823758 -0.871604)
(-1.20266 0.521202 -1.14642)
(-0.583882 2.56404 3.28628)
(-0.83415 2.77969 3.25518)
(-0.46443 2.8199 3.37635)
(-0.728379 2.75533 3.33457)
(-0.746545 3.0243 3.4785)
(-0.150415 3.1383 3.53905)
(-0.507217 3.08777 3.43783)
(-0.628446 3.11808 3.41867)
(-1.34873 3.13902 3.36648)
(-0.0635633 3.27907 3.74497)
(-0.255943 3.52944 3.70282)
(-0.707674 3.2184 3.57151)
(-1.30273 2.98562 3.40401)
(-1.24129 3.22063 3.57723)
(0.46964 3.06768 3.28081)
(-0.539623 3.6202 3.49506)
(-0.575779 3.49209 3.66223)
(-0.800356 3.19943 3.7039)
(-1.3681 3.08529 3.57676)
(-1.53011 2.99897 3.45271)
(1.07746 2.24561 2.53283)
(0.27336 2.55181 2.91703)
(0.504603 2.89175 3.23498)
(-0.85326 3.12109 3.38124)
(-1.36667 2.97441 3.52543)
(-1.47949 3.1099 3.36556)
(-1.80508 2.87638 3.04148)
(1.24882 2.0095 2.70656)
(1.08722 2.18628 2.6613)
(0.539607 2.28808 2.94638)
(-0.412557 2.59567 2.73289)
(-0.778084 2.86182 2.8616)
(-1.49274 2.98683 3.08559)
(-1.74083 2.95623 2.97097)
(-2.10998 3.00155 2.45388)
(1.21536 1.89339 2.12032)
(0.700877 2.32792 2.68857)
(0.996818 1.98805 2.78636)
(-0.43216 1.873 2.83534)
(-0.123454 2.02592 2.90244)
(-1.33476 2.4873 2.73749)
(-1.51006 3.06876 2.40352)
(-1.8836 2.84954 2.56873)
(-2.00318 2.30054 2.4557)
(1.24528 1.2127 0.901563)
(0.987808 1.38297 1.84943)
(1.0697 0.980181 2.04453)
(-0.434513 1.33753 2.24631)
(-0.759739 1.55298 2.15809)
(-1.04201 2.02117 2.18531)
(-1.55642 1.75393 2.76432)
(-1.83738 2.31802 2.49804)
(-2.10402 2.28883 2.23854)
(-2.11913 2.05442 1.96514)
(1.49652 0.140125 0.700058)
(1.29124 0.0108919 0.932935)
(0.398938 0.171499 0.887607)
(-0.421532 0.22747 1.22176)
(-0.741642 0.766198 1.42157)
(-1.11772 1.02295 1.75551)
(-0.93638 2.22498 1.1608)
(-2.35275 1.63149 1.57766)
(-1.98124 2.0208 2.02607)
(-1.90952 2.2531 1.78829)
(-2.0778 1.45807 1.08794)
(1.83209 -0.701271 0.0912291)
(1.50577 -0.966804 0.186659)
(0.817271 -0.881542 0.338129)
(0.0227871 -0.747687 0.463038)
(-0.537372 -0.299897 0.930761)
(-1.1874 0.171178 1.25504)
(-2.03121 0.419032 1.22962)
(-1.02979 1.99031 1.45671)
(-2.14857 1.54809 0.94718)
(-2.07179 1.52887 1.13349)
(-1.69346 1.71068 1.30427)
(-1.52335 1.40809 0.66891)
(1.66888 -1.07696 0.0197961)
(1.54572 -1.7028 -0.27915)
(0.984157 -1.77999 0.365264)
(0.374521 -1.84118 -0.0916323)
(-0.328661 -1.49175 0.276581)
(-0.80358 -0.77143 0.576008)
(-1.70793 -0.105499 1.33576)
(-2.01427 0.527571 0.468414)
(-2.00185 0.909764 0.615264)
(-1.66852 1.24949 0.882429)
(-1.57355 1.36187 0.614424)
(-1.17838 1.53142 0.691161)
(-1.20793 1.30752 -0.0625992)
(1.62981 -1.22376 -0.0630899)
(1.51587 -1.63587 -0.358433)
(0.386878 -2.03733 0.145963)
(0.17171 -2.14729 -0.0647193)
(-0.230124 -1.81626 -0.21253)
(-0.592024 -1.48835 -0.183101)
(-1.50468 -0.870141 0.0106507)
(-2.14279 0.00341937 0.218683)
(-1.74555 0.616369 0.0843551)
(-1.72505 0.75687 -0.568841)
(-1.32245 1.2058 -0.0576399)
(-1.23801 1.30098 -0.0162418)
(-1.10673 1.24431 -0.532834)
(-1.15783 0.545578 -1.14921)
(0.848837 -1.34839 -0.0791121)
(0.782068 -1.63392 -0.536854)
(0.268406 -2.17163 -0.292816)
(-0.0379016 -2.13494 -0.543347)
(-0.338607 -1.89406 -0.821713)
(-0.7392 -1.8754 -0.993775)
(-1.36678 -1.27476 -0.754322)
(-1.96712 -0.702604 -0.633758)
(-1.79777 0.266725 -0.489911)
(-1.68552 0.520921 -0.585714)
(-1.27664 0.626886 -0.469146)
(-1.32925 0.831777 -0.852602)
(-1.17206 0.532739 -1.17152)
(-0.751323 1.2496 -0.614632)
(-0.671398 2.31061 3.30567)
(-0.780032 2.53368 3.21322)
(-0.442082 2.63355 3.30974)
(-0.587744 2.55518 3.24924)
(-0.813912 2.68397 3.30315)
(-0.118355 2.86063 3.44357)
(-0.594999 2.77157 3.39203)
(-0.76798 2.60759 3.41959)
(-0.767011 3.12869 3.27117)
(0.144959 3.12749 3.59141)
(-0.542031 3.10777 3.46042)
(-0.442334 3.07816 3.47447)
(-0.77834 2.88852 3.39246)
(-1.38198 2.93671 3.39745)
(0.2875 3.291 3.74248)
(-0.115276 3.60222 3.66752)
(-0.385447 3.31461 3.64473)
(-0.914915 3.04875 3.51677)
(-1.00791 2.94572 3.34666)
(-1.19939 3.06243 3.56555)
(1.23747 2.91968 3.04408)
(0.644281 3.0625 3.75101)
(-0.305058 3.46175 3.65516)
(-0.483803 3.27048 3.83807)
(-1.16934 3.1363 3.6442)
(-1.13054 2.93772 3.41654)
(-1.79886 2.93828 3.29571)
(1.54066 2.19271 2.44517)
(0.295241 2.43939 2.87841)
(0.551597 2.69085 3.08617)
(-0.359906 3.31829 3.19659)
(-1.02937 3.03676 3.47392)
(-1.39589 3.13279 3.46107)
(-1.57779 3.07403 3.04362)
(-1.98332 2.90749 2.86603)
(1.22078 2.06654 2.8136)
(1.2633 2.01307 2.79697)
(0.789363 2.249 3.07152)
(-0.149698 2.50509 2.84202)
(-0.851166 2.68467 2.79649)
(-1.10553 3.03909 3.11437)
(-1.58422 2.96531 3.0457)
(-1.88167 2.5896 2.95076)
(-2.21051 2.78647 2.49701)
(1.37841 1.70993 1.93415)
(0.913743 2.22788 2.60137)
(0.222157 2.0475 2.88077)
(-0.241083 1.87421 2.8631)
(-0.817801 2.23269 2.54056)
(-1.21448 2.48119 2.68638)
(-1.16143 3.04718 2.44542)
(-1.76639 2.89053 2.56235)
(-1.90001 2.8538 2.32648)
(-2.08882 2.21745 2.30232)
(1.31365 1.17717 0.801509)
(1.17892 1.17733 1.56973)
(0.883923 1.00623 1.78696)
(-0.20112 1.12265 2.25947)
(-0.612424 1.46521 2.17752)
(-0.851321 2.04609 2.13242)
(-1.40348 1.83047 2.51711)
(-1.76882 2.41072 2.48978)
(-2.00977 2.31825 2.2806)
(-1.67879 2.32706 2.38782)
(-1.62655 2.47807 1.60098)
(1.57537 0.0698177 0.776945)
(1.3906 -0.157443 0.985171)
(0.43603 0.110529 0.850618)
(-0.214035 0.123775 1.06326)
(-0.589553 0.663543 1.3842)
(-0.944819 0.941042 1.77953)
(-0.779268 2.37816 0.904097)
(-2.1095 1.74277 1.51107)
(-1.83285 2.09998 2.01338)
(-1.67181 2.41806 1.76231)
(-1.36 2.45758 1.4949)
(-1.62689 1.76578 1.33682)
(1.82819 -0.721678 0.127279)
(1.58412 -1.12386 0.213801)
(0.962479 -1.07346 0.319437)
(0.0291735 -0.871761 0.377439)
(-0.464792 -0.436627 0.887167)
(-1.36413 0.31942 0.88068)
(-1.69063 0.538743 1.2919)
(-0.96888 1.83426 1.52466)
(-2.13253 1.51565 1.05004)
(-2.07541 1.5128 1.30833)
(-1.62275 1.74597 1.30733)
(-1.13418 1.79974 1.15856)
(-1.16193 1.51565 0.739467)
(1.72696 -1.07972 0.0128553)
(1.62933 -1.73346 -0.288418)
(1.11021 -1.79577 0.443727)
(0.404027 -1.93542 -0.332933)
(-0.341712 -1.51233 0.158106)
(-0.970653 -0.637775 0.409418)
(-1.35006 -0.34687 1.53324)
(-1.89974 0.584699 0.568945)
(-1.89585 0.8992 0.71222)
(-1.56954 1.28005 1.00627)
(-1.61228 1.33784 0.584)
(-1.24088 1.54461 0.691352)
(-1.02243 1.65531 0.543648)
(-0.831129 1.38645 -0.61356)
(1.63476 -1.22061 -0.0187807)
(1.51428 -1.59327 -0.492407)
(0.435357 -2.06802 0.072426)
(0.0905758 -2.14173 -0.252722)
(-0.221135 -1.81054 -0.214058)
(-0.636891 -1.48182 -0.322509)
(-1.48099 -0.886171 -0.0383282)
(-2.07323 0.0167399 0.108631)
(-1.7138 0.569679 0.0189133)
(-1.69248 0.773441 -0.561437)
(-1.33094 1.19458 0.0296084)
(-1.27208 1.26549 0.000186801)
(-0.944179 1.33102 -0.619457)
(-0.591224 1.86799 -0.216642)
(-0.748114 1.25446 -0.634856)
(0.862121 -1.35332 -0.196579)
(0.804445 -1.6404 -0.587987)
(0.294268 -2.17851 -0.326066)
(-0.00460783 -2.15251 -0.570999)
(-0.340684 -1.89155 -0.839683)
(-0.76107 -1.84081 -0.985715)
(-1.38852 -1.27643 -0.750201)
(-1.96093 -0.698642 -0.632997)
(-1.78293 0.286045 -0.510034)
(-1.67134 0.551244 -0.584115)
(-1.3044 0.603264 -0.451479)
(-1.33558 0.821371 -0.865407)
(-1.19285 0.548804 -1.15914)
(-0.762876 1.27884 -0.56738)
(-1.03317 1.08973 -0.603743)
(-0.451575 2.48738 2.99067)
(-0.86082 2.33741 3.2168)
(-0.504548 2.4389 3.35147)
(-0.622787 2.43648 3.1482)
(-0.741797 2.53551 3.19189)
(-0.207262 2.60139 3.35312)
(-0.485646 2.59404 3.30488)
(-0.731996 2.53274 3.14933)
(-0.791243 2.64472 3.37903)
(0.0353647 2.93004 3.49481)
(-0.252333 2.75829 3.48951)
(-0.701094 2.62473 3.42804)
(-0.649348 2.69021 3.38198)
(-1.02456 2.67326 3.37404)
(0.290884 3.15761 3.64884)
(-0.213899 3.09574 3.51066)
(-0.353745 3.02338 3.53399)
(-0.558348 3.04475 3.41126)
(-0.921984 2.76935 3.22197)
(-1.31381 2.95131 3.17532)
(0.504558 3.08632 3.84716)
(-0.0330873 3.55106 3.68542)
(-0.0906141 3.39806 3.70712)
(-0.530507 3.01616 3.70636)
(-0.729801 2.90994 3.48531)
(-1.07203 2.97459 2.9686)
(-1.22915 2.92825 3.3205)
(1.59605 2.54451 2.98917)
(0.520868 2.92587 3.43649)
(0.0715812 3.35973 3.53714)
(-0.410234 3.31149 3.80679)
(-0.837453 3.25199 3.65357)
(-0.920034 3.14907 3.44071)
(-1.2318 2.87574 3.11543)
(-1.69097 2.8537 3.04311)
(1.4919 2.16276 2.5529)
(0.616956 2.3773 2.80464)
(0.871851 2.43112 2.95691)
(0.00478717 3.11703 3.17132)
(-0.533733 2.97615 3.44495)
(-1.27634 3.1188 3.51587)
(-1.57052 3.01295 3.17656)
(-1.07481 2.81526 3.04211)
(-1.72432 2.56889 2.98611)
(1.20127 2.09027 2.85768)
(1.31442 2.07915 2.73565)
(0.969543 2.28583 3.14935)
(0.0631698 2.35792 2.94298)
(-0.297734 2.82295 2.67274)
(-0.923615 3.11471 2.87174)
(-1.41039 2.9879 3.12)
(-1.54333 2.77537 3.02239)
(-1.10529 3.00117 2.52714)
(-1.8148 2.8015 2.39748)
(1.56831 1.70276 1.60608)
(1.36432 2.11185 2.15895)
(2.02723 1.64389 2.28539)
(-0.467235 1.93411 2.93688)
(-0.142259 2.08382 2.72889)
(-0.79804 2.39746 2.77203)
(-0.783008 2.94277 2.48548)
(-1.63659 3.03309 2.50225)
(-1.49793 2.98878 2.47776)
(-1.59693 2.86781 2.1862)
(-1.9839 2.53834 1.62553)
(1.71483 1.04096 0.498307)
(1.37723 0.870882 1.38387)
(1.78726 0.685713 1.17461)
(-0.0234874 0.93702 2.08578)
(-0.620769 1.43997 2.1235)
(-0.808836 1.86501 2.13276)
(-1.41477 1.8643 2.34194)
(-1.57317 2.29927 2.58919)
(-1.90813 2.39342 2.33229)
(-1.72943 2.42862 2.19809)
(-1.53703 2.39298 2.07087)
(-1.55539 2.42417 1.35958)
(2.02064 -0.370929 0.63211)
(1.56964 -0.430569 0.914216)
(0.722877 -0.00751404 0.820502)
(-0.14048 0.0277889 0.932759)
(-0.378113 0.519231 1.33133)
(-0.853545 0.889338 1.63268)
(-0.74575 2.18894 1.20833)
(-1.93642 1.76311 1.38703)
(-1.79311 2.08251 1.93806)
(-1.78345 2.21988 1.91213)
(-1.44271 2.49834 1.36472)
(-1.15535 2.22594 1.62755)
(-1.17895 1.78104 1.13606)
(1.90193 -0.803154 -0.0466856)
(1.66558 -1.16726 0.34739)
(0.945326 -1.33075 0.31635)
(0.184202 -1.06045 0.373118)
(-0.361403 -0.499694 0.859969)
(-1.15845 0.202879 0.882674)
(-1.03104 0.155194 1.72487)
(-0.659376 1.80028 1.51583)
(-1.83835 1.54706 1.21654)
(-2.09928 1.55251 1.23415)
(-1.66164 1.73583 1.32133)
(-1.15563 1.89387 1.15817)
(-0.980869 1.8255 1.25676)
(-0.947965 1.66632 0.611056)
(1.75793 -1.16413 -0.0934726)
(1.66562 -1.75317 -0.195813)
(1.11845 -1.85952 0.427361)
(0.507022 -2.01655 -0.00233896)
(-0.337063 -1.54084 0.17926)
(-0.916468 -0.76925 0.298359)
(-1.20122 -0.316627 1.57222)
(-1.80749 0.562369 0.754885)
(-1.82682 0.817689 0.762428)
(-1.6315 1.15733 1.04339)
(-1.62847 1.31734 0.559461)
(-1.2613 1.5219 0.730772)
(-1.01842 1.6476 0.567895)
(-1.12074 1.58482 0.515623)
(-0.606418 1.86614 -0.202111)
(1.61785 -1.17098 0.0394061)
(1.47431 -1.51682 -0.592317)
(0.532086 -2.08884 0.0976783)
(0.116045 -2.12415 -0.325234)
(-0.258249 -1.80689 -0.250087)
(-0.514154 -1.61001 -0.165888)
(-1.46915 -0.881707 0.0885824)
(-2.00523 -0.0689125 -0.0230203)
(-1.67656 0.550817 -0.0816369)
(-1.66417 0.731937 -0.591417)
(-1.32654 1.18603 0.133929)
(-1.26701 1.27055 0.0351162)
(-1.00319 1.27826 -0.672803)
(-0.633801 1.88091 -0.0873674)
(-0.340673 1.91922 0.77464)
(-1.07945 1.06914 -0.664589)
(0.89506 -1.38077 -0.352977)
(0.834742 -1.66448 -0.640416)
(0.302555 -2.17433 -0.347924)
(0.0106078 -2.17137 -0.579572)
(-0.345772 -1.8906 -0.835944)
(-0.826201 -1.78573 -0.983406)
(-1.36656 -1.2884 -0.782336)
(-1.96111 -0.689606 -0.624391)
(-1.78055 0.270776 -0.497964)
(-1.67441 0.538958 -0.57641)
(-1.28641 0.613513 -0.497211)
(-1.34729 0.812464 -0.859912)
(-1.186 0.554805 -1.17223)
(-0.767318 1.28617 -0.567561)
(-0.983559 1.10851 -0.561627)
(-1.21681 0.299294 -0.453813)
(-0.528978 2.19637 2.90537)
(-0.532188 2.51219 2.90499)
(-0.17466 2.48945 3.08766)
(-0.391113 2.29477 3.02887)
(-0.728853 2.4642 3.08785)
(-0.342717 2.51817 3.31974)
(-0.478485 2.39462 3.26081)
(-0.656557 2.51975 2.97742)
(-0.895001 2.50474 3.13626)
(0.118615 2.52949 3.47464)
(-0.403507 2.57777 3.36332)
(-0.489274 2.57397 3.21843)
(-0.454923 2.52409 3.18928)
(-0.850492 2.64001 3.32486)
(0.302217 2.90346 3.51946)
(-0.0951189 2.85954 3.51531)
(-0.484687 2.64688 3.47457)
(-0.529658 2.75205 3.37224)
(-0.450598 2.60609 3.25441)
(-0.825585 2.70862 3.23825)
(0.494757 3.11327 3.68485)
(0.234093 3.09461 3.57826)
(-0.290302 3.03494 3.54708)
(-0.454261 3.07311 3.46191)
(-0.943762 2.78842 3.28093)
(-0.728182 2.8376 2.94888)
(-1.1401 2.96704 2.95343)
(0.450673 2.92777 3.8143)
(0.0414851 3.5198 3.74833)
(0.0950413 3.44946 3.6696)
(-0.371547 3.08212 3.77241)
(-0.710863 2.9769 3.51601)
(-0.914244 2.99151 3.06208)
(-0.891333 2.90929 2.90428)
(-1.19205 2.78606 3.07373)
(0.97923 2.30019 3.14785)
(1.0572 2.7312 3.30667)
(0.279683 2.97369 3.46962)
(-0.157218 3.25261 3.67967)
(-0.713137 3.17992 3.74539)
(-0.981871 2.96489 3.70632)
(-1.19232 2.89081 3.23112)
(-0.607992 2.82791 2.81434)
(-1.54244 2.37374 2.99038)
(1.31354 2.10741 2.69466)
(1.04986 2.21202 2.78189)
(0.838601 2.21134 2.96195)
(0.472238 2.88246 3.02233)
(-0.276794 3.07428 3.10586)
(-0.804054 3.14131 3.4452)
(-1.21489 3.22245 3.30601)
(-1.03226 2.85923 3.13227)
(-0.938637 2.68827 2.57593)
(-1.66448 2.68331 2.33196)
(1.3216 2.00446 2.87114)
(1.45175 2.16057 2.61547)
(1.344 2.08673 2.93227)
(0.773276 2.34955 2.99882)
(-0.440694 2.69274 2.63444)
(-0.477805 3.02211 2.75862)
(-1.23305 2.72095 3.2285)
(-1.44663 2.89887 3.082)
(-1.58286 2.86051 2.63683)
(-1.25274 2.6124 2.44572)
(-1.7171 2.80961 2.15047)
(1.60871 1.73867 1.20432)
(1.35055 2.02736 1.83101)
(1.21832 1.72615 2.20173)
(-0.235727 1.92647 2.72886)
(-0.387983 1.96094 2.67551)
(-0.60995 2.30429 2.64999)
(-1.16271 2.96822 1.98914)
(-1.51592 3.03825 2.38079)
(-1.5553 2.98749 2.50145)
(-1.51814 2.78875 2.25601)
(-0.899981 2.7263 2.06975)
(-1.21694 2.92076 1.2768)
(2.28838 0.504633 0.114326)
(1.53631 0.715773 1.24331)
(1.39306 0.76271 1.22049)
(-0.091779 0.921799 1.87617)
(-0.520879 1.31809 1.95759)
(-0.6877 1.83935 2.03556)
(-1.10287 1.82226 2.28324)
(-1.00067 2.22403 2.6145)
(-1.74518 2.35007 2.40373)
(-1.85509 2.37858 2.2075)
(-1.30799 2.67136 1.85312)
(-1.12509 2.64891 1.79897)
(-1.21405 2.33551 1.37092)
(2.34862 -0.662156 0.634485)
(1.77173 -0.872836 0.6934)
(0.962985 -0.331518 0.786776)
(-0.134872 -0.0501382 0.831996)
(-0.132073 0.299645 1.25028)
(-0.779962 1.01352 1.31429)
(-0.655625 1.98338 1.24162)