/*--------------------------------*- C++ -*----------------------------------*\
  =========                 |
  \\      /  F ield         | OpenFOAM: The Open Source CFD Toolbox
   \\    /   O peration     | Website:  https://openfoam.org
    \\  /    A nd           | Version:  7
     \\/     M anipulation  |
\*---------------------------------------------------------------------------*/
FoamFile
{
    version     2.0;
    format      ascii;
    class       volVectorField;
    location    "3";
    object      U_0;
}
// * * * * * * * * * * * * * * * * * * * * * * * * * * * * * * * * * * * * * //

dimensions      [0 1 -1 0 0 0 0];

internalField   nonuniform List<vector> 
18720
(
(0.775963 -1.52958 0.0785824)
(1.01396 -1.24815 -0.146013)
(0.770474 -1.54142 0.077495)
(0.791447 -1.49662 0.0768812)
(0.6342 -1.75744 -0.262998)
(0.8822 -0.682546 -0.0197579)
(0.963754 -1.25297 -0.201003)
(1.07492 -1.2207 -0.121021)
(0.938923 -1.66953 -0.0606448)
(0.621726 -1.75558 -0.246897)
(0.8 -1.48976 0.0805752)
(0.665626 -1.74393 -0.286905)
(0.111049 -2.15101 -0.128045)
(0.335489 0.389341 0.897671)
(0.738449 -0.595823 0.0804784)
(0.999476 -0.766927 -0.0695507)
(0.237542 -1.16852 -0.373541)
(0.865056 -1.66775 -0.0161826)
(1.0978 -1.21121 -0.132904)
(1.02219 -1.66487 -0.105874)
(-0.099725 -1.92702 0.0165568)
(0.141719 -2.12625 -0.148127)
(0.802469 -1.49644 0.0814823)
(0.664208 -1.73883 -0.285113)
(0.146643 -2.143 -0.154383)
(-0.122125 -2.14538 -0.376933)
(0.283924 1.40329 1.30014)
(0.160501 0.373854 0.847352)
(0.555159 0.380414 0.827725)
(0.125024 0.178334 0.832876)
(0.123304 -1.16816 -0.303448)
(1.11961 -0.822175 -0.130813)
(0.394218 -1.23536 -0.419337)
(-0.369051 -1.36313 0.19411)
(0.0673287 -1.88854 0.174586)
(1.13188 -1.19263 -0.0812608)
(1.11857 -1.67713 -0.0937755)
(0.0670901 -1.92307 0.202649)
(-0.00432586 -1.89384 0.30332)
(0.00662034 -2.09568 -0.473556)
(0.809414 -1.48014 0.0777191)
(0.67735 -1.72225 -0.329575)
(0.132713 -2.12351 -0.156444)
(-0.0922167 -2.12837 -0.407759)
(-0.340629 -1.87296 -0.791176)
(-0.27861 1.44964 2.06087)
(-0.0510016 1.33773 1.34887)
(0.30652 1.34484 1.31542)
(-0.510967 1.1259 1.64154)
(0.00570869 0.233672 0.950969)
(0.907492 0.244257 0.651203)
(0.289409 0.0692108 0.688943)
(-0.293052 0.0958814 0.753006)
(-0.438335 -1.385 0.203708)
(1.2269 -0.897118 -0.173315)
(0.560077 -1.29467 -0.456241)
(-0.223155 -1.33932 0.201245)
(-0.399284 -1.36702 0.0740563)
(-0.0383622 -1.83729 -0.0914391)
(1.16338 -1.1713 -0.0373823)
(1.18003 -1.69984 -0.0872043)
(0.0959011 -1.94036 0.192913)
(-0.0746634 -1.93251 -0.0480641)
(-0.22845 -1.62289 -0.184763)
(-0.344794 -1.84372 -0.791284)
(0.81136 -1.44503 0.0829204)
(0.670412 -1.71605 -0.31815)
(0.183154 -2.14919 -0.183025)
(-0.00646142 -2.10647 -0.450036)
(-0.325146 -1.88967 -0.797389)
(-0.712196 -1.89591 -1.05136)
(-0.359464 1.82719 2.58939)
(-0.372651 1.49526 2.06469)
(-0.167104 1.53626 2.01682)
(-0.306578 1.58358 2.41428)
(-0.620367 1.05063 1.8091)
(0.546119 1.31367 1.21858)
(-0.366542 1.12878 1.48231)
(-0.867239 0.537908 1.98915)
(-0.506913 0.126671 0.889117)
(1.16559 0.125421 0.559775)
(0.497468 -0.0732219 0.507938)
(-0.164803 0.0518445 0.633889)
(-0.718575 -0.112749 1.24882)
(-0.538364 -1.30563 0.23055)
(1.34199 -0.971567 -0.200327)
(0.75033 -1.32845 -0.486853)
(-0.152152 -1.36023 0.197473)
(-0.29691 -1.33223 0.0609236)
(-0.779618 -1.11663 0.180686)
(-0.148427 -1.63163 -0.178835)
(1.1902 -1.15087 -0.0385801)
(1.24085 -1.69027 -0.0910887)
(0.138374 -1.98472 0.23084)
(0.0269766 -1.93895 -0.197463)
(-0.206177 -1.67337 -0.215969)
(-0.603964 -1.30348 -0.267378)
(-0.688275 -1.89038 -1.06388)
(0.813101 -1.42784 0.0675377)
(0.693395 -1.69057 -0.340503)
(0.162882 -2.17155 -0.185659)
(-0.079646 -2.12231 -0.431169)
(-0.309767 -1.86979 -0.799834)
(-0.725634 -1.88076 -1.06118)
(-1.36971 -1.30522 -0.729916)
(-0.606129 2.5609 2.67238)
(-0.824388 1.73732 2.66225)
(-0.0621663 1.78582 2.47082)
(-0.880269 1.86372 2.61959)
(-0.442788 1.55026 2.51087)
(0.193711 1.63301 1.9514)
(-0.134629 1.54816 2.43464)
(0.184146 1.38788 2.75561)
(-1.14825 0.450865 2.11546)
(0.786961 1.2507 1.12703)
(0.138509 1.01593 1.38259)
(-0.589559 0.580596 1.83745)
(-1.13515 0.37469 1.89455)
(-0.867879 -0.0742938 1.38347)
(1.34767 -0.0106773 0.456157)
(0.678451 -0.176749 0.39874)
(-0.0477485 0.0102593 0.530788)
(-0.618133 -0.215957 0.967176)
(-1.24958 0.160079 1.05772)
(-0.577596 -1.13519 0.312955)
(1.48361 -1.0174 -0.181878)
(0.943223 -1.38948 -0.451616)
(-0.05755 -1.36361 0.203995)
(-0.236354 -1.37305 0.0246356)
(-0.43508 -1.2672 0.327086)
(-1.1843 -0.569783 0.641527)
(-0.593353 -1.32044 -0.343095)
(1.22567 -1.1132 -0.0760968)
(1.28013 -1.68613 -0.0867569)
(0.209898 -2.01922 0.204472)
(-0.0460623 -1.98173 -0.0898638)
(-0.216276 -1.67495 -0.2267)
(-0.674176 -1.32761 0.0544544)
(-1.61027 -0.734296 0.00734991)
(-1.36171 -1.3057 -0.74431)
(0.819732 -1.43757 0.0630397)
(0.703193 -1.68914 -0.357691)
(0.118408 -2.13462 -0.151796)
(-0.0148467 -2.15405 -0.459494)
(-0.306502 -1.88684 -0.801905)
(-0.767793 -1.89136 -1.00662)
(-1.36552 -1.28326 -0.725465)
(-1.90037 -0.666816 -0.707392)
(-0.937647 2.89944 3.19204)
(-0.199215 2.60527 2.99892)
(-0.0309117 2.32902 2.60886)
(-0.549203 2.77346 2.72682)
(-1.18731 1.9306 2.63361)
(-0.236264 1.80396 2.35646)
(-0.456084 1.8682 2.50046)
(-0.871776 1.91514 2.42386)
(-0.942571 1.50595 2.62231)
(0.5535 1.34699 2.12809)
(-0.137916 1.69234 2.47165)
(-0.401398 1.30887 2.52844)
(-0.360827 1.51146 2.28237)
(-1.25012 0.358232 1.97405)
(1.089 1.0987 1.004)
(0.460174 0.914481 1.26057)
(-0.551382 0.602639 1.57647)
(-1.08914 0.48308 1.7796)
(-1.25928 0.806632 1.54531)
(-1.32343 0.16792 1.07019)
(1.51775 -0.139173 0.34067)
(0.838688 -0.305625 0.324037)
(0.114319 -0.083995 0.447152)
(-0.428527 -0.271225 0.850645)
(-1.2008 0.0789748 0.999788)
(-1.4306 0.272041 1.71572)
(-1.23547 -0.551374 0.788665)
(1.57109 -1.10138 -0.12317)
(1.09336 -1.44946 -0.454811)
(0.120878 -1.38655 0.19081)
(-0.127795 -1.46741 0.0395978)
(-0.634044 -1.20875 0.19719)
(-1.13221 -0.570776 0.629434)
(-1.76349 0.110546 1.43195)
(-1.62069 -0.733906 -0.00348697)
(1.26862 -1.11038 -0.0686128)
(1.32315 -1.67964 -0.0751822)
(0.251769 -2.03775 0.157973)
(-0.00617426 -2.00487 -0.246416)
(-0.241959 -1.69437 -0.264572)
(-0.730429 -1.36259 0.0291278)
(-1.57852 -0.753233 -0.0213571)
(-2.39524 0.106105 0.205645)
(-1.88993 -0.660024 -0.722665)
(0.848877 -1.43553 0.0636069)
(0.71449 -1.6743 -0.384808)
(0.16767 -2.10981 -0.211248)
(-0.0437669 -2.15914 -0.46684)
(-0.328705 -1.89584 -0.807376)
(-0.758889 -1.86677 -0.996404)
(-1.37156 -1.30729 -0.721896)
(-1.91502 -0.679981 -0.69171)
(-1.80766 0.291199 -0.611272)
(-0.837941 3.47082 3.4139)
(-1.0674 3.01514 3.22623)
(-0.435082 2.88377 3.03226)
(-0.699339 3.31649 3.27263)
(-0.595211 2.45847 3.21034)
(0.568646 2.32978 2.39311)
(-0.171468 2.72732 2.64009)
(-0.702825 2.61495 2.74616)
(-0.713775 2.22732 2.50934)
(0.491837 1.83267 2.31)
(0.438479 1.79054 2.43517)
(-0.334195 1.8938 2.41262)
(-1.03616 1.96641 2.35445)
(-1.015 1.60553 2.02794)
(0.0985171 1.80329 1.99277)
(0.0856666 1.77865 2.48312)
(-0.400063 1.40646 2.5049)
(-0.455257 1.48272 2.19814)
(-0.801175 1.60158 2.16356)
(-1.3878 0.802713 1.5159)
(1.54463 0.72133 0.696186)
(0.840588 0.76245 1.11566)
(-0.393756 0.556957 1.49421)
(-0.782654 0.450314 1.77184)
(-1.08893 0.78809 1.58817)
(-1.59997 1.03339 1.25967)
(-1.34406 0.33058 1.95159)
(1.71931 -0.268566 0.129122)
(0.971571 -0.42088 0.265988)
(0.271126 -0.182778 0.393248)
(-0.292795 -0.343777 0.755912)
(-1.03387 0.105623 1.07912)
(-1.41708 0.261575 1.57385)
(-2.23585 0.555806 1.28369)
(-1.82817 0.173158 1.36333)
(1.62402 -1.02312 -0.112603)
(1.1811 -1.51794 -0.434284)
(0.303977 -1.44835 0.195828)
(-0.0934198 -1.52401 -0.17723)
(-0.6759 -1.2406 0.223696)
(-1.11007 -0.569681 0.611953)
(-1.72991 0.0646724 1.46321)
(-2.38924 0.540177 0.239005)
(-2.4621 0.0662504 0.261603)
(1.33921 -1.08431 -0.0247731)
(1.35684 -1.67123 -0.0591627)
(0.26095 -2.04185 0.16545)
(-0.0298052 -2.04141 -0.0972112)
(-0.232438 -1.75628 -0.254875)
(-0.680778 -1.37783 -0.167964)
(-1.57534 -0.773287 -0.0330841)
(-2.36751 0.09129 0.247163)
(-1.75529 0.746805 0.374619)
(-1.82111 0.295986 -0.64087)
(0.860576 -1.42216 0.0586883)
(0.735228 -1.65963 -0.419859)
(0.15789 -2.14766 -0.192301)
(-0.0616195 -2.13638 -0.477366)
(-0.323141 -1.87643 -0.810668)
(-0.806877 -1.85284 -0.988808)
(-1.38834 -1.29811 -0.728729)
(-1.93915 -0.687373 -0.656469)
(-1.80589 0.286603 -0.630518)
(-1.68965 0.520458 -0.499029)
(-0.745793 3.48445 3.62456)
(-1.20692 3.36178 3.38001)
(-0.283187 3.37935 3.5532)
(-1.05325 3.51489 3.32612)
(-1.14736 3.31836 3.33352)
(-0.0522279 2.79238 2.81072)
(-0.59055 3.14708 3.16258)
(-0.874466 3.27073 3.34952)
(-1.05195 2.67744 2.71972)
(0.900647 2.28195 2.29271)
(0.117962 2.44135 2.57564)
(-0.414303 2.64214 2.66233)
(-1.03045 2.738 2.71479)
(-0.918308 2.1765 2.33383)
(1.23474 1.73916 2.25346)
(0.667602 1.75437 2.399)
(0.142845 1.91056 2.43842)
(-0.729843 1.97699 2.41278)
(-1.30957 2.31716 2.37632)
(-1.19572 1.63718 2.04291)
(0.930901 1.49863 1.81241)
(0.370989 1.67723 2.44822)
(-0.408022 1.56978 2.50318)
(-0.523155 1.46562 2.19048)
(-0.85206 1.55196 2.09629)
(-1.14443 2.13637 2.24669)
(-1.70375 0.908502 1.38654)
(1.40177 0.645092 0.740457)
(1.01922 0.565109 1.06004)
(-0.348717 0.401828 1.37271)
(-0.634916 0.374084 1.65982)
(-0.972856 0.809125 1.56626)
(-1.46303 1.19619 1.32172)
(-1.50841 2.05777 1.56143)
(-2.34036 0.603364 1.15244)
(1.87147 -0.532798 -0.0961305)
(1.10096 -0.532344 0.244088)
(0.383001 -0.312836 0.379306)
(-0.221711 -0.377344 0.664485)
(-0.941103 0.00896087 0.953793)
(-1.26262 0.239589 1.55497)
(-2.29561 0.486186 1.20746)
(-1.56665 2.06586 1.38348)
(-2.5006 0.401333 0.244475)
(1.54505 -1.17206 -0.12313)
(1.28168 -1.5557 -0.422888)
(0.490034 -1.52014 0.203742)
(0.0977265 -1.58581 -0.0125048)
(-0.541505 -1.34686 0.215357)
(-1.06924 -0.614136 0.551359)
(-1.70944 0.0177162 1.4085)
(-2.33673 0.523365 0.312588)
(-2.01258 0.915723 0.651257)
(-1.79309 0.761272 0.315279)
(1.3692 -1.09775 -0.0267662)
(1.38967 -1.66001 -0.0859309)
(0.251777 -2.0347 0.133489)
(0.063035 -2.07251 -0.0596275)
(-0.223126 -1.74545 -0.241783)
(-0.681286 -1.38293 -0.0893924)
(-1.56681 -0.790243 -0.0306278)
(-2.36844 0.0793054 0.239796)
(-1.75911 0.739243 0.425542)
(-1.74839 0.816029 -0.454194)
(-1.69246 0.506094 -0.49174)
(0.849068 -1.3809 0.0574014)
(0.749957 -1.66088 -0.444335)
(0.156893 -2.15289 -0.209861)
(-0.0667657 -2.12598 -0.479688)
(-0.340348 -1.88004 -0.810389)
(-0.759382 -1.86963 -0.983436)
(-1.37503 -1.27243 -0.735053)
(-1.94517 -0.73664 -0.716862)
(-1.80463 0.293294 -0.60986)
(-1.70085 0.526298 -0.50762)
(-1.25885 0.625863 -0.469004)
(-0.598013 3.0824 3.39565)
(-0.89822 3.34426 3.57096)
(-0.633281 3.54784 3.65237)
(-0.770967 3.17014 3.62713)
(-0.972384 3.56041 3.28859)
(0.238152 3.39319 3.54294)
(-1.3405 3.58322 3.24788)
(-0.782119 3.34864 3.54165)
(-1.2419 3.17525 3.42405)
(0.447031 2.61213 2.73977)
(-0.229261 2.88751 3.09214)
(-0.695326 3.19444 3.3428)
(-1.0894 3.19327 3.37004)
(-1.32371 2.73939 2.61728)
(0.817525 2.14245 2.34594)
(0.445272 2.31592 2.60191)
(-0.372989 2.38277 2.76951)
(-0.607452 2.86881 2.65637)
(-1.29376 2.84285 2.9041)
(-1.21564 2.45606 2.48951)
(0.9797 1.87021 2.3705)
(0.166629 2.01315 2.6258)
(0.660652 1.88398 2.49932)
(-0.365812 1.88815 2.65011)
(-1.11397 2.36243 2.38559)
(-1.73761 2.55274 2.58621)
(-1.45722 2.16256 2.13529)
(0.927129 1.46897 1.46965)
(0.326287 1.73601 2.32968)
(0.51948 1.24648 2.59211)
(-0.518551 1.45446 2.22335)
(-0.720721 1.53493 2.19902)
(-1.13935 2.10455 2.15446)
(-1.90135 1.81807 2.612)
(-1.70598 2.0422 1.59744)
(1.48734 0.520899 0.668234)
(1.05012 0.41357 1.05215)
(-0.0829285 0.423715 1.2253)
(-0.65581 0.410005 1.46034)
(-0.969731 0.846679 1.55585)
(-1.3474 1.07451 1.60609)
(-1.39214 2.08191 1.42609)
(-2.54092 1.57995 1.56647)
(-1.29902 2.36433 1.22949)
(1.92739 -0.496006 -0.0611494)
(1.2113 -0.656281 0.242268)
(0.529571 -0.475076 0.378354)
(-0.108776 -0.5106 0.565613)
(-0.782746 -0.0815163 0.981461)
(-1.2681 0.242387 1.39532)
(-2.18155 0.576472 1.16836)
(-1.15574 2.22394 1.378)
(-2.15373 1.55502 0.989623)
(-2.06574 0.869512 0.574077)
(1.62972 -1.02866 -0.0584808)
(1.35824 -1.62417 -0.371022)
(0.678421 -1.6068 0.274793)
(0.178897 -1.65575 -0.275477)
(-0.297402 -1.39831 0.308663)
(-1.01186 -0.600978 0.533916)
(-1.59223 -0.0542792 1.56983)
(-2.31551 0.558764 0.21957)
(-1.9099 0.927646 0.82809)
(-1.42981 1.44459 1.01256)
(-1.76997 0.8046 -0.457274)
(1.44744 -1.12249 -0.0457285)
(1.42976 -1.65587 -0.112862)
(0.245928 -2.02605 0.146746)
(0.10007 -2.11629 0.0315656)
(-0.209253 -1.73893 -0.204012)
(-0.672382 -1.40499 -0.0854948)
(-1.52587 -0.826279 -0.0168046)
(-2.29495 0.0872688 0.210761)
(-1.7728 0.701332 0.356076)
(-1.75115 0.80739 -0.484728)
(-1.31071 1.21928 -0.263031)
(-1.21513 0.669142 -0.51337)
(0.83017 -1.3755 0.0323067)
(0.762019 -1.65105 -0.462035)
(0.221039 -2.13704 -0.254811)
(-0.0896999 -2.1339 -0.510589)
(-0.338783 -1.89364 -0.817079)
(-0.795966 -1.85476 -0.960708)
(-1.38797 -1.28221 -0.733066)
(-1.99898 -0.698449 -0.589645)
(-1.81289 0.303154 -0.567229)
(-1.69176 0.535389 -0.53451)
(-1.26512 0.626351 -0.453439)
(-1.30981 0.842511 -0.891286)
(-0.72461 2.83825 3.30308)
(-0.785874 3.09354 3.36338)
(-0.401192 3.08887 3.47995)
(-0.704506 2.99954 3.47291)
(-1.12118 3.12242 3.55772)
(-0.317097 3.43276 3.72793)
(-0.491047 3.29695 3.71876)
(-0.823553 3.20559 3.48892)
(-0.953974 3.32473 3.52639)
(0.631889 3.16306 3.52421)
(-1.37073 3.64005 3.2654)
(-0.572186 3.42055 3.65984)
(-1.02832 3.1949 3.60868)
(-1.1729 3.1401 3.43538)
(0.750704 2.39821 2.65974)
(-0.0471879 2.67007 3.03919)
(-0.0615602 3.1668 3.29765)
(-0.961152 3.16655 3.38482)
(-1.3855 3.04386 3.4592)
(-1.6781 2.75419 2.90323)
(0.935263 2.06292 2.47487)
(0.996927 2.26874 2.67751)
(-0.0994592 2.32156 2.75987)
(-0.642418 2.59186 2.77783)
(-0.993599 2.94684 2.89581)
(-1.57467 2.96113 3.05789)
(-1.93104 2.54076 2.60496)
(1.20475 1.78071 2.44502)
(1.24065 1.95089 2.62979)
(-0.305291 2.08518 2.69501)
(-0.458919 1.92198 2.69418)
(-0.814293 2.37826 2.5338)
(-1.63263 2.52065 2.60752)
(-1.90295 3.00724 2.41541)
(-2.13362 1.86526 2.51715)
(1.34086 1.28744 1.05454)
(0.912148 1.52343 2.08823)
(0.195101 1.32947 2.3682)
(-0.33386 1.32316 2.29332)
(-0.644433 1.56795 2.23482)
(-1.17149 2.10251 2.06744)
(-1.80373 1.8498 2.61258)
(-1.9406 2.28036 2.47792)
(-2.62397 1.53394 1.54072)
(1.54392 0.279344 0.655362)
(1.16534 0.261756 0.975082)
(0.130369 0.249548 1.00867)
(-0.530983 0.333601 1.38226)
(-0.749841 0.768281 1.60115)
(-1.3579 1.09793 1.58335)
(-1.2204 2.3598 0.940718)
(-2.56882 1.60072 1.50139)
(-2.07952 2.07192 1.9788)
(-2.07639 1.55657 0.988678)
(1.81982 -0.678319 0.0220184)
(1.32908 -0.750007 0.289015)
(0.659813 -0.607274 0.396397)
(-0.0457851 -0.62869 0.484322)
(-0.686078 -0.132129 0.933922)
(-1.21608 0.261417 1.3054)
(-2.0634 0.432513 1.49814)
(-1.36157 1.94804 1.48975)
(-2.12483 1.5298 0.975202)
(-2.1154 1.44062 1.1451)
(-1.39568 1.45628 1.0074)
(1.60953 -1.09211 0.0051198)
(1.46465 -1.65648 -0.329862)
(0.888143 -1.67403 0.358851)
(0.317995 -1.75093 -0.0215537)
(-0.378828 -1.42712 0.291743)
(-1.01163 -0.61231 0.474304)
(-1.64989 -0.143246 1.48213)
(-2.13547 0.614579 0.319067)
(-1.90536 0.863145 0.842502)
(-1.52531 1.3605 0.972138)
(-1.55048 1.38797 0.649076)
(-1.26712 1.23898 -0.39745)
(1.52903 -1.17774 -0.066278)
(1.48807 -1.65572 -0.166789)
(0.320607 -2.01728 0.189415)
(0.0797962 -2.12537 -0.19584)
(-0.223239 -1.77099 -0.310176)
(-0.608617 -1.47299 -0.0932373)
(-1.53666 -0.808057 0.0161537)
(-2.2177 0.0835392 0.289571)
(-1.79668 0.675076 0.0605033)
(-1.74508 0.783728 -0.551873)
(-1.33316 1.22743 -0.0853582)
(-1.23385 1.31222 0.00850649)
(-1.29767 0.860249 -0.865778)
(0.84037 -1.36486 0.00740247)
(0.772109 -1.63515 -0.499807)
(0.253725 -2.14895 -0.250871)
(-0.0809045 -2.14148 -0.529436)
(-0.323837 -1.88901 -0.817597)
(-0.706846 -1.88501 -0.995248)
(-1.39132 -1.29021 -0.751157)
(-1.96927 -0.693743 -0.637459)
(-1.80402 0.302335 -0.522621)
(-1.69521 0.54309 -0.534056)
(-1.2699 0.621867 -0.451635)
(-1.31407 0.828253 -0.886485)
(-1.20122 0.524592 -1.13998)
(-0.584322 2.56177 3.28376)
(-0.830352 2.78 3.25274)
(-0.482039 2.82063 3.37005)
(-0.72656 2.75132 3.33584)
(-0.737645 3.02446 3.47868)
(-0.160003 3.13679 3.53365)
(-0.50128 3.08743 3.43978)
(-0.624431 3.12022 3.41365)
(-1.34389 3.1384 3.36759)
(-0.0602078 3.29302 3.74449)
(-0.250401 3.51605 3.70422)
(-0.710276 3.21569 3.56823)
(-1.30559 2.98339 3.40281)
(-1.24341 3.22857 3.57547)
(0.468551 3.07202 3.29719)
(-0.60789 3.63074 3.47683)
(-0.555944 3.48922 3.66631)
(-0.81982 3.1966 3.69686)
(-1.36166 3.08576 3.57822)
(-1.54126 2.99564 3.45476)
(1.0662 2.24493 2.53557)
(0.274789 2.55533 2.92456)
(0.503268 2.90995 3.24179)
(-0.859154 3.11758 3.38639)
(-1.36484 2.97415 3.52911)
(-1.48503 3.11277 3.35888)
(-1.8006 2.88128 3.04582)
(1.25909 2.00287 2.69159)
(1.09532 2.18623 2.65944)
(0.514191 2.29 2.93518)
(-0.418881 2.5994 2.73315)
(-0.766709 2.8725 2.86839)
(-1.49379 2.98897 3.08847)
(-1.74974 2.9573 2.96803)
(-2.11234 3.00463 2.46377)
(1.21647 1.89697 2.14122)
(0.719116 2.31939 2.68594)
(0.984869 1.98744 2.78306)
(-0.4297 1.87596 2.83252)
(-0.122508 2.0397 2.90099)
(-1.33765 2.49794 2.73399)
(-1.52801 3.0684 2.40791)
(-1.88699 2.85273 2.57063)
(-2.00237 2.30206 2.4521)
(1.25037 1.21699 0.908608)
(0.988718 1.38969 1.86063)
(1.07868 0.980752 2.05662)
(-0.428684 1.34078 2.24652)
(-0.756377 1.55782 2.15742)
(-1.04934 2.02538 2.18404)
(-1.56797 1.75845 2.76544)
(-1.84129 2.31475 2.50002)
(-2.10424 2.28922 2.24359)
(-2.10686 2.06627 1.95861)
(1.49398 0.143577 0.699736)
(1.28276 0.0210855 0.936736)
(0.391127 0.170968 0.889349)
(-0.424534 0.233013 1.2263)
(-0.740004 0.769591 1.42487)
(-1.12265 1.02966 1.74778)
(-0.95681 2.21631 1.16719)
(-2.35784 1.63575 1.58389)
(-1.98173 2.0274 2.02377)
(-1.90866 2.25777 1.77768)
(-2.07004 1.45997 1.08704)
(1.82367 -0.702438 0.0885268)
(1.49034 -0.957838 0.200565)
(0.807087 -0.876252 0.340666)
(0.0164965 -0.744869 0.46823)
(-0.541156 -0.295533 0.93628)
(-1.19022 0.175795 1.2566)
(-2.02971 0.419344 1.24287)
(-1.04342 1.997 1.45555)
(-2.1525 1.5464 0.933696)
(-2.06512 1.53373 1.12812)
(-1.68894 1.71294 1.30702)
(-1.51625 1.41767 0.659162)
(1.65986 -1.08293 0.0143849)
(1.53765 -1.7061 -0.279258)
(0.98788 -1.77757 0.370128)
(0.370075 -1.83964 -0.100047)
(-0.335905 -1.48662 0.270077)
(-0.802945 -0.769938 0.580789)
(-1.7056 -0.0952939 1.33936)
(-2.02947 0.530868 0.458562)
(-1.99911 0.917518 0.616112)
(-1.65963 1.2596 0.868179)
(-1.56384 1.37027 0.611133)
(-1.16717 1.53729 0.695196)
(-1.19867 1.31259 -0.0739495)
(1.62916 -1.22927 -0.0708961)
(1.51965 -1.63899 -0.36378)
(0.391037 -2.03699 0.141664)
(0.159792 -2.14204 -0.0841301)
(-0.24116 -1.81093 -0.198785)
(-0.599399 -1.48298 -0.200867)
(-1.50428 -0.873226 -0.00402282)
(-2.14678 0.00172688 0.20678)
(-1.74527 0.630058 0.089834)
(-1.72534 0.765209 -0.570578)
(-1.31353 1.21399 -0.0646719)
(-1.23043 1.30941 -0.0174825)
(-1.09131 1.25123 -0.544861)
(-1.15336 0.546993 -1.14409)
(0.849147 -1.34827 -0.0836434)
(0.784165 -1.63127 -0.546999)
(0.276451 -2.18017 -0.313334)
(-0.0267956 -2.14607 -0.552293)
(-0.350309 -1.8864 -0.824428)
(-0.760782 -1.86626 -0.989879)
(-1.37169 -1.27761 -0.766287)
(-1.96177 -0.698323 -0.641496)
(-1.7964 0.263714 -0.503443)
(-1.68727 0.531669 -0.575077)
(-1.27226 0.636368 -0.467624)
(-1.32429 0.839727 -0.848183)
(-1.1751 0.533036 -1.16693)
(-0.747799 1.24154 -0.628317)
(-0.674768 2.31149 3.2991)
(-0.785257 2.53386 3.20989)
(-0.448584 2.63108 3.3087)
(-0.588094 2.55536 3.24519)
(-0.807326 2.68441 3.30474)
(-0.125055 2.85596 3.44146)
(-0.597331 2.7708 3.38958)
(-0.759036 2.61165 3.42004)
(-0.773916 3.126 3.26066)
(0.14055 3.12681 3.58599)
(-0.528913 3.10828 3.46062)
(-0.438014 3.08386 3.47188)
(-0.787937 2.87753 3.38997)
(-1.37124 2.94132 3.396)
(0.273021 3.30034 3.74263)
(-0.102243 3.60217 3.66696)
(-0.394738 3.30293 3.64368)
(-0.924141 3.04645 3.51089)
(-1.00692 2.951 3.33991)
(-1.18277 3.06185 3.56847)
(1.2167 2.93326 3.05554)
(0.628422 3.07864 3.75854)
(-0.306555 3.46326 3.66291)
(-0.479632 3.26416 3.84029)
(-1.17314 3.13468 3.6451)
(-1.12795 2.93633 3.4136)
(-1.7959 2.94092 3.29101)
(1.53661 2.18814 2.44205)
(0.293469 2.43904 2.88599)
(0.556735 2.70191 3.09472)
(-0.379743 3.32206 3.2023)
(-1.04171 3.03843 3.47928)
(-1.3951 3.13763 3.45556)
(-1.56755 3.0747 3.04241)
(-1.9805 2.90813 2.86759)
(1.23657 2.05847 2.80737)
(1.26953 2.00694 2.79559)
(0.786691 2.24486 3.06607)
(-0.153663 2.51335 2.83509)
(-0.851668 2.68964 2.8051)
(-1.12191 3.03986 3.12402)
(-1.58305 2.96969 3.04415)
(-1.87155 2.5926 2.95177)
(-2.21228 2.78719 2.49654)
(1.37784 1.71343 1.95401)
(0.901501 2.22992 2.61853)
(0.239237 2.03532 2.88254)
(-0.235023 1.87195 2.86164)
(-0.809543 2.23413 2.54567)
(-1.22149 2.49323 2.68316)
(-1.17929 3.05272 2.44662)
(-1.76467 2.8872 2.57069)
(-1.90114 2.85252 2.32818)
(-2.084 2.21882 2.30472)
(1.3138 1.1783 0.802039)
(1.17788 1.18993 1.57897)
(0.859174 1.01397 1.81685)
(-0.220478 1.1354 2.26373)
(-0.610438 1.4702 2.17594)
(-0.854402 2.04977 2.13529)
(-1.39881 1.83104 2.52968)
(-1.77039 2.41438 2.48798)
(-2.01375 2.3175 2.28261)
(-1.67467 2.32832 2.38519)
(-1.59458 2.4996 1.5891)
(1.56081 0.0866051 0.776367)
(1.38583 -0.154508 0.979471)
(0.428596 0.111454 0.850456)
(-0.21965 0.128718 1.06845)
(-0.588825 0.667223 1.38742)
(-0.946723 0.946314 1.7791)
(-0.793556 2.36991 0.905749)
(-2.11393 1.74985 1.5188)
(-1.83127 2.10615 2.01468)
(-1.66936 2.42433 1.75625)
(-1.3613 2.45966 1.48606)
(-1.6168 1.76977 1.3421)
(1.82218 -0.720344 0.126786)
(1.56953 -1.11559 0.226676)
(0.950456 -1.06836 0.321685)
(0.0220239 -0.867792 0.38245)
(-0.46956 -0.430367 0.892643)
(-1.36392 0.324335 0.883823)
(-1.69139 0.541801 1.30367)
(-0.979152 1.84518 1.52249)
(-2.14545 1.51251 1.03874)
(-2.06659 1.5157 1.30833)
(-1.61611 1.74817 1.30879)
(-1.12701 1.80137 1.15783)
(-1.15286 1.52399 0.73711)
(1.7213 -1.07935 0.0101588)
(1.62117 -1.73685 -0.286932)
(1.10775 -1.79415 0.446952)
(0.402539 -1.9353 -0.324472)
(-0.350646 -1.50557 0.16057)
(-0.976686 -0.634649 0.401051)
(-1.34447 -0.34906 1.54424)
(-1.91366 0.588281 0.564417)
(-1.896 0.90674 0.713376)
(-1.56089 1.28774 0.992619)
(-1.6023 1.34736 0.57986)
(-1.23329 1.55231 0.685222)
(-1.01573 1.65937 0.53837)
(-0.84706 1.37769 -0.60338)
(1.63816 -1.22733 -0.0283762)
(1.51817 -1.59633 -0.494219)
(0.441196 -2.06813 0.0742985)
(0.0843096 -2.13703 -0.249809)
(-0.233558 -1.80238 -0.212069)
(-0.63714 -1.48271 -0.321088)
(-1.48228 -0.88408 -0.0414757)
(-2.07723 0.0160145 0.0890101)
(-1.71346 0.581797 0.0227688)
(-1.69214 0.782174 -0.566967)
(-1.32253 1.20234 0.0202021)
(-1.26781 1.27007 -0.0115301)
(-0.957399 1.32627 -0.612001)
(-0.589437 1.8699 -0.211763)
(-0.745545 1.2436 -0.650088)
(0.859769 -1.35201 -0.199545)
(0.808185 -1.63868 -0.59724)
(0.286345 -2.17554 -0.324572)
(0.00453994 -2.16799 -0.578932)
(-0.351295 -1.88392 -0.837545)
(-0.803484 -1.81956 -0.977557)
(-1.39068 -1.28 -0.762703)
(-1.96258 -0.697994 -0.634822)
(-1.78302 0.284263 -0.518732)
(-1.67284 0.561255 -0.575562)
(-1.30165 0.609151 -0.448503)
(-1.32966 0.826142 -0.861284)
(-1.1944 0.552956 -1.15448)
(-0.759844 1.26706 -0.584217)
(-1.05467 1.07892 -0.632485)
(-0.453627 2.48654 2.98559)
(-0.857289 2.33989 3.21214)
(-0.509769 2.43399 3.35012)
(-0.622181 2.44124 3.13989)
(-0.742505 2.53639 3.18899)
(-0.218019 2.60191 3.35122)
(-0.483871 2.59329 3.30058)
(-0.72643 2.53343 3.14853)
(-0.784562 2.64974 3.37905)
(0.0293069 2.9274 3.49336)
(-0.258261 2.7554 3.48578)
(-0.699373 2.62501 3.42858)
(-0.647399 2.68991 3.38038)
(-1.0281 2.66188 3.37599)
(0.292651 3.15637 3.64477)
(-0.230986 3.09574 3.50691)
(-0.347236 3.02753 3.53237)
(-0.564908 3.03975 3.4083)
(-0.912829 2.77011 3.21786)
(-1.30971 2.9567 3.16909)
(0.493848 3.10434 3.84512)
(-0.0237497 3.55762 3.68141)
(-0.0924866 3.38478 3.70886)
(-0.533061 3.01489 3.70172)
(-0.726303 2.91361 3.47952)
(-1.06766 2.97791 2.96623)
(-1.22913 2.92937 3.31279)
(1.61258 2.55421 2.99096)
(0.511062 2.927 3.45216)
(0.052063 3.37693 3.53804)
(-0.401546 3.31061 3.81263)
(-0.840804 3.25083 3.65395)
(-0.913433 3.15303 3.43297)
(-1.22093 2.87807 3.11013)
(-1.68612 2.84517 3.04337)
(1.51013 2.15781 2.53973)
(0.594842 2.37728 2.81253)
(0.886493 2.44179 2.95861)
(-0.00961536 3.13151 3.17655)
(-0.546794 2.9694 3.46526)
(-1.27368 3.12237 3.52028)
(-1.56912 3.01466 3.16821)
(-1.08216 2.80095 3.03973)
(-1.72024 2.57222 2.98119)
(1.20579 2.09222 2.853)
(1.32482 2.06649 2.73779)
(0.967681 2.28419 3.15295)
(0.0450454 2.35934 2.94071)
(-0.298074 2.82883 2.67868)
(-0.937953 3.11284 2.89281)
(-1.4024 2.99926 3.11887)
(-1.54966 2.7725 3.01835)
(-1.09836 3.00406 2.51559)
(-1.80057 2.80591 2.39924)
(1.56599 1.70006 1.63449)
(1.36713 2.11414 2.18144)
(1.99499 1.64942 2.31471)
(-0.457577 1.93201 2.93802)
(-0.14319 2.09503 2.72606)
(-0.811803 2.41237 2.76507)
(-0.773357 2.94904 2.5039)
(-1.63141 3.0384 2.50784)
(-1.50323 2.98963 2.4709)
(-1.58851 2.87289 2.18615)
(-1.97235 2.55669 1.60163)
(1.68681 1.06037 0.512626)
(1.3766 0.882733 1.38913)
(1.81159 0.67397 1.17116)
(-0.0294945 0.94187 2.09559)
(-0.617202 1.44689 2.12548)
(-0.807868 1.86856 2.13723)
(-1.40425 1.86687 2.35487)
(-1.59548 2.30522 2.58704)
(-1.90757 2.39362 2.335)
(-1.70897 2.44034 2.20016)
(-1.52568 2.41183 2.04799)
(-1.54858 2.4272 1.35543)
(2.00278 -0.359244 0.628083)
(1.56165 -0.424306 0.912035)
(0.711556 0.000569894 0.819443)
(-0.141582 0.0315062 0.934823)
(-0.378744 0.525546 1.33498)
(-0.857157 0.891693 1.63539)
(-0.756494 2.19468 1.18714)
(-1.94156 1.76597 1.40074)
(-1.79905 2.08852 1.9432)
(-1.76584 2.23861 1.90743)
(-1.42717 2.49798 1.37385)
(-1.1486 2.22704 1.6272)
(-1.17346 1.78402 1.1358)
(1.89197 -0.80638 -0.0369023)
(1.65488 -1.16384 0.349947)
(0.932617 -1.32552 0.31637)
(0.176797 -1.05602 0.382422)
(-0.367486 -0.490479 0.866717)
(-1.15751 0.207187 0.887481)
(-1.02733 0.153175 1.74145)
(-0.659472 1.80716 1.52895)
(-1.85183 1.54757 1.21037)
(-2.09369 1.55847 1.23782)
(-1.65349 1.73907 1.32062)
(-1.13476 1.90058 1.15645)
(-0.976996 1.8276 1.26012)
(-0.935468 1.67095 0.61464)
(1.75248 -1.16895 -0.0990979)
(1.65696 -1.75788 -0.193901)
(1.11547 -1.85616 0.430418)
(0.502473 -2.01505 0.0210788)
(-0.342119 -1.53662 0.172293)
(-0.919041 -0.763382 0.305318)
(-1.20315 -0.309649 1.57432)
(-1.81859 0.569986 0.754514)
(-1.82661 0.824214 0.767563)
(-1.62344 1.1707 1.02905)
(-1.61848 1.32777 0.554849)
(-1.25485 1.52999 0.728618)
(-1.00922 1.65206 0.56343)
(-1.11459 1.5971 0.518092)
(-0.591923 1.86778 -0.192424)
(1.6191 -1.17654 0.0335438)
(1.47868 -1.51994 -0.585587)
(0.537389 -2.09036 0.100104)
(0.108512 -2.11964 -0.326382)
(-0.278067 -1.79462 -0.271071)
(-0.511122 -1.61177 -0.150032)
(-1.47078 -0.880564 0.0829129)
(-2.00417 -0.0695494 -0.0308297)
(-1.67586 0.563051 -0.0789416)
(-1.66411 0.740619 -0.599323)
(-1.3169 1.19513 0.128202)
(-1.26101 1.27749 0.0304801)
(-0.997606 1.27964 -0.675683)
(-0.607051 1.88154 -0.108787)
(-0.30947 1.91181 0.801853)
(-1.10162 1.05761 -0.700736)
(0.891632 -1.3776 -0.357038)
(0.837592 -1.66228 -0.649018)
(0.295246 -2.15826 -0.344289)
(-0.00178785 -2.16466 -0.581123)
(-0.369392 -1.88033 -0.831964)
(-0.832874 -1.78232 -0.972145)
(-1.37085 -1.29177 -0.792745)
(-1.9623 -0.685922 -0.625933)
(-1.78073 0.268357 -0.506137)
(-1.67462 0.551552 -0.567472)
(-1.28347 0.620796 -0.492507)
(-1.3446 0.813458 -0.858796)
(-1.18967 0.551272 -1.17719)
(-0.765829 1.27421 -0.578386)
(-1.0009 1.09889 -0.584072)
(-1.21817 0.305284 -0.459591)
(-0.528197 2.19657 2.90436)
(-0.533756 2.51056 2.89945)
(-0.173828 2.48901 3.08385)
(-0.391829 2.29245 3.02584)
(-0.726387 2.46658 3.08271)
(-0.345154 2.51893 3.31983)
(-0.477924 2.39805 3.2515)
(-0.654448 2.51841 2.9754)
(-0.893619 2.50476 3.13719)
(0.118236 2.52704 3.47303)
(-0.402771 2.57962 3.35875)
(-0.490873 2.57338 3.21387)
(-0.453549 2.52517 3.19036)
(-0.84998 2.63944 3.32047)
(0.296326 2.90124 3.51856)
(-0.098644 2.85465 3.51287)
(-0.488735 2.64692 3.47247)
(-0.52121 2.75707 3.36966)
(-0.458753 2.60675 3.24506)
(-0.823254 2.70674 3.23613)
(0.480402 3.11873 3.6841)
(0.217961 3.09111 3.57338)
(-0.280651 3.0375 3.54675)
(-0.450792 3.07503 3.45851)
(-0.950974 2.78352 3.27496)
(-0.732002 2.82693 2.95555)
(-1.12952 2.97218 2.95499)
(0.450962 2.93342 3.82178)
(0.0447755 3.52796 3.74236)
(0.102847 3.44157 3.67359)
(-0.370772 3.0757 3.76985)
(-0.715851 2.98053 3.50658)
(-0.912973 2.99588 3.05331)
(-0.884437 2.91108 2.90622)
(-1.18566 2.78749 3.06388)
(0.991073 2.30211 3.1493)
(1.04209 2.73838 3.3158)
(0.278015 2.98973 3.47351)
(-0.164633 3.25556 3.69348)
(-0.724161 3.18263 3.74264)
(-0.980622 2.96274 3.70462)
(-1.19482 2.88683 3.22715)
(-0.607289 2.827 2.80496)
(-1.54144 2.37356 2.98308)
(1.31878 2.1008 2.68554)
(1.03265 2.21105 2.78883)
(0.860331 2.21255 2.96054)
(0.445228 2.89304 3.0364)
(-0.291562 3.07165 3.12358)
(-0.82781 3.15011 3.4523)
(-1.21017 3.22283 3.29935)
(-1.0246 2.8585 3.1287)
(-0.938553 2.6873 2.56438)
(-1.67629 2.67974 2.32824)
(1.317 2.01352 2.87293)
(1.46605 2.14302 2.61778)
(1.33446 2.09808 2.94071)
(0.741084 2.34848 2.99493)
(-0.436952 2.70171 2.63639)
(-0.498668 3.02449 2.7772)
(-1.23886 2.73115 3.23332)
(-1.43327 2.89822 3.08807)
(-1.57197 2.86652 2.62823)
(-1.25113 2.61215 2.451)
(-1.71211 2.81053 2.14259)
(1.6031 1.73982 1.23775)
(1.33888 2.03919 1.85965)
(1.25053 1.70986 2.20688)
(-0.273356 1.93237 2.73808)
(-0.371692 1.96371 2.68275)
(-0.610969 2.31217 2.65623)
(-1.16851 2.97163 2.00501)
(-1.53017 3.04179 2.39472)
(-1.55183 2.99215 2.50226)
(-1.50926 2.7858 2.2662)
(-0.908383 2.71901 2.07658)
(-1.18665 2.91098 1.31055)
(2.26653 0.52258 0.122263)
(1.53415 0.724518 1.24335)
(1.40512 0.759501 1.21731)
(-0.105469 0.926424 1.88782)
(-0.516296 1.32509 1.96466)
(-0.690062 1.84425 2.03835)
(-1.10184 1.8261 2.29328)
(-1.02514 2.22766 2.62249)
(-1.75907 2.35369 2.40408)
(-1.84807 2.38316 2.21278)
(-1.31095 2.66194 1.86062)
(-1.12875 2.65107 1.79473)
(-1.20746 2.33801 1.35667)
(2.33555 -0.645723 0.622796)
(1.76424 -0.863787 0.694184)
(0.953411 -0.318483 0.786483)
(-0.137441 -0.0463878 0.83402)
(-0.131604 0.304134 1.2559)
(-0.784573 1.02023 1.3129)
(-0.657507 1.99157 1.24542)
(-1.74921 1.89027 1.21288)
(-1.5079 2.09017 1.87238)