/*--------------------------------*- C++ -*----------------------------------*\
  =========                 |
  \\      /  F ield         | OpenFOAM: The Open Source CFD Toolbox
   \\    /   O peration     | Website:  https://openfoam.org
    \\  /    A nd           | Version:  7
     \\/     M anipulation  |
\*---------------------------------------------------------------------------*/
FoamFile
{
    version     2.0;
    format      ascii;
    class       volScalarField;
    location    "1.5";
    object      nut;
}
// * * * * * * * * * * * * * * * * * * * * * * * * * * * * * * * * * * * * * //

dimensions      [0 2 -1 0 0 0 0];

internalField   nonuniform List<scalar> 
18750
(
0.000867708
0.000952491
0.000650131
0.000711886
0.000947287
0.0010807
0.00124741
0.00103213
0.000596292
0.000616386
0.00199109
0.00122912
0.000974324
0.000419558
0.000827333
0.00112322
0.00093597
0.000959962
0.000652776
0.000578384
0.00316325
0.000816315
0.00190278
0.000704169
0.000610618
0.00143539
0.000511363
0.000519953
0.000588134
0.000791232
0.00044791
0.000609002
0.000775035
0.000611125
0.000510589
0.0024123
0.00187196
0.0027294
0.000908036
0.00114814
0.00214449
0.000867658
0.000680424
0.000954525
0.00100583
0.00036447
0.000418896
0.000901334
0.000403968
0.000724312
0.000550342
0.000572781
0.000486218
0.000564662
0.000559053
0.000389563
0.00251664
0.00184993
0.00231592
0.00134466
0.00190125
0.00229807
0.000661697
0.000817324
0.00100085
0.00237662
0.000405869
0.000869265
0.000645472
0.00141512
0.00151611
0.000184677
0.000318281
0.000484139
0.000634485
0.00035479
0.000660468
0.000253181
0.000638472
0.000729434
0.000474284
0.000396281
0.0004845
0.000265749
0.00230093
0.00117287
0.00245253
0.00120005
0.00194768
0.00235171
0.00115435
0.00134868
0.00154852
0.00231496
0.000601423
0.000533216
0.000605442
0.00107056
0.00272842
0.000475048
0.00029893
0.000589973
0.00099218
0.00145
0.0017902
0.000283495
0.000223967
0.000393283
0.000680985
0.000748728
0.000577356
0.000967785
0.000452404
0.000372379
0.000688002
0.000623323
0.000364926
0.000392235
0.000402444
0.000235103
0.00257155
0.000944635
0.0023513
0.0010783
0.00109649
0.00241184
0.000623502
0.00165911
0.00175204
0.00247534
0.000857245
0.00104266
0.00129714
0.00156486
0.00267195
0.000666174
0.000620739
0.000584597
0.000502956
0.00123584
0.00263384
0.00034561
0.000449176
0.000164269
0.000335132
0.00120242
0.00170285
0.00123143
0.000346594
0.000222582
0.00032491
0.00045962
0.00064565
0.000665532
0.000706401
0.00102654
0.000463388
0.000483657
0.000470046
0.000738732
0.00056627
0.000294901
0.000567104
0.000318454
0.000260979
0.00259489
0.000630216
0.00268339
0.000839607
0.000950314
0.00240976
0.00106398
0.0010698
0.0012376
0.0023119
0.000697452
0.00098379
0.00133429
0.00160258
0.0024491
0.000619365
0.000622503
0.000572579
0.00102317
0.00145411
0.00273513
0.000691999
0.000589868
0.000637445
0.00123144
0.000837673
0.00104368
0.00251909
0.000243349
0.00036143
0.000631613
0.000160021
0.000555372
0.0025316
0.00134889
0.0013689
0.000501446
0.000439187
0.000215499
0.000264177
0.00043415
0.000366692
0.000315462
0.00107685
0.000905426
0.000346457
0.000509937
0.000463768
0.000515784
0.000720268
0.000570234
0.000152496
0.000299735
0.000285947
0.000285926
0.00257122
0.00125018
0.00249304
0.000841371
0.000839262
0.00260775
0.000671105
0.000643027
0.000882275
0.00252676
0.000842386
0.00121293
0.00146143
0.00120391
0.00241522
0.000711369
0.00044253
0.00115902
0.00181879
0.00152845
0.00261078
0.000722401
0.000485123
0.000549251
0.000648505
0.00141697
0.00178271
0.00250653
0.000839362
0.000584852
0.000485448
0.000423059
0.00129255
0.00141614
0.00151608
0.0024005
0.000146295
0.000296279
0.000457309
0.000549566
7.02409e-05
0.000521749
0.00208503
0.000968043
0.0017475
0.000739028
0.000410557
0.000473939
0.000252546
0.000364849
0.000602617
0.000361371
0.000637611
0.00108738
0.000800131
0.000112754
0.000429819
0.000544766
0.000450117
0.000572537
0.000753659
0.000566375
0.000108332
0.000262748
0.000338192
0.000305374
0.00244135
0.000808766
0.00244196
0.00056428
0.00122948
0.00264283
0.000452594
0.000795076
0.000989613
0.0025601
0.000705801
0.000820801
0.000737306
0.000858639
0.0024206
0.000573289
0.000795938
0.00113034
0.0011096
0.000825964
0.00265473
0.00043516
0.000689958
0.000490379
0.00112195
0.00120194
0.00238804
0.00227259
0.000676613
0.000759379
0.000471662
0.000655542
0.000389811
0.000887906
0.00127802
0.00233721
0.000805432
0.000631973
0.000418387
0.000617991
0.00053935
0.000684133
0.00202253
0.00133539
0.00192049
0.000839334
0.000351495
0.000248407
0.000490545
0.000585725
0.000165771
0.000860121
0.000975816
0.000982271
0.00204268
0.000441788
0.00068126
0.000341846
0.000393039
0.000390532
0.000428555
0.00103011
0.000823522
0.000828306
0.000777629
0.000649731
0.000256173
0.000195666
0.000357616
0.000462165
0.000472898
0.000628004
0.00086125
0.000451507
0.000101978
0.000234843
0.000240794
0.000363024
0.00231097
0.00069107
0.00238148
0.000726482
0.00093476
0.0021977
0.000649207
0.0006905
0.00110879
0.00284134
0.0005479
0.000614993
0.000423894
0.00132896
0.00264254
0.000865008
0.00105561
0.000683703
0.00089919
0.00088368
0.00233461
0.000607342
0.00043427
0.000537624
0.000951333
0.000966248
0.00087852
0.00251315
0.000552827
0.000449116
0.000627304
0.000890506
0.000537322
0.00139549
0.00184971
0.00216285
0.000778307
0.000649923
0.00100775
0.000325574
0.000458811
0.00105979
0.00145321
0.00166583
0.00189538
0.000643634
0.000732284
0.000685007
0.00052193
0.000618064
0.000628829
0.000702854
0.000754447
0.000737314
0.0014674
0.000604039
0.000340235
0.000381314
0.000271361
0.000671116
0.000688071
0.000485925
0.0008751
0.0016078
0.00107521
0.0020691
0.000249753
0.000436118
0.000596008
0.000319034
0.000305057
0.000447464
0.000422588
0.000381055
0.000584098
0.000741671
0.000753347
0.000673539
0.000207495
0.000297272
0.000374989
0.000325614
0.000318039
0.000431088
0.000585034
0.000571048
0.000383317
0.000199893
0.000441712
0.000198327
0.000405387
0.00234521
0.000630903
0.00233825
0.000553171
0.000733359
0.00229032
0.000504861
0.000596344
0.00080407
0.00209966
0.000596873
0.000823098
0.000535137
0.000663705
0.00267125
0.000815875
0.000548345
0.000491802
0.000696146
0.000995952
0.00246231
0.00108739
0.00065369
0.00100719
0.000843842
0.000825622
0.000897328
0.00250295
0.000984821
0.00046324
0.000711172
0.000727204
0.00120086
0.0013864
0.001172
0.00235473
0.00045204
0.000422171
0.000339868
0.000506405
0.000463342
0.00108913
0.00133492
0.00189307
0.00203161
0.000650063
0.000453367
0.000373462
0.000803106
0.00047518
0.00071457
0.000547312
0.00137139
0.00205202
0.00171453
0.000520495
0.000605746
0.000770527
0.000506538
0.000456593
0.000986856
0.000893856
0.00144556
0.00277983
0.00178009
0.00133824
0.00023874
0.000366588
0.000294686
0.000375663
0.000433378
0.000453739
0.000462269
0.000568561
0.000861349
0.00145714
0.000830664
0.00160335
0.000172213
0.000344471
0.000409119
0.000516053
0.00040704
0.000227162
0.000413255
0.000368543
0.000799954
0.000409988
0.000636467
0.000819324
0.00087611
0.000241266
0.000304506
0.000302422
0.00048368
0.000204902
0.000314598
0.000444437
0.000415694
0.000489415
0.000318813
0.000137221
0.000383742
0.000291662
0.000404658
0.00217373
0.000926801
0.00216738
0.000312677
0.000392054
0.00231049
0.000515208
0.000522849
0.000724015
0.00237763
0.00051396
0.000563414
0.00059895
0.000645821
0.00210445
0.000786582
0.000559916
0.000648565
0.00061732
0.000709561
0.00238975
0.000728276
0.000675812
0.000663609
0.000598922
0.000625307
0.000811951
0.00249731
0.000702398
0.000481541
0.000601456
0.000691058
0.000973083
0.000673109
0.000683775
0.00238981
0.00051818
0.000809159
0.000612967
0.000860841
0.000966348
0.000756143
0.00101814
0.000792279
0.00275042
0.0001427
0.000528367
0.000374183
0.000515711
0.00053473
0.000562601
0.00158775
0.00184405
0.00156451
0.00185902
0.000396057
0.000456127
0.000596899
0.000555582
0.000558741
0.000559827
0.000666231
0.00100115
0.00172304
0.00244541
0.00168215
0.000574084
0.000822905
0.000630248
0.000529183
0.000500595
0.000739407
0.00110768
0.00063066
0.00116677
0.00299087
0.00139875
0.00130385
0.000186742
0.000280101
0.000226144
0.000544611
0.000244228
0.000215954
0.000546276
0.000459272
0.000415507
0.000869463
0.00109055
0.000799317
0.00131362
0.000280974
0.000159017
0.000249722
0.000447212
0.000446423
0.000426337
0.000186028
0.000337449
0.000541747
0.000284019
0.000365636
0.000628298
0.000795734
0.00091722
0.000146872
0.000222279
0.000375292
0.000255144
0.000462037
0.000293896
0.000479575
0.000506152
0.000435836
0.000437137
0.000242288
7.85359e-05
0.000454657
0.000289044
0.000310474
0.0023202
0.000598616
0.00214735
0.000517275
0.00103603
0.00217312
0.000670142
0.000389813
0.000323603
0.00225981
0.000397539
0.000331243
0.000585941
0.000671318
0.00232158
0.000389847
0.000528912
0.000773237
0.000569035
0.00080919
0.00214739
0.000644754
0.000607602
0.000483841
0.000465828
0.000628657
0.000595567
0.00224818
0.000616158
0.000963529
0.000731467
0.000886804
0.00080406
0.00066989
0.00085642
0.00255352
0.000858965
0.000962692
0.000266073
0.000637398
0.000692856
0.000978692
0.000781107
0.000663327
0.00211322
0.000487198
0.000812667
0.000494235
0.000693907
0.000486677
0.000893117
0.00075781
0.00138585
0.000882376
0.0021294
0.000242988
0.000461771
0.000318702
0.000514166
0.000468506
0.000609092
0.000953249
0.00195065
0.00143837
0.00147459
0.00198835
0.000514348
0.00053303
0.00051817
0.000295222
0.000212387
0.000565407
0.000709862
0.00131658
0.000900665
0.000602765
0.00216497
0.00185679
0.000627969
0.000385497
0.000420236
0.000994176
0.000480647
0.000358565
0.000620932
0.000791318
0.00119117
0.000939716
0.00149827
0.00157903
0.00169822
0.000359994
0.000253418
0.000140582
0.000560732
0.000484701
0.000240355
0.000283107
0.000485297
0.000428122
0.000553886
0.000682988
0.00143488
0.000257673
0.0013352
0.000224389
0.000202041
0.000160332
0.000305573
0.000504804
0.000349128
0.00036746
0.000310152
0.000398464
0.000202728
0.000471051
0.00025448
0.000636368
0.0006618
0.00101243
0.000145634
0.000125453
0.000229829
0.000421803
0.000284098
0.000294628
0.000435413
0.00048679
0.000513738
0.000367701
0.000308884
0.000141928
7.25115e-05
0.000232583
0.00037476
0.000308455
0.00224581
0.000685004
0.00230811
0.000526911
0.000666858
0.00214836
0.000453346
0.000248069
0.000625169
0.00210412
0.000423071
0.000559835
0.000473728
0.000362117
0.00234576
0.000412477
0.000418938
0.000500059
0.000654626
0.000808047
0.00240992
0.000752051
0.000578804
0.000554824
0.000638197
0.000604094
0.000649116
0.00222414
0.000486326
0.000538193
0.000491906
0.000534222
0.000512217
0.000513498
0.000542314
0.00209529
0.000622637
0.000778624
0.000548748
0.000750857
0.000688148
0.000672287
0.0006546
0.000866199
0.00226245
0.000488663
0.000596182
0.000557193
0.000711892
0.00062649
0.000719429
0.00071228
0.000683122
0.000703999
0.00214594
0.00040297
0.000592807
0.000788518
0.0010509
0.000598349
0.000928982
0.000644714
0.000884212
0.00103704
0.000830166
0.00203988
0.000294225
0.000284702
0.00012093
0.000378213
0.000485098
0.000674359
0.000410846
0.0014028
0.000927769
0.00104211
0.00116972
0.00200502
0.00049643
0.000515653
0.000609943
0.000439665
0.000373673
0.000532117
0.000982674
0.000536464
0.000613448
0.00155743
0.000888294
0.00216664
0.00192955
0.000454919
0.000513335
0.000482497
0.000850894
0.000625072
0.000734663
0.000431785
0.000902161
0.000841124
0.000421123
0.00153215
0.000820659
0.00146512
0.00230544
0.000425355
0.000206467
0.000102397
0.000324203
0.000246237
0.000312575
0.000255094
0.00027281
0.000488695
0.000514021
0.000552874
0.000629971
0.00107325
0.000288464
0.0014347
0.000247493
0.000213778
0.000195442
0.000182457
0.000329167
0.000483752
0.000328162
0.000343113
0.000310885
0.000347014
0.000251655
0.000467645
0.000266391
0.00103374
0.000469618
0.00109656
0.000192821
0.000133369
0.000113363
0.000228988
0.000422872
0.00024797
0.00022873
0.000407766
0.000271428
0.000453133
0.000277437
0.000190321
0.000198229
9.63056e-05
0.000738944
0.000301544
0.000578772
0.00212835
0.000373692
0.00222733
0.00030663
0.000590124
0.00228816
0.00045729
0.000453602
0.00072915
0.00226718
0.000498589
0.000549299
0.000538123
0.000684573
0.00221816
0.000353021
0.000272399
0.000311596
0.000390042
0.000326961
0.00224332
0.00048158
0.000376784
0.000377604
0.000419096
0.000556892
0.000657979
0.00246653
0.00056581
0.000544478
0.000630214
0.000431281
0.000627386
0.000645752
0.000543215
0.00226658
0.000627223
0.000714407
0.00040563
0.000515644
0.000595535
0.000532861
0.000451739
0.000560415
0.0021637
0.000792229
0.00076716
0.00088229
0.000571498
0.000531252
0.000757021
0.000678988
0.0005715
0.000892271
0.00223311
0.000782494
0.000634748
0.000572484
0.000455676
0.00065934
0.000448393
0.000667449
0.00069682
0.000865853
0.000604732
0.00215959
0.000615233
0.00046747
0.000863944
0.000614305
0.000994764
0.000529225
0.00120923
0.000955441
0.00209559
0.00159578
0.000889698
0.00234077
0.000196946
0.000280045
0.000343948
0.00022228
0.000430248
0.000274647
0.000370735
0.000459764
0.000974402
0.00204495
0.00195152
0.00118249
0.00216975
0.000664685
0.000492879
0.000491562
0.000513419
0.000580646
0.000556717
0.000293237
0.000622401
0.000211241
0.00179024
0.00087619
0.00100786
0.00151638
0.00185137
0.000578266
0.000922467
0.000769469
0.000520123
0.000556069
0.00106876
0.000973161
0.000354141
0.000677743
0.000789989
0.00134866
0.00185308
0.0006315
0.00140451
0.002322
0.000487857
8.89917e-05
0.000111481
0.0001953
0.000136783
0.000510977
0.000106152
0.000495104
0.000413242
0.000588542
0.000500549
0.000719905
0.000578597
0.00106605
0.000685758
0.00163685
0.000327234
0.000198954
0.000162519
0.000188524
0.000170898
0.000278558
0.000325464
0.00028571
0.000285416
0.000257899
0.000500393
0.00072175
0.000308046
0.00021073
0.00127192
0.000329508
0.00102757
0.000340466
0.000185453
0.000145403
0.000114277
0.000206988
0.000381965
0.000133943
0.000483755
0.000323357
0.000172708
0.000748153
0.000250858
0.000261499
0.000103661
0.000317349
0.000575018
0.000496319
0.000464375
0.00219078
0.000395709
0.00209595
0.000297221
0.000481736
0.00218608
0.000461392
0.000321082
0.000689715
0.00230238
0.000313769
0.000330842
0.000393079
0.000793064
0.00221651
0.000435711
0.000412119
0.000480698
0.000461532
0.000636161
0.00220938
0.000569253
0.000340426
0.000456304
0.000449699
0.000683737
0.000659794
0.0022308
0.000486225
0.000604416
0.000433337
0.000387971
0.000471382
0.000425018
0.000554099
0.00242978
0.000642677
0.00067815
0.000304984
0.00045995
0.000516608
0.000588732
0.000550491
0.00059964
0.00234305
0.000566234
0.00044984
0.000398976
0.000560566
0.000665476
0.000652206
0.000458941
0.00060251
0.000666104
0.00216792
0.000526486
0.000442333
0.000373421
0.000816468
0.000550443
0.000582582
0.000532332
0.00048894
0.000562223
0.000525395
0.00227797
0.00076247
0.000748939
0.000691645
0.000508107
0.000456953
0.000720193
0.000669084
0.000785567
0.00123952
0.000557696
0.000652138
0.00225242
0.000633039
0.000692586
0.000681819
0.000513752
0.00107617
0.000582218
0.000885823
0.000645592
0.0012176
0.000859236
0.00107276
0.000802002
0.00229153
0.000344493
0.000531219
0.000178704
0.000489217
0.000380559
0.000173267
0.00074588
0.000355586
0.000714113
0.00165989
0.0018873
0.00139995
0.0014106
0.00254091
0.000501073
0.000500185
0.000829694
0.000799714
0.000610986
0.000618014
0.000235168
0.00116696
0.000384984
0.00043241
0.00064565
0.000755019
0.00131454
0.00171084
0.0018411
0.00066861
0.00056176
0.000445917
0.000572895
0.000631585
0.00108449
0.00039691
0.000589562
0.000532544
0.000744625
0.00143144
0.00136286
0.0019817
0.000709398
0.00129911
0.00220035
0.000991489
0.000631534
0.000341712
0.000213699
8.98502e-05
0.000122233
0.000342046
0.000255924
0.000403947
0.000821667
0.000595944
0.000625841
0.0011964
0.00063544
0.000930585
0.000929222
0.00124141
0.00030449
0.000165411
0.000303419
0.000136599
0.000176672
0.00017658
0.00020371
0.000276946
0.00026208
0.000255421
8.17588e-05
0.000532157
0.000893159
0.000516113
0.0004263
0.000795762
0.000225494
0.0010238
5.41383e-05
0.000215742
0.000171395
0.000156886
0.000153427
0.000214083
0.000288158
0.000240437
0.00053274
0.000257065
0.000160452
0.000446793
0.000187844
0.000250701
7.91329e-05
0.000113391
0.00028516
0.000256913
0.000413043
0.00210627
0.00028927
0.00220692
0.000384578
0.000382821
0.00208673
0.000286789
0.000427793
0.000496429
0.00215482
0.000357677
0.000339399
0.000283715
0.000774494
0.00224977
0.000315214
0.000287766
0.000502828
0.000419246
0.000582368
0.00224643
0.000721209
0.000368548
0.00045829
0.000464798
0.000466681
0.000426926
0.00216757
0.00066918
0.000494376
0.000429595
0.000302826
0.000411873
0.000416604
0.000583601
0.00218268
0.000365742
0.000445356
0.000504307
0.000572765
0.000392703
0.000409986
0.000635127
0.000819801
0.0024005
0.000625162
0.000470723
0.000534645
0.000474248
0.000405303
0.000363609
0.000542173
0.000498465
0.000684138
0.00235031
0.000590023
0.000649527
0.000805597
0.000674546
0.000561272
0.000445143
0.000604449
0.000546975
0.000464273
0.000536671
0.00208312
0.000529378
0.000436855
0.00037115
0.000634063
0.00039935
0.000625863
0.000536044
0.000464575
0.000348863
0.000657145
0.000537097
0.00227031
0.000692964
0.000533309
0.000696861
0.00063394
0.000359225
0.000589151
0.000541921
0.000799072
0.000922083
0.00106166
0.000698695
0.000519638
0.0022687
0.000583033
0.000876484
0.000639434
0.000712262
0.000785013
0.000729676
0.000460703
0.00108238
0.000692517
0.000774991
0.00110765
0.00172895
0.000863879
0.0022327
0.000310989
0.000473235
0.000811772
0.000513567
0.000179871
0.000224306
0.000148135
0.000515592
0.000489596
0.000680984
0.000968653
0.000677607
0.000511593
0.000976647
0.0026067
0.00109713
0.000647649
0.000730191
0.000640387
0.000583329
0.000741431
0.000696281
0.000497969
0.000688247
0.000428466
0.000974958
0.00143234
0.00118449
0.00129384
0.00179916
0.00186986
0.000184684
0.000134626
0.000340408
0.000546767
0.000243987
0.000820182
0.000292782
0.00104174
0.00117785
0.000630057
0.000786503
0.00113535
0.00138648
0.00196059
0.000949959
0.00115642
0.00194364
0.000417052
0.000471894
0.000483407
0.000268123
0.000183373
0.000185499
0.000407059
0.000263602
0.0002813
0.000480085
0.000372558
0.000646472
0.000613347
0.00132634
0.000780494
0.000727063
0.000639564
0.00165301
0.000180788
0.00029016
0.000364271
0.000164606
0.000158336
0.000139223
0.000207415
0.000226102
0.000264531
0.000253784
0.000210014
0.000282051
0.000423052
0.000805126
0.00068299
0.000396181
0.000665445
0.000189437
0.00107737
0.000146561
0.000159395
0.000126231
0.000189459
0.00015307
0.000166644
0.000208824
0.000188252
0.00022707
0.000508357
0.000300218
0.000173643
0.000347613
9.70641e-05
7.22842e-05
6.74782e-05
7.38164e-05
0.000604513
0.000525164
0.000737811
0.00216345
0.000361938
0.00207697
0.000350004
0.000332827
0.00224159
0.000306726
0.000312844
0.000400297
0.00212446
0.000475405
0.000432895
0.000489288
0.000486605
0.00209325
0.000239724
0.000313307
0.000504115
0.00028276
0.000669565
0.00229502
0.00042479
0.000282209
0.000490669
0.000463972
0.00042361
0.000542763
0.00211598
0.000329181
0.000595926
0.000344153
0.000316192
0.000453936
0.000810793
0.000606513
0.00220656
0.000471661
0.000545581
0.000485898
0.000589646
0.00034711
0.000410163
0.000282282
0.000598307
0.00213167
0.000330736
0.000396275
0.00065528
0.000411759
0.000255046
0.000537502
0.000423866
0.000420511
0.000603697
0.00252269
0.000419915
0.000562006
0.000589729
0.000380139
0.000625468
0.000547552
0.000499182
0.00043843
0.000579804
0.000735458
0.00240094
0.000526744
0.000433075
0.000536871
0.000359714
0.000567662
0.00066929
0.000375942
0.000305827
0.000489888
0.000720705
0.000576047
0.00218549
0.000494239
0.000486547
0.00054564
0.000669126
0.000777682
0.000427648
0.00059437
0.000658443
0.0006839
0.000975561
0.000417772
0.000613506
0.00223393
0.00063134
0.000746603
0.000643515
0.000779153
0.000326436
0.000632704
0.000681822
0.000390902
0.00101409
0.000862589
0.000981801
0.000608968
0.000335486
0.00207252
0.00043471
0.00102995
0.000236466
0.000799796
0.000950664
0.000450949
0.000731516
0.000720686
0.000840438
0.000604038
0.00104695
0.00184664
0.000806653
0.000644164
0.00243349
0.000291319
0.000167639
0.000231599
0.000339748
0.000148124
0.000104629
0.000520022
0.000525139
0.000660402
0.000318473
0.000696136
0.00104413
0.00154828
0.00145552
0.00102496
0.00241643
0.00120712
0.000750067
0.000695225
0.000666474
0.00098564
0.000756293
0.000783455
0.000621664
0.000565129
0.000638005
0.000781269
0.000772137
0.00122186
0.00125393
0.00179731
0.00161257
0.00186218
0.000486694
0.00206784
0.000828867
0.00100288
0.000643145
0.000243397
0.000521959
0.000539744
0.000619532
0.000600463
0.00070896
0.000739555
0.00179273
0.000927486
0.00216292
0.000677508
0.00122757
0.0016704
0.000354121
0.000391881
0.00115086
0.000650846
0.000173367
0.000158839
0.000156488
0.000205149
0.000193469
0.00019369
0.000444391
0.000869263
0.000685028
0.000507313
0.000921209
0.000826924
0.000718909
0.000500959
0.00242541
0.000334289
0.00028093
0.000268413
0.000188359
0.000318111
0.000247129
0.000151038
0.000201504
0.000233732
0.000291442
0.000257542
0.000230273
0.000280115
0.000210638
0.000651812
0.000774964
0.000354345
0.000770123
0.000222131
0.00101937
0.000175369
0.000214007
0.000283379
0.000140584
0.000192978
0.000195968
0.000180943
0.000162944
0.000171281
0.000271638
0.000395913
0.000233758
0.000217865
0.000324498
0.000121634
8.90577e-05
0.000212701
3.72448e-05
0.000269081
0.000325194
0.000527959
0.00203734
0.000287861
0.00221149
0.000398144
0.000427345
0.00208942
0.000363197
0.000432566
0.000447977
0.00223158
0.000590669
0.000159487
0.000467019
0.000571753
0.00226266
0.000274331
0.000293207
0.000402625
0.000643062
0.000655409
0.00210545
0.000457886
0.000333078
0.000307302
0.00041716
0.000408016
0.000660209
0.00217623
0.000431977
0.000446802
0.000193518
0.000463124
0.000470772
0.000282318
0.000663461
0.0022366
0.000307466
0.000518185
0.000523582
0.000426748
0.000298049
0.000498966
0.000670612
0.000407117
0.00225749
0.000472001
0.000439412
0.000436547
0.000431121
0.000524452
0.000497489
0.000158257
0.000370561
0.000768993
0.00204312
0.000333581
0.000454179
0.000533536
0.000367562
0.000422899
0.000475962
0.000405249
0.000675717
0.00046619
0.000503264
0.00235837
0.000565566
0.00060026
0.000431421
0.00045289
0.000550392
0.000305683
0.000453755
0.000548182
0.000383692
0.000659009
0.000843273
0.00248532
0.00052468
0.000454815
0.000501774
0.00037951
0.00068272
0.00053742
0.000628614
0.000370962
0.000478039
0.000566106
0.00058983
0.000569967
0.00226075
0.000532747
0.000573745
0.000600711
0.000636759
0.000503254
0.000502101
0.000532394
0.000501768
0.000589766
0.0006835
0.000519991
0.000727924
0.000708688
0.00234343
0.00066494
0.000553708
0.00107143
0.00073443
0.000422569
0.000467629
0.000583752
0.000580193
0.00108921
0.000795436
0.000712745
0.00113605
0.00152529
0.00061818
0.00213498
0.000666831
0.00062366
0.000753832
0.00123465
0.000825983
0.000763121
0.000537499
0.00120851
0.00140791
0.000456911
0.000953335
0.00124303
0.00123385
0.000917809
0.000774546
0.00210359
0.000712014
0.000696706
0.000212339
0.000420702
0.000748617
0.000342742
0.000297033
0.000253156
0.00034402
0.000383353
0.000522922
0.00105449
0.00104965
0.000870995
0.00193169
0.00165784
0.00233445
0.00136215
0.000828563
0.00101634
0.000891419
0.000907051
0.000832248
0.00101495
0.000678954
0.000676775
0.000467901
0.000660362
0.000494956
0.000493206
0.00119817
0.000157539
0.000934662
0.000724522
0.00190929
0.000469139
0.000818329
0.000453797
0.00118739
0.000560693
0.000596551
0.000710699
0.000992225
0.000530734
0.000686196
0.000686673
0.000725775
0.000697474
0.00185565
0.00254988
0.0017052
0.000756047
0.00182177
0.00168723
0.000457483
0.000372858
0.000427466
0.000799825
0.000523532
0.000154502
0.000245028
0.000383959
0.000266134
0.000130952
0.000224537
0.000378475
0.000723102
0.000506247
0.000508638
0.00108782
0.00118487
0.00083696
0.000734043
0.00191513
0.000434643
0.000333763
0.000317115
0.000209999
0.000182537
0.000203789
0.000227231
0.00017307
0.000215278
0.000216842
0.000253145
0.000283947
0.000293713
0.000266877
0.000345446
0.000416422
0.000556185
0.000317508
0.000873916
0.000304784
0.00103254
0.000106581
0.000193411
0.000311708
3.81392e-05
0.00011587
0.000192645
0.000212267
0.000232003
0.000135536
0.000211678
0.00032305
0.000269082
0.000244232
0.000158821
0.000180025
0.000243226
0.000172378
0.000225698
0.000104176
0.000293305
0.000279308
0.00041038
0.002139
0.000281773
0.0021042
0.000296434
0.00044798
0.0021665
0.000277116
0.000280866
0.000440741
0.00214561
0.000237424
0.000250434
0.000213778
0.000360308
0.00224094
0.000558293
0.000262903
0.000375796
0.000422469
0.000456617
0.00217638
0.000326768
0.000200014
0.000450293
0.000485427
0.000775588
0.000681253
0.00209396
0.000580848
0.000461116
0.00025477
0.000366714
0.000426497
0.000475192
0.000697686
0.00215948
0.000426083
0.000398631
0.000379741
0.000257619
0.000495091
0.000305312
0.000348111
0.000584829
0.00224192
0.000278999
0.000397936
0.000559098
0.000451442
0.00048031
0.00045984
0.000250939
0.000555063
0.000406417
0.00226671
0.000394123
0.000398643
0.000342145
0.000383202
0.000529676
0.000573528
0.000486162
0.000697726
0.000462893
0.00054012
0.0020604
0.000398622
0.000411125
0.000548402
0.000531581
0.000527208
0.000497204
0.000504751
0.000345805
0.00041423
0.000480834
0.000714505
0.0021745
0.000356744
0.000470334
0.000458062
0.000451376
0.000525763
0.00036509
0.000527871
0.000382512
0.000492868
0.000503177
0.000814804
0.000707452
0.0024664
0.000560091
0.00059008
0.000359275
0.000564959
0.000405654
0.000460373
0.000536931
0.000401372
0.000683695
0.000496406
0.000358632
0.000558835
0.000647875
0.00224955
0.000730789
0.000549325
0.000778565
0.000587
0.000336041
0.000321498
0.000738163
0.000454894
0.000564993
0.000362153
0.000779737
0.000752374
0.000677563
0.000928228
0.00237267
0.000557628
0.0008371
0.00096128
0.000842501
0.000834505
0.000777363
0.000571965
0.000525844
0.00064157
0.000828114
0.000854258
0.000797956
0.000620815
0.000614607
0.00140644
0.00222049
0.00022844
0.00027222
0.000552245
0.00066961
0.000694014
0.000516724
0.000882623
0.00156107
0.000852472
0.000677944
0.000612736
0.00105168
0.000973887
0.00114225
0.000894328
0.000577482
0.0018984
0.000963292
0.000708878
0.000475153
0.000629542
0.000637328
0.000643621
0.000633119
0.000659925
0.000608584
0.000181341
0.000539706
0.00106518
0.000757186
0.00146391
0.00127331
0.00093301
0.00104511
0.00239048
0.000722354
0.00067194
0.00105631
0.000710959
0.000633711
0.00087756
0.00101456
0.000664433
0.000685192
0.000763118
0.000468661
0.000686318
0.000415775
0.000411213
0.000797246
0.000845851
0.0013171
0.000878748
0.00189435
0.000361502
0.000414248
0.000436803
0.00105737
0.000383754
0.000281346
0.000259267
0.000370186
0.000346924
0.000423288
0.000768624
0.000695371
0.000749252
0.000400378
0.000943677
0.0027659
0.000886346
0.000967032
0.000892567
0.00168267
0.000403143
0.000372692
0.00046001
0.000264412
0.00103613
0.000225404
0.000211767
0.00029127
0.00028803
0.000370608
0.000474898
0.000257673
0.000332456
0.000470492
0.000536538
0.000470768
0.00104824
0.000878753
0.000832107
0.000628247
0.00188614
0.000456949
0.000227335
0.000320872
0.000355926
0.000187347
0.000369269
0.000270861
0.000206462
0.000144219
0.000294797
0.000218631
0.0002204
0.000250686
0.00027117
0.000255567
0.000481778
0.000141471
0.000353728
0.000417841
0.000675894
0.000370702
0.00124363
0.000802602
8.53233e-05
0.000211852
0.000225219
2.42127e-05
1.04664e-05
0.00011366
0.000199515
0.000218234
0.000284097
0.000188254
0.00012379
0.000244601
0.000242903
0.000211484
0.000117362
0.000146996
0.000100614
0.000174637
7.24017e-05
0.00019857
0.000273325
0.000354508
0.000146854
0.00204925
0.000348999
0.00214032
0.00019719
0.000289527
0.00205947
0.000457835
0.000357709
0.000395417
0.00212604
0.000488207
0.000245062
0.000315253
0.000382112
0.00207492
0.000534738
0.000242685
0.000528062
0.000361292
0.000643117
0.00217231
0.000409545
0.000488674
0.000276613
0.000183466
0.000354805
0.000287371
0.00224859
0.000403049
0.000401288
0.000390281
0.000663453
0.000190998
0.000377082
0.000309003
0.00205306
0.000536673
0.000600296
0.00036112
0.000332497
0.000197862
0.000443141
0.000389911
0.000728421
0.00221072
0.000423006
0.000547211
0.000447218
0.000376978
0.000348518
0.000384984
0.000234795
0.000495598
0.000438961
0.00221366
0.00038517
0.00034488
0.00032242
0.000462232
0.0004415
0.000577426
0.000508352
0.000687901
0.000626719
0.000740014
0.00229899
0.000341845
0.000418612
0.000320313
0.000506507
0.000384956
0.000405922
0.000465974
0.000402214
0.000572366
0.000466952
0.000628229
0.00210597
0.000425636
0.000544437
0.000467659
0.000540997
0.000345006
0.000405703
0.000397017
0.000402644
0.000510984
0.000500737
0.000586687
0.000756534
0.00217105
0.000511775
0.00048057
0.000374114
0.000545442
0.000307364
0.0006109
0.000500545
0.000528885
0.000475568
0.000418362
0.000586211
0.000616694
0.000834664
0.00241639
0.000624346
0.000468102
0.000581533
0.000531925
0.000588359
0.000427199
0.000486815
0.000468952
0.000472575
0.000615942
0.000614491
0.000445189
0.000604688
0.000824722
0.00236071
0.000728041
0.000742264
0.000680218
0.000758622
0.000592773
0.00094072
0.000509047
0.000556937
0.00087967
0.000772939
0.00099225
0.000651181
0.00058776
0.00055234
0.000831094
0.00242343
0.000589445
0.000836164
0.000624075
0.000919516
0.000658018
0.000650825
0.000718104
0.000569305
0.00076977
0.000854429
0.000570056
0.000631922
0.00066792
0.000874275
0.00134128
0.00128002
0.00224029
0.000209303
0.000480137
0.000420422
0.00148708
0.000852616
0.00125674
0.000652414
0.00115032
0.00103879
0.000683515
0.000494661
0.000929526
0.000444401
0.0010039
0.00145011
0.00106217
0.000821712
0.00241507
0.00108378
0.0013596
0.000429693
0.000627412
0.000460144
0.0006229
0.000346314
0.000268852
0.000599021
0.000385567
0.000612562
0.000831783
0.000172527
0.000958753
0.000867083
0.00121433
0.000972011
0.000751609
0.00241856
0.000586021
0.000824083
0.000904273
0.000909492
0.000713814
0.00073291
0.000570705
0.000806078
0.000693835
0.000857948
0.000582736
0.000589975
0.000876165
0.000604613
0.0011796
0.00114279
0.000938006