/*--------------------------------*- C++ -*----------------------------------*\
  =========                 |
  \\      /  F ield         | OpenFOAM: The Open Source CFD Toolbox
   \\    /   O peration     | Website:  https://openfoam.org
    \\  /    A nd           | Version:  7
     \\/     M anipulation  |
\*---------------------------------------------------------------------------*/
FoamFile
{
    version     2.0;
    format      ascii;
    class       volScalarField;
    location    "1.5";
    object      p;
}
// * * * * * * * * * * * * * * * * * * * * * * * * * * * * * * * * * * * * * //

dimensions      [0 2 -2 0 0 0 0];

internalField   nonuniform List<scalar> 
18750
(
-64.9649
-60.7141
-64.7052
-64.8026
-59.6317
-61.9926
-60.6457
-63.9453
-64.6355
-64.6066
-56.1058
-60.1991
-59.237
-62.8949
-61.8051
-60.6222
-64.1952
-63.8334
-64.5299
-64.3881
-51.6855
-59.058
-55.4061
-61.5325
-59.9896
-58.9879
-63.3808
-62.7214
-61.6206
-60.609
-64.1219
-64.0961
-63.7419
-64.4236
-64.1619
-50.7417
-56.7873
-51.8358
-62.368
-58.673
-54.9491
-61.8398
-61.1065
-59.6701
-58.6857
-63.9882
-63.2543
-62.5571
-61.4608
-60.5948
-64.9816
-64.0047
-64.0001
-63.6518
-64.3103
-63.9407
-48.9896
-51.5736
-50.4588
-57.9527
-56.2189
-51.7814
-62.8432
-61.6533
-58.3136
-54.3173
-61.7806
-61.5893
-60.7244
-59.3006
-58.3421
-64.4787
-63.8028
-63.1202
-62.37
-61.3454
-60.5809
-64.2624
-64.9021
-63.8804
-63.9109
-63.5445
-64.2042
-63.7411
-47.7942
-49.0086
-48.8843
-52.7131
-51.2127
-50.2164
-59.5356
-57.6852
-55.6699
-51.6208
-62.7385
-62.6636
-61.1879
-57.863
-53.8005
-62.0582
-61.7123
-61.3047
-60.427
-59.1257
-58.062
-64.2798
-64.3215
-63.6682
-62.9825
-62.1843
-61.1823
-60.5391
-63.8083
-64.2152
-64.8007
-63.7612
-63.8224
-63.4337
-64.0973
-63.584
-46.6002
-47.8741
-47.7681
-50.1267
-48.7618
-48.8058
-53.9128
-53.0314
-51.1327
-50.0857
-59.7745
-59.4271
-58.0686
-55.1127
-51.4489
-61.3323
-62.6797
-62.4078
-60.7282
-57.5156
-53.3118
-62.3715
-62.0487
-61.6339
-60.9761
-60.2987
-58.8974
-57.6066
-63.3837
-64.1488
-64.164
-63.4414
-62.8346
-61.9985
-61.0297
-60.475
-63.4054
-63.741
-64.1528
-64.6696
-63.6382
-63.7467
-63.3388
-64.0109
-63.4438
-46.1556
-46.8948
-46.2993
-48.3889
-47.7596
-47.6353
-50.5424
-50.075
-48.5691
-48.6702
-54.5116
-53.9404
-52.93
-50.9866
-50.087
-59.4505
-59.6998
-59.1434
-57.0689
-54.6275
-51.3043
-60.3817
-61.4061
-62.5878
-62.1114
-60.0198
-57.2073
-53.2257
-62.1749
-62.2887
-62.0863
-61.5036
-60.6615
-60.0729
-58.6307
-57.2448
-62.7868
-63.2826
-64.0153
-64.035
-63.1571
-62.6574
-61.8759
-60.8635
-60.3353
-63.1264
-63.3214
-63.6764
-64.0798
-64.5368
-63.5123
-63.6915
-63.2591
-63.9645
-63.3526
-45.112
-46.3458
-46.4128
-47.1823
-46.7679
-46.2802
-48.7828
-48.4034
-47.6378
-47.472
-51.0659
-50.5749
-49.4285
-48.5399
-48.6173
-54.6682
-54.5819
-53.6045
-52.4245
-50.8568
-50.0931
-58.852
-59.5972
-59.5786
-58.7767
-56.4006
-54.3945
-51.1401
-59.874
-60.3689
-61.4505
-62.3727
-61.8243
-59.2387
-56.7052
-53.1431
-61.6989
-62.1346
-62.1775
-62.0741
-61.3933
-60.4777
-59.9787
-58.4381
-56.849
-62.3013
-62.6494
-63.1956
-63.8864
-63.846
-62.9537
-62.4941
-61.7184
-60.6607
-60.1467
-62.7512
-63.0535
-63.2384
-63.6181
-63.9784
-64.4196
-63.4058
-63.636
-63.1787
-63.9323
-63.266
-44.484
-45.15
-45.3514
-46.2515
-46.4536
-46.1823
-47.2744
-47.142
-46.5675
-46.3995
-49.1607
-48.5309
-48.0837
-47.6194
-47.2831
-51.2391
-51.0259
-50.4417
-49.7464
-48.324
-48.6477
-54.9385
-54.6619
-54.5375
-53.7781
-52.3411
-50.3395
-49.9456
-58.6415
-58.7412
-59.7619
-59.5288
-58.8182
-55.9025
-53.6489
-50.905
-59.3531
-59.8892
-60.3453
-61.4329
-62.1849
-61.5664
-58.3513
-56.0036
-52.9979
-61.5534
-61.5886
-62.0864
-62.1602
-62.0203
-61.2595
-60.2524
-59.886
-58.437
-56.413
-62.1142
-62.1605
-62.5341
-63.1148
-63.7661
-63.6958
-62.9249
-62.3717
-61.5222
-60.4958
-59.9594
-62.4691
-62.6847
-62.966
-63.1536
-63.5659
-63.8592
-64.3184
-63.3174
-63.5707
-63.0971
-63.9061
-63.169
-44.345
-44.5697
-44.5694
-45.2352
-45.0437
-45.4878
-46.4063
-46.0928
-46.5385
-45.8951
-47.5136
-47.0584
-47.175
-46.5246
-46.4806
-49.4434
-49.0487
-48.5662
-48.0756
-47.6101
-47.281
-51.5256
-51.2157
-51.0058
-50.36
-49.7322
-48.1155
-48.7493
-55.47
-54.7227
-54.4921
-54.3535
-53.4507
-52.2845
-50.0965
-49.7858
-57.9277
-58.6676
-58.8123
-59.8551
-59.5169
-58.3599
-55.1983
-52.8961
-50.7476
-59.3638
-59.2685
-59.911
-60.3636
-61.4371
-62.0914
-61.1221
-57.4713
-54.9731
-52.897
-61.5269
-61.4165
-61.4904
-62.0599
-62.1641
-62.0283
-61.1072
-60.0189
-59.6985
-58.2479
-56.3851
-62.0102
-61.9884
-62.0421
-62.4294
-63.0582
-63.6437
-63.678
-62.7237
-62.2352
-61.3698
-60.307
-59.7607
-62.4907
-62.413
-62.6194
-62.8799
-63.0685
-63.5095
-63.7445
-64.2248
-63.2251
-63.5073
-63.0502
-63.8867
-63.1047
-43.8021
-44.4125
-44.3324
-44.8224
-44.5415
-44.7094
-45.3874
-45.3255
-45.0957
-45.3889
-46.3499
-46.4262
-46.0181
-46.433
-45.8264
-47.5585
-47.4538
-47.0845
-46.9769
-46.5079
-46.5202
-49.4494
-49.4078
-49.0311
-48.2786
-48.062
-47.671
-47.3306
-51.537
-51.5939
-51.122
-50.8161
-49.9675
-49.1616
-48.6506
-48.7333
-55.8373
-55.2727
-54.5827
-54.5388
-54.3503
-52.9173
-51.6641
-50.3459
-49.6502
-57.5901
-57.915
-58.6098
-59.0443
-59.9156
-59.5065
-57.5845
-54.9718
-52.4099
-50.7279
-59.4464
-59.3358
-59.2228
-59.9292
-60.3516
-61.398
-62.1759
-60.5623
-56.6764
-54.2851
-52.768
-61.4786
-61.3998
-61.2792
-61.4273
-62.0447
-62.1115
-62.0203
-61.0057
-59.7512
-59.5129
-57.9426
-56.4518
-62.0672
-61.9124
-61.8746
-61.9349
-62.3367
-62.9939
-63.4673
-63.5047
-62.514
-62.0758
-61.206
-60.1243
-59.5987
-62.3795
-62.4329
-62.352
-62.5572
-62.8032
-62.9722
-63.4391
-63.6168
-64.1145
-63.1529
-63.4632
-63.0325
-63.8423
-63.0272
-43.6737
-43.7618
-43.8178
-44.3812
-44.3765
-44.3558
-44.7429
-44.7737
-44.779
-44.7692
-45.4977
-45.3655
-45.251
-45.232
-45.2058
-46.5256
-46.3462
-46.2741
-46.0994
-46.0963
-45.7834
-47.64
-47.5619
-47.3329
-47.0004
-46.8776
-46.2851
-46.5763
-49.7243
-49.407
-49.2751
-48.8564
-48.2948
-47.9538
-47.8396
-47.3571
-51.7316
-51.5914
-51.5584
-51.1821
-50.9289
-50.221
-49.2335
-48.7114
-48.6506
-55.5894
-55.6261
-55.0209
-54.5765
-54.3275
-53.881
-52.7768
-51.2967
-50.7895
-49.6403
-57.568
-57.5369
-57.8027
-58.6382
-59.1955
-59.8052
-59.1877
-57.0085
-55.2923
-52.3262
-50.6855
-59.2802
-59.219
-59.1399
-59.2963
-59.8135
-60.336
-61.4061
-62.0415
-60.0158
-56.2466
-54.1881
-52.5943
-61.5599
-61.3599
-61.169
-61.1857
-61.3981
-62.0248
-62.014
-61.9699
-60.8586
-59.5787
-59.2416
-57.6111
-56.3506
-62.0799
-61.9762
-61.8151
-61.7526
-61.8464
-62.2571
-62.9371
-63.2857
-63.2387
-62.3729
-61.9203
-61.08
-59.9461
-59.4863
-62.4246
-62.3391
-62.3746
-62.2928
-62.4978
-62.7279
-62.8757
-63.3585
-63.4912
-64.0284
-63.0913
-63.4264
-63.0047
-63.8258
-62.9483
-43.4263
-43.8905
-43.7101
-44.0079
-43.5798
-43.7546
-44.3528
-44.3765
-44.4076
-44.405
-44.9969
-44.883
-44.7743
-44.8455
-44.7593
-45.6225
-45.4853
-45.3318
-45.2855
-45.1067
-45.1273
-46.6355
-46.5518
-46.3439
-46.2451
-45.8995
-46.0551
-45.8391
-47.907
-47.7345
-47.59
-47.3238
-47.0287
-46.8589
-46.3531
-46.4782
-50.0679
-49.7672
-49.4205
-49.1729
-48.794
-48.3719
-48.0057
-47.8625
-47.4995
-52.2198
-51.6624
-51.6323
-51.2969
-51.168
-50.8724
-50.5801
-49.6695
-48.92
-48.7655
-55.6532
-55.3892
-55.3703
-54.7223
-54.6252
-53.9885
-53.8386
-53.6742
-52.0441
-51.1625
-49.5455
-57.4487
-57.4201
-57.4565
-57.9713
-58.7795
-59.1624
-59.4979
-59.0473
-57.0394
-55.8561
-52.3343
-50.5472
-59.2313
-59.245
-59.0317
-59.1449
-59.2418
-59.8219
-60.2318
-61.445
-61.5869
-59.4881
-55.9987
-53.792
-52.6147
-61.7135
-61.4528
-61.2558
-61.0825
-61.1122
-61.3806
-61.9839
-61.9739
-61.9514
-60.6875
-59.3278
-58.984
-57.3779
-56.3607
-62.317
-61.9976
-61.8894
-61.7115
-61.6506
-61.7718
-62.1844
-62.8896
-63.1243
-63.12
-62.2501
-61.7536
-60.975
-59.7967
-59.4365
-62.6031
-62.3901
-62.3006
-62.3118
-62.235
-62.4364
-62.6547
-62.7923
-63.266
-63.396
-63.9551
-63.0257
-63.3893
-62.9547
-63.8385
-62.9177
-43.2246
-43.4112
-43.3945
-43.7685
-43.8511
-43.7522
-44.0065
-43.9813
-43.7484
-43.8172
-44.4789
-44.3528
-44.3539
-44.3692
-44.2985
-45.0337
-44.9255
-44.824
-44.7177
-44.8779
-44.7503
-45.738
-45.5278
-45.4901
-45.3223
-45.313
-45.0558
-45.0436
-46.7437
-46.5741
-46.5211
-46.2873
-46.2104
-45.8747
-46.1305
-45.7709
-48.159
-47.8815
-47.7269
-47.482
-47.3129
-46.8709
-46.7989
-46.4007
-46.5525
-50.2961
-50.0541
-49.5501
-49.3516
-49.2014
-48.7025
-48.4098
-47.9913
-47.8898
-47.6131
-52.5061
-52.1356
-51.9423
-51.6361
-51.3961
-51.1651
-51.0688
-50.5279
-49.5589
-49.2017
-48.8639
-55.8423
-55.5865
-55.3382
-55.1518
-54.7045
-54.3719
-54.3707
-55.0538
-53.4308
-51.6384
-51.4032
-49.5752
-57.5474
-57.5037
-57.497
-57.4377
-57.9694
-58.7098
-59.0475
-59.2568
-59.6214
-56.1287
-55.6115
-52.4647
-51.1939
-59.2466
-59.1409
-59.1691
-59.0785
-59.0781
-59.2927
-59.9528
-60.2004
-61.4396
-61.1207
-58.562
-55.77
-53.4733
-52.4378
-61.881
-61.6096
-61.3359
-61.1071
-61.0106
-61.0945
-61.3556
-61.8871
-61.9379
-61.9281
-60.5709
-59.0412
-58.8623
-57.1083
-56.2648
-62.746
-62.2304
-61.912
-61.8099
-61.6215
-61.5587
-61.6992
-62.1172
-62.8204
-62.935
-62.9863
-62.1373
-61.6109
-60.8759
-59.7271
-59.4789
-63.0123
-62.5629
-62.3562
-62.2667
-62.2486
-62.1756
-62.3749
-62.5762
-62.7186
-63.145
-63.3034
-63.8797
-62.9687
-63.3573
-62.9084
-63.8002
-62.948
-43.0497
-43.1853
-43.1809
-43.4233
-43.3623
-43.3393
-43.7834
-43.765
-43.8973
-43.7711
-44.0724
-43.7391
-43.8943
-43.7469
-43.7485
-44.4897
-44.3626
-44.4496
-44.3345
-44.3474
-44.3836
-45.0846
-45.0076
-44.9484
-44.8218
-44.7544
-44.8416
-44.7105
-45.9101
-45.6751
-45.5967
-45.5129
-45.275
-45.2897
-45.0725
-45.054
-47.0493
-46.7401
-46.6197
-46.4281
-46.1832
-46.0636
-45.9656
-46.0559
-45.8011
-48.4505
-48.2057
-47.99
-47.6965
-47.4938
-47.177
-46.9544
-46.8714
-46.4998
-46.6277
-50.3283
-50.319
-49.9604
-49.6239
-49.259
-49.1896
-48.6991
-48.0371
-47.7136
-47.9286
-47.5617
-52.8369
-52.3681
-52.0922
-51.8853
-51.7026
-51.4144
-51.264
-50.9984
-49.6103
-48.877
-49.4931
-48.8225
-56.0106
-55.8448
-55.4349
-55.2468
-55.1396
-54.7141
-54.2078
-54.605
-54.6221
-52.4356
-50.4397
-51.3672
-49.7115
-57.5571
-57.3825
-57.5152
-57.3764
-57.4246
-58.0139
-58.788
-59.1215
-59.3646
-58.5386
-55.5792
-55.4325
-52.8902
-51.7633
-59.5302
-59.173
-59.0386
-59.0429
-58.9901
-59.0047
-59.5887
-59.9381
-60.2297
-61.5158
-60.8937
-57.7568
-55.5393
-53.7462
-52.6165
-62.0827
-61.8059
-61.5459
-61.2437
-61.0055
-60.9295
-61.1004
-61.3135
-61.819
-61.8671
-61.8808
-60.3575
-58.8365
-58.6563
-56.885
-56.0963
-63.9599
-62.6405
-62.145
-61.8309
-61.7292
-61.5332
-61.4583
-61.6438
-62.0562
-62.741
-62.7267
-62.8646
-62.0139
-61.4554
-60.7946
-59.6982
-59.5663
-63.1137
-62.9674
-62.5232
-62.3231
-62.2326
-62.1875
-62.1198
-62.3149
-62.4939
-62.658
-63.0232
-63.2214
-63.8008
-62.9363
-63.3287
-62.9283
-63.8293
-63.0276
-42.8452
-43.086
-43.0724
-43.2283
-43.1084
-43.1379
-43.4345
-43.3522
-43.2244
-43.3581
-43.7661
-43.7277
-43.7368
-43.9805
-43.8066
-44.0749
-44.022
-43.8576
-43.9919
-43.8319
-43.744
-44.5379
-44.4835
-44.4327
-44.3782
-44.3093
-44.3277
-44.3632
-45.2789
-45.0264
-44.9637
-44.9033
-44.7776
-44.8097
-44.7722
-44.7173
-46.0665
-45.7942
-45.7233
-45.6214
-45.4204
-45.2291
-45.2284
-45.1185
-44.9896
-47.2321
-46.9979
-46.8368
-46.5998
-46.4286
-46.1804
-46.118
-46.0822
-45.9157
-45.918
-48.6501
-48.4699
-48.2053
-48.0606
-47.6596
-47.4786
-47.28
-47.0198
-46.7094
-46.6397
-46.5896
-50.5227
-50.1927
-50.0838
-49.9014
-49.5306
-49.2875
-48.6253
-48.6815
-47.9819
-47.846
-47.9059
-47.5606
-53.0968
-52.8608
-52.3641
-52.161
-51.9487
-51.735
-51.5215
-51.3018
-50.1594
-50.5318
-49.388
-49.7239
-48.8047
-55.8979
-56.0226
-55.8391
-55.3703
-55.224
-55.1782
-54.4602
-54.2671
-54.6282
-53.4113
-53.306
-50.2883
-50.9134
-49.8094
-57.4021
-57.4661
-57.4069
-57.5114
-57.2342
-57.3297
-58.0949
-58.7117
-59.1509
-59.327
-58.0342
-55.6739
-54.6494
-53.0639
-52.2693
-59.7691
-59.3769
-59.0931
-59.0111
-58.9293
-58.8975
-58.979
-59.5994
-59.8495
-60.1934
-61.4645
-60.4822
-57.9161
-55.302
-53.8121
-52.7544
-63.1039
-61.9936
-61.7035
-61.4521
-61.1488
-60.9079
-60.8779
-61.0653
-61.2675
-61.8639
-61.785
-61.8282
-60.0793
-58.7701
-58.5212
-56.7907
-56.0462
-64.7533
-63.8377
-62.525
-62.054
-61.7546
-61.6374
-61.4464
-61.3732
-61.5882
-61.9945
-62.6862
-62.5606
-62.7076
-61.9356
-61.2621
-60.761
-59.7087
-59.6523
-63.0988
-63.0916
-62.9215
-62.4848
-62.2925
-62.1972
-62.1304
-62.0669
-62.2466
-62.395
-62.6088
-62.9436
-63.1636
-63.7437
-62.9102
-63.328
-62.9051
-63.9245
-63.0609
-42.7665
-42.8428
-42.8543
-43.0156
-43.1429
-43.0373
-43.2504
-43.2496
-43.1071
-43.1088
-43.4872
-43.3767
-43.3965
-43.2591
-43.3435
-43.7751
-43.7435
-43.727
-43.6606
-43.8339
-43.6787
-44.0915
-44.0616
-44.0218
-43.8316
-43.9563
-43.8214
-43.8174
-44.6349
-44.5097
-44.4426
-44.4163
-44.3464
-44.3287
-44.3056
-44.2932
-45.3291
-45.1555
-45.0466
-44.9279
-44.8782
-44.803
-44.659
-44.7535
-44.705
-46.2405
-46.0881
-45.8729
-45.6982
-45.5343
-45.4373
-45.166
-45.2334
-45.0742
-45.0105
-47.3314
-47.0959
-46.8856
-46.6161
-46.6059
-46.4397
-46.1954
-46.1775
-46.0556
-45.9501
-45.864
-48.8036
-48.5536
-48.4258
-48.172
-47.9705
-47.5711
-47.4011
-47.1868
-47.0335
-46.7106
-46.7268
-46.5276
-50.6366
-50.5657
-50.1837
-50.1838
-49.831
-49.3279
-49.3075
-48.7802
-48.4233
-47.8995
-47.975
-48.0535
-47.7087
-53.0967
-53.1938
-52.9173
-52.5063
-52.1355
-51.9302
-51.7016
-51.5648
-51.0141
-50.3525
-50.4775
-50.1634
-49.5237
-48.7942
-56.0966
-55.7915
-56.2543
-55.7372
-55.4904
-55.1999
-54.9619
-54.3328
-54.3213
-54.3255
-53.5979
-53.1851
-51.0248
-50.618
-49.8329
-57.0869
-57.403
-57.4877
-57.6642
-57.5185
-57.1664
-57.2892
-58.0343
-58.7555
-59.2555
-59.4192
-57.6223
-54.9623
-53.8686
-52.9655
-52.4737
-60.2016
-59.7748
-59.2807
-59.0178
-58.9218
-58.8564
-58.8729
-58.8507
-59.4766
-59.907
-60.3401
-61.6442
-60.1291
-57.1983
-54.9385
-53.9092
-52.9433
-64.1572
-62.8833
-61.8924
-61.6042
-61.3806
-61.0847
-60.8418
-60.8426
-61.0523
-61.2172
-61.7205
-61.6662
-61.841
-59.8119
-58.666
-58.3778
-56.8359
-55.772
-64.74
-64.5678
-63.6603
-62.4162
-61.9576
-61.6793
-61.5657
-61.3624
-61.2977
-61.5352
-61.9255
-62.5734
-62.428
-62.5534
-61.8551
-61.0823
-60.7559
-59.7101
-59.7392
-62.393
-63.0528
-63.0474
-62.8713
-62.4422
-62.264
-62.161
-62.0741
-62.0004
-62.1691
-62.3143
-62.5583
-62.8763
-63.1095
-63.704
-62.8736
-63.3432
-62.9294
-64.0417
-63.2074
-42.649
-42.7657
-42.7401
-42.8583
-42.872
-42.8434
-43.083
-43.043
-43.1572
-43.0342
-43.2486
-43.2616
-43.2805
-43.0762
-43.1326
-43.5481
-43.4927
-43.2466
-43.3016
-43.3574
-43.2403
-43.8263
-43.7903
-43.6705
-43.7544
-43.696
-43.7377
-43.768
-44.2605
-44.1589
-44.0519
-44.0302
-43.9452
-43.8226
-43.8106
-43.815
-44.8379
-44.6051
-44.5309
-44.4353
-44.3828
-44.2812
-44.3506
-44.1097
-44.2543
-45.557
-45.3674
-45.098
-45.0433
-44.9428
-44.8231
-44.8011
-44.6016
-44.8479
-44.6218
-46.367
-46.2301
-46.0295
-45.8519
-45.6501
-45.5079
-45.3694
-45.1479
-45.2713
-45.0907
-45.0803
-47.5446
-47.312
-47.1675
-47.0489
-46.695
-46.5421
-46.3993
-46.1911
-46.1217
-45.9515
-45.9497
-45.7892
-48.8767
-48.7799
-48.5397
-48.3317
-48.0975
-47.7817
-47.5696
-47.2979
-47.0197
-46.5233
-46.8037
-46.8442
-46.6301
-51.0621
-50.5985
-50.5484
-50.2553
-50.2423
-49.6559
-49.3275
-49.128
-48.7772
-48.2932
-47.9615
-48.0492
-48.0844
-47.6499
-53.4774
-53.3727
-53.2607
-52.9191
-52.4294
-52.0371
-51.8155
-51.6521
-51.4681
-50.9498
-50.3929
-49.6724
-50.2384
-49.5617
-48.8471
-55.9384
-56.0566
-56.1279
-56.012
-55.6572
-55.3729
-54.8795
-54.7778
-54.4477
-54.407
-53.9992
-53.5462
-52.1496
-50.6765
-50.4074
-49.8773
-57.3783
-56.9909
-57.4476
-57.5548
-57.4553
-57.3806
-57.2006
-57.2621
-58.1113
-58.7972
-59.4542
-59.4001
-57.3206
-54.6901
-53.4974
-52.8975
-52.3215
-60.675
-59.9674
-59.3881
-59.2238
-58.9166
-58.8753
-58.7675
-58.7952
-58.864
-59.596
-59.8376
-60.3987
-61.7204
-59.5079
-56.4961
-54.8588
-54.1076
-53.2312
-65.1694
-63.9317
-62.8017
-61.6527
-61.5306
-61.257
-61.0828
-60.7797
-60.814
-61.0166
-61.1769
-61.5191
-61.5481
-61.8875
-59.5462
-58.6416
-58.2412
-56.8531
-55.4032
-64.0292
-64.636
-64.3789
-63.5575
-62.2949
-61.8707
-61.6035
-61.4886
-61.2937
-61.235
-61.4867
-61.8496
-62.4913
-62.3369
-62.3856
-61.7738
-60.9553
-60.7549
-59.7364
-59.8289
-62.1404
-62.3984
-63.0103
-62.9668
-62.8206
-62.3936
-62.2331
-62.1245
-62.0231
-61.9288
-62.0886
-62.2595
-62.5011
-62.8154
-63.0576
-63.672
-62.8246
-63.3698
-62.9825
-64.1468
-63.5031
-42.5402
-42.6506
-42.583
-42.7441
-42.7099
-42.7632
-42.857
-42.8838
-42.8606
-42.842
-43.0427
-43.0984
-42.9972
-43.155
-43.0043
-43.3389
-43.2841
-43.2343
-43.2413
-43.1226
-43.1144
-43.5819
-43.514
-43.403
-43.3073
-43.3267
-43.269
-43.3235
-43.9492
-43.8281
-43.7463
-43.6812
-43.7224
-43.7318
-43.7503
-43.6981
-44.3873
-44.2088
-44.1346
-44.0282
-43.9939
-43.9066
-43.8195
-43.9239
-43.8118
-45.0158
-44.8718
-44.6649
-44.5567
-44.399
-44.3139
-44.3399
-44.3258
-44.1123
-44.252
-45.6926
-45.5508
-45.3419
-45.1673
-45.0123
-44.898
-44.8035
-44.6748
-44.6344
-44.7219
-44.553
-46.5674
-46.345
-46.2823
-46.0312
-45.792
-45.7262
-45.5244
-45.4013
-45.1901
-45.2328
-45.1491
-45.0834
-47.6528
-47.5602
-47.2821
-47.145
-46.8096
-46.7348
-46.4922
-46.3144
-46.1906
-46.0362
-45.969
-45.8802
-45.8265
-49.3076
-48.8681
-48.7734
-48.5377
-48.3751
-48.0805
-47.7186
-47.5444
-47.269
-47.0136
-46.7922
-46.851
-46.8544
-46.6522
-51.3805
-51.2389
-50.7286
-50.5837
-50.0963
-50.0568
-49.7745
-49.324
-48.9864
-48.7087
-48.3152
-47.9047
-47.4397
-48.0357
-47.5539
-53.6123
-53.5488
-53.4838
-52.8367
-52.7044
-52.2789
-51.8493
-51.8134
-51.5004
-51.2987
-50.7296
-50.2398
-49.8211
-50.2239
-49.6669
-48.9855
-56.292
-56.1211
-55.8507
-56.0258
-55.7798
-55.4522
-55.107
-54.6706
-54.6813
-54.2531
-54.1029
-53.7375
-52.9642
-52.348
-50.9431
-50.1423
-49.8884
-57.3441
-57.2577
-57.0076
-57.4784
-57.3834
-57.6118
-57.2114
-57.1402
-57.2681
-58.105
-58.7994
-59.5367
-59.1446
-57.1602
-54.7461
-53.7017
-52.7217
-52.1151
-61.3349
-60.5177
-59.9296
-59.346
-59.1892
-58.8876
-58.8778
-58.7312
-58.8092
-58.8715
-59.6378
-59.9045
-60.4676
-61.8093
-58.8884
-56.7575
-54.922
-54.1445
-53.5522
-65.1976
-65.0125
-63.789
-62.5671
-61.6696
-61.4009
-61.1594
-60.9835
-60.6848
-60.7954
-60.985
-61.1046
-61.4837
-61.3794
-61.9333
-59.2936
-58.744
-58.2255
-56.9006
-55.3836
-63.9154
-63.9753
-64.5029
-64.1824
-63.3544
-62.1958
-61.792
-61.531
-61.3989
-61.2395
-61.1965
-61.4468
-61.7751
-62.4221
-62.2093
-62.2515
-61.655
-60.8519
-60.7623
-59.7734
-59.8952
-61.7744
-62.1148
-62.3578
-62.9676
-62.8933
-62.7664
-62.3481
-62.1968
-62.0809
-61.9764
-61.8721
-61.9965
-62.1951
-62.4483
-62.7602
-63.019
-63.6473
-62.7975
-63.3828
-63.0121
-64.2463
-63.8654
-42.4142
-42.5638
-42.5038
-42.6534
-42.5984
-42.5957
-42.7698
-42.7664
-42.762
-42.734
-42.9288
-42.9037
-42.9134
-42.8156
-42.7962
-43.2064
-43.0851
-43.116
-42.9901
-43.1815
-43.0392
-43.3777
-43.3063
-43.2387
-43.213
-43.1931
-43.1418
-43.1179
-43.6258
-43.5255
-43.4709
-43.3696
-43.2787
-43.3227
-43.2738
-43.3468
-44.0476
-43.9243
-43.8156
-43.7267
-43.7251
-43.769
-43.6778
-43.7081
-43.6611
-44.5297
-44.3294
-44.1839
-44.1078
-44.0373
-43.9747
-44.0206
-43.8082
-43.9652
-43.8229
-45.1816
-45.0549
-44.8437
-44.6574
-44.5626
-44.3624
-44.3512
-44.1412
-44.3379
-44.0951
-44.1704
-45.877
-45.707
-45.5242
-45.3247
-45.1108
-45.0252
-44.8688
-44.7988
-44.8274
-44.5699
-44.6104
-44.5688
-46.8466
-46.6312
-46.3715
-46.2915
-45.9964
-45.8432
-45.5956
-45.5085
-45.3605
-45.1882
-45.1949
-45.1979
-45.0805
-47.9391
-47.5981
-47.5243
-47.2693
-47.0761
-46.8728
-46.6999
-46.4749
-46.2867
-46.1639
-46.0648
-45.8659
-45.7899
-45.8492
-49.4556
-49.3654
-48.9743
-48.7041
-48.5081
-48.3535
-48.0045
-47.7624
-47.4034
-47.24
-46.9522
-46.8321
-46.9116
-46.8446
-46.5206
-51.5062
-51.4505
-50.8701
-50.6757
-50.4783
-50.0546
-50.1025
-49.7243
-49.0028
-49.0091
-48.7209
-48.2418
-47.881
-48.1456
-47.6833
-47.6501
-53.8889
-53.6306
-53.5372
-53.2608
-53.336
-52.844
-52.0702
-52.0368
-51.952
-51.5559
-51.3409
-50.7835
-50.3724
-50.0287
-50.1989
-49.7811
-49.003
-55.7897
-55.867
-56.0391
-55.721
-55.8347
-55.9405
-55.2986
-54.8051
-54.888
-54.6492
-54.2697
-54.2204
-53.7453
-53.5767
-52.0805
-51.1483
-50.2964
-49.864
-58.4504
-57.3128
-56.9715
-57.035
-57.4014
-57.3573
-57.209
-57.1391
-56.986
-57.2429
-58.0152
-58.8019
-59.7468
-58.8549
-57
-54.8122
-53.8658
-52.3749
-52.0049
-61.5592
-61.2876
-60.5089
-59.4822
-59.3479
-59.104
-58.9412
-58.8518
-58.6775
-58.7735
-58.9817
-59.6495
-59.9887
-60.4959
-61.5084
-58.3863
-56.9941
-55.0173
-54.4025
-53.8306
-64.7595
-64.9884
-64.7861
-63.5575
-62.3298
-61.5658
-61.2695
-61.0721
-60.8849
-60.6001
-60.7603
-60.9858
-61.0131
-61.3204
-61.1698
-61.8086
-59.1035
-58.4913
-58.25
-57.0177
-55.4621
-63.103
-63.8723
-63.9048
-64.3442
-63.9837
-63.1706
-62.0835
-61.7087
-61.4622
-61.3269
-61.1702
-61.1458
-61.3954
-61.6936
-62.3208
-62.0736
-62.1605
-61.5315
-60.7495
-60.7721
-59.8399
-60.0181
-64.0834
-61.0856
-61.7553
-62.0707
-62.3146
-62.899
-62.8458
-62.7083
-62.3005
-62.1561
-62.0242
-61.9373
-61.8209
-61.916
-62.1315
-62.4095
-62.6923
-63.0062
-63.6325
-62.7827
-63.394
-63.0469
-64.3268
-63.9441
-42.3542
-42.4248
-42.4119
-42.5562
-42.5535
-42.4839
-42.6641
-42.6305
-42.5719
-42.6017
-42.7234
-42.7766
-42.7554
-42.7337
-42.7145
-42.8983
-42.9297
-42.8946
-42.8687
-42.8117
-42.7933
-43.1501
-43.1309
-43.1023
-43.0648
-43.0002
-43.0323
-42.9241
-43.42
-43.3149
-43.2859
-43.1727
-43.2713
-43.1134
-43.1855
-43.1906
-43.737
-43.6265
-43.5319
-43.4281
-43.4683
-43.3346
-43.3573
-43.2847
-43.3296
-44.104
-43.9875
-43.8548
-43.7791
-43.7293
-43.7112
-43.7669
-43.682
-43.6956
-43.6285
-44.7425
-44.479
-44.3639
-44.187
-44.0862
-43.9838
-43.8729
-43.7981
-43.7951
-43.9608
-43.7989
-45.2553
-45.1502
-44.9433
-44.7905
-44.6258
-44.4748
-44.4195
-44.3845
-44.145
-44.3416
-43.94
-44.1365
-45.9875
-45.8348
-45.6638
-45.5214
-45.3561
-45.1443
-44.9936
-44.8402
-44.7436
-44.7595
-44.5176
-44.5573
-44.5272
-47.0126
-46.7927
-46.6336
-46.2931
-46.275
-45.9158
-45.7818
-45.5837
-45.4968
-45.3432
-45.2028
-45.2051
-45.1512
-45.1823
-48.0177
-47.9707
-47.659
-47.4631
-47.2744
-47.1168
-46.8235
-46.6822
-46.4026
-46.3013
-46.1034
-45.9457
-45.9048
-45.9089
-45.7928
-49.6859
-49.3216
-49.1882
-48.7756
-48.7368
-48.3919
-48.2669
-48.0551
-47.6835
-47.61
-47.2637
-47.0079
-46.9821
-46.9653
-46.7202
-46.5004
-51.9286
-51.5207
-51.6666
-50.9168
-50.8399
-50.5279
-50.3506
-50.2033
-49.7535
-49.5807
-49.0841
-48.6869
-48.2673
-47.8812
-48.1812
-47.526
-47.6734
-54.1055
-53.8589
-53.7624
-53.9089
-53.3
-52.8063
-52.8497
-52.3208
-52.1992
-51.827
-51.5471
-51.3163
-50.7267
-50.4516
-49.9274
-49.7216
-49.692
-49.0633
-55.6514
-55.6124
-55.7463
-55.8726
-56.1068
-55.6297
-55.6291
-55.3125
-55.1107
-54.9384
-54.623
-54.2063
-53.9534
-53.4607
-53.053
-52.3671
-51.1322
-50.214
-49.8016
-59.4511
-58.4263
-57.3075
-57.1566
-57.1523
-57.3708
-57.2689
-57.2193
-57.1085
-56.8889
-57.2553
-57.9964
-58.7706
-59.8591
-58.5098
-56.5002
-54.6803
-53.8714
-52.3826
-52.0374
-61.7977
-61.5626
-61.1615
-60.2532
-59.3176
-59.0964
-59.0865
-58.8027
-58.7702
-58.5858
-58.6246
-58.975
-59.7718
-59.9329
-60.593
-61.1034
-57.9728
-57.1308
-55.3177
-54.6898
-54.1507
-63.9803
-64.4535
-64.7284
-64.486
-63.2053
-62.4387
-61.3719
-61.1602
-60.9493
-60.8152
-60.5245
-60.6995
-60.9144
-60.9406
-61.0793
-61.0956
-61.5087
-58.91
-58.2145
-58.4255
-57.2291
-55.8526
-60.5937
-62.8194
-62.9465
-63.749
-63.8076
-64.164
-63.7998
-63.0472
-61.9676
-61.6327
-61.4089
-61.2541
-61.0958
-61.0877
-61.3393
-61.6109
-62.2118
-61.9666
-62.0578
-61.4236
-60.7275
-60.8336
-59.9269
-60.2
-64.6563
-63.9659
-60.4682
-61.0959
-61.7051
-62.0269
-62.2763
-62.7914
-62.8076
-62.6512
-62.2537
-62.1097
-61.9718
-61.9075
-61.7728
-61.8553
-62.0795
-62.3715
-62.6149
-63.0276
-63.6213
-62.7787
-63.4191
-63.0839
-64.4397
-42.233
-42.3434
-42.3426
-42.428
-42.4307
-42.3961
-42.5266
-42.4486
-42.4659
-42.4865
-42.7186
-42.6694
-42.6368
-42.6061
-42.5735
-42.7987
-42.9332
-42.7715
-42.7551
-42.7448
-42.6668
-42.9635
-42.975
-42.9476
-42.8947
-42.8314
-42.7886
-42.7921
-43.2702
-43.1602
-43.1111
-43.0314
-43.0707
-42.9725
-42.9366
-42.9476
-43.4967
-43.4605
-43.3307
-43.206
-43.0508
-43.0623
-43.1358
-43.1934
-43.1894
-43.8137
-43.7572
-43.6192
-43.5002
-43.5108
-43.4472
-43.4211
-43.3495
-43.2514
-43.3061
-44.3082
-44.124
-44.0483
-43.8458
-43.7753
-43.7674
-43.6295
-43.6468
-43.672
-43.6624
-43.5803
-44.7289
-44.5714
-44.4681
-44.3595
-44.1591
-44.073
-43.9452
-43.8468
-43.9372
-43.8536
-44.0267
-43.8051
-45.4106
-45.2139
-45.0643
-44.8878
-44.7775
-44.614
-44.4717
-44.3648
-44.3179
-44.2304
-44.3106
-43.9655
-44.0758
-46.2612
-46.0009
-45.8173
-45.6048
-45.4948
-45.3368
-45.1506
-44.9658
-44.868
-44.7259
-44.7726
-44.5616
-44.5224
-44.5659
-47.0128
-47.0144
-46.6606
-46.6146
-46.3628
-46.2059
-45.9671
-45.8312
-45.6135
-45.4624
-45.3017
-45.214
-45.1382
-45.1453
-45.1905
-48.2694
-48.0118
-47.9132
-47.5626
-47.5408
-47.1787
-47.0449
-46.7691
-46.67
-46.429
-46.2483
-46.0931
-46.0399
-45.9539
-45.9261
-45.7652
-49.9176
-49.8125
-49.3541
-49.1397
-48.8085
-48.5631
-48.4008
-48.3302
-48.0125
-47.7321
-47.5933
-47.3042
-47.1154
-46.9669
-46.9153
-46.3965
-46.5622
-51.8233
-51.8861
-51.616
-52.1018
-51.0176
-50.4704
-50.6603
-50.7774
-49.9452
-49.7611
-49.5464
-48.9725
-48.5849
-48.1496
-47.9459
-48.2924
-47.6956
-47.6761
-54.0051
-53.9575
-53.9436
-54.0106
-53.8941
-53.1951
-52.9256
-52.7079
-52.2153
-52.0228
-51.773
-51.5193
-51.0507
-50.8088
-50.1499
-49.9368
-49.465
-49.6486
-49.1208
-56.1836
-55.8936
-55.6311
-55.8384
-56.23
-55.7159
-55.4687
-55.6043
-55.1897
-54.9458
-54.8062
-54.6374
-54.0918
-53.732
-53.3972
-52.9989
-52.0868
-50.8879
-50.4651
-49.7363
-59.9266
-59.2848
-58.2965
-57.3871
-57.2244
-57.2357
-57.4055
-57.2381
-57.0909
-56.9525
-56.7053
-57.1914
-58.0449
-58.6712
-59.7987
-58.3649
-56.5649
-54.5366
-53.7694
-52.1369
-51.9369
-61.7009
-61.6506
-61.422
-60.9622
-60.1137
-59.4581
-59.0374
-58.971
-58.692
-58.639
-58.4652
-58.5752
-59.0298
-59.8013
-59.9553
-60.5868
-60.4933
-57.4854
-57.1757
-55.7413
-54.9558
-54.2559
-56.3712
-63.4506
-63.7184
-64.2321
-64.4315
-64.193
-62.9966
-62.2126
-61.2551
-61.0167
-60.8543
-60.6299
-60.4383
-60.6084
-60.7951
-60.8811
-60.9937
-61.2043
-61.1422
-58.8475
-58.6261
-58.4667
-57.4522
-56.179
-60.4757
-60.3772
-62.4765
-62.642
-62.7892
-63.4906
-63.7035
-63.9577
-63.6321
-62.8466
-61.8488
-61.565
-61.363
-61.1678
-61.0253
-61.0273
-61.2835
-61.5301
-62.0989
-61.8832
-61.9874
-61.3254
-60.8211
-60.9199
-60.0674
-63.233
-64.5287
-60.0692
-60.4431
-61.1091
-61.671
-61.9851
-62.1991
-62.7006
-62.7711
-62.5917
-62.2091
-62.0558
-61.9272
-61.8717
-61.7277
-61.7902
-62.0244
-62.3005
-62.5436
-63.0424
-63.5974
-62.7989
-63.4464
-63.1297
-42.2179
-42.2166
-42.308
-42.3374
-42.3291
-42.376
-42.486
-42.3953
-42.3969
-42.6546
-42.5766
-42.4785
-42.4897
-42.4749
-42.8329
-42.7104
-42.6187
-42.607
-42.5649
-42.5631
-42.8945
-42.8229
-42.7991
-42.7415
-42.6744
-42.6987
-42.6772
-43.0533
-42.9846
-42.9655
-42.8861
-42.8469
-42.8239
-42.7847
-42.7924
-43.3206
-43.2378
-43.1839
-43.1251
-42.9744
-42.9945
-42.951
-42.9435
-42.9611
-43.6669
-43.5159
-43.4016
-43.2807
-43.2053
-43.193
-43.2641
-43.1545
-43.2092
-43.1488
-44.0031
-43.8192
-43.7351
-43.5649
-43.5329
-43.4753
-43.4204
-43.5136
-43.3256
-43.2142
-43.2966
-44.4233
-44.2635
-44.106
-43.9745
-43.9094
-43.8322
-43.695
-43.6242
-43.5546
-43.6179
-43.6458
-43.552
-44.9936
-44.6491
-44.5435
-44.455
-44.3328
-44.2201
-44.0834
-43.9667
-43.9491
-43.9535
-43.924
-43.9078
-43.7858
-45.6323
-45.456
-45.2064
-45.0985
-44.8688
-44.7313
-44.5811
-44.441
-44.3294
-44.3063
-44.2072
-44.1657
-43.9767
-44.1151
-46.307
-46.2853
-45.9145
-45.8681
-45.6114
-45.4661
-45.3369
-45.1434
-44.9524
-44.8832
-44.7429
-44.6327
-44.6118
-44.3333
-44.5722
-47.2669
-47.0939
-46.9966
-46.6755
-46.5023
-46.2968
-46.1411
-45.9177
-45.7573
-45.5772
-45.4226
-45.2927
-45.1681
-45.1786
-45.3583
-45.1418
-48.3888
-48.2731
-48.0398
-47.9235
-47.6375
-47.491
-47.1141
-47.0336
-46.9064
-46.2952
-46.4379
-46.2056
-46.1158
-45.9813
-45.9444
-45.8987
-45.7824
-50.2534
-49.9906
-49.6305
-49.3992
-49.1323
-48.6769
-48.6462
-48.5065
-48.2459
-48.0181
-47.7451
-47.504
-47.2937
-46.9954
-47.0584
-46.7443
-46.6728
-46.4741
-52.11
-51.8966
-51.8848
-51.9499
-51.1283
-51.179
-50.6656
-50.5411
-50.2351
-50.1435
-49.7616
-49.5855
-49.1934
-48.677
-48.2611
-47.9846
-48.1043
-47.7289
-47.8266
-54.2495
-54.0448
-53.9567
-53.777
-53.997
-53.9467
-53.3048
-53.0153
-52.4854
-52.012
-51.9913
-51.7552
-51.4909
-51.2324
-50.9518
-50.4956
-50.0361
-49.5837
-49.5605
-48.7802
-56.4979
-56.0802
-55.8341
-55.7323
-55.8246
-56.1187
-56.2689
-55.4016
-55.4907
-55.1666
-54.5198
-54.8465
-54.4616
-54.176
-53.7885
-53.8306
-52.9437
-51.8804
-50.7644
-50.6536
-49.6999
-59.9466
-59.6416
-59.0955
-58.157
-57.4231
-57.297
-57.391
-57.2795
-57.1367
-56.9771
-56.6299
-56.6067
-57.1616
-58.0695
-58.644
-59.6996
-58.4828
-56.2763
-54.5466
-53.5175
-52.0866
-51.8707
-54.7824
-61.8157
-61.5594
-61.4346
-61.3094
-60.8336
-60.0783
-59.1824
-58.9305
-58.8358
-58.5943
-58.4985
-58.3038
-58.4563
-59.0811
-59.7571
-60.0139
-60.282
-59.8206
-57.3579
-57.081
-56.2817
-55.1914
-54.3733
-58.2318
-56.2111
-63.0959
-63.2983
-63.4347
-64.0084
-64.1414
-63.8708
-63.1173
-61.9591
-61.1737
-60.9234
-60.753
-60.5037
-60.3507
-60.5396
-60.7586
-60.7787
-60.8559
-61.0586
-60.7508
-58.7649
-58.4889
-58.5485
-57.7277
-61.3081
-60.2251
-61.7336
-62.3198
-62.4661
-62.636
-63.3611
-63.562
-63.7209
-63.4484
-62.6547
-61.7504
-61.5036
-61.2975
-61.0911
-60.9565
-60.9679
-61.2286
-61.4418
-61.9858
-61.7332
-61.925
-61.2307
-60.786
-61.0273
-63.4834
-63.1754
-60.0198
-59.3107
-60.4128
-61.0647
-61.6508
-61.9299
-62.1281
-62.6071
-62.7162
-62.5297
-62.1609
-61.9975
-61.8765
-61.8257
-61.6798
-61.7253
-61.9467
-62.2449
-62.4738
-63.0478
-63.5756
-62.8064
-63.4636
-42.2291
-42.2169
-42.1993
-42.3731
-42.346
-42.3115
-42.3367
-42.3694
-42.4117
-42.427
-42.3891
-42.3824
-42.5335
-42.4126
-42.5486
-42.4727