/*--------------------------------*- C++ -*----------------------------------*\
  =========                 |
  \\      /  F ield         | OpenFOAM: The Open Source CFD Toolbox
   \\    /   O peration     | Website:  https://openfoam.org
    \\  /    A nd           | Version:  7
     \\/     M anipulation  |
\*---------------------------------------------------------------------------*/
FoamFile
{
    version     2.0;
    format      ascii;
    class       surfaceScalarField;
    location    "1.5";
    object      phi;
}
// * * * * * * * * * * * * * * * * * * * * * * * * * * * * * * * * * * * * * //

dimensions      [0 3 -1 0 0 0 0];

internalField   nonuniform List<scalar> 
54125
(
0.000184706
-2.53923e-06
-0.00215176
0.00027965
4.78943e-05
-0.00251332
0.000157909
-5.47119e-05
-0.00295159
0.000193606
2.89356e-06
-0.00234825
0.000581612
-0.000184751
-0.00305496
0.000343805
-1.4517e-05
-0.00287158
0.000276177
-4.971e-06
-0.00259092
0.000142881
-7.13537e-05
-0.00132096
0.000155905
-4.62435e-05
-0.00305836
0.000197488
7.74879e-06
-0.00255349
0.000167174
0.00042636
-0.00564646
0.000713761
-0.000245928
-0.00320969
0.000556624
-0.000192017
-0.00314339
0.00032548
-8.8043e-05
-0.00238307
0.000357908
-3.92707e-05
-0.00303928
0.000282037
-4.31796e-05
-0.00263228
0.000120702
-7.27845e-05
-0.00133674
0.000147542
-5.97132e-05
-0.00145503
0.000152403
-3.74297e-05
-0.00316558
0.000197941
1.11479e-05
-0.00276258
-0.000674204
0.000613076
-0.00646845
0.00102609
0.000278157
-0.00368582
0.000287907
0.000419615
-0.00579736
0.000646772
-0.000166905
-0.00260767
0.000722386
-0.000265865
-0.00350033
0.000513576
-9.71772e-05
-0.00327775
0.000204872
-0.000138674
-0.0024598
0.000334714
-7.44987e-05
-0.00253501
0.000342229
-9.15969e-05
-0.00318069
0.000305244
-6.64376e-05
-0.00267315
0.000110427
-7.36869e-05
-0.00100975
0.000118597
-6.6452e-05
-0.0014486
0.000141703
-5.0895e-05
-0.00158327
0.00014762
-3.02425e-05
-0.00327181
0.000199754
1.43082e-05
-0.00297664
-0.000814155
0.000348084
-0.00534299
0.000359898
0.00138578
-0.00573529
-0.000476238
0.000540742
-0.00624505
0.000611913
0.000112422
-0.00340664
0.000986919
0.000181992
-0.00371273
0.000340387
0.000414057
-0.00603822
0.00033308
-7.91268e-05
-0.00247678
0.000659671
-0.000164694
-0.0030338
0.000686554
-0.000238046
-0.00370378
0.000511329
0.000127023
-0.00361086
0.000159344
-0.000128826
-0.0028812
0.000209551
-0.000128155
-0.0024971
0.00030599
-9.61773e-05
-0.00269472
0.000330619
-0.000126734
-0.0033034
0.000328358
-5.75833e-05
-0.00274417
6.48397e-05
-5.15446e-05
-0.0003858
0.000116213
-7.51783e-05
-0.00111723
0.000111015
-5.94159e-05
-0.00155109
0.000134458
-4.29198e-05
-0.00170505
0.000141034
-2.50197e-05
-0.00337352
0.00020029
1.75733e-05
-0.00319451
-0.000941335
0.000135503
-0.00539718
-0.000520332
0.00090282
-0.00730375
-0.000784581
0.000384542
-0.00541919
0.000257624
0.00130228
-0.00559919
0.000344848
0.00127501
-0.00582749
-0.000385044
0.000519249
-0.00603887
0.000243055
0.000143742
-0.00354034
0.000674652
1.35501e-05
-0.00325318
0.000919515
0.000175725
-0.00370736
0.000333192
0.000349197
-0.00620928
0.000212532
-0.000136804
-0.00240156
0.00039472
-0.000110449
-0.00271619
0.000618591
-0.000192332
-0.00339211
0.000686679
-0.000187669
-0.00374515
0.000457079
0.000199392
-0.00393898
9.07464e-05
-0.000109263
-0.00228056
0.000156612
-0.000135014
-0.00291474
0.000211986
-0.00011317
-0.00258107
0.000247849
-0.000101499
-0.00283335
0.000322246
-0.000149934
-0.00339226
0.000363175
-2.55895e-05
-0.00288147
8.96565e-05
-1.74136e-05
4.37867e-05
7.17541e-05
-5.60955e-05
-0.000476637
0.000120732
-7.28179e-05
-0.00122456
0.000107959
-5.13932e-05
-0.00165058
0.000128417
-3.74e-05
-0.00182108
0.000136175
-2.10283e-05
-0.00347109
0.000199609
2.04196e-05
-0.00341453
-0.00107972
0.000112615
-0.00467504
-0.00101761
0.000463316
-0.00590071
-0.000980339
0.000125928
-0.00532735
-0.000240866
0.00116711
-0.00722005
-0.000527995
0.000971761
-0.00701813
-0.000858547
0.000420374
-0.00536606
4.30993e-05
0.00110805
-0.00522359
0.000328969
0.00136708
-0.00534558
0.000365332
0.00111753
-0.00587159
-0.000322719
0.000535565
-0.00591852
0.000114293
0.000261253
-0.00294033
0.000421732
7.9223e-05
-0.00363303
0.000764772
-1.3962e-05
-0.00320968
0.000897313
0.000181082
-0.00374988
0.000203833
0.000333077
-0.00628911
6.53111e-05
-0.000133355
-0.00308936
0.000185754
-0.000138501
-0.00240265
0.000426149
-0.000160516
-0.00296217
0.000564746
-0.000231704
-0.00366497
0.000623766
-9.64821e-05
-0.0037508
0.000438459
0.000217283
-0.00423154
8.93671e-05
-5.91059e-05
-0.00144703
7.50872e-05
-0.000110415
-0.00230849
0.000145232
-0.00013118
-0.00292123
0.000207755
-9.0169e-05
-0.0026922
0.000205121
-9.72729e-05
-0.00296271
0.000325695
-0.000169381
-0.00343799
0.000389975
-1.56081e-05
-0.00305622
8.85124e-05
6.43225e-06
-0.000204415
9.13144e-05
-2.11336e-05
-8.24896e-05
8.59074e-05
-6.03125e-05
-0.00057505
0.000123646
-6.86017e-05
-0.001331
0.000104995
-4.49145e-05
-0.00174806
0.000119751
-3.36015e-05
-0.00192826
0.00012983
-1.71897e-05
-0.00356331
0.000200781
2.19826e-05
-0.0036373
-0.001568
0.000380395
-0.003789
-0.00141257
0.000379772
-0.00484115
-0.00118467
0.000198415
-0.00466913
-0.00047547
0.000738023
-0.00622478
-0.00097091
0.000469318
-0.00580118
-0.00105933
0.000109268
-0.00523583
-8.69936e-05
0.00127072
-0.00726067
-0.000185329
0.00125171
-0.00698571
-0.000427593
0.00108867
-0.0068935
-0.000853636
0.000391024
-0.00522617
3.9795e-05
0.000995652
-0.00606294
0.000291979
0.00123925
-0.00496602
0.000730002
0.001233
-0.00542627
0.00032536
0.000883345
-0.00564741
-0.000274027
0.000524007
-0.00596467
4.37432e-05
0.000157127
-0.00294545
0.000127535
0.000246901
-0.00304979
0.000506001
9.40489e-06
-0.00373625
0.000970632
7.83344e-05
-0.00351281
0.000775325
0.000333626
-0.00390198
0.000120686
0.000238253
-0.00620959
9.13935e-06
-7.06579e-05
-0.00356937
2.62085e-05
-0.000138312
-0.00304067
0.000183336
-0.000158947
-0.00244232
0.000417264
-0.000168147
-0.00323523
0.000492189
-0.000204613
-0.00384391
0.000613121
6.68683e-05
-0.00388781
0.000466057
0.000291983
-0.00459961
5.95394e-05
-1.97196e-06
-0.00151064
9.95561e-05
-5.66288e-05
-0.00150906
8.71326e-05
-0.000106544
-0.00233435
0.000134952
-0.000123114
-0.00289959
0.000190301
-6.34897e-05
-0.00281129
0.000198709
-0.000107652
-0.0031034
0.000333001
-0.000175265
-0.0034815
0.000394272
-4.81702e-06
-0.0032449
0.000103003
9.53896e-06
-0.000386152
7.9847e-05
1.49185e-06
-0.000306887
9.64664e-05
-2.60422e-05
-0.000213226
9.80139e-05
-6.33073e-05
-0.000678358
0.000117695
-6.33056e-05
-0.0014303
9.68986e-05
-3.95745e-05
-0.00183899
0.000114465
-2.98017e-05
-0.00203012
0.000125467
-1.28082e-05
-0.00365399
0.000200657
2.34419e-05
-0.0038614
-0.00176434
1.9861e-05
-0.00250066
-0.00131357
0.000282368
-0.00421112
-0.0016555
0.000302555
-0.00362073
-0.000656359
0.000584237
-0.00532557
-0.00135788
0.000466851
-0.00472261
-0.00126959
0.000205695
-0.00466457
-0.000303317
0.000944507
-0.00647784
-0.000378881
0.000810531
-0.00637244
-0.000910275
0.000442304
-0.00565154
-0.0010782
0.000153928
-0.00516519
0.000175113
0.00115753
-0.00704168
3.69263e-05
0.00133518
-0.00708908
0.00025013
0.00139456
-0.00681173
-0.000416925
0.000981807
-0.006742
-0.000689974
0.000304082
-0.00511431
3.90016e-05
0.000996074
-0.00616347
4.31918e-05
0.00103747
-0.00577681
0.000431907
0.00123597
-0.00489489
0.000902047
0.00103555
-0.00550989
0.000186275
0.00106109
-0.00559544
-0.000230421
0.000462395
-0.00607596
5.5404e-05
3.96505e-05
-0.00335309
-8.25744e-06
0.000188351
-0.00285244
0.000160368
0.000207219
-0.00322464
0.000498374
6.54912e-05
-0.00380452
0.000706037
0.000316756
-0.00370979
0.000783163
0.000304322
-0.0041381
0.000101896
0.000235893
-0.00608133
-1.79547e-05
-2.65131e-05
-0.00342065
1.74287e-05
-7.74811e-05
-0.00354807
3.81027e-05
-0.000156876
-0.00299371
0.000182764
-0.00016939
-0.00248889
0.000387559
-0.000166235
-0.00347087
0.000511983
-0.000104581
-0.00398574
0.000653624
0.000361061
-0.00427751
0.000437189
0.000354212
-0.00499674
8.97239e-05
-1.68622e-06
-0.00144246
4.69526e-05
2.32352e-06
-0.00153669
0.000110607
-6.76968e-05
-0.00156204
9.95319e-05
-0.000111278
-0.00234771
0.000126805
-0.000119703
-0.00285249
0.000161592
-4.47208e-05
-0.00293892
0.00021504
-0.000120759
-0.00325848
0.00032703
-0.000151257
-0.00353662
0.000385206
4.16022e-05
-0.00347105
0.000124484
4.1011e-06
-0.000388975
9.76016e-05
3.48705e-06
-0.000485749
7.02985e-05
-4.18395e-06
-0.000399044
0.000100247
-3.11882e-05
-0.000345593
0.000111327
-6.41828e-05
-0.000788808
0.000105084
-5.71455e-05
-0.00151782
8.54449e-05
-3.49728e-05
-0.00191926
0.000110036
-2.64885e-05
-0.00212647
0.000124531
-1.22202e-05
-0.00374286
0.000197694
2.53159e-05
-0.00408441
-0.00152192
-7.07214e-05
-0.00358302
-0.00101687
-0.00019289
-0.00417091
-0.00165642
8.45914e-05
-0.00258432
-0.000677612
0.000428235
-0.0051428
-0.00127521
0.000263972
-0.00425522
-0.00166682
0.000257997
-0.0034815
-0.000341476
0.000617933
-0.00563941
-0.000421613
0.000606029
-0.00542201
-0.00125161
0.000433432
-0.00460902
-0.00129763
0.000114081
-0.00455922
2.19933e-05
0.00107206
-0.00649719
-0.000179371
0.00102541
-0.00647643
-0.000298935
0.000919283
-0.00630035
-0.000842738
0.000415495
-0.00548729
-0.00105988
0.0002493
-0.00504459
0.000314025
0.000962771
-0.00723734
0.000206285
0.00117369
-0.00704328
0.000153878
0.0013909
-0.00680739
0.000142945
0.00137779
-0.00644861
-0.000540565
0.000850225
-0.0065613
-0.00060868
0.000308277
-0.00504432
0.000323481
0.000912933
-0.00554885
3.73768e-05
0.000933536
-0.00610517
6.62955e-05
0.00109085
-0.00553762
0.00042238
0.00122798
-0.00501133
0.000507937
0.00124803
-0.00549873
0.000343118
0.00105517
-0.00574817
-0.00023858
0.000402902
-0.00613838
-8.22359e-06
0.000121706
-0.0036025
6.22548e-05
0.000117462
-0.00332703
-1.42483e-06
0.000214108
-0.0028198
0.000179352
0.000161707
-0.00331744
0.00045344
0.000195056
-0.0037487
0.000928116
0.000355206
-0.00417681
0.000933115
0.000224216
-0.00440591
0.000105179
0.000255068
-0.00600438
0.000128348
3.15904e-05
-0.00340822
-2.99231e-05
-2.97505e-05
-0.0033915
-1.17792e-05
-8.0309e-05
-0.00350225
5.29914e-05
-0.000173115
-0.00294345
0.000170787
-0.000171094
-0.00252801
0.000372059
-0.000161773
-0.00362414
0.000659082
9.88303e-05
-0.00416755
0.000721225
0.000424978
-0.00474247
0.000433244
0.000360303
-0.00540508
0.000132409
4.88297e-06
-0.00087596
7.17583e-05
7.33058e-06
-0.00142162
5.29881e-05
-6.86042e-06
-0.00158022
0.00011106
-8.25137e-05
-0.00160162
9.93904e-05
-0.000115548
-0.00233993
0.000105913
-0.000116176
-0.00278186
0.000136888
-3.77303e-05
-0.00307339
0.000224474
-0.000125153
-0.00339902
0.000351212
-9.62925e-05
-0.00362541
0.000372078
7.20301e-05
-0.00371746
0.000131306
1.28322e-05
-0.000102698
0.000115809
1.78837e-06
-0.000503086
9.53667e-05
-3.13555e-06
-0.000582164
6.23976e-05
-9.69849e-06
-0.000482931
0.000109771
-3.67968e-05
-0.000482749
0.000122016
-6.31037e-05
-0.000904866
0.000100145
-4.90291e-05
-0.00160391
7.69605e-05
-3.19362e-05
-0.00199077
0.000101505
-2.74382e-05
-0.00221276
0.000116285
-1.26962e-05
-0.00382113
0.000191209
2.83365e-05
-0.00430395
-0.00172343
0.000130373
-0.00273227
-0.00136074
0.000204384
-0.0041217
-0.00138133
-0.000204744
-0.00365337
-0.000784543
-2.05985e-05
-0.00493995
-0.000839265
-0.000181928
-0.00434034
-0.00167041
0.000230169
-0.0028109
-0.000366227
0.000478915
-0.00526062
-0.000498539
0.00042995
-0.00523185
-0.00107996
0.000246637
-0.00441551
-0.00159567
0.000237217
-0.00342068
-0.000196964
0.000904545
-0.00589471
-0.000267248
0.000674075
-0.00561958
-0.000497094
0.000582743
-0.00537317
-0.00106631
0.000344543
-0.0046159
-0.0013636
0.000126313
-0.00438182
0.000435379
0.00114
-0.00645181
0.00013046
0.00112276
-0.00651872
-7.64375e-05
0.0010648
-0.00639163
-0.000276592
0.000906578
-0.0063719
-0.000762209
0.000409912
-0.00542626
-0.00100573
0.000279363
-0.0049269
0.000410097
0.00112209
-0.00695758
0.000220374
0.000999307
-0.00724596
8.19722e-05
0.00129469
-0.00696274
0.000183235
0.0014044
-0.00659485
0.000105157
0.00133206
-0.00652767
-0.000452856
0.00087527
-0.00633232
-0.000554192
0.000368157
-0.00509687
0.000244436
0.000803508
-0.00435413
0.000238389
0.000887582
-0.00567903
-7.65814e-06
0.000930696
-0.00593878
5.30463e-05
0.00113656
-0.0053199
0.000483023
0.00125026
-0.00504314
0.000911483
0.00119497
-0.0056219
0.000802777
0.00103924
-0.00625417
-0.000274146
0.000395605
-0.00615466
5.51266e-05
0.000221829
-0.00430211
4.28855e-05
0.000182021
-0.00373986
-3.37273e-05
0.000203837
-0.00329481
-1.67736e-06
0.000217218
-0.00282064
0.000179897
0.000116556
-0.00324805
0.000656666
0.000230797
-0.0039089
0.00108036
0.0002168
-0.00459067
0.00106002
0.000185135
-0.00467477
0.000165496
0.000256098
-0.00599273
5.35228e-05
0.000116082
-0.00273532
4.41052e-06
9.65865e-06
-0.00338028
-8.7333e-06
-3.1337e-05
-0.00337875
-3.8692e-06
-8.88099e-05
-0.00347163
4.8475e-05
-0.00018187
-0.00288175
0.000162307
-0.00019292
-0.00255326
0.000364649
-0.000153383
-0.00359969
0.000713122
0.00014312
-0.00437434
0.000729522
0.000372508
-0.00513298
0.000404397
0.000315547
-0.00575294
0.000141916
2.98662e-05
-0.00082847
0.000111234
1.12016e-05
-0.000875255
5.20501e-05
1.36202e-05
-0.00139878
2.83541e-05
-1.43501e-05
-0.00161434
0.000129404
-8.61924e-05
-0.00165061
0.000122141
-0.000111285
-0.00234494
0.00010608
-0.000110652
-0.00271487
0.000127932
-2.41051e-05
-0.00322541
0.000236139
-0.000139154
-0.00349079
0.000385344
-5.49353e-05
-0.0037675
0.000361786
9.39148e-05
-0.00398195
0.000104937
1.73634e-05
-4.66183e-05
0.000127778
1.48029e-05
-0.00024349
0.000108216
-9.27114e-07
-0.00061351
9.58868e-05
-7.89085e-06
-0.000679859
5.63489e-05
-1.39419e-05
-0.000562135
0.000126072
-4.14736e-05
-0.000630452
0.000121307
-5.86424e-05
-0.00101656
0.000111518
-4.04921e-05
-0.00170687
6.67863e-05
-2.886e-05
-0.00205614
9.0178e-05
-2.84731e-05
-0.00228716
0.000105175
-1.05479e-05
-0.00388742
0.000180004
2.84468e-05
-0.0045124
-0.00165791
-1.01053e-05
-0.00286612
-0.00133089
0.000158713
-0.0032114
-0.00163007
0.000132096
-0.00261563
-0.000934262
0.000311303
-0.00411563
-0.00106747
0.000154395
-0.00425263
-0.00153443
-0.000217135
-0.00357221
-0.000658051
0.000315735
-0.00484415
-0.000735479
-8.0751e-06
-0.00487687
-0.000645232
-2.38079e-05
-0.00452109
-0.00155715
0.000282067
-0.00313149
-0.000260762
0.000599133
-0.00524553
-0.000359711
0.000480921
-0.00521913
-0.000594659
0.000432941
-0.00532059
-0.000889174
0.000278514
-0.00463394
-0.00153789
0.000198593
-0.00344498
0.00019455
0.00115548
-0.00552946
-0.000207342
0.000964519
-0.00584736
-0.00025564
0.000781116
-0.00563875
-0.00043575
0.000524354
-0.00539382
-0.000851272
0.000330761
-0.00473129
-0.00131962
0.000176814
-0.00424474
0.000382806
0.00116008
-0.00619711
0.000322216
0.00113585
-0.00656673
0.000113513
0.00111476
-0.00660022
-6.45323e-05
0.00113032
-0.00636761
-0.000268543
0.000897467
-0.00648575
-0.000693221
0.00047481
-0.00538134
-0.00098614
0.000259525
-0.00475448
0.00024365
0.001292
-0.00673694
0.000194962
0.00116598
-0.00708083
0.000108026
0.00116124
-0.00722819
5.40096e-05
0.00127001
-0.00682932
0.000378152
0.00145137
-0.0066093
0.000338144
0.00127722
-0.00635628
-1.17641e-05
0.000988495
-0.00613812
-0.000619945
0.000296917
-0.00504799
-8.46573e-05
0.000850569
-0.00390586
0.000250783
0.000850994
-0.00452544
8.06637e-05
0.000955469
-0.00581819
6.43199e-05
0.000970941
-0.00583916
0.000189761
0.00111998
-0.00519948
0.000559248
0.00122508
-0.00497584
0.000761086
0.0011759
-0.00543928
0.000602548
0.00110149
-0.00650258
-0.000255181
0.000321308
-0.00605529
-5.40292e-06
0.000368199
-0.00452026
-0.000129523
0.000250753
-0.00423691
-2.57596e-05
0.000257734
-0.00377674
-7.53649e-05
0.000203397
-0.00320949
6.2786e-05
0.000192004
-0.0029104
0.000248771
5.68455e-05
-0.00316056
0.000724746
0.000232301
-0.00428449
0.0012795
-4.12244e-05
-0.0049307
0.00104135
0.000407547
-0.00513804
0.000199163
0.000285065
-0.00607256
4.39088e-05
0.000180994
-0.00240533
3.90172e-05
0.00012058
-0.00277402
-1.57179e-05
-1.8563e-06
-0.003342
-5.21371e-05
-3.26686e-05
-0.0033544
8.69429e-06
-9.07909e-05
-0.003442
9.58025e-05
-0.000221287
-0.00282705
0.000164935
-0.000204369
-0.00256113
0.000385806
-0.000125056
-0.00358939
0.000693932
0.000100519
-0.00456014
0.000664139
0.000262037
-0.00535827
0.000359862
0.000276212
-0.00602723
8.33501e-05
5.98765e-05
-0.00120184
0.000119405
3.77055e-05
-0.000846601
9.68829e-05
1.9416e-05
-0.000869718
3.07685e-05
1.79116e-05
-0.00136593
3.29533e-05
-2.28843e-05
-0.00165425
0.000173363
-8.28739e-05
-0.00172631
0.000106479
-0.000113216
-0.00232755
0.000171902
-8.55215e-05
-0.00271384
0.000103007
-9.44739e-05
-0.00330631
0.000272203
-0.000114151
-0.0036136
0.000413716
-2.11716e-05
-0.00396096
0.000354517
0.000117735
-0.0042742
8.56507e-05
1.80609e-05
-9.55251e-05
0.000111162
2.01763e-05
-0.000163153
0.000119766
1.6768e-05
-0.000380951
0.000100456
-2.85004e-06
-0.000719007
9.83135e-05
-1.13934e-05
-0.000780721
5.44592e-05
-1.61763e-05
-0.000641892
0.000142197
-4.30226e-05
-0.000788269
0.000137186
-5.22922e-05
-0.00114195
7.44921e-05
-3.51612e-05
-0.00177506
6.17123e-05
-2.71683e-05
-0.00211915
7.80728e-05
-2.69355e-05
-0.00234884
9.43076e-05
-1.21759e-05
-0.00394111
0.000165187
2.98181e-05
-0.00470741
-0.00159745
-0.000111545
-0.00264862
-0.00126857
-5.31758e-05
-0.00356247
-0.00157407
-6.1194e-05
-0.00286093
-0.00104084
0.000319375
-0.00386239
-0.00106023
0.000177035
-0.00326358
-0.00168913
9.49332e-05
-0.00255587
-0.000774956
0.000408518
-0.00436263
-0.000858189
0.000286438
-0.00412497
-0.00106976
0.000124268
-0.0041695
-0.00158511
-0.000105399
-0.00343885
-0.00041137
0.000453913
-0.00492614
-0.000701369
0.000342347
-0.00485291
-0.000761129
5.22335e-05
-0.00478644
-0.000836343
0.000208243
-0.00450009
-0.00150891
5.184e-05
-0.00321231
-8.08457e-05
0.000851784
-0.0052536
-0.000257677
0.000625634
-0.0053399
-0.000294346
0.000469172
-0.00521665
-0.00062045
0.000430706
-0.00528808
-0.000697056
0.000300997
-0.00489056
-0.00153295
0.000210288
-0.00344193
0.000207047
0.00126535
-0.00552126
0.000238817
0.00117379
-0.00565533
-6.26778e-05
0.000954443
-0.00584449
-0.00027883
0.000780044
-0.00568014
-0.00035925
0.000477548
-0.0054499
-0.000724024
0.000339013
-0.00486269
-0.00136333
0.000217459
-0.00408501
4.92308e-05
0.00118385
-0.00637214
0.000391696
0.00112391
-0.00638191
0.000167877
0.00115003
-0.00666186
9.28198e-05
0.00110914
-0.00661785
-1.03009e-06
0.00117661
-0.00626757
-0.000211687
0.000974548
-0.00643566
-0.000550012
0.000565112
-0.00514868
-0.00105249
0.000329231
-0.00465117
2.3013e-05
0.00139325
-0.00653332
0.000184088
0.00130135
-0.00680561
8.23727e-05
0.00117298
-0.00709427
0.000226768
0.0010818
-0.00720242
0.000321239
0.00131323
-0.00682266
0.000282182
0.001381
-0.00643602
0.000259379
0.00128359
-0.00614967
-0.000296488
0.000877913
-0.00582008
-0.00055337
0.000329049
-0.00507885
-4.45273e-05
0.000954064
-0.00432007
8.04399e-05
0.000910122
-0.00417495
0.000112338
0.000953468
-0.00466154
2.91815e-05
0.000926039
-0.00587784
4.08603e-05
0.00097252
-0.00566977
7.55616e-05
0.0011202
-0.00492139
0.00073354
0.00122282
-0.00503156
0.00113377
0.00115259
-0.00534465
0.000635829
0.00112294
-0.00689869
-0.000317727
0.000206452
-0.00574485
-3.69937e-05
0.00037098
-0.0041142
-5.41546e-05
0.000231292
-0.00440763
-0.000121838
0.000262494
-0.00413555
2.96927e-06
0.000254618
-0.00388306
-3.52359e-05
0.000269558
-0.00324312
0.000101907
0.000160233
-0.00301989
0.000280886
-5.42935e-05
-0.00298992
0.000794781
5.47787e-05
-0.00478947
0.00120855
-1.47107e-05
-0.00502306
0.000740637
0.00069727
-0.00562675
0.000181044
0.00030481
-0.00619856
5.4262e-05
0.000203937
-0.00252707
2.87279e-05
0.000209121
-0.00240319
7.78036e-05
9.59561e-05
-0.00285275
-6.68178e-05
4.03659e-06
-0.00328112
-1.50704e-06
-2.73361e-05
-0.0033834
6.58526e-05
-0.000108529
-0.00344725
0.000153826
-0.000215759
-0.00286301
0.000260147
-0.000209493
-0.00256494
0.000374131
-0.000115824
-0.00364417
0.000666786
2.31754e-05
-0.00471586
0.000600706
0.000253487
-0.00552253
0.000324892
0.000298702
-0.00629631
8.7169e-05
0.000106371
-0.00143354
8.89395e-05
6.12769e-05
-0.00120319
0.000121059
4.99402e-05
-0.000878418
6.928e-05
2.89754e-05
-0.000849606
2.25422e-05
1.46695e-05
-0.00132771
3.68438e-05
-3.58453e-05
-0.00168367
0.000151758
-8.14155e-05
-0.00176767
0.000160257
-0.00011723
-0.00231891
8.60314e-05
-0.000105057
-0.0027148
0.000111785
-8.09233e-05
-0.00338961
0.000284796
-8.7881e-05
-0.00375362
0.00039052
5.31449e-06
-0.00414475
0.000340931
0.000139049
-0.00458899
6.81774e-05
2.175e-05
-0.000177209
8.72215e-05
2.00733e-05
-0.000182644
0.000115203
2.39991e-05
-0.000285588
0.000107462
1.80893e-05
-0.000509352
9.17403e-05
-5.52014e-06
-0.000816621
0.000100714
-9.9129e-06
-0.000887698
5.80766e-05
-1.57218e-05
-0.000727269
0.000150656
-4.14409e-05
-0.000949776
0.000117455
-4.81399e-05
-0.00124642
7.83308e-05
-3.17157e-05
-0.00184884
5.72829e-05
-2.42742e-05
-0.0021791
6.1299e-05
-2.71614e-05
-0.00239516
8.28528e-05
-5.50396e-06
-0.00398864
0.000149487
3.11505e-05
-0.00488805
-0.00174732
0.000102388
-0.0023125
-0.00180029
0.000301518
-0.00303461
-0.00155973
-5.46813e-05
-0.00260827
-0.00106505
-2.72722e-05
-0.00365564
-0.00101079
-0.000109966
-0.00356314
-0.0015631
-9.18911e-05
-0.00289506
-0.00101481
0.000423403
-0.00385557
-0.00105868
0.000319141
-0.00380401
-0.00123702
8.17693e-05
-0.00308316
-0.00164627
8.93668e-05
-0.00258408
-0.000490252
0.000476208
-0.0044338
-0.000829158
0.000411062
-0.00435947
-0.000894429
0.000250939
-0.00411834
-0.00130234
0.000160174
-0.00396908
-0.0015443
-4.6427e-05
-0.00335703
-0.000400104
0.000699676
-0.00494183
-0.000396231
0.00050977
-0.00495501
-0.000566548
0.000378926
-0.0049074
-0.000796408
0.00026302
-0.00466526
-0.0010093
0.000173038
-0.00430905
-0.00146027
-5.98827e-05
-0.00322511
2.33409e-05
0.0010361
-0.00541423
-1.63128e-05
0.000853078
-0.00522592
-0.000263604
0.000660369
-0.00533018
-0.000352507
0.000465789
-0.00517806
-0.000540184
0.000403369
-0.00520952
-0.000795982
0.000319803
-0.00492812
-0.00154111
0.000227903
-0.00349206
-0.000103901
0.00127781
-0.0056916
0.000406482
0.00121854
-0.00558081
0.000160712
0.00108175
-0.00577548
-2.77632e-05
0.000921524
-0.00586539
-0.000200871
0.000778389
-0.00578114
-0.000311857
0.000479097
-0.00548981
-0.00063388
0.00038379
-0.00494515
-0.00136296
0.000170996
-0.00394553
1.51434e-05
0.00117812
-0.00650139
0.000124493
0.00109729
-0.00628592
0.000108846
0.00112327
-0.00638162
0.000203881
0.00114162
-0.00667145
0.000166375
0.00115318
-0.00643955
0.00017664
0.00118932
-0.0063768
-0.000136824
0.000944468
-0.00641881
-0.000569961
0.000510494
-0.00505647
-0.00106497
0.000360107
-0.00449967
-0.000104072
0.00142516
-0.00613635
-7.29691e-05
0.00136765
-0.00644621
-1.84427e-05
0.00129558
-0.00679743
0.000120521
0.00108655
-0.00719037
6.39021e-05
0.0011506
-0.00706283
9.23385e-06
0.00131185
-0.00668719
0.000276546
0.00142053
-0.00611596
0.000430924
0.00127732
-0.00584623
-8.86064e-05
0.000890826
-0.00565742
-0.000692446
0.000286743
-0.00499087
-2.5487e-05
0.00102903
-0.00450821
-2.39072e-05
0.000961296
-0.00440149
-0.000125189
0.000928079
-0.00414621
0.000218525
0.00092063
-0.00487168
3.36225e-05
0.000898109
-0.00587228
4.91396e-05
0.000985173
-0.00548198
0.000158298
0.00111238
-0.00468836
0.000822945
0.00115068
-0.00505781
0.000893683
0.00109696
-0.0050038
0.00023296
0.00101123
-0.0071958
-0.00038158
0.000163681
-0.00534591
3.74538e-06
0.000295118
-0.00394571
-5.36963e-05
0.000222126
-0.00402261
-3.89356e-05
0.000341544
-0.00436994
-0.000125554
0.000290967
-0.00411316
3.61843e-05
0.000297939
-0.00394913
1.38968e-05
0.000239438
-0.00327037
0.000127748
8.81755e-05
-0.00313628
0.000416997
-0.00017175
-0.00292024
0.000828254
-7.43946e-05
-0.00518391
0.00105727
0.000234367
-0.00495064
0.000404214
0.000805076
-0.00593052
0.000126873
0.000285028
-0.00628557
6.62287e-05
0.000181507
-0.0027489
4.11184e-05
0.000213841
-0.00248397
0.000134909
0.000176392
-0.00249748
-9.82893e-06
0.000102373
-0.00287198
-7.48364e-05
1.23161e-05
-0.00322339
7.08136e-06
-2.54638e-05
-0.0034367
4.03242e-05
-9.70617e-05
-0.00345451
0.000174858
-0.000231
-0.0028561
0.000191291
-0.000217261
-0.00256876
0.000369606
-8.22078e-05
-0.00379661
0.000598037
1.18957e-05
-0.00478751
0.000569967
0.000395346
-0.00579862
0.00022143
0.00033812
-0.00651493
6.96972e-05
0.000130433
-0.00112515
7.82826e-05
9.73299e-05
-0.00146066
0.000121198
6.8884e-05
-0.00122813
9.10638e-05
6.27378e-05
-0.000895782
3.80687e-05
3.71619e-05
-0.000818427
1.73181e-05
5.78968e-06
-0.00128595
2.43423e-05
-4.30098e-05
-0.00168834
0.000168765
-7.90914e-05
-0.00182392
0.00012987
-0.000105108
-0.00233128
0.000115893
-9.66353e-05
-0.00273665
0.000136438
-7.94489e-05
-0.0034772
0.000270473
-7.43445e-05
-0.00388313
0.000365254
4.08927e-05
-0.00432899
0.000315273
0.000154334
-0.00490911
6.74111e-05
1.80522e-05
-0.000154334
6.48669e-05
2.21972e-05
-0.0002442
8.71054e-05
2.28929e-05
-0.000268643
0.000114479
2.81823e-05
-0.00041016
9.41275e-05
1.86903e-05
-0.00062769
8.65528e-05
-5.203e-06
-0.000907883
9.97197e-05
-5.81436e-06
-0.000997325
6.90968e-05
-1.14156e-05
-0.000826391
0.000149763
-3.75447e-05
-0.00111013
0.000110812
-4.30982e-05
-0.00134585
6.57145e-05
-2.78536e-05
-0.00191098
5.32083e-05
-2.24678e-05
-0.002237
6.71418e-05
-2.16829e-05
-0.00244612
6.96601e-05
-4.26994e-06
-0.00402288
0.000131459
3.22539e-05
-0.00505176
-0.00181547
5.18966e-05
-0.00217825
-0.00151516
-1.82527e-05
-0.00266509
-0.00172192
0.000138277
-0.00228859
-0.00118255
0.000365451
-0.00331088
-0.0015001
0.000313991
-0.00291397
-0.00156254
-2.84233e-05
-0.00258041
-0.00123094
0.000198252
-0.00374433
-0.00128715
6.18221e-05
-0.00359895
-0.00121357
-9.62923e-05
-0.00358219
-0.0014811
-0.000116748
-0.00294348
-0.000424342
0.00048506
-0.00419416
-0.000781918
0.000343017
-0.00392668
-0.00103889
0.000274042
-0.00385182
-0.0011886
2.72629e-06
-0.00311027
-0.0016272
0.000103654
-0.00260484
-0.000462333
0.000543033
-0.00449132
-0.000531445
0.000516641
-0.00440417
-0.000768271
0.000407513
-0.00431432
-0.000863312
0.000262044
-0.0041533
-0.00147277
0.000150251
-0.00370228
-0.00148778
3.98466e-05
-0.00336936
-0.000109946
0.000878335
-0.00498249
-0.000238668
0.000725731
-0.00493544
-0.000408455
0.000503385
-0.00493462
-0.000605146
0.000414249
-0.00480599
-0.000677381
0.000255251
-0.00461027
-0.00112751
0.000143982
-0.00418139
-0.00142826
-4.13227e-05
-0.00329664
-0.000195268
0.00109585
-0.00559432
-1.23848e-05
0.0010438
-0.00518609
-8.71028e-05
0.000891441
-0.00520918
-0.000310409
0.000653092
-0.00523483
-0.00033245
0.000483917
-0.00512703
-0.000561224
0.000433222
-0.00507357
-0.000890304
0.000283668
-0.00472746
-0.00142242
6.20717e-05
-0.00349467
-0.000111508
0.0013259
-0.00563534
-6.21936e-06
0.00121703
-0.00555938
6.32408e-05
0.00118668
-0.00564013
0.000147645
0.00102021
-0.00581793
5.62226e-05
0.00088439
-0.00586124
-4.35068e-05
0.000752961
-0.00583486
-0.000307825
0.000518312
-0.00545333
-0.000777947
0.000407013
-0.00497318
-0.00136704
0.000178277
-0.00382175
-0.000134045
0.00116881
-0.00658543
-0.000301335
0.0011129
-0.00628863
7.76207e-05
0.00113432
-0.00639303
5.14926e-05
0.0011557
-0.00632667
0.000128327
0.00110134
-0.00668404
9.59454e-05
0.001141
-0.00647794
5.77866e-05
0.00113794
-0.00635152
-0.000292675
0.000868784
-0.00605351
-0.00042728
0.000594833
-0.00495252
-0.0011033
0.000222225
-0.00431104
-0.000134284
0.00144607
-0.00612227
-0.000151232
0.0014082
-0.00604957
-0.000131344
0.00136817
-0.00651265
5.00148e-05
0.00124673
-0.0067891
4.31102e-05
0.00110268
-0.00715193
-9.73573e-05
0.00121067
-0.00681515
4.33407e-05
0.00133518
-0.00648688
0.000406806
0.00145796
-0.00588046
0.000331101
0.00117808
-0.0055709
-0.000436665
0.000795062
-0.00549611
-0.000912575
0.000349703
-0.00480958
-5.26858e-07
0.00107284
-0.00434962
-1.91977e-05
0.000998046
-0.00457946
-8.20879e-05
0.000947216
-0.00437748
-3.74338e-05
0.000946822
-0.00426052
0.00019417
0.000891654
-0.00502321
7.32221e-05
0.000879032
-0.00582547
-3.59527e-06
0.000993545
-0.00523181
0.000269717
0.00105214
-0.00444254
0.00119206
0.000974076
-0.00529873
0.00105604
0.00109099
-0.00508233
-4.42243e-05
0.000833555
-0.00741723
-0.000433041
5.39846e-05
-0.00483998
-3.53059e-05
0.0002681
-0.00403755
-1.16469e-05
0.000291079
-0.0039619
8.62852e-05
0.000338933
-0.00397137
-0.000135583
0.000236614
-0.00418983
-0.000102774
0.000281731
-0.00406902
3.09975e-05
0.000216856
-0.00395047
4.743e-05
0.000341062
-0.00353036
0.000123908
4.55348e-05
-0.00330262
0.000511883
-0.000128263
-0.00318696
0.000867042
-0.000148329
-0.00529865
0.00091069
0.000491713
-0.00494993
0.000190507
0.00067895
-0.00594498
-7.53221e-05
0.000273152
-0.00626197
7.053e-05
0.000184408
-0.00279922
5.6862e-05
0.000183812
-0.00269745
0.000113162
0.00019212
-0.00249166
-7.91399e-07
0.000189681
-0.00249293
-0.000112091
0.000107395
-0.0028169
-0.00010343
8.87124e-06
-0.00313698
-1.70985e-05
-3.3646e-05
-0.00345868
4.6642e-05
-0.000106406
-0.00345698
0.000152762
-0.000233261
-0.00286299
0.000166451
-0.000202238
-0.00249929
0.000382775
-6.79631e-05
-0.00396309
0.000547318
7.3133e-05
-0.00474214
0.000544544
0.000441593
-0.00608139
0.000149002
0.000346754
-0.00669541
0.000113068
0.000110579
-0.00116406
7.82983e-05
0.000120938
-0.00116218
8.26264e-05
9.29612e-05
-0.00148026
0.000106351
7.56507e-05
-0.00123292
7.45319e-05
7.29272e-05
-0.000911952
2.97872e-05
5.02407e-05
-0.000806112
1.85743e-05
1.01171e-06
-0.00124883
2.94311e-05
-4.87455e-05
-0.00167902
0.000158069
-8.30176e-05
-0.00185432
0.000156666
-0.000107116
-0.00236665
9.31737e-05
-0.00010286
-0.0027407
0.000148529
-9.37819e-05
-0.00355308
0.000260745
-5.83176e-05
-0.00397753
0.000343489
6.84692e-05
-0.00451696
0.000285002
0.000164189
-0.00522685
8.48007e-05
-1.88497e-06
0.000164225
6.56132e-05
1.77458e-05
-0.000215496
6.25598e-05
2.28981e-05
-0.000306765
8.50905e-05
2.66772e-05
-0.000352228
0.000109657
3.1856e-05
-0.000532983
8.00902e-05
1.92759e-05
-0.00073226
8.72229e-05
-2.97667e-06
-0.000997944
9.60158e-05
-6.44041e-07
-0.00110411
7.9848e-05
-7.11809e-06
-0.000936666
0.000146533
-3.10547e-05
-0.00126871
0.000101089