/*--------------------------------*- C++ -*----------------------------------*\
  =========                 |
  \\      /  F ield         | OpenFOAM: The Open Source CFD Toolbox
   \\    /   O peration     | Website:  https://openfoam.org
    \\  /    A nd           | Version:  7
     \\/     M anipulation  |
\*---------------------------------------------------------------------------*/
FoamFile
{
    version     2.0;
    format      ascii;
    class       surfaceScalarField;
    location    "1.5";
    object      phi_0;
}
// * * * * * * * * * * * * * * * * * * * * * * * * * * * * * * * * * * * * * //

dimensions      [0 3 -1 0 0 0 0];

internalField   nonuniform List<scalar> 
54125
(
0.000182636
-4.11687e-06
-0.00213151
0.00028084
5.2949e-05
-0.0025121
0.000156411
-5.57833e-05
-0.00295198
0.000191642
1.17596e-06
-0.00232432
0.000583661
-0.000182457
-0.00305345
0.000341612
-1.21891e-05
-0.00285516
0.000276957
3.1106e-07
-0.00259772
0.000141887
-7.27189e-05
-0.00130239
0.000154225
-4.7695e-05
-0.00305734
0.000195697
6.14235e-06
-0.00252616
0.000163493
0.000427408
-0.00565356
0.000713569
-0.00023843
-0.00318913
0.000564698
-0.000191318
-0.00314987
0.000323679
-9.11783e-05
-0.00237303
0.000358957
-3.49794e-05
-0.0030246
0.000280193
-4.06997e-05
-0.00264152
0.000119265
-7.36992e-05
-0.00132546
0.000147665
-6.07616e-05
-0.00143699
0.000151106
-3.91116e-05
-0.00316319
0.00019599
9.48757e-06
-0.00273164
-0.000677971
0.00061455
-0.00648973
0.001022
0.000286577
-0.00368422
0.000279305
0.000421737
-0.0057899
0.000642502
-0.000162318
-0.00257646
0.000726021
-0.000267679
-0.00347983
0.00051695
-0.000114734
-0.00327189
0.000203603
-0.000140295
-0.00245594
0.000335752
-7.40079e-05
-0.00252209
0.000343935
-8.66559e-05
-0.00317147
0.000303626
-6.57503e-05
-0.0026834
0.000108679
-7.36686e-05
-0.00100149
0.000118876
-6.7263e-05
-0.00143783
0.000142619
-5.19311e-05
-0.00156679
0.000146421
-3.19356e-05
-0.00326819
0.00019748
1.26554e-05
-0.00294178
-0.000818798
0.000346432
-0.00532322
0.000350124
0.00138397
-0.00573436
-0.000492197
0.000545192
-0.00626342
0.000596946
0.000117437
-0.00341797
0.000990411
0.000188505
-0.00371537
0.000337748
0.000417449
-0.00602815
0.000330368
-7.55428e-05
-0.00245667
0.000660037
-0.000165541
-0.00300288
0.000689661
-0.000241702
-0.00369859
0.000516118
0.000112292
-0.00359668
0.000157694
-0.000127729
-0.00287746
0.000209072
-0.000129636
-0.00249051
0.000309286
-9.36707e-05
-0.00268174
0.000331723
-0.000123524
-0.003299
0.000325321
-6.00979e-05
-0.00275115
6.43982e-05
-5.13883e-05
-0.00038422
0.000115223
-7.54271e-05
-0.00110855
0.000111429
-6.064e-05
-0.00154055
0.000135272
-4.37904e-05
-0.0016902
0.000140237
-2.65867e-05
-0.00336918
0.00019849
1.59694e-05
-0.00315624
-0.000940016
0.000137487
-0.00539459
-0.00052246
0.000897578
-0.00733264
-0.000783601
0.000380596
-0.00541241
0.000242206
0.00129633
-0.00564212
0.000341505
0.00129136
-0.00583163
-0.000392476
0.000516168
-0.00604937
0.000241632
0.000148746
-0.00354669
0.000663655
2.19887e-05
-0.00325508
0.000922684
0.000178281
-0.00370923
0.000339256
0.000353778
-0.00620506
0.0002128
-0.00013573
-0.00239732
0.00038885
-0.000106844
-0.00269514
0.000622098
-0.000190867
-0.00336653
0.000690436
-0.000195152
-0.00374986
0.000461913
0.000200732
-0.003934
9.07673e-05
-0.0001082
-0.00227915
0.000155704
-0.000134912
-0.00291267
0.000212541
-0.000114223
-0.00257107
0.000253831
-0.000103017
-0.00282081
0.000324732
-0.000146475
-0.00339712
0.000358936
-2.93407e-05
-0.00288225
8.95615e-05
-1.71603e-05
5.32528e-05
7.08007e-05
-5.59217e-05
-0.000474526
0.00011949
-7.35862e-05
-0.00121509
0.000107611
-5.24694e-05
-0.00163948
0.000129178
-3.80681e-05
-0.0018079
0.000134576
-2.25461e-05
-0.00346524
0.000198613
1.91285e-05
-0.00337398
-0.00107297
0.000107398
-0.00467842
-0.00101857
0.000461629
-0.00590627
-0.000978123
0.000127195
-0.00532726
-0.000245988
0.00115489
-0.00723599
-0.000532861
0.000966367
-0.00704405
-0.000855107
0.000421089
-0.00537087
4.05395e-05
0.0011052
-0.00526164
0.000319398
0.00137075
-0.00537725
0.000364282
0.00113424
-0.0058913
-0.000329486
0.000533352
-0.00591398
0.000117567
0.000266487
-0.00294104
0.000411
8.6833e-05
-0.00363369
0.000755718
-9.74094e-06
-0.00320067
0.000906902
0.000173866
-0.00374578
0.000215177
0.00033863
-0.00629696
6.5281e-05
-0.000133176
-0.00309075
0.000185975
-0.00013741
-0.00239703
0.000425255
-0.000158761
-0.00293996
0.000573824
-0.000229507
-0.00365216
0.000630348
-0.000109223
-0.00374552
0.000434403
0.000208152
-0.00421762
9.05597e-05
-5.82842e-05
-0.00144513
7.47621e-05
-0.000110421
-0.0023076
0.000146163
-0.000131535
-0.00292203
0.00020729
-9.50385e-05
-0.00267873
0.000205561
-9.67367e-05
-0.00294693
0.000321486
-0.000168586
-0.00344479
0.000386782
-1.50783e-05
-0.00305534
8.86982e-05
6.89713e-06
-0.000196906
9.07944e-05
-2.07873e-05
-7.2676e-05
8.46759e-05
-6.01839e-05
-0.000572604
0.000122611
-6.93227e-05
-0.00132085
0.000105506
-4.57757e-05
-0.00173728
0.000120209
-3.42828e-05
-0.00191637
0.000129385
-1.85334e-05
-0.00355696
0.000201068
2.10517e-05
-0.0035961
-0.00156287
0.000384217
-0.00380338
-0.00141529
0.000374819
-0.00484445
-0.00117866
0.000194903
-0.00467279
-0.000482305
0.000733682
-0.00621969
-0.000972466
0.000468947
-0.00580842
-0.00105749
0.0001095
-0.00523439
-8.93934e-05
0.00126072
-0.00727367
-0.000180376
0.0012444
-0.00701425
-0.000432941
0.00108316
-0.0069089
-0.000860162
0.00039535
-0.00523554
3.54941e-05
0.000998411
-0.00609778
0.000282607
0.00123373
-0.00499623
0.000696405
0.00124957
-0.00543326
0.00033634
0.00087945
-0.00566684
-0.000276186
0.000528211
-0.00595083
4.82815e-05
0.000158668
-0.00295584
0.000124182
0.000251034
-0.00304345
0.00050021
1.61984e-05
-0.00373458
0.000979175
6.38364e-05
-0.003496
0.000781862
0.000328251
-0.00388692
0.000122306
0.000245427
-0.00623029
1.14717e-05
-7.00022e-05
-0.00357361
2.68504e-05
-0.000137185
-0.00304306
0.000182266
-0.00015846
-0.00243343
0.000416957
-0.000167832
-0.00321131
0.000494439
-0.000215778
-0.00383449
0.000610769
4.00619e-05
-0.00386671
0.000466272
0.000283333
-0.00458045
6.0076e-05
-1.65167e-06
-0.00150481
9.79317e-05
-5.60111e-05
-0.00150668
8.60935e-05
-0.000106232
-0.00233432
0.00013311
-0.000124454
-0.00290311
0.000191518
-6.64625e-05
-0.00279502
0.000197502
-0.000106638
-0.00308617
0.000333903
-0.000174965
-0.00348942
0.000392767
-1.00474e-05
-0.00323699
0.000103114
9.95505e-06
-0.000376182
8.01575e-05
1.88506e-06
-0.000299735
9.59726e-05
-2.56515e-05
-0.000203181
9.68846e-05
-6.32836e-05
-0.000675528
0.000118387
-6.41165e-05
-0.0014209
9.78631e-05
-4.03589e-05
-0.00182907
0.000114227
-3.05128e-05
-0.00201862
0.00012355
-1.40742e-05
-0.00364539
0.000200866
2.26969e-05
-0.00381966
-0.00177223
2.09329e-05
-0.0024934
-0.00131473
0.000283328
-0.00420718
-0.00165459
0.000304317
-0.00363176
-0.000663124
0.00058163
-0.00532224
-0.00136226
0.000465255
-0.004725
-0.00126588
0.000205279
-0.00466967
-0.000303542
0.000941828
-0.00648039
-0.000376283
0.000804313
-0.00635915
-0.000914793
0.000444945
-0.00566201
-0.00107913
0.000151416
-0.00516684
0.000163561
0.00115218
-0.00704371
3.11697e-05
0.00132857
-0.00710641
0.00021649
0.00138377
-0.00683494
-0.000410775
0.000991239
-0.00675767
-0.000698689
0.000306207
-0.00511925
4.29578e-05
0.000998356
-0.00617136
4.17851e-05
0.00103203
-0.00581369
0.000419463
0.00123773
-0.00490364
0.000916827
0.00103581
-0.00552727
0.000185922
0.00105911
-0.00560179
-0.0002328
0.000467014
-0.00606273
6.0509e-05
3.81413e-05
-0.00335377
-6.78154e-06
0.000188216
-0.00285939
0.000156408
0.000213694
-0.00321509
0.000495352
5.79669e-05
-0.00380711
0.000695402
0.000307233
-0.00367594
0.00077586
0.000310802
-0.00411738
0.000102461
0.00022967
-0.00609615
-1.67989e-05
-2.51017e-05
-0.00342404
1.66962e-05
-7.67038e-05
-0.00355285
3.68399e-05
-0.00015596
-0.00299631
0.000182114
-0.000169057
-0.00248121
0.000387769
-0.000166602
-0.00345673
0.000504289
-0.000117298
-0.00398391
0.000647237
0.000343214
-0.00423993
0.000435258
0.00034987
-0.00497281
9.11847e-05
-1.84125e-06
-0.00143763
4.72732e-05
3.14581e-06
-0.00153108
0.000110236
-6.60164e-05
-0.00156116
9.83613e-05
-0.000110627
-0.00234963
0.000127389
-0.00012019
-0.00285839
0.000163437
-4.71444e-05
-0.00292008
0.000212557
-0.000120793
-0.00323867
0.000323069
-0.000157196
-0.00354179
0.000383497
3.5973e-05
-0.0034556
0.000124956
4.28266e-06
-0.000377814
9.75734e-05
4.01153e-06
-0.000475882
7.06894e-05
-3.54446e-06
-0.000392532
9.95355e-05
-3.08403e-05
-0.00033516
0.000109911
-6.42872e-05
-0.000785268
0.000105288
-5.80259e-05
-0.00150852
8.6511e-05
-3.55802e-05
-0.00191051
0.00011049
-2.71078e-05
-0.00211608
0.00012382
-1.23354e-05
-0.00373418
0.00019699
2.40876e-05
-0.00404074
-0.00152929
-6.8476e-05
-0.00357838
-0.00101739
-0.000191904
-0.00416547
-0.00165843
8.5573e-05
-0.00257513
-0.000681587
0.000427208
-0.00513701
-0.00128311
0.000264965
-0.00424698
-0.00166634
0.000256986
-0.00348829
-0.000342033
0.000615244
-0.00563514
-0.000422062
0.000605281
-0.00541649
-0.00126145
0.000436191
-0.00460926
-0.00129666
0.000114631
-0.00456677
2.41416e-05
0.00106957
-0.00649719
-0.000190479
0.00101947
-0.0064739
-0.000309068
0.000914967
-0.00630361
-0.00084637
0.000415477
-0.00549048
-0.00106358
0.000246766
-0.00504871
0.000318588
0.000959352
-0.00723463
0.000210735
0.00116294
-0.00704704
0.000146669
0.0013826
-0.00683244
0.00014874
0.00137749
-0.00645311
-0.00053835
0.000854735
-0.00658193
-0.000613161
0.000300738
-0.00503962
0.000332114
0.000910999
-0.00552988
3.98307e-05
0.000936782
-0.00612272
6.54743e-05
0.00108465
-0.00556968
0.000418807
0.00122884
-0.00502012
0.00049957
0.00124799
-0.00552032
0.000302281
0.00105502
-0.00571622
-0.000237248
0.00040582
-0.00612884
-1.21892e-05
0.000120797
-0.00359513
6.54713e-05
0.00011293
-0.00332726
-2.29174e-06
0.000215437
-0.002822
0.000177049
0.000168116
-0.00332017
0.000444348
0.000190223
-0.00374668
0.000911385
0.000362596
-0.00413483
0.00091941
0.000227906
-0.00438779
9.81708e-05
0.00025616
-0.00601522
0.000134897
3.24715e-05
-0.003405
-2.9813e-05
-2.90617e-05
-0.0033946
-1.18814e-05
-7.94049e-05
-0.00350729
5.04607e-05
-0.000171968
-0.00294549
0.000169735
-0.00017076
-0.0025194
0.000371214
-0.000161616
-0.00362019
0.000649092
8.569e-05
-0.00416293
0.000717748
0.000428257
-0.00471299
0.00043137
0.000359824
-0.0053805
0.000133999
5.02233e-06
-0.000868859
7.33317e-05
7.42912e-06
-0.00141767
5.3556e-05
-5.44721e-06
-0.00157452
0.000110369
-8.12986e-05
-0.00160132
9.75102e-05
-0.000115197
-0.00234222
0.000105043
-0.000117026
-0.00278826
0.000137843
-3.88879e-05
-0.00305332
0.00022341
-0.000122418
-0.00338637
0.000347042
-0.000103323
-0.00362571
0.000371735
6.80227e-05
-0.00369836
0.000131411
1.29151e-05
-8.98781e-05
0.000116195
2.19134e-06
-0.000492189
9.50788e-05
-2.47949e-06
-0.000572026
6.26008e-05
-9.32564e-06
-0.000476647
0.00010839
-3.62396e-05
-0.000471597
0.000121667
-6.32432e-05
-0.000901718
9.96782e-05
-5.0465e-05
-0.00159331
7.80298e-05
-3.23578e-05
-0.00198329
0.000103306
-2.69444e-05
-0.00220477
0.000116754
-1.27206e-05
-0.00381412
0.000191055
2.67041e-05
-0.0042585
-0.0017256
0.000129439
-0.00273528
-0.00135944
0.00020453
-0.00412089
-0.00138119
-0.000202881
-0.00365275
-0.000787032
-2.00372e-05
-0.004939
-0.000847931
-0.000184367
-0.00433071
-0.00167086
0.000231092
-0.0028017
-0.000368655
0.000478472
-0.00525723
-0.000497908
0.00042983
-0.00522603
-0.00109433
0.000247114
-0.00440422
-0.00159528
0.000236833
-0.0034265
-0.000195096
0.000902583
-0.00589181
-0.000270506
0.000668659
-0.00561849
-0.000500967
0.000584437
-0.00537283
-0.00107478
0.000347011
-0.00461323
-0.00136229
0.000125877
-0.00439394
0.000440958
0.00114011
-0.00643882
0.000128222
0.00111922
-0.00651443
-7.52607e-05
0.00105965
-0.00639665
-0.000275082
0.000904
-0.00636831
-0.000761879
0.000407144
-0.00542733
-0.00100707
0.00028108
-0.00493588
0.000420393
0.00112179
-0.00693986
0.000226563
0.000987887
-0.0072463
8.57809e-05
0.00128839
-0.00697314
0.000174873
0.00139798
-0.00660899
0.000106771
0.00133304
-0.00653861
-0.000489653
0.000865147
-0.0063544
-0.00055057
0.000371036
-0.00509734
0.000229231
0.00080379
-0.0043337
0.000248353
0.000886614
-0.0056626
-1.25719e-05
0.000929903
-0.00595769
4.42764e-05
0.00113396
-0.00534203
0.000473295
0.00124978
-0.00505086
0.000890707
0.00119879
-0.00564342
0.000804414
0.00103432
-0.00622972
-0.000271426
0.000397957
-0.0061572
6.44543e-05
0.000222106
-0.00430607
4.33991e-05
0.000177977
-0.00373339
-2.78064e-05
0.00020219
-0.00329809
-4.66098e-06
0.000220421
-0.00281919
0.000177523
0.000120303
-0.00325804
0.000640701
0.000231533
-0.0038851
0.00106233
0.000236287
-0.00455645
0.00105381
0.000177307
-0.004645
0.000154982
0.000252287
-0.00599112
5.26346e-05
0.000115698
-0.00273031
8.48065e-06
1.07149e-05
-0.00337992
-8.17764e-06
-3.0477e-05
-0.00338179
-5.36667e-06
-8.82118e-05
-0.00347531
4.8054e-05
-0.000180879
-0.00288592
0.000160824
-0.00019223
-0.00254457
0.00036214
-0.000156518
-0.00360228
0.000710896
0.00014483
-0.00436698
0.000730848
0.000376325
-0.0051133
0.000409374
0.000318813
-0.00573696
0.000143088
2.97449e-05
-0.000823313
0.000112401
1.12923e-05
-0.000868928
5.36345e-05
1.39051e-05
-0.00139558
2.95799e-05
-1.31204e-05
-0.00160967
0.000127672
-8.56528e-05
-0.00165015
0.000120626
-0.000111051
-0.00234715
0.000102506
-0.000112068
-0.00271791
0.000128667
-1.92111e-05
-0.00320716
0.000236242
-0.000140831
-0.0034818
0.00037989
-6.08159e-05
-0.00376001
0.000360164
8.92002e-05
-0.00395667
0.000104476
1.73714e-05
-3.82289e-05
0.000128043
1.48737e-05
-0.000230603
0.00010861
-5.54713e-07
-0.000602724
9.54222e-05
-7.47293e-06
-0.000669301
5.64538e-05
-1.35392e-05
-0.000555802
0.000124506
-4.11961e-05
-0.00061815
0.00012036
-5.9385e-05
-0.00101316
0.000112499
-4.13759e-05
-0.00169679
6.77575e-05
-2.92189e-05
-0.00204878
9.21308e-05
-2.79612e-05
-0.00228166
0.000106094
-1.12813e-05
-0.00388223
0.00018022
2.7889e-05
-0.0044666
-0.00166163
-8.47242e-06
-0.00286406
-0.00133259
0.000158757
-0.00321057
-0.00162927
0.000131878
-0.00261907
-0.000935215
0.000310455
-0.00411788
-0.00107141
0.000154354
-0.00425465
-0.00153337
-0.000217028
-0.00357321
-0.000657206
0.000314626
-0.00484373
-0.000733909
-8.61376e-06
-0.00487875
-0.000646581
-3.14798e-05
-0.00451589
-0.00155898
0.000287039
-0.00312504
-0.000261112
0.000598554
-0.00523991
-0.000358172
0.000480777
-0.00522051
-0.000595688
0.000433349
-0.00531755
-0.000896387
0.000275882
-0.00462166
-0.00153719
0.000195804
-0.00344739
0.000191586
0.0011559
-0.00552267
-0.000211858
0.00096336
-0.00584643
-0.000255098
0.000779265
-0.00563348
-0.000436087
0.000526706
-0.00539152
-0.000855482
0.000331467
-0.00472522
-0.00131906
0.000173465
-0.00425542
0.000377355
0.00116262
-0.00618771
0.000330749
0.00113345
-0.00655723
0.000114574
0.00111358
-0.00659715
-7.15302e-05
0.00112404
-0.00637029
-0.000273228
0.000894529
-0.0064757
-0.000703978
0.000469948
-0.00540187
-0.000982114
0.000255846
-0.00476018
0.000228265
0.00129515
-0.00672088
0.000205664
0.00116441
-0.0070737
0.000104326
0.00115614
-0.00723094
4.33312e-05
0.00126578
-0.00684
0.000371521
0.00144904
-0.00662322
0.000320976
0.00127922
-0.00638295
-3.0965e-06
0.000991817
-0.00616767
-0.000620904
0.000295316
-0.00504318
-9.30174e-05
0.000852392
-0.00389577
0.000256431
0.00084617
-0.00450629
9.44289e-05
0.000955527
-0.00581046
6.33873e-05
0.000968105
-0.00585988
0.000195978
0.00111862
-0.00522932
0.000540268
0.00122546
-0.00497709
0.000738497
0.00118041
-0.00546568
0.000606052
0.00109247
-0.00647648
-0.000257484
0.0003317
-0.00607644
-7.03063e-06
0.000373619
-0.00452228
-0.000125926
0.000248804
-0.00424249
-2.57566e-05
0.000255959
-0.00376958
-7.54482e-05
0.000201578
-0.00320916
6.09364e-05
0.000194956
-0.00290672
0.000241276
6.54083e-05
-0.00317237
0.000714181
0.000239052
-0.0042399
0.00127627
-2.50335e-05
-0.00491948
0.00105462
0.000378723
-0.00509521
0.000198006
0.000281786
-0.00606153
4.50366e-05
0.000179753
-0.00240328
3.77265e-05
0.000120875
-0.0027658
-1.13802e-05
-1.04579e-06
-0.00334434
-5.20126e-05
-3.24034e-05
-0.00335601
9.14966e-06
-9.04931e-05
-0.00344718
9.04394e-05
-0.000220089
-0.00282787
0.000161097
-0.000204485
-0.00255519
0.000384128
-0.000127759
-0.00358515
0.000701141
0.00010205
-0.00455761
0.000668008
0.000274073
-0.00535668
0.000360957
0.000280895
-0.00601864
8.29561e-05
6.00495e-05
-0.0012012
0.000120189
3.73995e-05
-0.000841567
9.78954e-05
1.94408e-05
-0.000863748
3.17027e-05
1.86272e-05
-0.0013636
3.12477e-05
-2.14003e-05
-0.00164872
0.000171333
-8.24149e-05
-0.00172561
0.000105583
-0.000112634
-0.00233181
0.000172474
-8.60897e-05
-0.002711
0.000103455
-9.23079e-05
-0.00329138
0.000266836
-0.000118695
-0.00359862
0.000411008
-2.61425e-05
-0.00394958
0.000353945
0.000113113
-0.00424351
8.54077e-05
1.80992e-05
-8.94309e-05
0.00011068
2.01134e-05
-0.000154149
0.000120486
1.68672e-05
-0.000368511
0.000100932
-2.51044e-06
-0.000708618
9.77519e-05
-1.12558e-05
-0.000769336
5.40518e-05
-1.61532e-05
-0.000634896
0.000141006
-4.29856e-05
-0.000775555
0.000136552
-5.27088e-05
-0.00113838
7.49819e-05
-3.5858e-05
-0.00176514
6.19638e-05
-2.75449e-05
-0.00211116
8.02217e-05
-2.66301e-05
-0.00234654
9.58314e-05
-1.29961e-05
-0.00393718
0.000164889
2.87741e-05
-0.00466027
-0.00159904
-0.000112331
-0.0026501
-0.00126654
-5.27746e-05
-0.00356123
-0.00157492
-5.99843e-05
-0.00285843
-0.00104025
0.000319455
-0.0038618
-0.00106172
0.000178044
-0.00326642
-0.00169008
9.45677e-05
-0.00255694
-0.00077165
0.000407537
-0.00436422
-0.000859053
0.000286436
-0.00412482
-0.00106428
0.000123865
-0.00417784
-0.00158514
-0.000107603
-0.00343945
-0.000411117
0.000453225
-0.00492576
-0.000702773
0.000341743
-0.00484949
-0.000761281
4.78297e-05
-0.00479247
-0.000830578
0.000206096
-0.00450076
-0.00151182
5.90114e-05
-0.00320943
-8.51452e-05
0.000852521
-0.00525513
-0.000258789
0.000624162
-0.00533636
-0.00029535
0.000468532
-0.00521544
-0.000618161
0.00042985
-0.00528944
-0.000699699
0.0002999
-0.00488154
-0.00153205
0.000209437
-0.00344384
0.000194477
0.00126781
-0.00552224
0.00024133
0.00117488
-0.00564477
-6.4892e-05
0.000953142
-0.00584085
-0.000280199
0.000779126
-0.00567723
-0.00036491
0.000478936
-0.00544731
-0.000735084
0.00033585
-0.0048565
-0.00135911
0.000217074
-0.00409549
3.72113e-05
0.00118652
-0.00638165
0.000404418
0.00112333
-0.00637633
0.000171257
0.00114822
-0.00665881
9.2501e-05
0.0011059
-0.00662818
-3.74678e-06
0.00116992
-0.00627042
-0.000215714
0.000970842
-0.0064399
-0.000555358
0.00056366
-0.00515742
-0.0010491
0.00032544
-0.00465742
2.17846e-05
0.00139529
-0.00652142
0.000194982
0.00130187
-0.0067969
8.87749e-05
0.00117404
-0.00708594
0.000229545
0.00108288
-0.0072142
0.000328234
0.00130714
-0.00683035
0.000279802
0.00137577
-0.0064593
0.000246311
0.00128121
-0.00618016
-0.000296149
0.000878792
-0.00584895
-0.000547207
0.000326186
-0.00507964
-4.51064e-05
0.00095602
-0.00431271
7.8921e-05
0.000908619
-0.00416306
0.000110729
0.000952697
-0.00463994
2.65574e-05
0.000928892
-0.00587325
4.01805e-05
0.000972036
-0.00569255
7.07358e-05
0.00111907
-0.00495239
0.000716601
0.00122816
-0.00502725
0.00113015
0.00115073
-0.00537782
0.000645526
0.00112912
-0.0068648
-0.000316827
0.000218504
-0.00578011
-3.66847e-05
0.000376671
-0.00411677
-5.44238e-05
0.000227041
-0.00440836
-0.000120617
0.000261356
-0.00413865
5.19896e-07
0.000253938
-0.00387448
-3.36151e-05
0.000269462
-0.0032409
9.89364e-05
0.000166802
-0.00301661
0.000272286
-4.49124e-05
-0.00299959
0.000788005
7.21566e-05
-0.00474097
0.00121872
-2.89271e-05
-0.00502941
0.000773835
0.000685642
-0.00560489
0.000182935
0.000302762
-0.00618627
5.50231e-05
0.000203414
-0.00252669
2.42919e-05
0.000209481
-0.00239599
8.07181e-05
9.77672e-05
-0.00284744
-6.48564e-05
3.86578e-06
-0.00328405
-6.43535e-06
-2.71988e-05
-0.00338162
6.1732e-05
-0.000107703
-0.00344996
0.000150322
-0.000215454
-0.00286164
0.000257969
-0.000209709
-0.00255874
0.000375038
-0.000117915
-0.00363677
0.000662628
3.19415e-05
-0.00471127
0.000599627
0.000244472
-0.00550887
0.000325755
0.00029328
-0.00628374
8.61185e-05
0.000107113
-0.00142925
8.78075e-05
6.11346e-05
-0.00120206
0.000121182
4.95361e-05
-0.000872358
7.11726e-05
2.90383e-05
-0.000844401
2.29229e-05
1.58836e-05
-0.00132606
3.70211e-05
-3.45623e-05
-0.00167954
0.000150507
-8.09142e-05
-0.00176683
0.000156752
-0.000117498
-0.0023206
8.66165e-05
-0.000105112
-0.00270983
0.000107867
-8.19303e-05
-0.00337405
0.000285193
-9.09739e-05
-0.00373876
0.000392622
-6.72129e-07
-0.00413259
0.000341876
0.00013531
-0.00455581
6.8203e-05
2.18026e-05
-0.0001715
8.69388e-05
2.00446e-05
-0.000176301
0.000114973
2.3874e-05
-0.000276129
0.00010836
1.8251e-05
-0.000497632
9.2137e-05
-5.30365e-06
-0.000806708
0.000100306
-1.0141e-05
-0.000875654
5.73023e-05
-1.5955e-05
-0.000719229
0.00015025
-4.17285e-05
-0.000936786
0.000118237
-4.84863e-05
-0.00124399
7.84577e-05
-3.23537e-05
-0.00183878
5.69588e-05
-2.50374e-05
-0.00216971
6.06426e-05
-2.77351e-05
-0.00239244
8.3679e-05
-6.66646e-06
-0.00398542
0.000148851
2.98648e-05
-0.00483898
-0.00174692
0.000100292
-0.00231337
-0.00179935
0.000301347
-0.00303911
-0.00155992
-5.57567e-05
-0.00260935
-0.00106237
-2.71632e-05
-0.00365664
-0.00100931
-0.000110273
-0.00356335
-0.00156547
-9.06535e-05
-0.00289238
-0.00101125
0.00042439
-0.00385744
-0.00105891
0.000319663
-0.00380356
-0.00123619
8.41874e-05
-0.00308414
-0.00164707
8.90312e-05
-0.00258404
-0.000488474
0.000475193
-0.0044349
-0.000830661
0.000410612
-0.00436051
-0.000894283
0.00025024
-0.0041182
-0.00129821
0.000160205
-0.00397802
-0.00154477
-4.83051e-05
-0.00335819
-0.00040294
0.000699883
-0.00494292
-0.000396562
0.000508883
-0.00495512
-0.000566265
0.000377383
-0.00490813
-0.000798317
0.000259745
-0.00466596
-0.00100204
0.00017431
-0.00431372
-0.00146024
-5.85537e-05
-0.00322268
2.54194e-05
0.0010356
-0.00542627
-1.5452e-05
0.000851515
-0.00522571
-0.00026138
0.000659705
-0.00533105
-0.000352536
0.000465548
-0.0051788
-0.000544388
0.00040381
-0.00521388
-0.000793874
0.000319623
-0.00493293
-0.00154305
0.000231383
-0.00349129
-0.000106633
0.00127893
-0.00570148
0.000416508
0.00121817
-0.00557762
0.000167778
0.00108325
-0.00577141
-2.89779e-05
0.000923695
-0.00586394
-0.000200858
0.000778386
-0.00577957
-0.000312889
0.000476593
-0.00549088
-0.000633627
0.000380903
-0.00494206
-0.00136049
0.000171821
-0.00395592
2.97976e-05
0.00117923
-0.00650928
0.000122923
0.0010974
-0.00628367
0.000115376
0.00112058
-0.00637529
0.00020058
0.00114199
-0.00666593
0.00016552
0.00114935
-0.0064449
0.00017091
0.00118691
-0.00637759
-0.000134692
0.000943504
-0.00643874
-0.00057512
0.000512438
-0.00506545
-0.00106093
0.000365536
-0.00450923
-9.93786e-05
0.00142463
-0.00613431
-7.71692e-05
0.00136995
-0.00643341
-1.6555e-05
0.00129755
-0.00679313
0.000116305
0.00109029
-0.00718309
7.52374e-05
0.00114117
-0.00708329
1.33946e-05
0.00130718
-0.00670443
0.000272165
0.00141492
-0.00614858
0.000427647
0.00127205
-0.00587092
-8.74214e-05
0.00088962
-0.00567943
-0.000682702
0.000284091
-0.00499785
-2.42771e-05
0.0010308
-0.00449796
-2.18678e-05
0.000961822
-0.00439847
-0.000117197
0.000927165
-0.00414095
0.000217438
0.000924742
-0.00485271
3.84891e-05
0.000901014
-0.00587433
5.10562e-05
0.000983068
-0.00550866
0.000148821
0.00111517
-0.00471594
0.000816034
0.00116074
-0.0050653
0.000906776
0.001097
-0.00503375
0.000262177
0.00102943
-0.00716407
-0.000379641
0.000164709
-0.00538224
5.20184e-06
0.000294805
-0.00394549
-6.17172e-05
0.000218284
-0.00402201
-3.57774e-05
0.000344993
-0.0043755
-0.00012656
0.000290707
-0.00411372
3.46717e-05
0.000299721
-0.00394584
5.29559e-06
0.000239792
-0.00325746
0.00012618
9.53908e-05
-0.00313277
0.000407695
-0.000167158
-0.00291
0.00082447
-6.08225e-05
-0.00515851
0.00106482
0.000215155
-0.00496112
0.000422268
0.000801622
-0.00592639
0.000133875
0.000292151
-0.00628655
6.80019e-05
0.00018109
-0.00275288
4.06527e-05
0.000214384
-0.00248443
0.000138513
0.000177821
-0.00249337
-4.05701e-06
0.000102251
-0.00287059
-7.39022e-05
1.27023e-05
-0.00322712
6.78691e-06
-2.46482e-05
-0.00343444
3.90493e-05
-9.67521e-05
-0.00345721
0.0001741
-0.000230714
-0.00285799
0.000192471
-0.00021846
-0.00256405
0.000368001
-8.64253e-05
-0.00377854
0.000606566
9.22034e-06
-0.00479739
0.000569124
0.000381336
-0.00577343
0.000232017
0.000336095
-0.00650997
7.04118e-05
0.000130839
-0.00111987
7.8005e-05
9.78107e-05
-0.00145699
0.000120401
6.85306e-05
-0.00122648
9.26529e-05
6.24173e-05
-0.000890031
3.93896e-05
3.72663e-05
-0.000813036
1.71074e-05
6.91154e-06
-0.00128433
2.52953e-05
-4.19879e-05
-0.00168646
0.000167677
-7.87408e-05
-0.00182301
0.000128389
-0.000105037
-0.00233083
0.000115155
-9.65427e-05
-0.00273192
0.000133186
-8.00069e-05
-0.00346125
0.00027048
-7.83483e-05
-0.00387092
0.000366161
3.52124e-05
-0.00431497
0.000316624
0.00015153
-0.00487511
6.73624e-05
1.80677e-05
-0.000147925
6.48481e-05
2.22244e-05
-0.000238528
8.69194e-05
2.28063e-05
-0.000262153
0.000114555
2.80706e-05
-0.000400504
9.50301e-05
1.8807e-05
-0.000616773
8.64395e-05
-5.15523e-06
-0.000898133
9.96863e-05
-6.24861e-06
-0.000985047
6.77327e-05
-1.1984e-05
-0.000816706
0.000150204
-3.80057e-05
-0.00109747
0.000111379
-4.34768e-05
-0.00134424
6.61783e-05
-2.8571e-05
-0.00190143
5.35527e-05
-2.26025e-05
-0.00222839
6.65936e-05
-2.26202e-05
-0.00244308
6.9268e-05
-5.62618e-06
-0.00401919
0.000131884
3.09839e-05
-0.00500185
-0.00181545
5.205e-05
-0.00217816
-0.00152052
-1.65941e-05
-0.00266253
-0.0017212
0.000137606
-0.00228969
-0.00118062
0.000365459
-0.00331151
-0.00150032
0.000313962
-0.00291782
-0.00156203
-3.02069e-05
-0.00258259
-0.00122941
0.000198304
-0.00374287
-0.00128615
5.98896e-05
-0.00359957
-0.00121153
-9.72547e-05
-0.00358141
-0.00148174
-0.000116148
-0.00294157
-0.000420256
0.000485723
-0.00419368
-0.000787808
0.000344611
-0.00392524
-0.00103844
0.000275108
-0.00385032
-0.00118976
3.80262e-06
-0.00310735
-0.00162701
0.000102997
-0.00260479
-0.000462304
0.000540861
-0.00449204
-0.000531918
0.000515597
-0.00440453
-0.000769282
0.00040763
-0.00431488
-0.000864148
0.000260876
-0.00415304
-0.00147066
0.000150765
-0.00370846
-0.00148769
3.75168e-05
-0.00336826
-0.000108473
0.000878792
-0.00498192
-0.000239779
0.000725727
-0.00493544
-0.000407018
0.000502368
-0.00493447
-0.000605502
0.000412441
-0.00480786
-0.000678501
0.000254907
-0.00461244
-0.0011235
0.000143472
-0.00418612
-0.00143234
-4.27117e-05
-0.00329068
-0.000191986
0.00109529
-0.00559912
-1.33584e-05
0.00104418
-0.00518907
-8.15634e-05
0.000891195
-0.00520785
-0.000310409
0.000652444
-0.00523651
-0.000330754
0.000481507
-0.0051266
-0.000561423
0.000432482
-0.0050782
-0.000882973
0.000284594
-0.0047368
-0.00142693
6.66153e-05
-0.00349147
-0.000113181
0.00133103
-0.00562828
-1.8045e-05
0.00121739
-0.00555973
6.81046e-05
0.00118749
-0.00563459
0.000143069
0.0010258
-0.005816
5.417e-05
0.000883785
-0.00585798
-5.51738e-05
0.000753434
-0.00583033
-0.000310173
0.000518364
-0.00545286
-0.000777845
0.00040539
-0.0049729
-0.00136894
0.000178075
-0.00382599
-0.000127073
0.00117089
-0.00658925
-0.000303674
0.00110973
-0.0062951
8.08351e-05
0.00113261
-0.00639308
5.29874e-05
0.00115353
-0.00632352
0.000141334
0.00110113
-0.0066838
9.76662e-05
0.00113912
-0.00648137
6.75162e-05
0.00113499
-0.00636443
-0.000290962
0.000872763
-0.00608046
-0.000424449
0.000590829
-0.00495371
-0.00109741
0.000229159
-0.00432369
-0.00012883
0.0014457
-0.00612472
-0.000154212
0.00140901
-0.00604102
-0.00011653
0.00136952
-0.00650605
4.88054e-05
0.00125
-0.0067842
5.04147e-05
0.00110225
-0.0071561
-9.33307e-05
0.00120402
-0.00683575
4.18814e-05
0.00132943
-0.006512
0.000395117
0.00145348
-0.00590909
0.000335121
0.00117878
-0.00558843
-0.000415003
0.000799343
-0.0055175
-0.00090528
0.000345853
-0.00481807
2.74813e-06
0.00107234
-0.00434101
-1.89732e-05
0.000999986
-0.00457886
-8.07637e-05
0.000947505
-0.00437383
-4.08465e-05
0.000946074
-0.004248
0.000192205
0.000895865
-0.0050051
6.61868e-05
0.000882843
-0.005835
-1.32152e-06
0.000991235
-0.00525723
0.00025511
0.00105825
-0.00446087
0.00117453
0.00099226
-0.00531061
0.00105543
0.0010894
-0.00508434
-2.10028e-05
0.000842586
-0.00739867
-0.000428705
7.83636e-05
-0.00489803
-3.18358e-05
0.000267598
-0.0040438
-1.04248e-05
0.000291615
-0.00396774
9.29367e-05
0.000343183
-0.00397462
-0.000131618
0.000239516
-0.00419675
-0.00010284
0.000285552
-0.00407061
2.58634e-05
0.000219887
-0.00394501
5.12321e-05
0.000342814
-0.00351706
0.000122213
5.01695e-05
-0.00329821
0.000508746
-0.000127351
-0.00315975
0.000867585
-0.000151375
-0.00529156
0.000926814
0.000469854
-0.0049496
0.000209918
0.000689998
-0.00596503
-5.33911e-05
0.000264889
-0.00626603
7.28201e-05
0.000183406
-0.00280087
5.4288e-05
0.000183799
-0.00269858
0.000112382
0.000192373
-0.00249097
6.61722e-07
0.000189533
-0.00248866
-0.000108308
0.000108413
-0.0028186
-0.000102413
9.83441e-06
-0.00314209
-1.56459e-05
-3.27083e-05
-0.00345754
4.60505e-05
-0.000105933
-0.00346036
0.000152771
-0.00023345
-0.00286738
0.00016518
-0.00020375
-0.00249675
0.00038022
-6.78805e-05
-0.00394847
0.000549043
6.85693e-05
-0.00476319
0.00054466
0.000439027
-0.00605486
0.000148563
0.00034408
-0.00668599
0.000113718
0.000110446
-0.0011629
7.81443e-05
0.000121249
-0.0011566
8.3017e-05
9.32463e-05
-0.00147781
0.000107213
7.53349e-05
-0.00123206
7.54681e-05
7.2571e-05
-0.000905773
3.02346e-05
5.02844e-05
-0.000800204
1.80191e-05
2.0481e-06
-0.0012467
2.82279e-05
-4.80018e-05
-0.00167769
0.00015777
-8.22348e-05
-0.00185338
0.000154427
-0.000107145
-0.00236328
9.43646e-05
-0.000102703
-0.00273741
0.000146476
-9.12765e-05
-0.00354124
0.00026147
-6.0822e-05
-0.00396977
0.000347465
6.20692e-05
-0.00450371
0.00028702
0.000162458
-0.00519271
8.45537e-05
-1.79825e-06
0.000171439
6.5644e-05
1.77464e-05
-0.000209091
6.25487e-05
2.29031e-05
-0.000301174
8.49091e-05
2.65014e-05
-0.000345492
0.000110029
3.16939e-05
-0.000523419
8.08165e-05
1.94482e-05
-0.000722193
8.65491e-05
-3.11066e-06
-0.00098782
9.62443e-05
-1.04469e-06
-0.00109223
7.86046e-05
-7.58553e-06
-0.000925731
0.000147227
-3.16234e-05
-0.00125655
0.000101609
-4.08067e-05
-0.00143362
5.39263e-05
-2.62247e-05