/*--------------------------------*- C++ -*----------------------------------*\
  =========                 |
  \\      /  F ield         | OpenFOAM: The Open Source CFD Toolbox
   \\    /   O peration     | Website:  https://openfoam.org
    \\  /    A nd           | Version:  7
     \\/     M anipulation  |
\*---------------------------------------------------------------------------*/
FoamFile
{
    version     2.0;
    format      ascii;
    class       volVectorField;
    location    "1.5";
    object      U;
}
// * * * * * * * * * * * * * * * * * * * * * * * * * * * * * * * * * * * * * //

dimensions      [0 1 -1 0 0 0 0];

internalField   nonuniform List<vector> 
18750
(
(1.18277 -2.68822 0.444585)
(1.58176 -1.25001 0.574764)
(1.846 -1.81781 -0.543261)
(1.12656 -2.88361 0.579059)
(1.87557 -1.93351 -0.60482)
(1.71182 -1.9886 0.0441441)
(1.54401 -1.46294 0.272586)
(0.704374 -1.67565 -1.74088)
(1.77859 -1.9367 -0.457109)
(1.06831 -3.04442 0.645946)
(3.60197 -2.7109 1.49653)
(1.96768 -1.92526 -0.913037)
(1.82489 -1.93323 -0.307328)
(1.45239 -1.47135 -0.252798)
(1.71874 -2.11081 -0.346428)
(1.46902 -1.60785 -0.0217447)
(0.771682 -1.34855 -1.27812)
(0.690903 -1.76775 -1.47296)
(1.74437 -2.03572 -0.321922)
(1.0072 -3.17804 0.664065)
(4.6054 1.11156 -0.821892)
(2.09669 -3.41427 0.918596)
(3.42004 -2.94935 1.6206)
(1.36484 -2.3899 -1.20164)
(1.92745 -2.25792 -1.3095)
(1.75516 -2.09262 0.333999)
(1.53649 -1.3948 -0.934825)
(1.41973 -1.66033 -0.215685)
(1.67145 -2.23217 -0.603876)
(1.38866 -1.71545 -0.168644)
(0.559315 -1.20038 -1.74731)
(0.746605 -1.49103 -1.06897)
(0.666506 -1.81217 -1.23674)
(1.69466 -2.13067 -0.190959)
(0.947252 -3.28932 0.677946)
(3.6504 1.02984 0.0428305)
(3.55862 -2.41394 3.3975)
(4.45313 0.18654 -0.807563)
(2.14266 -2.1896 0.613931)
(1.95178 -3.45784 0.757796)
(3.4797 -2.93539 1.55798)
(1.50053 -1.13062 -0.137602)
(1.53689 -2.5581 -0.964871)
(2.02348 -2.28445 -1.1807)
(1.69971 -2.49824 1.59735)
(1.82547 -1.26818 -1.00584)
(1.48131 -1.31201 -0.790565)
(1.45358 -1.66165 -0.70826)
(1.62128 -2.31052 -0.78996)
(1.2731 -1.88921 0.0293236)
(0.193931 -0.556494 -1.3979)
(0.542584 -1.32844 -1.70113)
(0.73149 -1.48796 -0.943405)
(0.652212 -1.81728 -1.06256)
(1.64843 -2.21024 -0.0716077)
(0.887404 -3.375 0.713854)
(3.7584 1.03214 0.211788)
(5.04362 0.0290762 1.20279)
(3.82132 0.578825 0.199429)
(3.58269 -1.67125 3.10591)
(3.53794 -2.54418 3.0849)
(4.14269 -0.638641 -0.377824)
(2.27834 -1.37511 0.109795)
(1.77671 -2.42099 0.253506)
(1.86162 -3.50767 0.763899)
(3.43027 -2.96428 1.18965)
(1.5391 -0.790973 -0.502165)
(1.52946 -1.52921 -0.369018)
(1.63237 -2.55278 -0.863647)
(1.94749 -2.38248 -0.544926)
(1.70761 -2.86932 1.67977)
(1.4374 -0.986477 -0.822945)
(1.73834 -1.42527 -1.01207)
(1.45831 -1.32614 -0.609008)
(1.45772 -1.70401 -1.03281)
(1.57762 -2.36637 -0.863269)
(1.17691 -2.07195 0.381173)
(-0.159667 -1.01722 -0.713917)
(0.196933 -0.721152 -1.51901)
(0.503451 -1.48234 -1.53837)
(0.71652 -1.49613 -0.791693)
(0.649022 -1.79228 -0.959694)
(1.58982 -2.28591 0.0281206)
(0.834631 -3.41154 0.762032)
(3.23382 1.13163 0.100253)
(4.10549 0.962511 0.238007)
(3.80867 0.895472 0.289829)
(4.91354 -0.246603 2.12331)
(4.79963 -0.331186 1.20682)
(3.85665 0.542856 0.26255)
(3.75893 -0.505788 2.77261)
(3.45982 -2.08249 2.90599)
(3.49193 -2.56668 2.61182)
(3.86983 -1.0286 -0.0835165)
(1.87794 -0.877053 0.730908)
(2.16833 -1.64422 -0.153521)
(1.74312 -2.44666 0.224482)
(1.42652 -3.63149 0.748243)
(3.53547 -2.66187 0.744399)
(2.05111 -0.306922 -0.640313)
(1.49887 -0.810994 -0.532361)
(1.55833 -1.81182 -0.708743)
(1.83918 -2.19482 -1.08736)
(1.76153 -2.51827 -0.0253239)
(1.5666 -3.36431 1.17889)
(0.893145 -0.735559 -0.700813)
(1.40437 -1.05006 -0.90959)
(1.70122 -1.50583 -0.987635)
(1.43933 -1.45847 -0.365559)
(1.42548 -1.84662 -1.3013)
(1.45963 -2.46601 -0.755457)
(1.08802 -2.30892 0.41095)
(-0.00906787 -1.20656 -0.0230177)
(-0.152644 -1.03743 -0.79817)
(0.171395 -0.93558 -1.5963)
(0.467562 -1.56988 -1.35773)
(0.70262 -1.4977 -0.671553)
(0.639914 -1.77827 -0.887828)
(1.54285 -2.3427 0.100207)
(0.811274 -3.40082 0.79079)
(2.68415 1.00261 0.757885)
(3.42768 1.40407 0.218224)
(3.3611 0.934703 0.142611)
(4.19035 0.220504 1.14914)
(4.09438 0.810684 0.1392)
(3.81888 0.730447 0.407509)
(4.85905 -0.560692 2.18188)
(4.83982 -0.686333 2.30097)
(4.57579 -0.933008 1.29387)
(3.81616 0.213562 0.304253)
(4.16001 -0.317706 2.29972)
(3.14392 -1.5338 3.26928)
(3.15268 -2.87603 2.60361)
(3.26027 -2.64012 2.42082)
(3.81872 -1.17921 -0.195475)
(1.94109 -0.499475 0.87961)
(1.85167 -0.907228 0.635142)
(2.12271 -1.85209 -0.304031)
(1.50568 -2.7155 0.277679)
(1.5302 -3.36151 1.1232)
(3.59694 -2.43799 0.0851594)
(2.37615 -0.539416 -0.500049)
(2.03394 -0.294628 -0.633696)
(1.46989 -0.847788 -0.615286)
(1.60075 -1.90792 -0.813726)
(2.03872 -1.85125 -0.834767)
(1.60391 -2.71997 0.62293)
(1.40846 -3.72731 0.927316)
(0.959482 -0.481412 -0.0863019)
(0.880381 -0.829806 -0.640152)
(1.32292 -1.22779 -0.88544)
(1.59541 -1.6429 -0.910681)
(1.39798 -1.60865 -0.0452597)
(1.41426 -1.90983 -1.6982)
(1.32991 -2.5334 -0.634152)
(0.905101 -2.67171 0.370875)
(0.103427 -1.39572 0.292394)
(0.00132641 -1.12632 -0.0978814)
(-0.134476 -1.05513 -0.914149)
(0.111345 -1.16977 -1.6085)
(0.458533 -1.54656 -1.20935)
(0.706785 -1.48686 -0.59338)
(0.623075 -1.81465 -0.792493)
(1.48042 -2.40158 0.138847)
(0.805998 -3.40346 0.81354)
(1.91578 2.2825 0.0225165)
(2.96675 1.57361 0.103578)
(2.65511 1.09361 0.69001)
(3.57573 0.466279 0.767547)
(3.41724 0.960569 0.421918)
(3.37584 0.887667 0.12162)
(4.31016 -0.0295556 1.16878)
(4.24392 -0.177734 1.2562)
(4.0627 0.537913 -0.0338451)
(3.83015 0.616009 0.478504)
(4.60011 -0.76334 2.57544)
(4.69845 -1.05772 2.41433)
(4.17205 -2.0751 2.64861)
(4.41011 -1.15142 1.13958)
(3.60045 -0.295731 0.363604)
(4.11006 -0.273258 2.30127)
(3.86421 -0.733058 2.47904)
(2.85609 -2.12907 3.13709)
(2.2952 -3.98208 1.74778)
(2.97026 -2.67172 2.48061)
(3.81475 -1.51568 -0.619479)
(2.22753 0.0430772 0.0234681)
(1.88563 -0.51853 0.897223)
(1.91516 -1.11411 0.366272)
(2.05558 -1.99089 0.208071)
(1.40553 -3.00728 0.846789)
(1.47291 -3.33771 1.2195)
(3.33387 -2.58208 -0.36525)
(2.24486 -0.410923 -0.0706523)
(2.28287 -0.768027 -0.545316)
(1.98437 -0.454342 -0.736186)
(1.48913 -0.815803 -0.590007)
(1.71336 -1.85609 -0.833143)
(2.00072 -2.0047 -0.0688025)
(1.50026 -3.02494 1.50239)
(1.50683 -3.77102 1.09308)
(0.918321 -0.596292 0.0568001)
(0.957428 -0.476779 -0.112596)
(0.830494 -1.03906 -0.620928)
(1.28729 -1.31575 -0.864519)
(1.3716 -1.69686 -0.845547)
(1.37742 -1.66101 0.193968)
(1.39072 -2.00545 -1.90691)
(1.19736 -2.66476 -0.43355)
(0.686354 -3.02189 0.575917)
(0.0939957 -1.45997 0.101247)
(0.085071 -1.38477 0.161357)
(0.0137171 -1.04858 -0.191935)
(-0.119187 -1.09998 -1.04379)
(0.0364124 -1.39412 -1.53835)
(0.448029 -1.50302 -1.06347)
(0.719529 -1.47515 -0.542711)
(0.591771 -1.87057 -0.641211)
(1.4576 -2.42272 0.179031)
(0.801069 -3.4404 0.856073)
(2.42373 0.890865 -0.350039)
(2.84946 0.943888 0.0112425)
(2.06756 2.11699 0.106156)
(3.38157 0.537006 0.56341)
(3.08938 1.46291 0.00367586)
(2.71155 1.00178 0.666231)
(3.76053 0.172459 0.800319)
(3.67317 0.051798 0.783278)
(3.29659 0.627839 0.462709)
(3.43502 0.58063 -0.0255263)
(4.2627 -0.691947 1.72947)
(4.28358 -0.536545 1.3155)
(4.13345 -0.713293 1.36152)
(3.95312 0.21585 0.041731)
(3.74751 0.159511 0.740056)
(4.70119 -0.819071 1.69883)
(4.59359 -0.885553 2.5808)
(4.37539 -1.47596 2.64475)
(3.97246 -1.94105 2.47331)
(4.43881 -0.940178 0.782474)
(3.46533 -0.62789 0.249659)
(3.54642 -0.887375 2.20702)
(4.09095 -0.394254 2.2785)
(3.5917 -1.06314 2.58664)
(2.75296 -2.31777 3.01809)
(3.11031 -2.77011 2.54337)
(2.75985 -3.15818 2.62025)
(3.77478 -1.71088 -0.867041)
(2.36102 0.0861595 0.211309)
(2.24636 -0.0736564 0.207208)
(1.79048 -0.677195 0.935554)
(1.89159 -1.41977 0.175194)
(1.89091 -2.18039 1.06301)
(1.42824 -3.42719 0.680939)
(1.38956 -3.67013 1.66458)
(3.13985 -2.78183 -0.806237)
(2.1874 -0.578041 -0.141196)
(2.23079 -0.502601 -0.087429)
(2.19261 -0.847741 -0.586594)
(1.84796 -0.722829 -0.855929)
(1.49455 -0.822419 -0.58912)
(1.84083 -1.8076 -0.763362)
(1.8803 -2.38356 1.53012)
(1.61606 -3.19559 1.86378)
(1.7331 -3.74276 1.09876)
(0.48526 -1.05589 -0.0774527)
(0.877172 -0.566232 0.141842)
(0.965789 -0.451005 -0.288389)
(0.766991 -1.17172 -0.71632)
(1.13734 -1.42047 -0.904747)
(1.35046 -1.64969 -0.809526)
(1.43725 -1.67424 0.206236)
(1.38091 -2.11527 -1.7721)
(0.91586 -2.93336 0.0262286)
(0.507365 -3.30802 0.747167)
(-0.128595 -1.5896 0.079883)
(0.0800741 -1.47179 -0.0200413)
(0.0592805 -1.40965 0.0166343)
(0.0231709 -0.995653 -0.284889)
(-0.13439 -1.21225 -1.16677)
(-0.0504959 -1.55829 -1.42857)
(0.447692 -1.47587 -0.9193)
(0.705906 -1.44056 -0.555696)
(0.587921 -1.80035 -0.667866)
(1.40884 -2.46361 0.215232)
(0.789848 -3.47399 0.88264)
(1.94083 1.48253 0.240877)
(2.72473 0.512316 0.225337)
(2.57098 0.516916 -0.473176)
(3.28753 0.381342 -0.39001)
(2.94529 0.597808 0.0499598)
(2.19792 1.92221 0.146463)
(3.45694 -0.0404109 0.470126)
(3.51284 -0.143119 0.598469)
(3.17177 1.11856 -0.0483961)
(2.66158 1.05592 0.494495)
(3.87748 -0.150844 0.868695)
(3.73367 -0.220625 0.888814)
(3.62572 -0.117497 0.665013)
(3.28762 0.307087 0.350441)
(3.42672 0.585654 -0.081869)
(4.08576 -1.17407 1.68023)
(4.09356 -1.27502 1.85805)
(4.17185 -1.03554 1.54412)
(4.14141 -0.973268 1.20392)
(3.88861 -0.097059 0.100732)
(3.58352 -0.158661 0.709883)
(4.38313 -1.32084 1.8736)
(4.70464 -1.28818 1.77937)
(4.52368 -1.15289 2.5382)
(4.21349 -1.71907 2.66883)
(3.90393 -2.20434 2.32837)
(4.11687 -1.53879 0.925899)
(3.42458 -0.896545 0.0299085)
(2.75672 -0.556596 1.92487)
(3.56059 -1.20122 2.0109)
(3.95677 -0.62393 2.38764)
(3.40946 -1.18789 2.72285)
(2.85375 -2.23091 3.12662)
(2.2937 -3.7925 2.42286)
(2.47523 -4.06309 2.63262)
(3.68622 -1.99427 -0.908773)
(2.79884 -0.851918 0.506615)
(2.48606 -0.0743746 0.467045)
(2.24341 -0.0657966 0.343202)
(1.72714 -0.703857 0.842098)
(1.74831 -1.56987 0.112971)
(1.69856 -2.46915 1.3885)
(0.981882 -4.42592 -0.212235)
(0.933206 -4.39814 2.24113)
(2.69791 -3.24929 -1.01509)
(1.76739 -0.378858 0.400875)
(2.18458 -0.630819 -0.146432)
(2.11392 -0.811244 -0.0854004)
(2.16988 -0.909557 -0.599226)
(1.78694 -0.786384 -0.875454)
(1.48474 -0.860742 -0.647877)
(1.81865 -1.8319 -0.664063)
(1.75167 -2.67638 1.71124)
(1.7196 -3.48828 1.89927)
(1.86929 -3.74896 0.75106)
(0.448987 -0.96106 0.140803)
(0.449315 -0.873434 -0.0347703)
(0.841929 -0.563174 0.192456)
(0.985881 -0.438962 -0.405636)
(0.670576 -1.34721 -0.748151)
(1.01345 -1.55473 -0.886109)
(1.30454 -1.77921 -0.729216)
(1.43451 -1.77359 -0.00996187)
(1.28796 -2.25454 -1.45272)
(0.811459 -3.01304 0.302202)
(0.353804 -3.52548 0.828896)
(-0.1414 -1.42419 0.454732)
(-0.137393 -1.5964 0.102448)
(0.0488723 -1.48342 -0.150673)
(0.0193809 -1.4693 -0.123944)
(0.0283071 -0.975127 -0.406294)
(-0.190206 -1.38403 -1.2443)
(-0.13378 -1.69937 -1.23692)
(0.455292 -1.46372 -0.784068)
(0.694647 -1.4193 -0.555497)
(0.595459 -1.72773 -0.731899)
(1.37993 -2.45602 0.32299)
(0.775202 -3.52244 0.903991)
(1.97682 1.16837 -0.0989362)
(2.17643 1.55182 -0.00935645)
(2.05188 1.29228 0.20915)
(2.78801 0.582366 0.162494)
(2.82638 0.0991197 0.111809)
(2.6004 0.519337 -0.434181)
(3.21961 0.253481 0.341552)
(3.30577 0.181109 -0.398231)
(3.06948 0.07037 0.300312)
(2.5135 1.32463 0.144164)
(3.42527 -0.0739113 0.635804)
(3.45275 -0.296089 0.46248)
(3.53737 -0.209162 0.598726)
(3.2883 0.528236 0.086938)
(2.75744 0.865609 0.290046)
(3.58304 -0.776372 1.5364)
(3.86143 -0.377082 0.913881)
(3.6971 -0.539497 0.947588)
(3.584 -0.466617 0.552644)
(3.30922 -0.0736516 0.436215)
(3.32147 0.383612 -0.0837752)
(3.95467 -0.94253 1.84958)
(4.20688 -0.974124 1.71259)
(4.23759 -1.18472 1.77485)
(3.98767 -1.40217 1.69362)
(4.16173 -1.16067 1.12643)
(3.82453 -0.213889 0.239277)
(3.46916 -0.508086 0.43695)
(4.26465 -1.18267 2.23715)
(4.54314 -1.20749 1.95303)
(4.55209 -1.37751 2.31509)
(4.41069 -1.45199 2.60194)
(3.70296 -2.53823 2.75493)
(3.31602 -3.02918 2.27593)
(3.18164 -2.86538 1.40862)
(3.38669 -0.922928 0.0694676)
(2.62564 0.101255 1.82797)
(2.88211 -1.03592 2.00209)
(3.62791 -1.13055 1.94571)
(3.79753 -0.931699 2.46076)
(3.34628 -1.34103 2.74782)
(2.19212 -3.21442 3.02401)
(2.2575 -3.84456 2.34724)
(2.36155 -4.32675 2.68196)
(3.57568 -2.16831 -0.774961)
(2.93415 -0.483444 0.781897)
(2.79505 -0.210472 0.634416)
(2.47412 -0.171091 0.832689)
(2.15888 -0.348926 0.479266)
(1.72601 -0.854802 0.625794)
(1.60493 -1.6971 0.0101098)
(1.62217 -2.72795 1.42737)
(0.809314 -4.97312 -1.04606)
(0.643717 -4.67205 2.49397)
(2.41787 -3.51855 -0.759486)
(1.53407 -0.560887 0.565158)
(1.75786 -0.526978 0.223438)
(2.13478 -0.618858 -0.158179)
(2.09288 -0.779322 -0.154364)
(2.08498 -1.1171 -0.660249)
(1.62402 -1.04879 -1.0235)
(1.43434 -0.97055 -0.689091)
(1.6915 -1.86702 -0.43695)
(1.65184 -2.93433 1.23872)
(1.41057 -4.0368 1.84791)
(1.88939 -3.84068 0.328414)
(0.749733 -0.53468 0.282356)
(0.418865 -0.913942 0.184715)
(0.433313 -0.71515 0.00450296)
(0.797671 -0.574347 0.206959)
(1.01221 -0.431179 -0.430796)
(0.545444 -1.60336 -0.701247)
(1.14471 -1.49781 -0.907164)
(0.677298 -2.11591 -0.321427)
(1.45081 -1.81211 -0.551152)
(1.23347 -2.31727 -1.13195)
(0.750482 -3.08797 0.550199)
(0.289693 -3.63695 0.950599)
(-0.0818272 -1.19567 0.261861)
(-0.164693 -1.45271 0.517996)
(-0.128788 -1.53283 0.112853)
(0.0394219 -1.48285 -0.217178)
(-0.0305257 -1.54483 -0.182976)
(0.0103839 -1.00993 -0.5364)
(-0.261195 -1.57059 -1.25281)
(-0.198894 -1.77646 -1.01646)
(0.437307 -1.47287 -0.664491)
(0.708987 -1.426 -0.539997)
(0.623008 -1.73303 -0.741602)
(1.37249 -2.43274 0.312553)
(0.753267 -3.57684 0.914538)
(1.87543 1.00067 -0.200089)
(2.38599 0.326707 0.0815989)
(2.05899 0.933178 -0.105879)
(2.59967 0.677794 0.262977)
(2.41594 1.0683 0.0309057)
(2.00704 1.31414 0.214048)
(2.9323 0.457765 0.40835)
(2.79854 0.32046 0.161603)
(2.87664 -0.175029 0.0490538)
(2.56393 0.552737 -0.27869)
(3.24346 0.0209752 0.34066)
(3.21682 0.0679868 0.375997)
(3.31534 -0.00615863 -0.334975)
(3.05706 -0.23093 0.412434)
(2.66378 0.997232 -0.291533)
(3.41403 -0.436807 0.81366)
(3.47958 -0.309844 0.635783)
(3.43262 -0.460955 0.474749)
(3.51056 -0.482866 0.546037)
(3.40653 -0.142713 0.199411)
(2.84947 0.641328 0.271209)
(3.57775 -0.871814 1.62242)
(3.46174 -1.19493 1.65912)
(3.73172 -0.989761 1.13521)
(3.68396 -0.687916 0.905135)
(3.54584 -0.849755 0.435874)
(3.24657 -0.576029 0.546308)
(3.28987 0.279083 -0.067054)
(4.18124 -0.518806 1.784)
(4.08304 -0.91565 1.79976)
(4.23302 -1.04841 1.77238)
(4.17232 -1.34844 1.83342)
(3.84339 -1.65282 1.7722)
(4.01529 -1.50221 1.20579)
(3.68284 -0.646477 0.449684)
(3.30641 -0.55774 0.449307)
(4.20071 -0.407595 2.56266)
(4.30415 -1.24351 2.34949)
(4.47958 -1.16313 2.05114)
(4.44798 -1.93516 2.22714)
(3.93226 -2.35293 2.67034)
(3.77938 -2.14452 2.61046)
(3.31144 -2.78935 2.22407)
(3.33001 -2.18059 1.09717)
(3.31929 -1.30479 0.125256)
(2.86315 -0.0337511 1.98269)
(2.66535 0.0225696 1.99184)
(2.80849 -0.925838 2.38132)
(3.75164 -0.987442 2.10383)
(3.6009 -1.43834 2.41028)
(2.90271 -1.7706 2.74148)
(1.80289 -3.60112 3.03024)
(1.46969 -4.41682 2.54366)
(2.41505 -4.32959 2.23117)
(3.26669 -2.34366 -0.215854)
(2.54571 -0.141791 1.37511)
(2.89634 -0.531005 0.824842)
(2.72759 -0.400287 0.734016)
(2.60852 -0.274498 0.695954)
(2.09229 -0.488006 0.563335)
(1.65402 -1.10744 0.366527)
(1.46975 -1.79041 -0.0399319)
(1.57299 -3.20505 0.783705)
(0.613733 -4.96183 0.063803)
(1.16465 -4.32747 2.4548)
(2.32872 -3.62386 -0.418766)
(1.61138 -0.469368 0.945452)
(1.51737 -0.512618 0.776938)
(1.7411 -0.721099 0.142521)
(2.11907 -0.574939 -0.0981604)
(1.99573 -1.06479 -0.118931)
(1.79881 -1.43722 -0.814128)
(1.51447 -1.21781 -1.09943)
(1.26968 -1.25391 -0.674536)
(1.66344 -1.84495 -0.318194)
(1.24505 -3.48299 0.355867)
(0.908426 -4.44485 1.94506)
(1.85219 -4.11812 0.141183)
(0.891046 -0.405131 0.534204)
(0.694717 -0.7125 0.345589)
(0.386219 -0.864493 0.260306)
(0.419472 -0.593994 0.0508846)
(0.73605 -0.601913 0.114081)
(1.03165 -0.445845 -0.441717)
(0.371516 -1.81317 -0.700364)
(0.578972 -1.73848 -0.963957)
(1.23338 -1.51462 -0.773622)
(1.34874 -1.95335 -0.527926)
(1.23599 -2.37299 -0.88689)
(0.683654 -3.20428 0.783566)
(0.328084 -3.70624 0.970391)
(0.013953 -0.903873 0.509137)
(-0.0953729 -1.20579 0.321504)
(-0.179142 -1.48622 0.594653)
(-0.10416 -1.41043 0.100126)
(0.0299439 -1.44258 -0.311859)
(-0.0898089 -1.60521 -0.148005)
(-0.0450586 -1.10886 -0.60364)
(-0.344063 -1.71634 -1.20657)
(-0.196723 -1.71556 -0.912552)
(0.431476 -1.47424 -0.601132)
(0.717042 -1.43243 -0.490643)
(0.714533 -1.65878 -0.799667)
(1.34425 -2.45484 0.359131)
(0.698293 -3.64354 0.91567)
(1.61983 1.04384 0.164636)
(2.03838 1.17505 0.0507208)
(1.87728 0.878229 -0.17471)
(2.4707 0.603255 -0.164677)
(2.38769 0.0294723 0.00579726)
(2.12934 0.769656 -0.136436)
(2.59764 0.426506 0.312289)
(2.61338 0.431903 0.256089)
(2.35313 1.05655 -0.046405)
(2.11643 1.10755 0.187166)
(2.93687 0.194655 0.377241)
(2.92842 0.325734 0.376888)
(2.80342 0.172459 0.170386)
(2.86915 0.175339 0.0920063)
(2.51677 0.400396 -0.0622477)
(3.25645 -0.0128045 0.590996)
(3.24315 -0.197621 0.367866)
(3.23385 -0.367279 0.432651)
(3.20909 -0.0621213 0.0620397)
(2.93884 -0.44994 0.387035)
(2.70525 0.832882 -0.428745)
(3.53791 -0.355011 1.1619)
(3.36657 -0.575096 0.876918)
(3.4755 -0.532264 0.609489)
(3.35264 -0.713043 0.522853)
(3.45353 -0.755662 0.488735)
(3.36982 -0.411748 0.264105)
(2.89624 0.570248 0.273131)
(3.75962 -0.389402 1.72124)
(3.40709 -1.4561 1.56726)
(3.59318 -1.25367 1.44404)
(3.64203 -1.29116 1.18311)
(3.65298 -1.14059 0.894479)
(3.46873 -1.13749 0.383714)
(3.19933 -1.03594 0.637297)
(3.32555 0.201606 -0.253795)
(4.22011 -0.533742 1.88773)
(4.01578 -0.810047 1.76167)
(4.04604 -1.12107 1.80578)
(4.13677 -1.468 1.72096)
(3.88705 -1.79141 1.92763)
(3.58035 -2.19979 1.92279)
(3.84221 -1.99205 1.2683)
(3.50863 -0.728954 0.660273)
(3.17962 -0.832445 0.178369)
(3.97589 -0.454156 2.63555)
(4.03562 -1.48352 2.51394)
(4.32636 -1.2557 2.29843)
(4.43431 -1.66996 1.86528)
(4.39652 -1.79966 2.35301)
(4.05903 -1.75697 2.56967)
(3.32915 -2.70446 2.70463)
(2.34806 -3.70334 2.1684)
(2.8222 -2.69175 1.15044)
(3.42489 -1.19437 0.22378)
(2.89544 -0.202551 2.33045)
(2.86153 -0.10544 2.11703)
(2.77795 -0.195305 2.09548)
(2.87468 -1.44453 2.10904)
(3.65649 -1.44821 2.17891)
(3.34187 -1.64998 2.42538)
(2.41111 -1.98769 2.73157)
(1.58455 -3.90868 2.79175)
(1.33197 -4.18511 3.05497)
(2.91231 -4.01629 1.16356)
(2.91176 -2.40541 0.384633)
(2.56858 -0.330269 0.833565)
(2.78673 -0.400723 0.536917)
(2.74031 -0.911899 0.79478)
(2.74238 -0.445386 0.858138)
(2.51475 -0.594304 1.00403)
(2.00661 -0.767597 0.648654)
(1.49302 -1.54114 -0.272865)
(0.839498 -2.08711 -0.467135)
(1.61986 -3.62069 -0.193423)
(0.675931 -4.48722 1.88942)
(1.75842 -4.01417 2.24744)
(2.30167 -3.6781 0.0396161)
(1.75007 -0.689482 0.742724)
(1.5934 -0.486367 0.971705)
(1.48062 -0.730012 0.65423)
(1.76874 -0.733274 0.128575)
(2.06642 -0.628779 -0.0904284)
(1.9029 -1.31712 -0.130673)
(2.01237 -1.15707 -0.684768)
(1.34757 -1.45058 -1.16478)
(1.14235 -1.37635 -0.721037)
(1.56972 -2.05479 -0.110926)
(0.893407 -3.82897 0.188846)
(0.892138 -4.47788 2.37531)
(1.66154 -4.34162 0.317819)
(0.697807 -0.397562 0.969121)
(0.891648 -0.509659 0.494588)
(0.633001 -0.82925 0.437082)
(0.367803 -0.803669 0.350542)
(0.400742 -0.515556 0.0966752)
(0.671864 -0.643146 -0.0546868)
(1.02852 -0.489159 -0.435624)
(0.257253 -1.88448 -0.70128)
(0.854647 -1.60958 -0.778629)
(0.946456 -1.76107 -0.601561)
(1.23639 -2.12295 -0.400388)
(1.21 -2.45133 -0.711199)
(0.602008 -3.2872 1.08331)
(0.397064 -3.76861 0.96857)
(0.0207912 -0.690531 0.399168)
(0.00681881 -0.860404 0.536072)
(-0.116855 -1.21209 0.411016)
(-0.200288 -1.49791 0.668499)
(-0.061543 -1.2812 0.0827101)
(0.0128512 -1.43049 -0.286492)
(-0.11808 -1.62263 -0.0608214)
(-0.123298 -1.23665 -0.590877)
(-0.372932 -1.77306 -1.13472)
(-0.149208 -1.62379 -0.836501)
(0.416443 -1.50077 -0.515041)
(0.679506 -1.45234 -0.452981)
(0.498804 -1.78965 -0.561948)
(1.32127 -2.46326 0.415535)
(0.640515 -3.69453 0.916947)
(1.51828 1.03878 -0.0438761)
(1.81175 1.16273 -0.0413194)
(1.67586 0.899131 0.216279)
(2.25802 0.575364 0.362471)
(2.13889 0.767289 0.108971)
(1.90787 0.770156 -0.0826988)
(2.46558 0.836821 0.126392)
(2.47151 0.579777 -0.173419)
(2.39061 0.0582364 -0.0138941)
(2.19161 0.61016 -0.151977)
(2.74648 0.178511 0.379989)
(2.61331 0.343362 0.304062)
(2.61821 0.305344 0.18175)
(2.3834 0.851135 -0.043685)
(2.19833 0.959141 0.145769)
(2.95182 0.200254 0.504312)
(2.9096 -0.011841 0.405156)
(2.93035 0.083336 0.318272)
(2.82425 -0.0539035 0.203111)
(2.80416 0.479144 -0.0166313)
(2.50415 0.135158 0.0966638)
(3.18655 -0.354997 0.890744)
(3.17535 -0.461703 0.683899)
(3.23491 -0.39382 0.391451)
(3.2133 -0.385736 0.469241)
(3.09668 -0.384505 0.00802885)
(2.91787 -0.307461 0.289865)
(2.75269 0.553714 -0.410841)
(3.65386 -0.0947112 1.2802)
(3.34022 -0.709485 1.15232)
(3.32701 -0.800606 0.978742)
(3.4131 -0.766897 0.551814)
(3.29349 -0.932094 0.516383)
(3.28674 -1.00719 0.461041)
(3.37831 -0.63533 0.307113)
(2.88957 0.248751 0.0539863)
(3.63832 -0.258397 1.75574)
(3.56881 -0.776595 1.67626)
(3.52365 -0.950837 1.52436)
(3.53931 -1.45463 1.32876)
(3.55833 -1.48594 1.20913)
(3.51038 -1.53381 0.938776)
(3.40374 -1.35032 0.445585)
(3.10559 -1.23461 0.699966)
(3.28393 0.243185 -0.242739)
(4.32321 -0.0471852 1.79829)
(4.23528 0.370193 1.66798)
(4.11191 -0.644477 1.762)
(3.92734 -1.28712 1.8426)
(4.11039 -1.6039 1.73209)
(3.85834 -1.8384 1.85673)
(3.82686 -2.08996 1.76405)
(3.91362 -1.8129 0.906429)
(3.27501 -1.20108 1.0196)
(3.1795 -0.907559 -0.132502)
(4.00155 -0.366295 2.64563)
(3.84568 -0.920866 2.60529)
(4.18318 -0.901118 2.54193)
(4.1039 -1.67617 2.18142)
(4.41636 -1.77752 2.0099)
(4.07238 -1.979 2.43532)
(3.84024 -2.13315 2.64655)
(3.04379 -3.07499 2.71151)
(2.59092 -3.37917 2.16489)
(3.16507 -2.0974 0.832987)
(3.46624 -1.08732 0.365343)
(2.78307 -0.209528 2.37835)
(2.95677 -0.258471 2.26727)
(2.92148 -0.155219 2.11966)
(2.74007 -0.491187 2.20708)
(2.89342 -1.63166 1.9353)
(3.45804 -1.77238 2.23854)
(3.1386 -1.57354 2.41687)
(2.16511 -2.41636 2.59513)
(1.449 -4.13406 2.1271)
(1.16496 -3.95587 3.4593)
(3.41083 -3.56834 0.375303)
(2.57954 -2.27702 0.847459)
(2.66147 -0.207027 0.920456)
(2.57593 -0.505819 0.784797)
(2.30128 -1.16569 1.2416)
(2.77286 -0.548855 0.852422)
(2.61967 -0.61962 0.817607)
(2.58563 -0.723592 0.73407)
(1.87709 -1.25914 0.849988)
(1.4893 -1.66033 -0.52793)
(1.216 -1.82392 -0.265244)
(1.60724 -3.76023 -0.5309)
(0.90013 -3.89723 2.77543)
(1.52137 -4.16267 1.67115)
(2.70081 -3.3409 0.582986)
(1.78636 -0.487727 0.750498)
(1.68972 -0.661449 0.80392)
(1.49131 -0.841751 0.822548)
(1.5102 -0.62813 0.730358)
(1.76322 -0.637089 0.188313)
(2.01401 -0.689811 -0.0660374)
(1.88226 -1.35755 -0.167182)
(1.84822 -1.39501 -0.757161)
(1.24138 -1.58334 -1.20324)
(0.997548 -1.47879 -0.640874)
(1.38424 -2.41008 -0.0678743)
(0.677548 -3.83259 0.985195)
(0.890877 -4.56247 2.56871)
(1.50415 -4.49777 0.562123)
(0.691312 -0.689167 0.859069)
(0.688074 -0.453433 0.890089)
(0.859655 -0.569079 0.516792)
(0.590395 -0.856438 0.527302)
(0.364231 -0.751365 0.423478)
(0.378835 -0.475122 0.135747)
(0.600721 -0.673562 -0.158015)
(0.942315 -0.658511 -0.415144)
(0.197695 -1.88844 -0.711638)
(0.654381 -1.70316 -0.839916)
(1.01994 -1.6442 -0.713754)
(1.16105 -2.21872 -0.382463)
(1.17472 -2.51876 -0.502497)
(0.576823 -3.3431 1.32072)
(0.499996 -3.8131 0.998598)
(-0.206537 -0.909599 0.358003)
(0.021095 -0.672821 0.394458)
(0.00448808 -0.829292 0.568475)
(-0.140588 -1.21635 0.520112)
(-0.201727 -1.47446 0.71562)
(-0.0185728 -1.17515 0.0704511)
(-0.0422155 -1.49243 -0.199936)
(-0.132763 -1.60666 0.112008)
(-0.194586 -1.34857 -0.503135)
(-0.361606 -1.78618 -0.99273)
(-0.125615 -1.56842 -0.767365)
(0.397859 -1.48494 -0.485755)
(0.673428 -1.46256 -0.433249)
(0.509362 -1.72648 -0.56931)
(1.29736 -2.47752 0.459513)
(0.665541 -3.70499 0.941009)
(1.42143 0.978357 0.048735)
(2.04353 0.452856 0.110777)
(1.58221 0.935181 -0.137965)
(2.12007 0.744734 0.0218613)
(1.90407 0.876498 -0.0442924)
(1.71553 0.812136 0.246739)
(2.37822 0.573734 0.17755)
(2.25476 0.656688 0.310177)
(2.10363 0.801317 0.0461853)
(1.97075 0.53291 0.0212128)
(2.57924 -0.0106669 0.172456)
(2.58962 0.159341 0.273414)
(2.48983 0.3523 -0.129212)
(2.40905 -0.150511 -0.0312129)
(2.19389 0.42763 -0.170555)
(2.74841 0.10282 0.47451)
(2.73267 0.098834 0.278868)
(2.6486 0.113816 0.30375)
(2.67686 0.0950297 0.0511615)
(2.42296 0.606396 0.022453)
(2.24114 0.86713 0.1219)
(2.96611 -0.0285375 0.541689)
(2.90016 -0.0692728 0.580711)
(2.88752 -0.187301 0.443664)
(2.90593 -0.208307 0.304201)
(2.80977 -0.310919 0.286153)
(2.76448 0.264239 -0.012647)
(2.5189 -0.000400724 0.0903114)
(3.16613 -0.135744 0.942114)
(3.19769 -0.335962 0.864974)
(3.17153 -0.495389 0.663472)
(3.22084 -0.473354 0.430802)
(3.12224 -0.611979 0.506262)
(3.10462 -0.457933 0.0375931)
(2.9928 -0.29437 0.310846)
(2.77215 0.254443 -0.17114)
(3.62894 -0.197389 1.3226)
(3.56597 -0.391744 1.29033)
(3.28096 -0.809452 1.1495)
(3.24713 -1.00797 1.03063)
(3.23022 -1.21536 0.605816)
(3.11038 -1.3417 0.623225)
(3.10648 -1.18937 0.342096)
(3.32432 -0.378482 0.113246)
(2.81071 -0.0937566 0.0184179)
(3.64772 -0.340629 1.77107)
(3.69781 -0.769408 1.60631)
(3.38296 -1.33545 1.67609)
(3.55211 -1.11757 1.47747)
(3.45324 -1.6147 1.20844)
(3.45019 -1.75046 1.11685)
(3.38152 -1.93399 0.966243)
(3.33144 -1.57622 0.449422)
(2.97478 -1.56127 0.709509)
(3.27274 0.00959529 -0.0786142)
(4.41692 -0.046098 1.8507)
(4.31821 0.0605689 1.78477)
(4.10701 -0.616054 1.79812)
(4.04939 -0.963583 1.83925)
(3.90797 -1.49067 1.76248)
(4.20557 -1.32798 1.7638)
(3.82076 -2.07457 1.88301)
(3.37134 -2.523 1.89949)
(3.29061 -2.16184 0.832948)
(3.35017 -1.16757 0.830182)
(3.22637 -0.518392 0.121149)
(3.81466 -0.441473 2.71751)
(3.8642 -0.792685 2.6345)
(3.84287 -1.08429 2.60905)
(3.97643 -1.41576 2.46324)
(4.05445 -1.90168 2.13304)
(4.17985 -2.06513 2.16639)
(3.93571 -2.18164 2.4526)
(3.72462 -2.56959 2.70605)
(1.37063 -4.23381 2.44091)
(1.17624 -4.02493 2.17364)
(3.02393 -2.02367 0.88361)
(3.42926 -1.12102 0.47902)
(2.62419 -0.123882 2.49178)
(2.85908 -0.323748 2.28876)
(2.93323 -0.456706 2.24338)
(2.86771 -0.402292 2.14473)
(2.72113 -0.769904 2.25012)
(2.79225 -1.88767 1.8132)
(3.35983 -1.72668 2.30439)
(2.91898 -1.73635 2.34126)
(1.45387 -3.37488 2.26609)
(0.824296 -4.3593 1.83825)
(0.856678 -4.03429 3.41508)
(4.10751 -2.94714 -0.598796)
(2.42603 -2.00804 1.06355)
(2.79689 -0.483715 0.652218)
(2.5984 -0.453749 0.954298)
(2.36767 -0.891097 0.77697)
(2.55392 -0.58013 0.558856)
(2.7947 -0.262244 0.838779)
(2.59375 -0.647717 0.608268)
(2.507 -0.807647 1.14736)
(1.97085 -1.36148 0.8411)
(1.60539 -1.65367 -0.472923)
(1.44907 -1.85993 -0.389306)
(1.37769 -3.71278 0.151448)
(0.952074 -3.80726 2.56773)
(1.1829 -4.21107 1.07081)
(2.85696 -3.13928 0.378561)
(1.80652 -0.60293 0.795992)
(1.70101 -0.687657 0.721929)
(1.60634 -0.809934 0.785583)
(1.42346 -0.794099 0.862731)
(1.53526 -0.671956 0.713031)
(1.68522 -0.725447 0.134283)
(1.90253 -0.800024 -0.0962447)
(1.82216 -1.40176 -0.173608)
(1.80604 -1.45861 -0.737202)
(1.00587 -1.81373 -1.17104)
(0.870046 -1.5523 -0.555498)
(1.13876 -2.66025 -0.301921)
(0.414247 -3.87147 1.19132)
(0.75961 -4.67878 2.41849)
(1.33378 -4.66452 0.840037)
(0.803898 -0.710135 0.713059)
(0.654814 -0.743045 0.809376)
(0.674154 -0.524251 0.809546)
(0.850445 -0.589115 0.52632)
(0.553129 -0.849754 0.599633)
(0.379335 -0.653834 0.57529)
(0.357053 -0.461372 0.170432)
(0.538325 -0.693109 -0.254931)
(0.791995 -0.823282 -0.472865)
(0.0987674 -1.91366 -0.66534)
(0.601082 -1.71581 -0.829725)
(1.06186 -1.53792 -0.947011)
(1.02251 -2.33123 -0.356517)
(1.13838 -2.56414 -0.343582)
(0.525668 -3.43737 1.44696)
(0.602999 -3.90387 0.977463)
(-0.589201 -0.610607 -0.447164)
(-0.226257 -0.916672 0.35341)
(0.0227104 -0.658695 0.395073)
(0.00142825 -0.801205 0.623058)
(-0.163129 -1.21483 0.634681)
(-0.186561 -1.40805 0.756493)
(-0.00054414 -1.14996 0.0786637)
(-0.117086 -1.56277 -0.146996)
(-0.134385 -1.5717 0.207766)
(-0.262663 -1.40877 -0.368767)
(-0.320477 -1.72743 -0.955889)
(-0.126376 -1.53433 -0.711305)
(0.414738 -1.45852 -0.485602)
(0.643823 -1.48357 -0.408986)
(0.46856 -1.73819 -0.470079)
(1.14638 -2.52448 0.549201)
(0.674457 -3.71311 0.936649)
(1.36375 0.926846 -0.0240444)
(1.69098 0.987767 -0.0281443)
(1.50704 0.816936 0.0230946)
(2.02779 0.569438 0.00982191)
(2.06383 0.11938 0.180798)
(1.64259 0.837444 -0.19209)
(2.19394 0.55624 0.07676)
(2.20348 0.487656 -0.0909962)
(1.95801 0.691587 -0.0295508)
(1.74901 0.758823 0.237955)
(2.44064 0.359984 0.196035)
(2.39018 0.493448 0.0921988)
(2.28454 0.558787 0.296084)
(2.11912 0.803339 0.00259471)
(1.91167 0.641859 0.0205464)
(2.57324 0.164119 0.346973)
(2.53393 0.204511 0.183245)
(2.52519 0.15548 0.285839)
(2.47849 0.178458 -0.0528617)
(2.40795 -0.212166 0.000341787)
(2.2382 0.216767 -0.200594)
(2.77613 0.209604 0.474159)
(2.77332 -0.0184255 0.470106)
(2.73775 -0.0557608 0.23485)
(2.66236 -0.0397435 0.307214)
(2.7242 -0.050172 -0.0102414)
(2.55532 0.202006 0.108823)
(2.34364 0.647579 0.101512)
(2.96277 0.0323248 0.817993)
(2.89185 -0.280599 0.645403)
(2.88407 -0.211373 0.579887)
(2.89862 -0.402401 0.435539)
(2.83663 -0.445364 0.386302)
(2.79598 -0.450883 0.319204)
(2.74533 0.100051 0.0530285)
(2.55736 -0.22436 0.141259)
(3.20821 -0.0103526 1.00644)
(3.18741 -0.319157 0.947167)
(3.21515 -0.500257 0.861997)
(3.17299 -0.549946 0.679903)
(3.08967 -0.804301 0.538829)
(3.08971 -0.756387 0.460514)
(3.05257 -0.574137 0.255996)
(2.99862 -0.253601 0.314896)
(2.78514 -0.0687544 -0.0467102)
(3.52011 -0.199245 1.48255)
(3.61531 -0.263695 1.26336)
(3.44714 -0.647051 1.27663)
(3.23983 -1.01007 1.15958)
(3.14554 -1.19287 1.05683)
(3.08266 -1.32411 0.758643)
(2.99208 -1.32234 0.624931)
(2.98169 -1.3201 0.443)
(3.17032 -0.657745 0.019869)
(2.79127 -0.433188 0.0892916)
(3.75552 -0.0739306 1.8172)
(3.74659 -0.613638 1.59311)
(3.67198 -0.802525 1.49287)
(3.54761 -1.14431 1.5205)
(3.4747 -1.41784 1.26922)
(3.47917 -1.72586 1.23018)