/*--------------------------------*- C++ -*----------------------------------*\
  =========                 |
  \\      /  F ield         | OpenFOAM: The Open Source CFD Toolbox
   \\    /   O peration     | Website:  https://openfoam.org
    \\  /    A nd           | Version:  7
     \\/     M anipulation  |
\*---------------------------------------------------------------------------*/
FoamFile
{
    version     2.0;
    format      ascii;
    class       volVectorField;
    location    "1.5";
    object      U_0;
}
// * * * * * * * * * * * * * * * * * * * * * * * * * * * * * * * * * * * * * //

dimensions      [0 1 -1 0 0 0 0];

internalField   nonuniform List<vector> 
18750
(
(1.17074 -2.65907 0.404044)
(1.57935 -1.23938 0.59335)
(1.84217 -1.79832 -0.56613)
(1.11365 -2.85367 0.549151)
(1.87188 -1.95759 -0.631166)
(1.70201 -1.97751 0.0952369)
(1.54854 -1.45456 0.301611)
(0.692299 -1.6652 -1.76424)
(1.78413 -1.90662 -0.496846)
(1.05502 -3.01288 0.628312)
(3.62307 -2.69533 1.47966)
(1.95816 -1.90934 -0.86733)
(1.82142 -1.95709 -0.310649)
(1.45142 -1.45752 -0.271555)
(1.70695 -2.11043 -0.315033)
(1.47535 -1.60468 -0.00592997)
(0.766014 -1.32015 -1.31209)
(0.679134 -1.76392 -1.49578)
(1.74488 -2.01125 -0.371354)
(0.994026 -3.14445 0.651758)
(4.61576 1.11128 -0.816806)
(2.09386 -3.42618 0.945909)
(3.40798 -2.97206 1.62282)
(1.34992 -2.37821 -1.18485)
(1.90814 -2.26308 -1.29951)
(1.76054 -2.08279 0.218478)
(1.53289 -1.40075 -0.960015)
(1.40908 -1.66394 -0.187349)
(1.6632 -2.2349 -0.582841)
(1.39729 -1.71033 -0.170121)
(0.556785 -1.17984 -1.75155)
(0.740322 -1.48649 -1.09065)
(0.652236 -1.81513 -1.25923)
(1.69792 -2.1052 -0.247332)
(0.934354 -3.25566 0.661928)
(3.63715 1.05036 0.0301471)
(3.5648 -2.38515 3.3931)
(4.4795 0.253093 -0.833449)
(2.15573 -2.17274 0.634861)
(1.94357 -3.47387 0.770033)
(3.46829 -2.96258 1.57312)
(1.48915 -1.10828 -0.115794)
(1.50973 -2.55922 -0.993001)
(2.01218 -2.29458 -1.21283)
(1.69277 -2.48607 1.55054)
(1.8252 -1.25302 -1.00279)
(1.47566 -1.32506 -0.810359)
(1.44164 -1.67328 -0.660281)
(1.61403 -2.31867 -0.777418)
(1.2852 -1.87688 -0.008275)
(0.193595 -0.54694 -1.39361)
(0.538002 -1.31574 -1.7138)
(0.723792 -1.48916 -0.964978)
(0.639056 -1.82485 -1.07877)
(1.65281 -2.18686 -0.123905)
(0.873755 -3.34903 0.690649)
(3.75577 1.03198 0.209323)
(5.06798 0.0401604 1.20771)
(3.81196 0.578246 0.189687)
(3.62568 -1.61211 3.09875)
(3.53516 -2.54868 3.1295)
(4.16558 -0.60075 -0.420276)
(2.27921 -1.37738 0.119719)
(1.78111 -2.41605 0.278223)
(1.86591 -3.51742 0.767678)
(3.41353 -3.00446 1.23284)
(1.53633 -0.790067 -0.495265)
(1.51909 -1.50555 -0.345545)
(1.61357 -2.57003 -0.864187)
(1.95384 -2.38291 -0.62205)
(1.70717 -2.85099 1.71)
(1.43544 -0.989612 -0.810926)
(1.73852 -1.41761 -1.01353)
(1.45092 -1.3315 -0.621883)
(1.44869 -1.70384 -1.00103)
(1.56884 -2.37695 -0.859427)
(1.18371 -2.06138 0.356942)
(-0.164229 -1.01168 -0.71088)
(0.197679 -0.706951 -1.51658)
(0.501259 -1.46033 -1.56927)
(0.708488 -1.4972 -0.812597)
(0.635248 -1.80097 -0.974381)
(1.59228 -2.26695 -0.0151378)
(0.814506 -3.41587 0.73765)
(3.23534 1.12927 0.0949753)
(4.10845 0.955705 0.245692)
(3.80845 0.894754 0.286187)
(4.92561 -0.244818 2.09921)
(4.82106 -0.313645 1.19911)
(3.85495 0.531213 0.261173)
(3.78182 -0.50084 2.7562)
(3.48983 -2.03213 2.9346)
(3.49742 -2.57769 2.63878)
(3.87497 -1.02007 -0.0882834)
(1.87769 -0.87777 0.752884)
(2.17628 -1.62712 -0.125549)
(1.73914 -2.44726 0.235568)
(1.41841 -3.65655 0.729095)
(3.51266 -2.7117 0.798236)
(2.0528 -0.303329 -0.637678)
(1.49576 -0.809931 -0.526644)
(1.54639 -1.80223 -0.694135)
(1.80311 -2.25409 -1.07359)
(1.75232 -2.5293 -0.043673)
(1.57675 -3.32962 1.22305)
(0.890271 -0.741948 -0.698025)
(1.40459 -1.04701 -0.9069)
(1.6943 -1.50755 -0.989395)
(1.43466 -1.44117 -0.418551)
(1.41792 -1.8411 -1.25602)
(1.47614 -2.45563 -0.783681)
(1.1 -2.28393 0.412423)
(-0.0146471 -1.20623 -0.0153851)
(-0.15799 -1.03206 -0.792356)
(0.173506 -0.918243 -1.5973)
(0.46111 -1.56641 -1.38258)
(0.693131 -1.50251 -0.685651)
(0.630634 -1.77976 -0.908915)
(1.54851 -2.32415 0.0705545)
(0.773238 -3.43152 0.773922)
(2.69495 0.983479 0.762769)
(3.42956 1.41214 0.209592)
(3.36252 0.929517 0.140231)
(4.18677 0.232149 1.13863)
(4.09727 0.80543 0.146137)
(3.81819 0.730498 0.402974)
(4.86514 -0.556848 2.16219)
(4.84117 -0.700851 2.29208)
(4.59213 -0.922863 1.29773)
(3.82661 0.231417 0.2979)
(4.1744 -0.338116 2.30097)
(3.17649 -1.50052 3.25997)
(3.18679 -2.83106 2.65717)
(3.27114 -2.66877 2.41395)
(3.8076 -1.18235 -0.168187)
(1.9472 -0.504445 0.889589)
(1.84982 -0.907938 0.653685)
(2.11929 -1.85292 -0.291535)
(1.50323 -2.70625 0.252443)
(1.51182 -3.38989 1.10091)
(3.60924 -2.45319 0.142761)
(2.37615 -0.544462 -0.501438)
(2.03508 -0.294991 -0.629731)
(1.464 -0.850091 -0.615502)
(1.58462 -1.91127 -0.809069)
(2.02714 -1.86148 -0.92555)
(1.61266 -2.69148 0.501777)
(1.40509 -3.71704 0.910907)
(0.955374 -0.485058 -0.0784099)
(0.879716 -0.822567 -0.642924)
(1.3238 -1.22247 -0.887636)
(1.6082 -1.62025 -0.92706)
(1.38886 -1.60635 -0.0812921)
(1.40413 -1.9085 -1.65902)
(1.32035 -2.54722 -0.627831)
(0.92452 -2.63601 0.35561)
(0.0975633 -1.39395 0.303861)
(-0.00378535 -1.1273 -0.0892829)
(-0.140552 -1.04831 -0.906853)
(0.115714 -1.15145 -1.61487)
(0.451056 -1.55233 -1.23205)
(0.695957 -1.49337 -0.601781)
(0.615127 -1.80905 -0.820853)
(1.48158 -2.39115 0.115945)
(0.768377 -3.41027 0.801224)
(1.91256 2.28988 0.0236768)
(2.96462 1.57284 0.106814)
(2.66127 1.08168 0.69239)
(3.57171 0.476909 0.76354)
(3.4217 0.969233 0.41511)
(3.37831 0.882616 0.120924)
(4.3105 -0.0266944 1.16361)
(4.23814 -0.180988 1.25107)
(4.0705 0.543145 -0.0283954)
(3.83088 0.61842 0.475973)
(4.60719 -0.722843 2.55895)
(4.70869 -1.05811 2.39496)
(4.22185 -1.99363 2.62634)
(4.41132 -1.1776 1.16297)
(3.61254 -0.282039 0.362365)
(4.11105 -0.292863 2.3149)
(3.89188 -0.719613 2.46147)
(2.87696 -2.10024 3.16093)
(2.26815 -4.03292 1.73868)
(2.97766 -2.67514 2.47045)
(3.80528 -1.51193 -0.582126)
(2.22621 0.0304533 0.0214139)
(1.88968 -0.523344 0.903735)
(1.9098 -1.09963 0.395634)
(2.05948 -1.98029 0.146142)
(1.38967 -2.99321 0.834136)
(1.45322 -3.34586 1.20112)
(3.33512 -2.59132 -0.33955)
(2.24634 -0.411718 -0.0635879)
(2.28987 -0.758326 -0.540293)
(1.98679 -0.448263 -0.731234)
(1.4826 -0.818188 -0.592052)
(1.6931 -1.86512 -0.834)
(2.00408 -1.99159 -0.174204)
(1.4852 -3.00638 1.44417)
(1.47531 -3.78392 1.06319)
(0.914421 -0.600987 0.0535074)
(0.952778 -0.481035 -0.101441)
(0.830319 -1.03311 -0.614621)
(1.28545 -1.31546 -0.864146)
(1.37328 -1.70196 -0.853528)
(1.363 -1.66439 0.170656)
(1.37952 -1.99252 -1.91004)
(1.22715 -2.63361 -0.493041)
(0.700831 -2.98776 0.545441)
(0.0857208 -1.46083 0.107214)
(0.0776519 -1.38084 0.168997)
(0.00918883 -1.04989 -0.182889)
(-0.124622 -1.08846 -1.03551)
(0.0409674 -1.37817 -1.55113)
(0.439421 -1.50525 -1.08928)
(0.707515 -1.48325 -0.543829)
(0.581347 -1.87051 -0.671758)
(1.45307 -2.4228 0.161042)
(0.773057 -3.4109 0.830266)
(2.41783 0.904154 -0.34761)
(2.84733 0.948513 0.0112885)
(2.06333 2.12396 0.110549)
(3.37799 0.543601 0.56289)
(3.08792 1.46581 0.00585864)
(2.71596 0.995157 0.665673)
(3.75876 0.17006 0.796921)
(3.67086 0.0494187 0.786071)
(3.29905 0.634435 0.462932)
(3.43792 0.58018 -0.0231852)
(4.25983 -0.694324 1.72588)
(4.28603 -0.518437 1.29945)
(4.13569 -0.687765 1.36294)
(3.9596 0.220147 0.0359703)
(3.75415 0.172666 0.735906)
(4.69493 -0.816601 1.69413)
(4.59252 -0.897654 2.57699)
(4.39687 -1.45929 2.62416)
(3.97624 -1.95146 2.48471)
(4.44551 -0.944306 0.792018)
(3.46808 -0.617644 0.263299)
(3.53186 -0.898156 2.20081)
(4.09883 -0.40197 2.27315)
(3.61699 -1.06229 2.57068)
(2.75794 -2.31455 3.03086)
(3.14712 -2.73299 2.54362)
(2.77305 -3.10455 2.60386)
(3.77038 -1.70227 -0.850957)
(2.35694 0.0793962 0.205937)
(2.24459 -0.0808322 0.198457)
(1.79521 -0.678138 0.945833)
(1.8925 -1.41049 0.192451)
(1.90094 -2.16281 1.02082)
(1.42357 -3.37141 0.736165)
(1.39548 -3.62834 1.6019)
(3.17458 -2.74752 -0.742023)
(2.18193 -0.586638 -0.137356)
(2.23352 -0.500211 -0.0854357)
(2.19474 -0.851696 -0.584952)
(1.85462 -0.709689 -0.850125)
(1.48852 -0.821807 -0.590004)
(1.82961 -1.8148 -0.762214)
(1.88739 -2.36661 1.439)
(1.58979 -3.1866 1.85554)
(1.70851 -3.75263 1.0912)
(0.479261 -1.06473 -0.0762389)
(0.873645 -0.569079 0.141756)
(0.960856 -0.456543 -0.271023)
(0.768566 -1.16716 -0.708072)
(1.14704 -1.41155 -0.902356)
(1.35395 -1.64621 -0.821481)
(1.42174 -1.67443 0.209879)
(1.37166 -2.11237 -1.7975)
(0.925467 -2.92088 -0.0247047)
(0.514743 -3.28013 0.724623)
(-0.136476 -1.58881 0.0820909)
(0.0721095 -1.4713 -0.00543298)
(0.0539642 -1.40185 0.034372)
(0.0187819 -0.993743 -0.278472)
(-0.134349 -1.19564 -1.15764)
(-0.0513664 -1.55233 -1.4392)
(0.440673 -1.47478 -0.945384)
(0.693805 -1.44946 -0.55096)
(0.566331 -1.82627 -0.651611)
(1.40391 -2.45538 0.194389)
(0.767845 -3.44868 0.865767)
(1.94103 1.48183 0.239748)
(2.72503 0.508554 0.227606)
(2.57035 0.517793 -0.47308)
(3.28655 0.384855 -0.386973)
(2.94149 0.614486 0.0453834)
(2.19348 1.92657 0.154673)
(3.45498 -0.0362239 0.468543)
(3.50946 -0.138908 0.598787)
(3.1674 1.13866 -0.050551)
(2.66357 1.05188 0.500479)
(3.87555 -0.154127 0.865343)
(3.73371 -0.205252 0.882404)
(3.62527 -0.113001 0.670565)
(3.28751 0.312871 0.35002)
(3.43377 0.580325 -0.0798827)
(4.07279 -1.19149 1.67707)
(4.09137 -1.27671 1.85506)
(4.17236 -1.03424 1.53069)
(4.13903 -0.983563 1.20918)
(3.88906 -0.0995548 0.0946795)
(3.59021 -0.153855 0.72377)
(4.36699 -1.34186 1.86518)
(4.70534 -1.29336 1.74142)
(4.52715 -1.15624 2.53066)
(4.22647 -1.71255 2.65757)
(3.89776 -2.21759 2.3357)
(4.18919 -1.43637 0.879568)
(3.41948 -0.907287 0.0313515)
(2.74557 -0.524145 1.92563)
(3.54941 -1.20786 2.02575)
(3.97037 -0.621449 2.37737)
(3.42658 -1.19331 2.71585)
(2.86375 -2.20648 3.12785)
(2.31913 -3.7657 2.43729)
(2.47135 -4.02464 2.62489)
(3.6767 -2.00332 -0.903064)
(2.79805 -0.889783 0.505143)
(2.48134 -0.0777543 0.450198)
(2.24556 -0.0623554 0.338773)
(1.72631 -0.701775 0.865053)
(1.75606 -1.56436 0.12568)
(1.6978 -2.45121 1.38152)
(0.983794 -4.361 -0.123455)
(0.942899 -4.36079 2.18452)
(2.72629 -3.21901 -1.03002)
(1.76309 -0.383931 0.404537)
(2.18161 -0.643103 -0.143278)
(2.11736 -0.810168 -0.0785105)
(2.17241 -0.908688 -0.596357)
(1.79097 -0.780124 -0.871125)
(1.48084 -0.855008 -0.647786)
(1.81998 -1.83417 -0.688066)
(1.75424 -2.66289 1.74834)
(1.71605 -3.45472 1.90678)
(1.84489 -3.76098 0.788137)
(0.445105 -0.962274 0.14158)
(0.443626 -0.880831 -0.0333684)
(0.838841 -0.564731 0.194807)
(0.98062 -0.44383 -0.396755)
(0.674162 -1.33467 -0.746089)
(1.01431 -1.55364 -0.885938)
(1.32232 -1.76781 -0.750047)
(1.41843 -1.77021 0.0554501)
(1.28593 -2.24906 -1.5036)
(0.806575 -3.01588 0.266729)
(0.349015 -3.50952 0.803652)
(-0.146744 -1.42167 0.4551)
(-0.147172 -1.59786 0.105392)
(0.0415217 -1.48425 -0.139987)
(0.0148833 -1.45976 -0.114867)
(0.0245094 -0.971647 -0.391446)
(-0.192297 -1.36548 -1.24037)
(-0.129925 -1.682 -1.27077)
(0.448951 -1.46069 -0.808331)
(0.682441 -1.42912 -0.5517)
(0.574265 -1.7501 -0.713281)
(1.37172 -2.45831 0.274694)
(0.758061 -3.48636 0.890832)
(1.97467 1.17294 -0.0968428)
(2.17689 1.5522 -0.00967853)
(2.05405 1.28928 0.208677)
(2.78949 0.583356 0.160627)
(2.82497 0.10114 0.114824)
(2.60078 0.518006 -0.435689)
(3.21918 0.255448 0.339478)
(3.30532 0.176232 -0.397969)
(3.06697 0.086685 0.293387)
(2.50891 1.33009 0.154979)
(3.42151 -0.0740569 0.636525)
(3.451 -0.303485 0.461632)
(3.53546 -0.203746 0.601362)
(3.28496 0.545642 0.0803112)
(2.75946 0.861302 0.288897)
(3.58217 -0.772546 1.53447)
(3.86124 -0.3682 0.907452)
(3.69457 -0.544074 0.948544)
(3.58485 -0.458095 0.558883)
(3.30791 -0.0749247 0.433985)
(3.32701 0.379362 -0.0852896)
(3.95057 -0.955651 1.85372)
(4.19647 -0.990866 1.70511)
(4.23159 -1.19453 1.77179)
(3.99747 -1.38484 1.67963)
(4.16 -1.15062 1.12609)
(3.83227 -0.211591 0.228809)
(3.47463 -0.511689 0.445143)
(4.25591 -1.14802 2.24418)
(4.53205 -1.23691 1.94717)
(4.55669 -1.3675 2.29651)
(4.43188 -1.42145 2.58894)
(3.71615 -2.52698 2.75016)
(3.34811 -2.98827 2.28666)
(3.17169 -2.91018 1.4169)
(3.38397 -0.92266 0.0661113)
(2.62508 0.0914661 1.82832)
(2.87255 -1.03218 1.988)
(3.60858 -1.16742 1.9465)
(3.81459 -0.918557 2.45613)
(3.36313 -1.34318 2.7443)
(2.22867 -3.1538 3.02854)
(2.28716 -3.82537 2.33918)
(2.35027 -4.32565 2.68772)
(3.5897 -2.15984 -0.809437)
(2.93355 -0.470101 0.785423)
(2.79621 -0.229918 0.6262)
(2.46792 -0.175674 0.828266)
(2.16241 -0.341641 0.474233)
(1.72355 -0.859128 0.636616)
(1.61486 -1.69433 0.0203831)
(1.60959 -2.70357 1.45479)
(0.801331 -4.9594 -1.03664)
(0.612441 -4.68669 2.48139)
(2.40886 -3.51989 -0.792864)
(1.531 -0.571048 0.558909)
(1.75328 -0.528285 0.229321)
(2.13274 -0.632952 -0.158481)
(2.09181 -0.785583 -0.15147)
(2.0895 -1.11459 -0.656945)
(1.63224 -1.03582 -1.01682)
(1.43788 -0.952386 -0.692097)
(1.6897 -1.87182 -0.458386)
(1.64581 -2.93933 1.26399)
(1.45087 -3.98281 1.84763)
(1.88678 -3.82562 0.411279)
(0.750498 -0.525559 0.279838)
(0.41548 -0.914745 0.184678)
(0.427833 -0.721009 0.00608072)
(0.796163 -0.574054 0.215132)
(1.00687 -0.43523 -0.424981)
(0.552476 -1.58735 -0.699027)
(1.14231 -1.49923 -0.905834)
(0.66358 -2.13798 -0.318016)
(1.44191 -1.80753 -0.523422)
(1.22071 -2.31894 -1.1824)
(0.741955 -3.08551 0.507503)
(0.267931 -3.63185 0.932493)
(-0.0856584 -1.19403 0.262138)
(-0.170917 -1.44972 0.517184)
(-0.13915 -1.54044 0.117791)
(0.0308894 -1.48532 -0.208485)
(-0.0349704 -1.53415 -0.181252)
(0.0102191 -0.999804 -0.527999)
(-0.262899 -1.55462 -1.25209)
(-0.20117 -1.78094 -1.0299)
(0.431983 -1.46925 -0.684199)
(0.699832 -1.43634 -0.540115)
(0.602511 -1.75998 -0.72517)
(1.35387 -2.4467 0.30712)
(0.748605 -3.53233 0.907828)
(1.8757 1.00202 -0.202012)
(2.38503 0.329586 0.0823198)
(2.05882 0.934734 -0.104309)
(2.59906 0.678758 0.263269)
(2.41589 1.07224 0.0311847)
(2.00824 1.31202 0.213274)
(2.93263 0.454322 0.408194)
(2.79935 0.321522 0.159336)
(2.87815 -0.189014 0.0505013)
(2.5649 0.55226 -0.284761)
(3.24302 0.0224213 0.340184)
(3.21573 0.0717465 0.3742)
(3.31777 -0.00789044 -0.342365)
(3.0566 -0.229645 0.412033)
(2.66189 1.00226 -0.280799)
(3.41586 -0.433491 0.812672)
(3.47632 -0.306443 0.636268)
(3.43348 -0.456762 0.472812)
(3.50822 -0.490885 0.546262)
(3.40465 -0.128403 0.193662)
(2.8488 0.63939 0.271467)
(3.58648 -0.841794 1.62614)
(3.4534 -1.19839 1.66246)
(3.73255 -0.981272 1.12859)
(3.68118 -0.685483 0.905513)
(3.54623 -0.843591 0.439238)
(3.24974 -0.549344 0.538521)
(3.29065 0.267311 -0.0624885)
(4.19332 -0.499979 1.78665)
(4.07503 -0.921644 1.79943)
(4.22991 -1.04714 1.77098)
(4.17439 -1.34981 1.8273)
(3.84816 -1.64725 1.76141)
(4.01676 -1.48959 1.20111)
(3.69877 -0.638459 0.433949)
(3.31029 -0.554679 0.458269)
(4.19669 -0.358195 2.56908)
(4.29105 -1.26713 2.34956)
(4.47283 -1.18023 2.04997)
(4.44189 -1.94797 2.22397)
(3.92164 -2.3845 2.6688)
(3.79581 -2.14296 2.60313)
(3.36297 -2.74821 2.22463)
(3.3402 -2.20222 1.0965)
(3.31158 -1.31047 0.117469)
(2.85621 -0.0371855 1.98881)
(2.65721 0.024149 1.98451)
(2.79688 -0.916145 2.38467)
(3.74554 -0.993375 2.09341)
(3.61853 -1.43003 2.40854)
(2.93601 -1.74986 2.73978)
(1.8192 -3.56305 3.05385)
(1.4871 -4.42208 2.49902)
(2.37211 -4.35236 2.314)
(3.29218 -2.34503 -0.274686)
(2.5366 -0.138761 1.4045)
(2.901 -0.519964 0.822839)
(2.72609 -0.411294 0.727451)
(2.60416 -0.266851 0.690064)
(2.09007 -0.494389 0.568775)
(1.65954 -1.08665 0.409868)
(1.47966 -1.78842 -0.0270161)
(1.55246 -3.16732 0.875718)
(0.595075 -4.99603 -0.099504)
(1.07516 -4.37849 2.46461)
(2.31101 -3.62977 -0.462105)
(1.61045 -0.475233 0.94137)
(1.51311 -0.520181 0.77392)
(1.73573 -0.722146 0.149715)
(2.11782 -0.584631 -0.0993572)
(2.00457 -1.04093 -0.119001)
(1.80329 -1.43721 -0.811602)
(1.52029 -1.20482 -1.09665)
(1.27836 -1.23303 -0.678178)
(1.65715 -1.84696 -0.329564)
(1.28638 -3.42128 0.460583)
(0.935143 -4.41941 1.9038)
(1.86034 -4.10151 0.146716)
(0.88832 -0.399935 0.539609)
(0.695696 -0.703084 0.341297)
(0.382066 -0.866723 0.259234)
(0.414459 -0.597945 0.0527123)
(0.735218 -0.599897 0.12869)
(1.0274 -0.447733 -0.436978)
(0.377449 -1.80312 -0.695575)
(0.599528 -1.7204 -0.974639)
(1.22114 -1.52314 -0.770868)
(1.35088 -1.93475 -0.542838)
(1.22075 -2.37597 -0.917696)
(0.676299 -3.20001 0.735224)
(0.293458 -3.70547 0.964529)
(0.00992644 -0.903362 0.510584)
(-0.0997531 -1.2036 0.319924)
(-0.184743 -1.48419 0.593064)
(-0.115372 -1.41956 0.105986)
(0.0230623 -1.44519 -0.307863)
(-0.0940957 -1.59796 -0.156056)
(-0.0421861 -1.09312 -0.602213)
(-0.347381 -1.70666 -1.2108)
(-0.208452 -1.72717 -0.922652)
(0.425294 -1.46864 -0.616762)
(0.715461 -1.43293 -0.502036)
(0.723221 -1.65445 -0.830799)
(1.35062 -2.44152 0.331282)
(0.703396 -3.5988 0.913865)
(1.6203 1.04424 0.162882)
(2.0417 1.16865 0.0514074)
(1.87837 0.878001 -0.176531)
(2.47104 0.601701 -0.165122)
(2.38779 0.0287943 0.00616501)
(2.12754 0.774048 -0.134589)
(2.59887 0.423183 0.312174)
(2.61329 0.433051 0.257314)
(2.35588 1.0562 -0.045773)
(2.11591 1.10731 0.186953)
(2.93713 0.192232 0.376036)
(2.92931 0.325596 0.378159)
(2.80352 0.173185 0.168234)
(2.87106 0.161152 0.0940887)
(2.51745 0.40229 -0.0684062)
(3.2572 -0.0057948 0.590428)
(3.24295 -0.198061 0.367607)
(3.23227 -0.369488 0.431439)
(3.21275 -0.0603207 0.0575408)
(2.9395 -0.456457 0.390399)
(2.7059 0.833862 -0.426254)
(3.54191 -0.35376 1.16257)
(3.36643 -0.577508 0.873535)
(3.47457 -0.535608 0.609737)
(3.35288 -0.712285 0.520715)
(3.45758 -0.747839 0.491427)
(3.36864 -0.408437 0.261412)
(2.8971 0.567393 0.278511)
(3.76556 -0.37953 1.72293)
(3.39997 -1.48367 1.5672)
(3.58584 -1.263 1.4465)
(3.64105 -1.28971 1.18013)
(3.65229 -1.13932 0.894525)
(3.46838 -1.13963 0.382048)
(3.20188 -1.02875 0.631609)
(3.3265 0.184548 -0.248971)
(4.21592 -0.580315 1.89252)
(4.01362 -0.823167 1.76082)
(4.04312 -1.12484 1.80224)
(4.13421 -1.4638 1.71896)
(3.89648 -1.78668 1.91945)
(3.57866 -2.20097 1.91834)
(3.84056 -2.00877 1.27273)
(3.52153 -0.72171 0.640913)
(3.17756 -0.846866 0.207303)
(3.97822 -0.447616 2.63396)
(4.02891 -1.47617 2.51763)
(4.3248 -1.25497 2.30406)
(4.43049 -1.64775 1.87111)
(4.40919 -1.81741 2.32858)
(4.06459 -1.77298 2.55896)
(3.36048 -2.68921 2.69498)
(2.37021 -3.70425 2.16618)
(2.8346 -2.70228 1.15119)
(3.41475 -1.21255 0.211718)
(2.88724 -0.20613 2.33372)
(2.85755 -0.11664 2.11648)
(2.77259 -0.18896 2.08899)
(2.8609 -1.43297 2.13233)
(3.65338 -1.44848 2.17544)
(3.35551 -1.66463 2.42072)
(2.44385 -1.95987 2.73842)
(1.59164 -3.8958 2.82325)
(1.33511 -4.21842 3.00924)
(2.83602 -4.06702 1.27669)
(2.93539 -2.41724 0.331534)
(2.5683 -0.329764 0.838116)
(2.80342 -0.360583 0.513584)
(2.73899 -0.931593 0.794165)
(2.74372 -0.448765 0.859652)
(2.51386 -0.594146 0.998649)
(2.01372 -0.739083 0.643926)
(1.49581 -1.53304 -0.232269)
(0.835713 -2.09524 -0.45404)
(1.59848 -3.60444 -0.120943)
(0.64988 -4.52031 1.80955)
(1.73134 -4.03105 2.2779)
(2.28269 -3.69044 0.0288273)
(1.75329 -0.685003 0.742452)
(1.59295 -0.484443 0.977434)
(1.47735 -0.727723 0.661975)
(1.76265 -0.745989 0.128572)
(2.06599 -0.634846 -0.0895167)
(1.9022 -1.31489 -0.126423)
(2.01274 -1.15783 -0.684888)
(1.35375 -1.44117 -1.16276)
(1.14354 -1.36729 -0.72818)
(1.57852 -2.02538 -0.135585)
(0.9041 -3.82328 0.152528)
(0.866839 -4.47886 2.31891)
(1.67179 -4.32786 0.295836)
(0.693999 -0.397629 0.973526)
(0.889974 -0.504459 0.496799)
(0.633649 -0.824307 0.432311)
(0.362859 -0.806441 0.349764)
(0.396065 -0.517952 0.099186)
(0.672206 -0.640353 -0.0416948)
(1.02468 -0.491148 -0.432709)
(0.257867 -1.88308 -0.697087)
(0.856114 -1.60456 -0.78174)
(0.942529 -1.76389 -0.600799)
(1.23422 -2.10818 -0.414359)
(1.20065 -2.4448 -0.763912)
(0.589331 -3.28768 1.03508)
(0.356256 -3.77155 0.962244)
(0.0162994 -0.690187 0.399745)
(0.00318574 -0.860216 0.536645)
(-0.120691 -1.20944 0.407543)
(-0.207426 -1.49692 0.66875)
(-0.0729386 -1.28904 0.088427)
(0.00757702 -1.42451 -0.288417)
(-0.125943 -1.61969 -0.072892)
(-0.12063 -1.22057 -0.598743)
(-0.382351 -1.77339 -1.13925)
(-0.159861 -1.63388 -0.847174)
(0.410464 -1.4942 -0.534899)
(0.667552 -1.45577 -0.450574)
(0.508013 -1.77735 -0.592489)
(1.33982 -2.44088 0.369913)
(0.628783 -3.66079 0.905661)
(1.51833 1.03832 -0.0428357)
(1.81013 1.16724 -0.0421861)
(1.6764 0.899138 0.215212)
(2.25906 0.57212 0.361773)
(2.14048 0.765138 0.109297)
(1.90877 0.769931 -0.0856091)
(2.46579 0.834061 0.126984)
(2.47205 0.578895 -0.174115)
(2.39004 0.0578517 -0.0135751)
(2.19102 0.612606 -0.15071)
(2.74517 0.178497 0.381449)
(2.61292 0.344914 0.303951)
(2.61747 0.304671 0.184583)
(2.38367 0.85506 -0.0441439)
(2.19859 0.957014 0.146085)
(2.95197 0.199043 0.502927)
(2.91045 -0.0109402 0.403596)
(2.93104 0.084846 0.318941)
(2.8244 -0.052193 0.201177)
(2.80698 0.468333 -0.0138255)
(2.50465 0.133612 0.0935583)
(3.18529 -0.361542 0.891964)
(3.17598 -0.461205 0.683016)
(3.2344 -0.395474 0.389582)
(3.21463 -0.386875 0.466877)
(3.09681 -0.383538 0.00749302)
(2.91721 -0.315439 0.290928)
(2.75214 0.562104 -0.414677)
(3.65418 -0.0986206 1.27902)
(3.34592 -0.707935 1.15286)
(3.32397 -0.807777 0.977823)
(3.41395 -0.765487 0.553366)
(3.29207 -0.933595 0.515108)
(3.29238 -1.00441 0.463446)
(3.37937 -0.646924 0.309973)
(2.89127 0.25611 0.0583033)
(3.63622 -0.247339 1.75901)
(3.57619 -0.759148 1.67491)
(3.51653 -0.963176 1.52676)
(3.54076 -1.44864 1.33732)
(3.55554 -1.48849 1.20932)
(3.51647 -1.51515 0.934492)
(3.40633 -1.34202 0.443179)
(3.10741 -1.22865 0.697367)
(3.28646 0.24223 -0.249785)
(4.32108 -0.0674576 1.79869)
(4.24376 0.377355 1.66794)
(4.10866 -0.649612 1.75679)
(3.92302 -1.29219 1.84312)
(4.09846 -1.63113 1.7272)
(3.85922 -1.84066 1.85278)
(3.81783 -2.10414 1.76079)
(3.92716 -1.82446 0.930217)
(3.27839 -1.20361 1.01026)
(3.1765 -0.924323 -0.137468)
(4.00153 -0.367203 2.64594)
(3.84169 -0.916489 2.60726)
(4.16701 -0.936655 2.54476)
(4.10234 -1.67603 2.18934)
(4.40757 -1.7944 2.00043)
(4.08564 -1.98517 2.42729)
(3.85344 -2.13881 2.63464)
(3.05868 -3.07356 2.70027)
(2.57774 -3.40695 2.156)
(3.15076 -2.13905 0.84065)
(3.46065 -1.10365 0.351366)
(2.77671 -0.216798 2.38236)
(2.95306 -0.261942 2.27025)
(2.92003 -0.150685 2.12023)
(2.73839 -0.481843 2.20407)
(2.88727 -1.62126 1.95297)
(3.46631 -1.7668 2.23122)
(3.15553 -1.58158 2.41881)
(2.21222 -2.37209 2.61705)
(1.46539 -4.12297 2.16684)
(1.17354 -3.97099 3.43755)
(3.35318 -3.61131 0.432641)
(2.59228 -2.31394 0.814587)
(2.66083 -0.224793 0.914341)
(2.57864 -0.505132 0.786094)
(2.29207 -1.19101 1.26273)
(2.76676 -0.573607 0.849968)
(2.6214 -0.620458 0.833282)
(2.58279 -0.721642 0.741307)
(1.87399 -1.24583 0.853255)
(1.48178 -1.66632 -0.513407)
(1.19494 -1.82812 -0.255713)
(1.58709 -3.76757 -0.564007)
(0.856395 -3.96187 2.72477)
(1.54612 -4.14988 1.72585)
(2.62694 -3.4055 0.532161)
(1.787 -0.494652 0.747167)
(1.69145 -0.664174 0.802605)
(1.49351 -0.838754 0.827319)
(1.50363 -0.638837 0.729302)
(1.76101 -0.646004 0.190677)
(2.01614 -0.691538 -0.0637289)
(1.87772 -1.36258 -0.16474)
(1.85523 -1.3881 -0.755979)
(1.24948 -1.57448 -1.20642)
(1.00361 -1.46898 -0.653608)
(1.39385 -2.38239 -0.0561153)
(0.690249 -3.83719 0.921443)
(0.882882 -4.54318 2.56919)
(1.51647 -4.47954 0.518126)
(0.690559 -0.687235 0.860746)
(0.684947 -0.451423 0.89467)
(0.858126 -0.566881 0.516741)
(0.589421 -0.855671 0.523369)
(0.358771 -0.754735 0.422609)
(0.374338 -0.47611 0.138542)
(0.600926 -0.671013 -0.147086)
(0.946779 -0.646085 -0.413391)
(0.193591 -1.88868 -0.708903)
(0.660904 -1.69818 -0.840973)
(1.00665 -1.65136 -0.708457)
(1.16112 -2.20676 -0.388777)
(1.16264 -2.52234 -0.535688)
(0.562126 -3.34184 1.28605)
(0.454662 -3.81481 0.99613)
(-0.210881 -0.907565 0.357727)
(0.016791 -0.672891 0.394832)
(0.000631134 -0.828687 0.568478)
(-0.144401 -1.21341 0.51538)
(-0.20998 -1.47702 0.714162)
(-0.0278225 -1.1791 0.0750387)
(-0.0424565 -1.47828 -0.206685)
(-0.141979 -1.60573 0.0948186)
(-0.194275 -1.33527 -0.518388)
(-0.376812 -1.7901 -0.998646)
(-0.133564 -1.57537 -0.777462)
(0.387752 -1.48779 -0.492934)
(0.664721 -1.45949 -0.439745)
(0.500556 -1.73481 -0.588065)
(1.32442 -2.45317 0.419109)
(0.622036 -3.69492 0.933802)
(1.4212 0.978594 0.0490177)
(2.04199 0.456558 0.109893)
(1.5818 0.935099 -0.136276)
(2.11982 0.745357 0.0246986)
(1.90354 0.878869 -0.0442103)
(1.71625 0.810785 0.246494)
(2.37754 0.573862 0.177737)
(2.25453 0.655935 0.309861)
(2.10574 0.797597 0.0467411)
(1.97194 0.531382 0.0190131)
(2.57988 -0.0182181 0.172227)
(2.58831 0.168658 0.270929)
(2.49003 0.352582 -0.131141)
(2.40824 -0.151397 -0.0316153)
(2.19374 0.429506 -0.169896)
(2.74726 0.104044 0.474697)
(2.73285 0.0989143 0.281225)
(2.64816 0.114139 0.303217)
(2.67582 0.0952563 0.0543675)
(2.42188 0.611331 0.0211023)
(2.23995 0.867913 0.123475)
(2.96812 -0.0243833 0.539827)
(2.90111 -0.0676697 0.57986)
(2.887 -0.188231 0.443313)
(2.90673 -0.206581 0.303519)
(2.80987 -0.310078 0.284331)
(2.76561 0.263808 -0.0141359)
(2.51804 0.00254391 0.0874969)
(3.16572 -0.13989 0.940918)
(3.19649 -0.336549 0.865656)
(3.16979 -0.500091 0.66352)
(3.22072 -0.474504 0.429386)
(3.1218 -0.613375 0.506184)
(3.10515 -0.462857 0.0348546)
(2.99177 -0.303052 0.311459)
(2.77152 0.258763 -0.175611)
(3.62764 -0.202622 1.32292)
(3.57215 -0.384909 1.2891)
(3.2817 -0.80834 1.14929)
(3.24938 -1.00269 1.027)
(3.23429 -1.20796 0.600739)
(3.11633 -1.33374 0.618416)
(3.10871 -1.19259 0.341496)
(3.3267 -0.388884 0.120472)
(2.81161 -0.0885291 0.0167425)
(3.6426 -0.34097 1.77982)
(3.69629 -0.771107 1.60865)
(3.38291 -1.33727 1.67468)
(3.54954 -1.11502 1.48412)
(3.44765 -1.62025 1.20774)
(3.44747 -1.75135 1.12144)
(3.372 -1.94003 0.96938)
(3.33308 -1.5776 0.4482)
(2.97128 -1.56826 0.71612)
(3.27139 0.00604287 -0.0860872)
(4.41486 -0.0629587 1.85616)
(4.32465 0.0658162 1.77644)
(4.10315 -0.624899 1.79908)
(4.05228 -0.959708 1.83364)
(3.90131 -1.49365 1.76591)
(4.2003 -1.34366 1.7612)
(3.82264 -2.07266 1.87516)
(3.40025 -2.49905 1.89019)
(3.31483 -2.15737 0.829263)
(3.32866 -1.19107 0.861039)
(3.22404 -0.532461 0.114815)
(3.81444 -0.441967 2.71631)
(3.86678 -0.789682 2.63663)
(3.83445 -1.09187 2.60917)
(3.97803 -1.40751 2.46888)
(4.04842 -1.89745 2.13888)
(4.19889 -2.04677 2.15088)
(3.93574 -2.19363 2.44523)
(3.73088 -2.57859 2.70091)
(1.42579 -4.20777 2.45511)
(1.19748 -4.02528 2.17609)
(3.01506 -2.05116 0.882882)
(3.42941 -1.12573 0.472009)
(2.61856 -0.121773 2.48597)
(2.84969 -0.330259 2.29564)
(2.93025 -0.464776 2.24525)
(2.86731 -0.395894 2.14279)
(2.71277 -0.765872 2.25265)
(2.79086 -1.8612 1.83903)
(3.35589 -1.75892 2.29297)
(2.94337 -1.72605 2.34305)
(1.49179 -3.3554 2.30619)
(0.843328 -4.35421 1.84679)
(0.84245 -4.04385 3.40855)
(3.99826 -3.04185 -0.44701)
(2.42841 -2.04896 1.04907)
(2.79889 -0.493351 0.654879)
(2.60781 -0.433108 0.955551)
(2.3731 -0.891242 0.782072)
(2.55536 -0.581458 0.578885)
(2.79621 -0.279415 0.846231)
(2.59095 -0.653782 0.620293)
(2.49887 -0.806262 1.15407)
(1.95956 -1.36193 0.855748)
(1.59639 -1.66482 -0.474585)
(1.43853 -1.8526 -0.376384)
(1.38017 -3.72412 0.0663438)
(0.929779 -3.81045 2.58438)
(1.19029 -4.24075 1.0692)
(2.84527 -3.1604 0.438784)
(1.80694 -0.611759 0.791441)
(1.7011 -0.687632 0.722927)
(1.60513 -0.815784 0.782479)
(1.42007 -0.80262 0.862611)
(1.5313 -0.674786 0.719362)
(1.68481 -0.726676 0.139819)
(1.90773 -0.798621 -0.0909892)
(1.82246 -1.40412 -0.171528)
(1.81149 -1.45467 -0.734798)
(1.01932 -1.80331 -1.17174)
(0.870335 -1.5461 -0.567061)
(1.14509 -2.64692 -0.279008)
(0.429815 -3.87411 1.16757)
(0.726951 -4.68511 2.43474)
(1.3474 -4.64919 0.821242)
(0.805226 -0.705615 0.709364)
(0.654455 -0.742088 0.809516)
(0.670925 -0.522305 0.813593)
(0.849467 -0.587047 0.526202)
(0.552467 -0.850086 0.595331)
(0.372352 -0.658875 0.573295)
(0.35314 -0.460991 0.17381)
(0.537283 -0.691747 -0.247093)
(0.801924 -0.810049 -0.463442)
(0.100409 -1.91247 -0.665359)
(0.598473 -1.71011 -0.832382)
(1.04765 -1.55097 -0.905007)
(1.01721 -2.32516 -0.361314)
(1.13603 -2.56023 -0.401282)
(0.5181 -3.43139 1.42394)
(0.569968 -3.89339 0.984122)
(-0.594139 -0.609617 -0.443184)
(-0.230358 -0.915039 0.352694)
(0.0185184 -0.65911 0.395102)
(-0.00243966 -0.801139 0.620581)
(-0.166973 -1.21185 0.629423)
(-0.193629 -1.40985 0.75859)
(-0.00379119 -1.14214 0.0802694)
(-0.117402 -1.55026 -0.148028)
(-0.143826 -1.57133 0.202489)
(-0.264398 -1.40098 -0.387625)
(-0.334358 -1.73279 -0.9568)
(-0.12877 -1.53835 -0.721119)
(0.400519 -1.46284 -0.487468)
(0.640607 -1.47859 -0.415687)
(0.476588 -1.73113 -0.541542)
(1.18471 -2.50751 0.507167)
(0.580524 -3.72947 0.943256)
(1.36306 0.928125 -0.0245009)
(1.69169 0.986444 -0.0274659)
(1.50643 0.817904 0.0231006)
(2.02775 0.569531 0.00809617)
(2.06292 0.121423 0.179748)
(1.64195 0.837581 -0.190123)
(2.19384 0.556557 0.0771375)
(2.20277 0.48892 -0.0880519)
(1.9568 0.696111 -0.0307808)
(1.7491 0.757579 0.238076)
(2.44074 0.361923 0.196444)
(2.3904 0.49381 0.0935964)
(2.28469 0.558372 0.295565)
(2.1203 0.8008 0.00206389)
(1.91274 0.639323 0.0188808)
(2.57301 0.161653 0.347127)
(2.53378 0.203697 0.183316)
(2.52582 0.154364 0.286279)
(2.47868 0.179047 -0.0548172)
(2.40754 -0.215381 0.000875345)
(2.23796 0.218428 -0.199905)
(2.77633 0.209246 0.474194)
(2.77313 -0.0196547 0.470023)
(2.73707 -0.0562156 0.235621)
(2.66165 -0.0392161 0.307468)
(2.72371 -0.0517675 -0.00788725)
(2.55395 0.204849 0.106841)
(2.34321 0.646783 0.103881)
(2.96242 0.0279363 0.818378)
(2.89279 -0.28041 0.642598)
(2.88313 -0.210075 0.579393)
(2.89764 -0.402724 0.435854)
(2.83823 -0.442589 0.385315)
(2.79555 -0.451382 0.318777)
(2.74437 0.0931344 0.0530604)
(2.55741 -0.228726 0.139745)
(3.20819 -0.0108798 1.00499)
(3.18593 -0.314505 0.94516)
(3.21575 -0.506217 0.864224)
(3.17325 -0.550498 0.677394)
(3.09073 -0.80453 0.537111)
(3.08868 -0.759169 0.460993)
(3.05505 -0.575411 0.248965)
(2.99887 -0.255936 0.315405)
(2.78401 -0.0675045 -0.0495998)
(3.51821 -0.207549 1.48241)
(3.61734 -0.264387 1.26021)
(3.45227 -0.645096 1.27581)
(3.23849 -1.01611 1.16047)
(3.14289 -1.19836 1.05717)
(3.08167 -1.32973 0.755443)
(2.99293 -1.32813 0.626092)
(2.9801 -1.32835 0.437664)
(3.17225 -0.661914 0.0231021)
(2.79008 -0.430518 0.0886028)
(3.75571 -0.0725211 1.82358)
(3.74277 -0.62263 1.60212)
(3.67293 -0.802899 1.49281)
(3.53286 -1.15928 1.53146)
(3.47195 -1.42145 1.27272)