/*--------------------------------*- C++ -*----------------------------------*\
  =========                 |
  \\      /  F ield         | OpenFOAM: The Open Source CFD Toolbox
   \\    /   O peration     | Website:  https://openfoam.org
    \\  /    A nd           | Version:  7
     \\/     M anipulation  |
\*---------------------------------------------------------------------------*/
FoamFile
{
    version     2.0;
    format      ascii;
    class       volScalarField;
    location    "4";
    object      nut;
}
// * * * * * * * * * * * * * * * * * * * * * * * * * * * * * * * * * * * * * //

dimensions      [0 2 -1 0 0 0 0];

internalField   nonuniform List<scalar> 
18750
(
0.000267449
0.00129791
0.000590798
0.000334359
0.00174587
0.000848416
0.00109579
0.000251238
0.000550521
0.0003268
0.00235991
0.000744024
0.00251834
0.000953551
0.000752066
0.000718016
0.00021612
0.000224963
0.000576431
0.000389584
0.00223605
0.000830855
0.00245442
0.000651689
0.000864989
0.00161694
0.000953595
0.000447424
0.000618113
0.00088539
0.000295315
0.000261962
0.000283734
0.000573463
0.000446466
0.00301852
0.00177285
0.00219447
0.000987326
0.000990127
0.00254406
0.00100994
0.000781674
0.00103453
0.00155268
0.000642047
0.000846581
0.00129772
0.000677575
0.000936172
0.000103051
0.000272563
0.000288458
0.000275206
0.000567179
0.000596054
0.00248141
0.00102479
0.00256993
0.00194027
0.00188886
0.00205823
0.000467654
0.000811974
0.00117001
0.00247375
0.00093274
0.000801518
0.000719191
0.000663132
0.00219775
0.000364063
0.000644798
0.000780445
0.000575611
0.000729115
0.00111532
0.000227501
8.68608e-05
0.000214487
0.00034154
0.000273477
0.00055789
0.000556913
0.00288173
0.00143446
0.00243493
0.000691086
0.00170794
0.00247811
0.000848714
0.00127024
0.00103947
0.00212454
0.000608837
0.000446598
0.00101611
0.00120262
0.00305967
0.000703454
0.00122261
0.000861816
0.000596194
0.000814048
0.00237415
0.00043217
0.000347611
0.000651286
0.000812315
0.000714731
0.000754259
0.00106227
0.000173793
0.00021623
6.40044e-05
0.000246016
0.000386121
0.000353631
0.000507033
0.000593283
0.00225051
0.00115923
0.00280929
0.000811539
0.00121644
0.00262001
0.00105833
0.00111037
0.00152522
0.00285028
0.00103378
0.00165349
0.00151051
0.00157658
0.00211728
0.000312157
0.000582744
0.000417589
0.000953828
0.000801143
0.00322555
0.000723198
0.000766212
0.00105457
0.0007034
0.00104527
0.00137569
0.00243307
0.00053846
0.000367787
0.000379731
0.000683666
0.000869333
0.000883871
0.000750589
0.000926743
0.000310265
0.000182337
0.000216286
6.09733e-05
0.000410104
0.00041398
0.000532347
0.000440836
0.000602715
0.00243509
0.00110531
0.00249041
0.000804392
0.000924407
0.00275908
0.000655702
0.000932793
0.00141687
0.00271326
0.00114092
0.00131693
0.00143142
0.00127873
0.00307046
0.000372358
0.00123811
0.00173438
0.00156714
0.00230506
0.00236136
0.000470016
0.000570915
0.000321178
0.000483769
0.000871326
0.00192885
0.00268569
0.000588782
0.000599768
0.00067952
0.000773304
0.000694047
0.000774288
0.0014158
0.00235453
0.000426374
0.000495953
0.000405162
0.000368779
0.00060966
0.000915257
0.00106955
0.000870759
0.000869703
0.000359505
0.00033074
0.000203008
0.000219272
5.68944e-05
0.00034524
0.000476336
0.000645141
0.00039532
0.00050885
0.00209079
0.0010193
0.00240908
0.000869938
0.000814425
0.00244397
0.000291323
0.000685575
0.00112463
0.00277873
0.000496417
0.000745345
0.000832807
0.00133237
0.00274776
0.000773708
0.00160198
0.00109282
0.00163269
0.00195676
0.00301355
0.000400275
0.000855686
0.00106722
0.00171883
0.0033949
0.00276911
0.00303066
0.000599862
0.000349567
0.000510878
0.000356424
0.000592202
0.00226528
0.0017655
0.00325404
0.000447737
0.000636821
0.000538573
0.000710296
0.00115154
0.000777178
0.000433644
0.00119902
0.00222945
0.000367676
0.000358462
0.000594868
0.000349769
0.000323198
0.000576094
0.00100624
0.00123531
0.000964475
0.000849036
0.000252461
0.00033413
0.000317284
0.000224002
0.000222672
5.84945e-05
0.000244198
0.000313099
0.000690472
0.000421274
0.000484912
0.00223974
0.000746918
0.00215517
0.000692593
0.000505936
0.00232586
0.000624433
0.000726922
0.00113123
0.00242742
0.000625548
0.000713752
0.000858007
0.00139665
0.00246193
0.000827616
0.00119843
0.000812212
0.000727393
0.00142394
0.00260484
0.000555662
0.000772682
0.000846425
0.000665646
0.000984959
0.00154924
0.0030065
0.000316928
0.000832067
0.000833823
0.00130239
0.00164397
0.0039135
0.00247317
0.00307388
0.000915704
0.000543933
0.00029671
0.000811274
0.000516951
0.000577066
0.001004
0.00275763
0.0034303
0.000483263
0.000582695
0.000683604
0.000588157
0.000916587
0.000878898
0.000780671
0.000679654
0.000889224
0.00213584
0.000470963
0.000411303
0.000458368
0.000503779
0.000346535
0.000306035
0.000587103
0.000951451
0.00129294
0.000929822
0.00090602
0.00027105
0.000241782
0.000294028
0.000320914
0.000247046
0.00023424
6.54645e-05
0.000223769
0.000320594
0.000625988
0.000401877
0.000464217
0.0022988
0.000706074
0.00229427
0.000438836
0.000785708
0.00231009
0.000408843
0.000489664
0.00027196
0.00240834
0.000666675
0.000463948
0.000755389
0.000946553
0.00250357
0.000615386
0.00135333
0.000898802
0.000771937
0.00117774
0.00247473
0.000701782
0.000648255
0.00044707
0.000706533
0.000858075
0.00180257
0.00244621
0.00053004
0.000562231
0.00149461
0.000780339
0.00149041
0.00129148
0.00137064
0.00353392
0.000589076
0.000669227
0.000689302
0.000639679
0.00136458
0.000826852
0.00125638
0.00281164
0.00298316
0.000528659
0.000529062
0.000643487
0.000574369
0.000859879
0.000683696
0.000843541
0.000609129
0.00313033
0.00314546
0.000299355
0.000465029
0.000508131
0.00035538
0.000594622
0.000756982
0.000710458
0.000697867
0.000976129
0.000999483
0.00224293
0.000346945
0.000422526
0.000398289
0.000399559
0.000433028
0.000347843
0.00034372
0.000518761
0.000749319
0.00115569
0.000908
0.00101236
0.000338935
0.000261159
0.000253058
0.000263794
0.000355603
0.000273112
0.00024395
6.29275e-05
0.000161591
0.000310435
0.000466045
0.000268507
0.000435498
0.00213082
0.000529359
0.00237798
0.00051947
0.000713296
0.00246859
0.000619498
0.000697264
0.00080944
0.00225091
0.000577849
0.000557695
0.000640618
0.000689165
0.00229093
0.000730014
0.000458801
0.000573023
0.000753786
0.000710041
0.00245445
0.00077548
0.000767885
0.00047103
0.00067002
0.000880278
0.00118241
0.00255472
0.000909525
0.000486472
0.000880555
0.000834225
0.000961833
0.00103637
0.00154736
0.00265876
0.000740177
0.000552041
0.00127421
0.000783973
0.000853046
0.00101836
0.00138217
0.00233242
0.00366037
0.000866198
0.000771135
0.000752419
0.000337027
0.000999229
0.00122182
0.00127206
0.00113717
0.00427157
0.00407686
0.000635972
0.00033458
0.000659849
0.000480852
0.000362644
0.000436809
0.00102579
0.000723476
0.00256546
0.00236968
0.00341993
0.000428025
0.000489786
0.000379618
0.000240612
0.000468763
0.000466962
0.000666472
0.00107499
0.000619971
0.000691659
0.000761701
0.00232296
0.000615057
0.000400314
0.000445321
0.000655607
0.000432664
0.000418461
0.000340201
0.000198962
0.000384575
0.000615834
0.000933331
0.000904872
0.000941234
0.000377359
0.000321527
0.000242462
0.000256859
0.000272849
0.00037298
0.000304183
0.000261115
7.57317e-05
0.000144434
0.000248735
0.000370641
0.000247979
0.000414307
0.00237326
0.000505774
0.0019879
0.000456284
0.000480263
0.00228038
0.000690031
0.000608863
0.000667926
0.00246983
0.000529613
0.0004637
0.000602354
0.000832862
0.00235276
0.00061156
0.000617947
0.00058721
0.000817435
0.00073102
0.00227815
0.000802218
0.000617474
0.000806747
0.000558057
0.000691499
0.000758033
0.00244339
0.00113394
0.000698316
0.00095349
0.000312957
0.000665654
0.000749005
0.00110531
0.00227883
0.000571479
0.000373919
0.000730194
0.000805773
0.000688227
0.00109862
0.00102256
0.0019564
0.0026152
0.000619901
0.000422108
0.00100127
0.000988394
0.00129026
0.000862924
0.00106102
0.00200205
0.00138838
0.00242612
0.000518647
0.000681206
0.000963948
0.000688247
0.00057104
0.00127348
0.00176157
0.0012094
0.000977553
0.00309528
0.00435268
0.000363885
0.000650312
0.000173095
0.000578916
0.000257808
0.000466052
0.00133275
0.000415112
0.00080111
0.00104966
0.00240226
0.00339619
0.00108468
0.000499245
0.000358381
0.0004636
0.000246145
0.000419752
0.000579875
0.00066522
0.00146083
0.000846627
0.00127646
0.000747015
0.00205721
0.000418708
0.000475938
0.000427673
0.000446158
0.000641629
0.000516291
0.000425434
0.000288424
0.000304185
0.000311966
0.000501354
0.000655673
0.000849282
0.000860038
0.000532261
0.00036371
0.000327637
0.000230345
0.000249002
0.000284207
0.000373359
0.0003222
0.000284514
8.81395e-05
0.000145101
0.000201809
0.00028718
0.000203072
0.00040668
0.00225454
0.000625003
0.00231067
0.000464676
0.000411446
0.00210557
0.000620706
0.000522059
0.000435203
0.00229736
0.000542973
0.000438168
0.00046625
0.000702922
0.00249716
0.000396572
0.000557772
0.000567999
0.00057856
0.000717648
0.00243902
0.00078485
0.000808372
0.000596434
0.000525388
0.000571909
0.000767843
0.0022918
0.000791253
0.000599759
0.000510134
0.000469623
0.000533359
0.000818753
0.000974223
0.00259446
0.000605881
0.000406996
0.00074526
0.000767373
0.000861869
0.000722643
0.000837675
0.000720052
0.00258289
0.000584833
0.000313693
0.000596151
0.00102656
0.000575483
0.000985896
0.000609669
0.000669356
0.00208413
0.00240018
0.00253864
0.00104996
0.000625421
0.000676522
0.000888601
0.00158179
0.000839501
0.00135253
0.00229578
0.0016303
0.00239952
0.000973034
0.000438815
0.000574538
0.00066864
0.000462361
0.000905553
0.00136258
0.00076658
0.00102838
0.00287892
0.00273531
0.00313801
0.00026021
0.000417935
0.000235193
0.000400718
0.000368612
0.000256181
0.000396398
0.000576786
0.000858334
0.000694826
0.00139234
0.00210162
0.00315546
0.000487128
0.000724353
0.000565151
0.000344235
0.000350947
0.000253688
0.000404937
0.000575173
0.0007512
0.00111351
0.00086631
0.000874421
0.000919299
0.00189908
0.000457895
0.000465621
0.000499602
0.000453054
0.000472755
0.000571661
0.000445636
0.000444092
0.000272303
0.000184825
0.000281316
0.000405136
0.000600177
0.000814862
0.000793924
0.000348299
0.000488305
0.000342732
0.000330811
0.000212302
0.000261415
0.000291332
0.00038501
0.000324394
0.00029095
0.000101628
0.000137215
0.000155867
0.000250558
0.000145743
0.000391248
0.00226354
0.000626205
0.00242337
0.000433941
0.000629097
0.00243692
0.000330752
0.000526874
0.000503932
0.00215817
0.000446178
0.000591824
0.000351901
0.000612467
0.00230519
0.000454901
0.000475209
0.000409959
0.000391433
0.00064286
0.00247869
0.000585989
0.00051925
0.000618066
0.000626303
0.00053926
0.000920892
0.0024454
0.000495543
0.00063902
0.000766474
0.000460998
0.000445203
0.000619676
0.000343044
0.00232409
0.000358721
0.000804025
0.000734906
0.000668568
0.000543076
0.000533533
0.000591564
0.000916157
0.00238006
0.0005203
0.000519136
0.000925189
0.000653923
0.000767544
0.000395876
0.000614404
0.000902593
0.000837937
0.00250468
0.000563226
0.000327565
0.000429511
0.000855085
0.000680382
0.00132573
0.000853079
0.00062126
0.000864057
0.00166482
0.00273744
0.000725489
0.000470652
0.000666615
0.000689248
0.000857554
0.00132965
0.00073209
0.0017246
0.0011319
0.00225691
0.0012502
0.00227661
0.00046351
0.000360607
0.00098688
0.00076996
0.000636979
0.000684722
0.000991809
0.000625804
0.00151816
0.00164026
0.000764541
0.00275616
0.0027519
0.000335481
0.000389011
0.000278042
0.000164313
0.000270818
0.000550758
0.000250577
0.000420971
0.000345093
0.00136889
0.00125538
0.00160837
0.00225272
0.00279751
0.000487169
0.000445924
0.000324133
0.000518755
0.000448524
0.000355607
0.000682429
0.000629616
0.000699495
0.000764132
0.000729705
0.000909352
0.000845185
0.000934744
0.00187571
0.000463471
0.000371303
0.000418965
0.000562521
0.000425535
0.000491927
0.000583269
0.000490887
0.000466697
0.000241664
0.000125072
0.000205036
0.000302629
0.000656466
0.000747428
0.000716783
0.000159969
0.000305805
0.000429279
0.000332052
0.000321177
0.000198361
0.000268047
0.000310287
0.000380671
0.000330533
0.000287702
0.000130266
0.00014185
0.000122237
0.000305823
0.000232198
0.000360075
0.00235216
0.00043387
0.00233697
0.00033428
0.000466059
0.0023068
0.000263375
0.000152802
0.000388345
0.0023794
0.000222238
0.000435228
0.000494697
0.000442693
0.00213026
0.000372192
0.000472273
0.000412343
0.000349207
0.000644133
0.00229835
0.000644574
0.000316964
0.000769111
0.000652594
0.000685932
0.000649507
0.00249395
0.000460666
0.000573308
0.000742818
0.000283485
0.000503189
0.000640038
0.00100776
0.00258525
0.000524731
0.000608622
0.000594706
0.000514921
0.000452777
0.000486438
0.000662065
0.000878674
0.00224282
0.00046258
0.000520324
0.000664063
0.000532041
0.000794427
0.000421839
0.000464388
0.000729882
0.000708976
0.00222937
0.000682964
0.000675166
0.000547673
0.000868614
0.000822641
0.000699252
0.000640336
0.000490909
0.000841813
0.000881739
0.0022019
0.000512638
0.000532707
0.000342854
0.000588984
0.000838288
0.000473497
0.00116004
0.000834215
0.000776925
0.00100676
0.00192911
0.00287251
0.000115072
0.000398532
0.000755497
0.000376185
0.000584601
0.00110007
0.00101362
0.00146295
0.00147578
0.00119709
0.002022
0.00159542
0.00270354
0.000693115
0.000371674
0.00027406
0.000346579
0.000664165
0.000417238
0.00067072
0.000944232
0.000377169
0.00162104
0.00140258
0.00116089
0.00207186
0.00215661
0.00046597
0.000292779
0.000220084
0.000207079
0.00038884
0.000326554
0.000544707
0.000376544
0.000628275
0.000611705
0.000679165
0.000574516
0.000577478
0.00183125
0.0030944
0.000392399
0.000496051
0.000392185
0.000956321
0.0004322
0.000416607
0.000437068
0.000583706
0.000543778
0.000682729
0.000661868
0.00100003
0.00105584
0.000896934
0.000821887
0.00181316
0.00050383
0.000278628
0.000678729
0.000383679
0.000514971
0.00041289
0.000419393
0.000583219
0.000471263
0.000344931
0.000223343
0.000121558
0.000145513
0.00019555
0.000452709
0.000634907
0.000654454
0.000151469
0.000161226
0.000310414
0.000413183
0.000309508
0.000309263
0.000199404
0.000315067
0.000295173
0.000350673
0.000315011
0.000287613
0.000144215
0.00014666
0.000107297
0.000302271
0.00034893
0.00033142
0.00221465
0.000554886
0.00230096
0.000277154
0.000404307
0.00232342
0.000251068
0.000274616
0.000344991
0.0023522
0.000287796
0.000302199
0.000428684
0.000340295
0.00234475
0.000364759
0.000313936
0.000468046
0.00042982
0.000441523
0.00225423
0.000508685
0.000304536
0.00049085
0.000784165
0.000663583
0.000786366
0.00219151
0.000346154
0.000561614
0.000520954
0.000477986
0.0003476
0.000435518
0.000602086
0.0025254
0.000354733
0.000736558
0.000504374
0.000633117
0.000458191
0.000447609
0.000572024
0.000742514
0.00252186
0.000567774
0.000461048
0.000896948
0.000575671
0.000640584
0.000331934
0.000534037
0.000628155
0.000948711
0.00238399
0.000353712
0.000428333
0.000628838
0.000682032
0.00065711
0.000407692
0.000476155
0.000350362
0.000767938
0.000817025
0.00246628
0.000563673
0.00061994
0.000514833
0.000903743
0.000717528
0.000633127
0.000814514
0.000745545
0.000581364
0.00073863
0.00113571
0.00238097
0.000280696
0.000411283
0.000600477
0.000628017
0.000972057
0.000591772
0.00100476
0.000563174
0.000939509
0.000800239
0.00108282
0.00108958
0.00323032
0.000462855
0.000274324
0.00057891
0.000974754
0.000856415
0.000551272
0.000719336
0.00100162
0.00130017
0.00205802
0.00180487
0.001548
0.00285477
0.00298499
0.00060306
0.000305685
0.000328928
0.000295404
0.00098173
0.000626572
0.000957927
0.000958832
0.000727363
0.000761596
0.000430396
0.000831034
0.00137541
0.00184611
0.00228615
0.000362898
0.000206396
0.000212691
0.000388886
0.000163072
0.000346006
0.000492076
0.000432816
0.000500931
0.000834097
0.000623365
0.00105127
0.000733771
0.00118269
0.00182733
0.00320275
0.000642783
0.000469139
0.000491084
0.000526836
0.000408163
0.000550832
0.000507663
0.000445503
0.000486058
0.000408961
0.000491054
0.000532634
0.000518604
0.000852643
0.00112808
0.000867056
0.00185331
0.000254728
0.00038427
0.000345314
0.000413036
0.000524651
0.000447401
0.000392183
0.000434798
0.000591717
0.000497488
0.000347195
0.000219747
8.38058e-05
0.000156739
0.000256056
0.000277416
0.000699686
0.000501301
8.78225e-05
0.000141745
0.000181158
0.000302698
0.000384034
0.00032616
0.000311616
0.000197639
0.000302584
0.000313927
0.000324232
0.000322711
0.000285766
0.000201221
0.000164927
0.000106105
0.00028801
0.000223148
0.000357723
0.00215166
0.000363455
0.00218257
0.000485652
0.000465412
0.00232785
0.000401452
0.000326256
0.000426651
0.00232775
0.00037093
0.000442347
0.000275007
0.000529031
0.00242115
0.000366185
0.00027091
0.000286429
0.000322236
0.000566123
0.00239072
0.000212336
0.000253333
0.000565419
0.000305564
0.000320383
0.000262183
0.00231759
0.00017437
0.000652121
0.000404062
0.000710855
0.000698979
0.000550534
0.000633067
0.00214264
0.000325574
0.000624551
0.000303715
0.000771002
0.000234441
0.000344618
0.000407788
0.000426449
0.00251319
0.000681322
0.000404822
0.000467997
0.000534409
0.000452317
0.000420524
0.000479067
0.000394946
0.00075199
0.00257353
0.000403586
0.000519768
0.000564849
0.000881141
0.00058253
0.000420435
0.000410111
0.000395887
0.000589482
0.00063627
0.00227776
0.000309878
0.000483921
0.000589775
0.000677183
0.000648953
0.000510692
0.000507605
0.000567031
0.000425025
0.000673815
0.00110146
0.00234867
0.000389501
0.000649084
0.000409419
0.000539989
0.000830067
0.000467595
0.000683096
0.000596122
0.000816509
0.000638008
0.000571332
0.00083634
0.00239598
0.000325494
0.000482835
0.000591523
0.00128822
0.000873135
0.000575385
0.00109557
0.000885461
0.00105449
0.00094021
0.00057777
0.00107006
0.00108015
0.00326667
0.000666851
0.000242082
0.000627412
0.000533051
0.000132669
0.00102233
0.00112194
0.000758035
0.00140293
0.00112867
0.000946506
0.00192489
0.00125476
0.00157431
0.00350714
0.000527367
0.0002809
0.00021995
0.000410932
0.000506943
0.000519065
0.000933731
0.000287029
0.00079235
0.000558116
0.000252458
0.00104869
0.00173894
0.00149655
0.00224117
0.00270382
0.000392324
0.000427317
0.000213064
0.000226702
0.000471588
0.000125137
0.000668437
0.000325409
0.00054469
0.000412109
0.00070806
0.000812074
0.000918507
0.000831849
0.00308892
0.00167293
0.00365159
0.000484817
0.000505189
0.00044048
0.000459595
0.000568505
0.000201721
0.000520007
0.000648335
0.00080856
0.000492336
0.000527144
0.000503784
0.000485866
0.000682252
0.000715163
0.00067764
0.000879166
0.00173923
0.000448836
0.000229974
0.000351612
0.000365154
0.000689056
0.000569893
0.000496071
0.000427492
0.00040622
0.000605844
0.000527606
0.000437344
0.00017588
4.85228e-05
0.000133636
0.000315328
0.000177346
0.000690666
0.000625336
0.000324481
0.000247286
9.04852e-05
0.000202161
0.000270408
0.000347573
0.000280692
0.00028042
0.000192453
0.000273333
0.000306665
0.000331454
0.000321716
0.000285708
0.00019845
0.000201047
0.000121227
0.000294011
0.000170815
0.000431354
0.00211264
0.000561946
0.00216441
0.000577078
0.000336047
0.00211637
0.000497027
0.000346735
0.000464788
0.00228999
0.000541777
0.000324206
0.000197551
0.000346609
0.00226934
0.000273037
0.000349019
0.000339813
0.000283838
0.0003104
0.00251821
0.000275764
0.000205103
0.000305012
0.000434607
0.00048406
0.000876672
0.00238971
0.000342386
0.000533505
0.000256036
0.000505801
0.000648389
0.000731117
0.000742955
0.0024233
0.00052387
0.000509478
0.000334121
0.000628787
0.000330251
9.95471e-05
0.000429732
0.000485182
0.00233258
0.000509667
0.000290192
0.000485109
0.000443475
0.000365183
0.000330447
0.000480462
0.000374537
0.000732745
0.00243341
0.000287455
0.00036652
0.000603662
0.000634463
0.000442783
0.000379728
0.000378729
0.000426779
0.000688513
0.000879821
0.00278687
0.000558918
0.000589274
0.00066706
0.00087262
0.000429589
0.000465473
0.000452186
0.000323463
0.000522393
0.000506642
0.000664376
0.00235078
0.000355119
0.000463896
0.000629313
0.000775076
0.000672199
0.000512648
0.000592671
0.000665573
0.000678933
0.000579992
0.000551576
0.000680172
0.00234308
0.000623238
0.000539899
0.000521101
0.000475714
0.000925841
0.000627045
0.000718983
0.000703629
0.000439648
0.000707784
0.000595405
0.000532393
0.000545009
0.00230343
0.000293828
0.00035394
0.000756539
0.000880214
0.000359615
0.000790318
0.000433062
0.000606315
0.000840728
0.00116353
0.000985763
0.00079742
0.000955667
0.00136705
0.00266487
0.000491333
0.000266424
0.000307098
0.000650541
0.00068188
0.00109505
0.000432228
0.000344604
0.00127772
0.00166246
0.000916567
0.00143123
0.0026255
0.000853096
0.000962345
0.00313935
0.000666894
0.000444596
0.000294051
0.000257688
0.000579556
0.00064209
0.000629733
0.000456085
0.000506805
0.00064763
0.000830446
0.000571588
0.000527729
0.000617674
0.00147233
0.00207398
0.00361032
0.000548608
0.000402245
0.000316261
0.000181248
0.000271321
0.000268563
0.000577858
0.000313695
0.000406434
0.000762464
0.000311913
0.000757845
0.000744948
0.00092708
0.00107656
0.00101816
0.000949293
0.00359954
0.000471003
0.000528003
0.000504839
0.000821301
0.00049049
0.0004286
0.000761229
0.000549287
0.000714904
0.000707361
0.000557256
0.000538542
0.000315358
0.000468433
0.000554259
0.000690114
0.00080092
0.000969864
0.00191712
0.000360701
0.000502404
0.000518241
0.000257619
0.000333293
0.000533551
0.000505823
0.000365664
0.00034326
0.000512065
0.000660264
0.000509931
0.000363081
0.000179613
0.000106009
0.000218739
0.000354103
0.000199562
0.000475989
0.000607521
0.000193875
0.000310453
0.000115423
0.000117311
0.000201785
0.000274104
0.000349265
0.00025475
0.000260884
0.00020137
0.000248669
0.000269669
0.000307748
0.0003285
0.000277275
0.00014781
0.000168955
0.000112506
0.000295748
0.000323467
0.00047081
0.00218485
0.000401696
0.00211045
0.000398319
0.000529532
0.00211193
0.000321622
0.000575986
0.0002621
0.00213825
0.000175372
0.000458096
0.000360967
0.000546864
0.00229505
0.000685425
0.00057267
0.000598113
0.000547854
0.000452377
0.00226677
0.000107756
0.000395377
0.000556757
0.000354798
0.000385057
0.000475915
0.00259499
0.000419117
0.000431696
0.000257858
0.000528884
0.000333628
0.000320617
0.000632802
0.0023224
0.000508846
0.000203391
0.000551836
0.000550014
0.000335811
0.000410658
0.0007187
0.000792256
0.00238243
0.000477926
0.000285399
0.000667733
0.000371674
0.00057817
0.000407789
0.00056091
0.000696504
0.000620604
0.00227585
0.000367349
0.000466259
0.000465576
0.000390113
0.000486864
0.000287873
0.000224267
0.000425315
0.000625485
0.00070972
0.00241315
0.000426698
0.000632382
0.000489322
0.000541954
0.000660825
0.000441645
0.000295076
0.000388018
0.000309954
0.000460458
0.000797575
0.00255124
0.000463464
0.000550996
0.000688434
0.000627442
0.000557729
0.000617478
0.000426017
0.000460952
0.000503398
0.000592608
0.000539786
0.000831793
0.00247631
0.000329855
0.000512668
0.000367845
0.000969058
0.000902934
0.000858446
0.000541587
0.000674251
0.000594734
0.0003848
0.000609648
0.000669459
0.000560814
0.0024049
0.000625199
0.000570501
0.000648062
0.000732473
0.00112066
0.000930399
0.000653867
0.000897655
0.000755044
0.000826558
0.000659006
0.000580634
0.000519573
0.000523704
0.00232081
0.000412302
0.000287571
0.000638249
0.000476299
0.000432701
0.000566724
0.000460523
0.00093347
0.000566924
0.00104521
0.000566612
0.000855375
0.000872149
0.000742232
0.000864952
0.002842
0.000495797
0.000727741
0.000459134
0.000676375
0.000267479
0.000645613
0.000227314
0.000725957
0.000443544
0.000946753
0.000812247
0.00123929
0.00174589
0.00149089
0.000899432
0.00168278
0.0027424
0.000628876
0.000518442
0.000377965
0.000257447
0.000497632
0.000678478
0.000210292
0.000430952
0.000459208
0.00120457
0.000756362
0.00069427
0.000327135
0.000607439
0.00101354
0.00301392
0.00151725
0.00360072
0.000474445
0.000544453
0.000464589
0.000278858
0.000291333
0.000289403
0.000455449
0.000373067
0.00043272
0.000368153
0.000403599
0.000518795
0.000894542
0.000597014
0.000867923
0.000478709
0.00328274
0.0014522
0.00328529
0.000590107
0.000259018
0.000591812
0.000498168
0.000432824
0.000550127
0.00110737
0.000575776
0.000461558
0.000782194
0.000807568
0.000597785
0.000424991
0.000324758
0.000415349
0.000421058
0.000692601
0.000487421
0.000940247
0.00134019
0.000396596
0.000433787
0.00026807
0.000184314
0.000259174
0.000352661
0.000618469
0.000405531
0.000442197
0.000457677
0.000414958
0.000766321
0.000505648
0.000375041
0.000164375
6.14835e-05
0.000318347
0.000263199
0.000233931
0.000336475
0.000510475
0.000228546
0.000208334
0.000299428
0.000173752
0.000128815
0.000208161
0.000241456
0.000368661
0.000306411
0.000251605
0.000200611
0.000247219
0.00026575
0.000277374
0.000326064
0.000271329
0.000143525
0.00020246
0.000126611
0.000296666
0.000308213
0.000472149
0.00223564
0.000413796
0.00225017
0.000324758
0.000422011
0.00216175
0.000336567
0.000423648
0.00036194
0.00215955
0.000299369
0.000362839
0.00052329
0.000307117
0.00205616
0.000782318
0.000586306
0.000505197
0.000375682
0.000486239
0.00221148
0.000460515
0.000274874
0.000297252
0.000421182
0.000422966
0.000507893
0.00220475
0.000294432
0.000710803
0.000550701
0.0002841
0.000420913
0.00046945
0.000696744
0.00256167
0.000351259
0.000321145
0.000277593
0.00033053
0.000352305
0.000599429
0.000402371
0.000682673
0.00246216
0.000234664
0.000405271
0.000249682
0.00016317
0.000429051
0.000528704
0.000271394
0.000558634
0.000541248
0.00231263
0.000411133
0.000481987
0.000353817
0.000183479
0.000349692
0.000237332
0.000309425
0.000511473
0.000584485
0.000725169
0.00221056
0.000448263
0.000344391
0.000563197
0.000523589
0.000425351
0.000358109
0.000418668
0.000454525
0.000337778
0.000354387
0.00031405
0.002399
0.000228933
0.000673727
0.00055917
0.000654531
0.000592887
0.000696238
0.000325871
0.000430863
0.000260754
0.000310911
0.000761187
0.000627448
0.00249677
0.000571486
0.000458744
0.000622071
0.000690518
0.000640135
0.000427166
0.000394281
0.000615048
0.000418128
0.000570369
0.000688334
0.000399647
0.000382236
0.00264004
0.00043724
0.000750782
0.00064158
0.000858783
0.00100662
0.000686615
0.000633091
0.000852679
0.000629818
0.000450441
0.000530529
0.0004847
0.00095853
0.00130863
0.00248042
0.000851485
0.000510516
0.000527118
0.000812715
0.000600054
0.00125757
0.000718525
0.000993178
0.000864475
0.000775936
0.000649958
0.000499355
0.000661012
0.000530949
0.000696077
0.00242439
0.000342921
0.000712188
0.000289976
0.000648028
0.000255413
0.00026284
0.0009172
0.000897854
0.000774716
0.000724332
0.000933489
0.000811932
0.000919026
0.00171915
0.000779661
0.000775015
0.00276924
0.000610918
0.000361702
0.000363785
0.000460013
0.000557492
0.000361044
0.000261298
0.000928981
0.0005206
0.00108286
0.00100695
0.000850233
0.00143274
0.0016554
0.00116476
0.00110931
0.0012913
0.00272728
0.000609785
0.000978777
0.000531024
0.000454334
0.00016759
0.000456302
0.000300343
0.000315709
0.00052326
0.000447602
0.000427488
0.000692663
0.000700916
0.000683939
0.000579435
0.00107928
0.00139824
0.00117647
0.00312106
0.000403785
0.000835201
0.000557079
0.000431788
0.000700292
0.000337439
0.000456281
0.000540679
0.000268222
0.000377158
0.000870448
0.000711907
0.000603654
0.000842238
0.000661105
0.00109653
0.00100895
0.000768122
0.00136641
0.00294807
0.000347391
0.000292156
0.000494311
0.000576671
0.000522928
0.000799076
0.000639433
0.000740122
0.000411241
0.000735833
0.000720694
0.000786727
0.000542198
0.000474408
0.000434032
0.000337181
0.000535968
0.000721285
0.000622561
0.000955621
0.00127525
0.000252921
0.000322275
0.000291339
0.000810406
0.00024422
0.000276323
0.000281271
0.00139577
0.000763968
0.000395888
0.000578438
0.00040924
0.000613442
0.000495187
0.000327578
0.000171787
6.52071e-05
0.000128326
0.000280916
0.000271589
0.000208426
0.000497541
0.000529503
0.000253199
0.000211846
0.000178197
0.000286901
6.56711e-05
0.000128151
0.000215116
0.000241831
0.000373052
0.00027223
0.000225678
0.00019313
0.000269796
0.000316282
0.000260604
0.000324655
0.000264522
0.000141389
0.000262291
0.000143121
0.000292587
0.000230901
0.000504499
0.00208065
0.000599755
0.0022518
0.000431263
0.000412446
0.00222908
0.000401113
0.000434104
0.000374465
0.00213911
0.000265154
0.000472817
0.000377431
0.000403038
0.00215855
0.00015707
0.000233824
0.000282899
0.000503744
0.000314937
0.00205187
0.000474337
0.000497175
0.000408529
0.000595863
0.000517157
0.00040404
0.00220985
0.000448577
0.000386943
0.000446752
0.000573504
0.000381406
0.000413107
0.000457487
0.00216411
8.53715e-05
0.000293383
0.000592025
0.000499129
0.000449328
0.000276368
0.000385077
0.000690791
0.00231975
0.000497733
0.000389375
0.000263015
0.000385659
0.000523663
0.000313496
0.000453492
0.000302872
0.000465776
0.00257066
0.000359103
0.000469795
0.000308667
0.000395934
0.000350369
0.000270935
0.000327875
0.000448902
0.000436207
0.000561469
0.00233743
0.000339242
0.000426984
0.000427248
0.000423199
0.000343315
0.000427004
0.000259932
0.000318604
0.000197367
0.000581943
0.000511528
0.00231375
0.000372921
0.000469405
0.000547735
0.000517786
0.000399058
0.000575525
0.000139741
0.000466706
0.000382449
0.000647436
0.000446459
0.000529691
0.00230643
0.000606194
0.000385588
0.000709353
0.000498479
0.000615489
0.00041894
0.000197423
0.000563395
0.000261484
0.000710791
0.000414319
0.000494859
0.000664318
0.00267169
0.000450915
0.000329874
0.000602857
0.00063927
0.000698375
0.00085321
0.000679633
0.000646131
0.000376469
0.000479953
0.000287789
0.000356473
0.000284582
0.00106527
0.00243996
0.000741092
0.000560944
0.000541446
0.000414679
0.0012174
0.000787945
0.00051026
0.000643109
0.00078332
0.000583305
0.000675373
0.000535309
0.000485964
0.000510403
0.000576476
0.00265638
0.000616359
0.000536928
0.000572741
0.00060985
0.000667783
0.00103006
0.000862409
0.000506246
0.000790523
0.000692456
0.000964674
0.000550006
0.000825627
0.000539601
0.000776969
0.00061498
0.00248558
0.000509201
0.000794067
0.000560317
0.00057088
0.000499654
0.000863871
0.000718242
0.000961498
0.000839759
0.0010849
0.000514479
0.00054767
0.00105726
0.000975982
0.000835626
0.000928345
0.000889596
0.00288276
0.000676569
0.000535277
0.000448389
0.000251649
0.000307816
0.000319558
0.000355585
0.0004333
0.000656381
0.000701993
0.000893369
0.000971245
0.000963557
0.00155496
0.00113469
0.00121375
0.000946731
0.000616914
0.00292105
0.000689875
0.000752467
0.000532412
0.000397753
0.000216325
0.000296641
0.000244291
0.000351655
0.000322511
0.000994511
0.000565376
0.000518327
0.000447729
0.000379585