/*--------------------------------*- C++ -*----------------------------------*\
  =========                 |
  \\      /  F ield         | OpenFOAM: The Open Source CFD Toolbox
   \\    /   O peration     | Website:  https://openfoam.org
    \\  /    A nd           | Version:  7
     \\/     M anipulation  |
\*---------------------------------------------------------------------------*/
FoamFile
{
    version     2.0;
    format      ascii;
    class       volScalarField;
    location    "4";
    object      p;
}
// * * * * * * * * * * * * * * * * * * * * * * * * * * * * * * * * * * * * * //

dimensions      [0 2 -2 0 0 0 0];

internalField   nonuniform List<scalar> 
18750
(
-78.8628
-75.2611
-80.4074
-78.9518
-72.334
-79.0047
-75.786
-81.6237
-80.4326
-79.0609
-68.5383
-75.7659
-72.5799
-80.6684
-79.4669
-76.3851
-81.344
-81.703
-80.5208
-79.1585
-65.5284
-71.9815
-68.5377
-76.8974
-76.2505
-73.5373
-79.4727
-80.995
-79.9174
-76.796
-80.9382
-81.3462
-81.7311
-80.5861
-79.2297
-63.1446
-67.7039
-66.0696
-73.2108
-72.5737
-68.6398
-77.2258
-77.8561
-76.7476
-74.5691
-79.3995
-79.6528
-81.3066
-80.4132
-77.2831
-81.0256
-80.9132
-81.3546
-81.752
-80.6431
-79.2964
-61.2645
-64.1557
-63.1555
-67.7753
-68.3621
-66.6693
-74.18
-74.0188
-73.1188
-68.9214
-77.1265
-77.8873
-79.0701
-77.3699
-74.953
-79.9996
-79.4749
-79.8558
-81.7538
-80.9035
-77.8246
-81.1378
-81.0216
-80.896
-81.372
-81.7761
-80.7024
-79.3424
-58.4337
-60.3785
-61.2133
-63.2023
-64.13
-63.2053
-69.1378
-68.5497
-68.5177
-66.6912
-74.7274
-75.1947
-74.8757
-73.9182
-69.3578
-77.5908
-77.5118
-78.5951
-80.1456
-78.2588
-75.5241
-80.1578
-80.0353
-79.6075
-80.1292
-82.2093
-81.3943
-78.4505
-80.7807
-81.1215
-81.0159
-80.882
-81.4049
-81.8065
-80.7647
-79.4166
-58.0272
-58.6834
-58.4665
-61.2603
-59.9864
-60.9004
-63.6729
-63.0823
-64.1765
-63.2568
-68.6912
-69.553
-69.1391
-68.625
-67.1949
-74.5621
-75.7926
-76.0369
-76.0202
-74.2777
-70.1029
-77.6699
-77.7276
-78.4113
-79.5445
-81.2477
-79.4107
-76.2914
-80.0913
-80.1588
-80.1041
-79.7692
-80.41
-82.594
-81.8257
-79.1396
-81.019
-80.771
-81.1056
-81.008
-80.9077
-81.4467
-81.8436
-80.8225
-79.5414
-56.3695
-57.662
-57.9945
-58.7807
-58.5413
-58.5095
-61.2194
-61.1708
-59.6072
-60.7284
-63.8847
-62.8607
-62.9395
-63.9763
-63.5455
-68.9562
-69.4103
-70.5799
-70.4284
-69.0883
-67.9732
-73.8488
-74.8601
-76.4007
-76.779
-76.4274
-75.4935
-69.9553
-77.7356
-77.8194
-77.9573
-78.7
-80.304
-82.5916
-80.5583
-76.8478
-80.3427
-80.0393
-80.2016
-80.2031
-79.905
-80.6756
-82.8813
-82.1175
-79.8018
-81.1108
-80.9801
-80.7635
-81.0909
-81.0018
-80.9676
-81.4931
-81.8938
-80.8477
-79.6731
-55.5691
-56.552
-56.4337
-57.5372
-57.6542
-57.8232
-58.798
-58.6668
-58.3913
-58.5013
-61.304
-60.9067
-61.0438
-59.327
-60.5083
-64.274
-63.4083
-63.0108
-63.0114
-63.6886
-63.4069
-68.9523
-69.0077
-69.9048
-70.9505
-70.7859
-69.7284
-68.9792
-73.4612
-73.9823
-75.3038
-77.1091
-77.5567
-77.4082
-76.786
-69.674
-77.9509
-77.586
-77.9111
-78.084
-78.686
-81.0035
-83.5052
-81.896
-77.0642
-80.6546
-80.255
-80.0268
-80.255
-80.2979
-80.0259
-80.9209
-83.0859
-82.3819
-80.3891
-81.0981
-81.0843
-80.9414
-80.7594
-81.0777
-80.9996
-81.0167
-81.5493
-81.9513
-80.8604
-79.7935
-54.9621
-55.5237
-55.584
-56.625
-56.5717
-56.4527
-57.5936
-57.5845
-57.3853
-57.6331
-59.1524
-58.8172
-58.6922
-58.3732
-58.4906
-61.4492
-60.7619
-60.8295
-60.7734
-58.5253
-60.2397
-64.4404
-64.2372
-63.9912
-62.9629
-62.3781
-63.6252
-62.8387
-68.815
-69.0416
-69.5953
-70.0391
-71.305
-70.3967
-70.4877
-70.7998
-73.9021
-73.4524
-74.1973
-75.5817
-77.8102
-77.8648
-79.0743
-77.4334
-69.7366
-77.9677
-77.7468
-77.4561
-77.9987
-78.2768
-79.2242
-81.7717
-84.2709
-83.1645
-77.3279
-80.7529
-80.6503
-80.1934
-80.0341
-80.3188
-80.4112
-80.1571
-81.1295
-83.22
-82.6154
-80.9197
-80.9896
-81.0695
-81.0573
-80.9144
-80.7579
-81.0657
-80.9991
-81.0526
-81.6043
-82.0216
-80.8996
-79.9005
-54.4037
-54.9609
-55.0424
-55.5175
-55.6445
-55.5852
-56.3872
-56.6448
-56.6046
-56.3589
-57.41
-57.5175
-57.5077
-57.307
-57.5675
-59.0894
-58.9914
-58.8584
-58.6745
-58.3547
-58.3024
-61.7986
-61.3122
-60.7994
-60.922
-60.7547
-58.5325
-60.0111
-64.7105
-64.6314
-64.2801
-63.9622
-62.7962
-62.2141
-63.6306
-62.1489
-68.5965
-68.7413
-69.2836
-69.8619
-70.7035
-71.0418
-70.7562
-70.767
-71.2088
-73.9059
-73.6742
-73.5481
-74.551
-76.1839
-78.0034
-78.522
-79.7164
-78.3033
-69.6961
-77.9769
-77.9352
-77.6325
-77.4523
-78.1363
-78.6029
-79.5118
-82.415
-85.0731
-84.1979
-77.6847
-80.5995
-80.7638
-80.6318
-80.1536
-80.041
-80.3972
-80.5377
-80.2983
-81.2834
-83.2486
-82.7754
-81.409
-80.6047
-80.9752
-81.0431
-81.019
-80.8935
-80.7597
-81.0553
-81.0017
-81.0862
-81.6437
-82.0884
-80.9543
-80.0006
-54.0216
-54.3956
-54.4025
-54.9578
-55.0631
-55.0039
-55.5478
-55.637
-55.6494
-55.6328
-56.3301
-56.424
-56.594
-56.4399
-56.3056
-57.5136
-57.3162
-57.6461
-57.5539
-57.3049
-57.4092
-59.3597
-59.0928
-59.2698
-58.8993
-58.609
-58.2861
-58.321
-61.9652
-61.6262
-61.0503
-60.9843
-60.914
-60.8801
-58.6179
-59.6011
-64.7461
-64.8087
-64.5362
-64.5651
-63.8238
-63.3804
-62.5239
-63.2933
-62.9154
-68.6911
-68.6674
-68.9003
-69.4587
-70.3869
-71.1435
-71.0063
-71.1206
-70.5967
-69.8268
-73.9021
-73.9548
-73.4554
-73.6585
-74.8509
-76.5715
-78.4027
-79.1459
-79.6442
-79.1337
-69.9736
-77.2879
-78.0176
-77.8695
-77.6098
-77.4577
-78.2605
-78.8115
-79.74
-82.9307
-84.9273
-85.0829
-78.1613
-80.3018
-80.6088
-80.7337
-80.6037
-80.1133
-80.0701
-80.4644
-80.6394
-80.4159
-81.3743
-83.1999
-82.887
-81.8571
-80.3985
-80.6006
-80.9596
-81.0178
-80.9884
-80.8732
-80.7655
-81.0534
-81.0076
-81.1142
-81.6718
-82.1233
-80.9988
-80.0972
-53.526
-53.9019
-53.9553
-54.3445
-54.4686
-54.4704
-54.8756
-55.0071
-55.0657
-55.0764
-55.5365
-55.5957
-55.6967
-55.6687
-55.628
-56.3807
-56.3896
-56.4403
-56.5284
-56.3402
-56.2844
-57.6033
-57.5578
-57.5672
-57.5707
-57.4807
-57.2405
-57.2476
-59.3968
-59.3688
-59.1979
-59.1427
-58.9491
-58.7026
-58.3984
-58.4605
-62.0387
-61.8974
-61.4539
-61.1725
-61.1412
-60.9554
-60.9006
-58.7768
-59.4546
-64.9601
-64.8583
-64.7849
-64.9291
-64.2789
-64.0554
-63.5348
-62.6735
-63.2589
-63.7065
-68.8709
-68.6274
-68.6712
-69.0203
-69.6185
-70.8412
-72.0349
-71.5188
-70.754
-69.7973
-67.8987
-73.5608
-74.0596
-73.7937
-73.4469
-73.8381
-75.1071
-76.9494
-78.801
-79.308
-79.5365
-80.0283
-70.9169
-76.6191
-77.3911
-78.0676
-77.8391
-77.6316
-77.5525
-78.384
-79.009
-80.123
-83.188
-85.3037
-85.5691
-78.7554
-80.7697
-80.2893
-80.6273
-80.6786
-80.6242
-80.1093
-80.1114
-80.5338
-80.7373
-80.5165
-81.4118
-83.1226
-82.9397
-82.2227
-80.5951
-80.4223
-80.5978
-80.9442
-80.9919
-80.968
-80.8603
-80.7706
-81.0582
-81.017
-81.1395
-81.6941
-82.122
-81.0429
-80.1934
-53.4466
-53.6577
-53.5727
-54.0217
-53.939
-53.9632
-54.3302
-54.3222
-54.4734
-54.4689
-54.9236
-54.9657
-55.0742
-55.1265
-55.0754
-55.6358
-55.5173
-55.579
-55.6721
-55.6196
-55.5742
-56.44
-56.3615
-56.4893
-56.4645
-56.5658
-56.3653
-56.1889
-57.7902
-57.6939
-57.5019
-57.6384
-57.5655
-57.3928
-57.1275
-57.2403
-59.7246
-59.4591
-59.4157
-59.1815
-59.1812
-58.8613
-58.6588
-58.4981
-58.4867
-62.2139
-62.0696
-61.7283
-61.3489
-61.2176
-61.2899
-61.0436
-60.6878
-59.55
-59.6326
-64.9608
-64.8515
-64.8929
-65.0211
-65.1413
-64.4407
-64.0625
-63.5627
-62.9576
-63.0855
-63.7507
-68.9928
-68.7891
-68.7654
-68.6818
-69.106
-69.9208
-71.2148
-72.6486
-72.1021
-70.9831
-69.3121
-67.3983
-73.0659
-73.7066
-74.0581
-73.761
-73.5933
-74.0905
-75.4514
-77.3879
-78.9687
-79.6002
-79.6216
-80.8831
-71.6362
-75.8229
-76.5747
-77.3717
-78.0419
-77.9426
-77.5734
-77.6554
-78.4564
-79.2059
-80.2472
-83.2528
-85.7384
-85.7341
-79.3804
-79.9015
-80.6733
-80.2601
-80.6382
-80.6211
-80.6509
-80.1015
-80.1641
-80.6116
-80.8325
-80.6029
-81.4038
-83.0414
-82.9299
-82.4766
-79.7921
-80.5894
-80.4498
-80.5969
-80.9316
-80.964
-80.9418
-80.8506
-80.7755
-81.0668
-81.029
-81.1636
-81.7136
-82.088
-81.0721
-80.2911
-53.2089
-53.4437
-53.4321
-53.6698
-53.6504
-53.5165
-54.0256
-54.0167
-53.9783
-53.9689
-54.3689
-54.4063
-54.4516
-54.4425
-54.435
-54.9951
-54.9791
-54.9353
-55.1148
-55.1784
-55.0971
-55.6106
-55.5867
-55.5869
-55.6524
-55.6592
-55.6024
-55.5575
-56.6521
-56.4636
-56.4495
-56.5064
-56.4867
-56.6016
-56.3811
-56.1497
-58.0674
-57.7674
-57.6468
-57.5867
-57.623
-57.5293
-57.3819
-57.1827
-57.3863
-59.9321
-59.7689
-59.4528
-59.2247
-59.3332
-59.2058
-58.958
-58.7095
-58.5723
-58.6548
-62.3062
-62.2748
-62.1443
-61.8959
-61.5235
-61.1318
-61.3229
-61.1
-60.5394
-60.4579
-59.6387
-65.2383
-65.4906
-65.4207
-65.037
-65.1126
-65.0461
-64.8548
-64.4997
-63.8776
-63.1533
-63.9536
-63.9255
-68.6953
-68.9141
-68.7322
-69.2389
-68.8979
-69.2051
-70.138
-71.9086
-72.3132
-71.9847
-71.3248
-69.3151
-67.9461
-72.9265
-73.1325
-73.8206
-74.0514
-74.0048
-73.6245
-74.3557
-75.8317
-77.8048
-78.675
-79.5922
-79.7745
-80.9727
-71.7468
-75.2738
-75.7009
-76.5734
-77.5146
-78.0683
-78.0114
-77.5808
-77.7755
-78.5683
-79.3442
-80.449
-83.3488
-85.6771
-85.1559
-80.0366
-79.032
-79.9019
-80.6278
-80.2759
-80.6529
-80.5448
-80.6532
-80.1246
-80.2428
-80.6756
-80.9152
-80.6796
-81.3695
-82.9278
-82.8408
-82.5905
-79.8011
-79.7987
-80.575
-80.4779
-80.599
-80.9186
-80.9332
-80.9174
-80.8452
-80.7858
-81.079
-81.0431
-81.1858
-81.73
-82.052
-81.0455
-80.3891
-52.8511
-53.0987
-53.1783
-53.4419
-53.4252
-53.4594
-53.7398
-53.728
-53.7141
-53.5774
-54.0967
-54.0124
-54.027
-53.932
-54.0001
-54.4742
-54.4214
-54.4209
-54.4647
-54.3861
-54.4444
-55.0246
-55.0218
-54.9298
-54.9717
-55.1283
-55.247
-55.1046
-55.7591
-55.6784
-55.5798
-55.6628
-55.6998
-55.676
-55.661
-55.5528
-56.8265
-56.5828
-56.5146
-56.4795
-56.5532
-56.5031
-56.7357
-56.1742
-56.2729
-58.2293
-58.0611
-57.6874
-57.6655
-57.5773
-57.7162
-57.5804
-57.3272
-57.3724
-57.3082
-60.0327
-59.9525
-59.8162
-59.5097
-59.3441
-59.4421
-59.1286
-59.0442
-58.7112
-58.5197
-58.6371
-62.6134
-62.484
-62.2283
-62.0682
-61.9951
-61.5811
-61.4473
-61.1392
-61.1404
-60.7856
-60.5606
-59.6653
-65.3682
-65.4035
-65.1673
-65.4362
-65.3612
-65.1236
-65.1155
-64.8462
-64.6888
-63.9866
-63.6188
-63.3266
-63.8515
-68.6898
-68.8355
-69.0282
-69.4091
-69.305
-68.8574
-69.2743
-70.3366
-71.9853
-72.1862
-72.2397
-70.7755
-69.2613
-67.8942
-72.7495
-73.1073
-73.3752
-73.9854
-74.0793
-73.9039
-73.6753
-74.5891
-76.0849
-78.3408
-78.7862
-79.5198
-79.6434
-80.5752
-71.8434
-75.5351
-75.3233
-75.7641
-76.6986
-77.5834
-78.1273
-78.0876
-77.6702
-77.922
-78.7096
-79.4749
-80.5202
-83.3105
-85.2939
-84.459
-80.5147
-79.4056
-79.0425
-79.8794
-80.6272
-80.3087
-80.6583
-80.4741
-80.6676
-80.1696
-80.3093
-80.7419
-80.9938
-80.7395
-81.3279
-82.759
-82.6854
-82.563
-80.0699
-79.7802
-79.8041
-80.5673
-80.5012
-80.6032
-80.9034
-80.9046
-80.8999
-80.8455
-80.7983
-81.0912
-81.0584
-81.208
-81.7421
-82.0236
-81.0208
-80.4862
-52.7528
-52.8888
-52.8891
-53.1563
-53.1301
-53.1695
-53.4054
-53.4279
-53.3896
-53.396
-53.7526
-53.7782
-53.6521
-53.736
-53.6252
-54.1121
-54.0677
-53.9959
-54.1064
-54.0114
-54.0165
-54.5918
-54.5173
-54.4648
-54.3425
-54.4048
-54.399
-54.4327
-55.1193
-54.9995
-54.9559
-54.9852
-55.1665
-55.1471
-55.1023
-55.0574
-55.9525
-55.783
-55.7067
-55.5836
-55.6915
-55.7149
-55.7448
-55.7387
-55.6153
-56.9566
-56.8
-56.5864
-56.6141
-56.5049
-56.6155
-56.5658
-56.6771
-56.2013
-56.1793
-58.3971
-58.2119
-58.0779
-57.9391
-57.7594
-57.7639
-57.728
-57.6532
-57.4864
-57.386
-57.0861
-60.2239
-60.1295
-60.0217
-59.873
-59.6186
-59.4408
-59.1426
-59.1195
-59.0517
-58.7957
-58.6411
-58.8198
-62.8097
-62.697
-62.9509
-62.305
-62.2995
-61.9576
-61.7922
-61.7251
-61.1241
-61.2284
-60.662
-61.2776
-59.2651
-65.3922
-65.5257
-65.3132
-65.2484
-65.3713
-65.4675
-65.4611
-65.4095
-65.2353
-65.253
-63.9629
-63.6264
-62.1044
-63.9531
-68.712
-68.9253
-68.9334
-69.2
-69.1652
-69.01
-69.0039
-69.4297
-70.634
-71.9016
-72.1334
-71.9506
-71.1586
-69.9312
-67.4014
-72.2863
-72.8575
-73.2796
-73.5453
-74.1845
-74.1408
-73.9092
-73.7444
-74.9016
-76.3985
-78.4542
-78.9364
-79.3251
-79.654
-79.2986
-72.201
-74.7632
-75.3701
-75.3668
-75.8467
-76.9326
-77.7128
-78.087
-78.1469
-77.7921
-78.1379
-78.8401
-79.6165
-80.5979
-83.1512
-84.7998
-83.6349
-80.7311
-78.9425
-79.3187
-79.0257
-79.9655
-80.5725
-80.3411
-80.6545
-80.4237
-80.6517
-80.2187
-80.3863
-80.8095
-81.065
-80.7859
-81.2776
-82.5729
-82.4658
-82.4305
-79.8167
-80.0769
-79.7702
-79.8097
-80.5667
-80.5259
-80.6098
-80.8877
-80.8775
-80.8821
-80.8543
-80.8131
-81.1024
-81.0734
-81.2312
-81.7512
-81.9927
-81.0344
-80.5793
-52.5642
-52.7597
-52.7607
-52.8919
-52.906
-52.8948
-53.175
-53.1528
-53.1206
-53.1188
-53.414
-53.4237
-53.3991
-53.3351
-53.3611
-53.7619
-53.7801
-53.6883
-53.7264
-53.6784
-53.6641
-54.1635
-54.1571
-54.0358
-54.0642
-54.0969
-54.0436
-54.0279
-54.7179
-54.4802
-54.4499
-54.4202
-54.4187
-54.3654
-54.4145
-54.4177
-55.3103
-55.0614
-55.1125
-54.9793
-55.1158
-55.1515
-55.1392
-55.1351
-55.0617
-55.9941
-55.9445
-55.8566
-55.6712
-55.7046
-55.7447
-55.7161
-55.7938
-55.6562
-55.5301
-57.1715
-57.016
-56.8449
-56.6611
-56.631
-56.6512
-56.654
-56.6286
-56.5318
-56.233
-56.198
-58.607
-58.3501
-58.2676
-58.0973
-57.9603
-57.8901
-57.7608
-57.7033
-57.6425
-57.4423
-57.2426
-57.1234
-60.3464
-60.3042
-60.2103
-60.016
-59.769
-59.6886
-59.5353
-59.3965
-59.231
-59.0455
-58.9057
-58.9804
-59.0585
-62.9141
-62.8332
-62.662
-62.291
-62.369
-62.5739
-62.1899
-62.0447
-61.5688
-61.265
-61.0751
-60.9278
-60.941
-59.3017
-65.5761
-65.5753
-65.6658
-65.809
-65.8324
-65.6873
-65.6764
-65.7188
-65.4645
-65.1744
-65.0357
-63.881
-64.1281
-62.4448
-63.3685
-68.807
-68.897
-69.0536
-69.2853
-69.422
-69.1437
-69.0828
-69.2628
-69.8918
-71.5976
-72.6201
-72.0476
-71.8861
-71.775
-69.5481
-67.1822
-72.3887
-72.5057
-73.0003
-73.5199
-73.773
-74.2228
-74.2631
-74.0746
-73.9435
-75.2557
-76.8212
-78.4852
-78.8508
-78.9128
-80.3851
-77.6874
-72.3105
-74.6592
-74.7796
-75.4007
-75.5163
-76.1123
-77.03
-77.8235
-78.0461
-78.2283
-77.8912
-78.3527
-78.9764
-79.7693
-80.6072
-82.8661
-84.3773
-82.7171
-80.6737
-78.7569
-78.8521
-79.2508
-79.0159
-80.0042
-80.539
-80.3957
-80.6457
-80.3436
-80.6229
-80.2882
-80.4693
-80.8767
-81.1284
-80.8191
-81.2141
-82.3741
-82.2176
-82.256
-78.9332
-79.789
-80.0553
-79.7644
-79.8208
-80.5454
-80.5542
-80.6128
-80.8681
-80.8506
-80.8674
-80.8801
-80.8325
-81.1135
-81.0887
-81.2546
-81.7622
-81.9594
-81.0478
-80.667
-52.4391
-52.5439
-52.5392
-52.8161
-52.7258
-52.7783
-52.9518
-52.9308
-52.919
-52.8381
-53.2302
-53.13
-53.1246
-53.0881
-53.0963
-53.6064
-53.4132
-53.4255
-53.3582
-53.4011
-53.2702
-53.8153
-53.8182
-53.6587
-53.7138
-53.7478
-53.7089
-53.8006
-54.2927
-54.1515
-54.0909
-54.1037
-53.9604
-54.0369
-54.1375
-53.9566
-54.7005
-54.6252
-54.564
-54.5012
-54.4675
-54.5086
-54.4689
-54.3565
-54.3566
-55.3709
-55.3106
-55.1873
-55.058
-55.0642
-55.1114
-55.0937
-55.1082
-55.022
-55.0812
-56.2857
-56.0587
-55.8857
-55.6138
-55.7591
-55.7583
-55.7723
-55.825
-55.6675
-55.5965
-55.4038
-57.3722
-57.0967
-57.0403
-56.7997
-56.7386
-56.7497
-56.6773
-56.6929
-56.565
-56.5772
-56.2994
-56.3184
-58.7768
-58.5776
-58.4149
-58.2169
-58.0019
-58.0796
-57.8655
-57.8859
-57.6718
-57.5806
-57.5534
-57.3696
-57.3804
-60.5307
-60.3744
-60.3609
-60.0884
-60.0034
-59.9339
-59.6063
-59.5643
-59.4372
-59.2851
-59.2056
-59.0399
-59.1658
-59.1847
-62.9431
-62.9814
-62.8297
-62.6892
-62.5995
-62.7352
-62.4772
-62.3716
-62.1392
-61.893
-61.5798
-61.1308
-61.2229
-61.0825
-59.3631
-65.6876
-65.7088
-65.7537
-65.8535
-65.9144
-65.7087
-65.5724
-66.0229
-65.9539
-65.854
-65.4128
-64.7595
-63.8228
-64.085
-62.7185
-63.0914
-68.9364
-68.9213
-69.1386
-69.3437
-69.4922
-69.6442
-69.4604
-69.4307
-69.4761
-70.2547
-71.9489
-73.11
-72.4402
-71.9071
-71.9018
-69.2836
-67.1488
-72.6265
-72.4192
-72.924
-73.2262
-73.7664
-74.0762
-74.4114
-74.3439
-74.2315
-74.1818
-75.6052
-77.1669
-78.429
-78.7267
-78.4969
-79.455
-76.6055
-72.08
-75.6608
-74.6703
-74.8619
-75.5097
-75.6233
-76.1803
-77.2345
-77.9743
-78.1083
-78.3639
-78.0149
-78.5821
-79.1254
-79.9371
-80.6048
-82.637
-83.506
-81.827
-80.594
-78.6243
-78.7893
-78.8243
-79.1825
-79.0301
-79.9592
-80.5632
-80.464
-80.6068
-80.2817
-80.6547
-80.3624
-80.5514
-80.9381
-81.1825
-80.8358
-81.1509
-82.1659
-81.982
-82.0774
-78.7097
-78.9179
-79.7837
-80.0245
-79.7618
-79.8297
-80.5177
-80.5657
-80.6088
-80.8422
-80.8312
-80.8581
-80.9239
-80.8534
-81.1256
-81.1092
-81.2796
-81.7766
-81.9254
-81.0637
-80.7497
-52.3046
-52.4336
-52.4375
-52.5989
-52.5669
-52.5461
-52.7927
-52.7495
-52.7579
-52.7153
-53.0041
-52.9153
-52.9159
-52.858
-52.8487
-53.1705
-53.107
-53.0719
-53.0736
-53.0996
-53.0393
-53.5787
-53.5255
-53.4094
-53.3311
-53.3747
-53.2617
-53.3015
-53.9279
-53.7162
-53.8321
-53.7284
-53.8031
-53.7651
-53.8505
-53.8859
-54.217
-54.3094
-54.151
-54.1396
-54.0819
-54.0868
-54.0734
-54.0941
-54.0078
-54.8665
-54.7445
-54.6087
-54.629
-54.5186
-54.5418
-54.4531
-54.4482
-54.2719
-54.3421
-55.5206
-55.3432
-55.2099
-55.1608
-55.1034
-55.1126
-55.1174
-55.1485
-55.0173
-55.0841
-54.8394
-56.3483
-56.1991
-55.9493
-55.8477
-55.7997
-55.8361
-55.8351
-55.8426
-55.8083
-55.6618
-55.5973
-55.6012
-57.5133
-57.346
-57.1498
-56.9633
-56.8727
-56.8605
-56.753
-56.688
-56.5786
-56.5056
-56.6964
-56.4083
-56.2026
-58.9047
-58.7617
-58.6624
-58.37
-58.205
-58.0873
-58.0557
-57.9753
-57.9704
-57.787
-57.7527
-57.5676
-57.4892
-57.5933
-60.675
-60.5468
-60.389
-60.1384
-60.1779
-60.1818
-60.0589
-59.7133
-59.7393
-59.5241
-59.4642
-59.3173
-59.3109
-59.3436
-59.087
-63.086
-63.0937
-63.0158
-62.9235
-62.7539
-62.7075
-62.8742
-62.8234
-62.4643
-62.056
-62.1092
-61.6989
-61.1551
-61.698
-61.2822
-59.4098
-65.8793
-65.6752
-65.746
-65.9127
-66.0363
-65.9759
-66.1094
-66.0456
-65.9909
-66.0672
-66.1101
-65.5651
-64.8929
-64.1838
-64.3364
-62.7403
-62.8081
-69.0181
-69.0436
-69.148
-69.449
-69.6255
-69.6226
-70.1106
-69.9772
-69.7196
-69.8226
-70.7142
-72.2551
-73.2695
-72.9188
-72.2962
-70.3658
-69.4521
-67.403
-72.8231
-72.6118
-72.5677
-72.998
-73.5084
-74.0521
-74.2947
-74.7733
-74.3532
-74.32
-74.5279
-76.1022
-77.4246
-78.6218
-78.5116
-78.912
-77.9256
-75.3131
-72.2002
-75.9843
-75.537
-74.6458
-74.8821
-75.6205
-75.8064
-76.3512
-77.7772
-78.1224
-78.1686
-78.4825
-78.2469
-78.8532
-79.2613
-80.0819
-80.5725
-82.3853
-82.7905
-81.0442
-80.1317
-78.5402
-78.5166
-78.7063
-78.8118
-79.1171
-79.0711
-79.9664
-80.5342
-80.5256
-80.5628
-80.2091
-80.6302
-80.4353
-80.6407
-80.9964
-81.2274
-80.8536
-81.0953
-81.9677
-81.7531
-81.8378
-78.5675
-78.7008
-78.907
-79.7769
-80.0027
-79.7641
-79.8407
-80.506
-80.5627
-80.6046
-80.8145
-80.8177
-80.8462
-80.9715
-80.8756
-81.1377
-81.1298
-81.2875
-81.7919
-81.891
-81.092
-80.8348
-52.2044
-52.343
-52.3055
-52.4391
-52.422
-52.4491
-52.6584
-52.6381
-52.5875
-52.5283
-52.818
-52.7753
-52.7531
-52.7
-52.6982
-52.8283
-52.9127
-52.9079
-52.8423
-52.852
-52.8475
-53.1936
-53.3014
-53.2309
-53.1309
-53.0793
-53.0709
-52.9858
-53.5613
-53.4271
-53.4303
-53.4356
-53.3114
-53.3705
-53.2313
-53.3743
-53.9683
-53.9078
-53.8895
-53.7094
-53.7608
-53.7192
-53.716
-53.7185
-53.757
-54.4076
-54.3108
-54.2082
-54.1879
-54.1072
-54.0823
-54.1291
-54.1094
-54.1797
-54.0379
-54.9778
-54.8257
-54.743
-54.6951
-54.5716
-54.6178
-54.5663
-54.4675
-54.444
-54.137
-54.2951
-55.638
-55.5694
-55.3388
-55.2186
-55.2208
-55.1986
-55.1643
-55.0924
-55.1428
-55.0545
-55.014
-54.897
-56.5731
-56.3863
-56.1039
-56.025
-56.0165
-55.9288
-55.8806
-55.8928
-55.8801
-55.7365
-55.646
-55.6866
-55.6211
-57.6489
-57.5147
-57.3749
-57.0712
-56.9137
-56.9733
-56.9145
-56.7514
-56.7263
-56.655
-56.5092
-56.6775
-56.5755
-56.1939
-58.943
-58.9164
-58.757
-58.5686
-58.3976
-58.2577
-58.1945
-58.1047
-58.0617
-57.9561
-57.8632
-57.855
-57.6213
-57.3421
-57.663
-60.7576
-60.6643
-60.5776
-60.3482
-60.373
-60.3976
-60.3888
-59.9454
-59.8684
-59.776
-59.7475
-59.6201
-59.4021
-59.4505
-59.4491
-59.0637
-63.0803
-63.0501
-63.1828
-62.9771
-63.0207
-62.8259
-63.0172
-62.8359
-63.1814
-62.6181
-62.4331
-62.0464
-61.809
-62.1875
-61.7632
-61.2229
-59.7484
-66.1541
-66.0296
-65.8691
-65.929
-66.1467
-66.1449
-66.2901
-66.3644
-66.5167
-66.2905
-66.3456
-66.2898
-65.807
-65.0354
-65.1117
-64.6712
-63.3627
-62.7744
-69.5811
-69.1821
-69.2137
-69.3963
-69.6908
-69.8963
-69.9921
-70.3631
-70.2937
-70.1767
-70.315
-71.1401
-72.592
-73.4959
-73.2774
-71.9848
-70.3516
-68.4947
-66.6355
-73.1285
-72.739
-72.7884
-72.8623
-73.1445
-73.7922
-74.4144
-74.6852
-75.0141
-74.7362
-74.5714
-74.7014
-76.4235
-77.6847
-78.9507
-78.4249
-78.3791
-77.3706
-75.0603
-72.9024
-76.7627
-75.832
-75.3927
-74.7803
-74.9981
-75.7816
-76.0088
-76.6296
-77.8209
-78.1851
-78.2626
-78.5637
-78.4664
-79.1042
-79.4084
-80.2094
-80.4771
-82.0829
-81.933
-80.4137
-79.6872
-78.5432
-78.5067
-78.4237
-78.6185
-78.7597
-79.0714
-79.1096
-80.1119
-80.4786
-80.5789
-80.5559
-80.1288
-80.5503
-80.512
-80.7374
-81.0481
-81.2641
-80.8684
-81.0103
-81.7663
-81.5246
-81.6286
-81.0842
-78.3975
-78.5525
-78.6976
-78.8999
-79.7605
-79.9972
-79.7717
-79.8506
-80.5064
-80.5618
-80.5989
-80.783
-80.805
-80.8389
-81.016
-80.8968
-81.1498
-81.1458
-81.2773
-81.8096
-81.8574
-81.1227
-80.9193
-52.0976
-52.1667
-52.152
-52.303
-52.3102
-52.3199
-52.4972
-52.4576
-52.4525
-52.459
-52.6507
-52.6525
-52.6523
-52.5453
-52.4874
-52.8558
-52.8228
-52.7771
-52.7055
-52.6902
-52.7035
-52.9657
-52.9567
-52.8775
-52.8558
-52.8379
-52.8319
-52.8152
-53.2733
-53.2883
-53.1677
-53.0964
-53.1032
-53.0722
-53.0797
-53.0007
-53.6833
-53.5856
-53.4448
-53.3875
-53.4163
-53.3514
-53.3368
-53.3544
-53.3757
-54.0072
-53.9206
-53.8681
-53.8413
-53.7466
-53.7423
-53.7198
-53.7407
-53.713
-53.6031
-54.5544
-54.3783
-54.2759
-54.227
-54.1528
-54.1196
-54.1085
-54.022
-54.0222
-54.0883
-54.0818
-55.0849
-54.9338
-54.8152
-54.7271
-54.6573
-54.6351
-54.5887
-54.5358
-54.5218
-54.4532
-54.222
-54.2576
-55.8617
-55.6168
-55.3966
-55.3875
-55.2882
-55.2321
-55.2394
-55.1614
-55.1453
-55.0705
-54.9425
-54.9181
-54.9862
-56.6253
-56.4858
-56.4024
-56.1249
-55.9712
-56.0423
-56.1271
-55.876
-55.9019
-55.7068
-55.6836
-55.7278
-55.7719
-55.4479
-57.7852
-57.7241
-57.4413
-57.3445
-57.0629
-56.9663
-57.0502
-56.8232
-56.8408
-56.8094
-56.8497
-56.6847
-56.529
-56.1932
-56.3777
-59.0893
-59.0489
-58.9173
-58.8224
-58.6178
-58.3836
-58.3552
-58.1769
-58.2248
-58.1212
-57.9795
-57.8781
-57.8048
-57.7779
-57.7722
-57.5754
-61.1311
-60.863
-60.7689
-60.5232
-60.4144
-60.4906
-60.5569
-60.2946
-60.1567
-60.1061
-59.9649
-59.8665
-59.5428
-59.5102
-59.6309
-59.4029
-59.0251
-63.3128
-63.2956
-63.2047
-62.9746
-63.0908
-62.9964
-63.0459
-63.0576
-63.2181
-63.1
-62.8599
-62.7762
-62.2139
-62.1493
-62.3207
-61.722
-61.4599
-60.1275
-66.5998
-66.2687
-66.0645
-66.0886
-66.2835
-66.3491
-66.4743
-66.4448
-67.0199
-66.6794
-66.741
-66.5711
-66.5964
-66.0015
-65.1444
-65.3637
-64.9891
-63.6526
-63.0385
-69.984
-69.5137
-69.393
-69.5043
-69.6144
-69.9993
-70.1768
-70.2652
-70.6202
-70.6869
-70.3721
-70.4569
-71.5064
-72.8685
-74.0937
-73.4323
-71.986
-69.8083
-67.5096
-66.6178
-74.0072
-72.8142
-72.7083
-72.9028
-73.2378
-73.4204
-74.1023
-74.9078
-75.1203
-75.2376
-75.1105
-74.7796
-75.0716
-76.6076
-77.958
-79.1844
-78.1489
-78.1401
-76.9792
-74.6971
-73.369
-77.1171
-76.6154
-75.6817
-75.4118
-74.8919
-75.1005
-75.8676
-76.1697
-76.7264
-77.804
-78.2839
-78.4081
-78.6268
-78.6685
-79.363
-79.572
-80.2889
-80.4133
-81.7676
-81.431
-79.9269
-79.6157
-80.9724
-78.5215
-78.5129
-78.4853
-78.3528
-78.5963
-78.7716
-79.0568
-79.1688
-80.1365
-80.497
-80.6315
-80.4712
-80.0703
-80.4906
-80.5936
-80.8356
-81.0955
-81.2898
-80.8915
-80.9439
-81.5736
-81.2975
-81.4393
-81.2265
-81.001
-78.525
-78.3832
-78.5372
-78.6949
-78.8961
-79.7445
-79.9995
-79.7832
-79.8652
-80.4869
-80.5561
-80.5896
-80.7419
-80.789
-80.836
-81.0629
-80.9168
-81.1655
-81.1621
-81.265
-81.8201
-81.8136
-81.1525
-51.9912
-52.0819
-52.1081
-52.2313
-52.1635
-52.1546
-52.3281
-52.3273
-52.2924
-52.2883
-52.4457
-52.4679
-52.4766
-52.4634
-52.4025
-52.6746
-52.6312
-52.6163
-52.5874
-52.525
-52.5279
-52.963
-52.8555
-52.6646
-52.7126
-52.6717
-52.6768
-52.6586
-53.0591
-52.9645
-52.909
-52.9502
-52.9059
-52.8395
-52.819
-52.8543
-53.3185
-53.3203
-53.0055
-53.1019
-53.1438
-53.1402
-53.0765
-53.0789
-53.0047
-53.709
-53.618
-53.5493
-53.5398
-53.4365
-53.4113
-53.2791
-53.3122
-53.3215
-53.3243
-54.0995
-54.0417
-53.9169
-53.8689
-53.8031
-53.7616
-53.7078
-53.7487
-53.7286
-53.7009
-53.6486
-54.6526
-54.5049
-54.315
-54.2985
-54.2376
-54.2171
-54.1159
-54.0769
-54.0774
-54.0047
-54.0558
-54.0163
-55.2195
-55.0323
-54.8779
-54.8267
-54.705
-54.6832
-54.6752
-54.5317
-54.5273
-54.4431
-54.4398
-54.2663
-54.2735
-56.0624
-55.8039
-55.5154
-55.5029
-55.4008
-55.3925
-55.3225
-55.2258
-55.2065
-55.1697
-55.1193
-54.9435
-54.8914
-54.8312
-56.897
-56.7279
-56.5312
-56.3523
-56.1174
-56.1245
-56.1045
-55.9879
-55.9723
-55.8875
-55.6865
-55.7669
-55.6476
-55.787
-55.5428
-57.9353
-57.8013
-57.6912
-57.468
-57.2089
-57.0482
-57.1539
-57.0078
-57.0269
-56.8368
-56.8522
-56.8216
-56.5864
-56.5878
-56.329
-56.394
-59.4213
-59.1766
-59.1233
-58.9768
-58.8482
-58.7673
-58.4164
-58.4382
-58.4236
-58.3311
-58.2393
-58.1935
-57.9317
-57.971
-57.7254
-57.683
-57.4409
-61.3057
-61.0338
-60.9405
-60.8007
-60.5178
-60.6009
-60.5996
-60.5778
-60.3665
-60.2886
-60.2198
-60.218
-59.9218
-59.827
-59.6479
-59.6366
-59.3552
-58.886
-63.6351
-63.3489
-63.3918
-63.3726
-63.2156
-63.1896
-63.1982
-63.1912
-63.2958
-63.5105
-63.4201
-63.1227
-62.7529
-62.4572
-62.3979
-62.2757
-61.8808
-61.6787
-60.3832
-67.2097
-66.477
-66.3182
-66.2568
-66.2097
-66.4428
-66.5416
-66.7506
-66.8415
-66.9913
-67.0513
-66.9921
-66.9594
-66.7197
-65.9697
-65.1954
-65.5655
-65.2027
-63.3783
-63.1228
-70.7407
-69.7463
-69.4654
-69.3564
-69.5922
-69.7833
-70.2063
-70.4386
-70.558
-70.8871
-70.9221
-70.6359
-70.9234
-71.8252
-73.1991
-74.5021
-73.355
-72.0913
-69.7859
-67.6519
-66.8391
-74.6531
-73.8195
-72.7579
-72.8283
-72.9119
-73.4168
-73.6463
-74.5533
-75.2012
-75.4177
-75.5672
-75.4642
-74.8513
-75.3174
-76.8199
-78.2734
-79.3546
-77.8265
-77.7301
-76.7813
-74.4075
-73.6661
-78.4856
-77.3548
-77.027
-76.4692
-75.4238
-75.4007
-74.8194
-75.2122
-76.0007
-76.3005
-76.8691
-77.9751
-78.3363
-78.4814
-78.6181
-78.8418
-79.6142
-79.7085
-80.3129
-80.3344
-81.4641
-80.9918
-79.4885
-79.1797
-80.6382
-81.1539
-78.8652
-78.4742
-78.482
-78.4576
-78.2951
-78.5719
-78.7839
-79.0503
-79.272
-80.08
-80.5141
-80.6824
-80.3658
-80.0154
-80.4303
-80.6701
-80.9421
-81.1358
-81.3009
-80.9162
-80.8882
-81.3978
-81.0713
-81.69
-81.1876
-78.7109
-78.5171
-78.3648
-78.5216
-78.6903
-78.8952
-79.748
-80.0137
-79.8002
-79.8783
-80.4934
-80.5463
-80.5772
-80.7106
-80.7693
-80.8351
-81.1121
-80.9348
-81.1802
-81.1803
-81.2521
-81.8425
-81.7664
-52.0219
-51.983
-52.0696
-52.0704
-52.0968
-52.1668
-52.1978
-52.1678
-52.1454
-52.3217
-52.3566
-52.3276
-52.2614
-52.2728
-52.5458
-52.5402
-52.4831
-52.4722
-52.42
-52.3926
-52.7345
-52.5806
-52.6069
-52.5938
-52.5355
-52.526
-52.5039
-52.971
-52.8913
-52.8214
-52.7435
-52.7392
-52.6795
-52.6532
-52.6671
-53.157
-53.062
-52.9513
-52.9309
-52.9186
-52.9031
-52.8643
-52.831
-52.8413
-53.4085
-53.274
-53.3037
-53.1561
-53.1437
-53.1702
-53.1161
-53.0589
-53.0857
-53.0284
-53.8064
-53.7167
-53.6224
-53.5318
-53.4673
-53.4399
-53.3648
-53.3246
-53.38
-53.2905
-53.2199
-54.2175
-54.0455
-53.9605
-53.8903
-53.8339
-53.7483
-53.7352
-53.6792
-53.6698
-53.674
-53.7263
-53.6662
-54.7681
-54.515
-54.5376
-54.3781
-54.2454
-54.2439
-54.2101
-54.1129
-54.0645
-54.0603
-54.0362
-54.0177
-54.0376
-55.4105
-55.3335
-54.9992
-54.9079
-54.7999
-54.803
-54.6533
-54.6409
-54.5795
-54.5681
-54.3706
-54.3064
-54.3009
-54.2446
-56.1771
-56.0842
-55.734
-55.6565
-55.3287
-55.5355
-55.4285
-55.3948
-55.2756
-55.1569
-54.9665
-55.0638
-55.1201
-54.9053
-54.836
-57.0758
-56.8547
-56.7701
-56.4152
-56.3552
-56.1731
-56.2446
-56.1469
-56.0088
-55.9566
-55.8972
-55.9132
-55.7911
-55.6191
-55.3846
-55.5217
-58.3042
-57.8241
-57.8823
-57.6831
-57.5078
-57.2369
-57.0952
-57.2139
-57.1801
-57.0877
-56.9777
-56.8762
-56.7578
-56.6321
-56.8089
-56.8064
-56.3874
-59.5652
-59.4238
-59.2508
-59.1516
-59.1017
-58.8275
-58.6675
-58.5489
-58.5462
-58.5467
-58.4137
-58.3759
-58.2816
-58.0725
-57.9503
-57.6187
-57.6106
-57.5564
-61.4914
-61.3938
-61.1712
-61.078
-60.6963
-60.5142
-60.5935
-60.8187
-60.551
-60.583
-60.3286
-60.3896
-60.275
-60.0352
-59.9492
-59.8359
-59.6378
-59.3368
-58.8182
-64.2875
-63.7539
-63.532
-63.4998
-63.3315
-63.4318
-63.2152
-63.4288
-63.3012
-63.651
-63.5041
-63.7377
-63.2978
-63.0092
-62.7012
-62.4065
-62.2088
-61.948
-61.6256
-60.8948
-67.8481
-67.0784
-66.4875
-66.2092
-66.3117
-66.5886
-66.5337
-66.6575
-66.9152
-67.3688
-67.1578
-67.4529
-67.1891
-67.3275
-66.7951
-66.134
-65.7175
-65.9241
-65.2238
-63.786
-63.2335
-71.6319
-70.6491
-69.429
-69.4914
-69.5013
-69.8954
-70.0847
-70.4247
-70.8345
-71.1334
-71.2408
-71.1711
-70.857
-71.4325
-72.1771
-73.5503
-74.8296
-73.5134
-72.3347
-70.2464
-68.035
-67.4509
-73.9882
-75.0999
-74.5279
-73.5863
-72.6957
-72.8796
-73.0344
-73.5405
-73.947
-74.9389
-75.4955
-75.6308
-75.8322
-75.7294
-75.0878
-75.551
-77.2065
-78.6917
-79.5654
-77.5822
-77.5002
-76.5871
-74.4564
-73.6426
-78.8615
-78.6824
-78.1023
-77.2646
-76.8975
-76.3463
-75.3519
-75.3907
-74.9142
-75.3358
-76.1558
-76.4813
-77.0363
-78.0751
-78.4063
-78.545
-78.6252
-78.9789
-79.8021
-79.852
-80.3174
-80.1554
-81.1746
-80.64
-79.1645
-80.9249
-80.8548
-79.3609
-78.7883
-78.4263
-78.4359
-78.4242
-78.2404
-78.5652
-78.7817
-79.0381
-79.3271
-80.1099
-80.5233
-80.7274
-80.3332
-79.9607
-80.3546
-80.7413
-81.0662
-81.1719
-81.3052
-80.9174
-80.8288
-81.2444
-81.9157
-81.7275
-78.6749
-78.6515
-78.4977
-78.3443
-78.5063
-78.6869
-78.8981
-79.7521
-80.0303
-79.819
-79.8883
-80.4778
-80.5358
-80.5699
-80.6782
-80.7494
-80.8387
-81.1632
-80.9555
-81.1902
-81.1978
-81.2415
-81.8638
-52.0085
-51.9925
-51.9753
-52.1352
-52.096
-52.0752
-52.0967
-52.2369
-52.1499
-52.1614
-52.1505
-52.1354
-52.4337
-52.3276
-52.3868
-52.3471