/*--------------------------------*- C++ -*----------------------------------*\
  =========                 |
  \\      /  F ield         | OpenFOAM: The Open Source CFD Toolbox
   \\    /   O peration     | Website:  https://openfoam.org
    \\  /    A nd           | Version:  7
     \\/     M anipulation  |
\*---------------------------------------------------------------------------*/
FoamFile
{
    version     2.0;
    format      ascii;
    class       surfaceScalarField;
    location    "4";
    object      phi;
}
// * * * * * * * * * * * * * * * * * * * * * * * * * * * * * * * * * * * * * //

dimensions      [0 3 -1 0 0 0 0];

internalField   nonuniform List<scalar> 
54125
(
-1.83915e-05
-7.40534e-07
-0.00131729
-0.000254471
0.000197798
-0.00369469
5.86002e-07
-4.73666e-05
-0.00162738
-3.15508e-05
5.11502e-07
-0.00128626
-0.000382982
0.000494865
-0.00768012
-0.000227919
0.000376116
-0.00352423
-0.000308453
0.00020168
-0.00361947
-0.000119869
-4.77585e-05
-0.00162449
-9.12948e-06
-4.69595e-05
-0.00157077
-3.07755e-05
1.46674e-06
-0.00125695
-0.000581617
0.000392378
-0.0057096
-0.000534334
0.000754357
-0.00782982
-0.000542085
0.00046401
-0.0079105
-0.000267323
0.000288896
-0.00344463
-0.000268996
0.000401118
-0.0034638
-0.000233962
0.000205898
-0.00362218
-0.000109587
-4.21398e-05
-0.0013956
-9.35541e-05
-4.72119e-05
-0.00153068
-7.6822e-06
-4.69206e-05
-0.0015147
-3.20085e-05
2.30457e-06
-0.00122724
-0.0012439
0.000390195
-0.00386269
-0.00101687
0.000624774
-0.00748575
-0.000753055
0.000323037
-0.00582166
-0.000429124
0.000768111
-0.00672294
-0.000583652
0.00071594
-0.0077671
-0.000512165
0.000459037
-0.00809133
-0.000182524
0.000153627
-0.00243696
-0.000201112
0.000329533
-0.00326549
-0.000308552
0.000365966
-0.003323
-0.000329342
0.00022164
-0.00354649
-6.1966e-05
-1.70698e-05
-0.000372915
-0.000106294
-4.14759e-05
-0.00129504
-0.000120179
-4.69987e-05
-0.00141043
-4.64038e-06
-4.69645e-05
-0.0014608
-3.29955e-05
2.33456e-06
-0.00119658
-0.00119225
0.000234865
-0.00602686
-0.000641928
0.000329276
-0.00672215
-0.00116577
0.000255186
-0.00370516
-0.000617446
0.000876721
-0.00809355
-0.000970844
0.00066046
-0.00743598
-0.000861646
0.000266825
-0.00573901
-0.000213298
0.00061874
-0.00428762
-0.000473151
0.0007754
-0.00651036
-0.000757347
0.000688115
-0.00754738
-0.000752663
0.000503291
-0.0081713
-6.34946e-05
1.59062e-05
-0.0020599
-0.000179583
0.000169769
-0.00220391
-0.000285696
0.00029438
-0.00302839
-0.00034738
0.00035937
-0.00311799
-0.000340206
0.000235715
-0.00347499
-4.73501e-05
-1.37794e-05
-0.000301481
-6.67657e-05
-1.72425e-05
-0.000330383
-0.000109209
-4.03653e-05
-0.00119247
-0.000120426
-4.59059e-05
-0.00129106
-6.022e-06
-4.63843e-05
-0.00140605
-3.44202e-05
1.90308e-06
-0.00116406
-0.00115857
-0.000206511
-0.00605564
-0.000715181
0.000601388
-0.00744278
-0.00107007
0.00016736
-0.00628992
-0.000391004
0.000317727
-0.00775495
-0.000670512
-1.63482e-06
-0.00676566
-0.00119173
0.000327226
-0.0037023
-0.000438477
0.00101327
-0.00726224
-0.000769413
0.000987618
-0.00812445
-0.00127351
0.000663733
-0.00731673
-0.00101475
0.000421832
-0.00589875
-9.55722e-05
0.000398719
-0.00394481
-0.000221092
0.000627861
-0.00409857
-0.000498239
0.000780776
-0.00639048
-0.00077315
0.000681257
-0.00729958
-0.000798018
0.000510368
-0.00822386
-5.07524e-05
-6.34762e-05
-0.0023539
-8.5543e-05
1.43348e-05
-0.00188569
-0.0001914
0.000162318
-0.00198966
-0.000297464
0.000279503
-0.00277148
-0.000367834
0.000355826
-0.00287629
-0.00038322
0.000235459
-0.00336165
5.05727e-06
-3.1561e-05
-0.000657047
-4.84097e-05
-1.4351e-05
-0.000255963
-7.03292e-05
-1.72218e-05
-0.000283197
-0.000110101
-3.81185e-05
-0.00109015
-0.000111853
-4.35248e-05
-0.00118207
-5.13141e-06
-4.48883e-05
-0.00135413
-3.02138e-05
-5.01051e-08
-0.0011338
-0.00164275
4.70704e-05
-0.00465715
-0.00143102
0.00014313
-0.00643803
-0.00116647
-9.43106e-05
-0.00586493
-0.000314565
0.000460709
-0.00683852
-0.000876878
0.000535539
-0.0076046
-0.00114973
-0.000172792
-0.00615913
-0.000521082
0.000513358
-0.0078671
-0.000642123
0.00019884
-0.00808271
-0.00104453
-2.58117e-05
-0.0066416
-0.0012621
0.000320401
-0.00377536
-0.000243092
0.000940748
-0.00665189
-0.000362038
0.00106764
-0.00720132
-0.000893578
0.00102315
-0.00808853
-0.00124866
0.00083519
-0.00725458
-0.000993642
0.000344551
-0.00604768
-9.64547e-05
0.000270583
-0.00423388
-0.00015701
0.000390379
-0.00363586
-0.000228199
0.000653355
-0.00393435
-0.000538769
0.000778935
-0.00624685
-0.000871192
0.000695131
-0.00698098
-0.000912241
0.000532567
-0.0082274
-3.30192e-05
-1.29615e-05
-0.00242936
-6.63586e-05
-5.97592e-05
-0.00226186
-0.000102317
1.56218e-05
-0.00170701
-0.000210565
0.000151341
-0.00176103
-0.000275768
0.000263119
-0.00251486
-0.000364264
0.000338178
-0.00261987
-0.000429002
0.000234824
-0.00319769
3.2054e-06
-4.25941e-05
-0.000220687
5.30903e-06
-3.30696e-05
-0.000643637
-4.94716e-05
-1.4764e-05
-0.000208949
-7.24237e-05
-1.66687e-05
-0.000232223
-0.000107938
-3.37534e-05
-0.000991987
-0.000104427
-3.96285e-05
-0.0010829
-4.57218e-07
-4.25387e-05
-0.00131119
-3.42695e-05
-1.44381e-06
-0.00109809
-0.00194959
0.000275293
-0.00270118
-0.00146283
8.5695e-05
-0.0045234
-0.00175696
0.000116583
-0.00418324
-0.000569808
0.000475013
-0.00652295
-0.00146499
0.000176817
-0.00612105
-0.00136978
-2.95637e-05
-0.00561531
-0.000223152
0.000582654
-0.00773488
-0.00038153
0.00040535
-0.00696893
-0.00102794
1.72296e-05
-0.00781121
-0.00124252
-5.95921e-05
-0.00611912
-0.000424272
0.000783733
-0.0080636
-0.000396626
0.000586037
-0.00821971
-0.000888569
0.000214763
-0.0083283
-0.00112771
-0.000141368
-0.00630079
-0.00119925
0.000339307
-0.00390906
-0.000139258
0.00084346
-0.00634159
-0.000177071
0.000929298
-0.00649349
-0.000230321
0.00108074
-0.00725679
-0.000816193
0.00104424
-0.00802015
-0.0013698
0.00075278
-0.0071642
-0.00120282
0.000341136
-0.00609824
-6.38067e-05
0.000250054
-0.00485621
-8.71642e-05
0.000264612
-0.00408731
-0.00018672
0.000426978
-0.00332508
-0.000231187
0.000697647
-0.00383244
-0.000695188
0.000791991
-0.00592429
-0.000872908
0.000734136
-0.00667391
-0.00103619
0.000577252
-0.00819747
5.11784e-05
3.69274e-05
-0.00288014
-4.66486e-05
-1.55262e-05
-0.00242164
-8.54006e-05
-4.94955e-05
-0.00216081
-0.000109253
1.4158e-05
-0.00153299
-0.000190514
0.000128117
-0.00154345
-0.000204766
0.000230991
-0.00230734
-0.000294302
0.000310248
-0.00240145
-0.00046239
0.00023215
-0.00300172
3.4832e-05
-7.0684e-05
-0.000657256
1.52931e-06
-4.37221e-05
-0.000211563
4.12555e-06
-3.44781e-05
-0.000628048
-4.92731e-05
-1.50853e-05
-0.00016126
-7.07668e-05
-1.44485e-05
-0.000180761
-0.00010426
-2.87665e-05
-0.000898588
-9.70421e-05
-3.47105e-05
-0.000993686
7.16753e-06
-3.87473e-05
-0.00128105
-3.98544e-05
-2.5226e-06
-0.00105571
-0.00173611
-0.000220271
-0.00306238
-0.0014416
0.000269754
-0.00391394
-0.00202859
0.000215427
-0.00264497
-0.000690109
0.000213408
-0.00570021
-0.00150987
0.000168455
-0.0045304
-0.00191348
0.000177947
-0.00381748
-0.000233654
0.00059589
-0.0065693
-0.000653821
0.000472082
-0.00654592
-0.00150266
0.000296211
-0.0059721
-0.00147637
-8.77577e-07
-0.00538058
-0.000349718
0.000708353
-0.00782373
-0.000176788
0.000479353
-0.00802872
-0.00043176
0.00021945
-0.00762796
-0.00111539
7.41385e-05
-0.00795726
-0.00141065
0.000316018
-0.00622373
-0.000116441
0.000910113
-0.00824439
-5.92386e-06
0.000778283
-0.008427
-0.000286534
0.000734318
-0.00868305
-0.000834858
0.000209912
-0.00866091
-0.000927322
-1.96704e-05
-0.00638429
-0.00144929
0.000189828
-0.00385242
-0.000103808
0.00082708
-0.00646473
-0.000128207
0.000811181
-0.00618243
-0.000236402
0.000951518
-0.00631459
-0.000203284
0.00109678
-0.00733722
-0.0010401
0.00100616
-0.00792862
-0.001368
0.000926943
-0.00725491
-0.00139282
0.000438078
-0.00617969
4.35157e-05
0.000296877
-0.00530128
-0.000110327
0.000295358
-0.00482327
-6.9429e-05
0.000296661
-0.00397297
-0.000148299
0.000503795
-0.00309218
-0.000205166
0.000622743
-0.00364854
-0.000434765
0.000776499
-0.00573666
-0.000744237
0.00075244
-0.00639916
-0.00117621
0.000595067
-0.00807871
6.79921e-05
5.99807e-05
-0.00305647
2.97463e-05
3.83801e-05
-0.00296227
-6.74591e-05
-2.58532e-06
-0.00239697
-9.55768e-05
-4.44117e-05
-0.00205594
-0.000107331
6.71648e-06
-0.00137503
-0.000191196
0.00010221
-0.00132774
-0.000164934
0.000185505
-0.0021147
-0.000234381
0.000270607
-0.00219836
-0.000472619
0.000221636
-0.00279059
3.67504e-05
-8.46204e-05
-0.000449643
2.93382e-05
-7.08074e-05
-0.000659509
-3.48351e-06
-4.47505e-05
-0.000197807
3.34692e-06
-3.57959e-05
-0.000610685
-4.95554e-05
-1.54429e-05
-0.00011071
-6.79555e-05
-1.21647e-05
-0.000129408
-9.93399e-05
-2.47844e-05
-0.000809175
-9.03303e-05
-2.84107e-05
-0.000913692
1.2354e-05
-3.49006e-05
-0.00126103
-3.94499e-05
-4.61589e-06
-0.00101164
-0.00192367
9.74259e-05
-0.0022274
-0.00135343
-0.000198416
-0.00390734
-0.00183006
-0.000240475
-0.00302044
-0.00081333
0.00033822
-0.00478254
-0.00134599
0.000291557
-0.00415395
-0.00205745
0.000143314
-0.00264431
-0.000320213
0.000245909
-0.00584554
-0.000729475
0.000246198
-0.0057023
-0.00156428
0.000173909
-0.00446473
-0.00196011
0.000158229
-0.00349197
-0.00035635
0.000772669
-0.0065003
-0.000347853
0.000610436
-0.00653659
-0.000626908
0.000501459
-0.00655603
-0.00142144
0.00033008
-0.00599702
-0.00170987
-5.2157e-05
-0.00502921
-5.54543e-05
0.000830974
-0.00776762
4.41283e-05
0.000576605
-0.00797103
-0.000248977
0.000392958
-0.00823978
-0.00055881
0.000248209
-0.00807807
-0.000883388
0.000477489
-0.00816266
-0.00167277
0.000345875
-0.00634612
-7.67293e-05
0.00102064
-0.00804308
-0.00029796
0.000938617
-0.00823497
-0.000147197
0.000872302
-0.00865418
-0.000411592
0.000967536
-0.00923237
-0.000842008
0.000437904
-0.00931658
-0.000817924
0.000361705
-0.00710624
-0.0015963
4.01937e-05
-0.00368913
-8.96066e-05
0.000834754
-0.0066004
-0.000181915
0.000806362
-0.00638833
1.5584e-05
0.000795408
-0.00611133
-0.000160386
0.000973158
-0.00617888
-6.45812e-05
0.00107317
-0.00754482
-0.00031595
0.00109156
-0.00821206
-0.00138148
0.00110988
-0.00728947
-0.00152821
0.000528063
-0.00635575
0.000167965
0.000289277
-0.00550522
1.07892e-05
0.000321255
-0.00530822
-0.000157224
0.000271577
-0.00470842
-0.000156141
0.000327893
-0.0037365
-0.000110581
0.000432667
-0.00289886
-0.000217623
0.000628092
-0.00347371
-0.000356051
0.000704221
-0.00549732
-0.000711743
0.000737812
-0.00606454
-0.00124834
0.000551789
-0.00785479
7.33213e-06
7.29975e-05
-0.00298716
5.16914e-05
6.79383e-05
-0.00310838
-2.03718e-05
3.88519e-05
-0.00298682
-7.71277e-05
1.56255e-05
-0.00237653
-0.000105833
-3.64536e-05
-0.00195649
-0.000109454
-1.0413e-06
-0.00123028
-0.000189617
7.36416e-05
-0.0011256
-0.000144925
0.000127412
-0.00191691
-0.00018418
0.000216738
-0.00199693
-0.000456324
0.000208675
-0.00258239
1.94078e-05
-8.02182e-05
-0.000247494
3.17689e-05
-8.48065e-05
-0.000467412
2.1378e-05
-7.05942e-05
-0.000655043
-6.3498e-06
-4.58748e-05
-0.000181379
3.66915e-06
-3.71452e-05
-0.000592651
-4.92375e-05
-1.58169e-05
-5.78201e-05
-6.65082e-05
-1.08219e-05
-7.68621e-05
-9.32356e-05
-2.13927e-05
-0.000722957
-8.10108e-05
-2.57969e-05
-0.000841785
1.52516e-05
-3.1678e-05
-0.00124922
-3.55765e-05
-6.53957e-06
-0.000969528
-0.00184926
-7.86412e-05
-0.00223717
-0.00137588
9.54133e-05
-0.00325333
-0.00200801
0.000146439
-0.00219588
-0.000917952
-5.53033e-06
-0.00453544
-0.00137026
-0.000223428
-0.00390012
-0.00189651
-8.64086e-05
-0.00309497
-0.000405785
0.000493186
-0.00518294
-0.000764019
0.000386392
-0.00484283
-0.00161243
0.000285645
-0.00424813
-0.00201986
0.000162932
-0.0027475
-0.000382682
0.000329613
-0.00610313
-0.000409331
0.000291031
-0.0058289
-0.00081967
0.000255482
-0.00559111
-0.00135488
0.000213797
-0.00458686
-0.00198385
9.11228e-05
-0.0033091
-0.000216766
0.000954355
-0.00641891
-0.000161733
0.000806218
-0.00649022
-0.000292941
0.000575214
-0.00656638
-0.000743114
0.000475617
-0.00651726
-0.00129057
0.000286363
-0.00592836
-0.0018505
-0.000135735
-0.00471574
-7.54199e-06
0.000951477
-0.00733883
-0.000297236
0.000735188
-0.00792693
-9.54972e-05
0.000608518
-0.00823829
-0.000377822
0.000365818
-0.00839116
-0.000558046
0.000366529
-0.00825108
-0.000662871
0.000436806
-0.00840865
-0.00162467
0.000266924
-0.00658468
-0.000120635
0.00114705
-0.00755122
-0.000351825
0.000995178
-0.00792973
-0.000136755
0.00106928
-0.0082796
-0.000138855
0.00108657
-0.00879475
-0.000249042
0.00107701
-0.00968702
-0.000359654
0.00090165
-0.00981282
-0.000973913
0.000434555
-0.00790817
-0.00162603
0.000158009
-0.00374931
8.80768e-05
0.000775585
-0.00669509
-0.000123476
0.000815129
-0.0064749
-0.000193736
0.00075346
-0.00630987
-0.00020894
0.000796983
-0.00588236
2.00988e-06
0.00094847
-0.00616677
-5.05084e-05
0.00105805
-0.00767842
-0.000181481
0.00112893
-0.00840567
-0.00117883
0.00119232
-0.00748665
-0.00170576
0.000757504
-0.00665583
8.5433e-06
0.000295676
-0.0056864
0.000217666
0.000251798
-0.00560174
-7.89073e-05
0.000312783
-0.00529089
-0.000160687
0.000298939
-0.00459591
-0.000158816
0.000314142
-0.00356499
-4.28513e-05
0.000400024
-0.00273739
-0.000257085
0.000601039
-0.00330306
-0.00039764
0.000637635
-0.00514443
-0.000363096
0.000678439
-0.00601228
-0.00130335
0.000541819
-0.00754958
-8.11987e-05
7.99249e-05
-0.00273151
-3.2727e-05
7.13198e-05
-0.00292604
-3.95582e-06
6.4668e-05
-0.00310886
-3.11708e-05
5.4257e-05
-0.00300063
-0.000100362
2.42549e-05
-0.00233321
-0.00012957
-3.58575e-05
-0.00184134
-0.000104202
-1.11552e-05
-0.00110779
-0.000171489
3.73375e-05
-0.000957268
-0.000102906
7.37091e-05
-0.00175199
-0.000130138
0.000162303
-0.00180517
-0.000424638
0.000190517
-0.00238384
3.92375e-06
-7.37567e-05
0.00029495
2.15404e-05
-8.06652e-05
-0.000273176
3.14075e-05
-8.49616e-05
-0.000484453
1.45942e-05
-7.0373e-05
-0.000645139
-9.3225e-06
-4.73273e-05
-0.000161874
1.82924e-06
-3.85947e-05
-0.000571703
-4.49525e-05
-1.62608e-05
-7.42878e-06
-6.55237e-05
-9.8786e-06
-2.28524e-05
-8.66087e-05
-2.21506e-05
-0.000639995
-7.04536e-05
-2.36016e-05
-0.000779408
1.29406e-05
-3.03437e-05
-0.00123835
-3.28793e-05
-8.84248e-06
-0.000927807
-0.00154223
-0.000102869
-0.00263682
-0.00142741
-9.33908e-05
-0.00298347
-0.00182471
-2.45855e-05
-0.00239588
-0.000945311
9.08024e-05
-0.00385066
-0.00160245
0.000203905
-0.0030786
-0.00196965
0.000107262
-0.00223001
-0.000513016
8.37669e-05
-0.00479705
-0.00101699
2.24763e-06
-0.00450815
-0.00172347
-9.33316e-05
-0.00378215
-0.00184683
-0.000135022
-0.00313298
-0.000299613
0.000472328
-0.0053416
-0.000453375
0.000486389
-0.00523889
-0.000903976
0.000367115
-0.00484
-0.00144366
0.000292293
-0.00428871
-0.0018927
0.000140317
-0.00297897
-0.00039231
0.00049167
-0.00612403
-0.000326961
0.000371813
-0.00601868
-0.000369303
0.000366707
-0.00586376
-0.000814538
0.000251824
-0.00555771
-0.001364
0.000173508
-0.00459581
-0.00191851
8.66141e-05
-0.00332771
-7.86916e-05
0.00106245
-0.00628289
-0.000330737
0.000888113
-0.0064673
-2.57994e-05
0.000716092
-0.0067008
-0.000367829
0.000508893
-0.00660965
-0.000791277
0.000455635
-0.0064533
-0.00129344
0.000230906
-0.00566443
-0.00176971
-2.01468e-05
-0.00455056
3.70748e-05
0.000981204
-0.00674855
-0.000347272
0.00082692
-0.00743512
-0.000201362
0.000756054
-0.00800986
-0.000185328
0.000563427
-0.00838943
-0.000450542
0.000441299
-0.00826443
-0.00070391
0.000440745
-0.00791076
-0.000695939
0.000295954
-0.00871565
-0.00147924
3.00107e-05
-0.00676149
-8.22665e-05
0.00124748
-0.00711275
-0.000333258
0.00106814
-0.0074144
-0.000156436
0.00106166
-0.00795942
-0.000224443
0.00113317
-0.0083107
-7.17912e-05
0.00119369
-0.00883763
-0.000211661
0.00107705
-0.00970126
-0.000363308
0.00110275
-0.0102992
-0.00073217
0.000524646
-0.00872147
-0.00166909
0.000352736
-0.00413872
-8.85066e-05
0.000753618
-0.00680365
0.000131371
0.000776574
-0.00657024
-0.000170909
0.000770514
-0.00639996
-0.000225695
0.000702603
-0.00615048
-0.000211487
0.000800849
-0.00568207
0.000100445
0.000947746
-0.00619976
-0.000134455
0.000991963
-0.00766409
-0.000337518
0.001136
-0.00840947
-0.000571902
0.00137461
-0.00789495
-0.00187577
0.000752204
-0.00683562
-0.000225472
0.000280428
-0.00530737
-3.03544e-05
0.000248271
-0.00568525
2.36755e-05
0.000293319
-0.00560991
-0.000101408
0.000316266
-0.00523798
-0.000139177
0.000279588
-0.00452254
-4.5673e-05
0.000270122
-0.00351899
3.43373e-05
0.000420078
-0.00269497
-0.000174512
0.00053558
-0.00319798
-0.000361508
0.000575783
-0.00478317
-0.000318336
0.000604023
-0.00588628
-0.00122674
0.000509913
-0.0072574
-4.73765e-05
0.000102188
-0.00280764
-4.19316e-05
7.01942e-05
-0.00266691
-4.03307e-05
6.56238e-05
-0.00285526
-2.65462e-05
6.40265e-05
-0.00307749
-5.91438e-05
6.45997e-05
-0.00299115
-0.000103194
2.4135e-05
-0.00228817
-9.81985e-05
-3.90567e-05
-0.00176019
-7.52202e-05
-2.6229e-05
-0.00103453
-0.000143541
7.9923e-06
-0.000834619
-5.39552e-05
2.43413e-05
-0.00163052
-9.31452e-05
0.000115426
-0.00162399
-0.000407814
0.000159809
-0.00216872
-4.24918e-06
-6.90848e-05
0.00045859
4.50121e-06
-7.39976e-05
0.000283781
2.52183e-05
-8.12588e-05
-0.000302097
2.85133e-05
-8.513e-05
-0.000498209
1.01786e-05
-7.04095e-05
-0.000632236
-1.16893e-05
-4.96931e-05
-0.000139086
9.74489e-07
-4.02027e-05
-0.000548736
-4.06276e-05
-1.66585e-05
3.99787e-05
-6.36185e-05
-9.24656e-06
2.7862e-05
-7.96797e-05
-2.33171e-05
-0.000560599
-5.83277e-05
-2.37333e-05
-0.00072769
1.46459e-05
-3.10432e-05
-0.0012308
-2.91083e-05
-1.10711e-05
-0.000887627
-0.00164558
-4.70297e-05
-0.00266174
-0.00145851
-5.9772e-05
-0.00317026
-0.00158067
-0.00017544
-0.00270542
-0.001004
-2.362e-06
-0.00358864
-0.0014467
-0.000166197
-0.0029976
-0.00181202
-6.52744e-05
-0.00248824
-0.000613379
0.000225455
-0.00418374
-0.000984197
0.00016742
-0.00384696
-0.00170069
0.000190506
-0.00318463
-0.00199329
0.000151776
-0.00223532
-0.000486498
0.000255484
-0.00480295
-0.000589329
0.000112925
-0.00477178
-0.00113949
6.53286e-05
-0.0044313
-0.0016372
-6.31772e-05
-0.00366046
-0.00188511
-2.885e-05
-0.00311172
-0.000488107
0.000551589
-0.00527513
-0.000350008
0.000521494
-0.00535366
-0.000471481
0.000462103
-0.0052317
-0.000842224
0.000305889
-0.0048259
-0.00164819
0.000276079
-0.00414028
-0.00189708
0.000140934
-0.00314134
-0.000307482
0.000684612
-0.0060641
-0.000427088
0.000497189
-0.00615305
-0.000110335
0.000439475
-0.00600692
-0.00040186
0.000352303
-0.00593021
-0.000846465
0.000235704
-0.00556472
-0.0014493
0.000130609
-0.00448395
-0.00184487
5.70963e-05
-0.00330965
-2.11372e-05
0.00109668
-0.00609394
-0.000165908
0.000947257
-0.0065234
-0.000199857
0.00084042
-0.00659313
-0.000386777
0.000641263
-0.00663172
-0.000438819
0.000523828
-0.00668957
-0.000822162
0.000409843
-0.00651398
-0.00121654
0.000340908
-0.00550489
-0.0017495
7.46447e-05
-0.00435494
-0.000138102
0.00100968
-0.00654932
-0.000397065
0.000913369
-0.00677119
-0.00022582
0.000869986
-0.00747966
-0.000188129
0.000690987
-0.00817373
-0.000260689
0.000558934
-0.00831816
-0.000334795
0.000543947
-0.0082445
-0.000703768
0.00036224
-0.00763659
-0.000721658
0.000113515
-0.00880967
-0.0013245
-0.000308816
-0.00679726
-0.000273486
0.00127363
-0.00694149
-0.0002194
0.00120341
-0.00689724
-0.000172524
0.00103477
-0.00738589
-0.000234232
0.00107619
-0.0078939
-0.000306921
0.00119042
-0.008212
-0.000124858
0.00129199
-0.00882727
-0.000348536
0.00132397
-0.0097084
-0.000523798
0.000974949
-0.0105632
-0.000362952
0.000843522
-0.0094212
-0.00171964
0.000713968
-0.00500882
-0.000247467
0.000721365
-0.00704182
1.05942e-05
0.00078035
-0.00684837
-1.984e-05
0.000777108
-0.00653332
-0.000178104
0.000694515
-0.00631517
-0.000184047
0.000715292
-0.00602005
3.06805e-05
0.000780751
-0.00559142
0.000148484
0.000833064
-0.00615501
8.01302e-05
0.000997126
-0.00777986
-0.000348149
0.00112935
-0.00817757
-0.000183283
0.00139199
-0.00866979
-0.00173744
0.000608429
-0.00693334
-0.000189791
0.000271498
-0.00515794
-0.000122377
0.000233345
-0.005212
-8.20461e-05
0.000264421
-0.00561464
-5.79825e-06
0.000294411
-0.0056088
-0.000134403
0.000313993
-0.00519713
-0.000182866
0.000275231
-0.00444798
-0.000131006
0.000293984
-0.00336009
-7.02777e-05
0.000363247
-0.00252758
-0.000175977
0.000438607
-0.00302837
9.21606e-05
0.000489311
-0.00481458
-0.000227004
0.000489169
-0.00573168
-0.00116925
0.000431362
-0.00692732
-7.98184e-05
0.000146372
-0.00301022
-6.75073e-05
9.74606e-05
-0.0027629
-3.14941e-05
5.6585e-05
-0.00260116
-5.82468e-05
5.51978e-05
-0.00275967
-3.87548e-05
6.07992e-05
-0.00302476
-8.7184e-05
6.39827e-05
-0.0029555
-9.65139e-05
2.975e-05
-0.00225949
-9.27662e-05
-4.55198e-05
-0.00168876
-8.18938e-05
-2.34254e-05
-0.000984833
-0.00011196
-1.3655e-05
-0.000764343
-4.78842e-05
-1.60299e-05
-0.00150951
-6.35621e-05
7.78714e-05
-0.00146384
-0.000380692
0.000128915
-0.00194605
-5.39101e-05
-6.00793e-05
0.000206384
-7.77306e-06
-6.80315e-05
0.000460397
6.4172e-06
-7.42642e-05
0.000270369
2.33211e-05
-8.18584e-05
-0.000328689
1.59486e-05
-8.52878e-05
-0.000499279
6.92413e-07
-7.23077e-05
-0.000610314
-1.44824e-05
-5.25138e-05
-0.000112293
-3.74775e-07
-4.19564e-05
-0.000523063
-4.1612e-05
-1.72908e-05
8.9635e-05
-6.05541e-05
-8.64738e-06
7.37464e-05
-7.35559e-05
-2.42638e-05
-0.000486513
-4.68246e-05
-2.51612e-05
-0.000686748
1.64987e-05
-3.2286e-05
-0.00122608
-2.46194e-05
-1.30456e-05
-0.000849962
-0.00199561
0.000183556
-0.00191519
-0.00163799
0.000135267
-0.00277588
-0.00181597
1.40361e-05
-0.00244047
-0.0010854
0.000128422
-0.0033687
-0.00140242
-0.00011958
-0.00327041
-0.00176428
-5.30515e-05
-0.00270011
-0.00081237
0.000231495
-0.00369628
-0.000976891
-4.44586e-05
-0.00371768
-0.00153786
-0.000156753
-0.00306896
-0.00184903
-9.85801e-05
-0.00253392
-0.000642648
0.000409631
-0.00419063
-0.000563633
0.000174754
-0.00421677
-0.00103367
0.000186083
-0.00394835
-0.00163466
0.000192555
-0.00322795
-0.0020789
0.000217566
-0.00225909
-0.000743394
0.000459981
-0.00485437
-0.00053626
0.000268731
-0.0047725
-0.000620765
0.000188211
-0.00474538
-0.00113418
0.000137763
-0.00434029
-0.00165602
7.23659e-05
-0.00375384
-0.00191085
-5.46175e-05
-0.00304333
-0.000541702
0.000672022
-0.00531786
-0.000453175
0.000598931
-0.00532648
-0.000338876
0.000516225
-0.00517924
-0.000476015
0.000414544
-0.0052662
-0.000845633
0.000328834
-0.00487949
-0.00157177
0.000320474
-0.00419735
-0.00187896
0.000175639
-0.00328289
-0.000457824
0.000856215
-0.00587029
-0.000349822
0.000707479
-0.00609047
-0.000340421
0.000563176
-0.00613619
-0.000507491
0.000445153
-0.00597905
-0.00046217
0.000352461
-0.00602361
-0.000857576
0.000210264
-0.00560896
-0.00125529
7.44182e-05
-0.00446252
-0.00177448
0.000129715
-0.00341438
-0.000246692
0.00110497
-0.00608334
-0.000283447
0.00102256
-0.00628285
-0.000249567
0.000888135
-0.00654736
-0.000197056
0.000765447
-0.00670839
-0.000299446
0.000632611
-0.00670175
-0.000335358
0.000474283
-0.00675344
-0.00077936
0.000476959
-0.00657444
-0.00120185
0.000420436
-0.00537048
-0.0017458
7.90314e-05
-0.00401267
-0.000298314
0.00100515
-0.00674168
-0.000333521
0.000979475
-0.0065013
-0.000264619
0.000981915
-0.00679102
-0.00023556
0.000822058
-0.00760941
-0.000366553
0.000689521
-0.00824469
-0.00033537
0.000575551
-0.00813926
-0.000511817
0.000551569
-0.00827055
-0.000815467
0.000396467
-0.00762787
-0.000409982
-0.000131791
-0.00893966
-0.00145814
-0.000169688
-0.00688907
-0.000227192
0.00121413
-0.00700305
-0.000139394
0.00125027
-0.00683837
-0.000212028
0.0011125
-0.00678279
-0.000195594
0.00105415
-0.00734636
-0.000234193
0.00111214
-0.00776548
-0.000134229
0.00131542
-0.00807052
-0.000320435
0.00167292
-0.0087073
-0.000125923
0.00120649
-0.00973389
-0.000412553
0.00100795
-0.0106632
0.000101068
0.00138311
-0.0103747
-0.00162672
0.000282954
-0.00540249
-0.000252521
0.000705781
-0.00682252
-0.000155684
0.000735724
-0.00696389
-7.78787e-05
0.000780203
-0.00685563
2.34382e-05
0.000746441
-0.00661448
-0.000204191
0.000666141
-0.00619623
-0.000256777
0.000681041
-0.00584643
-0.000196611
0.000765733
-0.00545849
5.2632e-05
0.000820907
-0.0061017
-9.81755e-05
0.000953643
-0.00768195
0.000306565
0.00114422
-0.00814421
-0.000194597
0.00106184
-0.00915561
-0.00166621
0.000576355
-0.00701274
-0.000230883
0.000293384
-0.00521383
-0.00020916
0.000257309
-0.00504025
-0.000134664
0.00024815
-0.00509256
-0.000135162
0.000246056
-0.00548937
-4.94443e-05
0.00030017
-0.00558429
-0.000186896
0.000302404
-0.00512459
-0.000177697
0.000281498
-0.00435431
-0.000151625
0.000257317
-0.0031953
0.000172863
0.000306082
-0.00264981
-9.50823e-06
0.000338268
-0.00297977
-0.00030712
0.000370036
-0.00443621
-0.000164344
0.000386871
-0.00558641
-0.00114372
0.000361618
-0.00652591
1.29449e-06
0.00012276
-0.00392333
-0.000100681
0.000149075
-0.00296892
-7.12248e-05
9.4516e-05
-0.00272319
-3.59149e-05
4.13192e-05
-0.00252805
-0.000102381
4.03749e-05
-0.00262092
-6.40116e-05
5.75884e-05
-0.00295366
-0.000104554
6.87626e-05
-0.00290444
-8.84006e-05
3.35842e-05
-0.00225057
-9.81306e-05
-3.30031e-05
-0.00162267
-9.6389e-05
-2.57818e-05
-0.000936871
-9.64941e-05
-3.10223e-05
-0.000726412
-2.60778e-05
-4.75898e-05
-0.0014048
-2.01874e-05
5.02897e-05
-0.00134853
-0.000327417
9.97679e-05
-0.00174302
-7.42615e-05
-3.98008e-05
-0.000373614
-5.85772e-05
-5.80983e-05
0.000255028
-1.10154e-05
-6.70082e-05
0.000464157
4.35944e-06
-7.44564e-05
0.000258608
2.43764e-05
-8.26463e-05
-0.000355707
1.98664e-05
-8.65221e-05
-0.000504931
-4.00796e-06
-7.50539e-05
-0.000583765
-1.76034e-05
-5.56691e-05
-8.09769e-05
-1.6502e-06
-4.3869e-05
-0.000494835
-3.91422e-05
-1.78699e-05
0.000138
-5.7461e-05
-8.30599e-06
0.00011525
-6.82185e-05
-2.48254e-05
-0.00041863
-4.11378e-05
-2.67915e-05
-0.000651104
1.81966e-05
-3.32651e-05
-0.00122406
-1.98122e-05
-1.46691e-05
-0.000815481
-0.00178901
-1.01747e-05
-0.00214529
-0.00156574
0.00018955
-0.00277204
-0.00181593
0.00012278
-0.00203802
-0.00117227
0.000319649
-0.00308346
-0.00150187
0.00010723
-0.00276963
-0.0019163
8.04347e-05
-0.00236889
-0.00105051
0.000431584
-0.00343735
-0.00114031
1.14362e-05
-0.00333629
-0.00148821
-4.11875e-07
-0.0033727
-0.00173422
-8.14428e-05
-0.00273347
-0.000850415
0.000463255
-0.00375144
-0.000708944
0.000176857
-0.00377228
-0.00106252
-8.82383e-05
-0.00375735
-0.00149697
-0.00019052
-0.00311471
-0.00188176
-0.000164014
-0.00256705
-0.000835879
0.000522994
-0.00424698
-0.000661694
0.000342424
-0.00423286
-0.000725066
0.000224173
-0.00415055
-0.00120932
0.00022103
-0.00390168
-0.00161715
0.000236599
-0.00328585
-0.00202137
0.00023252
-0.00238109
-0.00073849
0.000641593
-0.00483875
-0.000768464
0.000486527
-0.00475688
-0.000513056
0.000309239
-0.00471935
-0.000606347
0.000224195
-0.00470148
-0.00106494
0.000247929
-0.00429655
-0.00157731
2.60617e-05
-0.00382898
-0.00190591
-4.09225e-05
-0.00297546
-0.000688364
0.00085937
-0.00538398
-0.000405422
0.00069519
-0.00535852
-0.000437767
0.000604372
-0.00531729
-0.000379895
0.000465448
-0.00535774
-0.000574141
0.000417114
-0.00524251
-0.000949032
0.000330319
-0.00479788
-0.00151436
0.000399976
-0.00416262
-0.00183751
0.000173628
-0.00339349
-0.000414121
0.000890904
-0.00591989
-0.000354903
0.000865473
-0.00595682
-0.000327699
0.000714878
-0.00616404
-0.000386666
0.000600756
-0.00610218
-0.000384304
0.000486873
-0.00602861
-0.000505755
0.00034129
-0.00598424
-0.000960918
0.000206455
-0.00555944
-0.00120996
9.72527e-05
-0.00442196
-0.00177529
0.000120167
-0.00350506
-0.000306826
0.00109383
-0.0061658
-0.000352976
0.00109442
-0.00613575
-0.000378087
0.000987011
-0.00626826
-0.000188193
0.000869167
-0.00669845
-0.000322329
0.000765276
-0.00688528
-0.000401864
0.000611225
-0.00677219
-0.000423059
0.000424272
-0.00678951
-0.000820197
0.000513881
-0.00666316
-0.00112518
0.000494526
-0.00507077
-0.00181247
6.86953e-05
-0.00372704
-0.000265669
0.00109861
-0.00687921
-0.000258679
0.000892533
-0.00653546
-0.000384254
0.00101294
-0.0063601
-0.000378259
0.000986907
-0.00677321
-0.000151006
0.000807805
-0.00781088
-0.000130297
0.000687735
-0.0083608
-0.0003841
0.000685926
-0.00820995
-0.000484348
0.000640028
-0.00815569
-0.000666953
0.000423111
-0.00792837
-0.000612233
5.12179e-05
-0.00844727
-0.00161789
-0.000229792
-0.00666811
-0.000179166
0.0010589
-0.006983
-0.000138209
0.00118915
-0.00695941
-0.000161983
0.00114652
-0.00678828
-0.000115782
0.00105499
-0.0066444
-0.0002237
0.00108715
-0.00730186
-0.000240366
0.00118111
-0.00764758
-0.000218927
0.00159272
-0.007968
-7.39695e-05
0.00147421
-0.00884842
-0.000392625
0.00150392
-0.0099354
-0.00018506
0.00117811
-0.00996661
-0.000328193
0.0010234
-0.0109815
-0.00152999
-1.52209e-05
-0.00552349
-0.000280603
0.000718287
-0.00671264
-0.00021315
0.000713651
-0.00679646
-0.000176754
0.000748792
-0.00689038
-0.000186565
0.000781112
-0.0068389
-7.76216e-05
0.000738631
-0.0066588
-0.000263111
0.000673445
-0.00611242
-0.000269704
0.000729566
-0.00571826
-4.82686e-05
0.000744323
-0.00548526
0.000205258
0.000813122
-0.00599358
9.54556e-05
0.000872874
-0.00751556
-0.000108792
0.000943099
-0.00822379
-0.000247629
0.0009375
-0.00943347
-0.00160485
0.000558523
-0.00711013
-0.000167667
0.000318322
-0.00539032
-0.000263769
0.000270923
-0.00506436
-0.000246595
0.000346454
-0.00496319
-0.0001683
0.000225566
-0.00493968
-0.00016683
0.000259518
-0.00538426
-0.000124857
0.000310157
-0.0055312
-0.000207988
0.000289308
-0.00502896
-0.000161508
0.000256425
-0.00428031
-0.000133419
0.000234705
-0.00308863
-0.000114093
0.000202339
-0.00249618
-0.000111784
0.000287248
-0.0028817
-8.07716e-05
0.00027689
-0.00427153
0.000120364
0.000287907
-0.00565325
-0.00108798
0.000306553
-0.00607189
-3.14108e-05
3.85411e-05
-0.00388042
-7.13758e-05
0.00011802
-0.00387947
-9.19676e-05
0.00015573
-0.00294919
-0.000101681
8.98521e-05
-0.00266568
-3.06236e-05
3.12237e-05
-0.0024639
-7.67626e-05
3.61803e-05
-0.00250288
-7.95003e-05
6.2762e-05
-0.00287217
-0.000134689
7.16099e-05
-0.00282538
-9.94291e-05
3.66533e-05
-0.00222245
-9.73057e-05
-3.01112e-05
-0.00156018
-7.38351e-05
-3.69211e-05
-0.000914598
-7.50235e-05
-4.43063e-05
-0.000722891
-5.46982e-06
-6.72173e-05
-0.00132296
1.84338e-05
1.52279e-05
-0.00126423
-0.000245031
7.16646e-05
-0.00158946
-3.66293e-05
-1.98442e-05
6.61829e-06