/*--------------------------------*- C++ -*----------------------------------*\
  =========                 |
  \\      /  F ield         | OpenFOAM: The Open Source CFD Toolbox
   \\    /   O peration     | Website:  https://openfoam.org
    \\  /    A nd           | Version:  7
     \\/     M anipulation  |
\*---------------------------------------------------------------------------*/
FoamFile
{
    version     2.0;
    format      ascii;
    class       surfaceScalarField;
    location    "4";
    object      phi_0;
}
// * * * * * * * * * * * * * * * * * * * * * * * * * * * * * * * * * * * * * //

dimensions      [0 3 -1 0 0 0 0];

internalField   nonuniform List<scalar> 
54125
(
-1.39043e-05
-1.82768e-06
-0.0013474
-0.000234428
0.00019145
-0.0036844
-4.67605e-07
-4.87223e-05
-0.00165051
-3.0924e-05
-1.55584e-07
-0.00131632
-0.000341975
0.00049526
-0.00762276
-0.000223524
0.000370651
-0.00351812
-0.000309943
0.000198787
-0.00360416
-0.000120677
-4.8285e-05
-0.00163015
-8.26788e-06
-4.80624e-05
-0.00159433
-2.96273e-05
7.03577e-07
-0.00128739
-0.000545956
0.000401583
-0.00571231
-0.000522768
0.000755523
-0.00783069
-0.000532081
0.000474169
-0.00787479
-0.00026496
0.000281245
-0.0034744
-0.000262422
0.000397029
-0.00346221
-0.000242107
0.000202234
-0.00359392
-0.000108976
-4.18687e-05
-0.0013983
-9.65661e-05
-4.77275e-05
-0.00153391
-8.87339e-06
-4.79282e-05
-0.00153683
-3.1424e-05
1.64501e-06
-0.00125761
-0.00124984
0.000399637
-0.00386268
-0.00101025
0.000636366
-0.0075269
-0.000727292
0.000333488
-0.00585058
-0.000422053
0.000762764
-0.00673133
-0.000564005
0.000724904
-0.00777985
-0.00051699
0.000449615
-0.00804952
-0.000177776
0.00014809
-0.00245232
-0.000206203
0.000321439
-0.00328917
-0.000299281
0.000365651
-0.00333522
-0.000321045
0.000216497
-0.00352079
-6.03613e-05
-1.68548e-05
-0.000365493
-0.000106863
-4.12645e-05
-0.0012979
-0.000119168
-4.73997e-05
-0.00141528
-5.05135e-06
-4.78388e-05
-0.00148229
-3.24786e-05
1.87974e-06
-0.00122701
-0.00120735
0.000237184
-0.00596606
-0.000649892
0.000362846
-0.0066986
-0.00116228
0.000262997
-0.0036907
-0.000607797
0.000883047
-0.00808889
-0.000942597
0.000662105
-0.00747693
-0.00084049
0.000254486
-0.00578157
-0.000202411
0.000608789
-0.00429525
-0.000467891
0.000772726
-0.00651747
-0.000737729
0.000693145
-0.00758493
-0.000732794
0.000496749
-0.00813452
-5.93678e-05
1.48078e-05
-0.00207225
-0.000180161
0.000163077
-0.00222066
-0.000280032
0.000293366
-0.00305603
-0.000339815
0.000356108
-0.00314007
-0.00033601
0.000231653
-0.00344892
-4.6719e-05
-1.35911e-05
-0.000296731
-6.55143e-05
-1.70482e-05
-0.000324195
-0.000108769
-4.0188e-05
-0.00119635
-0.000122168
-4.63802e-05
-0.00129457
-6.25635e-06
-4.72852e-05
-0.00142687
-3.39418e-05
1.60334e-06
-0.00119468
-0.00115382
-0.000209805
-0.00606502
-0.000715042
0.000600639
-0.00740158
-0.00107282
0.000199645
-0.00625516
-0.000379558
0.000348518
-0.00771769
-0.000645019
2.38354e-05
-0.00675702
-0.00118876
0.000323895
-0.00366632
-0.000426625
0.00101048
-0.00728169
-0.000750852
0.000982123
-0.00812595
-0.00125675
0.000645225
-0.00734864
-0.0010005
0.00041912
-0.00593298
-8.5586e-05
0.000390518
-0.00399604
-0.00022332
0.000619324
-0.00409868
-0.000499756
0.000779096
-0.00638369
-0.000755508
0.000680555
-0.00735304
-0.00078929
0.000508204
-0.00818944
-4.83006e-05
-6.44867e-05
-0.00236118
-8.249e-05
1.27437e-05
-0.00190494
-0.000187066
0.000159238
-0.00200824
-0.000297367
0.000276821
-0.00280154
-0.000363941
0.000353203
-0.00290393
-0.00037412
0.000232751
-0.00334149
5.42612e-06
-3.12555e-05
-0.000657896
-4.78286e-05
-1.41907e-05
-0.000251759
-6.93283e-05
-1.70438e-05
-0.000278011
-0.000109995
-3.80981e-05
-0.00109463
-0.000114278
-4.41517e-05
-0.00118342
-5.89277e-06
-4.57943e-05
-0.00137358
-3.01629e-05
1.40901e-07
-0.00116465
-0.00162717
3.88884e-05
-0.00470207
-0.00142846
0.00015329
-0.00646999
-0.00115621
-9.9833e-05
-0.0058818
-0.000312469
0.000465227
-0.00682307
-0.000857629
0.000575124
-0.00756445
-0.00114858
-0.00016387
-0.00613147
-0.000510377
0.000523545
-0.00783846
-0.000610789
0.000205731
-0.00803965
-0.00102388
-6.79836e-06
-0.0066592
-0.00125375
0.000329737
-0.0037428
-0.000224974
0.000941844
-0.00670078
-0.000395138
0.00106591
-0.00719366
-0.000903923
0.00101598
-0.00809254
-0.00123485
0.000834444
-0.00728462
-0.000985703
0.000353769
-0.00609034
-9.86103e-05
0.0002672
-0.00425836
-0.000149425
0.000382113
-0.0036919
-0.000217697
0.00064727
-0.00393623
-0.000514793
0.000778273
-0.00626398
-0.000860062
0.000688152
-0.00703687
-0.000895381
0.000526958
-0.00819514
-3.03064e-05
-1.3818e-05
-0.0024255
-6.36297e-05
-6.13286e-05
-0.0022713
-0.000100184
1.39622e-05
-0.00172881
-0.000209814
0.000149539
-0.00178114
-0.000285442
0.000261643
-0.00253882
-0.000368011
0.000337129
-0.0026462
-0.000417704
0.000232194
-0.00318614
3.85182e-06
-4.22278e-05
-0.000216122
5.76663e-06
-3.27793e-05
-0.000645074
-4.89326e-05
-1.46293e-05
-0.000205241
-7.16764e-05
-1.65803e-05
-0.000227853
-0.000108195
-3.42976e-05
-0.000996292
-0.000106971
-4.03219e-05
-0.00108192
-1.78031e-06
-4.33867e-05
-0.00132827
-3.17124e-05
-1.55149e-06
-0.00113139
-0.001944
0.000280943
-0.00270806
-0.00146075
7.87201e-05
-0.00453183
-0.00174403
0.000111184
-0.00422544
-0.000559165
0.000479097
-0.00651551
-0.00146083
0.000170497
-0.00613712
-0.00135435
-3.61281e-05
-0.00563989
-0.000225546
0.000586736
-0.00766862
-0.00037847
0.000421869
-0.00690213
-0.00101926
4.41708e-05
-0.00777712
-0.00123004
-5.93352e-05
-0.00609585
-0.000402015
0.000788676
-0.00804959
-0.000430005
0.000568397
-0.00816626
-0.000886567
0.000225581
-0.00828939
-0.00112781
-0.000140761
-0.00629574
-0.00118819
0.000341574
-0.00388188
-0.000145352
0.000848815
-0.00637375
-0.000187451
0.000928271
-0.00652511
-0.000232258
0.0010759
-0.00723902
-0.00079756
0.00104696
-0.00802229
-0.00136531
0.000766229
-0.00719184
-0.00117886
0.000330725
-0.00613759
-5.54601e-05
0.00024938
-0.00486813
-9.43636e-05
0.000259484
-0.00410499
-0.000190905
0.000420222
-0.00337413
-0.000233821
0.000692338
-0.00382629
-0.000686738
0.000789614
-0.00596415
-0.000887783
0.000725751
-0.00671589
-0.00101296
0.000567693
-0.00816758
5.57331e-05
3.48385e-05
-0.00286113
-4.35353e-05
-1.63874e-05
-0.00242114
-8.25373e-05
-5.10796e-05
-0.00217266
-0.000109756
1.28809e-05
-0.00155408
-0.000191797
0.000127946
-0.00156384
-0.000217721
0.000231887
-0.00232282
-0.000307701
0.000310571
-0.00241865
-0.000454984
0.000229763
-0.00299263
3.49251e-05
-7.02558e-05
-0.000652875
2.28297e-06
-4.33541e-05
-0.00020783
4.60211e-06
-3.42058e-05
-0.000630099
-4.87539e-05
-1.49577e-05
-0.00015811
-7.05904e-05
-1.48351e-05
-0.000176725
-0.000104728
-2.90614e-05
-0.000902824
-9.96e-05
-3.53652e-05
-0.000990344
5.1867e-06
-3.95539e-05
-0.00129546
-3.85852e-05
-2.53739e-06
-0.00109027
-0.00173241
-0.000218396
-0.00306281
-0.00144133
0.000271539
-0.00390735
-0.00202624
0.000223711
-0.00264956
-0.000688212
0.00021286
-0.00569966
-0.00150924
0.000164686
-0.00453692
-0.00190148
0.00017643
-0.00385474
-0.000228756
0.000598959
-0.00655807
-0.000654696
0.000470308
-0.00653909
-0.00150523
0.000286624
-0.0059739
-0.0014575
6.23062e-07
-0.00541306
-0.000334663
0.000715713
-0.00778163
-0.000183879
0.000496014
-0.00798889
-0.000423751
0.00022822
-0.007549
-0.00111481
6.85148e-05
-0.00791796
-0.00138513
0.000271094
-0.00617001
-0.000108184
0.000911326
-0.00823855
-6.46692e-05
0.000775353
-0.00837933
-0.000286288
0.000704931
-0.00859158
-0.000843697
0.000191625
-0.00857564
-0.00097271
-5.93819e-05
-0.00628738
-0.00142477
0.000213675
-0.00384964
-9.70341e-05
0.000829798
-0.00647454
-0.000146246
0.000815576
-0.00620918
-0.000243427
0.000944253
-0.00634094
-0.000225094
0.00109579
-0.00729658
-0.00105502
0.00101577
-0.00790355
-0.00138036
0.000887689
-0.00725622
-0.00137378
0.000433879
-0.00621064
5.33533e-05
0.000299228
-0.00530109
-0.000104012
0.000289052
-0.00483722
-5.78392e-05
0.000291677
-0.00400115
-0.000156536
0.000495914
-0.00313092
-0.000204617
0.00062049
-0.00364434
-0.00049021
0.000781724
-0.00574763
-0.000753276
0.000744736
-0.00644736
-0.00115314
0.00059223
-0.00806165
6.52941e-05
5.83438e-05
-0.00304061
3.47731e-05
3.83555e-05
-0.00294837
-6.47577e-05
-5.56366e-06
-0.0023973
-9.44729e-05
-4.59077e-05
-0.00206815
-0.000107
6.49817e-06
-0.00139622
-0.000191407
0.00010273
-0.001348
-0.000173795
0.00018841
-0.00212647
-0.000242742
0.000272994
-0.00221395
-0.000468282
0.000220465
-0.0027834
3.69489e-05
-8.43549e-05
-0.000449344
3.00082e-05
-7.04076e-05
-0.00065583
-2.7726e-06
-4.43939e-05
-0.00019487
3.74293e-06
-3.55317e-05
-0.000613268
-4.90223e-05
-1.53004e-05
-0.000108622
-6.76108e-05
-1.22557e-05
-0.00012592
-9.99688e-05
-2.5009e-05
-0.000813212
-9.31428e-05
-2.8948e-05
-0.000907807
1.12938e-05
-3.55537e-05
-0.00127374
-3.93182e-05
-4.51583e-06
-0.00104643
-0.00192088
9.66309e-05
-0.002232
-0.00135604
-0.000195819
-0.00390438
-0.00182676
-0.000243822
-0.00301847
-0.000814128
0.000338233
-0.00478371
-0.00134281
0.000294385
-0.00414445
-0.00205655
0.000147501
-0.00264199
-0.000314135
0.000242385
-0.00584801
-0.000722433
0.000243453
-0.0057107
-0.00156939
0.000170849
-0.00446717
-0.00195235
0.000159306
-0.00351919
-0.000354593
0.000773668
-0.00647341
-0.000355238
0.000616341
-0.00653274
-0.000621172
0.000500759
-0.00655581
-0.00142822
0.000329096
-0.00598897
-0.00169007
-4.2665e-05
-0.00506545
-4.33057e-05
0.00084598
-0.00774713
4.33164e-06
0.00058435
-0.00793896
-0.000237322
0.000400476
-0.00821011
-0.000556215
0.000235552
-0.00800352
-0.000930055
0.0004289
-0.00811843
-0.00166443
0.000358423
-0.00628877
-6.14749e-05
0.00102607
-0.00804099
-0.000294507
0.000930691
-0.00824562
-0.000142707
0.000850623
-0.00862574
-0.000426365
0.000938004
-0.00913668
-0.000885934
0.000400738
-0.00920484
-0.000819373
0.000309595
-0.00694429
-0.00158176
4.13821e-05
-0.00368305
-7.78176e-05
0.000834347
-0.00662252
-0.000175945
0.000813769
-0.0064008
2.87991e-05
0.000796346
-0.00614791
-0.000185309
0.000971694
-0.00618807
-7.73049e-05
0.00107572
-0.00748384
-0.000433477
0.00106848
-0.00814107
-0.00138563
0.00109401
-0.007284
-0.00151287
0.000503672
-0.00635459
0.000151921
0.000288408
-0.0054843
2.17364e-05
0.00031619
-0.00531519
-0.000153021
0.000270144
-0.00472743
-0.00015175
0.000323508
-0.00377147
-0.000114733
0.000433513
-0.00293621
-0.000208053
0.000627522
-0.00347349
-0.000373061
0.000713714
-0.00551735
-0.000742034
0.000739437
-0.00609527
-0.00122639
0.000560883
-0.00786442
9.00202e-06
7.31476e-05
-0.00299206
5.66855e-05
6.77587e-05
-0.00309669
-1.62098e-05
3.7022e-05
-0.00297752
-7.41512e-05
1.33434e-05
-0.00237865
-0.000102896
-3.75747e-05
-0.0019702
-0.00011011
-8.06866e-07
-0.00125018
-0.000191467
7.51814e-05
-0.00114327
-0.000153952
0.000131434
-0.0019241
-0.000192798
0.000221387
-0.00201078
-0.000452891
0.000208155
-0.00257799
1.95968e-05
-8.01533e-05
-0.000248275
3.20256e-05
-8.45461e-05
-0.000467231
2.20378e-05
-7.02043e-05
-0.000652057
-5.71815e-06
-4.55529e-05
-0.00017913
4.03993e-06
-3.68766e-05
-0.000595732
-4.89949e-05
-1.56508e-05
-5.62326e-05
-6.61893e-05
-1.08814e-05
-7.38581e-05
-9.40273e-05
-2.14277e-05
-0.000726705
-8.41398e-05
-2.60953e-05
-0.000833126
1.4955e-05
-3.21785e-05
-0.00126103
-3.56422e-05
-6.42901e-06
-0.00100436
-0.00185109
-7.48474e-05
-0.00223229
-0.00137521
9.3303e-05
-0.00325732
-0.00200529
0.000144937
-0.0021984
-0.000913213
-4.46945e-06
-0.00453544
-0.00136165
-0.000225809
-0.00390355
-0.00189576
-8.70681e-05
-0.00309219
-0.000404978
0.000494495
-0.00517821
-0.000757983
0.000389243
-0.00484302
-0.0016132
0.000287556
-0.0042407
-0.00202383
0.000166023
-0.00273653
-0.000385667
0.000329445
-0.00610473
-0.000414221
0.000283888
-0.00582946
-0.000817652
0.000256313
-0.00559968
-0.00136115
0.000212481
-0.00458742
-0.00198306
9.21399e-05
-0.00331834
-0.000212385
0.00095646
-0.00640985
-0.000187279
0.000810356
-0.00647582
-0.000285192
0.00058249
-0.0065666
-0.000730791
0.000475303
-0.00652744
-0.00129372
0.000288261
-0.00595623
-0.00184961
-0.000136674
-0.0047436
2.037e-05
0.000963929
-0.00731855
-0.000293065
0.000740457
-0.00790468
-8.9211e-05
0.000611149
-0.00820313
-0.00037027
0.000357568
-0.00838822
-0.000557654
0.00035003
-0.00825293
-0.000669892
0.000455894
-0.00836538
-0.00162909
0.000307993
-0.00654943
-0.000105985
0.00116189
-0.0075477
-0.00035398
0.000996344
-0.00792861
-0.000151085
0.00105741
-0.00827253
-0.000150011
0.00106317
-0.0087862
-0.000266964
0.00107475
-0.00962104
-0.000425236
0.000825637
-0.00972913
-0.000997702
0.000431
-0.00772184
-0.00162746
0.000119571
-0.00368803
6.7936e-05
0.000772315
-0.00672261
-0.000116283
0.000820979
-0.00649171
-0.000194317
0.000763689
-0.00632685
-0.000193631
0.000795207
-0.00592954
-1.78351e-05
0.000948632
-0.00615788
-3.88031e-05
0.00106379
-0.00764839
-0.000185951
0.00111733
-0.0083515
-0.00125958
0.00116542
-0.00742819
-0.00167295
0.0007378
-0.00664583
9.27434e-06
0.000289433
-0.00567818
0.000228295
0.000249479
-0.00558919
-6.97528e-05
0.000312612
-0.00530412
-0.000160796
0.000298179
-0.00461545
-0.000163306
0.000315631
-0.00359317
-6.25177e-05
0.000398823
-0.00275511
-0.000263631
0.000605705
-0.00329332
-0.000400156
0.000645864
-0.00517757
-0.000403701
0.000684556
-0.00600804
-0.0012913
0.000546142
-0.00757216
-8.28684e-05
8.12213e-05
-0.00274374
-2.89651e-05
7.21274e-05
-0.00293544
-3.38963e-08
6.46632e-05
-0.00310226
-2.98902e-05
5.16125e-05
-0.00299161
-9.84993e-05
2.3388e-05
-0.00233708
-0.000129879
-3.61369e-05
-0.00185399
-0.000104648
-1.04337e-05
-0.00112611
-0.000174712
3.95828e-05
-0.000970739
-0.000114144
7.81049e-05
-0.00175081
-0.000138022
0.000166725
-0.00181638
-0.000420888
0.000191664
-0.0023844
4.2008e-06
-7.37045e-05
0.000293033
2.12257e-05
-8.05889e-05
-0.000273458
3.06775e-05
-8.46794e-05
-0.000483434
1.50074e-05
-6.99937e-05
-0.000642624
-8.71457e-06
-4.69026e-05
-0.00016039
2.20756e-06
-3.83126e-05
-0.000575278
-4.49239e-05
-1.60702e-05
-6.11995e-06
-6.52974e-05
-9.88989e-06
-2.00985e-05
-8.7535e-05
-2.19659e-05
-0.000643299
-7.38252e-05
-2.37425e-05
-0.000767737
1.21448e-05
-3.05339e-05
-0.00124907
-3.30464e-05
-8.72281e-06
-0.000962593
-0.00154296
-0.000102592
-0.00262915
-0.00142524
-8.99043e-05
-0.00298187
-0.00182502
-2.39526e-05
-0.00238861
-0.000940269
8.9613e-05
-0.00385501
-0.00159662
0.000202569
-0.00307998
-0.00196946
0.000106595
-0.00223129
-0.00051007
8.44984e-05
-0.00479928
-0.00101013
2.35134e-06
-0.00451145
-0.00172134
-9.43976e-05
-0.00378808
-0.00184587
-0.000138087
-0.00313207
-0.000299225
0.000470732
-0.00533847
-0.000450167
0.000489373
-0.00524239
-0.000901925
0.000370069
-0.00484126
-0.00144052
0.00029333
-0.00428863
-0.00189544
0.000142429
-0.00296658
-0.000390279
0.000491355
-0.00612191
-0.000348861
0.000367214
-0.00602647
-0.000362132
0.000365941
-0.00586215
-0.000812381
0.000252928
-0.00555854
-0.00136478
0.000175756
-0.00459998
-0.001921
8.61274e-05
-0.00333308
-7.65311e-05
0.00106728
-0.00626026
-0.000333879
0.000894745
-0.00645343
1.44171e-06
0.000721128
-0.00670511
-0.000365808
0.00051216
-0.00660792
-0.000791924
0.00045688
-0.00646179
-0.00129445
0.000227357
-0.0056957
-0.00177132
-2.67866e-05
-0.00457458
5.05271e-05
0.000988043
-0.00672968
-0.000348066
0.000829997
-0.007414
-0.000216186
0.000758666
-0.00798709
-0.000178618
0.000563824
-0.00838078
-0.000451075
0.000426333
-0.00828041
-0.000695868
0.000444141
-0.00797054
-0.000701501
0.000330715
-0.0086843
-0.00149548
6.97173e-05
-0.00675113
-8.58911e-05
0.00125851
-0.00713155
-0.000333555
0.00108029
-0.00741437
-0.000163496
0.00105585
-0.00795788
-0.000210404
0.00112626
-0.00831884
-8.04439e-05
0.00117929
-0.00882814
-0.0002053
0.00106096
-0.00968987
-0.000350727
0.00110458
-0.0102379
-0.000802855
0.000491152
-0.00855015
-0.00167172
0.000304094
-0.00399334
-9.30066e-05
0.000747403
-0.00681247
0.000137231
0.000776008
-0.00658658
-0.000168917
0.000779134
-0.00640799
-0.000227191
0.000708389
-0.00617363
-0.000225922
0.000801653
-0.00571994
7.89066e-05
0.000956135
-0.00619166
-0.000148501
0.000990875
-0.00763707
-0.000317264
0.00113378
-0.00840276
-0.000666476
0.00133869
-0.00776631
-0.00186975
0.000768768
-0.00683615
-0.000233093
0.000278921
-0.0053144
-2.76568e-05
0.000248587
-0.00567859
3.97786e-05
0.000289524
-0.00560592
-9.9649e-05
0.000314969
-0.00525115
-0.000140347
0.000281256
-0.00453923
-5.40562e-05
0.000269821
-0.00353999
4.46567e-05
0.000420222
-0.00271893
-0.000175359
0.000545302
-0.00319211
-0.00043476
0.000585735
-0.00475813
-0.000328404
0.000619006
-0.00589052
-0.00122851
0.000521795
-0.00728633
-4.65995e-05
0.000102431
-0.00281344
-4.67848e-05
7.25006e-05
-0.0026761
-4.1445e-05
6.70565e-05
-0.00286571
-2.5704e-05
6.42641e-05
-0.0030742
-5.53947e-05
6.36124e-05
-0.00298516
-0.000104095
2.34055e-05
-0.00229032
-0.000100629
-3.88565e-05
-0.00176986
-7.58165e-05
-2.61336e-05
-0.00104987
-0.000148059
1.01674e-05
-0.000842278
-6.01273e-05
2.88214e-05
-0.00162661
-9.8603e-05
0.000118855
-0.00163282
-0.000404252
0.00016207
-0.00217527
-3.28395e-06
-6.92747e-05
0.000462798
4.4262e-06
-7.39536e-05
0.000281972
2.47751e-05
-8.11962e-05
-0.000301717
2.98439e-05
-8.48546e-05
-0.000498417
1.11107e-05
-6.98925e-05
-0.000630745
-1.11043e-05
-4.92114e-05
-0.000138387
1.44536e-06
-3.99096e-05
-0.000552884
-4.03578e-05
-1.64586e-05
4.08065e-05
-6.34607e-05
-9.21491e-06
3.06112e-05
-8.05915e-05
-2.30982e-05
-0.000563352
-6.13417e-05
-2.35315e-05
-0.000713398
1.35313e-05
-3.10497e-05
-0.00124027
-2.94962e-05
-1.09774e-05
-0.00092212
-0.00164035
-4.92271e-05
-0.00266712
-0.00145641
-5.90535e-05
-0.00316844
-0.00157857
-0.000174619
-0.00270098
-0.00100154
-1.43934e-06
-0.00358606
-0.00144639
-0.000163715
-0.00299235
-0.00181381
-6.35426e-05
-0.00248072
-0.00061531
0.00022681
-0.00418394
-0.000982608
0.000165896
-0.00384586
-0.00170123
0.000191097
-0.00318459
-0.00199117
0.000150516
-0.0022365
-0.00048318
0.000256228
-0.0048067
-0.00058608
0.000113099
-0.00477411
-0.00113771
6.29825e-05
-0.00443305
-0.00163454
-6.80069e-05
-0.00366414
-0.00188186
-3.08224e-05
-0.00311482
-0.000487527
0.00055094
-0.00527435
-0.00035074
0.00052029
-0.00536751
-0.000469943
0.000464159
-0.00522867
-0.000844117
0.000307414
-0.00482361
-0.00164499
0.000276064
-0.00414205
-0.00189727
0.000140977
-0.00313129
-0.000311164
0.000682106
-0.0060624
-0.000427966
0.000495731
-0.00615634
-8.67723e-05
0.000437741
-0.00601005
-0.000403097
0.000352082
-0.00592402
-0.000848364
0.000236822
-0.00556316
-0.0014507
0.000132782
-0.00449038
-0.00184755
5.49086e-05
-0.00331175
-2.08807e-05
0.00110014
-0.00607949
-0.000157871
0.000952285
-0.006508
-0.000206855
0.000843428
-0.00658506
-0.00038249
0.000646494
-0.00663557
-0.000441305
0.000525564
-0.00668638
-0.000823167
0.000405909
-0.00651304
-0.00121885
0.000330525
-0.00553566
-0.00175077
6.82187e-05
-0.00438751
-0.000131616
0.00101182
-0.00655419
-0.000390446
0.000912788
-0.00675558
-0.000225511
0.000871332
-0.00746465
-0.000178658
0.000696367
-0.00815138
-0.000256166
0.000558419
-0.00833714
-0.000330626
0.000534834
-0.00824578
-0.000698871
0.000363238
-0.00765492
-0.000748511
0.000139829
-0.00880876
-0.00133577
-0.000303292
-0.00678379
-0.000277213
0.00127586
-0.00695053
-0.000214464
0.00121767
-0.00691723
-0.000187484
0.00103674
-0.0073767
-0.000234256
0.0010731
-0.00789765
-0.000316427
0.00118164
-0.00823069
-0.000106551
0.00126004
-0.00884175
-0.000358702
0.00132109
-0.00969617
-0.000520392
0.0009855
-0.0105292
-0.000426002
0.000780607
-0.00926714
-0.00173247
0.000726509
-0.00485713
-0.000250655
0.000717709
-0.00705128
2.87831e-06
0.00077595
-0.00684294
-1.56641e-05
0.000777344
-0.00652935
-0.000174444
0.000705796
-0.00633061
-0.000182987
0.000716986
-0.00604633
1.77739e-05
0.000781323
-0.00561696
0.00014918
0.000841172
-0.00614648
8.51023e-05
0.000991505
-0.00775525
-0.000446661
0.00111919
-0.00817135
-0.000202907
0.00141308
-0.00853612
-0.00175023
0.000637592
-0.00695202
-0.000189286
0.000274993
-0.00516697
-0.000136674
0.000235745
-0.00521167
-7.75692e-05
0.00026358
-0.00561652
-3.44559e-06
0.000291477
-0.00560469
-0.000128974
0.00031439
-0.0052107
-0.00018217
0.000274856
-0.00446619
-0.000127243
0.000294298
-0.00338746
-6.30952e-05
0.000368347
-0.00255469
-0.00018678
0.000448222
-0.00301588
0.000119153
0.00050407
-0.00482248
-0.000252424
0.000507229
-0.00572214
-0.00116202
0.000444454
-0.00697301
-7.20113e-05
0.000145311
-0.0030092
-6.58507e-05
9.83473e-05
-0.00276901
-3.38549e-05
5.96013e-05
-0.00261001
-5.40888e-05
5.74426e-05
-0.00277496
-3.66245e-05
6.09398e-05
-0.00302379
-8.41281e-05
6.31891e-05
-0.00295192
-9.79827e-05
2.88683e-05
-0.00225861
-9.27349e-05
-4.631e-05
-0.00169731
-8.04942e-05
-2.36174e-05
-0.000999053
-0.000115309
-1.1578e-05
-0.00076716
-5.19487e-05
-1.20898e-05
-0.00150505
-7.06689e-05
8.10259e-05
-0.00146758
-0.000380715
0.0001312
-0.00195525
-5.36589e-05
-6.05057e-05
0.000215622
-6.82715e-06
-6.82388e-05
0.00046391
6.62222e-06
-7.42335e-05
0.000268387
2.30393e-05
-8.1803e-05
-0.000327808
1.64354e-05
-8.49762e-05
-0.000499768
1.61175e-06
-7.16528e-05
-0.000609915
-1.38594e-05
-5.19943e-05
-0.000112443
-2.82294e-07
-4.16589e-05
-0.000527401
-4.12687e-05
-1.70657e-05
8.9926e-05
-6.04431e-05
-8.58156e-06
7.65376e-05
-7.42549e-05
-2.4033e-05
-0.000488595
-4.93681e-05
-2.48585e-05
-0.000670221
1.54416e-05
-3.23875e-05
-0.0012343
-2.52192e-05
-1.29894e-05
-0.000883911
-0.00199406
0.000184085
-0.00191647
-0.00163872
0.000134237
-0.00277614
-0.0018115
1.14758e-05
-0.00244567
-0.00108375
0.00013006
-0.00336802
-0.00140082
-0.00012171
-0.00326692
-0.00176265
-5.51365e-05
-0.00269701
-0.000814754
0.000232206
-0.00369544
-0.000975594
-4.22598e-05
-0.00371453
-0.00153836
-0.000155015
-0.00306374
-0.00184956
-9.58109e-05
-0.00252652
-0.000642028
0.000411651
-0.00419073
-0.000560391
0.00017496
-0.00421869
-0.0010308
0.000186842
-0.00394852
-0.00163507
0.000192751
-0.0032263
-0.00207788
0.00021733
-0.00225782
-0.00074113
0.000460069
-0.00485852
-0.000536083
0.000268485
-0.00477674
-0.000619922
0.000186816
-0.00474797
-0.00113415
0.000133516
-0.00434454
-0.0016581
7.08858e-05
-0.00375274
-0.00190925
-5.62664e-05
-0.00304658
-0.000545542
0.000672251
-0.00532106
-0.000455142
0.000597103
-0.00532399
-0.000332639
0.000520344
-0.00517783
-0.000474105
0.000416688
-0.00526694
-0.000840477
0.000328379
-0.00488381
-0.0015729
0.000317671
-0.00419655
-0.00187942
0.000173598
-0.00327302
-0.000461459
0.000851179
-0.00587262
-0.000349106
0.000708454
-0.00608389
-0.000347931
0.000558673
-0.0061362
-0.000507038
0.000443786
-0.00597721
-0.000460687
0.000352775
-0.00602059
-0.00085234
0.000210775
-0.00561198
-0.00126172
7.41162e-05
-0.00446671
-0.0017771
0.000126066
-0.00341149
-0.000243709
0.00110596
-0.00608125
-0.000274864
0.00102543
-0.00626822
-0.000245315
0.000890181
-0.00653495
-0.000191193
0.000769873
-0.0066959
-0.000298966
0.000634609
-0.00670181
-0.000340628
0.000479704
-0.00675017
-0.000781209
0.000467024
-0.0065672
-0.00120436
0.000411629
-0.00542323
-0.00174347
7.50579e-05
-0.00405487
-0.000296671
0.00101642
-0.00675635
-0.000326209
0.000976843
-0.0065065
-0.00027209
0.000980966
-0.00678061
-0.000253249
0.000829032
-0.00757833
-0.000375425
0.000690331
-0.0082243
-0.00032733
0.000564549
-0.00814608
-0.000510048
0.000551693
-0.00828289
-0.00082222
0.000393595
-0.00760686
-0.000411684
-0.000139768
-0.0089866
-0.00144599
-0.000171115
-0.00689915
-0.000237471
0.00120207
-0.0070127
-0.000145584
0.00126081
-0.00684521
-0.000225363
0.0011229
-0.00679369
-0.000191233
0.00105166
-0.00733847
-0.000232424
0.00110999
-0.00777656
-0.000146411
0.00127976
-0.00808623
-0.000326715
0.00166079
-0.00870555
-0.000124566
0.00119968
-0.00970069
-0.000447118
0.000999903
-0.010748
0.000118043
0.00136085
-0.0102224
-0.00164028
0.000368563
-0.00533564
-0.000269858
0.00070445
-0.00681544
-0.000175868
0.000730839
-0.00696698
-6.72867e-05
0.000777542
-0.00685342
3.01265e-05
0.000751035
-0.00660816
-0.000196701
0.000667649
-0.00621354
-0.000256212
0.000678405
-0.00586937
-0.00020697
0.000769448
-0.00546551
7.16288e-05
0.000822142
-0.00611184
-9.76863e-05
0.000961111
-0.00768626
0.000325996
0.00115933
-0.00812444
-0.000201104
0.00111
-0.00905985
-0.00167297
0.000581305
-0.00702238
-0.000222097
0.000294556
-0.00521668
-0.000210389
0.000247744
-0.00503443
-0.000135981
0.000248469
-0.00509444
-0.000130157
0.000244389
-0.00549337
-3.90355e-05
0.000297334
-0.00558522
-0.000181734
0.000304206
-0.00514245
-0.000182354
0.000282163
-0.00436968
-0.000150145
0.000261259
-0.00322296
0.000153334
0.000313021
-0.00265332
-1.96764e-05
0.000348609
-0.00295605
-0.000298619
0.000385677
-0.00445426
-0.000192498
0.000402868
-0.00555872
-0.00114152
0.000371148
-0.00658335
3.01745e-06
0.00012123
-0.00391692
-0.000100861
0.000147776
-0.0029646
-6.80186e-05
9.5043e-05
-0.00272981
-3.71917e-05
4.37237e-05
-0.00253606
-0.000102103
4.18549e-05
-0.00263734
-6.29344e-05
5.6723e-05
-0.00295278
-0.000101914
6.75927e-05
-0.00290259
-8.91903e-05
3.25529e-05
-0.00224857
-9.79811e-05
-3.3834e-05
-0.00163038
-9.75028e-05
-2.5172e-05
-0.0009484
-9.92191e-05
-2.95276e-05
-0.000724758
-3.19749e-05
-4.39704e-05
-0.00139745
-2.72315e-05
5.28072e-05
-0.00134651
-0.000332898
0.000102006
-0.00174958
-7.50515e-05
-3.99633e-05
-0.000360825
-5.82118e-05
-5.85154e-05
0.00026411
-1.003e-05
-6.72297e-05
0.000466936
4.73249e-06
-7.44496e-05
0.000256301
2.38872e-05
-8.25913e-05
-0.00035408
1.8976e-05
-8.60984e-05
-0.000504299
-3.52379e-06
-7.43747e-05
-0.000584011
-1.6854e-05
-5.51414e-05
-8.21061e-05
-1.44396e-06
-4.3569e-05
-0.000499454
-3.90167e-05
-1.76443e-05
0.000138005
-5.73838e-05
-8.20914e-06
0.000118098
-6.91134e-05
-2.46101e-05
-0.00041973
-4.285e-05
-2.65802e-05
-0.000633178
1.72065e-05
-3.33232e-05
-0.00123118
-2.06764e-05
-1.46871e-05
-0.000848547
-0.0017932
-7.62777e-06
-0.00213908
-0.00156688
0.000189479
-0.00276841
-0.00181829
0.000124114
-0.0020338
-0.00117217
0.000319923
-0.00308173
-0.00150189
0.000106034
-0.00276964
-0.00191663
7.94044e-05
-0.00237109
-0.00105122
0.00043265
-0.00343702
-0.00113801
1.0504e-05
-0.00333782
-0.00148708
-4.08288e-06
-0.00336925
-0.00173429
-8.17209e-05
-0.00273056
-0.000851121
0.000463864
-0.00375082
-0.000704179
0.000178117
-0.00377203
-0.00105752
-8.52735e-05
-0.00375756
-0.00149926
-0.000188391
-0.00310697
-0.0018848
-0.000160612
-0.00255898
-0.000835394
0.000524465
-0.00424641
-0.00066069
0.000343147
-0.00423431
-0.000720427
0.000223044
-0.00415439
-0.00120681
0.000220643
-0.00390374
-0.00161859
0.000235332
-0.00328382
-0.00202386
0.00023559
-0.0023788
-0.000741422
0.000641267
-0.00484032
-0.000769311
0.000486331
-0.0047622
-0.000510938
0.000309237
-0.00472087
-0.000605671
0.000222291
-0.00470518
-0.00105919
0.0002463
-0.00430124
-0.00157774
2.40147e-05
-0.00382818
-0.00190483
-4.3125e-05
-0.00297805
-0.000689901
0.000858977
-0.00538509
-0.000409039
0.000694481
-0.0053585
-0.000436115
0.00060479
-0.00532025
-0.000381124
0.000467665
-0.00535472
-0.000570213
0.000417741
-0.00524678
-0.000945501
0.000329937
-0.00480291
-0.0015154
0.000394629
-0.0041639
-0.00183816
0.000174807
-0.00338678
-0.000413187
0.000887208
-0.00592437
-0.000353125
0.000864723
-0.00595063
-0.000328609
0.000714113
-0.00615604
-0.000383107
0.000600469
-0.00610097
-0.000383582
0.000483936
-0.00602376
-0.000501975
0.000343396
-0.00599186
-0.000957596
0.000206907
-0.00556838
-0.00121
9.4794e-05
-0.0044298
-0.00177651
0.000126142
-0.00350459
-0.000299008
0.00109354
-0.0061728
-0.000345706
0.00109496
-0.00613128
-0.00037982
0.000988155
-0.00625847
-0.000203312
0.00086764
-0.00668265
-0.000325505
0.000768105
-0.00687932
-0.000400887
0.000615795
-0.00676435
-0.000415505
0.000418675
-0.00679636
-0.000817869
0.000508481
-0.0066684
-0.00112164
0.000496403
-0.00513462
-0.00180758
6.22335e-05
-0.00375551
-0.00028532
0.00111209
-0.00687806
-0.000258231
0.00089436
-0.00656122
-0.00037733
0.00100635
-0.00637992
-0.00037841
0.000989506
-0.00675391
-0.000153243
0.000810562
-0.00777774
-0.00014006
0.000680488
-0.00834659
-0.000373188
0.000673194
-0.00822111
-0.000478944
0.000630384
-0.0081653
-0.000688162
0.000414553
-0.00792013
-0.000562465
6.33938e-05
-0.0085406
-0.00161256
-0.000240564
-0.00668632
-0.000202602
0.00104559
-0.00699242
-0.000145554
0.00118937
-0.00697157
-0.000149597
0.00115992
-0.00679992
-0.000108227
0.00105489
-0.00665856
-0.000215602
0.00109137
-0.00730095
-0.000255596
0.00116079
-0.00765821
-0.00024394
0.00156324
-0.00795171
-7.44058e-05
0.00147208
-0.00883192
-0.000372074
0.00150774
-0.00993414
-0.000226991
0.00115868
-0.00999283
-0.000280758
0.00112816
-0.0109024
-0.00155479
2.72867e-05
-0.0054811
-0.000279225
0.000718354
-0.00670438
-0.000217183
0.000708938
-0.00678674
-0.000175041
0.000744495
-0.00689487
-0.000176173
0.000778743
-0.00683511
-4.84878e-05
0.000738798
-0.00666985
-0.000263075
0.000670385
-0.00612418
-0.000273072
0.000727289
-0.00573649
-4.3991e-05
0.000746535
-0.00549606
0.000154645
0.000821587
-0.00597363
7.22334e-05
0.000887938
-0.00750679
-9.23863e-05
0.000960764
-0.00818144
-0.000263785
0.000938981
-0.00934624
-0.00161011
0.000562256
-0.00711605
-0.000160799
0.000315672
-0.00539668
-0.000269512
0.000261384
-0.00506167
-0.000238151
0.000349711
-0.00496554
-0.000166026
0.000226089
-0.0049473
-0.000163149
0.000256325
-0.00539131
-0.000116643
0.000310966
-0.00553827
-0.000203332
0.000294043
-0.00505291
-0.000161268
0.000262284
-0.00429863
-0.000142759
0.000240818
-0.00310598
-0.00011044
0.000209608
-0.00250138
-0.000101639
0.000298096
-0.00286605
-0.000114909
0.000292899
-0.00426135
5.12408e-05
0.000305176
-0.00557122
-0.00110112
0.000311929
-0.00612706
-2.9459e-05
3.69553e-05
-0.00389064
-6.38575e-05
0.000118444
-0.00388194
-8.57845e-05
0.000154241
-0.00294804
-9.99668e-05
9.08507e-05
-0.00267224
-3.37751e-05
3.33225e-05
-0.00246987
-8.17241e-05
3.60493e-05
-0.00251596
-7.46316e-05
6.35178e-05
-0.00287759
-0.000130683
7.09626e-05
-0.00282717
-9.91718e-05
3.68008e-05
-0.00222148
-9.8028e-05
-2.99268e-05
-0.00156661
-7.45193e-05
-3.68604e-05
-0.000923931
-7.70574e-05
-4.25172e-05
-0.000718268
-9.40876e-06
-6.49527e-05
-0.00131313
8.95356e-06
1.85695e-05
-0.00125482
-0.000257327
7.36856e-05
-0.00158661
-3.59875e-05
-1.9889e-05