/*--------------------------------*- C++ -*----------------------------------*\
  =========                 |
  \\      /  F ield         | OpenFOAM: The Open Source CFD Toolbox
   \\    /   O peration     | Website:  https://openfoam.org
    \\  /    A nd           | Version:  7
     \\/     M anipulation  |
\*---------------------------------------------------------------------------*/
FoamFile
{
    version     2.0;
    format      ascii;
    class       volVectorField;
    location    "4";
    object      U;
}
// * * * * * * * * * * * * * * * * * * * * * * * * * * * * * * * * * * * * * //

dimensions      [0 1 -1 0 0 0 0];

internalField   nonuniform List<vector> 
18750
(
(0.838143 -0.330328 0.92745)
(2.6176 0.600533 0.167948)
(1.02698 -0.894137 -0.983846)
(0.777123 -0.439817 0.989268)
(5.28046 1.43142 0.594444)
(2.53494 1.05667 2.42102)
(2.69212 0.881845 0.264092)
(1.2377 1.11373 -1.03248)
(0.957012 -0.881969 -0.976501)
(0.769961 -0.499718 1.00782)
(3.83121 0.232936 0.367325)
(5.39547 0.470278 3.32642)
(5.49877 1.15962 0.617208)
(2.60742 1.06358 2.79775)
(2.59064 1.05803 2.40829)
(2.70997 0.713557 0.307946)
(1.11676 0.949407 -0.937317)
(1.23207 1.08062 -1.03933)
(0.854614 -0.929538 -0.95771)
(0.667924 -0.599646 1.01545)
(2.9188 2.17292 0.338019)
(5.31838 2.29121 1.80281)
(4.11381 0.976199 0.183985)
(4.69512 0.855605 3.07821)
(5.4418 0.390984 3.00253)
(5.73328 -0.0949121 0.925194)
(1.83892 0.937937 1.39905)
(2.25472 0.188831 3.18286)
(2.58166 0.874529 2.41839)
(2.76232 0.679528 0.478786)
(0.358445 0.813551 -0.794185)
(1.1049 0.915878 -0.90051)
(1.22985 1.02642 -1.07349)
(0.739215 -1.00536 -0.935462)
(0.597637 -0.682966 0.996924)
(4.18963 2.38576 -0.755494)
(4.41193 1.96776 1.30375)
(2.88574 1.9129 0.527746)
(5.73531 1.22943 1.98812)
(5.48231 1.98073 1.55139)
(4.36576 1.30904 0.103949)
(3.01025 0.416236 3.2362)
(4.64359 0.742194 3.08091)
(5.4634 0.544949 2.68601)
(5.89777 0.525275 1.52366)
(1.46144 0.122381 0.678996)
(1.68673 0.721426 1.66466)
(2.35822 0.766159 2.72091)
(2.50462 0.718564 2.44667)
(2.76599 0.648461 0.667306)
(0.289725 0.656929 0.0639667)
(0.389017 0.83334 -0.813873)
(1.09172 0.886944 -0.851077)
(1.22091 0.965031 -1.10933)
(0.644179 -1.03891 -0.91739)
(0.522088 -0.765218 0.960025)
(4.24637 1.02773 -0.239763)
(4.99966 -0.225907 1.5513)
(4.57768 1.80347 -0.817419)
(5.21994 0.724328 0.337559)
(5.0759 1.27724 0.523275)
(3.02499 1.75252 0.625346)
(4.98441 0.344368 3.07376)
(5.71569 1.00457 2.49683)
(5.52834 2.32882 1.30751)
(4.58489 1.66344 0.0700026)
(2.67257 0.102205 1.92176)
(2.93017 0.379287 3.34187)
(4.64086 0.629021 3.14937)
(5.49242 0.698644 2.52548)
(6.01934 0.125159 1.57997)
(1.63057 0.0307624 -0.480784)
(1.36702 0.111431 0.643416)
(1.61951 0.694681 1.58902)
(2.26659 0.674816 2.62643)
(2.41224 0.652953 2.44333)
(2.82511 0.622445 0.699808)
(0.437248 -0.254584 -0.665933)
(0.3016 0.627781 0.0704351)
(0.422163 0.842821 -0.825091)
(1.07203 0.861632 -0.775969)
(1.21183 0.900202 -1.10884)
(0.534711 -1.07164 -0.898846)
(0.370517 -0.904187 0.874277)
(3.38767 1.49998 0.24266)
(4.63515 1.69077 -0.328572)
(4.19149 0.598448 0.053244)
(4.57343 -0.11938 0.80095)
(5.01142 -0.105523 1.37197)
(4.68724 1.52153 -0.301278)
(5.32278 0.830046 0.976183)
(5.6533 1.00846 -0.499414)
(5.10129 2.02313 0.757664)
(3.06678 1.7955 0.736821)
(4.47317 -0.0822415 2.93655)
(4.86606 -0.0457333 3.27382)
(5.66476 0.664131 2.8302)
(5.73411 1.58098 2.24143)
(4.93313 1.59552 0.0552783)
(2.85799 0.0343212 1.35629)
(2.62274 0.106621 1.92489)
(2.83958 0.322375 3.38874)
(4.65211 0.502934 3.22462)
(5.40052 0.602421 2.54915)
(6.13837 0.0565292 1.53271)
(1.65027 0.0626993 -0.376352)
(1.56292 -0.00736529 -0.465537)
(1.26343 0.0883414 0.629126)
(1.50912 0.64523 1.48096)
(2.05311 0.415216 2.59889)
(2.29066 0.563289 2.43197)
(2.85206 0.606976 0.737221)
(0.157474 -0.0298717 -0.613196)
(0.403737 -0.316954 -0.698128)
(0.305753 0.594366 0.0774931)
(0.435704 0.843933 -0.812163)
(1.05644 0.818172 -0.687884)
(1.20048 0.844817 -1.06314)
(0.435875 -1.08894 -0.885129)
(0.324967 -0.870305 0.799416)
(2.0507 2.42794 0.113371)
(3.19772 1.79875 -0.121416)
(3.27436 1.52021 0.210805)
(4.4286 0.412148 0.710061)
(4.47511 1.53131 -0.291627)
(4.06151 0.626467 0.0315881)
(5.10862 0.141274 0.862629)
(4.55153 -0.158404 0.738931)
(5.40388 -0.0866202 -0.391216)
(4.68711 1.32042 -0.0126903)
(5.35441 0.258795 1.48405)
(5.3694 0.155702 1.32343)
(5.81995 1.2477 -0.869136)
(5.08181 1.93305 0.636807)
(3.3472 1.12817 1.04156)
(4.25486 -0.019732 2.64601)
(4.50113 -0.0769317 3.04407)
(4.89808 -0.45379 3.19546)
(5.8875 0.335885 2.90132)
(5.87322 1.80763 1.80636)
(5.35622 1.65419 -0.316445)
(3.24678 -0.223918 0.920696)
(2.81505 -0.0365036 1.29618)
(2.61948 0.0991188 2.07847)
(2.88322 0.399364 3.35357)
(4.48998 0.302393 3.31486)
(5.21914 0.361046 2.78175)
(6.37567 -0.0377921 1.47404)
(1.8902 -0.232669 0.202539)
(1.64636 0.00961253 -0.348397)
(1.51498 -0.0298763 -0.433313)
(1.16818 0.0792317 0.593118)
(1.39799 0.564277 1.28992)
(1.86321 0.183197 2.37828)
(2.11458 0.355564 2.4032)
(2.81692 0.546319 0.818567)
(0.402024 -0.559863 -1.21132)
(0.144285 -0.0517328 -0.651918)
(0.365446 -0.369173 -0.724167)
(0.303647 0.554525 0.0820813)
(0.446067 0.812719 -0.721884)
(1.03358 0.771914 -0.585455)
(1.19142 0.776794 -0.974376)
(0.363322 -1.09131 -0.881452)
(0.345255 -0.746098 0.762428)
(2.18386 1.50374 -0.0268107)
(2.7447 1.46204 0.562576)
(2.1875 2.41649 0.0565979)
(3.83046 0.369264 0.356448)
(3.35042 1.62512 0.0931449)
(3.111 1.76833 0.361569)
(4.33438 -0.247471 0.804153)
(4.44305 0.122233 0.772239)
(4.43899 1.35061 -0.0883586)
(4.04581 0.633253 -0.0302409)
(5.15808 0.443963 1.25839)
(5.19467 -0.44683 0.725714)
(4.9745 -0.184507 0.502815)
(5.44322 -0.207385 -0.252434)
(4.87961 1.09192 -0.0809808)
(5.47908 -0.30728 2.04719)
(5.429 -0.79251 1.46346)
(5.66816 -0.85965 1.75003)
(6.17832 0.319668 -1.27606)
(5.03014 1.67676 0.421285)
(3.53098 1.57051 0.948915)
(4.36342 -0.0839989 2.37796)
(4.15414 -0.465854 2.51989)
(4.36583 -0.275043 3.1823)
(4.80356 -1.01718 3.26706)
(6.01029 1.12463 2.83864)
(5.87727 1.43659 2.1686)
(5.67083 1.74361 -0.619304)
(3.50374 -0.827035 1.14033)
(3.22764 -0.340965 0.923827)
(2.79726 -0.0804162 1.475)
(2.046 0.12272 2.55085)
(2.74537 0.129376 3.41513)
(4.12508 -0.412602 3.42093)
(4.85028 -0.40563 3.22046)
(6.50403 -0.117471 1.43911)
(2.0145 -0.237185 0.304984)
(1.93564 -0.301389 0.146683)
(1.65647 -0.0165951 -0.242686)
(1.47952 -0.0605091 -0.417073)
(1.06903 0.0505798 0.470035)
(1.27207 0.47573 1.06247)
(1.67314 -0.037464 2.02476)
(1.86982 0.0985803 2.30362)
(2.69343 0.406242 0.98307)
(0.250645 -0.572182 -1.75242)
(0.377177 -0.527807 -1.22599)
(0.129753 -0.0722108 -0.693129)
(0.322597 -0.412004 -0.743814)
(0.296303 0.513004 0.08261)
(0.45487 0.757215 -0.621914)
(1.0067 0.708472 -0.482)
(1.17781 0.697581 -0.816425)
(0.289725 -1.07098 -0.893594)
(0.332345 -0.669328 0.708444)
(1.67658 1.75238 0.098615)
(2.63634 1.31037 -0.45017)
(2.29364 1.42282 -0.0564206)
(3.23973 0.776921 0.0792707)
(2.97023 1.35949 0.470794)
(2.33805 2.28323 -0.0558314)
(3.90012 0.08588 0.221815)
(3.92118 0.345983 0.365463)
(3.3938 1.51305 0.123594)
(3.1038 1.72201 0.202267)
(4.20058 -0.147811 1.0686)
(4.32401 -0.426555 0.776023)
(4.42549 -0.363341 0.926858)
(4.52713 1.09137 0.040168)
(4.09741 0.859638 -0.0592048)
(5.13585 -0.295865 1.40497)
(5.14907 -0.976358 1.00982)
(5.45937 -0.673341 0.291631)
(5.40755 -0.433226 0.578773)
(5.20112 -1.37372 1.20979)
(5.16424 1.13153 -0.0751911)
(5.33113 -0.38849 2.12163)
(5.40628 -0.52549 2.07021)
(5.71906 -0.977857 1.75756)
(5.93017 -1.18741 2.18214)
(6.26136 -0.0720453 -0.500957)
(5.62894 1.23056 -0.17648)
(3.82419 1.96355 0.788693)
(4.45184 -0.265488 2.49822)
(4.31534 -0.130738 2.31671)
(4.04434 -1.01488 2.58935)
(4.07454 -0.780844 3.23165)
(4.85057 -1.40415 3.1457)
(5.74263 -0.621769 3.50594)
(6.06935 0.555043 2.99295)
(5.89674 1.96246 -0.641196)
(3.4949 -1.05427 1.28383)
(3.30898 -0.887373 1.55592)
(3.18836 -0.39951 1.01757)
(2.6626 -0.173272 1.61051)
(2.17209 -0.0895144 1.92629)
(2.65307 0.1256 3.27499)
(3.94242 -0.788954 3.15072)
(4.417 -0.844705 3.42041)
(6.45599 -0.262077 1.17567)
(1.96768 -0.219054 0.509806)
(2.0277 -0.326785 0.38081)
(1.98668 -0.282975 0.221054)
(1.64817 -0.0570646 -0.188427)
(1.41318 -0.0539766 -0.393514)
(0.956117 0.0269587 0.344771)
(1.14021 0.404185 0.76525)
(1.47316 -0.190331 1.56605)
(1.66523 -0.10742 2.0313)
(2.51918 0.22209 1.0917)
(0.139816 -0.271153 -1.79918)
(0.232093 -0.53095 -1.75569)
(0.35022 -0.492123 -1.23123)
(0.109121 -0.0913126 -0.737705)
(0.277346 -0.443823 -0.761203)
(0.279929 0.473765 0.0817061)
(0.448798 0.722374 -0.56254)
(0.979917 0.621835 -0.382072)
(1.1406 0.607285 -0.647791)
(0.245117 -1.00837 -0.9315)
(0.298604 -0.628915 0.629233)
(1.63454 1.52791 -0.0276371)
(2.32663 0.980181 0.0862813)
(1.76469 1.7891 0.131015)
(3.05183 0.50298 0.0187161)
(2.90325 0.729741 -0.469944)
(2.38535 1.35855 0.0184516)
(3.41464 0.0587967 0.690099)
(3.33771 0.427464 0.229232)
(3.05377 1.20926 0.43098)
(2.46202 2.1243 -0.0203117)
(4.07324 0.376814 0.418764)
(3.90683 0.0652753 0.304506)
(3.90953 0.245706 0.33055)
(3.46757 1.05777 0.243509)
(3.06781 1.86878 0.1439)
(4.19971 -0.430854 1.34816)
(4.24296 -0.721051 1.16267)
(4.30932 -0.635965 0.732064)
(4.4252 -0.37932 0.904476)
(4.57765 0.837326 -0.0572403)
(4.08236 1.16479 -0.164337)
(4.84614 -0.324469 1.68468)
(5.22107 -0.0222846 1.17283)
(5.27779 -1.01636 1.10629)
(5.63623 -0.71429 0.317379)
(5.58498 -0.935838 0.695731)
(5.05409 -2.39451 1.30894)
(5.30334 0.66856 0.00849059)
(5.02171 -0.229629 2.52826)
(5.24997 -0.576923 2.23653)
(5.35792 -1.3008 2.24584)
(5.58147 -1.42668 2.44925)
(5.92543 -2.35343 2.45252)
(5.92281 -2.94399 1.8741)
(6.26931 1.16172 -0.645864)
(4.31475 1.99659 0.458052)
(4.45979 -0.884955 2.37374)
(4.2591 -0.43465 2.48182)
(4.23337 -0.212904 2.19385)
(3.93222 -0.611107 2.70296)
(3.97495 -1.30057 3.23622)
(4.8227 -1.78308 3.07524)
(5.60948 -1.47814 3.77542)
(5.83884 0.413286 3.50159)
(6.68798 1.52783 -0.437733)
(3.70974 -0.434779 1.16131)
(3.56641 -1.1863 1.04854)
(3.45548 -0.794859 1.29378)
(3.0431 -0.540711 1.17524)
(2.41992 -0.232301 1.65234)
(2.0266 -0.105659 2.11309)
(2.60629 0.0880738 3.02112)
(3.64326 -0.92619 2.87086)
(4.11654 -1.32575 3.27656)
(6.25468 -0.570768 1.22412)
(1.8236 -0.220501 0.522563)
(1.93903 -0.313749 0.547357)
(2.04934 -0.360167 0.314527)
(2.00423 -0.305793 0.41981)
(1.63863 -0.139863 -0.104551)
(1.35862 -0.0559397 -0.368212)
(0.880733 0.00852866 0.25035)
(1.02442 0.338054 0.379171)
(1.26207 -0.360533 1.0693)
(1.41886 -0.289634 1.76753)
(2.30483 0.0323599 1.10767)
(-0.192826 -0.0213164 -1.57389)
(0.14066 -0.270378 -1.81792)
(0.222389 -0.506235 -1.75427)
(0.323501 -0.462562 -1.23603)
(0.084836 -0.107573 -0.786309)
(0.232036 -0.464419 -0.778647)
(0.254593 0.435553 0.0805252)
(0.457135 0.688059 -0.521521)
(0.932358 0.550842 -0.44415)
(1.08837 0.491217 -0.479739)
(0.309493 -0.92355 -0.934745)
(0.262787 -0.602543 0.549283)
(1.79485 1.32685 -0.160918)
(2.08073 1.20915 -0.108447)
(1.76165 1.48256 0.145366)
(2.61549 0.766437 0.0936355)
(2.26492 1.24411 0.143199)
(1.88214 1.7068 0.0859897)
(3.1949 0.186543 -0.026689)
(3.10939 0.31151 -0.0172986)
(2.79838 1.24917 -0.214823)
(2.4912 1.1299 0.0253789)
(3.53139 -0.143352 0.501756)
(3.46551 -0.182779 0.658905)
(3.33323 0.315072 0.217832)
(3.25785 0.655297 0.445061)
(2.70688 1.67718 -0.00457845)
(4.07252 0.244304 0.491723)
(4.00629 -0.147848 0.481835)
(3.88204 -0.421132 0.3811)
(3.86774 0.0952919 0.31337)
(3.53608 0.443186 0.12651)
(3.12569 1.63574 0.232142)
(4.03299 -0.516861 1.58909)
(4.21799 -0.499164 1.33367)
(4.31746 -0.866946 1.03957)
(4.34162 -0.831502 0.665378)
(4.41207 -0.55757 0.844629)
(4.49361 0.53428 -0.181066)
(4.04242 0.897472 0.057879)
(4.38992 -0.232645 1.82076)
(4.98394 0.341116 1.51711)
(5.24075 -0.625059 1.23438)
(5.45251 -1.35761 1.01288)
(5.51109 -0.958348 0.637534)
(5.58097 -0.800574 0.487852)
(5.15122 -2.71801 0.90933)
(5.08521 -0.154534 0.0521718)
(4.75957 -0.507528 2.69841)
(4.89792 -0.48487 2.31719)
(5.14278 -1.04141 2.65091)
(5.40698 -1.19927 2.52099)
(5.45384 -2.30878 2.67971)
(5.93561 -2.83957 2.27615)
(5.75005 -3.49804 2.65937)
(6.36812 -0.596833 0.268921)
(4.8573 2.2648 0.20333)
(4.46643 -0.433164 2.2289)
(4.12951 -1.63789 2.25918)
(4.24315 -0.42594 2.29065)
(4.21894 -0.48034 2.12886)
(3.84581 -0.827501 2.57153)
(3.56853 -2.06776 3.22022)
(4.77384 -1.88826 3.12863)
(5.76721 -1.6006 3.80363)
(4.9799 -2.15252 4.69358)
(7.05431 1.52108 -0.418412)
(3.52521 0.551206 1.22394)
(3.77254 -0.289201 1.07765)
(3.5856 -0.934326 1.2787)
(3.35178 -1.02841 1.37488)
(3.06044 -0.51354 1.02913)
(2.55795 -0.238513 1.21445)
(1.96347 -0.256782 2.13718)
(2.52848 -0.158544 2.75907)
(3.23979 -1.24148 2.57659)
(3.72002 -1.82313 3.10636)
(5.96118 -0.964554 1.33833)
(1.83917 -0.189509 0.587229)
(1.7537 -0.410738 0.463045)
(1.87908 -0.493031 0.564874)
(2.03849 -0.399349 0.335172)
(2.01961 -0.328494 0.469982)
(1.61082 -0.166763 -0.128008)
(1.3019 -0.152933 -0.434757)
(0.843029 -0.00597501 0.131918)
(0.908351 0.252036 0.0880145)
(1.06271 -0.510995 0.550782)
(1.15711 -0.44976 1.51852)
(2.12406 -0.10085 0.942954)
(-0.289514 0.0443087 -1.50607)
(-0.187221 -0.0110165 -1.5875)
(0.144619 -0.259143 -1.8404)
(0.202736 -0.486885 -1.7536)
(0.308097 -0.430397 -1.25626)
(0.056828 -0.120247 -0.839996)
(0.181901 -0.47253 -0.799273)
(0.232824 0.398015 0.0795813)
(0.460261 0.660255 -0.49358)
(0.895783 0.488187 -0.520514)
(1.00825 0.352748 -0.424254)
(0.300452 -0.860924 -0.956411)
(0.227806 -0.579774 0.472612)
(1.92224 0.744232 -0.0578444)
(2.12419 0.802029 0.00444262)
(1.9836 1.03867 -0.275735)
(2.35833 0.54749 -0.0529785)
(2.19301 1.11466 -0.19181)
(1.96208 1.25695 0.00334313)
(2.76049 0.281301 0.0785018)
(2.66273 0.799586 0.236242)
(2.38043 1.13707 0.110252)
(2.05882 1.5493 0.125117)
(3.18666 0.15829 0.196759)
(3.2 0.10546 0.0247534)
(3.06307 0.367102 0.0166843)
(2.91792 0.983769 -0.319398)
(2.60574 0.913205 0.156783)
(3.45921 0.0324384 0.600087)
(3.51796 -0.235169 0.524557)
(3.45783 -0.269955 0.627515)
(3.35839 -0.00527119 0.214335)
(3.28892 0.845921 0.366917)
(2.86394 1.3688 -0.0743334)
(3.99672 -0.0533027 0.797462)
(4.11068 0.108646 0.51364)
(3.90748 -0.975456 0.58533)
(3.89849 -0.555705 0.379192)
(3.88541 -0.120671 0.321428)
(3.4229 0.436409 0.0257873)
(3.21086 1.27281 0.258038)
(3.89781 -0.703557 1.74296)
(4.15479 -0.67673 1.41982)
(4.18291 -0.841764 1.24668)
(4.3175 -0.897498 0.924795)
(4.34205 -0.906891 0.694362)
(4.35863 -0.734441 0.799909)
(4.41427 0.326903 -0.0863189)
(3.97978 0.922621 0.0898255)
(4.29087 -0.0418045 1.84579)
(4.55139 0.311925 1.5885)
(4.88686 -0.672579 1.55103)
(5.34228 -1.12025 1.12508)
(5.32885 -1.45723 0.97829)
(5.449 -1.38986 1.06942)
(5.42163 -0.81537 0.338919)
(5.04908 -2.94089 0.00741092)
(4.91847 -1.09348 -0.105515)
(4.67541 -0.0580431 2.98093)
(4.5392 -0.48566 2.59422)
(4.77664 -0.846179 2.26066)
(5.12323 -1.24412 2.7116)
(5.28383 -1.57664 2.77324)
(5.38694 -2.61661 2.82595)
(5.67645 -3.00066 2.54574)
(6.13395 -3.67537 2.1191)
(5.96673 -1.87296 1.53011)
(5.3633 2.12705 -0.398198)
(4.6589 0.129146 2.19875)
(4.41523 -0.891504 2.35749)
(4.11377 -1.05226 2.23531)
(4.27293 -0.529305 2.03663)
(3.93972 -1.05788 2.30428)
(3.19506 -2.01767 2.65567)
(3.23255 -2.80765 2.76933)
(4.51233 -2.73273 3.16267)
(5.48212 -1.87143 3.82948)
(5.11084 -2.49183 4.61712)
(7.01481 0.724619 -0.170042)
(3.4248 0.137246 1.17715)
(3.51326 -0.0112268 0.955387)
(3.72609 -0.376823 1.18472)
(3.54166 -1.0323 1.24297)
(3.29451 -1.06306 1.37315)
(2.96433 -0.731655 1.0972)
(2.26776 -0.634331 1.37967)
(1.66691 -0.624408 1.86054)
(2.31227 -0.421982 2.51057)
(2.81014 -1.68271 2.15964)
(3.42306 -2.1399 2.70346)
(5.71566 -1.24423 1.0384)
(1.98329 -0.0811374 0.872701)
(1.8079 -0.320517 0.515765)
(1.63947 -0.650793 0.377903)
(1.74983 -0.571155 0.535687)
(1.97758 -0.488083 0.434468)
(2.0207 -0.364749 0.494201)
(1.59467 -0.234924 -0.106328)
(1.20375 -0.233642 -0.546335)
(0.79721 -0.0393615 0.0161181)
(0.792052 0.145608 -0.136153)
(0.862064 -0.624201 0.126128)
(0.899703 -0.584198 1.26752)
(1.90532 -0.216693 0.777114)
(-0.00999915 1.19945 -1.38347)
(-0.287318 0.0741402 -1.51411)
(-0.182064 -0.00529477 -1.60333)
(0.15554 -0.244236 -1.8629)
(0.190562 -0.480537 -1.74701)
(0.29013 -0.387059 -1.31215)
(0.0285397 -0.129913 -0.898332)
(0.138711 -0.473986 -0.818602)
(0.203444 0.36752 0.0778371)
(0.457442 0.634238 -0.470143)
(0.860723 0.435243 -0.582718)
(0.936985 0.251758 -0.444066)
(0.312992 -0.805158 -0.978031)
(0.212582 -0.543229 0.402574)
(1.40486 1.28961 0.129846)
(1.90295 1.09243 -0.000728614)
(1.82788 0.899445 0.0170876)
(2.22916 0.681905 -0.0977841)
(2.25324 0.619381 -0.0141337)
(2.03283 0.978346 -0.176086)
(2.42553 0.346076 0.0504101)
(2.46472 0.250383 -0.0839035)
(2.27454 1.11047 -0.121655)
(2.10125 1.18237 -0.0576629)
(2.76155 0.251973 0.359495)
(2.82426 0.123721 0.0862679)
(2.81268 0.632534 0.241354)
(2.48339 0.891102 0.158938)
(2.12565 1.55862 0.189747)
(3.2318 0.40805 0.328067)
(3.15853 -0.0625 0.202355)
(3.16847 -0.184626 0.13274)
(3.05531 0.117359 0.176293)
(2.86077 0.930336 -0.2144)
(2.63762 0.915712 0.147799)
(3.51715 0.112082 0.706982)
(3.47696 -0.247026 0.689064)
(3.41577 -0.440834 0.515444)
(3.46211 -0.554702 0.511326)
(3.36403 -0.178457 0.264883)
(3.31552 0.707623 0.43709)
(2.9727 1.11079 -0.116934)
(3.9078 -0.00129451 1.08047)
(3.94857 -0.169615 0.828991)
(4.03602 -0.436643 0.633135)
(3.93492 -0.357754 0.5597)
(3.93615 -0.836345 0.322602)
(3.93155 -0.391016 0.302966)
(3.41114 -0.0446083 -0.091795)
(3.23049 0.917783 0.370317)
(3.95745 -0.294305 1.67618)
(4.01611 -0.37183 1.56556)
(4.23463 -0.662008 1.33747)
(4.24143 -1.11273 1.11548)
(4.29435 -1.10821 0.936276)
(4.18891 -1.5697 0.607121)
(4.26569 -1.2912 1.03939)
(4.28177 0.0982407 0.199987)
(4.05942 0.770523 -0.184071)
(4.49154 0.277468 1.85712)
(4.31219 -0.0520637 1.80261)
(4.43972 -0.581834 1.72062)
(4.92182 -0.808113 1.45673)
(5.2794 -1.09236 1.154)
(5.26873 -1.65725 0.996306)
(5.49432 -1.37393 0.93983)
(5.33769 -0.944397 0.501493)
(4.61794 -3.87501 -1.13384)
(4.88814 -1.47177 0.0467455)
(4.66929 0.100471 2.83924)
(4.46627 -0.631119 2.88368)
(4.41706 -0.838816 2.4718)
(4.7064 -1.32748 2.27742)
(5.00086 -1.38069 2.77013)
(5.17298 -1.89716 3.1246)
(5.04038 -2.50784 3.68367)
(5.22553 -3.87247 2.63721)
(5.97416 -4.00089 2.31391)
(5.02942 -4.6657 3.82497)
(5.80393 0.840198 -1.2652)
(4.48548 0.375254 2.07976)
(4.58114 -0.528126 2.24582)
(4.36606 -0.968926 2.37473)
(4.16112 -1.26857 2.07563)
(4.16395 -0.717273 1.96441)
(3.91429 -0.915591 2.08453)
(3.46379 -1.26672 2.40205)
(3.66163 -1.98612 2.81964)
(4.41838 -2.79447 3.11716)
(3.51088 -4.39776 4.15277)
(5.08542 -3.58216 3.49732)
(6.9195 0.0479636 0.228817)
(3.46975 0.33867 1.03074)
(3.39719 0.149688 1.03662)
(3.45655 -0.160563 0.988311)
(3.68906 -0.416225 1.23682)
(3.53975 -1.17769 1.23554)
(3.28343 -1.08402 1.29158)
(2.8029 -0.98932 1.13321)
(2.13854 -0.735127 1.19653)
(1.5862 -0.560216 1.36106)
(1.98785 -0.627873 2.22)
(2.67949 -1.70169 1.65018)
(3.09595 -2.32809 2.35063)
(5.35949 -1.50593 0.825742)
(2.50257 -0.670141 1.09746)
(1.96636 -0.120977 0.889483)
(1.75522 -0.469295 0.408289)
(1.53468 -0.745654 0.265592)
(1.76031 -0.391848 0.389233)
(1.97429 -0.468372 0.405461)
(2.01264 -0.382815 0.55609)
(1.58373 -0.305851 -0.0869224)
(1.20696 -0.193848 -0.390819)
(0.744591 -0.0920229 -0.0641537)
(0.708651 0.0371695 -0.326162)
(0.62739 -0.756878 -0.159994)
(0.632832 -0.712604 1.01299)
(1.63187 -0.341731 0.638961)
(0.418157 1.54812 -1.17219)
(0.0330469 1.16677 -1.34538)
(-0.283598 0.102798 -1.52085)
(-0.176173 -0.00448476 -1.62002)
(0.165813 -0.232929 -1.89079)
(0.165661 -0.47246 -1.78408)
(0.26145 -0.375304 -1.38014)
(-0.00386701 -0.127354 -0.963156)
(0.101702 -0.451836 -0.847389)
(0.170131 0.339803 0.0801021)
(0.456017 0.604449 -0.452791)
(0.829663 0.389497 -0.624501)
(0.901096 0.170042 -0.486063)
(0.344225 -0.769316 -0.994716)
(0.226252 -0.495146 0.338351)
(1.36114 1.23592 -0.0962623)
(1.83169 0.942207 0.100801)
(1.47392 1.21196 0.0832344)
(2.05669 0.630625 0.181927)
(2.02421 0.902375 0.00485855)
(1.81413 1.03023 0.106118)
(2.24729 0.583679 0.300034)
(2.32551 0.604922 -0.157744)
(2.34905 0.479259 0.0888498)
(2.14518 0.831375 -0.228899)
(2.47394 0.441203 0.332423)
(2.5165 0.0647403 0.0100085)
(2.57752 0.115031 -0.151001)
(2.39876 0.905782 -0.118806)
(2.21044 1.08583 -0.15162)
(2.82846 0.524312 0.392095)
(2.78887 0.17184 0.257878)
(2.82318 0.0935356 0.127473)
(2.83506 0.515753 0.201213)
(2.55487 0.677092 0.223888)
(2.27079 1.28125 0.19886)
(3.18578 0.465716 0.646797)
(3.19211 0.166934 0.370044)
(3.12403 -0.250077 0.250038)
(3.13499 -0.313209 0.132594)
(3.01746 -0.105409 0.354926)
(3.04544 0.440103 -0.259999)
(2.67314 0.801351 0.195735)
(3.55153 0.472627 0.868362)
(3.49525 -0.142327 0.729982)
(3.48629 -0.415871 0.67484)
(3.45078 -0.540388 0.493079)
(3.46891 -0.636298 0.525213)
(3.32486 -0.38385 0.307304)
(3.26244 0.190661 0.568108)
(3.10857 0.780928 -0.195752)
(3.92028 0.2161 1.18644)
(3.86331 -0.113473 1.09004)
(4.03051 -0.485898 0.870763)
(3.95386 -0.724455 0.68338)
(3.88834 -0.987435 0.634069)
(3.90573 -0.985517 0.297755)
(3.91963 -0.487825 0.286622)
(3.3348 -0.233407 0.00562714)
(3.23638 0.686992 0.31179)
(4.02642 -0.12254 1.76772)
(3.98272 -0.16997 1.63468)
(4.12662 -0.489245 1.48932)
(4.18701 -1.13299 1.26629)
(4.37878 -1.15552 1.08175)
(4.2921 -1.27546 0.854083)
(4.24641 -1.64643 0.579291)
(4.35042 -1.4007 1.00837)
(4.0638 -0.507189 0.472777)
(4.11969 1.01852 -0.017911)
(4.47104 -0.114702 1.92829)
(4.25792 -0.260423 1.85923)
(4.30457 -0.269696 1.92474)
(4.44774 -0.603544 1.64613)
(4.98693 -1.33735 1.41117)
(5.07572 -2.21488 1.18388)
(5.28239 -1.5938 1.16667)
(5.21205 -1.96746 0.942187)
(5.13395 -1.8694 0.684969)
(4.5951 -3.66027 -0.681024)
(4.82541 -1.44493 0.537513)
(4.57985 -0.120005 2.65609)
(4.57489 -0.283654 2.84321)
(4.3342 -0.686959 2.60243)
(4.2268 -1.43589 2.56495)
(4.56214 -1.52941 2.40446)
(4.84055 -1.67714 3.03971)
(4.75156 -2.04296 4.06485)
(5.03716 -3.81952 2.91338)
(5.57521 -3.70951 2.55742)
(4.98994 -4.6617 2.63714)
(5.42206 -4.84699 2.5282)
(5.61311 0.35865 -1.57551)
(4.42904 0.451358 2.0911)
(4.4994 -0.0203381 2.15085)
(4.4661 -0.773461 2.25168)
(4.33501 -1.09274 2.37456)
(4.20109 -1.37365 1.99674)
(4.09427 -0.786922 2.01654)
(3.77701 -1.01438 2.24198)
(3.47242 -1.33386 2.27111)
(2.18597 -3.60885 2.73646)
(3.47042 -3.78937 2.90794)
(5.11103 -2.5074 3.28174)
(4.74221 -4.21247 2.93612)
(7.01375 -0.413998 -0.0434477)
(3.58463 0.114655 1.44275)
(3.52857 0.209477 1.06142)
(3.37926 0.0351917 1.13466)
(3.39146 -0.299684 0.789302)
(3.66568 -0.512796 1.29296)
(3.48385 -1.28715 1.22671)
(3.18636 -1.20809 1.33653)
(2.62327 -1.25889 1.00152)
(1.93169 -0.835524 1.18385)
(1.85335 -0.634614 0.813883)
(1.97205 -0.857341 1.70368)
(2.41121 -1.76998 1.14507)
(2.71222 -2.71013 1.99245)
(4.77611 -1.81899 0.849997)
(2.46007 -0.825405 0.651192)
(2.47304 -0.643463 1.12435)
(1.94895 -0.162955 0.969805)
(1.70224 -0.509116 0.303533)
(1.42049 -0.909669 0.204225)
(1.61093 -0.60536 0.369908)
(1.94013 -0.489585 0.413927)
(2.00782 -0.404272 0.591265)
(1.55603 -0.392071 -0.0656972)
(1.18472 -0.243496 -0.346438)
(0.694705 -0.149904 -0.135712)
(0.630716 -0.062334 -0.470386)
(0.481705 -0.817827 -0.305268)
(0.376395 -0.82448 0.752596)
(1.31454 -0.488667 0.520311)
(0.0635954 0.614245 -0.457527)
(0.473994 1.43498 -1.13491)
(0.0680454 1.1316 -1.30929)
(-0.277117 0.131736 -1.52381)
(-0.172864 -0.00920641 -1.63945)
(0.179412 -0.224141 -1.92057)
(0.145867 -0.470179 -1.84646)
(0.223231 -0.370368 -1.45829)
(-0.0402739 -0.127354 -1.02573)
(0.0705519 -0.421898 -0.878012)
(0.132533 0.314254 0.0773746)
(0.454284 0.575928 -0.439815)
(0.800046 0.347972 -0.655793)
(0.900581 0.132389 -0.518974)
(0.359585 -0.755903 -1.00386)
(0.262096 -0.445684 0.279342)
(1.67451 0.706868 0.11487)
(1.92335 0.844047 0.0840603)
(1.68906 0.825014 -0.125903)
(2.11238 0.638279 0.164061)
(1.99031 0.669712 0.0741476)
(1.65649 1.00262 0.00318947)
(2.12514 0.645081 0.292648)
(2.10131 0.513956 0.141441)
(2.03735 0.90605 0.0125511)
(1.87468 0.85476 0.0758439)
(2.30429 0.505173 0.379362)
(2.37508 0.339386 0.172663)
(2.38621 0.573884 -0.0886182)
(2.41401 0.284666 0.105095)
(2.15857 0.70662 -0.181394)
(2.56466 0.480276 0.459128)
(2.54172 0.215495 0.290595)
(2.51117 0.0654773 0.00866312)
(2.62604 0.239205 -0.222129)
(2.51204 0.773166 -0.148078)
(2.27034 0.967176 -0.201031)
(2.80191 0.454502 0.613928)
(2.85542 0.4467 0.371836)
(2.81033 -0.0873075 0.293531)
(2.77864 -0.157107 0.233908)
(2.80763 0.244086 0.229459)
(2.59408 0.572844 0.256706)
(2.36708 1.06683 0.181121)
(3.24483 0.390991 0.685584)
(3.18555 -0.0494307 0.65017)
(3.13737 -0.104814 0.410967)
(3.07852 -0.510123 0.327083)
(3.11564 -0.428998 0.197075)
(3.02039 -0.00149409 0.308908)
(3.11971 0.503992 -0.287379)
(2.71737 0.698499 0.289988)
(3.56367 0.113065 1.13937)
(3.52294 -0.181923 0.923025)
(3.4825 -0.410046 0.780782)
(3.46869 -0.473515 0.609911)
(3.50196 -0.732354 0.486623)
(3.38537 -0.82694 0.486516)
(3.33348 -0.474465 0.363607)
(3.14326 -0.0466741 0.63541)
(3.25748 0.560667 -0.394245)
(3.94637 0.212711 1.22168)
(3.84475 -0.111471 1.22972)
(3.92337 -0.260669 1.07785)
(4.00324 -0.730077 0.923942)
(3.97668 -0.91891 0.709681)
(3.89838 -1.06982 0.61473)
(3.82581 -1.19891 0.284768)
(3.81626 -0.808031 0.255654)
(3.33159 -0.280902 0.0439059)
(3.33845 0.286684 -0.0240716)
(4.12028 0.205753 1.64541)
(4.00616 -0.183854 1.78184)
(4.06184 -0.342467 1.5954)
(4.1099 -0.625556 1.48685)
(4.18279 -1.58726 1.32921)
(4.27541 -1.45706 1.14956)
(4.18531 -1.80373 0.743874)
(4.23986 -1.70538 0.727596)
(4.23464 -1.65011 1.00295)
(3.87773 -0.283265 0.246321)
(4.19945 0.931318 0.0860301)
(4.46108 -0.0918181 2.11409)
(4.60269 -0.693266 1.45125)
(4.25253 -0.631195 1.88496)
(4.07391 -0.548853 2.04897)
(4.48703 -0.861555 1.67769)
(4.88513 -1.63239 1.38673)
(5.16797 -2.28925 1.42997)
(5.06155 -2.07147 1.46681)
(5.2144 -1.99537 0.890002)
(4.90854 -2.36587 0.908304)
(5.05997 -2.81252 -1.41927)
(4.74269 -1.74408 0.906493)
(4.59016 -0.0151285 2.20942)
(4.48028 -0.490812 2.61113)
(4.35388 -0.434916 2.70552)
(4.50913 -0.629477 2.29231)
(4.07584 -1.31713 2.58854)
(4.4802 -1.6928 2.45911)
(4.66353 -1.9886 3.43471)
(4.41575 -3.3292 3.9895)
(4.61829 -2.51495 4.54846)
(5.18976 -3.83838 2.95157)
(4.16961 -5.48559 2.35014)
(5.58216 -4.84518 1.47317)
(5.39693 -0.487496 -1.33727)
(4.26202 0.318553 2.11854)
(4.44444 0.295502 2.07654)
(4.50145 -0.142635 2.23658)
(4.38244 -0.910919 2.26626)
(4.40208 -1.3303 2.40336)
(4.19446 -1.22858 2.01508)
(4.04539 -0.943074 2.16927)
(3.72607 -1.19163 2.27442)
(3.3165 -1.56132 2.276)
(3.35689 -2.43708 2.49805)
(3.76483 -3.3569 2.55574)
(3.89608 -4.14081 3.13814)
(3.19912 -5.83863 3.16344)
(6.93167 -0.821051 -0.0536044)
(3.55227 0.614352 1.26347)
(3.58974 0.359742 1.25128)
(3.2232 -0.153627 1.73751)
(3.3715 0.0839016 1.15464)
(3.22697 -0.412057 0.85174)
(3.46901 -0.814132 1.39201)
(3.3239 -1.4002 1.07056)
(3.14188 -1.16583 1.26884)
(2.51726 -1.27087 0.836731)
(1.86905 -0.996508 0.839492)
(1.50373 -0.741237 0.886701)
(1.69107 -0.964296 1.40137)
(2.08884 -1.97116 0.658602)
(2.36847 -3.08961 1.54532)
(3.94207 -2.2079 1.10907)
(2.55606 -0.257752 -0.0788049)
(2.40464 -0.989502 0.561533)
(2.39126 -0.707979 1.12624)
(1.94795 -0.159487 1.0162)
(1.62314 -0.593105 0.22518)
(1.32072 -1.04996 0.169373)
(1.37643 -0.821653 0.430092)
(1.87896 -0.497686 0.426551)
(1.99628 -0.405197 0.61921)
(1.5243 -0.450089 -0.0707386)
(1.10698 -0.287316 -0.445561)
(0.650013 -0.21705 -0.193208)
(0.551378 -0.165204 -0.597587)
(0.18898 -0.947107 -0.555862)
(0.151698 -0.907059 0.484679)
(0.962918 -0.65616 0.422218)
(0.411909 0.162718 -0.39427)
(0.0938362 0.617091 -0.444724)
(0.51572 1.33383 -1.10225)
(0.100432 1.0948 -1.27678)
(-0.272295 0.157829 -1.52641)
(-0.172573 -0.0184892 -1.66698)
(0.199342 -0.212067 -1.94698)
(0.126512 -0.474764 -1.90462)
(0.184437 -0.364084 -1.53559)
(-0.0809343 -0.125727 -1.08007)
(0.0411421 -0.392619 -0.904202)
(0.0934611 0.291933 0.0678028)
(0.452601 0.548661 -0.429495)
(0.779425 0.315255 -0.666656)
(0.928054 0.101219 -0.551789)
(0.381644 -0.722387 -1.01623)
(0.309266 -0.403038 0.225297)
(1.39621 0.938341 0.0656082)
(1.85895 0.785632 -0.0864162)
(1.76895 0.471979 0.085934)
(2.089 0.688828 0.101613)
(2.06781 0.647024 -0.0414772)
(1.78995 0.774264 -0.140876)
(2.12755 0.738954 0.260875)
(2.14267 0.614744 0.109643)
(2.07961 0.605151 0.0393645)
(1.79495 0.826902 0.008449)
(2.19979 0.570318 0.465347)
(2.15849 0.504823 0.281863)
(2.18246 0.128194 0.237309)
(2.0635 0.837206 0.0295792)
(1.90984 0.747797 0.118979)
(2.37799 0.624362 0.500887)
(2.37035 0.431248 0.343715)
(2.39584 0.449397 0.176423)
(2.44264 0.460554 -0.0350834)
(2.47561 -0.0603961 0.00665395)
(2.25389 0.43754 -0.22824)
(2.55639 0.654918 0.548748)
(2.61986 0.406153 0.471599)
(2.53848 0.118992 0.247671)
(2.52945 -0.0891662 0.0863791)
(2.65727 -0.0023201 -0.194361)
(2.64734 0.484784 -0.0278471)
(2.4085 0.673634 -0.0573671)
(2.84311 0.564496 0.722211)
(2.85058 0.231905 0.611973)
(2.842 0.117152 0.368959)
(2.83603 -0.194104 0.299828)
(2.75443 -0.347011 0.247491)
(2.81998 0.0977282 0.270325)
(2.69506 0.307411 0.0525165)
(2.49857 0.83731 0.154202)
(3.24013 0.326504 0.965628)
(3.26733 0.314932 0.663821)
(3.15771 -0.00403905 0.617702)
(3.09616 -0.372434 0.440341)
(3.05787 -0.548523 0.338345)
(3.11326 -0.472014 0.206333)
(3.04367 -0.391872 0.472669)
(3.14834 0.438642 -0.229352)
(2.7856 0.491007 0.314958)
(3.49614 0.0411212 1.20403)
(3.56277 0.0924838 1.12567)
(3.48735 -0.226836 0.924565)
(3.43784 -0.572995 0.808047)
(3.42253 -0.900995 0.654469)
(3.48076 -0.748516 0.49782)
(3.37892 -0.865597 0.44125)
(3.33459 -0.538609 0.366173)
(3.12686 -0.413598 0.701713)
(3.31598 0.450639 -0.237432)
(3.88934 0.32287 1.26292)
(3.90036 -0.0930319 1.29861)
(3.87115 -0.211193 1.243)
(3.88511 -0.887571 1.17349)
(3.88464 -0.966624 0.995)
(3.94863 -1.30696 0.789857)
(3.90076 -1.09319 0.532483)
(3.8406 -1.19228 0.273963)
(3.80186 -0.928996 0.238675)
(3.35309 -0.536315 -0.024966)
(3.35327 0.189143 0.0956818)
(4.30713 0.181357 1.72839)
(4.07303 0.226261 1.66897)
(3.92672 -0.203002 1.77245)
(4.02346 -0.429821 1.61657)