/*--------------------------------*- C++ -*----------------------------------*\
  =========                 |
  \\      /  F ield         | OpenFOAM: The Open Source CFD Toolbox
   \\    /   O peration     | Website:  https://openfoam.org
    \\  /    A nd           | Version:  7
     \\/     M anipulation  |
\*---------------------------------------------------------------------------*/
FoamFile
{
    version     2.0;
    format      ascii;
    class       volVectorField;
    location    "4";
    object      U_0;
}
// * * * * * * * * * * * * * * * * * * * * * * * * * * * * * * * * * * * * * //

dimensions      [0 1 -1 0 0 0 0];

internalField   nonuniform List<vector> 
18750
(
(0.858866 -0.336934 0.905012)
(2.6021 0.494783 0.110093)
(1.05524 -0.870606 -1.01077)
(0.797041 -0.440465 0.96963)
(5.22333 1.32906 0.568769)
(2.52583 1.04055 2.38993)
(2.67354 0.857081 0.23354)
(1.24031 1.11848 -1.06023)
(0.966351 -0.887627 -0.994736)
(0.789415 -0.505242 0.996621)
(3.80713 0.058262 0.386605)
(5.39511 0.440594 3.34977)
(5.4992 1.20916 0.63096)
(2.62297 1.07112 2.75428)
(2.58574 1.03798 2.39567)
(2.6918 0.681588 0.274966)
(1.11975 0.946033 -0.935317)
(1.23837 1.08411 -1.06548)
(0.874297 -0.924658 -0.976374)
(0.693914 -0.597567 1.00938)
(2.92846 2.16858 0.335392)
(5.33336 2.23574 1.8434)
(4.10454 0.856307 0.187514)
(4.70722 0.812737 3.06993)
(5.43446 0.346232 3.08122)
(5.70712 0.0472105 0.774381)
(1.84601 0.927424 1.32962)
(2.29794 0.251928 3.14138)
(2.58872 0.889978 2.39944)
(2.73631 0.651963 0.432888)
(0.351664 0.801871 -0.78492)
(1.10726 0.912366 -0.900671)
(1.23775 1.03505 -1.09479)
(0.757502 -1.00285 -0.953024)
(0.617513 -0.680728 0.997093)
(4.14405 2.42088 -0.738672)
(4.38168 1.99164 1.34378)
(2.87488 1.89624 0.533529)
(5.71355 1.22502 2.01981)
(5.50394 1.87813 1.6042)
(4.37048 1.20796 0.0901476)
(3.00899 0.372125 3.19562)
(4.64281 0.71417 3.07929)
(5.45732 0.42343 2.76025)
(5.86778 0.465708 1.44926)
(1.4654 0.101417 0.672068)
(1.70696 0.73877 1.58292)
(2.35771 0.712607 2.73772)
(2.51699 0.712849 2.42383)
(2.73828 0.622114 0.632737)
(0.286067 0.654748 0.0644771)
(0.382843 0.823128 -0.80496)
(1.09577 0.882432 -0.851992)
(1.22836 0.976785 -1.1282)
(0.660727 -1.03758 -0.934192)
(0.549377 -0.759346 0.964812)
(4.24742 1.05052 -0.280046)
(4.97474 -0.207988 1.54187)
(4.55239 1.81902 -0.834184)
(5.17004 0.686317 0.458267)
(5.04779 1.23023 0.553792)
(3.00115 1.73542 0.62253)
(5.00042 0.315991 3.07298)
(5.73106 0.993189 2.45288)
(5.53958 2.30643 1.24438)
(4.59652 1.59467 0.0647185)
(2.70789 0.0749454 1.87663)
(2.93361 0.35654 3.3137)
(4.63515 0.620289 3.12947)
(5.5012 0.61492 2.54021)
(5.99419 0.119565 1.57696)
(1.6341 0.0182416 -0.487101)
(1.37628 0.0969353 0.631606)
(1.62717 0.683088 1.55701)
(2.29052 0.687548 2.60643)
(2.42722 0.640249 2.42113)
(2.78943 0.588607 0.681993)
(0.437832 -0.253693 -0.658555)
(0.298054 0.625841 0.070549)
(0.416349 0.834448 -0.816672)
(1.07603 0.858864 -0.77956)
(1.219 0.913336 -1.13092)
(0.551513 -1.07151 -0.914498)
(0.404547 -0.896379 0.892961)
(3.4138 1.46164 0.243555)
(4.6555 1.67295 -0.300561)
(4.20343 0.593995 0.0404584)
(4.57068 -0.113774 0.809906)
(4.97623 -0.149731 1.51064)
(4.67052 1.54737 -0.367081)
(5.32391 0.793746 0.997335)
(5.62789 0.920853 -0.397385)
(5.10235 1.95441 0.746136)
(3.04735 1.77998 0.735348)
(4.49469 -0.130582 2.92421)
(4.86727 0.00208139 3.28309)
(5.66338 0.69323 2.78289)
(5.73314 1.52492 2.23409)
(4.9345 1.55302 0.0790547)
(2.87611 0.0200038 1.33565)
(2.65217 0.0810153 1.88018)
(2.82843 0.279389 3.3813)
(4.64423 0.473257 3.2184)
(5.42454 0.557321 2.53326)
(6.0962 0.0187591 1.55333)
(1.64732 0.0519039 -0.382519)
(1.56712 -0.0190578 -0.474137)
(1.27519 0.0770715 0.61626)
(1.52091 0.638366 1.461)
(2.08414 0.442906 2.5875)
(2.31107 0.565352 2.40752)
(2.8225 0.570699 0.722024)
(0.154341 -0.0307836 -0.607572)
(0.404766 -0.316784 -0.691503)
(0.302664 0.592841 0.0772457)
(0.434778 0.836959 -0.80775)
(1.0611 0.81656 -0.693502)
(1.20758 0.860181 -1.08687)
(0.448242 -1.09223 -0.89829)
(0.324134 -0.905306 0.804577)
(2.05578 2.4223 0.118748)
(3.20197 1.80125 -0.142874)
(3.29774 1.4856 0.207943)
(4.42313 0.395934 0.713351)
(4.4907 1.51169 -0.295676)
(4.06999 0.599719 0.038564)
(5.07515 0.147207 0.875239)
(4.52181 -0.184293 0.751376)
(5.37009 -0.0964788 -0.282307)
(4.67425 1.31696 -0.0135449)
(5.35636 0.216215 1.4982)
(5.34951 0.284739 1.25164)
(5.78644 1.27574 -0.763376)
(5.0935 1.9215 0.679052)
(3.31334 1.13354 1.02946)
(4.28028 0.00609916 2.66603)
(4.5128 -0.120773 3.02896)
(4.89143 -0.477496 3.20072)
(5.85016 0.206056 2.91008)
(5.89979 1.74522 1.84468)
(5.3514 1.59026 -0.266171)
(3.25046 -0.241559 0.914798)
(2.8232 -0.0555836 1.27267)
(2.6419 0.0738098 2.03698)
(2.87454 0.386786 3.34233)
(4.53337 0.34502 3.2882)
(5.26013 0.380306 2.71853)
(6.31154 -0.0924381 1.48326)
(1.87703 -0.245276 0.194736)
(1.64287 -0.00249265 -0.36089)
(1.51896 -0.0417989 -0.441977)
(1.17974 0.0690888 0.585876)
(1.41246 0.563809 1.27775)
(1.89233 0.215709 2.39114)
(2.14645 0.3828 2.38171)
(2.79328 0.522101 0.787521)
(0.397416 -0.562708 -1.20151)
(0.141427 -0.0530708 -0.646147)
(0.366648 -0.369922 -0.718225)
(0.300891 0.553573 0.0819261)
(0.441498 0.817584 -0.739038)
(1.03807 0.772368 -0.591844)
(1.19904 0.793944 -0.998178)
(0.373113 -1.09682 -0.891222)
(0.354118 -0.776022 0.767031)
(2.18361 1.49946 -0.0262314)
(2.74345 1.45432 0.569626)
(2.18965 2.4141 0.0663861)
(3.82784 0.359288 0.359118)
(3.35614 1.62192 0.0811638)
(3.13156 1.73544 0.365269)
(4.32443 -0.241682 0.810101)
(4.43998 0.143521 0.758152)
(4.44067 1.3402 -0.112827)
(4.04926 0.595555 -0.0234788)
(5.13946 0.401056 1.25958)
(5.16262 -0.418828 0.771428)
(4.91353 -0.189672 0.509825)
(5.42845 -0.197566 -0.250862)
(4.84246 1.07004 -0.0641179)
(5.47591 -0.304035 2.05921)
(5.40336 -0.673924 1.44895)
(5.63114 -0.818091 1.68654)
(6.15119 0.359664 -1.31083)
(5.01323 1.71517 0.441403)
(3.49956 1.50361 0.965293)
(4.3673 -0.125221 2.38868)
(4.18175 -0.393957 2.52475)
(4.40522 -0.236027 3.15067)
(4.7941 -0.976594 3.27191)
(5.99204 1.00716 2.87115)
(5.88365 1.51064 2.06482)
(5.67774 1.65068 -0.583031)
(3.49516 -0.859826 1.13971)
(3.23201 -0.362468 0.907181)
(2.80239 -0.0997246 1.45753)
(2.09316 0.117494 2.51566)
(2.74462 0.128336 3.40647)
(4.1717 -0.343752 3.43113)
(4.92933 -0.322488 3.12809)
(6.4641 -0.16027 1.44882)
(2.00545 -0.233366 0.284582)
(1.92182 -0.314769 0.145963)
(1.65386 -0.0281049 -0.255473)
(1.4845 -0.0742059 -0.426176)
(1.08146 0.0380637 0.477526)
(1.28828 0.476505 1.06128)
(1.70047 -0.00540336 2.05389)
(1.90676 0.133558 2.30287)
(2.68068 0.396361 0.938333)
(0.250579 -0.575663 -1.74405)
(0.373667 -0.534443 -1.21623)
(0.127195 -0.0738392 -0.687365)
(0.32397 -0.413621 -0.738189)
(0.294039 0.512293 0.0830706)
(0.4555 0.756928 -0.627525)
(1.01122 0.710827 -0.486646)
(1.1868 0.718141 -0.841635)
(0.297052 -1.08133 -0.898835)
(0.350224 -0.687535 0.718591)
(1.67963 1.74664 0.0988691)
(2.63305 1.31904 -0.4462)
(2.2926 1.41983 -0.058908)
(3.24032 0.781304 0.0770343)
(2.96386 1.36113 0.478596)
(2.34193 2.28029 -0.0497972)
(3.90117 0.0662992 0.215962)
(3.92169 0.329102 0.367239)
(3.39942 1.52185 0.113439)
(3.11779 1.69037 0.207477)
(4.18663 -0.159253 1.07351)
(4.32012 -0.425116 0.78537)
(4.42133 -0.374553 0.921334)
(4.52 1.08927 0.0383552)
(4.10709 0.799164 -0.0424742)
(5.11135 -0.331168 1.43254)
(5.14248 -0.830518 1.0296)
(5.42282 -0.698664 0.317181)
(5.3529 -0.404388 0.556517)
(5.2317 -1.20378 1.02634)
(5.11529 1.13209 -0.0699666)
(5.32884 -0.379362 2.11691)
(5.40986 -0.516734 2.06769)
(5.70004 -0.980879 1.68415)
(5.88948 -1.09194 2.12267)
(6.26798 0.140781 -0.701835)
(5.53786 1.26743 -0.0893474)
(3.7969 1.92494 0.812062)
(4.46636 -0.302519 2.50136)
(4.32223 -0.154661 2.33907)
(4.05762 -1.08465 2.57704)
(4.09435 -0.728191 3.22678)
(4.80875 -1.38905 3.17194)
(5.81661 -0.286827 3.36043)
(6.05404 0.494178 2.94669)
(5.85564 1.89586 -0.613775)
(3.48787 -1.02645 1.30572)
(3.31398 -0.925402 1.51781)
(3.19761 -0.418186 0.9975)
(2.69424 -0.178005 1.57957)
(2.18835 -0.0943461 1.91268)
(2.64666 0.11113 3.29251)
(3.96989 -0.755249 3.1928)
(4.46345 -0.832641 3.40405)
(6.43566 -0.289333 1.27189)
(1.97143 -0.21856 0.507058)
(2.01756 -0.331695 0.381539)
(1.97504 -0.299953 0.193625)
(1.64643 -0.0651811 -0.199457)
(1.41797 -0.0692116 -0.40268)
(0.966549 0.0160203 0.350628)
(1.15598 0.406789 0.778135)
(1.50179 -0.15645 1.60471)
(1.69192 -0.0824757 2.05609)
(2.51203 0.218728 1.0638)
(0.139557 -0.277685 -1.79639)
(0.231059 -0.532105 -1.74826)
(0.347681 -0.497176 -1.22278)
(0.106953 -0.0931978 -0.731968)
(0.278746 -0.446112 -0.755376)
(0.278558 0.473206 0.0828243)
(0.447106 0.723232 -0.567294)
(0.985299 0.625726 -0.380342)
(1.15263 0.631162 -0.670747)
(0.240125 -1.02637 -0.936682)
(0.319468 -0.642632 0.641619)
(1.63037 1.52797 -0.0260203)
(2.32629 0.978878 0.0841311)
(1.76672 1.7843 0.129598)
(3.0492 0.501075 0.0198292)
(2.90461 0.721131 -0.474889)
(2.38366 1.35856 0.0154348)
(3.41157 0.0632847 0.69245)
(3.3383 0.42402 0.229804)
(3.04876 1.21523 0.435417)
(2.4578 2.13443 -0.0176241)
(4.07609 0.385312 0.416562)
(3.90905 0.0844544 0.295653)
(3.91399 0.238737 0.334325)
(3.47218 1.07871 0.239479)
(3.07566 1.85514 0.142748)
(4.19458 -0.436907 1.34519)
(4.22905 -0.708799 1.17118)
(4.30568 -0.64447 0.739358)
(4.42271 -0.404689 0.903308)
(4.58094 0.822977 -0.0493058)
(4.09591 1.14859 -0.168601)
(4.8192 -0.391224 1.7117)
(5.212 -0.0449547 1.18324)
(5.24937 -1.01547 1.1095)
(5.62581 -0.734177 0.287461)
(5.5582 -0.94119 0.688201)
(5.03745 -2.36644 1.34991)
(5.28639 0.68995 0.00750769)
(5.01813 -0.250757 2.55737)
(5.25052 -0.584269 2.20737)
(5.35606 -1.29674 2.22155)
(5.59253 -1.36187 2.37421)
(5.88575 -2.26756 2.47386)
(5.96734 -2.65425 1.54034)
(6.20009 1.30557 -0.671159)
(4.27478 1.99708 0.48677)
(4.49108 -0.801311 2.3728)
(4.26698 -0.482012 2.50227)
(4.2366 -0.227034 2.21296)
(3.94714 -0.661387 2.69717)
(3.98459 -1.2739 3.23005)
(4.78097 -1.82202 3.0758)
(5.61009 -1.38201 3.71698)
(5.93166 0.581434 3.33616)
(6.6074 1.44517 -0.421015)
(3.70311 -0.454121 1.13333)
(3.54627 -1.23107 1.04368)
(3.44956 -0.816349 1.30078)
(3.04874 -0.566516 1.17452)
(2.43022 -0.253634 1.67046)
(2.04652 -0.105114 2.09018)
(2.60119 0.0931958 3.05019)
(3.69111 -0.899629 2.9083)
(4.15207 -1.28203 3.28362)
(6.24989 -0.598294 1.23232)
(1.83193 -0.215205 0.528809)
(1.938 -0.32169 0.545688)
(2.04128 -0.365949 0.315849)
(1.99484 -0.318131 0.396639)
(1.63865 -0.147194 -0.110107)
(1.36375 -0.0638895 -0.369659)
(0.888807 -0.00261929 0.256419)
(1.03972 0.342234 0.399532)
(1.29007 -0.322318 1.11512)
(1.44968 -0.265577 1.78581)
(2.2966 0.0254043 1.10645)
(-0.191696 -0.0232844 -1.57374)
(0.140157 -0.276999 -1.81448)
(0.221324 -0.510268 -1.74562)
(0.318623 -0.465588 -1.22795)
(0.0829093 -0.109803 -0.78053)
(0.233506 -0.467406 -0.77228)
(0.25346 0.435329 0.0823124)
(0.455462 0.688872 -0.524749)
(0.938115 0.554536 -0.434564)
(1.10304 0.52354 -0.49647)
(0.308973 -0.9353 -0.941303)
(0.285235 -0.613842 0.561082)
(1.7892 1.33201 -0.160236)
(2.07951 1.20793 -0.103599)
(1.75899 1.4812 0.145267)
(2.61823 0.757963 0.091837)
(2.26765 1.23392 0.142304)
(1.88242 1.70476 0.0861502)
(3.19532 0.180401 -0.025999)
(3.11075 0.301598 -0.0174905)
(2.79865 1.24428 -0.213508)
(2.48906 1.13068 0.0216321)
(3.52823 -0.14167 0.501671)
(3.46503 -0.187666 0.664143)
(3.33417 0.31469 0.218623)
(3.25306 0.654518 0.450301)
(2.70174 1.6904 -0.00203777)
(4.07004 0.238502 0.492262)
(4.01747 -0.0862883 0.471652)
(3.8812 -0.436154 0.378763)
(3.87023 0.0825539 0.314865)
(3.54403 0.458052 0.131133)
(3.12924 1.63721 0.229637)
(4.02143 -0.529011 1.59841)
(4.21223 -0.490093 1.34074)
(4.31189 -0.883016 1.05175)
(4.33877 -0.838442 0.666099)
(4.4174 -0.560181 0.845606)
(4.50962 0.523532 -0.178512)
(4.05692 0.885699 0.0526555)
(4.36762 -0.266122 1.84071)
(4.97703 0.361436 1.5238)
(5.22978 -0.561089 1.24129)
(5.43659 -1.36982 1.01468)
(5.51461 -0.963661 0.585504)
(5.59366 -0.850806 0.516799)
(5.13531 -2.69128 1.05707)
(5.10188 -0.103654 0.05726)
(4.76725 -0.489639 2.73538)
(4.90143 -0.472724 2.34918)
(5.14102 -1.02346 2.62025)
(5.40178 -1.23117 2.49221)
(5.45422 -2.25893 2.65405)
(5.92914 -2.83558 2.25305)
(5.70427 -3.52914 2.66304)
(6.38611 -0.323013 0.0565999)
(4.80247 2.24258 0.251376)
(4.4747 -0.416582 2.20892)
(4.1469 -1.66316 2.27261)
(4.23725 -0.464528 2.33215)
(4.23647 -0.460409 2.12664)
(3.88297 -0.786988 2.57069)
(3.62676 -1.93661 3.26261)
(4.77792 -1.8342 3.10278)
(5.73444 -1.61954 3.79698)
(5.04602 -1.91428 4.55266)
(7.02955 1.45721 -0.375966)
(3.53784 0.56129 1.20047)
(3.76144 -0.317468 1.0659)
(3.57445 -0.966563 1.26837)
(3.36699 -1.02835 1.36535)
(3.06611 -0.529016 1.02877)
(2.57491 -0.233371 1.22586)
(1.98419 -0.258196 2.14066)
(2.53341 -0.139704 2.78867)
(3.28109 -1.18045 2.62196)
(3.74585 -1.78564 3.14619)
(5.95679 -0.99078 1.38651)
(1.84249 -0.193065 0.59846)
(1.76355 -0.393317 0.476067)
(1.89391 -0.471101 0.564411)
(2.03595 -0.40239 0.320373)
(2.01023 -0.339175 0.462645)
(1.61017 -0.173081 -0.129789)
(1.30917 -0.156187 -0.429162)
(0.850872 -0.0152875 0.140696)
(0.923421 0.260514 0.107733)
(1.08648 -0.479525 0.598921)
(1.18811 -0.425668 1.53413)
(2.11526 -0.111728 0.956663)
(-0.292683 0.039275 -1.50436)
(-0.18621 -0.0130339 -1.58741)
(0.143477 -0.261935 -1.83734)
(0.202318 -0.489967 -1.74519)
(0.304379 -0.438136 -1.24361)
(0.0551132 -0.122829 -0.834063)
(0.183717 -0.476175 -0.792467)
(0.232044 0.397773 0.0820217)
(0.458889 0.661266 -0.495263)
(0.900555 0.491485 -0.510488)
(1.02151 0.378171 -0.425835)
(0.303011 -0.869899 -0.961664)
(0.249121 -0.592988 0.483258)
(1.92547 0.739093 -0.0596897)
(2.12327 0.799965 0.00457816)
(1.98016 1.04289 -0.272311)
(2.35849 0.546306 -0.0514939)
(2.19031 1.11471 -0.190619)
(1.9562 1.26023 0.00711605)
(2.76049 0.280802 0.0784575)
(2.66247 0.794475 0.234229)
(2.37935 1.13759 0.108719)
(2.0584 1.546 0.124933)
(3.18843 0.153987 0.197493)
(3.20121 0.10174 0.0253188)
(3.06352 0.362523 0.0129615)
(2.92217 0.976985 -0.322235)
(2.60525 0.908039 0.153501)
(3.45946 0.0342033 0.597387)
(3.52225 -0.239317 0.525752)
(3.4577 -0.272971 0.633326)
(3.35832 0.000536462 0.212123)
(3.2888 0.835174 0.369643)
(2.8605 1.37554 -0.0712973)
(4.00095 -0.0462358 0.796411)
(4.11178 0.109277 0.510294)
(3.90485 -1.02506 0.586502)
(3.89443 -0.550715 0.380566)
(3.88375 -0.113113 0.322693)
(3.43106 0.44017 0.0278579)
(3.21567 1.27584 0.256895)
(3.89113 -0.709964 1.7492)
(4.13658 -0.692644 1.43121)
(4.17502 -0.850213 1.25285)
(4.3173 -0.909312 0.932847)
(4.34466 -0.900874 0.69586)
(4.3662 -0.727624 0.783658)
(4.43045 0.309948 -0.0974838)
(3.99059 0.906479 0.0947332)
(4.29162 -0.0477273 1.85044)
(4.54221 0.302382 1.59399)
(4.88263 -0.65514 1.5536)
(5.3285 -1.13838 1.12579)
(5.32998 -1.47157 0.975184)
(5.43817 -1.4206 1.05614)
(5.44177 -0.847816 0.334992)
(5.07118 -2.87761 0.137071)
(4.93411 -1.02198 -0.102071)
(4.68263 -0.0542124 2.9952)
(4.55448 -0.496776 2.61973)
(4.77637 -0.813344 2.26595)
(5.12195 -1.26274 2.70795)
(5.29089 -1.55923 2.73404)
(5.39241 -2.65234 2.78216)
(5.68383 -2.97936 2.54706)
(6.04958 -3.69187 2.16623)
(6.03669 -1.57902 1.2544)
(5.27536 2.25575 -0.266296)
(4.66677 0.171899 2.18279)
(4.41759 -0.878599 2.34288)
(4.10022 -1.13025 2.24392)
(4.27546 -0.547865 2.07081)
(3.96547 -1.0455 2.31036)
(3.24822 -1.9804 2.66116)
(3.18781 -2.8749 2.79609)
(4.48507 -2.72959 3.14435)
(5.75626 -1.48618 3.74863)
(5.06951 -2.429 4.68653)
(7.02006 0.761978 -0.200244)
(3.43141 0.132214 1.18833)
(3.51462 0.0183707 0.970209)
(3.72122 -0.392126 1.16492)
(3.53419 -1.03623 1.24206)
(3.29196 -1.08869 1.38315)
(2.98221 -0.719662 1.08647)
(2.2964 -0.618236 1.38014)
(1.68788 -0.627472 1.90232)
(2.32696 -0.39499 2.54566)
(2.82927 -1.65129 2.23828)
(3.43874 -2.1276 2.76341)
(5.72218 -1.27275 1.10108)
(1.98018 -0.103675 0.865143)
(1.81247 -0.31594 0.534482)
(1.64973 -0.63628 0.398302)
(1.74979 -0.601604 0.552885)
(1.97257 -0.498408 0.427064)
(2.01281 -0.374589 0.4853)
(1.59167 -0.243174 -0.108888)
(1.20646 -0.242707 -0.552712)
(0.805021 -0.0459659 0.0249203)
(0.804514 0.156 -0.114813)
(0.887564 -0.591173 0.16182)
(0.930988 -0.559639 1.28407)
(1.90467 -0.224142 0.789315)
(-0.0155245 1.20278 -1.39288)
(-0.290078 0.0696968 -1.5126)
(-0.181218 -0.00742115 -1.60342)
(0.154278 -0.246781 -1.85973)
(0.189393 -0.482637 -1.73732)
(0.287479 -0.390469 -1.29805)
(0.026748 -0.132883 -0.892256)
(0.139903 -0.477493 -0.811933)
(0.203053 0.367055 0.0805619)
(0.455755 0.635804 -0.47074)
(0.865805 0.437999 -0.573243)
(0.943972 0.275894 -0.439239)
(0.313061 -0.814006 -0.983052)
(0.230008 -0.559553 0.412199)
(1.40689 1.28617 0.130945)
(1.90304 1.0919 -0.00186526)
(1.83103 0.89203 0.0140992)
(2.22754 0.679648 -0.0971182)
(2.25082 0.619434 -0.0161011)
(2.03066 0.97952 -0.177664)
(2.42451 0.35025 0.0502234)
(2.46155 0.253503 -0.080758)
(2.27166 1.11219 -0.12231)
(2.09703 1.18357 -0.0539584)
(2.76195 0.249149 0.361939)
(2.82433 0.120495 0.085685)
(2.81159 0.6332 0.243991)
(2.48337 0.89025 0.156868)
(2.12547 1.55502 0.192691)
(3.23398 0.40417 0.328854)
(3.16163 -0.0609915 0.202064)
(3.16987 -0.184173 0.131244)
(3.05614 0.117083 0.168396)
(2.86147 0.934073 -0.215642)
(2.63785 0.910729 0.144416)
(3.52011 0.114767 0.707708)
(3.47525 -0.245193 0.686685)
(3.4187 -0.449363 0.516885)
(3.45977 -0.554395 0.515702)
(3.36447 -0.180778 0.261765)
(3.31506 0.709107 0.434451)
(2.96904 1.11719 -0.113554)
(3.91393 0.00359933 1.07467)
(3.94297 -0.173924 0.829899)
(4.04308 -0.409071 0.625792)
(3.93365 -0.358849 0.557582)
(3.93332 -0.832929 0.32516)
(3.92998 -0.396551 0.305733)
(3.41925 -0.0301741 -0.0960106)
(3.23378 0.922484 0.371899)
(3.95808 -0.310711 1.67989)
(4.0025 -0.38221 1.57116)
(4.22537 -0.681355 1.34012)
(4.22722 -1.12022 1.12518)
(4.2943 -1.11529 0.940813)
(4.19284 -1.54673 0.613613)
(4.26321 -1.27827 1.01699)
(4.30842 0.0940345 0.175386)
(4.06659 0.736305 -0.188198)
(4.5045 0.286086 1.85916)
(4.3108 -0.0625836 1.79412)
(4.43761 -0.54878 1.72379)
(4.90824 -0.782458 1.47594)
(5.27727 -1.05975 1.15253)
(5.26039 -1.69784 0.974044)
(5.50315 -1.3709 0.941867)
(5.3503 -0.911984 0.483465)
(4.62061 -3.89078 -1.11882)
(4.89753 -1.49325 -0.0094414)
(4.67353 0.0749548 2.8354)
(4.4833 -0.617575 2.92211)
(4.43999 -0.773627 2.4733)
(4.70229 -1.32823 2.26787)
(4.99369 -1.41017 2.7653)
(5.19891 -1.89684 3.02053)
(5.06904 -2.42734 3.68395)
(5.20115 -3.86619 2.65168)
(6.0337 -3.97769 2.27464)
(5.01895 -4.53736 3.75396)
(5.79788 0.913142 -1.23158)
(4.4862 0.374655 2.0731)
(4.59529 -0.461452 2.23486)
(4.36327 -0.98184 2.36948)
(4.14539 -1.27375 2.10873)
(4.17353 -0.734719 1.96611)
(3.92174 -0.948602 2.08215)
(3.44095 -1.32199 2.43237)
(3.62148 -2.03947 2.81221)
(4.44694 -2.74838 3.12978)
(3.36576 -4.58847 4.20706)
(5.11119 -3.382 3.70555)
(6.9042 -0.00762749 0.286008)
(3.45599 0.285716 1.0449)
(3.39365 0.126109 1.04064)
(3.45913 -0.156612 1.00177)
(3.6875 -0.428282 1.21443)
(3.53348 -1.18703 1.23078)
(3.28428 -1.10375 1.29549)
(2.82663 -0.96844 1.13831)
(2.15923 -0.739892 1.20493)
(1.57851 -0.579992 1.40268)
(1.99066 -0.604229 2.27225)
(2.68793 -1.70365 1.73527)
(3.11889 -2.28963 2.40218)
(5.39518 -1.52126 0.847646)
(2.49408 -0.685439 1.09275)
(1.96064 -0.140752 0.883176)
(1.75953 -0.472654 0.430026)
(1.544 -0.73582 0.281258)
(1.76547 -0.40175 0.399294)
(1.96628 -0.482308 0.402319)
(2.00556 -0.393192 0.5454)
(1.58199 -0.304809 -0.0918653)
(1.20567 -0.203626 -0.401817)
(0.751815 -0.0972194 -0.0564322)
(0.716617 0.0453414 -0.31259)
(0.652806 -0.72716 -0.129719)
(0.663764 -0.686946 1.03134)
(1.64207 -0.341483 0.647336)
(0.412133 1.56778 -1.18029)
(0.0276028 1.1699 -1.35539)
(-0.286315 0.0983155 -1.51979)
(-0.17546 -0.00665498 -1.6205)
(0.163999 -0.235526 -1.88732)
(0.165229 -0.474929 -1.76969)
(0.260837 -0.376899 -1.36452)
(-0.00526848 -0.131693 -0.956857)
(0.103183 -0.456494 -0.839858)
(0.169834 0.339155 0.083331)
(0.454648 0.606091 -0.452351)
(0.833852 0.392511 -0.616541)
(0.902708 0.187759 -0.484918)
(0.34222 -0.773775 -1.00025)
(0.23985 -0.513616 0.346877)
(1.3582 1.23794 -0.0951679)
(1.82984 0.943241 0.100154)
(1.47319 1.21171 0.084155)
(2.05562 0.630236 0.181708)
(2.02418 0.900801 0.00381506)
(1.81549 1.02723 0.105371)
(2.24598 0.584162 0.301828)
(2.32571 0.600229 -0.159035)
(2.34734 0.479323 0.086961)
(2.14431 0.832578 -0.230258)
(2.47347 0.443034 0.33378)
(2.51591 0.0620262 0.0105536)
(2.5758 0.10942 -0.146942)
(2.39494 0.908769 -0.117453)
(2.20687 1.08955 -0.148142)
(2.82806 0.52318 0.393429)
(2.78918 0.170341 0.258943)
(2.82491 0.0899424 0.126318)
(2.83627 0.514532 0.203207)
(2.55327 0.67763 0.220213)
(2.26882 1.28265 0.202469)
(3.18657 0.470451 0.645715)
(3.19598 0.168872 0.369431)
(3.12484 -0.255419 0.249294)
(3.13609 -0.317802 0.131799)
(3.01825 -0.116581 0.353008)
(3.04406 0.442201 -0.260054)
(2.67403 0.797837 0.190701)
(3.55208 0.477703 0.868048)
(3.49608 -0.137494 0.727753)
(3.48562 -0.4233 0.679709)
(3.44681 -0.539464 0.49527)
(3.46956 -0.642453 0.52701)
(3.32496 -0.391676 0.302969)
(3.26536 0.195953 0.559779)
(3.10437 0.7878 -0.187535)
(3.92657 0.223728 1.17983)
(3.86035 -0.124965 1.09033)
(4.02555 -0.476681 0.867206)
(3.95399 -0.731867 0.683191)
(3.88634 -0.980251 0.631727)
(3.90551 -0.992129 0.296828)
(3.92136 -0.495149 0.289434)
(3.34286 -0.233669 -0.00456359)
(3.23725 0.695257 0.333431)
(4.02848 -0.139564 1.76749)
(3.97646 -0.183186 1.63746)
(4.11886 -0.49605 1.49276)
(4.18799 -1.08811 1.26853)
(4.37276 -1.15858 1.08232)
(4.29327 -1.26258 0.866363)
(4.24314 -1.6572 0.570711)
(4.34657 -1.40865 1.00281)
(4.09658 -0.531878 0.468249)
(4.12673 0.985472 -0.0290155)
(4.46357 -0.0436328 1.96989)
(4.2712 -0.258207 1.85565)
(4.31126 -0.286068 1.91482)
(4.43422 -0.616623 1.65267)
(4.97697 -1.30661 1.41828)
(5.07445 -2.16978 1.1627)
(5.26747 -1.64467 1.16218)
(5.21665 -1.97768 0.945521)
(5.1603 -1.80058 0.641575)
(4.53221 -3.83016 -0.632384)
(4.82764 -1.455 0.487966)
(4.59925 -0.0273093 2.60858)
(4.58919 -0.249324 2.8532)
(4.3235 -0.723605 2.64794)
(4.23357 -1.46467 2.55871)
(4.54916 -1.55084 2.39888)
(4.85708 -1.65387 2.97377)
(4.80307 -1.93884 4)
(5.01816 -3.85234 2.88083)
(5.52136 -3.74079 2.58004)
(5.13458 -4.57268 2.59924)
(5.26543 -4.87034 2.90057)
(5.66123 0.460589 -1.59316)
(4.42085 0.448196 2.08846)
(4.49387 0.0134607 2.13162)
(4.47357 -0.76988 2.24199)
(4.32303 -1.11049 2.37087)
(4.18451 -1.43102 2.00184)
(4.09361 -0.808808 2.00326)
(3.78398 -1.01739 2.23451)
(3.46299 -1.35657 2.28036)
(2.29272 -3.48267 2.76918)
(3.51666 -3.74087 2.95018)
(5.04155 -2.52592 3.35569)
(4.84197 -4.08379 2.91296)
(6.96986 -0.433005 0.0235258)
(3.58461 0.0944723 1.43795)
(3.54618 0.234119 0.974999)
(3.37007 0.00671738 1.12286)
(3.39633 -0.302306 0.796135)
(3.67002 -0.508868 1.27516)
(3.49215 -1.28235 1.23916)
(3.19346 -1.22614 1.33454)
(2.64089 -1.25468 1.02832)
(1.94951 -0.837124 1.20434)
(1.85902 -0.633014 0.845626)
(1.9733 -0.835736 1.75989)
(2.43749 -1.74858 1.22637)
(2.72587 -2.64353 2.0529)
(4.85403 -1.81543 0.811675)
(2.45851 -0.841302 0.6288)
(2.47346 -0.664506 1.1157)
(1.9433 -0.182325 0.955127)
(1.70548 -0.516294 0.321514)
(1.43093 -0.893117 0.215844)
(1.63352 -0.584714 0.361703)
(1.93611 -0.501064 0.406818)
(2.00108 -0.416114 0.581209)
(1.55471 -0.393298 -0.0662108)
(1.18753 -0.248872 -0.344248)
(0.700469 -0.153696 -0.129145)
(0.642373 -0.0481688 -0.449865)
(0.499023 -0.792911 -0.285586)
(0.40188 -0.800117 0.774027)
(1.33427 -0.477597 0.524184)
(0.0561689 0.6191 -0.457153)
(0.467968 1.45219 -1.142)
(0.0628969 1.1346 -1.31946)
(-0.279707 0.127213 -1.52334)
(-0.172063 -0.0114438 -1.6402)
(0.176581 -0.226921 -1.91706)
(0.144329 -0.471656 -1.83242)
(0.223269 -0.371547 -1.44236)
(-0.0416908 -0.131496 -1.02009)
(0.071848 -0.42591 -0.870948)
(0.132169 0.313367 0.0810054)
(0.453146 0.577762 -0.438602)
(0.804002 0.350604 -0.648878)
(0.894005 0.143442 -0.516007)
(0.363224 -0.755945 -1.01105)
(0.27338 -0.464805 0.286778)
(1.67203 0.710202 0.113574)
(1.92094 0.844986 0.0861153)
(1.68435 0.829735 -0.124847)
(2.11064 0.638915 0.164833)
(1.98762 0.671343 0.0749077)
(1.65312 1.00628 0.00486289)
(2.12424 0.645265 0.293059)
(2.1002 0.514821 0.140723)
(2.03699 0.905042 0.0118048)
(1.87505 0.854161 0.0747698)
(2.30344 0.505214 0.379263)
(2.37446 0.33445 0.172691)
(2.38606 0.571519 -0.0919563)
(2.41206 0.288278 0.105922)
(2.15738 0.710034 -0.182998)
(2.56369 0.480858 0.459011)
(2.54163 0.215077 0.292197)
(2.51089 0.0598943 0.00922501)
(2.62562 0.235103 -0.220042)
(2.50792 0.777338 -0.145567)
(2.26625 0.974019 -0.199543)
(2.80205 0.455367 0.614933)
(2.85612 0.445947 0.371734)
(2.81052 -0.0873001 0.293018)
(2.78098 -0.155192 0.231935)
(2.80797 0.242426 0.230936)
(2.59263 0.57237 0.259162)
(2.36575 1.06668 0.182817)
(3.24367 0.388215 0.686574)
(3.18775 -0.0466545 0.650746)
(3.13999 -0.103462 0.410865)
(3.08015 -0.506567 0.323839)
(3.11634 -0.433311 0.195592)
(3.02079 -0.00288537 0.304954)
(3.11913 0.499734 -0.287054)
(2.71822 0.697061 0.28627)
(3.56237 0.102904 1.13885)
(3.52445 -0.173985 0.922556)
(3.48262 -0.414104 0.779509)
(3.46901 -0.474696 0.611736)
(3.50032 -0.740473 0.487271)
(3.38699 -0.831963 0.489593)
(3.3344 -0.47827 0.358626)
(3.14408 -0.0471642 0.629947)
(3.25364 0.560721 -0.404829)
(3.94982 0.207031 1.2183)
(3.84465 -0.118577 1.22854)
(3.91904 -0.246603 1.07733)
(4.00529 -0.732353 0.920761)
(3.97614 -0.904087 0.705049)
(3.89221 -1.08225 0.620828)
(3.8256 -1.21027 0.284287)
(3.8204 -0.810846 0.258326)
(3.33231 -0.280165 0.0422905)
(3.33904 0.289363 -0.0176115)
(4.1215 0.197425 1.64404)
(4.01041 -0.192384 1.78006)
(4.05549 -0.35217 1.59669)
(4.10697 -0.60402 1.48304)
(4.16659 -1.59988 1.33734)
(4.27366 -1.46848 1.1479)
(4.18205 -1.79513 0.734094)
(4.24146 -1.71833 0.7187)
(4.24707 -1.65091 1.00681)
(3.8993 -0.31639 0.242105)
(4.20283 0.9132 0.0827037)
(4.45511 -0.0941557 2.12336)
(4.60028 -0.707583 1.46727)
(4.2556 -0.648846 1.87595)
(4.08782 -0.558627 2.0498)
(4.47133 -0.863313 1.6783)
(4.88256 -1.58758 1.38132)
(5.16021 -2.30157 1.39011)
(5.08062 -2.03534 1.42928)
(5.1987 -2.01621 0.900684)
(4.92198 -2.36757 0.90935)
(5.02939 -2.90835 -1.40644)
(4.74482 -1.75665 0.867269)
(4.59068 -0.0169135 2.19508)
(4.48891 -0.503981 2.603)
(4.3641 -0.453478 2.72202)
(4.50459 -0.663461 2.3025)
(4.04674 -1.39912 2.61212)
(4.49058 -1.67202 2.42992)
(4.67996 -1.98135 3.36191)
(4.39703 -3.30938 4.00459)
(4.67314 -2.41568 4.54507)
(5.25484 -3.80274 2.90661)
(4.12327 -5.49156 2.47693)
(5.50524 -4.88279 1.66433)
(5.43522 -0.395769 -1.42759)
(4.25802 0.286646 2.12089)
(4.44506 0.304527 2.0652)
(4.49604 -0.171604 2.22144)
(4.37839 -0.923779 2.25511)
(4.38535 -1.35685 2.40303)
(4.17936 -1.29365 2.00764)
(4.03937 -0.967885 2.16298)
(3.7303 -1.21381 2.2783)
(3.35677 -1.52194 2.29123)
(3.32169 -2.4485 2.54462)
(3.69844 -3.41634 2.59403)
(4.03629 -3.95965 3.15619)
(3.489 -5.46701 3.12819)
(6.96259 -0.834973 -0.134213)
(3.55997 0.616281 1.2468)
(3.59172 0.315195 1.25877)
(3.20355 -0.194859 1.77449)
(3.36864 0.072072 1.15538)
(3.2348 -0.403157 0.840971)
(3.48384 -0.799173 1.38959)
(3.31088 -1.43917 1.11224)
(3.14148 -1.20144 1.29359)
(2.52712 -1.27666 0.870506)
(1.88371 -0.993189 0.870422)
(1.50482 -0.743779 0.921702)
(1.6834 -0.956186 1.4651)
(2.10112 -1.94492 0.743873)
(2.38372 -3.01596 1.62558)
(4.0628 -2.1582 1.03114)
(2.55983 -0.281082 -0.0804498)
(2.4193 -0.970554 0.571227)
(2.38695 -0.723609 1.12377)
(1.93988 -0.18369 1.0119)
(1.62675 -0.591678 0.243595)
(1.33835 -1.02866 0.176244)
(1.38055 -0.831518 0.448593)
(1.87664 -0.511221 0.425573)
(1.98579 -0.42581 0.623136)
(1.52232 -0.45193 -0.0702325)
(1.10675 -0.293477 -0.450275)
(0.654578 -0.219988 -0.18919)
(0.559051 -0.153549 -0.583409)
(0.219701 -0.914146 -0.527468)
(0.17137 -0.883425 0.507493)
(0.984312 -0.637296 0.428295)
(0.405209 0.164192 -0.396444)
(0.0887405 0.621805 -0.444166)
(0.510275 1.34858 -1.1093)
(0.0953293 1.09785 -1.28691)
(-0.274258 0.153757 -1.52619)
(-0.171979 -0.0208795 -1.66817)
(0.195791 -0.215273 -1.94374)
(0.125238 -0.47626 -1.8905)
(0.184368 -0.365652 -1.5205)
(-0.0822431 -0.130187 -1.07461)
(0.0426454 -0.396442 -0.897342)
(0.0930001 0.290806 0.0710826)
(0.451576 0.550689 -0.427913)
(0.782205 0.317744 -0.661165)
(0.917324 0.113283 -0.550599)
(0.387352 -0.730855 -1.02097)
(0.319224 -0.422296 0.232134)
(1.39626 0.937888 0.0657238)
(1.85823 0.787699 -0.0865592)
(1.76831 0.473398 0.0855178)
(2.08737 0.689978 0.103089)
(2.06624 0.646338 -0.0404324)
(1.78789 0.77559 -0.141802)
(2.12638 0.738346 0.262607)
(2.14182 0.612385 0.110519)
(2.07746 0.605311 0.0398621)
(1.79283 0.828211 0.00917372)
(2.19914 0.5682 0.465494)
(2.15817 0.502629 0.282232)
(2.18104 0.126069 0.237601)
(2.06321 0.835296 0.0284469)
(1.90952 0.746968 0.117985)
(2.37824 0.622688 0.49981)
(2.37034 0.428367 0.343814)
(2.39581 0.444212 0.175474)
(2.44259 0.457511 -0.037012)
(2.47553 -0.0612901 0.00628417)
(2.25349 0.438554 -0.231109)
(2.55587 0.654904 0.549716)
(2.62016 0.401624 0.471172)
(2.53841 0.11935 0.249481)
(2.52788 -0.0885511 0.0828872)
(2.65611 0.000846241 -0.194591)
(2.64265 0.492926 -0.0305561)
(2.40491 0.679403 -0.0528836)
(2.84478 0.565464 0.721056)
(2.85014 0.234832 0.612111)
(2.84369 0.121862 0.36755)
(2.83626 -0.196118 0.299979)
(2.75402 -0.349329 0.247188)
(2.81741 0.10342 0.271581)
(2.69145 0.312247 0.0530113)
(2.49616 0.838575 0.157828)
(3.23944 0.324305 0.9646)
(3.26845 0.307818 0.66377)
(3.15975 -0.00247727 0.620287)
(3.09739 -0.369865 0.439877)
(3.05687 -0.556429 0.337589)
(3.1144 -0.476543 0.205679)
(3.04279 -0.388763 0.465141)
(3.14784 0.44224 -0.227388)
(2.78586 0.49051 0.313378)
(3.4941 0.0344923 1.2035)
(3.5634 0.092867 1.12552)
(3.48847 -0.227868 0.924885)
(3.43747 -0.579 0.80853)
(3.42069 -0.899016 0.6545)
(3.48012 -0.756058 0.499172)
(3.37625 -0.876661 0.440992)
(3.33874 -0.543235 0.360546)
(3.12468 -0.404116 0.702208)
(3.31311 0.45513 -0.242791)
(3.89007 0.327392 1.26095)
(3.90363 -0.0889584 1.2948)
(3.86863 -0.213156 1.23958)
(3.88284 -0.875088 1.17133)
(3.88752 -0.967243 0.993298)
(3.95002 -1.30613 0.790139)
(3.89816 -1.10339 0.535002)
(3.83957 -1.20615 0.273559)
(3.80273 -0.945298 0.239416)
(3.34982 -0.538764 -0.0269607)
(3.35471 0.189075 0.0954037)
(4.31011 0.167074 1.73403)
(4.07861 0.213724 1.6665)
(3.925 -0.223458 1.77184)
(4.01886 -0.448127 1.61784)
(4.06202 -1.37612 1.57928)