/*--------------------------------*- C++ -*----------------------------------*\
  =========                 |
  \\      /  F ield         | OpenFOAM: The Open Source CFD Toolbox
   \\    /   O peration     | Website:  https://openfoam.org
    \\  /    A nd           | Version:  7
     \\/     M anipulation  |
\*---------------------------------------------------------------------------*/
FoamFile
{
    version     2.0;
    format      ascii;
    class       volScalarField;
    location    "9.5";
    object      nut;
}
// * * * * * * * * * * * * * * * * * * * * * * * * * * * * * * * * * * * * * //

dimensions      [0 2 -1 0 0 0 0];

internalField   nonuniform List<scalar> 
18780
(
8.9561e-05
0.000215961
0.000129039
5.05674e-05
0.000638854
0.000184659
0.000285446
0.000163094
0.000186831
0.000255165
0.00108526
0.000579275
0.000565552
0.000231508
0.000293608
0.000245547
8.10882e-05
0.000301653
0.000170255
0.000162197
0.000910013
0.00179602
0.00143664
0.000399865
0.000650251
0.00041356
0.000291596
0.000264409
0.000391294
0.000383081
0.000189237
8.89596e-05
0.000122005
0.000162991
0.000289524
0.000861633
0.00170274
0.000652109
0.0020448
0.000939978
0.000819882
0.000389024
0.000553178
0.00046852
0.000230674
0.000354933
0.000426681
0.000253034
0.000283329
0.000500622
0.000161333
8.08661e-05
0.000114608
0.000160502
0.000364226
0.000111406
0.000969622
0.00116847
0.000689677
0.00202856
0.00131122
0.00167371
0.0029927
0.00203844
0.00130355
0.000986957
0.000634313
0.00060901
0.00060913
0.000442144
0.000552603
0.000306414
0.000337131
0.000170908
0.000286711
0.000621121
0.000283043
5.62717e-05
4.60554e-05
0.000110295
0.000108894
0.000416272
0.000141707
0.000189218
0.000734008
0.000872794
0.000946319
0.00202216
0.000852062
0.000943895
0.00141725
0.000911588
0.00129432
0.000687978
0.00267795
0.00265653
0.00166793
0.000904796
0.0012689
0.000712734
0.00073525
0.000591455
0.000234866
0.000592005
0.000494005
0.000274248
0.000327346
0.000215031
0.000381377
0.000444976
0.000292268
0.000512294
0.000300362
3.23059e-05
0.000189432
0.000140695
0.000431997
0.00016728
0.000187308
0.000465708
0.000488802
0.000903657
0.000619389
0.00121085
0.000962375
0.000583971
0.00161148
0.00102224
0.0018286
0.000844367
0.00250392
0.00155955
0.000951703
0.00106307
0.000470215
0.00151599
0.0017319
0.00112646
0.000825681
0.000931009
0.000661439
0.000711851
0.000726357
0.000576733
0.000241422
0.000490576
0.000481444
0.000339608
0.000237527
0.000316897
0.000345665
0.00036682
0.000309688
0.000318297
0.00043148
0.000380842
0.000227288
4.8118e-05
0.000253976
0.000135498
0.000428916
0.000183073
0.000176823
0.000485538
0.0004553
0.000644094
0.000353881
0.000589245
0.000575773
0.000728144
0.000584639
0.000877416
0.0013456
0.00117665
0.00078886
0.000499627
0.00164366
0.000537188
0.00162685
0.000787885
0.000441957
0.00184795
0.00143355
0.00204421
0.00129289
0.000554098
0.000622726
0.00256381
0.00126789
0.00129438
0.000913278
0.00115771
0.000986845
0.000548302
0.000924626
0.000663075
0.000553979
0.000316488
0.00033829
0.000411567
0.000536275
0.000400912
0.000242928
0.000154363
0.000267023
0.000486672
0.000298455
0.000396033
0.000311591
0.000389099
0.000356234
7.38027e-05
3.99667e-05
7.27702e-05
0.000122741
0.000375462
0.000165696
0.00017959
0.000476019
0.000406802
0.000321447
0.000467996
0.000569314
0.000406211
0.000398863
0.000600031
0.000689042
0.000592267
0.00112048
0.00060829
0.000629589
0.00095358
0.000993553
0.00126124
0.000939749
0.00108499
0.000688634
0.00058083
0.00167227
0.000761449
0.00139894
0.00068634
0.000369546
0.000495876
0.00119876
0.00137021
0.00158257
0.000944945
0.000486577
0.000564567
0.000660651
0.00169543
0.00219522
0.00209464
0.000774763
0.000939474
0.000810076
0.000485673
0.000354667
0.0010916
0.000770226
0.000725771
0.000416904
0.000390245
0.000544041
0.000587921
0.000495377
0.000354193
0.000385341
0.000302634
0.000180681
0.000600847
0.000430165
0.00048482
0.000281515
0.000367847
0.000312919
0.000594947
0.000214771
5.29628e-05
0.000190959
0.000165818
0.000286959
0.000152845
0.0001923
0.000463196
0.000335786
0.000261132
0.000727041
0.000274908
0.000263132
0.000566161
0.000477096
0.000496753
0.000916351
0.000515534
0.000482461
0.000872029
0.000639383
0.000591794
0.00104154
0.00150523
0.000637447
0.000841279
0.00077695
0.000738114
0.00103496
0.0011405
0.000712523
0.000801895
0.000807951
0.000800729
0.000638641
0.00213584
0.00131028
0.00128112
0.000424626
0.000376146
0.000341889
0.00063325
0.00192359
0.0015956
0.000995275
0.00072627
0.000579728
0.000450545
0.00049237
0.000455891
0.00100277
0.00217433
0.00194209
0.000999603
0.000980773
0.000773775
0.000677546
0.000529046
0.000461586
0.000982953
0.00110059
0.000674281
0.000407043
0.000426974
0.000538146
0.000540672
0.000436919
0.000447243
0.000636579
0.000420309
0.000470529
0.000185194
0.000200905
0.00032507
0.000518734
0.000282274
0.000335943
0.000201705
0.000281183
0.000471027
0.000132599
8.14514e-05
7.11116e-05
9.61741e-05
0.000250825
0.000200785
0.000206774
0.000443572
0.000290154
0.00020875
0.000592611
0.000333307
0.000886265
0.000498235
0.000446436
0.00016401
0.000381143
0.000616833
0.000689404
0.000351019
0.00059478
0.000426708
0.00201228
0.000497259
0.000682234
0.000831601
0.00187332
0.000566673
0.000387202
0.000887574
0.000977602
0.00225702
0.000500437
0.000544083
0.000409545
0.000891049
0.0010504
0.00189057
0.00103163
0.00113285
0.00092423
0.000919877
0.00134071
0.000719687
0.00120953
0.00155563
0.00135665
0.00126298
0.000514751
0.00127783
0.000375264
0.000766388
0.000715858
0.00197392
0.00143336
0.00152011
0.00220027
0.000872029
0.000644745
0.000544908
0.000459588
0.000961245
0.00133714
0.000878636
0.0011939
0.00172708
0.000872934
0.000888764
0.000679387
0.000608667
0.000597202
0.000677739
0.000814625
0.0010606
0.000523015
0.000484607
0.000453923
0.000492655
0.000423852
0.00056327
0.000362615
0.000675047
0.000556405
0.000376241
0.000338571
0.000270535
0.000434397
0.000214841
0.000488246
0.000316335
0.000289729
0.000243995
0.000352067
0.000469894
0.000279284
0.000131608
8.9734e-05
5.17948e-05
6.06612e-05
0.000219727
0.00031652
0.000229541
0.00042423
0.000261568
0.000185305
0.000413552
0.000305177
0.000129403
0.000754553
0.000549291
0.000411482
0.000453478
0.000439672
0.000174115
0.000601849
0.00111237
0.000404649
0.000437981
0.000399186
0.00116302
0.000425761
0.000430036
0.00055088
0.00142566
0.00130009
0.000464282
0.000652819
0.000646491
0.00142949
0.00196402
0.000563155
0.000820609
0.00084697
0.00138597
0.00155615
0.00224036
0.000321059
0.000510184
0.00046728
0.000850716
0.00128155
0.00166807
0.00162486
0.00060454
0.00151098
0.000811322
0.00113448
0.00103505
0.000791461
0.000987446
0.00133555
0.000970701
0.00231167
0.00108773
0.000456497
0.00143719
0.000541429
0.00062864
0.000672759
0.00065259
0.00183248
0.00157107
0.00231932
0.00206687
0.00112652
0.000558605
0.000490531
0.000525206
0.000776264
0.000908318
0.00118962
0.00152992
0.00128491
0.00180302
0.000678541
0.000955104
0.000834532
0.00054302
0.000505376
0.000903723
0.000692086
0.000798006
0.000951548
0.000466531
0.000525887
0.000469444
0.000582666
0.000397445
0.000387079
0.000404193
0.00065797
0.000427975
0.000839324
0.000362594
0.000370259
0.000261231
0.000374738
0.000172449
0.000247249
0.00034253
0.000283838
0.00026767
0.000301469
0.000360844
0.000372851
0.00108824
9.44265e-05
0.000114755
0.000181044
0.00010685
0.00022046
0.000373548
0.000251797
0.000412128
0.000242349
0.000190266
0.000285162
0.000264205
0.000160936
0.000179932
0.000589756
0.000532465
0.000610231
0.000556341
0.000192353
0.000424457
0.000442589
0.000425163
0.000339224
0.000272756
0.000599037
0.000904482
0.00163704
0.000442087
0.000394667
0.000527222
0.000628091
0.00096079
0.000464631
0.00062925
0.000495242
0.000994949
0.00184548
0.000900839
0.000480505
0.000529888
0.000614157
0.00108343
0.0025032
0.00132583
0.000495952
0.000525687
0.000514295
0.00102419
0.00132961
0.0023689
0.00130136
0.00032695
0.000701642
0.000647462
0.000782947
0.00125235
0.00161332
0.00130863
0.000938166
0.000717244
0.0013942
0.000826669
0.00106431
0.00121808
0.0011729
0.000923413
0.00109706
0.000817809
0.000886033
0.00184053
0.00138199
0.00128328
0.00185018
0.000853282
0.00067972
0.000739772
0.00128378
0.00114218
0.00166145
0.00166588
0.00113151
0.00156619
0.00114898
0.000183364
0.000515557
0.000451774
0.000641142
0.00100648
0.00102708
0.0010648
0.000603449
0.00158887
0.00112446
0.00076672
0.000881842
0.00103427
0.00100102
0.000597063
0.000772794
0.00101686
0.000786255
0.000676859
0.000897132
0.00049746
0.000491322
0.0003602
0.000520111
0.000618521
0.000589452
0.000340589
0.000547037
0.00056846
0.000414188
0.000802761
0.000375504
0.000429229
0.000183154
0.000419445
0.000323629
0.000316351
0.000609583
0.000242861
0.000270172
0.000415984
0.000339381
0.000381289
0.000513868
0.00039333
0.000187083
0.000217077
0.00016669
0.000145971
0.000171134
0.000371081
0.000276946
0.000413514
0.000204771
0.000211902
0.000223181
0.000213929
0.000152333
0.000186734
0.000207834
0.000415936
0.000476458
0.000487799
0.000408542
0.000152126
5.7094e-05
0.000337305
0.000190264
0.000368603
0.000740422
0.00039512
0.000709711
0.00130772
0.000933992
0.000373347
0.000470935
0.000381602
0.00115967
0.00069385
0.000466966
0.000468309
0.000553803
0.00107524
0.00140761
0.000738701
0.000519961
0.000517091
0.000393475
0.00059456
0.00170521
0.00150436
0.000578258
0.000474065
0.000517525
0.000627904
0.00107311
0.00219609
0.00168238
0.00121795
0.000515552
0.000495469
0.000620526
0.000635545
0.00100054
0.00203266
0.0010605
0.000975759
0.000473958
0.000447733
0.000476989
0.000716087
0.000933362
0.00145096
0.00171868
0.000896447
0.000994605
0.000426386
0.000922783
0.00101208
0.00108351
0.0013033
0.00155582
0.000895278
0.000931045
0.000592181
0.000327689
0.000788079
0.001402
0.00124837
0.00147755
0.00122132
0.000849185
0.00054738
0.000654111
0.000868803
0.00091567
0.000723051
0.0010958
0.00157907
0.00113849
0.00339904
0.00166622
0.000254057
0.000660135
0.000502505
0.000804965
0.00084859
0.000942311
0.000427061
0.00138435
0.000979123
0.00223856
0.00105208
0.000604947
0.000884418
0.000929133
0.00148597
0.000579283
0.000816821
0.000805606
0.000320207
0.00104435
0.000577948
0.000806261
0.000729841
0.00066675
0.000265552
0.000367631
0.000526833
0.000462613
0.000299852
0.00047653
0.000731953
0.00127004
0.00036644
0.000491627
0.000397936
0.000335451
0.000155195
0.000552511
0.000448146
0.000276649
0.000348395
0.000205239
0.000256571
0.000316388
0.000375155
0.000382722
0.000832327
0.000263499
0.000295015
0.00028852
0.000327268
0.000120728
0.000190144
0.000138008
0.00035958
0.000321405
0.000415142
0.000154911
0.00024108
0.000219951
0.000167125
0.000192447
0.000186223
0.000200285
0.000145526
0.000242669
0.000402685
0.000333188
0.000221838
0.000528546
0.000117166
0.000381
0.00022828
0.000583953
0.00067094
0.000165975
0.00045254
0.0006527
0.00130095
0.00135394
0.000507365
0.000537008
0.000440774
0.000617808
0.000625831
0.000424311
0.000412776
0.000548086
0.000674538
0.000711154
0.000904595
0.000664307
0.000544126
0.000574446
0.000616044
0.00212331
0.00133651
0.00079737
0.000400238
0.000328184
0.000558143
0.000560458
0.00158064
0.00176368
0.000757116
0.00118254
0.000407987
0.000431879
0.000339107
0.000712997
0.000754861
0.00299119
0.000809386
0.0014245
0.000553088
0.000310701
0.000775026
0.000894334
0.000850271
0.00216178
0.00130917
0.00107824
0.000888807
0.000509844
0.000428896
0.000565546
0.000576636
0.000690663
0.00130132
0.0015513
0.000957018
0.000913474
0.000745271
0.000541309
0.000376895
0.000924499
0.000889613
0.000842951
0.00149145
0.00107237
0.000937548
0.000830734
0.000634466
0.000708657
0.000687701
0.000845313
0.00136349
0.0011839
0.000701714
0.00125961
0.000374231
0.000787926
0.000892576
0.000894811
0.00104302
0.000814708
0.000991881
0.0014707
0.00103719
0.00245495
0.00173084
0.000589668
0.000588864
0.000429883
0.000884041
0.000891486
0.000883508
0.000168559
0.0011313
0.00112081
0.00120884
0.000944666
0.00223386
0.000901612
0.000850622
0.00132519
0.00108536
0.00058433
0.000602272
0.000762966
0.000363549
0.00118036
0.000807489
0.000508702
0.000696645
0.000788749
0.000863129
0.000285987
0.000318367
0.000788306
0.000469831
0.000739832
0.000501415
0.000785464
0.000826592
0.000534515
0.000415845
0.000506319
0.000353834
0.000489076
0.000213253
0.000428515
0.000326186
0.000164266
0.000250251
0.000189117
0.000179055
0.000336377
0.000326938
0.000357029
0.000434664
0.000306171
0.000377357
0.000304895
0.000125694
0.000300878
0.000148164
3.86265e-05
0.000253018
0.000298819
0.000346521
0.000410306
0.000124158
0.000248795
0.000182421
0.000153938
0.000235653
0.000155786
0.000189121
3.17715e-05
0.00014531
0.000501447
0.000288115
0.000506063
0.000325506
0.000464877
0.000235048
0.000379985
0.000288237
0.000445341
0.00033201
0.000153098
0.000407998
0.000489412
0.000191269
0.000875951
0.000321189
0.000484203
0.000592558
0.000576875
0.000473722
0.000731971
0.000513512
0.000630771
0.000534433
0.000421285
0.0009322
0.00100393
0.000343609
0.000494739
0.000425933
0.0006628
0.000657885
0.00124468
0.000496833
0.00051269
0.00032842
0.000658151
0.000604669
0.000591409
0.0009116
0.00107289
0.00128196
0.000499116
0.000283336
0.000617237
0.000588025
0.000356331
0.00180493
0.00154126
0.00121151
0.00139853
0.000450294
0.000345047
0.00051233
0.000690257
0.000627419
0.00325853
0.00111137
0.000852249
0.000972516
0.000612134
0.000514759
0.000635851
0.000714881
0.000760519
0.00212387
0.00152572
0.00100532
0.00179636
0.00192388
0.00050464
0.000452948
0.000422387
0.000683385
0.000794719
0.0013008
0.00156589
0.00150599
0.000683047
0.0012727
0.00147
0.000647496
0.000402011
0.000888616
0.000769716
0.00072303
0.00108836
0.00112454
0.00146878
0.001152
0.000609412
0.00106614
0.00223098
0.00104345
0.00060009
0.00107626
0.00113074
0.000686025
0.00166786
0.000668062
0.000708712
0.000523912
0.000929346
0.000987599
0.00108395
0.000857934
0.00102426
0.00149904
0.00167506
0.00138402
0.000637161
0.00108531
0.00046547
0.000822688
0.000734606
0.000887964
0.00153405
0.000517719
0.0012933
0.00127745
0.0010037
0.000993392
0.00168749
0.00215627
0.00114727
0.000707252
0.000947746
0.000921496
0.000553736
0.000718716
0.00139006
0.000299767
0.00106703
0.00116422
0.00075085
0.000369146
0.000488682
0.000576428
0.000927996
0.000388034
0.000498021
0.000901572
0.000496428
0.000197798
0.000543121
0.000736534
0.000580821
0.000460699
0.000382598
0.000370273
0.000294878
0.000398892
0.000634834
0.000315838
0.000229228
0.000215293
0.000103831
0.000310894
0.000193362
0.000250222
0.000282267
0.000297009
0.000321807
0.000368175
0.000328711
0.000330136
0.000285518
0.000261106
0.000148343
0.000238095
0.0001306
5.82073e-05
0.000171089
0.000220236
0.000373429
0.000396933
0.000110615
0.000228806
0.000162907
0.000156832
0.000155975
0.000137289
0.0001962
0.000144669
3.58477e-05
0.000278873
0.00060267
0.000525062
0.000518434
0.000342572
0.000510735
0.00064424
0.000267967
0.000471962
0.000257589
0.00029248
0.000324349
0.000251195
0.000306733
0.000230528
0.00073011
8.67163e-05
0.000327947
0.000867946
0.000560462
0.00141242
0.000607478
0.000405153
0.000483369
0.000451659
0.000574898
0.000896279
0.00104399
0.000586262
0.000728659
0.000623059
0.000354808
0.000569268
0.000663175
0.000978463
0.000895576
0.000521945
0.000245645
0.000486183
0.00068097
0.00100626
0.00201951
0.000642058
0.000735393
0.000355557
0.000243576
0.000560565
0.000584681
0.00112751
0.0020927
0.00108121
0.00131212
0.00133986
0.000351573
0.000439835
0.000433551
0.000256566
0.000571355
0.00200326
0.00165503
0.00151125
0.0013584
0.00116594
0.000454118
0.000345394
0.000534668
0.000691364
0.000332479
0.00162779
0.0024788
0.00111319
0.00152593
0.00139051
0.000671816
0.000564947
0.000706669
0.000391138
0.000703014
0.00161855
0.00204266
0.000791384
0.00131096
0.00151592
0.00142895
0.00090878
0.000439992
0.000512664
0.000488016
0.000721103
0.00152972
0.00172397
0.00108733
0.000649031
0.00114359
0.00157879
0.0012687
0.000643166
0.000515341
0.000791162
0.000697381
0.00134726
0.00113928
0.00123348
0.00171094
0.00120204
0.000404354
0.00134913
0.00135907
0.00109021
0.00113437
0.000725061
0.00119552
0.00103042
0.00106688
0.00109428
0.000753608
0.000494731
0.000831245
0.000799447
0.00105736
0.000985955
0.00124021
0.00156492
0.00114207
0.00158566
0.00174111
0.00120533
0.00124352
0.00108626
0.000624631
0.000605054
0.000671392
0.000799716
0.000793714
0.000743114
0.000844892
0.00111571
0.000555285
0.00104158
0.00117645
0.00199783
0.00137634
0.0010224
0.000707246
0.000793861
0.00106768
0.000626929
0.000479489
0.00104045
0.000293419
0.000685778
0.00129235
0.000616495
0.000698436
0.000453663
0.00067854
0.00065967
0.000911244
0.000504747
0.000806994
0.00093197
0.000370183
0.000255322
0.000287601
0.00076612
0.000630413
0.000291914
0.000601342
0.000229699
0.000340431
0.000245047
0.000429069
0.000654305
0.000179478
0.000100008
0.000205081
0.000212226
0.00023984
0.00022053
0.000216942
0.000287164
0.000486474
0.000306803
0.000325107
0.000379926
0.00022976
0.000389175
0.000436997
0.000283496
0.000142846
0.000150503
0.000121801
0.000260801
0.000163428
0.000170611
0.00039394
0.000353813
0.000128841
0.000231349
0.000221366
0.000173431
8.5763e-05
0.000122542
0.000191368
0.000184408
7.51502e-05
5.50467e-05
0.000116268
0.000752104
0.000573555
0.000651946
0.000550139
0.000626769
0.000416532
0.000653165
0.000213749
0.000445499
0.000586878
0.000131775
0.000326965
0.000460891
0.00032707
0.000877169
0.000292343
0.000483184
0.000517385
0.00063487
0.00106972
0.000682452
0.000275236
0.000396913
0.000566425
0.000606589
0.00109864
0.000683259
0.000564295
0.000398247
0.000488786
0.000248271
0.000433271
0.000714775
0.000736226
0.000763498
0.000606902
0.000452321
0.000236333
0.000310448
0.000405957
0.0012421
0.000793501
0.000467646
0.000749193
0.000407002
0.000652302
0.000855621
0.00103803
0.00136733
0.0013308
0.00114603
0.00106671
0.000604593
0.000452313
0.000430828
0.000519116
0.000306871
0.000554199
0.00103151
0.000533333
0.000845867
0.0011462
0.00145958
0.000432936
0.000211534
0.0005665
0.000426604
0.000529597
0.000958538
0.00179872
0.000692469
0.00105323
0.00157824
0.000223664
0.0005685
0.00037011
0.000559239
0.000237181
0.000541422
0.000893861
0.00235223
0.00125253
0.00168353
0.00152201
0.000808601
0.000710566
0.000552012
0.000698836
0.00032875
0.000868142
0.00132537
0.00240564
0.000615082
0.001304
0.0016683
0.00150544
0.00111532
0.000800997
0.000409616
0.000759305
0.000323556
0.000897018
0.00137267
0.00161689
0.00114403
0.00102752
0.000741349
0.00164854
0.00243975
0.0010981
0.000912629
0.000615307
0.000460513
0.000759481
0.00117597
0.000914627
0.00112205
0.000865228
0.00119337
0.000532989
0.000962072
0.00137336
0.00103334
0.00186911
0.00131374
0.000966583
0.00105722
0.000961989
0.00134735
0.00198571
0.000797668
0.000676693
0.000830528
0.000769862
0.00125873
0.00111773
0.000488625
0.000887687
0.000831051
0.000615857
0.00106111
0.00167627
0.00121077
0.00168942
0.000909621
0.000497675
0.000889159
0.000619092
0.00101326
0.00140478
0.000460629
0.000989252
0.00118286
0.001034
0.000397744
0.000971547
0.0012754
0.0014878
0.000965862
0.000945606
0.000732932
0.0010585
0.0011036
0.000397583
0.000698935
0.000993428
0.000355486
0.000865608
0.00111676
0.00103852
0.000420903
0.000434374
0.000497222
0.00076746
0.000988604
0.00077217
0.000464899
0.000751212
0.000770752
0.00049151
0.000642684
0.000513799
0.000775795
0.0011247
0.000463727
0.000689211
0.000304706
0.000193059
0.000195337
0.000307108
0.000383449
0.000680429
0.000183536
0.000237215
0.000259837
0.000185717
0.000354149
0.00032565
0.000207721
0.000348115
0.00036208
0.000368071
0.000441587
0.000317257
0.000229115
0.000286559
0.000271293
0.000220456
0.000413189
0.000161117
8.67767e-05
0.000122982
0.000188092
0.000106223
0.000149287
0.000388128
0.000357158
0.00016576
0.000246188
0.000267145
0.000197864
0.000122123
9.7652e-05
0.00018585
0.000187786
0.00016041
0.000259479
0.000185187
0.00010654
0.00120322
0.000829229
0.000609705
0.000507684
0.000599588
0.000528098
0.000469383
0.000325706
0.000439209
0.000510221
0.000287916
0.000190725
0.00039151
0.00029928
0.000655047
0.000155113
0.000252754
0.000217687
0.000327574
0.000797357
0.000512492
0.000343661
0.000442677
0.000720428
0.000361392
0.000333541
0.000696075
0.000446193
0.000270765
0.00025927
0.000616509
0.000452397
0.0003025
0.000705513
0.000598041
0.000384106
0.000525146
0.000633386
0.00010248
0.000726495
0.00122378
0.00108312
0.000668974
0.00061049
0.000690381
0.000423715
0.000232349
0.00040228
0.000793306
0.00112381
0.000326122
0.000727024
0.000579123
0.000909205
0.000503177
0.000435119
0.000463863
0.000358767
0.000304979
0.00120321
0.00097325
0.000876365
0.000883468
0.00076803
0.000335181
0.000457046
0.000514599
0.000449199
0.000688546
0.000840746
0.000847798
0.00117156
0.00115827
0.00105286
0.00136861
0.00044797
0.000442262
0.000499234
0.000476731
0.000645572
0.00102552
0.0015357
0.000662238
0.000705831
0.00170479
0.000572995
0.000471053
0.000477033
0.000406208
0.000446421
0.000300543
0.000361124
0.000622376
0.00169039
0.00188607
0.00130591
0.00110212
0.000736796
0.000878204
0.00062349
0.000485458
0.000381621
0.000457226
0.000606868
0.00095051
0.00249327
0.00141946
0.00137857
0.00186773
0.00125093
0.00120885
0.00118922
0.000671462
0.000472438
0.000327327
0.000270983
0.000898453
0.00119218
0.00139253
0.00166047
0.00126055
0.000777991
0.00143976
0.00149618
0.00124355
0.00101458
0.000688956
0.000454521
0.00049911
0.000702344
0.00105494
0.000639479
0.00218542
0.000893421
0.00155427
0.000664873
0.0015129
0.00128804
0.00166975
0.00178463
0.00118866
0.000839918
0.00102024
0.000787447
0.000882015
0.00142298
0.000983361
0.00150381
0.000637168
0.000623004
0.000885953
0.000525732
0.000771717
0.000819235
0.00159582
0.00174284
0.000614973
0.000956086
0.00114786
0.00142519
0.00072459
0.00151968
0.000792856
0.000285622
0.000745435
0.000860366
0.000742092
0.00072614
0.00135659
0.00138054
0.00146218
0.000933658
0.00066615
0.000580787
0.00107152
0.00167613
0.000863656
0.000939467
0.00106695
0.000765411
0.00100372
0.000585713
0.00045527
0.000346504
0.000869296
0.000575982
0.00058544
0.000741781
0.00137126
0.000406188
0.000217304
0.000275978
0.000568781
0.000638951
0.000750969
0.00055193
0.000409631
0.000444648
0.000477273
0.000650067
0.00033195
0.000266481
0.000689599
0.000440388
0.000452937
0.000385686
0.000545415
0.000317589
0.000334245
0.000343004
0.000469646
0.000411264
0.00061081
0.000307224
0.000458292
7.77105e-05
0.000177481
0.000354556
0.000391601
0.000246593
0.000507156
0.000257127
0.000250291
0.000355791
0.000383693
0.000286633
0.000229251
0.000177505
0.000290276
0.000363778
0.00059832
0.000149902
7.82159e-05
0.000125721
5.38737e-05
0.000137296
0.000164061
0.000355932
0.00033589
0.000182271
0.00022422
0.000320237
0.000195497
0.000112181
0.000105635
0.000167646
0.000138605
0.000220275
0.000369589
0.000114789
0.000177155
0.00013444
0.00120878
0.00125339
0.00108679
0.000785686
0.000787395
0.000806396
0.000596371
0.000591042
0.000556856
0.000651824
0.000604664
0.000489356
0.000521888
0.000416426
0.000463315
0.000373593
0.000482815
0.000196026
0.000425442
0.000319516
0.00054352
0.000206618
0.000207913
0.000483542
0.000447852
0.000385445
0.000560856
0.000523146
0.00035695
0.000281437
0.000501713
0.000219761
0.000797872
0.000683038
0.000612247
0.000246809
0.000400122
0.000448716
0.000167734
0.000554715
0.000409962
0.00050817
0.000541052
0.000457677
0.000388135
0.000479241
0.00047491
0.000360945
0.000482327
0.000351169
0.000751869
0.000565333
0.000557718
0.000840206
0.000535344
0.000305772
0.000502124
0.000636923
0.000809261
0.000435995
0.000504157
0.00115529
0.000637243
0.000784964
0.000718215
0.000454389
0.000525087
0.0004185
0.000422073
0.00108968
0.000679648
0.000900908
0.00134053
0.00117314
0.000600059
0.00136574
0.000345486
0.000333124
0.00038212
0.000423282
0.000477688
0.00134863
0.000647598
0.00153963
0.00164156
0.00112194
0.00148319
0.000544019
0.000399553
0.000532569
0.00034616
0.000220716
0.000435452
0.000870291
0.000938023
0.00170343
0.00138252
0.00118013
0.000968617
0.000511334
0.00221156
0.000452825
0.000510758
0.000417139
0.000404447
0.000667655
0.000534691
0.00210975
0.0015828
0.00164031
0.000911753
0.000720013
0.000719737
0.00108371
0.000363595
0.000525894
0.000402083
0.000553042
0.000574081
0.000792691
0.00197565
0.00213592
0.0013457
0.00181012
0.00156153
0.00121294
0.00121875
0.000637125
0.000566732
0.00057735
0.000542226
0.000362822
0.000604105
0.000858535
0.0016098
0.0017607
0.00152401
0.000989916
0.00136553
0.00188377
0.00139709
0.00155089
0.00181889
0.000908228
0.000379486
0.000561688
0.000858481
0.00104317
0.000866483
0.00143706
0.00118637
0.00125861
0.000608965
0.0011611
0.000590209
0.000627098
0.0010644
0.00142182
0.000919126
0.000874391
0.000793993
0.000828804
0.000847417
0.00132555
0.000986552
0.00160446
0.000564856
0.000930765
0.000637322
0.000655314
0.00123015
0.000626147
0.0009031
0.00179597
0.000642667
0.000832464
0.00134654
0.00120936
0.00145125
0.00112587
0.00120437
0.000360157
0.000494552
0.000524529
0.000868968
0.00115886
0.00115859
0.000454675
0.00128567
0.00107127
0.00169327
0.000489632
0.000810933
0.00070229
0.001042
0.00099229
0.000996968
0.000630249
0.00114871
0.000705985
0.000823572
0.00101288
0.000432562
0.000563986
0.00116885
0.000561314
0.00042921
0.000612552
0.000729263
0.000775783
0.000318691
0.000503672
0.000380173
0.000530581
0.00049864
0.000458184
0.000493143
0.00059653
0.000347749
0.000501365
0.00058737
0.000293389
0.000223886
0.00062871
0.000578592
0.000354645
0.00056634
0.00041981
0.00030788
0.000417391
0.000797192
0.000542855
0.000340324
0.000417364
0.000530112
0.00055363
0.000158077
0.000383711
0.000139383
0.000342754
0.000236919
0.000347639
0.0002279
0.000297551
0.000294091
0.000297033
0.000349352
0.000269956
0.000260929
0.000161455
0.000438401
0.000303326
0.000487597
0.000197854
0.000127804
0.000116228
0.000280021
0.00010377
0.00021446
0.000265752
0.00029713
0.000287986
0.000220132
0.000215196
0.000339449
0.000211066
0.00037655
0.000129902
0.00014739
0.00015051
4.498e-05
0.000326024
5.61069e-05
0.000145497
0.00017908
0.000281096
0.00229415
0.00120552
0.00118166
0.00120018
0.00115988
0.00122547
0.000853474
0.000686125
0.000636478
0.000912581
0.000865665
0.000721064
0.00064159
0.000544607
0.000565572
0.000337728
0.000730406
0.000428989
0.000491996
0.000698755
0.000459664
0.000417551
0.000220089
0.000322984
0.000371751
0.000713523
0.00057774
0.00057368
0.00034307
0.000234424
0.000288104
0.000312281
0.000745423
0.000468152
0.000622571
0.000418705
0.000425385
0.000433883
0.000590471
0.000219412
0.000657214
0.000930895
0.000586891
0.000338742
0.000352015
0.000397043
0.00023431
0.000323762
0.00075156
0.000319922
0.000673984
0.000675138
0.000292467
0.000560568
0.000494134
0.000293397
0.000429744
0.000343622
0.000896914
0.00121958
0.00102101
0.000894041
0.00100029
0.000889682
0.000482319
0.000756942
0.000398007
0.000544238
0.000518253
0.000354716
0.000716741
0.000621992
0.000863078
0.000796169
0.000751373
0.000647909
0.000877806
0.00030838
0.000379565
0.000394012
0.000326329
0.000544373
0.000674852
0.000464085
0.000927189
0.00166291
0.000878414
0.00160845
0.00143719
0.000308784
0.000477276
0.000491253
0.000253291
0.000536812
0.000945516
0.000641153
0.00121263
0.00084274
0.00105704
0.00173243
0.000585576
0.000643956
0.000360385
0.000459991
0.000345407
0.00062381
0.000319865
0.000710604
0.00104827
0.000799176
0.0015668
0.00149048
0.00159206
0.000360466
0.00050484
0.00138548
0.000360261
0.000621425
0.000394546
0.000504308
0.000232279
0.000383336
0.00142735
0.0018253
0.00146905
0.0013244
0.000997499
0.000284646
0.00089406
0.0011632
0.000406132
0.000698705
0.000577933
0.000353808
0.000181129
0.00110326
0.00138709
0.00250746
0.000964755
0.00143625
0.00114781
0.000829641
0.000482974
0.00149696
0.000727734
0.000441728
0.000629356
0.000508026
0.000271915
0.000542699
0.00105072
0.00181451
0.00159214
0.00121709
0.000743604
0.00161397
0.00168326
0.00166703
0.000972804
0.000856891
0.00119804
0.000466116
0.000469376
0.000446429
0.000371505
0.000706352
0.00107927
0.000890456
0.000801353
0.000898526
0.0013432
0.00100872
0.00096988
0.000508054
0.00126184
0.000913111
0.00126148
0.0005185
0.000734293
0.0010149
0.000823825
0.00106771
0.00124917
0.000863542
0.00110007
0.000524439
0.000517656
0.000861896
0.000785976
0.00208506
0.00142111
0.00204631
0.00257751
0.00121147
0.000885731
0.000859464
0.00114248
0.0012364
0.00121428
0.000806917
0.00107775
0.00101394
0.000490008
0.000554326
0.000939969
0.000385498
0.000619248
0.000514218
0.0010227
0.00116788
0.00121689
0.000509041
0.000945226
0.00136548
0.000742201
0.00135708
0.00136265
0.000680029
0.000776724
0.000982169
0.000607755
0.000856719
0.00106736
0.000317066
0.000417705
0.000853356
0.000636591
0.000504694
0.000640222
0.000955742
0.000964234
0.000441131
0.000608329
0.000531424
0.000462777
0.000305864
0.000434335
0.000625037
0.000628321
0.000283994
0.000406306
0.000599708
0.000492336
0.00046521
0.000312763
0.000627429
0.000493608
0.000635686
0.000678224
0.000501985
0.000346647
0.00041808
0.000536753
0.000610454
0.000401908
0.000519177
0.0003884
0.000360206
0.000676591
0.00019387
0.000140898
0.000108056
0.000273113
0.000236846
0.000374874
0.00033268
0.000539298
0.000249322
0.000382202
0.000228233
0.000211375
0.000227017
0.000250181
0.000365899
0.000287454
0.000313891
0.000284505
0.000340439
0.000127259
0.000105694
0.000275718
0.000176753
0.000127951
0.000238738
0.000205863
0.000303086
0.000241402
0.000222565
0.000344305
0.000300204
0.000175226
0.000167482
0.000129799
0.000156184
8.82204e-05
0.000245049
0.000265005
0.000311125
0.000213116
0.000284693
0.000420532
0.0020857
0.00202146
0.00118954
0.000908619
0.00114211
0.00142353
0.00101354
0.00114138
0.00116046
0.000799225
0.000808716
0.000838968
0.000787532
0.00102996
0.000619633
0.000550069
0.000600954
0.000603177
0.000699007
0.000634344
0.000510334
0.000399009
0.000369679
0.000476745
0.000425246
0.000613365
0.000455343
0.000365708
0.000373306
0.000454679
0.000249849
0.000372502
0.000517349
0.000578465
0.000421242
0.000337087
0.000266405
0.000198171
0.000465926
0.000547867
0.000753552
0.000490906
0.000566479