/*--------------------------------*- C++ -*----------------------------------*\
  =========                 |
  \\      /  F ield         | OpenFOAM: The Open Source CFD Toolbox
   \\    /   O peration     | Website:  https://openfoam.org
    \\  /    A nd           | Version:  7
     \\/     M anipulation  |
\*---------------------------------------------------------------------------*/
FoamFile
{
    version     2.0;
    format      ascii;
    class       volScalarField;
    location    "9.5";
    object      p;
}
// * * * * * * * * * * * * * * * * * * * * * * * * * * * * * * * * * * * * * //

dimensions      [0 2 -2 0 0 0 0];

internalField   nonuniform List<scalar> 
18780
(
-60.0268
-59.513
-60.0328
-59.7332
-59.269
-59.5588
-59.3451
-60.042
-59.718
-59.2978
-58.4935
-59.2993
-59.0568
-59.6056
-59.3823
-58.8654
-60.0502
-59.7065
-59.2792
-58.989
-57.8466
-58.5174
-58.2997
-59.3483
-59.0511
-58.6436
-59.6539
-59.4265
-58.8953
-58.77
-60.0544
-59.6971
-59.2665
-58.9775
-58.9495
-56.9356
-57.75
-59.0457
-58.4609
-58.2521
-58.147
-59.4843
-59.027
-58.5915
-58.8365
-59.7135
-59.4808
-58.9278
-58.7607
-59.1244
-60.0579
-59.7033
-59.2569
-58.9678
-58.9216
-58.9004
-54.6649
-56.8105
-57.0499
-57.3985
-58.5217
-59.6779
-58.1858
-58.1282
-57.8886
-58.5667
-59.6122
-59.0284
-58.5666
-58.7789
-58.6217
-59.791
-59.521
-58.9593
-58.7499
-59.0667
-58.8344
-60.059
-59.7183
-59.2458
-58.9593
-58.8906
-58.8907
-58.8668
-53.3492
-54.5088
-55.0603
-56.3674
-57.129
-57.9929
-56.9262
-58.0487
-59.3477
-60.213
-58.1084
-58.3573
-57.659
-58.4823
-58.1265
-59.7103
-59.1936
-58.5536
-58.7282
-58.5526
-58.3489
-59.8776
-59.5365
-58.9923
-58.7299
-59.0091
-58.8237
-58.5256
-60.0671
-59.7489
-59.2407
-58.9517
-58.8569
-58.8787
-58.8577
-58.8479
-52.386
-53.3863
-53.7189
-54.4113
-55.1316
-55.3924
-56.0247
-57.1549
-57.4634
-59.3409
-56.6235
-57.7138
-58.6893
-60.0106
-58.8328
-58.3055
-58.6798
-57.5085
-58.394
-58.121
-57.5546
-59.8564
-59.4038
-58.5642
-58.667
-58.486
-58.3391
-57.8358
-59.9802
-59.5439
-59.0282
-58.7175
-58.9564
-58.8106
-58.5368
-58.3771
-60.1149
-59.7868
-59.2381
-58.9463
-58.8231
-58.8661
-58.8516
-58.851
-58.3403
-51.0324
-51.6349
-52.4145
-52.5131
-53.5882
-53.7696
-53.7399
-54.3198
-55.0128
-55.3557
-55.3598
-55.6642
-56.8237
-57.4415
-59.4617
-58.5071
-56.7446
-57.3799
-58.1241
-59.6817
-59.0725
-57.5849
-58.5487
-58.7715
-57.4519
-58.3073
-58.0977
-57.5385
-57.0508
-59.7656
-59.6697
-58.6273
-58.5941
-58.4407
-58.3181
-57.7838
-57.6372
-60.0842
-59.5468
-59.0453
-58.7131
-58.916
-58.7943
-58.5554
-58.3586
-58.0055
-60.1953
-59.813
-59.233
-58.9429
-58.7992
-58.855
-58.8474
-58.8544
-58.3421
-57.6843
-50.6275
-51.115
-50.9526
-51.6341
-51.5882
-52.4661
-52.4714
-52.2148
-53.5548
-53.6311
-53.8766
-53.9709
-54.3862
-54.9969
-55.3383
-55.3023
-55.6235
-55.4882
-56.5801
-57.1545
-59.4726
-58.9119
-56.7731
-56.3875
-57.2773
-57.7655
-59.5318
-59.2509
-57.8027
-56.4844
-58.735
-59.0783
-57.5606
-58.2075
-58.0608
-57.5862
-57.1053
-56.7583
-59.6258
-59.7934
-58.7732
-58.5312
-58.3826
-58.2859
-57.7207
-57.5929
-57.3814
-60.1433
-59.557
-59.0537
-58.7266
-58.8761
-58.7692
-58.5741
-58.3507
-58.0137
-57.3504
-60.2631
-59.8359
-59.2431
-58.9427
-58.7853
-58.8361
-58.8438
-58.8574
-58.3511
-57.681
-57.2354
-50.4119
-50.6182
-50.709
-51.1216
-51.0726
-50.9219
-51.729
-51.7287
-51.3273
-52.4789
-52.562
-52.3935
-52.6269
-53.6229
-53.6381
-53.9161
-53.972
-54.0004
-54.288
-54.9741
-55.1606
-55.4698
-55.6503
-55.1257
-55.6005
-56.423
-56.709
-59.3284
-59.2903
-57.1987
-55.7654
-56.2674
-56.7789
-57.6073
-59.4095
-59.5489
-58.1526
-56.6872
-56.4666
-58.6157
-59.2418
-57.8819
-58.0189
-58.0189
-57.6402
-57.0434
-56.7744
-56.675
-59.6013
-59.6727
-58.9536
-58.4807
-58.3168
-58.2576
-57.7244
-57.5658
-57.3581
-57.1277
-60.1614
-59.6121
-59.06
-58.7482
-58.8298
-58.7411
-58.5922
-58.3512
-58.012
-57.3619
-57.2897
-60.3125
-59.8652
-59.268
-58.9447
-58.772
-58.8105
-58.8404
-58.8614
-58.3641
-57.6842
-57.2165
-56.9382
-49.8092
-50.0974
-50.426
-50.5824
-50.7224
-50.8826
-50.7631
-51.1748
-51.4062
-51.1796
-51.1648
-51.7915
-51.8511
-51.4696
-51.32
-52.5412
-52.6685
-52.6432
-52.6554
-52.5052
-53.7258
-53.7141
-53.8946
-54.0947
-53.9643
-53.5941
-54.2688
-54.566
-55.0452
-55.3113
-55.8485
-55.2961
-54.9442
-55.4707
-55.8953
-56.4095
-59.0924
-59.5499
-57.5859
-55.9087
-55.7996
-56.1294
-56.5315
-57.3342
-59.1697
-59.6986
-58.5646
-56.9139
-56.5625
-56.4373
-58.5933
-59.0178
-58.2082
-57.7647
-57.98
-57.6737
-57.2722
-56.927
-56.6878
-56.5379
-59.6748
-59.5072
-59.1641
-58.4033
-58.2503
-58.2392
-57.7825
-57.5468
-57.3162
-57.0502
-57.2111
-60.1803
-59.6749
-59.0535
-58.7635
-58.7844
-58.7091
-58.6067
-58.3627
-58.0083
-57.3655
-57.2243
-57.4428
-60.3399
-59.8876
-59.2937
-58.9491
-58.7584
-58.7863
-58.8362
-58.8662
-58.3806
-57.6901
-57.2055
-56.9129
-56.8835
-49.6789
-50.0183
-50.0605
-50.1787
-50.336
-50.5782
-50.5453
-50.7163
-50.7778
-50.9612
-50.8814
-51.428
-51.1651
-51.418
-51.2049
-51.5298
-52.8123
-51.8243
-51.8867
-51.6575
-51.5872
-52.3421
-52.5808
-52.6881
-52.5842
-52.55
-52.6277
-52.6462
-53.8431
-53.5422
-53.8547
-54.2152
-53.8737
-53.6482
-54.051
-54.3763
-54.5733
-54.9396
-55.1071
-55.7604
-55.608
-55.0528
-55.1048
-55.5976
-55.8865
-56.0225
-58.6846
-59.4415
-57.951
-56.1751
-55.922
-55.9524
-56.1294
-56.3888
-56.9003
-58.4313
-59.1983
-59.0355
-57.2151
-56.6725
-56.3347
-56.2366
-58.5977
-58.9881
-58.6247
-57.6138
-57.9177
-57.6792
-57.149
-56.8544
-56.6835
-56.4074
-57.0067
-59.7834
-59.4205
-59.2955
-58.3706
-58.1842
-58.2231
-57.7787
-57.524
-57.3085
-56.9526
-57.1853
-57.5049
-60.2002
-59.7342
-59.0476
-58.7772
-58.7416
-58.6696
-58.6164
-58.3774
-58.0109
-57.3659
-57.1694
-57.3929
-56.909
-60.3514
-59.907
-59.3143
-58.9562
-58.7472
-58.7571
-58.8314
-58.8704
-58.3961
-57.6973
-57.2016
-56.8957
-56.8272
-56.7508
-49.5233
-49.873
-49.9598
-49.9239
-50.1114
-50.2408
-50.273
-50.387
-50.5949
-50.5135
-50.5527
-50.6517
-50.9453
-50.8212
-50.9861
-50.877
-51.3513
-53.6916
-51.265
-51.4272
-51.3381
-51.3657
-52.4795
-55.1465
-51.8892
-51.9992
-51.8517
-51.6486
-52.1343
-53.3634
-52.6179
-52.6815
-52.6736
-52.7341
-52.6227
-52.5291
-53.7817
-53.9216
-53.6362
-53.9215
-54.2699
-53.8898
-53.7877
-54.017
-55.1778
-54.5794
-54.6588
-54.7994
-55.1917
-55.8102
-55.717
-55.1607
-55.2435
-55.5112
-55.7242
-55.7878
-55.8136
-57.9577
-59.4204
-58.4852
-56.48
-56.0276
-56.0546
-56.1032
-56.1735
-56.2101
-56.757
-57.2549
-58.982
-59.4475
-57.5367
-56.7965
-56.3099
-56.1448
-56.8151
-58.6534
-58.976
-58.8717
-57.6432
-57.9041
-57.6687
-57.0221
-56.6325
-56.5898
-56.3346
-56.8709
-57.8679
-59.9579
-59.4058
-59.4651
-58.3795
-58.1398
-58.2015
-57.7419
-57.5388
-57.3735
-56.8892
-57.0527
-57.4019
-56.5444
-60.2037
-59.7987
-59.062
-58.7817
-58.6904
-58.6352
-58.6105
-58.3941
-58.0183
-57.3641
-57.1247
-57.3567
-56.7798
-56.5529
-60.359
-59.9233
-59.341
-58.9616
-58.7425
-58.7231
-58.8248
-58.8724
-58.4109
-57.7109
-57.204
-56.8825
-56.7907
-56.7359
-56.6215
-49.6189
-49.5611
-49.7434
-49.8515
-50.0237
-50.1417
-50.0065
-50.1258
-50.3114
-50.7176
-50.2735
-50.3135
-50.3856
-51.1845
-50.5359
-50.6749
-50.7859
-50.939
-52.7756
-50.8704
-51.0386
-51.036
-51.1577
-52.9242
-55.7508
-51.3555
-51.5403
-51.3616
-51.4016
-52.3532
-54.5995
-56.4121
-52.0313
-52.0006
-51.9632
-51.7678
-51.8996
-52.7377
-54.5678
-52.592
-52.6843
-52.8395
-53.0884
-52.7054
-52.4171
-53.6348
-54.5622
-54.0347
-53.7756
-53.9569
-54.2731
-54.0706
-53.8698
-53.9551
-55.2441
-54.9128
-54.7485
-54.7108
-54.6872
-55.2755
-55.6673
-55.6004
-55.1766
-55.3901
-55.7591
-55.7199
-55.9581
-55.7352
-55.6329
-57.4719
-59.4431
-59.0815
-56.8477
-56.1614
-56.157
-56.063
-56.5022
-56.4787
-56.1681
-56.7158
-56.5097
-58.5917
-59.643
-57.8697
-56.9394
-56.2758
-56.0705
-56.6732
-58.5306
-58.7923
-58.788
-58.866
-57.6577
-57.9494
-57.6504
-57.1284
-56.9315
-56.603
-56.2657
-56.9357
-57.7039
-56.5885
-60.1388
-59.4488
-59.4233
-58.3995
-58.1097
-58.159
-57.7521
-57.6359
-57.3583
-56.8181
-56.9161
-57.2761
-56.4956
-56.2212
-60.2954
-59.8556
-59.0902
-58.7809
-58.6435
-58.6103
-58.6106
-58.4187
-58.0325
-57.3649
-57.0968
-57.2625
-56.6172
-56.5284
-56.4576
-60.3738
-59.9345
-59.3779
-58.9798
-58.7357
-58.6856
-58.8153
-58.872
-58.4291
-57.7355
-57.2111
-56.873
-56.7734
-56.7222
-56.6032
-56.4685
-49.6136
-49.5687
-49.5998
-49.7018
-49.7727
-49.8749
-49.8921
-49.9429
-49.9327
-50.2811
-50.1273
-50.1337
-50.2537
-50.5379
-51.2489
-50.2307
-50.4021
-50.5955
-50.9799
-52.0871
-50.5846
-50.6682
-50.7518
-51.0078
-52.2641
-53.9293
-50.9068
-51.0351
-51.1507
-51.3414
-52.3773
-55.3504
-56.0454
-51.3958
-51.5561
-51.4692
-51.6968
-52.1894
-54.1127
-56.502
-55.8324
-52.137
-52.0697
-52.0742
-51.978
-52.1608
-52.4136
-54.5983
-55.4366
-52.5944
-52.7344
-52.7826
-53.1842
-52.6129
-52.4117
-53.4948
-54.4727
-54.3963
-54.0873
-53.7588
-53.99
-54.1568
-54.1348
-53.8437
-53.9655
-55.1222
-55.0455
-54.919
-54.9284
-54.8682
-54.6914
-55.1236
-55.5228
-55.6284
-55.2455
-55.5325
-55.7227
-55.5942
-55.8908
-56.2427
-55.9338
-55.5349
-56.9377
-59.3814
-59.3521
-57.2957
-56.2716
-56.1921
-55.8788
-56.4147
-57.9295
-56.7502
-56.1886
-56.4481
-56.4986
-58.2643
-59.8324
-58.1738
-57.1299
-56.3261
-55.961
-56.4806
-58.3606
-56.5169
-58.928
-58.7373
-58.7642
-57.8401
-57.7247
-57.63
-57.0801
-56.8247
-56.7172
-56.2454
-56.8086
-57.6503
-56.4842
-55.4352
-60.2866
-59.4652
-59.3193
-58.4708
-58.0789
-58.1121
-57.7894
-57.647
-57.2902
-56.7684
-56.8366
-57.1712
-56.4296
-56.1211
-56.2366
-60.4913
-59.9151
-59.1214
-58.7796
-58.6114
-58.5829
-58.6178
-58.4431
-58.0572
-57.3812
-57.0739
-57.2013
-56.5749
-56.4851
-56.4252
-55.8323
-60.3926
-59.9515
-59.3963
-59.0069
-58.7199
-58.6587
-58.8064
-58.8686
-58.4492
-57.7611
-57.2211
-56.8642
-56.7645
-56.7116
-56.5872
-56.4689
-56.1924
-49.4151
-49.5134
-49.4485
-49.5924
-49.6373
-49.7114
-49.68
-49.7978
-49.8898
-49.9806
-49.935
-50.0554
-50.0585
-50.176
-50.6028
-50.0358
-50.1224
-50.3647
-50.8002
-51.1847
-51.77
-50.2097
-50.3108
-50.5656
-51.0354
-51.7326
-52.42
-50.5609
-50.6252
-50.89
-51.0722
-51.9349
-53.3998
-54.637
-50.91
-51.1058
-51.2563
-51.2754
-52.143
-54.6728
-56.187
-54.8375
-51.4357
-51.5996
-51.6051
-51.6772
-52.2394
-53.8762
-56.2239
-56.4339
-54.5531
-52.1411
-52.1374
-52.1509
-52.2016
-52.4249
-52.2103
-54.2359
-56.2185
-54.9347
-52.7865
-52.7161
-52.9612
-53.1596
-52.6939
-52.4523
-53.2346
-54.5198
-54.5559
-53.6283
-54.2142
-53.7654
-53.9446
-54.1757
-54.3692
-53.6209
-53.9936
-54.927
-55.1594
-54.7914
-54.7255
-55.3925
-54.8705
-54.6794
-54.9792
-55.4682
-55.8635
-55.5
-55.5508
-55.6535
-55.4867
-55.6082
-56.5139
-56.6341
-55.9355
-55.5344
-56.4761
-58.8594
-59.5312
-57.8136
-56.5227
-56.1869
-55.7539
-56.3603
-57.8022
-57.7199
-57.0626
-56.2193
-56.178
-56.4976
-57.8909
-59.3512
-58.464
-57.2262
-56.3785
-55.8748
-56.3703
-58.2009
-56.5321
-54.8875
-59.1173
-58.5826
-58.6716
-57.9946
-57.436
-57.6156
-57.0269
-56.7184
-56.6839
-56.231
-56.6109
-57.665
-56.3743
-55.1087
-55.5821
-60.3889
-59.5686
-59.3033
-58.585
-58.0504
-58.0767
-57.8416
-57.6762
-57.3316
-56.7718
-56.7468
-57.0394
-56.3947
-56.0396
-56.1073
-55.9555
-60.5974
-59.989
-59.1549
-58.7793
-58.6001
-58.5479
-58.6218
-58.4548
-58.072
-57.391
-57.0495
-57.1694
-56.5365
-56.4472
-56.403
-55.8102
-55.6986
-60.4193
-59.9818
-59.4032
-59.021
-58.7109
-58.6398
-58.7968
-58.8617
-58.4706
-57.7875
-57.2345
-56.8685
-56.7425
-56.7045
-56.5727
-56.479
-56.1816
-55.5722
-49.3143
-49.395
-49.3964
-49.558
-49.5245
-49.5331
-49.6605
-49.6756
-49.7557
-49.8081
-49.7276
-49.8575
-50.0029
-49.9532
-50.1369
-49.9405
-49.9406
-50.1288
-50.3386
-50.1368
-51.0618
-49.9985
-50.2299
-50.4667
-50.6478
-50.8919
-51.8547
-51.7037
-50.1439
-50.4153
-50.723
-50.8652
-51.5177
-52.3013
-52.6828
-50.5617
-50.7767
-50.8759
-51.0397
-51.6531
-52.7087
-54.0895
-53.6144
-51.0072
-51.1924
-51.2145
-51.2855
-51.7936
-53.4742
-55.9637
-55.0651
-53.5521
-51.5741
-51.6207
-51.6902
-51.6402
-52.1088
-53.089
-55.9073
-57.0161
-55.0466
-53.3367
-52.2647
-52.1161
-52.187
-52.259
-52.4034
-52.4051
-53.7133
-56.2011
-55.5925
-53.7823
-52.9742
-52.7758
-53.046
-53.2107
-52.9432
-52.7235
-53.0682
-54.5552
-54.8706
-53.9336
-53.676
-54.3768
-53.8081
-53.8726
-54.1054
-54.2728
-53.7948
-53.9073
-54.8203
-55.4621
-55.14
-54.6949
-56.0047
-55.5895
-54.8795
-54.7559
-54.9101
-55.3236
-55.7154
-55.6199
-55.5685
-55.6277
-55.6151
-55.5917
-56.9429
-58.4934
-56.9317
-55.9518
-55.5523
-56.1649
-58.0268
-59.3217
-58.4314
-56.8484
-56.1372
-55.7547
-56.15
-57.2974
-56.9947
-54.827
-57.534
-56.4864
-55.9823
-56.5367
-57.4605
-58.8964
-58.7253
-57.4553
-56.4885
-55.7895
-56.3176
-58.211
-56.5348
-54.6963
-55.2906
-59.4695
-58.4311
-58.6786
-58.1428
-57.3596
-57.584
-57.0007
-56.785
-56.7456
-56.1774
-56.5098
-57.6232
-56.243
-54.9202
-55.3686
-55.0298
-60.5057
-59.7188
-59.2181
-58.7473
-58.0493
-58.054
-57.8663
-57.7147
-57.33
-56.7462
-56.6934
-56.9381
-56.3277
-55.9717
-55.9717
-55.9332
-55.4871
-60.5877
-60.0318
-59.1821
-58.795
-58.6003
-58.5124
-58.6128
-58.4647
-58.1104
-57.4127
-57.0604
-57.1114
-56.4977
-56.4294
-56.3885
-55.7991
-55.6719
-55.0956
-60.4445
-60.017
-59.4082
-59.034
-58.7089
-58.6209
-58.7827
-58.8532
-58.4915
-57.8154
-57.245
-56.8795
-56.7374
-56.7021
-56.5611
-56.4922
-56.1822
-55.5915
-55.6455
-49.2169
-49.2821
-49.328
-49.4648
-49.4562
-49.4133
-49.5883
-49.6013
-49.5174
-49.6187
-49.6782
-49.7443
-49.784
-49.785
-49.7073
-49.7709
-49.8059
-49.9433
-50.0837
-49.9569
-50.5211
-49.9438
-50.084
-50.193
-50.3175
-50.3034
-50.9779
-50.9293
-50.0673
-50.353
-50.5253
-50.5715
-50.8933
-51.4459
-51.7473
-51.4258
-50.2728
-50.5437
-50.7555
-50.933
-51.2334
-52.2972
-52.7032
-52.393
-50.6546
-50.7425
-50.7968
-51.013
-51.3684
-52.2887
-53.7116
-53.5637
-52.6725
-51.0914
-51.19
-51.3179
-51.4127
-51.7566
-52.8665
-55.3749
-55.3551
-53.8147
-52.7701
-51.5665
-51.6108
-51.6558
-51.6953
-51.9891
-52.6669
-55.1174
-57.6234
-55.4974
-53.5479
-53.1927
-52.368
-52.0722
-52.1871
-52.3931
-52.2884
-52.6439
-53.5965
-56.5035
-56.4013
-54.2759
-53.696
-52.9681
-52.778
-53.0406
-53.14
-53.1692
-52.7981
-52.9828
-54.6618
-55.11
-54.3099
-53.9718
-54.9422
-54.443
-53.7652
-53.8484
-54.1213
-54.1394
-54.0133
-53.9191
-54.6715
-55.2275
-55.3078
-54.856
-55.128
-56.0083
-55.6116
-54.9841
-54.84
-54.8675
-55.1761
-55.8362
-55.7727
-55.7263
-55.6337
-55.4996
-55.5257
-56.6188
-57.8713
-54.5858
-57.3415
-55.9655
-55.5676
-55.8595
-57.2363
-58.947
-58.8336
-57.3788
-56.2494
-55.6018
-55.8394
-57.0063
-56.6434
-54.3843
-54.7404
-58.2625
-56.943
-55.7095
-56.57
-57.3291
-58.6456
-59.0132
-57.6616
-56.6228
-55.9133
-56.2588
-57.8958
-56.5699
-54.4428
-55.1449
-54.8782
-59.8114
-58.4879
-58.5722
-58.2247
-57.3623
-57.5335
-56.9789
-56.8134
-56.8959
-56.0978
-56.35
-57.49
-56.093
-54.8789
-55.2277
-54.9926
-54.9267
-60.7759
-59.7864
-59.0873
-58.9724
-58.073
-58.0284
-57.8723
-57.7401
-57.2633
-56.7176
-56.6541
-56.8664
-56.2615
-55.9332
-55.8565
-55.8754
-55.4477
-54.936
-60.6629
-60.0627
-59.2076
-58.8202
-58.5815
-58.4789
-58.5986
-58.4828
-58.1516
-57.4669
-57.0598
-57.0601
-56.4604
-56.4077
-56.3762
-55.7968
-55.6679
-55.0566
-55.0858
-60.4609
-60.0482
-59.4122
-59.0474
-58.7102
-58.6045
-58.7707
-58.8455
-58.5114
-57.8446
-57.2535
-56.8842
-56.73
-56.7038
-56.5533
-56.4983
-56.1814
-55.5779
-55.6583
-55.1244
-49.106
-49.1964
-49.2172
-49.3471
-49.2671
-49.4134
-49.5397
-49.6229
-49.422
-49.4053
-49.5862
-49.6415
-49.6702
-49.6413
-49.5597
-49.7235
-49.7342
-49.8847
-49.8163
-49.8057
-50.1299
-49.791
-49.8387
-49.8938
-50.0666
-50.2059
-50.4101
-50.3506
-50.0177
-50.0712
-50.17
-50.3724
-50.6132
-50.7965
-50.9929
-50.904
-50.2112
-50.2993
-50.4854
-50.5899
-50.8318
-51.3369
-51.8417
-51.4705
-51.1499
-50.3769
-50.5608
-50.6941
-50.8955
-50.9026
-52.0906
-52.6756
-52.3802
-51.9087
-50.633
-50.7934
-50.8436
-51.0861
-51.5282
-52.1418
-53.6134
-53.6187
-52.8203
-52.0692
-51.1951
-51.2166
-51.2999
-51.3233
-51.6575
-52.3812
-54.0805
-54.8543
-54.0044
-53.0965
-52.5655
-51.6407
-51.6286
-51.6831
-51.8169
-52.0005
-52.2424
-54.7151
-56.9316
-56.1917
-53.9571
-53.2736
-53.8362
-52.4094
-52.2385
-52.3108
-52.4606
-52.6539
-52.7652
-53.5971
-55.7951
-56.8199
-55.1672
-54.0571
-54.3065
-53.0836
-52.8594
-53.1473
-53.1819
-53.3567
-52.993
-52.9571
-54.4369
-55.2586
-54.8029
-54.4136
-54.4244
-55.2566
-54.5878
-53.6474
-53.8827
-54.1667
-54.2287
-54.2405
-53.9208
-54.4392
-55.1038
-55.2671
-55.1366
-55.4359
-56.8494
-54.7732
-55.7859
-54.8694
-54.7458
-54.891
-55.2102
-55.8497
-55.9354
-55.8109
-55.6249
-55.5184
-55.3737
-56.2147
-56.186
-53.8388
-54.0427
-57.9329
-56.0456
-55.5965
-55.762
-56.8367
-58.7034
-59.0268
-57.925
-56.3411
-55.4495
-55.7642
-57.1238
-56.5229
-54.4376
-54.8363
-54.3109
-58.5465
-56.911
-55.5323
-56.6902
-57.3722
-58.4616
-59.0541
-57.863
-56.6452
-55.9009
-56.1695
-57.4175
-56.2956
-54.2721
-54.6587
-54.7444
-54.3036
-59.9724
-58.7094
-58.4839
-58.3122
-57.3957
-57.4438
-56.9607
-56.84
-56.9221
-56.0762
-56.2594
-57.2756
-56.1221
-54.8951
-55.139
-54.8288
-54.8705
-54.487
-61.0727
-59.8463
-59.0152
-59.1588
-58.0976
-57.9921
-57.8675
-57.7624
-57.274
-56.7152
-56.6453
-56.7439
-56.1944
-55.9658
-55.7787
-55.781
-55.3935
-54.8844
-54.5507
-60.7223
-60.1207
-59.254
-58.8356
-58.5577
-58.4427
-58.5853
-58.4949
-58.1872
-57.5414
-57.0507
-57.0412
-56.4391
-56.3841
-56.369
-55.7949
-55.6681
-55.0234
-55.0542
-55.006
-60.4811
-60.0728
-59.4229
-59.0587
-58.716
-58.5886
-58.7562
-58.8362
-58.5301
-57.8766
-57.2636
-56.8907
-56.7253
-56.708
-56.5488
-56.5094
-56.1757
-55.586
-55.6763
-55.1191
-55.1713
-48.9658
-49.1562
-49.1854
-49.2431
-49.3007
-49.2791
-49.447
-49.3412
-49.3118
-49.3368
-49.4901
-49.6373
-49.5364
-49.474
-49.4825
-49.5966
-49.6023
-49.7578
-49.6695
-49.628
-49.7139
-49.7688
-49.7767
-49.8259
-49.7322
-50.0389
-50.0721
-50.063
-49.8837
-49.8374
-49.9267
-50.0993
-50.1457
-50.4573
-50.345
-50.4635
-49.997
-50.0119
-50.1998
-50.3422
-50.5637
-50.8031
-51.0017
-50.9423
-50.7546
-50.2188
-50.3855
-50.4747
-50.5537
-50.9945
-51.2057
-51.6582
-51.4713
-51.1636
-50.9473
-50.4386
-50.5388
-50.5535
-50.8475
-51.3436
-51.7894
-52.3953
-52.3839
-52.0241
-51.485
-50.7155
-50.8533
-50.8264
-51.0796
-51.306
-52.0187
-53.067
-53.2981
-52.9437
-52.2084
-51.8442
-51.1773
-51.2698
-51.3138
-51.3676
-51.6578
-52.1217
-53.5004
-54.4838
-54.2117
-53.203
-52.6857
-53.1668
-51.6525
-51.7167
-51.7317
-51.9019
-52.1264
-52.3239
-54.3207
-56.5652
-56.3366
-54.5507
-53.5324
-53.7184
-54.1393
-52.4459
-52.3196
-52.3441
-52.3744
-52.6907
-52.7075
-53.4866
-55.4619
-57.2153
-56.1485
-54.6467
-54.2896
-54.5272
-53.2403
-52.9362
-53.1413
-53.2211
-53.3447
-53.0663
-53.0576
-53.928
-55.3204
-55.1884
-54.7796
-54.4635
-54.8536
-54.7774
-54.6476
-53.8969
-53.9777
-54.1771
-54.2738
-54.4196
-54.0809
-54.142
-54.948
-55.289
-55.2001
-54.8104
-55.7885
-54.0371
-53.6706
-55.7597
-54.8132
-54.8056
-54.9869
-55.3667
-55.7895
-56.1676
-55.8543
-55.658
-55.4637
-55.3443
-56.0084
-55.9647
-53.9699
-54.2087
-53.99
-58.3455
-56.1602
-55.5582
-55.7543
-56.5293
-58.2564
-58.9874
-58.3946
-56.4623
-55.5334
-55.671
-56.6418
-56.0428
-54.0396
-54.1769
-54.1172
-53.7718
-58.9194
-57.0052
-55.549
-56.658
-57.4074
-58.2468
-58.6217
-57.9954
-56.7157
-55.7436
-56.0229
-57.2311
-55.9314
-54.1458
-54.4119
-54.5821
-54.0516
-54.2153
-60.2038
-58.7416
-58.5498
-58.3598
-57.4844
-57.3724
-56.9588
-56.8296
-56.9629
-56.0621
-56.2095
-57.1044
-56.0572
-54.948
-54.9978
-54.6265
-54.8098
-54.4214
-54.2079
-61.3107
-59.88
-58.9112
-59.1533
-58.1254
-57.9601
-57.8516
-57.7972
-57.2918
-56.7234
-56.6336
-56.6543
-56.1441
-55.9714
-55.7912
-55.6992
-55.3515
-54.8218
-54.5357
-54.4051
-60.7751
-60.195
-59.3187
-58.8487
-58.5574
-58.4113
-58.5684
-58.4832
-58.2273
-57.5884
-57.0637
-57.0231
-56.4074
-56.388
-56.3741
-55.8115
-55.663
-55.0211
-55.0167
-54.9681
-54.8831
-60.5031
-60.0967
-59.4373
-59.0734
-58.7236
-58.5728
-58.7406
-58.8262
-58.5458
-57.9058
-57.2815
-56.9024
-56.7267
-56.7127
-56.5471
-56.5194
-56.1727
-55.6015
-55.6639
-55.1213
-55.1432
-54.7893
-48.8497
-49.0364
-48.9797
-49.1901
-49.1902
-49.1093
-49.3003
-49.2922
-49.298
-49.2561
-49.3907
-49.4071
-49.3968
-49.3969
-49.3669
-49.5065
-49.4577
-49.6718
-49.4826
-49.4053
-49.5649
-49.6134
-49.6558
-49.7111
-49.6711
-49.6548
-49.7161
-49.723
-49.7634
-49.7835
-49.8446
-49.821
-49.7221
-50.1045
-50.0349
-50.1721
-49.8618
-49.8784
-49.9403
-50.1641
-50.1425
-50.3692
-50.4108
-50.4165
-50.2965
-49.9949
-50.088
-50.1528
-50.2288
-50.9713
-50.5496
-51.0096
-50.8636
-50.7724
-50.5759
-50.2453
-50.3728
-50.3936
-50.3496
-51.0552
-51.0296
-51.3747
-51.4345
-51.3062
-51.0722
-50.8297
-50.48
-50.5553
-50.6328
-50.9408
-51.0905
-51.6179
-52.044
-52.2567
-52.0995
-51.6223
-51.3108
-50.7717
-50.8961
-50.8929
-51.2394
-51.3141
-52.2069
-52.7258
-53.3163
-52.636
-52.379
-51.9128
-52.2445
-51.1975
-51.195
-51.3142
-51.5137
-51.6409
-52.123
-53.1573
-54.2883
-54.8018
-53.3952
-52.8195
-53.0504
-54.0075
-51.6227
-51.7605
-51.6784
-51.7862
-52.0347
-52.27
-53.3654
-56.2126
-56.1484
-54.8227
-53.9
-53.8887
-54.2838
-54.6888
-52.5306
-52.39
-52.4057
-52.3222
-52.5643
-52.6711
-53.4714
-54.9881
-56.7905
-56.3337
-55.4747
-54.4057
-54.4064
-54.373
-53.3252
-53.1725
-53.1173
-53.2946
-53.4834
-53.3114
-53.2025
-53.4497
-55.4173
-55.6352
-55.3969
-54.7733
-55.2807
-54.219
-53.6846
-54.7408
-54.0564
-53.9573
-54.0573
-54.1974
-54.4493
-54.1815
-54.0133
-54.7077
-55.4767
-55.2451
-54.8239
-54.7988
-53.8108
-53.5111
-53.515
-55.9799
-55.0357
-54.8201
-55.1418
-55.3175
-55.6048
-56.2339
-56.0997
-55.7398
-55.377
-55.2021
-55.6814
-55.4818
-53.8022
-54.1163
-53.5989
-53.949
-58.4195
-56.3444
-55.5825
-55.6697
-56.2494
-57.8557
-58.7176
-58.73
-56.8684
-55.5524
-55.6628
-56.1416
-55.5925
-54.396
-53.6735
-53.4947
-53.5715
-54.2169
-59.5312
-57.2699
-55.6165
-56.7198
-57.3577
-57.9931
-58.2977
-58.0627
-56.7681
-55.8195
-55.9824
-56.8846
-55.7357
-53.9744
-55.0176
-54.4025
-53.8639
-53.9887
-54.1857
-60.5949
-58.7727
-58.6401
-58.4085
-57.57
-57.2657
-56.9723
-56.829
-57.0138
-56.0783
-56.1642
-56.9092
-55.9499
-54.9953
-54.8673
-54.6116
-54.7123
-54.331
-54.1247
-54.0263
-61.5283
-59.9566
-58.8559
-59.1278
-58.2231
-57.9356
-57.8295
-57.8089
-57.2909
-56.7592
-56.644
-56.601
-56.1109
-55.9817
-55.9041
-55.641
-55.3164
-54.7578
-54.5118
-54.396
-53.7332
-60.8323
-60.2597
-59.3743
-58.8743
-58.5582
-58.3859
-58.5334
-58.4681
-58.2703
-57.6037
-57.1026
-57.0205
-56.3888
-56.3882
-56.3896
-55.8364
-55.6755
-55.0253
-54.979
-54.9363
-54.8789
-54.3776
-60.5285
-60.1257
-59.4564
-59.0888
-58.7295
-58.5632
-58.7255
-58.8158
-58.557
-57.9321
-57.3082
-56.9161
-56.7272
-56.7158
-56.5487
-56.5227
-56.1776
-55.6064
-55.6998
-55.1283
-55.1101
-54.7737
-54.6925
-49.0063
-49.0421
-49.0805
-49.0783
-48.9986
-49.1944
-49.191
-49.3022
-49.0534
-49.266
-49.3096
-49.2753
-49.2264
-49.1396
-49.4006
-49.4353
-49.4632
-49.4158
-49.3244
-49.3535
-49.4896
-49.566
-49.5592
-49.6048
-49.6266
-49.5196
-49.5708
-49.5977
-49.6938
-49.6681
-49.7049
-49.6832
-49.7092
-49.7519
-49.7575
-49.8124
-49.8472
-49.8258
-49.9127
-49.8598
-49.8385
-50.0538
-50.0585
-50.0492
-49.8433
-49.9474
-49.9638
-50.1181
-50.2516
-50.2095
-50.5128
-50.4537
-50.3314
-50.2538
-50.0462
-50.1178
-50.1561
-50.2063
-50.3664
-50.4862
-50.8319
-50.751
-50.7573
-50.6983
-50.4723
-50.2186
-50.2874
-50.4835
-50.5561
-51.3282
-51.2912
-51.1989
-51.4541
-51.2675
-51.1495
-50.9351
-51.0986
-50.5047
-50.6042
-50.714
-50.9264
-51.0577
-51.4288
-51.9294
-52.0439
-52.1795
-51.7532
-51.3782
-51.5129
-50.8543
-50.8848
-50.9169
-51.1277
-51.2895
-51.8096
-52.4687
-53.0069
-52.9176
-52.5839
-52.2605
-52.303
-53.2005
-51.2989
-51.2375
-51.3218
-51.4069
-51.6297
-51.8825
-52.9751
-53.8968
-54.1777
-53.6445
-53.004
-53.0874
-53.7165
-54.8211
-51.7489
-51.8039
-51.707
-51.8401
-52.0325
-52.2595
-52.9012
-54.9696
-56.6898
-55.1257
-54.0516
-53.7623
-53.9024
-54.2731
-54.7242
-52.6132
-52.4771
-52.3832
-52.4105
-52.6075
-52.6531
-53.3447
-54.4892
-56.617
-57.0176
-55.7828
-54.5921
-54.4599
-54.2118
-53.8762
-53.3602
-53.2464
-53.0676
-53.2794
-53.4614
-53.4934
-53.3589
-53.3876
-55.2097
-55.9804
-55.7833
-54.6971
-54.7562
-54.013
-53.3315
-53.3759
-54.8784
-54.2527
-54.1286
-54.0523
-54.1827
-54.5229
-54.4564
-54.0527
-54.4446
-55.2931
-55.3041
-55.0956
-55.1358
-53.4203
-53.5169
-52.9904
-53.4929
-56.1138
-55.1979
-54.7329
-55.2309
-55.2007
-55.4874
-56.176
-56.3279
-55.8099
-55.3453
-55.1968
-55.7065
-55.1623
-53.6099
-53.5507
-52.9781
-53.4744
-54.1609
-58.7797
-56.6331
-55.5738
-55.6647
-56.1979
-57.3008
-58.326
-58.9271
-57.2302
-55.6071
-55.6379
-56.0061
-55.3228
-54.0671
-53.7022
-53.4574
-53.4011
-53.9408
-54.3085
-60.0219
-57.4759
-55.6986
-56.811
-57.303
-57.7069
-58.2193
-58.2274
-56.8857
-55.8345
-55.9385
-56.6763
-55.4179
-53.9018
-54.7853
-54.16
-53.7394
-53.8106
-54.0211
-54.0948
-60.7739
-58.9831
-58.3365
-58.4323
-57.6632
-57.1761
-56.9838
-56.8444
-56.9842
-56.0769
-56.0963
-56.8411
-55.8911
-55.0328
-54.7506
-55.0878
-54.5474
-54.243
-54.0335
-53.9573
-53.9965
-61.6567
-60.07
-58.8359
-59.1513
-58.3123
-57.9055
-57.8063
-57.8005
-57.2932
-56.7951
-56.6604
-56.5483
-56.0932
-56.0743
-55.8825
-55.6265
-55.2943
-54.7185
-54.496
-54.3833
-53.6874
-53.9096
-60.8866
-60.3384
-59.4261
-58.901
-58.5386
-58.366
-58.4789
-58.4512
-58.3131
-57.6644
-57.1513
-57.0138
-56.3919
-56.3859
-56.3981
-55.8623
-55.706
-55.0267
-54.9477
-54.9247
-54.8728
-54.3625
-54.1291
-60.5543
-60.1556
-59.4843
-59.107
-58.7397
-58.5615
-58.7132
-58.8056
-58.5625
-57.9679
-57.3438
-56.9336
-56.7319
-56.7188
-56.5518
-56.5281
-56.1909
-55.6062
-55.7364
-55.1418
-55.0826
-54.7627
-54.6661
-53.1289
-48.9858
-48.9289
-48.9155
-49.091
-49.1156
-49.0409
-48.9657
-49.234
-49.1966
-49.1777
-49.1151
-48.9989
-49.2588
-49.3382
-49.3971
-49.3825
-49.2073
-49.2859
-49.4135
-49.4849
-49.4942
-49.4964
-49.4328
-49.348
-49.3809
-49.5506
-49.5818
-49.5968
-49.6072
-49.5556
-49.5586
-49.5195
-49.4819
-49.6766
-49.7108
-49.7399
-49.7498
-49.6897
-49.7255
-49.7653
-49.6846
-49.6952
-49.852
-49.8716
-49.8405
-49.8461
-50.062
-49.8864
-50.0412
-50.1572
-50.0389
-49.9703
-49.8524
-49.9606
-49.9985
-50.1407
-50.0901
-50.2955
-50.4285
-50.4684
-50.3533
-50.3031
-50.2612
-50.0886
-50.107
-50.214
-50.2483
-50.4958
-50.6677
-50.7635
-50.9533
-50.7084
-50.7444
-50.5702
-50.5708
-50.2369
-50.3306
-50.4745
-50.4884
-50.8526
-50.7634
-51.3612
-51.1515
-51.2698
-51.2883
-51.0367
-51.0747
-51.254
-50.531
-50.5737
-50.6583
-50.8065
-50.9797
-51.3958
-51.7849
-51.8481
-52.0345
-51.8528
-51.4044
-51.6136
-52.1727
-50.8297
-50.8379
-50.9789
-51.0708
-51.2051
-51.6672
-52.3467
-52.9453
-53.1904
-52.7139
-52.213
-52.3984
-52.9305
-54.2247
-51.3327
-51.2809
-51.2609
-51.3945
-51.5937
-51.9111
-52.5516
-53.341
-53.7649
-53.8785
-53.1098
-52.8891
-53.4857
-54.3485
-55.3913
-51.8663
-51.7615
-51.7815
-51.8828
-52.047
-52.2634
-52.8069
-53.9616
-56.3008
-55.4871
-54.3146
-53.6887
-53.72
-54.048
-54.3794
-54.7588
-52.6637
-52.5171
-52.4269
-52.5532
-52.6924
-52.6439
-53.2137
-54.2383
-56.167
-56.9876
-56.1478
-54.9471
-54.3498
-53.8946
-54.1519
-53.9305
-53.4987
-53.2137
-53.1913
-53.2416
-53.4259
-53.5452
-53.4629
-53.4413
-54.4282
-56.0098
-56.1788
-54.8801
-55.0269
-53.5325
-52.6208
-52.8524
-53.2381
-54.9568
-54.4224
-54.1661
-54.1185
-54.1834
-54.4846
-54.5653
-54.1977
-54.4584
-55.0138
-55.2228
-54.8592
-54.4438
-53.6616
-53.0984
-52.6809
-53.1548
-54.0856
-56.4583
-55.2967
-54.6699
-55.1781
-55.2151
-55.3969
-56.1375
-56.7495
-55.809
-55.3147
-55.3251
-55.809
-55.0017
-53.4288
-53.3801
-52.8259
-53.0147
-53.685
-54.3967
-58.9509
-56.9038
-55.6409
-55.5635
-56.1573
-56.6827
-58.0145
-58.8302
-57.535
-55.6853
-55.3681
-55.7182
-54.9813
-53.2592
-53.467
-53.2686
-53.2657
-53.5775
-54.0757
-54.4609
-60.3596
-57.6797
-55.9363
-56.696
-57.2028
-57.4253
-58.1522
-58.0643
-56.981
-55.8814
-55.8328
-56.4403
-55.1318
-53.8891
-54.2725
-54.3861
-53.6585
-53.6569
-53.9062
-53.9774
-53.9653
-60.9091
-59.1907
-58.1283
-58.3504
-57.827
-57.112
-56.9757
-56.8309
-56.8893
-56.1112
-56.0902
-56.6665
-55.7881
-55.0186
-54.652
-55.0764
-54.3999
-54.1888
-53.9498
-53.933
-53.9134
-53.847
-61.8068
-60.2188
-58.8123
-59.1496
-58.3269
-57.8799
-57.7887
-57.7969
-57.3093
-56.8265
-56.6965
-56.5393
-56.1003
-56.0726
-55.8483
-55.6433
-55.255
-54.6783
-54.4717
-54.3538
-53.6973
-53.8937
-53.5348
-60.9416
-60.4336
-59.4741
-58.9266
-58.5277
-58.3534
-58.4151
-58.4325
-58.3496
-57.7469
-57.1857
-56.9964
-56.3937
-56.407
-56.4151
-55.8965
-55.6927
-55.0438
-54.9323
-54.8872
-54.8498
-54.3534
-54.0373
-53.396
-60.1855
-59.5166
-59.1236
-58.7545
-58.5626
-58.7041
-58.7939
-58.5725
-58.0016
-57.3778
-56.9563
-56.7346
-56.7229
-56.5567
-56.5323
-56.2149
-55.6027
-55.6944
-55.1645
-55.072
-54.7552
-54.6434
-53.1185
-53.8091
-49.0218
-49.0281
-48.9171
-48.854
-49.0888
-49.1632
-49.0921
-49.047
-48.9398
-49.2625
-49.2372
-49.225
-49.2484
-49.0711
-49.0478
-49.3627
-49.3842
-49.3956
-49.3508
-49.2956
-49.2073
-49.1752
-49.4803
-49.5189
-49.5178
-49.4851
-49.4143
-49.395
-49.3371
-49.3329
-49.5717
-49.6149
-49.6255
-49.6039
-49.6364
-49.4846
-49.5285
-49.4839
-49.4156
-49.7777
-49.698
-49.7575
-49.749
-49.7122
-49.6804
-49.731
-49.6882
-49.6672
-49.6808
-49.7936
-49.8474
-49.8615
-49.9168
-49.9667
-50.0885
-50.0374
-50.1742
-50.1133
-49.9964
-49.9118
-49.8332
-49.9493
-50.0004
-50.0616
-50.166
-50.0029
-50.3848
-50.4574
-50.4115
-50.3787
-50.3279
-50.1425
-50.0852
-50.0935
-50.1651
-50.2315
-50.4234
-50.4744
-50.788
-50.8482
-50.8665
-50.7058
-50.6654
-50.6684
-50.7455
-50.2876
-50.3174
-50.4482
-50.4918
-50.6449
-50.832
-51.1018
-51.1741
-51.309
-51.249
-50.9985
-51.1815
-51.2784
-51.3595
-50.5273
-50.5823
-50.7049
-50.7872
-50.7803
-51.2487
-51.6056
-52.0354
-52.0055
-51.8929
-51.647
-51.6662
-52.1392
-53.1241
-50.8122
-50.8903
-50.9864
-51.0214
-51.1812
-51.4587
-52.1014
-52.754
-52.9435
-52.7712
-52.4323
-52.3034
-52.6014
-53.7109
-55.6857
-51.3291
-51.2822
-51.3592
-51.4296
-51.5845
-51.8231
-52.2867
-53.0529
-53.6088
-53.5657
-52.827
-52.9666
-53.0381
-53.9917
-55.0514
-56.1588
-51.9228
-51.8921
-51.8171
-51.9209
-52.015