/*--------------------------------*- C++ -*----------------------------------*\
  =========                 |
  \\      /  F ield         | OpenFOAM: The Open Source CFD Toolbox
   \\    /   O peration     | Website:  https://openfoam.org
    \\  /    A nd           | Version:  7
     \\/     M anipulation  |
\*---------------------------------------------------------------------------*/
FoamFile
{
    version     2.0;
    format      ascii;
    class       surfaceScalarField;
    location    "9.5";
    object      phi;
}
// * * * * * * * * * * * * * * * * * * * * * * * * * * * * * * * * * * * * * //

dimensions      [0 3 -1 0 0 0 0];

internalField   nonuniform List<scalar> 
54184
(
-6.26363e-05
-0.00211176
-6.25518e-05
-0.000161188
-0.000368597
-0.000238712
-7.94486e-05
-0.00205048
-6.79414e-05
-3.24674e-05
-0.00252135
-5.57405e-05
-9.56681e-05
-0.00100575
-0.000272151
-0.000167488
-0.000338107
-0.000257229
-8.48773e-05
-0.00191678
-0.000181813
-8.77558e-05
-0.00198269
-6.62151e-05
-4.77123e-05
-0.00248039
-6.11864e-05
2.66175e-05
-0.00210624
-5.46691e-05
0.000118599
-0.0017198
-0.000380444
-0.000130671
-0.00112581
-0.000333943
-1.93046e-05
-0.000602673
-0.00027751
-0.000166162
-0.000326239
-0.000247931
-0.000114757
-0.00190631
-0.000200662
4.4092e-05
-0.00225666
-0.000148868
-9.81887e-05
-0.00190478
-6.53868e-05
-6.56939e-05
-0.00242046
-6.04527e-05
2.22752e-05
-0.00213006
-5.96333e-05
8.50477e-05
-0.00119187
-6.40582e-05
0.000192218
-0.00473641
0.000226834
8.07185e-05
-0.00193454
-0.000469484
0.000169486
-0.00223613
-0.00018006
-0.000202466
-0.0011746
-0.000356348
2.99299e-05
-0.000765136
-0.000316166
0.000135571
-0.00139424
-0.000288262
-0.000163098
-0.000329408
-0.000242641
-0.000142146
-0.00188026
-0.000197526
3.42326e-05
-0.00230059
-0.000168693
0.000238797
-0.00154829
-0.000113375
-0.000105106
-0.00182081
-6.43328e-05
-6.50264e-05
-0.00236075
-6.00641e-05
1.22429e-05
-0.002144
-5.87614e-05
8.45756e-05
-0.00126729
-6.87937e-05
0.000104106
-0.000342158
-7.50883e-05
0.000540883
-0.00743054
0.000485511
0.000275021
-0.0049727
0.000118316
0.000407697
-0.00499607
-2.1472e-05
0.000195728
-0.00254124
-0.000384997
0.000324949
-0.00275486
-0.000245779
0.000468478
-0.00115243
-0.0001928
-0.000264166
-0.00116468
-0.000352522
-2.35054e-05
-0.000922157
-0.000317969
0.000117084
-0.00148578
-0.000307473
0.000276316
-0.00144496
-0.000224979
-0.000173221
-0.00032865
-0.000236178
-0.000147486
-0.00184388
-0.000196562
-2.84089e-06
-0.00231076
-0.000172268
0.000220168
-0.00173558
-0.000116997
0.000218015
-0.00105417
-0.000113095
-0.000111989
-0.00173072
-6.3194e-05
-7.10204e-05
-0.00229474
-5.933e-05
5.88364e-06
-0.0021523
-5.76485e-05
7.96667e-05
-0.00133924
-6.64697e-05
0.000117582
-0.00044761
-8.09236e-05
3.09764e-05
1.23728e-05
-8.17262e-05
0.000641051
-0.00732633
0.0011903
0.000662848
-0.00753534
0.00060616
0.000546654
-0.00637009
0.000436418
0.000701696
-0.00544316
-0.000211531
0.000439659
-0.00465692
-0.000335552
0.000621479
-0.0025851
0.000174022
0.000240404
-0.00336405
-0.000145964
0.000249819
-0.00325924
-0.000153934
0.000512187
-0.00162426
-0.00016905
1.68444e-05
-0.00136572
-1.93578e-05
-0.000363666
-0.00107638
-0.000334586
-0.000187688
-0.000919675
-0.000314801
4.40452e-05
-0.00155199
-0.000298647
0.00026609
-0.00155215
-0.000246203
3.59859e-05
-0.00179744
-0.00015838
-0.000188146
-0.000319978
-0.000226969
-0.000159804
-0.00179614
-0.000195134
-3.66919e-05
-0.00229011
-0.000174644
0.00017762
-0.00191041
-9.53974e-05
0.000247467
-0.00118405
-0.000117001
8.12281e-06
-0.00102738
-0.000125065
-0.000117967
-0.00163477
-6.24107e-05
-7.62624e-05
-0.00222301
-5.86524e-05
-4.13294e-06
-0.00215015
-5.73499e-05
6.98145e-05
-0.00140289
-6.38177e-05
0.000119843
-0.000555543
-7.83802e-05
3.76403e-05
-1.7247e-05
-8.8944e-05
-2.65972e-06
0.000179577
-8.82181e-05
0.000632367
-0.00670821
0.00164432
0.000866249
-0.00744177
0.00142558
0.00040125
-0.00665382
0.00126347
0.00077053
-0.00716979
0.000297584
0.000494453
-0.00640577
0.000587039
0.00032912
-0.0062033
0.000681163
0.00107398
-0.00630095
-0.000179532
0.000675314
-0.004791
-0.000502947
0.000727386
-0.00303792
-9.79307e-05
-4.9297e-06
-0.000644761
0.000341573
1.219e-05
-0.00409502
0.000187662
5.816e-05
-0.00369634
4.52815e-05
0.000507647
-0.00216913
-7.26649e-05
6.73681e-05
-0.00120036
-0.00013569
-0.000346266
-0.00184665
0.000201222
-0.00034379
-0.00102034
-0.000322464
-0.000275611
-0.000828402
-0.000310052
-3.07319e-05
-0.00158381
-0.000288938
0.000219079
-0.00164468
-0.000247578
3.84584e-05
-0.00167239
-0.000162248
-0.000226115
-0.0022092
-8.1852e-05
-0.000192899
-0.00030825
-0.00022136
-0.000167427
-0.00173888
-0.000193063
-6.80436e-05
-0.00224286
-0.000178466
0.000145866
-0.00206264
-9.84606e-05
0.000241289
-0.00130414
-9.67544e-05
2.63294e-05
-0.000997308
-0.000135764
-6.99358e-05
-0.00146655
-0.000111854
-0.000119085
-0.00153777
-6.22137e-05
-8.23624e-05
-0.00214468
-5.83831e-05
-1.24226e-05
-0.00213926
-5.7113e-05
5.55668e-05
-0.00145441
-6.14002e-05
0.000114417
-0.000658471
-7.5307e-05
4.07626e-05
-4.9029e-05
-8.73609e-05
-6.92275e-06
0.000191869
-9.43134e-05
1.0809e-05
-7.04952e-05
-7.39851e-05
0.000730432
-0.00632705
0.0017904
0.00080412
-0.00674412
0.0018252
0.00059451
-0.00620374
0.0015404
0.000925977
-0.00749739
0.00138402
0.000533449
-0.00672923
0.001462
0.000493477
-0.00632689
0.00110407
0.00101219
-0.00669192
0.000134627
0.000923332
-0.00676178
0.000405585
0.000336671
-0.00600702
0.000781474
0.000509109
-0.00586503
0.000547796
0.000866023
-0.00713884
9.83635e-06
0.000681856
-0.00535525
-0.000238973
0.000867216
-0.00373639
-0.000164053
0.000109235
-0.00114246
0.000357904
-0.000542351
-0.00115269
0.000289109
-0.000147207
-0.0046237
0.000288212
0.000108058
-0.00403852
0.000146172
0.000475228
-0.0026235
-6.30931e-06
9.99499e-05
-0.00110674
-4.71513e-05
-0.000356084
-0.00164731
5.95209e-05
-0.000546734
-0.00193347
0.000174745
-0.000166225
-0.00112971
-0.000322956
-0.000257657
-0.000745303
-0.000315332
-5.72763e-05
-0.00160563
-0.000299004
0.000201667
-0.00174671
-0.000242707
6.43627e-05
-0.00160033
-0.000142708
-0.00022898
-0.00202865
-8.74868e-05
-0.000284946
-0.00302439
-2.50005e-05
-0.000196159
-0.00028933
-0.000217766
-0.000164692
-0.00168535
-0.000192564
-8.06347e-05
-0.0021863
-0.00018141
0.000104159
-0.00218289
-0.000106807
0.000213567
-0.00140667
-9.50727e-05
3.61601e-05
-0.000955258
-0.000134202
-9.74359e-05
-0.00140062
-0.000111186
2.46835e-05
-0.00158996
-6.76465e-05
-0.000121468
-0.00143814
-6.175e-05
-8.90353e-05
-0.00205995
-5.79056e-05
-2.02129e-05
-0.00212075
-5.66825e-05
4.284e-05
-0.00149526
-5.91026e-05
0.000110178
-0.000757884
-7.21649e-05
4.43442e-05
-8.30686e-05
-8.56115e-05
-7.60236e-06
0.00020321
-9.11e-05
7.02192e-06
-9.4585e-05
-7.72455e-05
-1.7577e-05
-0.000630865
-5.38658e-05
0.000893186
-0.00553318
0.00203479
0.00081337
-0.00582626
0.00195827
0.000716366
-0.00626471
0.00199611
0.000783842
-0.00633717
0.0017086
0.000878953
-0.00672986
0.00173713
0.000629091
-0.00641134
0.00193715
0.000522999
-0.00560155
0.0014466
0.000954753
-0.00735886
0.00126205
0.000836345
-0.00672806
0.00146983
0.000363551
-0.00619904
0.00130727
0.000593529
-0.00652965
0.00100227
0.000880527
-0.00639727
0.00030628
0.000885024
-0.00722154
0.000391219
0.000444085
-0.00595561
0.000777311
0.000561194
-0.00613784
0.000602328
-0.000522545
-0.00483043
0.000487803
0.000351473
-0.00743114
1.64017e-05
0.000839908
-0.00609278
1.55127e-05
0.000962252
-0.00447615
1.37643e-05
4.8721e-05
-0.00157003
0.000314741
-0.000470596
-0.000919026
0.00023875
-0.000859822
-0.00209852
0.000280663
-1.93933e-05
-0.00501688
0.000136136
0.000197905
-0.00436431
0.000158437
0.000403687
-0.00291275
-2.55453e-05
0.000195813
-0.0010471
-6.01041e-05
-0.00032322
-0.00141898
0.000112101
-0.000637267
-0.00169002
0.000224358
-0.000487637
-0.0024051
4.47423e-05
2.75266e-05
-0.00140643
-0.000345041
-0.00013621
-0.000766821
-0.000329921
-0.00017054
-0.00151564
-0.000315419
0.000171943
-0.00185739
-0.000256106
0.000101306
-0.00158422
-0.000146552
-0.000189379
-0.00186085
-8.49652e-05
-0.000360973
-0.00280414
-4.4202e-05
-0.000109198
-0.00367325
-4.18525e-06
-0.000210982
-0.00025364
-0.000214845
-0.000159675
-0.00164294
-0.000189533
-8.77656e-05
-0.00212514
-0.000186177
7.79663e-05
-0.00228083
-0.000118598
0.000198183
-0.00150823
-9.3255e-05
4.68628e-05
-0.000923184
-0.000129665
-9.85248e-05
-0.00134115
-0.000102744
1.86018e-06
-0.00162204
-7.394e-05
-7.25392e-06
-0.00304193
-1.27897e-05
-0.000126952
-0.00133266
-6.23019e-05
-0.000100028
-0.00196384
-5.78385e-05
-3.44499e-05
-0.00208768
-5.65216e-05
2.3931e-05
-0.00151842
-5.74496e-05
0.000108546
-0.000856062
-6.94705e-05
4.96847e-05
-0.000121117
-8.38016e-05
-6.48008e-06
0.000211871
-8.77919e-05
6.82353e-07
-0.000113481
-7.28868e-05
-2.10507e-05
-0.000630654
-5.64059e-05
2.2938e-05
-0.0010768
-5.3601e-05
0.000972744
-0.00493079
0.00245743
0.000918077
-0.00547571
0.0020904
0.00136969
-0.0051618
0.00230011
0.000798757
-0.00583572
0.00214592
0.00105236
-0.00601169
0.00189956
0.000691556
-0.006209
0.00204173
0.000852245
-0.00635596
0.00179175
0.000814256
-0.00552511
0.00175609
0.000803626
-0.00663251
0.0017144
0.000824947
-0.00658906
0.00192625
0.000641786
-0.00571074
0.0017681
0.000389911
-0.00547179
0.00162187
0.000801917
-0.00715542
0.00126556
0.000927443
-0.00693474
0.00142631
0.000418766
-0.00605415
0.00135026
0.000593843
-0.00643294
0.00117791
-0.000340468
-0.00588712
0.00109597
0.00049029
-0.00612983
0.000486368
0.00071424
-0.00701934
0.000229742
0.000674815
-0.0060492
0.000772242
0.000461038
-0.00635387
0.00058102
-0.000301808
-0.00484091
0.000444025
-0.000888797
-0.00412056
0.000516693
9.46927e-05
-0.00728589
3.02394e-05
0.000977164
-0.00667094
-0.000184693
0.000808007
-0.00506042
0.000195467
0.000192168
-0.00193055
0.000377932
-0.0004351
-0.000673716
0.000181312
-0.00103082
-0.00169865
0.000232427
-0.00066954
-0.00252293
0.000129006
0.000149624
-0.00517999
-0.000233179
0.000235975
-0.00479091
0.000190554
0.000275751
-0.00315473
-4.5866e-05
0.000359635
-0.00120306
-5.72732e-05
-0.000166297
-0.00128725
7.57686e-05
-0.000520361
-0.00139592
0.000148979
-0.000627669
-0.00207577
0.000161726
-0.000202605
-0.00351601
3.96575e-05
2.31484e-05
-0.00167838
-0.000350853
6.40648e-05
-0.000994264
-0.000341338
-0.000318654
-0.00128375
-0.000330917
0.000160564
-0.00198039
-0.000275017
0.000115438
-0.00158711
-0.000170473
-0.000172213
-0.00168774
-0.000100588
-0.00033984
-0.00260696
-4.08269e-05
-0.000216441
-0.00346569
-3.34548e-05
3.59739e-05
-0.00377135
-4.32343e-05
-0.000231205
-0.00020523
-0.00020482
-0.000173394
-0.00159893
-0.00018549
-9.99171e-05
-0.00206149
-0.000187718
1.97251e-05
-0.00232769
-0.000135108
0.000199207
-0.00162296
-9.45336e-05
7.38738e-05
-0.00091927
-0.000121357
-9.86221e-05
-0.00128065
-9.80307e-05
-1.39732e-05
-0.00164408
-6.60517e-05
-2.95246e-05
-0.00309294
-1.44539e-05
0.000101404
-0.00313319
-2.8053e-05
-0.000135217
-0.00121878
-6.15398e-05
-0.000113789
-0.00185482
-5.75244e-05
-3.80424e-05
-0.00205095
-5.65279e-05
8.29953e-06
-0.00152642
-5.68195e-05
0.000104871
-0.000950754
-6.76296e-05
5.34058e-05
-0.000161711
-8.22821e-05
-5.64365e-06
0.00021805
-8.43373e-05
-5.27025e-06
-0.000127229
-6.87727e-05
-2.6531e-05
-0.000622965
-5.40455e-05
1.23471e-05
-0.00109019
-5.5362e-05
0.00010155
-0.00107317
-5.48774e-05
0.00104026
-0.00483345
0.00277652
0.00101437
-0.00498982
0.00243382
0.00140338
-0.00503687
0.00243134
0.000756149
-0.00540358
0.00250699
0.00129748
-0.00545593
0.00213941
0.00165889
-0.00420647
0.00183075
0.000669384
-0.00580803
0.00224671
0.000982848
-0.00606506
0.00206869
0.00143068
-0.0045833
0.00172374
0.000698289
-0.00622044
0.00203131
0.000844193
-0.00626731
0.00193383
0.000876468
-0.00594597
0.00197792
0.00025667
-0.00454439
0.00147223
0.000667264
-0.00656993
0.00169356
0.000813077
-0.00665097
0.00189068
0.000827482
-0.00604907
0.00185587
0.000582544
-0.00542347
0.00173108
6.51854e-05
-0.00534612
0.00130631
0.000668156
-0.00710089
0.00128134
0.000889139
-0.00718317
0.00133909
0.000620697
-0.00598187
0.00140816
0.000617448
-0.00628864
0.00104954
-0.000148331
-0.00605321
0.00119052
-0.000698679
-0.00465189
0.000814623
0.000279041
-0.00577012
0.000566864
0.000903399
-0.00666346
0.000204254
0.00059281
-0.00603901
0.000434754
0.000394651
-0.00631259
0.00052848
-0.000232094
-0.00485938
0.000396481
-0.00116918
-0.00408469
0.000546515
-0.000666789
-0.00376547
0.00030203
-0.000165884
-0.00670276
0.000240517
0.000970356
-0.00719115
-0.000183926
0.000792774
-0.0058052
4.30647e-05
0.000480618
-0.00215214
0.000296078
-0.00020145
-0.000462751
0.000202119
-0.00096094
-0.00133106
0.000254301
-0.000858845
-0.00222685
0.000167525
-0.000253145
-0.00305408
7.63338e-05
9.47286e-05
-0.00525585
-0.00035579
0.000348635
-0.00535777
4.91151e-05
4.949e-05
-0.00340119
6.88638e-05
0.000500579
-0.00153072
-5.82174e-05
-0.000165569
-0.00112458
6.10607e-05
-0.000514805
-0.00116036
0.000182801
-0.000621283
-0.00177592
0.000130571
-0.000332611
-0.00332318
8.50692e-05
0.000111922
-0.00366257
-4.62871e-06
-5.27306e-05
-0.00188822
-0.000347437
0.000179615
-0.00135959
-0.000338534
-0.000328646
-0.00107031
-0.000326049
8.77604e-05
-0.00208578
-0.000293565
0.000172476
-0.00164672
-0.000188683
-0.000119995
-0.00155386
-0.000110488
-0.000349153
-0.00240544
-5.15835e-05
-0.000238165
-0.00326388
-1.84531e-05
-4.35823e-05
-0.00374814
-4.26061e-05
0.000321014
-0.00387299
-0.000267273
-0.000246286
-0.000150116
-0.000195652
-0.000206139
-0.00153351
-0.000177887
-0.000106374
-0.00199127
-0.00018738
-2.83731e-05
-0.0023386
-0.000140136
0.00020427
-0.00176009
-9.73685e-05
9.30075e-05
-0.000942978
-0.000110428
-9.88221e-05
-0.00121287
-9.59567e-05
-3.34237e-05
-0.00165345
-6.0503e-05
-6.91617e-05
-0.00309171
-2.46541e-05
8.41144e-05
-0.00319192
-2.74891e-05
0.000225897
-0.00327434
-8.08823e-05
-0.000142553
-0.00109687
-6.11573e-05
-0.00012715
-0.00173175
-5.74632e-05
-4.29016e-05
-0.00200941
-5.6163e-05
4.75134e-06
-0.00153123
-5.64687e-05
0.000101033
-0.00104216
-6.64447e-05
5.67823e-05
-0.000205372
-8.07507e-05
-2.28582e-06
0.000218871
-8.08168e-05
-1.00017e-05
-0.000136612
-6.49526e-05
-3.31073e-05
-0.000606494
-5.2136e-05
7.09731e-06
-0.00109814
-5.31985e-05
9.31591e-05
-0.0011646
-5.70928e-05
0.000120537
-0.00194691
-3.98745e-05
0.00126124
-0.00410637
0.00351488
0.00124676
-0.00483165
0.00303203
0.000923177
-0.00471539
0.00273357
0.00144946
-0.00492246
0.00286664
0.000855487
-0.00506287
0.00276787
0.00133489
-0.00500258
0.00236211
0.00162434
-0.0038853
0.0023733
0.000746096
-0.00550025
0.00257809
0.00118969
-0.00559173
0.00243595
0.00175381
-0.00450521
0.00211501
0.00218502
-0.0037524
0.000935722
0.000679635
-0.00579322
0.00229487
0.000794242
-0.00587758
0.00210918
0.00128847
-0.00515949
0.00223288
0.000935044
-0.00393032
0.000964318
0.000665413
-0.00622277
0.00195842
0.000849184
-0.00634657
0.00207446
0.00110005
-0.0061679
0.0018832
0.000786462
-0.00487392
0.00210353
0.000767063
-0.00469595
0.000616193
0.000627967
-0.00664824
0.00171754
0.000915513
-0.00681748
0.00183371
0.000778344
-0.00620433
0.00188829
0.000730346
-0.00537109
0.00169058
7.8133e-05
-0.0052855
0.001444
5.54679e-05
-0.0041665
0.000599471
0.000467207
-0.00705771
0.00139159
0.000952725
-0.0071552
0.00120404
0.000618848
-0.00591921
0.00125039
0.000610114
-0.00606944
0.000973498
4.22655e-05
-0.00631947
0.00104144
-0.000986977
-0.00450857
0.000865001
-0.000201635
-0.00379295
0.000356183
4.87318e-05
-0.00575186
0.00113672
0.00116582
-0.00645656
0.000164508
0.000552522
-0.00599957
0.000405062
0.000505887
-0.00632926
0.000426159
0.000192953
-0.00506597
0.000340671
-0.00116541
-0.00401888
0.000535148
-0.00088889
-0.003508
0.000319089
-3.39347e-05
-0.00328424
0.00018932
-0.000295742
-0.00611879
0.000211177
0.000231399
-0.00699116
0.000157756
0.000865364
-0.00647776
-0.000327242
0.000744501
-0.00252845
0.000175445
0.000207203
-0.000672731
0.000133285
-0.00100308
-0.000909713
0.000269051
-0.000956587
-0.00184573
0.000208485
-0.000407364
-0.00298827
0.000176471
0.000331283
-0.00367958
4.762e-05
-5.40899e-05
-0.00533602
-0.000218877
0.000545709
-0.00599725
-8.24074e-05
-6.06599e-06
-0.00382517
0.000150518
0.000741102
-0.00207926
-3.5939e-05
-3.80231e-05
-0.00102536
5.30583e-05
-0.000471861
-0.000979516
0.000232086
-0.000678221
-0.00151453
0.000250475
-0.000444459
-0.00308439
9.80711e-05
-4.81269e-05
-0.00358524
1.22815e-05
0.000633816
-0.00355265
-0.000297658
-9.29038e-05
-0.00207244
-0.00034389
9.2927e-05
-0.00166784
-0.000338249
-0.000247116
-0.000948489
-0.000319615
-5.78122e-05
-0.0020796
-0.000302786
0.000207499
-0.00173147
-0.000212039
-7.23651e-05
-0.00147742
-9.97457e-05
-0.000327664
-0.00222909
-5.79887e-05
-0.000305767
-0.00303945
-3.66147e-06
-0.000157608
-0.00366118
-1.69678e-05
0.000319164
-0.00387831
-0.000272337
0.000519657
-0.00415208
-0.000441455
-0.000251239
-9.73313e-05
-0.00018902
-0.0002292
-0.00145378
-0.000173337
-0.0001096
-0.00191517
-0.000187288
-3.4451e-05
-0.00234409
-0.000142695
0.000218963
-0.00193028
-8.78839e-05
0.000117166
-0.00100074
-9.99864e-05
-9.26493e-05
-0.00113693
-9.60042e-05
-4.4497e-05
-0.00165578
-5.91302e-05
-9.73732e-05
-0.00306316
-2.47872e-05
7.55037e-05
-0.00324658
-3.84014e-05
0.000212625
-0.00332786
-9.34318e-05
0.000327547
-0.0039977
-0.000130463
-0.000146292
-0.000970384
-6.13691e-05
-0.000139103
-0.00159608
-5.77278e-05
-4.77598e-05
-0.0019631
-5.60199e-05
5.07691e-06
-0.0015366
-5.58699e-05
9.3566e-05
-0.00112711
-6.50831e-05
6.25319e-05
-0.000255621
-7.87273e-05
1.50265e-06
0.000213843
-7.72259e-05
-1.20947e-05
-0.00014392
-6.14147e-05
-4.05622e-05
-0.000580343
-5.0541e-05
1.34123e-06
-0.00109945
-5.21666e-05
7.52058e-05
-0.00123838
-5.46319e-05
0.000117704
-0.00207818
-4.35271e-05
0.000112624
-0.00207801
-3.38604e-05
0.000829902
-0.00403083
0.00408794
0.00129798
-0.00412255
0.00357694
0.00157517
-0.00443425
0.00368623
0.000941045
-0.00475606
0.0030678
0.00130923
-0.00486723
0.00332411
0.000945344
-0.0047957
0.00307043
0.00124169
-0.00482049
0.00272481
0.000993211
-0.00435157
0.00323023
0.000804985
-0.00520997
0.00282686
0.00128658
-0.00501604
0.00268445
0.00205938
-0.00433923
0.00251047
0.00215133
-0.00386598
0.00219032
0.000623919
-0.00554526
0.00254804
0.000871411
-0.00558319
0.00249238
0.00149645
-0.00475363
0.0024764
0.00183306
-0.00398567
0.00145027
0.00253668
-0.00394979
0.000524137
0.000651803
-0.00581647
0.00235264
0.000795347
-0.0057727
0.00224382
0.0011938
-0.0053849
0.00224083
0.00158486
-0.00436266
0.00186683
0.00175496
-0.00412759
8.00687e-05
0.000621124
-0.00619422
0.00198585
0.000773569
-0.00638557
0.00213937
0.000967614
-0.00613614
0.00185342
0.00093571
-0.00531896
0.00212288
0.000602999
-0.00452942
0.00141214
0.00111272
-0.00363105
-9.36935e-06
0.000424917
-0.00663974
0.00165426
0.000816576
-0.00684006
0.00187626
0.000650134
-0.00628026
0.00187835
0.00107002
-0.005544
0.00160129
0.00044804
-0.00543868
0.00143799
-9.80409e-05
-0.00429091
0.000679464
0.000538995
-0.00220252
-7.10939e-05
0.000272635
-0.0073006
0.00167461
0.00105311
-0.00680043
0.00114952
0.000623703
-0.00597479
0.00118844
0.000747795
-0.00590312
0.000842161
0.000439057
-0.00639813
0.00080606
-0.000906744
-0.00461291
0.000887109
-0.000402839
-0.00402534
0.00061134
0.000333464
-0.00248551
0.000123562
-0.000150021
-0.00584127
0.00132271
0.000409604
-0.00603282
0.000534772
0.000764514
-0.00613139
0.000397183
0.000624888
-0.00643769
0.000633099
0.000784357
-0.00556343
0.000346466
-0.00116926
-0.00407297
0.000560934
-0.000993572
-0.0033684
0.000432531
-0.000320139
-0.00333603
0.000283657
0.000539425
-0.00297899
0.000114748
-0.000344781
-0.00555364
0.00026613
0.000263695
-0.00676636
0.000268396
0.000809181
-0.00675158
-0.000383673
0.00115705
-0.00309665
-0.000174991
0.000237661
-0.000912996
0.000140025
-0.000934656
-0.000555895
0.000242262
-0.00104821
-0.00150033
0.000293635
-0.000592321
-0.00279697
0.000165041
2.17161e-05
-0.00376031
0.000187358
0.000822452
-0.00362712
-0.000293076
-0.000151373
-0.00539311
-0.000135124
0.000413792
-0.00647981
-5.71811e-05
4.01423e-05
-0.00427761
8.27693e-05
0.000498272
-0.00251183
2.70052e-05
5.12712e-05
-0.000943356
3.82873e-05
-0.000371068
-0.000779797
0.000152042
-0.000628378
-0.00123735
0.000255624
-0.000547136
-0.00279563
0.000203085
-0.000242161
-0.0034522
4.95769e-05
0.000577582
-0.00347514
-0.000323644
0.000945359
-0.00439716
-0.000621444
-0.000116237
-0.00223896
-0.000339522
3.21146e-05
-0.00193601
-0.000337043
-0.000168197
-0.000893316
-0.000334825
-0.000156931
-0.00197502
-0.000301719
0.000224933
-0.0018052
-0.00023503
4.80345e-06
-0.00144231
-0.000134788
-0.000305023
-0.00208606
-3.0403e-05
-0.000274394
-0.00285327
-1.42756e-05
-0.000229368
-0.00354203
9.18361e-06
0.000262605
-0.00383282
-0.000249564
0.000497704
-0.00424912
-0.000460383
0.000546428
-0.00415818
-0.000530752
-0.00024229
-5.86019e-05
-0.000184065
-0.000234861
-0.0013795
-0.00016754
-0.000104531
-0.00184553
-0.000186204
-3.68766e-05
-0.00233999
-0.000149434
0.000217882
-0.00210703
-9.02598e-05
0.000139406
-0.00107972
-8.57813e-05
-7.21183e-05
-0.00106527
-9.80277e-05
-5.63939e-05
-0.001646
-6.14903e-05
-0.00013733
-0.00301374
-1.17845e-05
3.9398e-05
-0.00326981
-3.96152e-05
0.000170694
-0.00336935
-9.2402e-05
0.000364318
-0.00415605
-0.000181695
0.000157941
-0.00379333
-0.000150263
-0.000147941
-0.000841807
-6.15695e-05
-0.000146769
-0.00145349
-5.71833e-05
-5.56592e-05
-0.00190906
-5.60993e-05
5.20953e-07
-0.00153762
-5.55213e-05
8.19233e-05
-0.00120151
-6.33915e-05
6.16082e-05
-0.000306112
-7.62002e-05
7.94267e-06
0.000200777
-7.36036e-05
-1.00001e-05
-0.000153104
-5.80412e-05
-4.74821e-05
-0.000545037
-4.92388e-05
-6.95944e-06
-0.00109132
-5.17082e-05
5.99718e-05
-0.00129716
-5.33564e-05
0.00010245
-0.00219265
-4.26102e-05
8.56816e-05
-0.00217035
-3.68741e-05
8.96285e-05
-0.00149028
-5.00974e-05
0.00048365
-0.00426023
0.0043825
0.0010751
-0.00402833
0.0041258
0.00121362
-0.00413897
0.00434343
0.000750837
-0.00398694
0.00366283
0.00134008
-0.00460624
0.00371808
0.000697771
-0.00467639
0.00398953
0.000877576
-0.00471821
0.00338733
0.00107584
-0.00488013
0.00324653
0.000853827
-0.00438911
0.00363215
0.000711327
-0.00479709
0.00318337
0.00105069
-0.0046718
0.00315763
0.00166076
-0.00421061
0.00298247
0.00200603
-0.00416914
0.00341913
0.00051379
-0.00520596
0.00281164
0.00102258
-0.0050546
0.00271426
0.00151592
-0.00464431
0.00297006
0.00184176
-0.00406347
0.00269926
0.0031346
-0.00488039
0.00205383
0.000584222
-0.00553983
0.00260962
0.00067345
-0.00538073
0.00246748
0.00139798
-0.0051467
0.00268127
0.00183272
-0.00391663
0.0021595
0.00224793
-0.00379483
0.000802341
0.00163886
-0.00255275
0.000514877
0.000578557
-0.00573276
0.00227632
0.000793862
-0.00583827
0.00239792
0.00114455
-0.00543317
0.00211516
0.00130396
-0.00497107
0.00248097
0.0018581
-0.00418627
0.000670408
0.00156285
-0.00301501
-0.000413141
0.000458918
-0.00629131
0.00206301
0.00083181
-0.00651564
0.00210069
0.000856825
-0.00616368
0.00196022
0.00143995
-0.00578649
0.00195102
0.000625638
-0.00417728
0.00159315
0.00110168
-0.00378726
0.000368625
0.000796905
-0.00224449
-0.000310343
0.000190452
-0.0066593
0.00172489
0.000796626
-0.00671578
0.00178647
0.000662665
-0.00631487
0.0018719
0.00125652
-0.00565146
0.00147709
0.000685359
-0.00550506
0.00142137
-0.000202711
-0.00430252
0.000745568
0.000511262
-0.00257286
0.000135706
0.00061396
-0.00133978
-0.000429289
3.05012e-05
-0.00759836
0.00175561
0.000675624
-0.00677861
0.00138676
0.000793328
-0.00600563
0.00115155
0.000756535
-0.00577355
0.00092722
0.000566601
-0.00612002
0.000781811
-0.000821648
-0.0050832
0.000928739
-0.000649523
-0.00398309
0.000500814
0.00014869
-0.00276209
0.000419095
0.000290809
-0.00186452
9.54523e-05
-0.000268887
-0.00608646
0.001496
0.000284053
-0.00553951
0.000809039
0.000731627
-0.00602767
0.000508605
0.000706878
-0.00636472
0.000774391
0.00089021
-0.00619444
0.000611556
-0.000935807
-0.00429472
0.000569368
-0.00111798
-0.00324487
0.00050718
-0.000518142
-0.00318311
0.000205431
0.000450525
-0.00352851
0.000404366
0.00100651
-0.00363497
-7.48825e-05
-0.000317545
-0.00504934
0.000349315
0.000188456
-0.00637853
0.000103631
0.000691814
-0.00715471
1.98504e-05
0.00106967
-0.00371369
-0.000338033
0.000205429
-0.00143251
0.000190362
-0.000666621
-0.000353654
0.000233337
-0.00108763
-0.00113184
0.000333024
-0.000809371
-0.00250421
0.000263119
-0.000267639
-0.00373469
0.0001649
0.000781285
-0.00362629
-1.71753e-05
0.00118829
-0.00467139
-0.000538065
-0.000255506
-0.00526926
-0.000122523
0.000216451
-0.00663209
-0.000167176
9.07379e-05
-0.00453631
-5.74157e-05
0.000195212
-0.0027859
4.69514e-06
7.86219e-05
-0.000799486
2.94467e-05
-0.000251216
-0.000663279
0.000177789
-0.000595632
-0.00103029
0.000235591
-0.000542448
-0.00242347
0.000151517
-0.000350378
-0.0031849
5.68005e-05
0.000415791
-0.00337819
-0.000200561
0.000993937
-0.00456769
-0.000649353
0.000873586
-0.00521077
-0.000732842
-0.00013202
-0.00236951
-0.000343148
3.77735e-05
-0.00220983
-0.000338332
3.29157e-07
-0.000980385
-0.000354835
-0.000186102
-0.00185333
-0.000307285
0.000245177
-0.00188613
-0.000248077
5.70964e-05
-0.00144844
-0.000146589
-0.000251418
-0.00197252
-6.90359e-05
-0.000302899
-0.00262776
-9.40248e-06
-0.000300744
-0.00340839
1.55039e-05
0.000184009
-0.00375331
-0.000214939
0.000454973
-0.00429093
-0.000492032
0.000619606
-0.00431031
-0.000563537
0.000206778
-0.00398889
-0.000487804
-0.000242646
-2.52775e-05
-0.000181127
-0.000223179
-0.00132758
-0.000159572
-0.000116335
-0.0017724
-0.000179992
-2.76549e-05
-0.00234403
-0.000153982
0.000187141
-0.00226073
-0.000100944
0.000132254
-0.00116045
-8.01789e-05
-5.35209e-05
-0.000993294
-9.62889e-05
-4.34091e-05
-0.00164474
-6.58816e-05
-0.000171625
-0.00294287
-8.21264e-06
5.48808e-06
-0.00326492
-2.91249e-05
0.000125777
-0.00337425
-0.00010052
0.000277076
-0.00428181
-0.000141266
6.56658e-05
-0.0037585
-0.000196509
0.000225492
-0.00253672
-0.00018298
-0.000153539
-0.000706726
-6.09282e-05
-0.000152113
-0.00130567
-5.7278e-05
-6.99653e-05
-0.00184091
-5.53767e-05
2.12329e-07
-0.00153865
-5.52801e-05
6.98613e-05
-0.00126525
-6.16425e-05
6.17299e-05
-0.000358118
-7.3116e-05
2.26325e-05
0.000172025
-7.0081e-05
-7.98927e-06
-0.000163873
-5.48453e-05
-5.37428e-05
-0.000501082
-4.82535e-05
-1.5818e-05
-0.001073
-5.17467e-05
4.75291e-05
-0.00134363
-5.27607e-05
8.0366e-05
-0.00228543
-4.09442e-05
9.55254e-05
-0.00227226
-3.62253e-05
8.9995e-05
-0.00156304
-5.41008e-05
0.000125276
-0.00129653
-6.29943e-05
0.000282592
-0.00427606
0.00447576
0.00082116
-0.00415977
0.0042933
0.000959836
-0.0043933
0.00463303
0.000484627
-0.0040527
0.00416247
0.00125521
-0.00417146
0.00424315
0.000895348
-0.00433119
0.00429788
0.000799985
-0.00408913
0.00408161
0.00104232
-0.0046386
0.00372872
0.000702197
-0.00475785
0.00395118
0.00162673
-0.00480877
0.00435141
0.000640423
-0.00474252
0.00356574
0.000654405
-0.00475038
0.00365387
0.000855302
-0.00408268
0.00374556
0.00136277
-0.00439133
0.0038968
0.000430431
-0.0047813
0.00315713
0.00105321
-0.00470039
0.00318133
0.00147572
-0.00438718
0.00337439
0.00144945
-0.00431368
0.00351932
0.00319928
-0.00414146
0.00345906
0.000486805
-0.00510122
0.00279495
0.000809343
-0.00513693
0.00275808
0.0015919
-0.00507743
0.00295345
0.00149991
-0.00388435
0.00312375
0.00237498
-0.00456293
0.00225475
0.00162883
-0.00433791
0.00212902
0.000481819
-0.00549849
0.00255995
0.000921316
-0.00539693
0.00249836
0.00136985
-0.00544793
0.00254341
0.00142884
-0.00428041
0.00292018
0.00242589
-0.00396295
0.00175983
0.00211513
-0.00287268
0.00056999
-0.000102416
-0.00202501
0.000781269
0.000509077
-0.00569787
0.00233197
0.000799548
-0.0058981
0.00236842
0.00106348
-0.00544139
0.00219948
0.00152748
-0.00539016
0.00244673
0.00132501
-0.00382763
0.00142296
0.00167977
-0.00275665
-0.000166036
0.000429728
-0.00108138
-0.00053715
0.000270673
-0.0064098
0.00208706
0.000718133
-0.00646992
0.00209578
0.000706204
-0.00623505
0.00212852
0.00147619
-0.00591093
0.00186499
0.000980166
-0.00441346
0.0018924
0.000775126
-0.00364426
0.000472306
0.000958949
-0.0020831
-0.00024045
0.000326204
-0.00198137
-0.000487538
0.00013126
-0.00684096
0.00173778
0.000517677
-0.00660454
0.0017716
0.000812564
-0.00639164
0.00184401
0.00121198
-0.00565605
0.00142104
0.000843379
-0.00569616
0.00139141
-0.000250507
-0.00433349
0.0008812
0.000325088
-0.00295434
0.000152438
0.000512256
-0.00132248
-0.000245159
-0.000321651
-0.0018046
-0.000155376
-0.000196675
-0.00772351
0.0017255
0.000545211
-0.00684017
0.00155601
0.000778846
-0.00595049
0.00128441
0.000744144
-0.00578287
0.00112361
0.000893665
-0.00609697
0.000900714
-0.000611294
-0.00555939
0.000933484
-0.00084249
-0.00386553
0.000535689
-6.71907e-05
-0.00310611
0.000393878
0.00059246
-0.0017977
0.000210344
0.00117061
-0.0033088
1.24901e-05
-0.000267528
-0.006322
0.0013999
0.000171869
-0.0052154
0.00118847
0.00077216
-0.00594706
0.000648081
0.00069813
-0.00629609
0.00081152
0.000754441
-0.00669379
0.000724734
-0.000466252
-0.00446591
0.000582384
-0.00121222
-0.00315103
0.000600118
-0.000887432
-0.00307012
0.000472246
0.000128496
-0.00395815
0.000238944
0.000938317
-0.00346823
8.05854e-05
0.00137316
-0.00448213
-0.000287977
-0.000375004
-0.00482362
0.000396951
5.7164e-05
-0.00599928
0.00012935
0.000481609
-0.00754335
0.0001014
0.000812151
-0.00427663
-3.41523e-05
0.000208469
-0.00211198
0.000211592
-0.000469926
-0.000150716
0.000206135
-0.00113074
-0.000760948
0.000397551
-0.000953258
-0.00214087
0.000380491
-0.000415925
-0.00354038
0.000134355
0.000608008
-0.0035382
-0.000115414
0.00130791
-0.00462634
-0.000376191
0.00111897
-0.00582347
-0.000437564
-0.000351215
-0.00492867
-0.000162675
9.94403e-05
-0.00646806
-0.00034822
0.000319064
-0.00486985
-0.000152368
6.94299e-05
-0.00300894
-8.99118e-05
0.000377569
-0.000948462
2.12789e-05
-0.000178167
-0.000593121
0.000194552
-0.000540759
-0.000913832
0.000350672
-0.000574308
-0.00211364
0.000197172
-0.000453215
-0.00293194
5.10251e-05
0.000351298
-0.00320386
-0.000284822
0.000864746
-0.00461055
-0.000567475
0.000800869
-0.00532149
-0.000719896
0.000397566
-0.00570852
-0.000762701
-0.000187202