/*--------------------------------*- C++ -*----------------------------------*\
  =========                 |
  \\      /  F ield         | OpenFOAM: The Open Source CFD Toolbox
   \\    /   O peration     | Website:  https://openfoam.org
    \\  /    A nd           | Version:  7
     \\/     M anipulation  |
\*---------------------------------------------------------------------------*/
FoamFile
{
    version     2.0;
    format      ascii;
    class       surfaceScalarField;
    location    "9.5";
    object      phi_0;
}
// * * * * * * * * * * * * * * * * * * * * * * * * * * * * * * * * * * * * * //

dimensions      [0 3 -1 0 0 0 0];

internalField   nonuniform List<scalar> 
54184
(
-6.21976e-05
-0.00211398
-6.2686e-05
-0.000160918
-0.00036454
-0.000239697
-7.91436e-05
-0.00205294
-6.80883e-05
-3.10732e-05
-0.00252666
-5.56869e-05
-9.56206e-05
-0.00100084
-0.000271665
-0.000167226
-0.000333531
-0.000257972
-8.31532e-05
-0.00191401
-0.000182197
-8.74268e-05
-0.00198543
-6.6369e-05
-4.76658e-05
-0.00248591
-6.11734e-05
2.73376e-05
-0.00211122
-5.45763e-05
0.000117283
-0.00172709
-0.000375917
-0.0001285
-0.00112222
-0.000333479
-2.37013e-05
-0.000597476
-0.000276873
-0.000165682
-0.000321282
-0.000248848
-0.000114434
-0.00190453
-0.000200685
4.44792e-05
-0.00225886
-0.000148598
-9.80346e-05
-0.00190771
-6.54256e-05
-6.56457e-05
-0.00242615
-6.04819e-05
2.2234e-05
-0.00213504
-5.95847e-05
8.54654e-05
-0.00119371
-6.39367e-05
0.000190445
-0.00472141
0.000231222
7.87877e-05
-0.00191074
-0.000470321
0.000161618
-0.0022207
-0.000177223
-0.000197482
-0.00117501
-0.000356567
3.04374e-05
-0.00075993
-0.000315897
0.000135697
-0.0013843
-0.00028867
-0.000162374
-0.000324983
-0.000243239
-0.000141512
-0.00187982
-0.000197695
3.34051e-05
-0.00230233
-0.000168391
0.000239577
-0.00154463
-0.000113723
-0.000105474
-0.00182332
-6.44093e-05
-6.57066e-05
-0.00236586
-6.00123e-05
1.19512e-05
-0.00214871
-5.87582e-05
8.46445e-05
-0.00126925
-6.86896e-05
0.000104202
-0.000339484
-7.49424e-05
0.000538922
-0.00742982
0.000486903
0.000258977
-0.004949
0.000133962
0.00040405
-0.0050058
-1.23996e-05
0.000186415
-0.00249521
-0.000391413
0.000320782
-0.00273575
-0.000245618
0.000465194
-0.00113284
-0.000193456
-0.000258672
-0.00116942
-0.000353566
-2.05242e-05
-0.000919614
-0.000317871
0.000118122
-0.00147723
-0.000307685
0.000275346
-0.00143665
-0.000225341
-0.000172192
-0.000325646
-0.000236882
-0.000148064
-0.00184415
-0.000196549
-2.43421e-06
-0.00231354
-0.0001721
0.000221639
-0.00173263
-0.000117378
0.000217648
-0.00105346
-0.000113222
-0.000112214
-0.00173309
-6.31609e-05
-7.09697e-05
-0.00229996
-5.93355e-05
5.35319e-06
-0.00215646
-5.76149e-05
7.95188e-05
-0.00134112
-6.64011e-05
0.000117793
-0.000445193
-8.07733e-05
3.114e-05
1.40286e-05
-8.16323e-05
0.00063221
-0.00731784
0.00118558
0.00064865
-0.00753786
0.000616546
0.000545483
-0.00637669
0.000441015
0.000668702
-0.00539782
-0.000196958
0.000429205
-0.00465844
-0.00032182
0.000615579
-0.00257933
0.000183745
0.000246737
-0.00331407
-0.00016498
0.000252443
-0.00324075
-0.000159378
0.000511422
-0.00160165
-0.000170109
1.19418e-05
-0.0013633
-1.71764e-05
-0.000361174
-0.00108215
-0.00033542
-0.000178443
-0.00092787
-0.000314932
4.67379e-05
-0.00154526
-0.000299006
0.000266696
-0.00154302
-0.000246365
3.53926e-05
-0.00179997
-0.000158752
-0.000187318
-0.000318237
-0.000227588
-0.000160097
-0.00179674
-0.000195159
-3.60734e-05
-0.00229417
-0.000174489
0.000178265
-0.00190784
-9.56352e-05
0.000247506
-0.00118346
-0.000117096
8.33821e-06
-0.00102934
-0.000125044
-0.000118556
-0.00163655
-6.23989e-05
-7.61641e-05
-0.00222839
-5.85668e-05
-4.19645e-06
-0.00215434
-5.72601e-05
7.00354e-05
-0.00140501
-6.37616e-05
0.000120166
-0.000553511
-7.82489e-05
3.78732e-05
-1.57638e-05
-8.8854e-05
-2.0836e-06
0.000182689
-8.82555e-05
0.000629799
-0.00670609
0.0016403
0.000852899
-0.00743504
0.00142539
0.000397955
-0.00664923
0.0012611
0.000759807
-0.00720279
0.00031805
0.000484239
-0.00640391
0.00058873
0.000332875
-0.00620878
0.000682761
0.0010647
-0.00623865
-0.000188767
0.000666844
-0.00476934
-0.000500457
0.000722451
-0.00302086
-9.13173e-05
-1.4747e-05
-0.00062937
0.000343571
2.62704e-05
-0.00405899
0.00017479
6.10177e-05
-0.00367878
3.35891e-05
0.000508357
-0.0021459
-7.67422e-05
6.49997e-05
-0.00119726
-0.000134446
-0.000347904
-0.00185186
0.000202009
-0.000346682
-0.00102252
-0.000323523
-0.000274829
-0.00083835
-0.000310209
-2.86077e-05
-0.00157892
-0.000288745
0.000219161
-0.00163487
-0.000248056
3.70082e-05
-0.001673
-0.000162839
-0.000225349
-0.00221298
-8.22035e-05
-0.000192483
-0.00030796
-0.000221762
-0.000168113
-0.00173944
-0.000192944
-6.77768e-05
-0.00224748
-0.00017827
0.000146505
-0.00206076
-9.80435e-05
0.000242166
-0.00130435
-9.67447e-05
2.68645e-05
-0.000999713
-0.000135714
-6.83002e-05
-0.0014678
-0.000112534
-0.000119659
-0.00153904
-6.21698e-05
-8.24636e-05
-0.00214997
-5.83542e-05
-1.23775e-05
-0.00214349
-5.70458e-05
5.60339e-05
-0.00145696
-6.13445e-05
0.000114788
-0.000656862
-7.51983e-05
4.10668e-05
-4.77938e-05
-8.72857e-05
-6.39924e-06
0.000194618
-9.43833e-05
1.1131e-05
-6.45984e-05
-7.41587e-05
0.000736598
-0.00632611
0.00178693
0.000793241
-0.00674544
0.00182793
0.000593566
-0.00619296
0.00153017
0.00092699
-0.00750238
0.00139054
0.000518497
-0.00671964
0.00146154
0.000505338
-0.00632946
0.00109831
0.00100007
-0.00671918
0.000138409
0.000904338
-0.00673845
0.000415094
0.000336098
-0.00601508
0.000781383
0.000505111
-0.00585548
0.000548637
0.000896172
-0.0071056
1.64791e-06
0.000670201
-0.00531072
-0.000256566
0.000863684
-0.00371257
-0.000164073
0.00011059
-0.00112457
0.000358293
-0.000548401
-0.00116068
0.000291005
-0.0001449
-0.00459395
0.000286633
9.95928e-05
-0.00402074
0.000142323
0.00047746
-0.00261163
-6.74803e-06
9.55031e-05
-0.00110339
-4.69545e-05
-0.000359158
-0.00165192
6.17867e-05
-0.000544958
-0.00194503
0.000173679
-0.000185758
-0.00111255
-0.000323074
-0.000257185
-0.000757426
-0.000315373
-5.42875e-05
-0.00160423
-0.000298387
0.000201421
-0.00173577
-0.000242763
6.33053e-05
-0.00159888
-0.000143317
-0.000228189
-0.00203281
-8.796e-05
-0.000283379
-0.00303003
-2.55407e-05
-0.000195413
-0.000290877
-0.000218005
-0.000166058
-0.00168522
-0.000192391
-8.15075e-05
-0.00219023
-0.00018106
0.000104868
-0.00218147
-0.000106394
0.000214455
-0.00140741
-9.46553e-05
3.69586e-05
-0.000958205
-0.000134145
-9.59874e-05
-0.00140214
-0.000111794
2.54529e-05
-0.00158482
-6.77049e-05
-0.000121733
-0.00143926
-6.16851e-05
-8.87878e-05
-0.00206553
-5.78257e-05
-1.99079e-05
-0.00212532
-5.66177e-05
4.34873e-05
-0.00149843
-5.90648e-05
0.000110297
-0.000756441
-7.20626e-05
4.45375e-05
-8.19863e-05
-8.55433e-05
-7.13868e-06
0.000205666
-9.11951e-05
7.49079e-06
-8.90152e-05
-7.74574e-05
-1.76317e-05
-0.000627339
-5.39418e-05
0.000899818
-0.00553343
0.00203428
0.000817734
-0.0058265
0.00195538
0.000715037
-0.00626881
0.00199365
0.000786102
-0.0063328
0.00170703
0.000879136
-0.00672903
0.00173981
0.000620739
-0.00639908
0.00193181
0.000525482
-0.00560032
0.00144273
0.000951224
-0.00737526
0.00126804
0.000817909
-0.00671545
0.00147278
0.000371424
-0.00620706
0.00130381
0.000596471
-0.0065315
0.000998756
0.000899736
-0.00641142
0.000293458
0.000887293
-0.00721582
0.000398694
0.000438277
-0.00595227
0.000777694
0.000567771
-0.00613222
0.000600946
-0.000531325
-0.00482594
0.000493355
0.000369984
-0.00742176
1.6702e-05
0.000824953
-0.00605491
2.04716e-05
0.000958356
-0.00445312
3.08544e-06
4.6955e-05
-0.00155396
0.000313867
-0.000477424
-0.000925723
0.000241603
-0.000857654
-0.00210757
0.000281
-3.78431e-05
-0.00499645
0.000158399
0.00020129
-0.0043473
0.000154716
0.000406124
-0.00290533
-2.43958e-05
0.000189136
-0.00103852
-5.9332e-05
-0.000326692
-0.00142214
0.000113259
-0.000636717
-0.00169939
0.000224668
-0.000484208
-0.0024194
4.36127e-05
2.10257e-05
-0.00138226
-0.000344784
-0.000149277
-0.000768092
-0.000329189
-0.00016171
-0.00152455
-0.000314848
0.000171758
-0.00184547
-0.000255573
9.98173e-05
-0.00158065
-0.000146353
-0.000189075
-0.00186503
-8.50589e-05
-0.000359427
-0.00281036
-4.41822e-05
-0.000106289
-0.00367959
-3.82881e-06
-0.000209868
-0.00025709
-0.000214945
-0.000160087
-0.00164247
-0.000189459
-8.82946e-05
-0.00212859
-0.000185645
7.94597e-05
-0.00228083
-0.000117676
0.000198186
-0.00150874
-9.29533e-05
4.70078e-05
-0.000925596
-0.000129735
-9.73529e-05
-0.00134293
-0.000103132
3.15722e-06
-0.00161835
-7.39327e-05
-5.99774e-06
-0.00303262
-1.35861e-05
-0.000126893
-0.00133392
-6.23673e-05
-9.98226e-05
-0.00196969
-5.76988e-05
-3.44118e-05
-0.00209229
-5.64387e-05
2.49494e-05
-0.00152263
-5.73659e-05
0.000108463
-0.000854626
-6.93426e-05
4.99282e-05
-0.000120248
-8.37294e-05
-6.03374e-06
0.000214066
-8.79095e-05
1.18582e-06
-0.000108303
-7.30927e-05
-2.13181e-05
-0.000627008
-5.64705e-05
2.37716e-05
-0.00107819
-5.36751e-05
0.00097713
-0.00493065
0.00245641
0.000922581
-0.0054773
0.0020873
0.00137074
-0.0051496
0.00229942
0.000802536
-0.00583854
0.00214349
0.00106306
-0.00600432
0.00189728
0.000688993
-0.00620848
0.00204147
0.000850524
-0.00636025
0.00179132
0.000814457
-0.0055002
0.00174615
0.000805178
-0.00663641
0.00171709
0.000819353
-0.00658762
0.00192691
0.000637585
-0.00569441
0.00175974
0.000376549
-0.00547068
0.00162621
0.000809239
-0.00716303
0.00126696
0.000924085
-0.00691745
0.00143325
0.000412959
-0.00605692
0.00134796
0.000599891
-0.00643716
0.00117734
-0.000346526
-0.00586823
0.00109877
0.000508837
-0.00615316
0.000482442
0.000711928
-0.00704347
0.000234133
0.000663197
-0.0060428
0.000784385
0.000467708
-0.00635585
0.000580564
-0.0003137
-0.00483693
0.000448205
-0.000881466
-0.00411404
0.000517248
0.000116849
-0.00731664
2.65746e-05
0.00097137
-0.00662892
-0.000179364
0.000806855
-0.00503194
0.000198567
0.000180332
-0.00191983
0.000377758
-0.000436878
-0.000684578
0.000182909
-0.00103027
-0.00170734
0.000234934
-0.000663679
-0.00253318
0.00012785
0.000146503
-0.00517533
-0.000210335
0.000223581
-0.00475614
0.000194388
0.000287305
-0.00315142
-4.82078e-05
0.000349758
-0.00118439
-5.6534e-05
-0.000170449
-0.00128831
7.71064e-05
-0.000520663
-0.00140424
0.000149697
-0.00062456
-0.00208888
0.000159274
-0.00019876
-0.00352337
3.93964e-05
2.66084e-05
-0.00165625
-0.000350794
4.40991e-05
-0.000975997
-0.000341065
-0.00031599
-0.00129581
-0.00033023
0.000161998
-0.00196856
-0.0002743
0.000113817
-0.00158197
-0.000169882
-0.000172623
-0.00169182
-9.9929e-05
-0.00033857
-0.00261296
-4.1248e-05
-0.000213392
-0.00347457
-3.265e-05
4.08271e-05
-0.00376937
-4.31638e-05
-0.000230346
-0.000209649
-0.000205125
-0.000173007
-0.00159883
-0.000185395
-0.000100465
-0.00206462
-0.000187381
2.30835e-05
-0.00233014
-0.000134468
0.000198691
-0.00162283
-9.38077e-05
7.3803e-05
-0.000920881
-0.000121543
-9.76209e-05
-0.00128287
-9.8216e-05
-1.27036e-05
-0.00164118
-6.64122e-05
-2.86483e-05
-0.00308554
-1.36799e-05
0.000103173
-0.00313111
-2.88056e-05
-0.000134995
-0.00122036
-6.16073e-05
-0.000113175
-0.0018615
-5.73819e-05
-3.90684e-05
-0.00205449
-5.64296e-05
8.60059e-06
-0.00153097
-5.67032e-05
0.000104846
-0.000949368
-6.74698e-05
5.39232e-05
-0.000161334
-8.21797e-05
-5.27011e-06
0.000220073
-8.44667e-05
-4.69679e-06
-0.000122549
-6.89676e-05
-2.64238e-05
-0.000619594
-5.40831e-05
1.2609e-05
-0.00109192
-5.53515e-05
0.00010236
-0.00107242
-5.50201e-05
0.00104824
-0.00483981
0.0027752
0.00102018
-0.00498948
0.00243154
0.00140795
-0.00503755
0.00243063
0.000765128
-0.00540557
0.00250174
0.00130664
-0.00544706
0.00214118
0.0016661
-0.00420181
0.0018216
0.000671036
-0.00581093
0.00224206
0.000988921
-0.00606913
0.0020699
0.00143141
-0.00455819
0.00170901
0.00069731
-0.00622017
0.00203405
0.000845591
-0.00627082
0.0019258
0.000871937
-0.00592737
0.00198414
0.000247646
-0.00454345
0.00144686
0.000670225
-0.00656759
0.00169409
0.000808367
-0.00664836
0.00189355
0.000825374
-0.00603171
0.0018518
0.000580474
-0.00542472
0.00173318
6.70063e-05
-0.00533974
0.00129972
0.000679586
-0.00710735
0.001279
0.000890889
-0.00717592
0.00134646
0.000611571
-0.00597958
0.00140753
0.00062152
-0.00629775
0.00105474
-0.000159291
-0.00603721
0.00119191
-0.000689008
-0.00464568
0.000813484
0.000295995
-0.00577855
0.000539361
0.00087501
-0.00667306
0.000208394
0.00059291
-0.00603669
0.000441972
0.000392183
-0.00631667
0.000533358
-0.000238235
-0.00485376
0.000398751
-0.00116943
-0.00407485
0.000548169
-0.000658881
-0.00376835
0.000303077
-0.000152998
-0.00674361
0.000223573
0.000996168
-0.00718271
-0.000192223
0.00078716
-0.00576268
5.15178e-05
0.000466308
-0.00213747
0.000299652
-0.000222209
-0.000458621
0.000203561
-0.000959984
-0.00134028
0.00025517
-0.000853364
-0.00223582
0.000166373
-0.000247297
-0.00305876
7.27275e-05
0.000101909
-0.0052544
-0.000356239
0.000331728
-0.00531812
6.40182e-05
5.42496e-05
-0.00339141
6.41421e-05
0.000493395
-0.00150595
-5.80442e-05
-0.000168701
-0.00112442
6.20952e-05
-0.000515218
-0.00116713
0.000182596
-0.000618647
-0.00178796
0.000128858
-0.000327353
-0.00333348
8.33473e-05
0.000119726
-0.00366183
-3.17777e-06
-4.93459e-05
-0.00186813
-0.000347397
0.000178823
-0.00134026
-0.00033836
-0.00032833
-0.00108277
-0.000326244
9.18198e-05
-0.00207448
-0.000293046
0.000170831
-0.00164018
-0.000188229
-0.0001211
-0.00155614
-0.000110665
-0.000347832
-0.00241142
-5.1256e-05
-0.000236152
-0.00327227
-2.01011e-05
-3.88992e-05
-0.0037486
-4.31693e-05
0.000322209
-0.00387072
-0.000268114
-0.000246024
-0.000154788
-0.000195728
-0.000205341
-0.00153384
-0.00017795
-0.000106891
-0.00199511
-0.000187078
-2.7882e-05
-0.00234107
-0.000139965
0.000202952
-0.00175819
-9.7213e-05
9.32802e-05
-0.00094338
-0.000110666
-9.78808e-05
-0.00121574
-9.60615e-05
-3.19754e-05
-0.00165154
-6.0571e-05
-6.71568e-05
-0.00308745
-2.37698e-05
8.38057e-05
-0.00318894
-2.70504e-05
0.000226416
-0.00327562
-8.05747e-05
-0.000142411
-0.00109871
-6.11301e-05
-0.000126593
-0.00173918
-5.73355e-05
-4.33365e-05
-0.00201251
-5.60229e-05
4.26607e-06
-0.00153528
-5.63773e-05
0.000101042
-0.00104082
-6.62893e-05
5.7125e-05
-0.000205254
-8.0674e-05
-1.9437e-06
0.000220787
-8.0949e-05
-9.48064e-06
-0.000132409
-6.51262e-05
-3.27583e-05
-0.000603644
-5.21594e-05
6.96971e-06
-0.00109985
-5.31231e-05
9.40166e-05
-0.00116456
-5.72194e-05
0.000121123
-0.00194083
-3.9888e-05
0.00126112
-0.00410909
0.00351565
0.00125929
-0.00483681
0.00303226
0.000929099
-0.00472151
0.0027325
0.00145251
-0.00492373
0.0028673
0.000864627
-0.00506022
0.00276382
0.00134091
-0.00500198
0.00236171
0.00162495
-0.00387462
0.00237081
0.000749092
-0.0055004
0.00257604
0.00119714
-0.00558741
0.00243388
0.00175753
-0.00449417
0.00210741
0.00219391
-0.00375142
0.000926464
0.000678498
-0.00579385
0.00229134
0.000797292
-0.00588389
0.00210512
0.00129844
-0.00514238
0.0022276
0.000937777
-0.00392814
0.00093928
0.000667589
-0.00622439
0.00195904
0.00084824
-0.00634558
0.00206894
0.00110048
-0.00616032
0.00188364
0.000778813
-0.00485424
0.00209659
0.000778569
-0.00470051
0.000590877
0.000634572
-0.00664517
0.00172149
0.000916696
-0.00681413
0.00183404
0.000783364
-0.00619478
0.00188483
0.000724785
-0.0053684
0.00169222
7.06341e-05
-0.00527784
0.00144135
6.11975e-05
-0.00415191
0.000590958
0.000478568
-0.00705225
0.0013815
0.000933857
-0.00717118
0.00121541
0.000615475
-0.0059128
0.00125712
0.000612117
-0.00608429
0.000974138
2.78533e-05
-0.00630021
0.00105165
-0.000988562
-0.00449762
0.000862979
-0.000192645
-0.00378482
0.000349074
6.10934e-05
-0.00574487
0.00111315
0.00118826
-0.0064777
0.000151911
0.000541172
-0.00598835
0.000406035
0.000502845
-0.00633344
0.000422206
0.000163116
-0.00504824
0.000342515
-0.00116574
-0.00400719
0.000536849
-0.00088224
-0.00350839
0.000317087
-2.43713e-05
-0.00328254
0.000189973
-0.000289595
-0.00616251
0.000209414
0.000256483
-0.00701325
0.000129356
0.000861583
-0.00644106
-0.000321176
0.000731985
-0.00250802
0.000183478
0.000196889
-0.000658289
0.000133729
-0.00100189
-0.00092052
0.000270464
-0.000951499
-0.00185425
0.000206458
-0.000400407
-0.00299429
0.000174951
0.00034033
-0.0036698
4.32735e-05
-4.60546e-05
-0.00533126
-0.000231923
0.000542637
-0.00596204
-7.61392e-05
-3.55293e-06
-0.00380114
0.000148972
0.000744631
-0.00205781
-3.68085e-05
-4.16085e-05
-0.00102417
5.41429e-05
-0.000473763
-0.000984559
0.000232186
-0.000675623
-0.00152578
0.000248209
-0.000440618
-0.00309655
9.6385e-05
-4.06976e-05
-0.00358861
1.19285e-05
0.000637825
-0.00355221
-0.000296466
-9.11824e-05
-0.00205342
-0.000343625
0.000100759
-0.00165583
-0.00033793
-0.000253702
-0.000954881
-0.000319437
-5.05769e-05
-0.00207506
-0.000302965
0.000206002
-0.0017251
-0.000211176
-7.33207e-05
-0.00147793
-9.98313e-05
-0.000327676
-0.00223378
-5.85084e-05
-0.00030486
-0.00304718
-3.45779e-06
-0.000151821
-0.00366507
-1.89717e-05
0.000319825
-0.00387637
-0.000273544
0.000521493
-0.00414996
-0.000443023
-0.000251673
-0.000101514
-0.000189091
-0.000229134
-0.00145378
-0.000173251
-0.000110875
-0.00191853
-0.000186996
-3.56394e-05
-0.00234591
-0.000142337
0.00021736
-0.00192642
-8.80591e-05
0.000117025
-0.00100023
-0.000100259
-9.20311e-05
-0.0011404
-9.5913e-05
-4.32705e-05
-0.00165478
-5.90372e-05
-9.49285e-05
-0.0030606
-2.52492e-05
7.52601e-05
-0.00324337
-3.76257e-05
0.000213769
-0.00332885
-9.35736e-05
0.000327302
-0.00399327
-0.000130348
-0.000146105
-0.000972542
-6.1346e-05
-0.000138648
-0.00160404
-5.76208e-05
-4.83248e-05
-0.00196564
-5.58881e-05
4.90602e-06
-0.00154043
-5.57852e-05
9.39161e-05
-0.00112616
-6.4954e-05
6.28181e-05
-0.000255677
-7.86852e-05
1.7747e-06
0.000215693
-7.73547e-05
-1.17735e-05
-0.000140017
-6.15669e-05
-4.01864e-05
-0.00057804
-5.05436e-05
1.46141e-06
-0.00110142
-5.2053e-05
7.58623e-05
-0.00123884
-5.4706e-05
0.000118241
-0.00207266
-4.36306e-05
0.000113349
-0.0020748
-3.38742e-05
0.000827871
-0.00403593
0.00409014
0.00131026
-0.00412497
0.00357577
0.0015698
-0.00443612
0.00369089
0.000946924
-0.00476171
0.00306895
0.00130873
-0.00486195
0.0033265
0.000948733
-0.00479624
0.00306824
0.00124714
-0.00482322
0.00272575
0.000987761
-0.00435312
0.0032352
0.000810422
-0.00520843
0.00282592
0.00128987
-0.00501401
0.00268312
0.00206474
-0.00432849
0.00250837
0.00216724
-0.00387474
0.00218279
0.000624516
-0.00554631
0.00254728
0.000878588
-0.00558453
0.00249186
0.00150837
-0.0047401
0.00246988
0.00184203
-0.00398474
0.00143648
0.00254401
-0.00394949
0.000518831
0.000653595
-0.00581823
0.00235361
0.000794447
-0.00577509
0.00223634
0.00119583
-0.00538028
0.00224767
0.00158827
-0.00434537
0.00183537
0.00176055
-0.00412196
6.62402e-05
0.000626705
-0.00619288
0.00198315
0.000772934
-0.00638261
0.00213983
0.000976768
-0.00613613
0.00185134
0.000921757
-0.00529188
0.00212431
0.000609107
-0.00453544
0.00139304
0.00111208
-0.00361655
-2.54706e-05
0.000436247
-0.00664022
0.00165603
0.00081413
-0.00685076
0.00187785
0.000651007
-0.00627408
0.00187782
0.00106186
-0.00553722
0.0016039
0.000436755
-0.00543139
0.00143688
-8.99495e-05
-0.00428156
0.000672391
0.000538038
-0.00219266
-7.63427e-05
0.000286999
-0.00728174
0.00166015
0.00106079
-0.00681096
0.00114875
0.000617328
-0.00596672
0.00119317
0.000748408
-0.00591404
0.000841314
0.000425802
-0.00640093
0.000812179
-0.000909507
-0.00458875
0.000886542
-0.000393872
-0.00402053
0.000610329
0.000339431
-0.00247763
0.000117329
-0.000136091
-0.00582134
0.0013071
0.000435
-0.00606134
0.000518271
0.000753177
-0.00612397
0.00039594
0.00062496
-0.00644038
0.000620003
0.000774273
-0.005544
0.000340585
-0.00117236
-0.00405535
0.000561148
-0.000987305
-0.00336451
0.000428776
-0.000310407
-0.00333927
0.000283813
0.000545312
-0.00296888
0.000109421
-0.000345798
-0.00558829
0.000260543
0.000262977
-0.0067954
0.000271224
0.000812765
-0.00672973
-0.000398292
0.0011558
-0.0030768
-0.000163564
0.000241908
-0.000897668
0.00013934
-0.000944908
-0.000560154
0.000244508
-0.00104452
-0.00150718
0.000292284
-0.000585175
-0.00280742
0.000164148
3.56143e-05
-0.00375704
0.000185888
0.000826072
-0.00363015
-0.000297599
-0.000144963
-0.00539888
-0.00013719
0.00043001
-0.00645916
-6.40486e-05
3.31718e-05
-0.00425368
8.95244e-05
0.000513499
-0.00249891
2.60008e-05
4.89166e-05
-0.00094314
3.92459e-05
-0.000374451
-0.000782301
0.000153015
-0.000628579
-0.00124606
0.000253368
-0.000544755
-0.00280957
0.000201124
-0.000235624
-0.00345742
4.89993e-05
0.00058341
-0.0034775
-0.000326371
0.000949903
-0.00439015
-0.000620401
-0.000115024
-0.0022217
-0.000338987
3.30689e-05
-0.00192494
-0.000336715
-0.000169307
-0.00090048
-0.000333899
-0.000153969
-0.00197416
-0.00030201
0.000223645
-0.00179988
-0.000234471
3.46312e-06
-0.001441
-0.000134549
-0.000304979
-0.00209028
-3.03876e-05
-0.000273302
-0.00286153
-1.41298e-05
-0.000224854
-0.00354782
9.22285e-06
0.000265048
-0.00383479
-0.00025034
0.000498906
-0.00424796
-0.000460681
0.000548994
-0.00416063
-0.000531389
-0.000243165
-6.17048e-05
-0.000184158
-0.000236215
-0.00137765
-0.000167652
-0.000105889
-0.00184813
-0.000186085
-3.73807e-05
-0.00234142
-0.000149198
0.000217864
-0.00210303
-8.96752e-05
0.000139808
-0.0010792
-8.60875e-05
-7.18968e-05
-0.00106903
-9.79642e-05
-5.5946e-05
-0.00164541
-6.11108e-05
-0.000135422
-0.0030119
-1.25043e-05
4.06208e-05
-0.00326779
-3.99903e-05
0.000172274
-0.00337089
-9.20015e-05
0.000364686
-0.00415282
-0.00018046
0.000161078
-0.00380328
-0.000150494
-0.000147633
-0.000844442
-6.15416e-05
-0.000146457
-0.00146182
-5.7111e-05
-5.51351e-05
-0.00191212
-5.6002e-05
2.90615e-07
-0.00154118
-5.5432e-05
8.22609e-05
-0.00120093
-6.32824e-05
6.21556e-05
-0.000306605
-7.61809e-05
7.90114e-06
0.000202831
-7.37244e-05
-9.67888e-06
-0.000149514
-5.81792e-05
-4.69531e-05
-0.000543433
-4.92204e-05
-6.64841e-06
-0.00109375
-5.15664e-05
6.0434e-05
-0.00129795
-5.3378e-05
0.000103342
-0.00218791
-4.27951e-05
8.73645e-05
-0.00216883
-3.69692e-05
9.01656e-05
-0.00148973
-5.01589e-05
0.000482289
-0.00426517
0.00438531
0.00108146
-0.00402726
0.00412652
0.00120901
-0.00414287
0.00434685
0.000757771
-0.00398775
0.00366243
0.00133843
-0.00460948
0.00371943
0.000694379
-0.00467854
0.00399234
0.00087867
-0.00471991
0.00338546
0.00107929
-0.0048767
0.00325155
0.000852358
-0.0043932
0.00363246
0.000717362
-0.00479732
0.00318259
0.00105165
-0.00467368
0.00315691
0.00165719
-0.00420784
0.00298802
0.00202671
-0.00416976
0.00342001
0.0005163
-0.00520762
0.00281141
0.00102996
-0.00505278
0.0027133
0.00152443
-0.00463289
0.00297146
0.0018487
-0.00406707
0.00269403
0.00314618
-0.00487785
0.00205121
0.000586132
-0.00554176
0.00260867
0.000674601
-0.00538341
0.00246601
0.00140021
-0.00513757
0.00268495
0.00184109
-0.00390486
0.00213719
0.00225173
-0.00379466
0.000790463
0.00161824
-0.00253938
0.000513733
0.000583631
-0.00573708
0.0022767
0.000792333
-0.00583539
0.0023945
0.00115102
-0.00543111
0.00211292
0.00130091
-0.0049548
0.00247795
0.00187004
-0.00418599
0.000638463
0.00155361
-0.00300498
-0.000419795
0.000466892
-0.00628606
0.00206154
0.000829656
-0.0065162
0.00210122
0.000864838
-0.00616382
0.00195369
0.00143463
-0.00577038
0.00195708
0.00062367
-0.0041762
0.00157816
0.00110895
-0.00377588
0.000353479
0.000787493
-0.00223928
-0.000319072
0.000200793
-0.00665746
0.00172389
0.000802324
-0.00672659
0.00179033
0.000659822
-0.00630879
0.00187006
0.00125625
-0.00564878
0.00148153
0.000677032
-0.00549971
0.00142099
-0.000200019
-0.0042923
0.00073813
0.000515183
-0.00255996
0.000130633
0.000613901
-0.00134223
-0.000431581
4.88615e-05
-0.00758255
0.00175518
0.000691442
-0.00678078
0.00137352
0.000783755
-0.00599927
0.00115072
0.000765165
-0.00577731
0.000916241
0.000560769
-0.0061266
0.000780482
-0.000829156
-0.00504799
0.000928217
-0.000639737
-0.00397995
0.000498387
0.000158997
-0.00275322
0.000416516
0.000295238
-0.00187065
9.22958e-05
-0.000265737
-0.00606372
0.00149709
0.000293753
-0.00556695
0.000781929
0.000731311
-0.00602809
0.000503846
0.000702046
-0.00636093
0.000770239
0.000891218
-0.00617283
0.00059952
-0.000954933
-0.00427469
0.000569957
-0.00111206
-0.00324036
0.000504539
-0.000507571
-0.00318882
0.000200726
0.000461903
-0.00351236
0.000401007
0.00101141
-0.00363931
-7.8187e-05
-0.000316189
-0.00507438
0.000342901
0.000195446
-0.0064104
0.000110108
0.000700695
-0.00712811
2.08315e-06
0.00107564
-0.00369462
-0.000342604
0.00020779
-0.00140977
0.000189661
-0.000679841
-0.000350233
0.00023481
-0.00108357
-0.00114016
0.000332477
-0.000801332
-0.00251701
0.000258452
-0.000259638
-0.00373643
0.000167545
0.000787076
-0.00362919
-1.87316e-05
0.00119058
-0.00467488
-0.000542136
-0.000248065
-0.00529529
-0.00012086
0.000226165
-0.00664232
-0.000147128
8.99705e-05
-0.00452358
-5.34303e-05
0.000206555
-0.00277839
8.47589e-06
7.38293e-05
-0.000797746
3.04221e-05
-0.00025515
-0.000663788
0.000179345
-0.00059525
-0.0010371
0.000234323
-0.000540323
-0.00243876
0.000149581
-0.000345344
-0.00319303
5.72156e-05
0.000420778
-0.00338292
-0.000201309
0.00099705
-0.00456183
-0.000652839
0.000884281
-0.00520406
-0.000735867
-0.000130031
-0.00235541
-0.000342276
3.54219e-05
-0.00219837
-0.000337195
-1.91011e-05
-0.00097002
-0.000353963
-0.000184638
-0.00185363
-0.000307173
0.000244616
-0.00188088
-0.000247766
5.5598e-05
-0.00144455
-0.000146708
-0.000251252
-0.00197702
-6.84558e-05
-0.000303208
-0.00263596
-8.69999e-06
-0.000297005
-0.00341604
1.56699e-05
0.000187144
-0.00375653
-0.000215556
0.000456981
-0.00429184
-0.000491175
0.000620245
-0.00431236
-0.000564504
0.000214243
-0.00399205
-0.000486923
-0.000242937
-2.76761e-05
-0.000181216
-0.000224758
-0.00132387
-0.000159636
-0.000116797
-0.00177384
-0.000180278
-2.95092e-05
-0.00234421
-0.00015349
0.000187983
-0.00225742
-0.000100523
0.000133334
-0.00116044
-7.96081e-05
-5.37879e-05
-0.000996977
-9.64468e-05
-4.31922e-05
-0.00164424
-6.56144e-05
-0.000169859
-0.00294247
-7.62913e-06
7.01231e-06
-0.0032643
-2.96577e-05
0.000127525
-0.00337791
-0.000100059
0.000280628
-0.00428073
-0.000141382
7.0446e-05
-0.00377116
-0.000195662
0.000226754
-0.00254125
-0.000183278
-0.000153814
-0.000709398
-6.07522e-05
-0.000152031
-0.00131414
-5.71949e-05
-7.00952e-05
-0.00184379
-5.53438e-05
-5.89571e-07
-0.00154141
-5.51805e-05
7.06393e-05
-0.00126545
-6.15451e-05
6.20505e-05
-0.000358827
-7.31113e-05
2.31052e-05
0.000173733
-7.01886e-05
-7.56965e-06
-0.000160709
-5.49592e-05
-5.32658e-05
-0.000500122
-4.82252e-05
-1.52714e-05
-0.00107616
-5.15291e-05
4.77622e-05
-0.00134456
-5.27226e-05
8.11086e-05
-0.00228137
-4.10265e-05
9.55916e-05
-0.00227082
-3.63919e-05
9.06079e-05
-0.00156312
-5.41868e-05
0.000125878
-0.0012919
-6.3163e-05
0.000284756
-0.00427921
0.00447636
0.000824992
-0.00416211
0.00429459
0.000959148
-0.00439707
0.00463401
0.000492843
-0.00405215
0.00416477
0.00125134
-0.00417482
0.00424557
0.0008973
-0.00433237
0.00429597
0.000799221
-0.00408754
0.00408261
0.00104478
-0.00464325
0.00373072
0.000699732
-0.0047593
0.00395282
0.00164955
-0.0048077
0.00435553
0.000645182
-0.0047426
0.00356555
0.000658439
-0.0047545
0.00365647
0.00084757
-0.00408092
0.00374889
0.0013768
-0.00439593
0.00389863
0.000432451
-0.00478123
0.00315767
0.00105574
-0.00469812
0.00318125
0.0014787
-0.00438355
0.00337836
0.00145955
-0.00431393
0.00352134
0.00320458
-0.00413484
0.0034645
0.000488111
-0.00510387
0.00279457
0.000813103
-0.00513488
0.00275501
0.00159266
-0.00506833
0.00295629
0.00150853
-0.00388494
0.00312188
0.00238802
-0.0045749
0.0022548
0.00159754
-0.00433864
0.00213611
0.00048427
-0.00550058
0.00256067
0.000916462
-0.00539397
0.0024951
0.0013795
-0.00544664
0.0025466
0.00143384
-0.00426351
0.00291068
0.00242931
-0.00395549
0.00173874
0.00209667
-0.00285458
0.00056261
-0.000111928
-0.00202884
0.000779405
0.00051291
-0.0056977
0.00232904
0.0008009
-0.00589956
0.00236963
0.00107119
-0.00543728
0.00219433
0.0015292
-0.00538611
0.00244966
0.00133524
-0.00381769
0.00139807
0.00166996
-0.00274846
-0.000179069
0.000416583
-0.00107821
-0.00054532
0.000278816
-0.00640522
0.00208634
0.000724086
-0.00647273
0.0020963
0.000703535
-0.00622865
0.00212233
0.00147991
-0.00590599
0.00186564
0.000974077
-0.00439713
0.00188097
0.000782616
-0.00363697
0.00045661
0.000952304
-0.00207529
-0.00024763
0.000320212
-0.00199304
-0.00048875
0.000134446
-0.00683
0.00173909
0.000526828
-0.00661181
0.00177372
0.000807449
-0.00638863
0.00184648
0.00122246
-0.00565431
0.0014183
0.000836322
-0.0056897
0.00139597
-0.000255401
-0.00431747
0.000872415
0.000332732
-0.00294089
0.000146592
0.000511396
-0.00131598
-0.000248015
-0.000321894
-0.00181472
-0.000155952
-0.000181516
-0.0077243
0.00172837
0.000552617
-0.00683089
0.00154643
0.000774548
-0.00594891
0.00127992
0.000739643
-0.00577805
0.00111386
0.000884864
-0.00609539
0.000891388
-0.000624139
-0.00553155
0.000933243
-0.000836504
-0.00386206
0.000534773
-5.94146e-05
-0.00309444
0.000391456
0.000593903
-0.00179112
0.00020499
0.00117462
-0.00331141
9.09822e-06
-0.000262885
-0.00630271
0.00140787
0.000175759
-0.00522645
0.00117628
0.000774593
-0.00595672
0.000636656
0.000698754
-0.00629598
0.000815777
0.00076492
-0.0066839
0.000724181
-0.000497773
-0.00444121
0.000583964
-0.00120754
-0.00314413
0.0005977
-0.000881983
-0.00307137
0.000467739
0.000139579
-0.00395033
0.000239478
0.000943796
-0.003472
7.69755e-05
0.00137557
-0.00448944
-0.000291151
-0.000368394
-0.00484155
0.000391363
6.37308e-05
-0.0060313
0.000126231
0.000490783
-0.00752432
0.0001055
0.000825086
-0.00426465
-4.64163e-05
0.000202487
-0.0020896
0.000208573
-0.000481429
-0.000141972
0.000207678
-0.00113073
-0.000767622
0.000397758
-0.000949813
-0.0021532
0.000378161
-0.000408094
-0.00354794
0.00013271
0.000616093
-0.00354331
-0.000113652
0.00131184
-0.00463018
-0.000378228
0.00112399
-0.00581401
-0.000439477
-0.000343681
-0.00495759
-0.000156204
0.000106082
-0.00649397
-0.000339872
0.000289315
-0.00483849
-0.000140626
7.30716e-05
-0.00300161
-8.79184e-05
0.000365668
-0.000933132
2.28104e-05
-0.000181718
-0.000592266
0.000196217
-0.000540681
-0.000920345
0.000352022
-0.000573984
-0.00212907
0.000195412
-0.000449107
-0.00294163
5.02828e-05
0.000355428
-0.00321009
-0.000283898
0.000869874
-0.00460795
-0.000568085
0.000803754
-0.00531761
-0.000722799
0.000405634
-0.0057
-0.000766756
-0.00018443