/*--------------------------------*- C++ -*----------------------------------*\
  =========                 |
  \\      /  F ield         | OpenFOAM: The Open Source CFD Toolbox
   \\    /   O peration     | Website:  https://openfoam.org
    \\  /    A nd           | Version:  7
     \\/     M anipulation  |
\*---------------------------------------------------------------------------*/
FoamFile
{
    version     2.0;
    format      ascii;
    class       volScalarField;
    location    "10";
    object      p;
}
// * * * * * * * * * * * * * * * * * * * * * * * * * * * * * * * * * * * * * //

dimensions      [0 2 -2 0 0 0 0];

internalField   nonuniform List<scalar> 
18750
(
-83.8199
-81.3404
-83.7721
-83.9802
-77.7677
-83.387
-81.6082
-86.2306
-83.9398
-84.2017
-80.7323
-68.6196
-78.9673
-86.0391
-83.4978
-81.9603
-85.9723
-86.27
-84.2003
-84.4559
-79.5754
-80.5603
-82.3164
-84.3103
-56.4585
-80.7619
-85.072
-85.9865
-83.8341
-82.333
-86.17
-86.0084
-86.3047
-84.532
-84.7201
-77.3432
-79.2903
-81.0326
-82.4501
-81.7133
-84.1038
-82.4804
-84.8556
-69.8257
-82.9426
-85.1423
-85.1412
-85.9402
-84.2094
-82.7189
-86.7116
-86.2145
-86.0412
-86.3412
-84.9366
-84.9617
-75.2461
-77.5887
-77.6181
-80.6822
-80.4243
-82.1799
-83.7411
-83.4148
-83.5625
-86.3924
-82.6879
-82.6759
-85.1297
-74.4181
-85.1608
-85.8491
-85.1875
-85.2096
-85.8887
-84.5963
-83.1244
-87.6431
-86.766
-86.2526
-86.0729
-86.3805
-85.382
-85.1601
-74.1701
-75.5985
-75.1114
-78.9581
-77.9189
-77.9658
-81.9311
-81.8002
-81.6237
-82.0145
-83.8118
-84.5819
-84.847
-85.527
-88.9287
-83.6022
-82.8787
-83.0387
-85.3942
-81.0726
-86.9189
-86.2825
-85.8663
-85.2697
-85.2513
-85.8501
-84.8012
-83.4845
-88.0425
-87.6552
-86.8221
-86.2832
-86.1039
-86.3898
-85.8189
-85.3643
-73.3294
-74.6784
-74.2886
-76.6539
-75.8974
-75.0096
-79.6704
-79.1657
-78.0233
-78.2478
-82.959
-82.6979
-82.6392
-83.0109
-83.2247
-83.8488
-84.2205
-85.3725
-86.556
-87.457
-90.5774
-84.2518
-83.5683
-82.9577
-83.4317
-85.889
-85.2672
-87.8006
-86.7544
-86.2899
-85.9027
-85.3875
-85.317
-85.8284
-84.8328
-83.7106
-88.6135
-88.0407
-87.6821
-86.8863
-86.3084
-86.1334
-86.3718
-86.2026
-85.5409
-72.2996
-73.666
-73.3079
-75.4906
-74.8832
-74.3191
-77.2947
-76.642
-76.0135
-75.4855
-80.1616
-79.9115
-79.6481
-78.1952
-77.3435
-83.6793
-83.358
-83.2592
-83.5877
-84.0221
-85.4597
-82.7461
-83.7287
-84.5946
-86.1161
-88.1773
-89.5501
-92.3481
-85.1982
-84.3216
-83.7419
-83.2945
-83.8204
-86.155
-86.5219
-88.0351
-87.379
-86.7333
-86.2985
-85.9797
-85.4999
-85.4015
-85.8042
-84.8722
-83.9099
-89.0062
-88.5728
-88.0506
-87.7151
-86.9426
-86.3286
-86.1631
-86.3675
-86.503
-85.6055
-71.621
-72.2512
-72.2214
-73.8298
-73.3827
-73.5022
-75.8821
-75.4391
-75.6587
-74.5788
-77.3224
-77.169
-77.3497
-76.2341
-75.7219
-81.0099
-80.3614
-80.529
-80.0332
-78.3567
-77.4997
-83.6939
-84.0828
-83.6063
-83.624
-84.7494
-85.0636
-86.8369
-82.5539
-82.7944
-83.7311
-84.9855
-86.9284
-89.6997
-91.5063
-93.6665
-85.8439
-85.1589
-84.3881
-83.9647
-83.5979
-84.1332
-86.2068
-87.2266
-88.0795
-88.0815
-87.361
-86.7322
-86.3217
-85.9749
-85.6187
-85.5001
-85.785
-84.9878
-84.1293
-89.6473
-89.0063
-88.5537
-88.0716
-87.7496
-87.007
-86.3481
-86.1941
-86.372
-86.6984
-85.5997
-71.7338
-71.601
-72.447
-72.3168
-72.0959
-74.0727
-73.7279
-73.3834
-73.2787
-76.0636
-75.8433
-75.5876
-75.6053
-74.9957
-78.1621
-77.6371
-77.4858
-77.5889
-76.5791
-76.0019
-81.7937
-80.9695
-80.5687
-80.853
-80.3094
-78.8607
-77.9204
-82.5165
-83.4631
-84.2931
-83.8108
-84.0743
-86.0446
-86.3736
-87.0083
-83.345
-82.4538
-82.8376
-83.9147
-85.3653
-87.7121
-91.0007
-92.7901
-93.8153
-86.4861
-85.73
-85.1416
-84.5004
-84.1989
-83.9133
-84.4141
-86.399
-87.9125
-87.4109
-88.9627
-87.9761
-87.3629
-86.7562
-86.3778
-85.9832
-85.7399
-85.6088
-85.7797
-85.2451
-84.3585
-89.827
-89.6375
-89.0206
-88.5828
-88.0891
-87.7884
-87.0923
-86.3832
-86.226
-86.3689
-86.7952
-85.6389
-71.1286
-71.6959
-71.7391
-71.5155
-72.8341
-72.4631
-71.8288
-72.1085
-74.4171
-74.0552
-73.4042
-73.6578
-73.3028
-76.2553
-76.0422
-75.5039
-75.5004
-75.2917
-75.0795
-78.6276
-78.3315
-77.6009
-77.8644
-77.7843
-77.3078
-76.8637
-81.5524
-81.5595
-80.9565
-80.7819
-81.0325
-81.0247
-79.2782
-78.3426
-82.5653
-82.5942
-83.5207
-84.4521
-84.0644
-84.9529
-87.1268
-87.3021
-86.5722
-84.1833
-83.2726
-82.5
-82.8577
-84.0568
-85.576
-88.4597
-91.8037
-93.0916
-93.055
-87.2436
-86.3211
-85.5916
-85.1497
-84.6378
-84.4261
-84.2338
-84.7219
-86.5844
-88.1577
-86.1916
-89.3899
-88.9014
-87.8963
-87.366
-86.7918
-86.4492
-86.0634
-85.8583
-85.7173
-85.7981
-85.6054
-84.5804
-89.8688
-89.8344
-89.6262
-89.0258
-88.6236
-88.1076
-87.8298
-87.1884
-86.4348
-86.2626
-86.3675
-86.8184
-85.764
-70.8684
-71.1594
-71.0727
-71.8375
-71.643
-71.6982
-71.4626
-72.9627
-72.6825
-72.3712
-71.7712
-72.0223
-74.7283
-74.1852
-74.0936
-73.3933
-73.9898
-73.2718
-76.4432
-76.2115
-76.1674
-75.7179
-75.5573
-75.1311
-75.1301
-79.0474
-78.7247
-78.407
-77.9213
-78.1874
-78.2411
-77.8877
-77.7067
-81.5218
-81.4958
-81.3194
-81.037
-81.1428
-81.6268
-81.7311
-79.724
-78.0722
-82.6405
-82.4178
-82.6148
-83.5036
-84.5282
-84.4889
-85.5781
-87.8856
-87.6493
-86.4496
-84.8081
-84.141
-83.3043
-82.6036
-82.8911
-84.1685
-85.7872
-89.0605
-92.0378
-92.8038
-91.0827
-88.2069
-87.1286
-86.2567
-85.552
-85.1779
-84.782
-84.6784
-84.534
-85.0296
-86.5352
-87.8624
-85.1069
-89.2552
-89.3514
-88.8413
-87.8487
-87.3527
-86.8333
-86.538
-86.1168
-85.9738
-85.8206
-85.8414
-85.8432
-84.8881
-90.1645
-89.8679
-89.8386
-89.6168
-89.034
-88.649
-88.1257
-87.8538
-87.29
-86.4779
-86.2973
-86.3736
-86.7891
-85.8197
-70.465
-70.8074
-70.8026
-71.1333
-71.193
-71.0461
-72.0309
-71.8493
-71.5908
-71.5815
-71.5549
-73.1068
-72.9309
-72.5279
-72.3849
-71.9017
-72.183
-74.8362
-74.6036
-74.1967
-73.7947
-73.1552
-73.7071
-73.4661
-76.6144
-76.6778
-76.3082
-76.0062
-75.9226
-75.4265
-75.4418
-75.2376
-79.1911
-78.9561
-78.7504
-78.4688
-78.413
-78.6942
-78.9176
-78.3655
-77.7834
-81.8915
-81.3136
-81.4808
-81.0585
-81.1746
-81.567
-82.2284
-82.4886
-80.5427
-77.2058
-82.6498
-82.6095
-82.2809
-82.4598
-83.4506
-84.6033
-84.87
-86.1187
-88.4791
-87.7597
-84.0317
-85.4994
-84.7378
-84.0508
-83.2971
-82.7241
-82.9616
-84.3372
-85.9995
-89.3957
-91.8216
-92.2355
-88.5659
-88.392
-88.0574
-87.0465
-86.2218
-85.642
-85.233
-84.9612
-84.9164
-84.7955
-85.3256
-86.3784
-87.3635
-84.5388
-89.3542
-89.1982
-89.3188
-88.7879
-87.8222
-87.3577
-86.8816
-86.655
-86.207
-86.0746
-85.9178
-85.8967
-85.9717
-85.338
-90.4133
-90.174
-89.8663
-89.8381
-89.6182
-89.0553
-88.6768
-88.1503
-87.8895
-87.3886
-86.53
-86.3458
-86.3881
-86.7805
-85.8164
-70.4289
-70.4392
-70.8579
-70.7921
-70.7648
-71.2052
-71.1141
-71.1485
-71.0897
-72.2125
-71.9495
-71.8017
-71.6382
-71.6828
-71.6738
-73.4008
-73.0167
-72.6414
-72.4768
-72.464
-71.9931
-71.9592
-75.0372
-74.874
-74.484
-74.255
-73.8251
-73.1255
-73.3889
-73.544
-76.9873
-76.7346
-76.6632
-76.3465
-76.0994
-75.7679
-75.3631
-75.9853
-75.5453
-79.7712
-79.2027
-79.0274
-78.7283
-78.478
-78.438
-79.1192
-78.9608
-79.0894
-77.4122
-82.1701
-81.6835
-81.2502
-81.1344
-81.0448
-81.6293
-82.0329
-82.8797
-83.3663
-81.4716
-77.0504
-82.8178
-82.6883
-82.5536
-82.0933
-82.2607
-83.4979
-84.6198
-85.192
-86.922
-88.5871
-87.9953
-80.6785
-86.1321
-85.3461
-84.6637
-84.0014
-83.3803
-82.9748
-83.1237
-84.484
-86.1567
-89.5178
-91.2708
-91.0088
-87.2434
-88.24
-88.1434
-87.931
-86.9541
-86.1897
-85.6444
-85.3052
-85.1484
-85.15
-85.0071
-85.5565
-86.2613
-86.9034
-84.3364
-89.2422
-89.3307
-89.1578
-89.2826
-88.7371
-87.8019
-87.4016
-86.9391
-86.7656
-86.3413
-86.186
-86.0167
-85.9278
-86.0651
-85.6572
-90.0702
-90.4325
-90.187
-89.8679
-89.8389
-89.6253
-89.0821
-88.7077
-88.1873
-87.934
-87.444
-86.5651
-86.3907
-86.4065
-86.8538
-85.9203
-69.976
-70.4445
-70.3582
-70.4116
-70.8192
-70.7044
-70.8114
-70.7429
-71.3225
-71.173
-71.214
-71.0861
-71.128
-72.329
-72.1492
-71.9535
-71.7793
-71.6713
-71.7883
-71.6331
-73.5478
-73.2326
-72.8839
-72.6784
-72.5316
-72.4234
-72.1584
-72.16
-75.166
-75.1442
-74.8983
-74.3942
-73.9483
-73.7792
-73.5048
-73.2173
-73.5768
-77.3941
-76.9488
-76.7623
-76.6321
-76.3669
-76.1772
-75.9737
-75.4801
-75.3503
-75.5772
-79.8225
-79.6809
-79.2955
-78.8056
-78.8454
-78.791
-78.8259
-79.401
-78.9818
-79.7999
-77.187
-82.1742
-82.2624
-81.7184
-81.1292
-80.8832
-81.1181
-81.7729
-82.3766
-83.6114
-83.8985
-82.0627
-77.7579
-83.7555
-82.8128
-82.6692
-82.5473
-82.0401
-82.3373
-83.5228
-84.584
-85.6337
-87.6893
-88.7165
-87.0363
-80.57
-86.1702
-85.9606
-85.2106
-84.6008
-83.9506
-83.4944
-83.2117
-83.3674
-84.6632
-86.2894
-89.5933
-90.4022
-89.6797
-86.3835
-88.0012
-87.9868
-87.9412
-87.8307
-86.9138
-86.1929
-85.693
-85.3932
-85.3303
-85.3612
-85.1769
-85.7174
-86.0544
-86.4746
-84.1969
-89.0652
-89.1773
-89.3076
-89.133
-89.2553
-88.6993
-87.8184
-87.4355
-87.0261
-86.8805
-86.4403
-86.3084
-86.098
-85.9593
-86.132
-85.8059
-90.0259
-90.0624
-90.4417
-90.2021
-89.8738
-89.8405
-89.6348
-89.1018
-88.732
-88.2484
-87.9883
-87.4931
-86.6258
-86.4407
-86.4245
-86.9611
-86.1703
-69.7988
-70.0456
-69.9519
-70.425
-70.3966
-70.3644
-70.3707
-70.8683
-70.7847
-70.7537
-70.7687
-70.7546
-71.4124
-71.3237
-71.2187
-71.184
-71.1817
-71.163
-72.4767
-72.2749
-72.1145
-71.9509
-71.8225
-71.7553
-71.8292
-71.7261
-73.7907
-73.4921
-73.3151
-72.853
-72.5894
-72.598
-72.5258
-72.2427
-72.3505
-75.3726
-75.2988
-75.119
-74.8165
-74.3278
-74.0534
-73.8047
-73.5346
-73.1858
-73.6107
-77.58
-77.2307
-76.9823
-76.7338
-76.5994
-76.1617
-76.0835
-75.8177
-75.0546
-75.0768
-75.6549
-80.0686
-80.0086
-79.5558
-79.3972
-78.8361
-78.8897
-79.1937
-79.2999
-79.5399
-79.2385
-78.5767
-77.1725
-82.4687
-82.0814
-82.2499
-81.5436
-80.9469
-80.838
-81.4534
-81.952
-82.7868
-84.3157
-83.9558
-82.4303
-77.8135
-84.1619
-83.651
-82.7381
-82.6657
-82.481
-81.9574
-82.3242
-83.577
-84.6714
-86.0655
-88.2075
-88.0179
-86.1031
-80.3799
-86.052
-86.2603
-85.7818
-85.0894
-84.5388
-83.9428
-83.6203
-83.4089
-83.666
-84.8793
-86.4063
-89.3449
-89.5338
-88.3268
-85.3568
-87.5953
-87.786
-87.8362
-87.8013
-87.7539
-86.9187
-86.2323
-85.7952
-85.5259
-85.5395
-85.5662
-85.3271
-85.7589
-85.8008
-86.071
-84.0556
-88.7832
-88.9573
-89.1355
-89.3002
-89.1068
-89.2457
-88.6848
-87.8671
-87.4915
-87.1091
-87.0009
-86.5369
-86.4307
-86.1902
-86.0105
-86.1953
-86.097
-89.3855
-89.9891
-90.0472
-90.4521
-90.2207
-89.8817
-89.8418
-89.6499
-89.1234
-88.7505
-88.3383
-88.043
-87.5645
-86.6814
-86.5008
-86.4426
-87.0395
-86.3977
-69.4719
-69.8038
-69.7871
-70.0335
-70.0452
-69.967
-70.4268
-70.3873
-70.4135
-70.3159
-70.3926
-70.9354
-70.8627
-70.8062
-70.7545
-70.7885
-70.7523
-71.5173
-71.4514
-71.3543
-71.2273
-71.1835
-71.2112
-71.2172
-72.7394
-72.5299
-72.3198
-72.0694
-71.938
-71.8263
-71.7783
-71.8129
-71.7939
-73.8169
-73.7291
-73.4886
-73.2421
-72.9542
-72.7353
-72.5957
-72.5104
-72.3337
-72.431
-75.7054
-75.4888
-75.3018
-74.9577
-74.6184
-74.2415
-74.1587
-73.7149
-73.4537
-73.0139
-73.5269
-77.9416
-77.5052
-77.2318
-77.0591
-76.8661
-76.6652
-76.3461
-76.1606
-75.526
-74.9571
-74.5427
-75.9891
-80.7278
-80.2341
-80.0513
-79.5028
-79.2895
-78.8843
-79.1132
-79.1852
-79.2443
-79.4802
-78.4249
-78.5523
-76.9484
-82.9128
-82.5031
-82.1454
-82.137
-81.4094
-80.9375
-80.8503
-81.574
-82.3264
-83.3303
-85.0248
-83.6145
-81.9477
-78.2813
-83.8242
-84.0824
-83.6678
-82.7511
-82.6181
-82.365
-81.8827
-82.3505
-83.6344
-84.9851
-86.5586
-88.4392
-86.8128
-85.344
-80.2212
-85.7053
-85.8628
-86.1024
-85.687
-84.942
-84.4551
-83.9333
-83.7984
-83.71
-83.9592
-85.0854
-86.4595
-88.918
-88.268
-87.0558
-84.77
-87.0248
-87.5461
-87.6091
-87.6464
-87.6877
-87.7199
-86.9192
-86.2657
-85.896
-85.6364
-85.7648
-85.7706
-85.4384
-85.7419
-85.6472
-85.7423
-84.1281
-88.9629
-88.7527
-88.8589
-89.111
-89.3209
-89.0702
-89.2577
-88.6983
-87.9046
-87.5805
-87.1811
-87.1183
-86.6374
-86.5362
-86.3104
-86.0695
-86.2739
-86.4012
-89.2618
-89.347
-89.947
-90.0627
-90.4701
-90.2378
-89.8895
-89.8432
-89.6663
-89.1473
-88.7738
-88.4295
-88.0948
-87.6349
-86.7365
-86.5545
-86.4679
-87.1245
-86.5356
-69.2396
-69.4899
-69.5133
-69.7909
-69.7834
-69.7456
-70.0238
-70.0271
-70.0585
-69.9352
-70.5026
-70.4276
-70.3779
-70.3745
-70.3151
-70.3937
-71.0338
-70.9627
-70.8204
-70.8066
-70.7555
-70.7976
-70.8065
-71.6188
-71.5663
-71.3544
-71.3625
-71.2421
-71.2182
-71.2425
-71.2356
-72.666
-72.6284
-72.508
-72.2446
-72.112
-71.9419
-71.8305
-71.9079
-71.7759
-71.8617
-74.0629
-73.9128
-73.7972
-73.5045
-73.2917
-72.9526
-72.8002
-72.6087
-72.4825
-72.3821
-72.4219
-76.1606
-75.5965
-75.3826
-75.0643
-74.7947
-74.5084
-74.2533
-74.1475
-73.6541
-73.239
-72.7179
-73.5022
-78.2194
-78.0842
-77.3398
-77.4158
-77.1507
-76.8897
-76.4117
-76.3469
-75.9575
-75.5121
-74.975
-74.2324
-76.1736
-81.2851
-80.7851
-80.1194
-79.9568
-79.4278
-79.2524
-78.828
-79.2855
-79.3631
-79.5973
-79.6143
-77.9322
-78.6369
-77.0539
-83.0223
-83.0119
-82.5095
-82.0453
-82.0584
-81.4029
-81.1527
-81.0784
-81.685
-82.6841
-83.8998
-85.0646
-82.8171
-81.8005
-78.2028
-83.6587
-83.9645
-83.8876
-83.4882
-82.7054
-82.5805
-82.2413
-81.8607
-82.5067
-83.6854
-85.3267
-86.8611
-88.0782
-85.8585
-84.39
-80.2053
-85.25
-85.6799
-85.7651
-85.7741
-85.5087
-84.8168
-84.4268
-83.9326
-83.9091
-84.0731
-84.3554
-85.2935
-86.4468
-88.3254
-86.5678
-85.5215
-84.383
-87.3517
-86.9209
-87.3997
-87.474
-87.5239
-87.591
-87.6831
-86.9416
-86.4157
-86.0027
-85.8256
-85.9625
-85.9752
-85.5281
-85.7119
-85.6331
-85.2945
-84.2527
-88.8467
-88.9221
-88.735
-88.7926
-89.0972
-89.3551
-89.0574
-89.3063
-88.7246
-87.9664
-87.6262
-87.2697
-87.2353
-86.74
-86.6236
-86.4354
-86.1426
-86.3959
-86.616
-88.8959
-89.2153
-89.3117
-89.9255
-90.0779
-90.4926
-90.2535
-89.8961
-89.8455
-89.6813
-89.1736
-88.8033
-88.4739
-88.1529
-87.6779
-86.789
-86.593
-86.5028
-87.1908
-86.6784
-69.1318
-69.2706
-69.2498
-69.5416
-69.5082
-69.4917
-69.7871
-69.7501
-69.7906
-69.6574
-70.0363
-70.0002
-70.0554
-70.0252
-70.027
-70.5265
-70.4731
-70.4143
-70.3769
-70.4067
-70.3358
-70.3801
-71.099
-71.0004
-70.9406
-70.8563
-70.8387
-70.7545
-70.7994
-70.8405
-71.7775
-71.72
-71.5967
-71.4002
-71.2851
-71.2451
-71.2527
-71.2521
-71.2634
-72.8051
-72.7063
-72.6
-72.4075
-72.3035
-72.0831
-72.0109
-71.8295
-71.9425
-71.817
-71.8745
-74.2457
-74.0994
-73.8014
-73.8084
-73.5156
-73.2012
-72.9814
-72.7992
-72.6414
-72.4143
-72.3128
-72.4274
-76.1287
-75.8472
-75.6759
-75.2776
-75.1341
-74.906
-74.7105
-74.2939
-74.1348
-73.6311
-73.0631
-72.5832
-73.5647
-78.7165
-78.3294
-77.8301
-77.3142
-77.5227
-77.1074
-76.7434
-76.4123
-76.0806
-75.9183
-75.2541
-74.7788
-74.5641
-75.9907
-81.1473
-81.5002
-80.8136
-80.2275
-79.8652
-79.5623
-79.1549
-79.2554
-79.3144
-79.4516
-79.5275
-79.8026
-78.0292
-78.804
-76.9524
-82.8047
-83.2687
-83.2387
-82.3865
-82.1727
-81.975
-81.1996
-81.0292
-81.2324
-81.8706
-83.0295
-84.2572
-85.1787
-82.0896
-81.5751
-78.0935
-83.4942
-83.5639
-84.0934
-84.207
-83.2911
-82.605
-82.6138
-82.1636
-81.7649
-82.5415
-83.8647
-85.5956
-86.8087
-87.4478
-84.9246
-83.6414
-80.1462
-85.1709
-85.2643
-85.6501
-85.6587
-85.6144
-85.3569
-84.6895
-84.4151
-84.0387
-84.0295
-84.3202
-84.7493
-85.4944
-86.4132
-87.4796
-85.1291
-84.1188
-83.982
-87.3284
-87.2421
-86.8813
-87.0514
-87.3178
-87.4833
-87.505
-87.667
-87.0389
-86.6221
-86.1464
-86.0544
-86.1397
-86.1847
-85.6173
-85.6732
-85.6488
-84.7539
-84.3575
-88.4134
-88.7521
-88.8814
-88.72
-88.7285
-89.096
-89.4089
-89.0714
-89.3918
-88.7669
-88.0603
-87.691
-87.3682
-87.3479
-86.8518
-86.7071
-86.5602
-86.2215
-86.5644
-86.7894
-88.1523
-88.8696
-89.1778
-89.2756
-89.9
-90.0853
-90.5197
-90.2698
-89.9014
-89.8462
-89.6992
-89.2029
-88.8384
-88.4932
-88.2081
-87.6964
-86.8476
-86.6301
-86.5437
-87.2423
-86.8192
-68.9881
-69.1659
-69.134
-69.3073
-69.2494
-69.279
-69.5262
-69.5243
-69.4646
-69.4058
-69.7653
-69.7668
-69.7488
-69.7741
-69.7803
-70.0671
-70.1031
-69.9991
-70.0222
-70.0173
-69.9808
-70.6322
-70.5343
-70.4923
-70.4232
-70.4187
-70.385
-70.3732
-70.4113
-71.1641
-71.0557
-70.9988
-70.8858
-70.8342
-70.8297
-70.7467
-70.8402
-70.8424
-71.8864
-71.7674
-71.7038
-71.535
-71.4704
-71.3315
-71.2428
-71.294
-71.2819
-71.2648
-73.0535
-72.8353
-72.7091
-72.6319
-72.4933
-72.3106
-72.0361
-71.9458
-71.8716
-71.8834
-71.858
-71.8588
-74.3615
-74.0706
-74.0797
-73.8039
-73.719
-73.4943
-73.2021
-72.936
-72.8089
-72.6213
-72.3682
-72.2399
-72.5113
-76.3097
-76.0833
-75.7486
-75.5179
-75.3728
-75.004
-74.8742
-74.6179
-74.2042
-74.0644
-73.3323
-73.0455
-72.8091
-73.5933
-78.7266
-78.7002
-78.3351
-77.9997
-77.418
-77.2189
-77.074
-76.782
-76.3526
-76.0187
-75.8364
-75.1876
-74.6803
-74.9785
-75.6947
-81.0397
-81.4536
-81.5463
-81.0316
-80.2298
-79.7545
-79.5954
-79.0531
-79.3741
-79.3771
-79.2028
-79.2213
-79.3235
-78.3948
-78.7037
-76.9054
-82.4377
-83.089
-83.5839
-83.3796
-82.5303
-82.1338
-81.603
-80.8516
-80.7519
-81.3079
-81.9792
-83.0218
-84.3612
-84.556
-81.83
-81.08
-78.056
-82.9243
-83.7375
-83.8262
-84.2019
-84.0068
-83.1003
-82.6831
-82.6995
-82.1286
-81.7254
-82.5529
-84.1502
-85.8079
-86.5792
-86.675
-83.8962
-82.7818
-80.0431
-85.5042
-85.0255
-85.5113
-85.4617
-85.5362
-85.4601
-85.2351
-84.496
-84.3863
-84.1474
-84.2516
-84.5651
-85.0673
-85.677
-86.2815
-86.5247
-84.233
-83.0705
-83.2209
-87.0941
-87.3104
-87.0862
-86.9314
-86.8924
-87.1704
-87.4276
-87.456
-87.7105
-87.1028
-86.7737
-86.3078
-86.1826
-86.309
-86.3675
-85.7024
-85.6402
-85.7368
-84.2135
-84.4415
-87.9459
-88.4043
-88.6517
-88.8413
-88.7111
-88.6503
-89.1264
-89.4795
-89.1301
-89.4664
-88.8387
-88.1689
-87.7989
-87.463
-87.4617
-86.9737
-86.7868
-86.6722
-86.3091
-86.7706
-86.9414
-87.3769
-88.1081
-88.8476
-89.1413
-89.244
-89.864
-90.0941
-90.5453
-90.2852
-89.9065
-89.8457
-89.7201
-89.2386
-88.8725
-88.5149
-88.2617
-87.7223
-86.9033
-86.6462
-86.5915
-87.3111
-86.8926
-68.8622
-69.0087
-68.9803
-69.1925
-69.1352
-69.1363
-69.3625
-69.3099
-69.2802
-69.2606
-69.5551
-69.5284
-69.4755
-69.4233
-69.4235
-69.8094
-69.7971
-69.7204
-69.7334
-69.8236
-69.7531
-70.1429
-70.1185
-70.062
-70.0245
-70.0032
-70.0357
-69.9615
-70.6752
-70.6282
-70.5617
-70.4321
-70.4434
-70.3993
-70.3913
-70.3532
-70.4228
-71.272
-71.0944
-71.0742
-70.9162
-70.8863
-70.7751
-70.8114
-70.7712
-70.8991
-70.9119
-72.0134
-71.8705
-71.8162
-71.6434
-71.5616
-71.3697
-71.363
-71.2574
-71.3029
-71.2866
-71.2949
-73.2483
-73.028
-72.9575
-72.6348
-72.5795
-72.4294
-72.1753
-72.052
-71.9768
-71.9296
-72.0017
-71.7698
-71.849
-74.5164
-74.3537
-74.1849
-74.0591
-73.918
-73.6481
-73.4443
-73.1468
-72.8196
-72.7691
-72.6753
-72.324
-72.2884
-72.583
-76.5793
-76.2791
-76.2128
-75.6452
-75.6009
-75.2369
-75.2185
-74.5997
-74.4821
-74.2625
-73.8388
-73.3084
-72.9482
-73.1462
-73.6266
-78.5343
-78.7752
-78.5101
-78.4372
-77.9366
-77.3962
-77.1413
-76.9593
-76.8632
-76.4212
-75.9607
-75.8236
-75.1802
-74.9455
-75.2067
-75.5335
-80.8682
-81.3388
-81.778
-81.4828
-80.9369
-80.086
-79.551
-79.3129
-79.2722
-79.4043
-79.3697
-79.2068
-79.1935
-78.4795
-78.5851
-78.7233
-76.8086
-81.3615
-82.686
-83.44
-83.8598
-83.5137
-82.5836
-82.0365
-81.3355
-80.7314
-80.8343
-81.4165
-82.194
-83.181
-84.2777
-83.9383
-81.3755
-80.3572
-78.0155
-82.919
-82.9873
-83.8685
-84.2452
-84.2414
-83.9869
-83.0312
-82.6803
-82.555
-82.1225
-81.7226
-82.6282
-84.3586
-85.864
-86.2753
-85.6129
-82.8784
-82.4734
-80.102
-86.1788
-85.3463
-84.9889
-85.4101
-85.3385
-85.4733
-85.3594
-85.094
-84.3371
-84.5088
-84.2329
-84.3772
-84.8674
-85.3518
-85.8761
-86.1972
-85.6828
-83.484
-82.1798
-83.0297
-86.9677
-86.9811
-87.1674
-86.9571
-86.8302
-86.8503
-87.0647
-87.4081
-87.4225
-87.7798
-87.2234
-86.9822
-86.4869
-86.3283
-86.4875
-86.5525
-85.8288
-85.6417
-85.9232
-83.7559
-84.9226
-87.4849
-87.8721
-88.3498
-88.5648
-88.7813
-88.6696
-88.6123
-89.192
-89.5658
-89.2227
-89.5466
-88.9232
-88.2734
-87.8966
-87.5676
-87.5697
-87.0949
-86.8699
-86.7835
-86.4214
-87.0112
-87.1678
-86.9608
-87.3541
-88.0674
-88.8243
-89.1013
-89.2474
-89.8429
-90.0921
-90.5686
-90.3018
-89.9101
-89.8497
-89.7359
-89.2683
-88.905
-88.5482
-88.3174
-87.7513
-86.9679
-86.6463
-86.6485
-87.3669
-86.9461
-68.7057
-68.8449
-68.8752
-69.0006
-68.9835
-68.9756
-69.2146
-69.1622
-69.138
-69.1418
-69.3724
-69.3421
-69.3229
-69.2431
-69.1676
-69.6259
-69.5259
-69.4944
-69.4812
-69.4586
-69.511
-69.8503
-69.7937
-69.8137
-69.776
-69.7432
-69.7396
-69.7479
-70.2854
-70.1828
-70.0795
-70.07
-70.0479
-70.0126
-70.0104
-69.9817
-70.7579
-70.6781
-70.6323
-70.5641
-70.4804
-70.3867
-70.3693
-70.3483
-70.3363
-70.4441
-71.4796
-71.3332
-71.1583
-71.0453
-70.9796
-70.8065
-70.7848
-70.7723
-70.8682
-70.8918
-70.9064
-72.0691
-72.0417
-71.8522
-71.8226
-71.6368
-71.5465
-71.3974
-71.2963
-71.3322
-71.2888
-71.3609
-71.2881
-73.2627
-73.1859
-73.0614
-72.7896
-72.7052
-72.6266
-72.3852
-72.2184
-72.1086
-72.0317
-71.8455
-71.9775
-71.7551
-71.8788
-74.5999
-74.4786
-74.2
-74.167
-74.0063
-73.9407
-73.6953
-73.3649
-73.1358
-73.0006
-72.7414
-72.7607
-72.3226
-72.361
-72.7248
-76.4713
-76.4481
-76.3215
-76.0136
-75.6629
-75.602
-75.2198
-74.9285
-74.6912
-74.5052
-74.1522
-73.8472
-73.3745
-73.0845
-73.6148
-73.845
-78.3037
-78.7175
-78.9312
-78.7435
-78.3272
-77.7034
-77.3483
-77.0975
-76.9777
-76.8219
-76.3991
-76.0119
-75.7619
-75.4539
-75.1879
-75.4426
-75.4199
-80.2771
-81.0822
-81.6684
-81.8539
-81.7771
-80.9359
-79.9396
-79.3
-79.221
-79.2828
-79.3654
-79.221
-78.9388
-78.9022
-78.5603
-78.187
-78.6697
-76.5491
-80.8176
-81.7045
-82.9586
-83.6776
-84.2367
-83.6593
-82.5966
-82.0848
-81.1597
-80.5685
-80.8018
-81.3808
-82.4852
-83.2399
-83.5359
-83.1511
-80.9676
-79.9233
-78.2565
-83.5519
-82.9112
-83.0929
-83.7964
-84.2484
-84.2922
-83.9912
-83.1479
-82.6499
-82.5223
-82.0194
-81.7617
-82.755
-84.5354
-85.7753
-86.0412
-84.6862
-82.6599
-81.6645
-80.6189
-86.8805
-85.8989
-85.1867
-85.0321
-85.1473
-85.445
-85.409
-85.2553
-84.8824
-84.2303
-84.7433
-84.392
-84.6396
-85.0648
-85.5771
-86.0739
-86.1339
-85.0055
-83.329
-81.6596
-83.2974
-86.9375
-86.9469
-86.8995
-87.03
-86.884
-86.7097
-86.6978
-86.979
-87.4684
-87.4694
-87.8921
-87.3867
-87.1141
-86.618
-86.5078
-86.7035
-86.7413
-86.0009
-85.7079
-86.0646
-83.5268
-85.51
-87.3283
-87.4383
-87.8187
-88.2728
-88.4762
-88.6967
-88.6202
-88.5825
-89.2822
-89.6617
-89.3258
-89.6387
-89.0172
-88.3897
-88.0154
-87.6782
-87.6731
-87.21
-86.9603
-86.8932
-86.5467
-87.2939
-87.4934
-86.7702
-86.9486
-87.3329
-88.0364
-88.8036
-89.0647
-89.2592
-89.8336
-90.0894
-90.5913
-90.3192
-89.9127
-89.8606
-89.7438
-89.3017
-88.939
-88.5799
-88.3728
-87.788
-87.0565
-86.6941
-86.7092
-87.4295
-87.0374
-68.6075
-68.671
-68.7199
-68.8561
-68.8759
-68.8567
-69.0379
-68.9896
-68.9862
-68.969
-69.2189
-69.2185
-69.2076
-69.1233
-69.1158
-69.4172
-69.3213
-69.3319
-69.2795
-69.2666
-69.2514
-69.641
-69.5965
-69.5426
-69.5252
-69.492
-69.4851
-69.4703
-69.9669
-69.8635
-69.8365
-69.8308
-69.7798
-69.6709
-69.7224
-69.7491
-70.3555
-70.2448
-70.1749
-70.1273
-70.0564
-70.0323
-70.0363
-70.0621
-69.9814
-70.799
-70.8366
-70.6586
-70.6758
-70.502
-70.4338
-70.3999
-70.3546
-70.3593
-70.369
-70.4184
-71.5452
-71.2968
-71.3127
-71.2062
-71.0454
-70.953
-70.9149
-70.8172
-70.7731
-70.8637
-70.9
-70.8556
-72.2921
-72.0837
-71.9979
-71.8743
-71.8365
-71.6719
-71.549
-71.4395
-71.3605
-71.3288
-71.3981
-71.306
-71.3035
-73.417
-73.3182
-73.231
-72.9885
-72.6003
-72.7628
-72.5973
-72.3995
-72.2362
-72.0701
-71.9977
-71.9176
-71.8919
-71.8347
-71.9896
-74.7487
-74.7178
-74.4008
-74.3259
-74.1142
-74.0499
-73.8105
-73.6532
-73.461
-73.1547
-72.972
-72.8733
-72.1824
-72.4601
-72.7206
-72.8845
-76.2931
-76.4785
-76.3931
-76.3746
-75.9137
-75.6444
-75.4479
-75.2724
-74.848
-74.6917
-74.4438
-74.0144
-73.7008
-73.5567
-73.4157
-73.9683
-73.939
-77.9442
-78.5662
-78.8152
-78.9382
-78.7794
-78.1715
-77.6483
-77.3389
-77.0099
-76.773
-76.3116
-76.2435
-75.8907
-75.807
-75.9705
-75.6779
-75.7942
-75.1677
-79.5929
-80.6096
-81.3233
-81.8572
-82.131
-82.0135
-80.8862
-79.6792
-79.1749
-79.1165
-79.0991
-79.2417
-78.8842
-78.6216
-78.7462
-78.8534
-78.6281
-78.3637
-76.3817
-80.9619
-80.7896
-82.0465
-83.2733
-84.0339
-84.5966
-83.7333
-82.443
-81.7821
-80.8097
-80.4851
-80.7771
-81.3167
-82.4487
-83.2231
-83.4056
-82.312
-81.0038
-79.9971
-78.6182
-84.3713
-83.4611
-82.9417
-83.2643
-84.0398
-84.2783
-84.2949
-83.9957
-83.2498
-82.6188
-82.4424
-82.0637
-81.7905
-82.9185
-84.8237
-85.7383
-85.6405
-83.8502
-82.9052
-80.9875
-80.9449
-87.2695
-86.8501
-85.6085
-85.1013
-84.9983
-85.1878
-85.4425
-85.2963
-85.1901
-84.7217
-84.3749
-84.7847
-84.6036
-84.9263
-85.2784
-85.7745
-86.2968
-86.0138
-84.6127
-83.3566
-81.8015
-83.5667
-87.6054
-86.8894
-86.9459
-86.8998
-86.9074
-86.7968
-86.6897
-86.5833
-86.9142
-87.6317
-87.5156
-88.0098
-87.5396
-87.3244
-86.7751
-86.7195
-86.9564
-86.8689
-86.1938
-85.8375
-86.1511
-83.6189
-86.1201
-87.4296
-87.3036
-87.391
-87.7579
-88.2314
-88.3867
-88.6175
-88.5869
-88.5768
-89.3541
-89.7617
-89.4362
-89.7439
-89.1091
-88.507
-88.1242
-87.7846
-87.7732
-87.3225
-87.0558
-86.9839
-86.6721
-87.6233
-87.9071
-86.4666
-86.7681
-86.9335
-87.3118
-88.0128
-88.784
-89.0315
-89.2457
-89.8213
-90.1073
-90.6129
-90.3369
-89.9174
-89.8716
-89.7511
-89.3497
-88.97
-88.6134
-88.4238
-87.8325
-87.1352
-86.7435
-86.773
-87.4971
-87.2255
-68.5301
-68.6239
-68.5984
-68.7581
-68.8201
-68.7142
-68.8962
-68.8941
-68.8396
-68.8504
-69.079
-69.0347
-68.974
-68.9992
-68.9628
-69.2722
-69.1787
-69.2199
-69.2439
-69.0998
-69.1108
-69.432
-69.416
-69.405
-69.3055
-69.2428
-69.3066
-69.2561
-69.7148
-69.6305
-69.6033
-69.4751
-69.5678
-69.4959
-69.4222
-69.4411
-70.013
-69.9727
-69.8831
-69.825
-69.8021
-69.7114
-69.688
-69.7072
-69.7352
-70.4508
-70.3324
-70.229
-70.1414
-70.1558
-70.0478
-69.9877
-69.9763
-70.0157
-70.0313
-71.0378
-70.9471
-70.8045
-70.6257
-70.6473
-70.4789
-70.37
-70.3689
-70.3942
-70.3975
-70.3133
-70.4071
-71.5973
-71.4555
-71.4258
-71.253
-71.1411
-71.0245
-70.991
-70.9514
-70.8511
-70.8395
-70.9368
-70.9886
-70.8344
-72.5023
-72.2715
-72.1016
-72.1055
-71.9067
-71.6813
-71.662
-71.49
-71.4297
-71.3958
-71.2503
-71.3991
-71.3188
-71.3137
-73.7827
-73.5494
-73.2987
-73.2074
-72.8721
-72.9658
-72.7042
-72.606
-72.4581
-72.2239
-72.09
-72.0422
-71.9127
-71.9204
-71.9562
-72.0951
-74.8542
-74.7397
-74.6341
-74.3574
-74.31
-74.1383
-73.8845
-73.8116
-73.7484
-73.357
-73.1727
-72.9352
-72.7725
-72.7031
-72.6442
-72.9026
-72.9697
-76.3464
-76.4883
-76.4843
-76.5659
-76.3507
-75.9391
-75.6323
-75.4297
-75.1303
-74.8992
-74.6443
-74.1865
-74.1135
-73.8659
-73.7647
-73.9295
-74.2933
-73.9651
-77.9109
-78.205
-78.6551
-78.9849
-79.0117
-78.9384
-78.1575
-77.638
-77.2466
-76.984
-76.6697
-76.4699
-76.1086
-76.121
-76.1385
-75.7559
-76.1319
-75.9904
-74.9616
-79.4687
-79.7698
-80.8251
-81.5804
-82.1654
-82.5111
-82.1898
-80.4013
-79.529
-79.0171
-78.8362
-78.9369
-79.4853
-78.6783
-78.4914
-78.8663
-78.9843
-78.5174
-78.0154
-76.4366
-81.4901
-80.8073
-81.1489
-82.4661
-83.6131
-84.506
-84.9379
-83.7531
-82.4332
-81.697
-80.5278
-80.3719
-80.4732
-81.4626
-82.5195
-83.4093
-83.6162
-81.654
-80.6529
-79.703
-78.8836
-85.4705
-84.0424
-83.3593
-82.9955
-83.5059
-84.1768
-84.3398
-84.2741
-83.8158
-83.1993
-82.4876
-82.3072
-81.9784
-82.0699
-83.0449
-84.95
-85.9203
-85.216
-83.8659
-83.4536
-81.2662
-81.2217
-87.9882
-87.0891
-86.6899
-85.5254
-85.008
-84.973
-85.2094
-85.4331
-85.1754
-85.1192
-84.7039
-84.6627
-84.8254
-84.8388
-85.0013
-85.4183
-85.9719
-86.5498
-85.8649
-84.5235
-83.3972
-82.211
-83.9709
-88.138
-87.5364
-86.8727
-86.8877
-86.8337
-86.7792
-86.7952
-86.591
-86.5312
-86.9015
-87.7728
-87.6055
-88.0631
-87.6937
-87.5969
-87.0042
-86.9483
-87.1677
-86.9711
-86.3803
-85.9905
-86.1629
-84.0104
-86.8651
-87.4168
-87.4182
-87.277
-87.3482
-87.6883
-88.1816
-88.2875
-88.5636
-88.5651
-88.5796
-89.4439
-89.8614
-89.5505
-89.7865
-89.1936
-88.6209
-88.2054
-87.9026
-87.8605
-87.432
-87.1511
-87.0591
-86.788
-87.9762
-88.4111
-86.4642
-86.1864
-86.7629
-86.9189
-87.2916
-87.9982
-88.7694
-88.9995
-89.2277
-89.7941
-90.1273
-90.6326
-90.3543
-89.9241
-89.8785
-89.7606
-89.3829
-89.0035
-88.655
-88.4798
-87.8567
-87.2065
-86.7658
-86.8265
-87.5695
-87.4874
-68.4184
-68.522
-68.5279
-68.6469
-68.6071
-68.5816
-68.7888
-68.7222
-68.7168
-68.6841
-68.9007
-68.8982
-68.8696
-68.8452
-68.9095
-69.1324
-69.0804
-68.9866
-69.0201
-68.989
-68.94
-69.2795
-69.2222
-69.2117
-69.1979
-69.259
-69.1423
-69.1028
-69.4501
-69.4042
-69.3819
-69.3363
-69.3733
-69.2819
-69.2635
-69.256
-69.7955
-69.7533
-69.6362
-69.5973
-69.46
-69.4982
-69.459
-69.46
-69.3917
-70.1306
-70.0004
-69.9522
-69.8879
-69.836
-69.7567
-69.7006
-69.6878
-69.6
-69.7472
-70.5838
-70.4405
-70.35
-70.2704
-70.1372
-69.9979
-70.0204
-70.0399
-70.0091
-70.0225
-70.0035
-71.1149
-71.0255
-70.8738
-70.8299
-70.6191
-70.5471
-70.4674
-70.4965
-70.3742
-70.3839
-70.4369
-70.2849
-70.3381
-71.8487
-71.5545
-71.5692
-71.4575
-71.3308
-71.1702
-71.0871
-70.9851
-70.9472
-70.8623
-70.8511
-70.9238
-70.8852
-70.9162
-72.6623
-72.5024
-72.2684
-72.0711
-72.1296
-71.8368
-71.6882
-71.6381
-71.5036
-71.4451
-71.3651
-71.3918
-71.3804
-71.3938
-71.4416
-73.9259
-73.7588
-73.5485
-73.3203
-73.1816
-72.9214
-73.0135
-72.6289
-72.5444
-72.4216
-72.2273
-72.1757
-72.0418
-71.9369
-72.0373
-72.0908
-72.1798
-74.9751
-74.8332
-74.8917
-74.6356
-74.4233
-74.3453
-74.0556
-73.9527
-73.7644
-73.6426
-73.3931
-73.1882
-73.0356
-72.7585
-72.7263
-72.8639
-73.1771
-72.9817
-76.4312
-76.4801
-76.5562
-76.6186
-76.5289
-76.3419
-75.9209
-75.6332
-75.3625
-75.0155
-74.8705
-74.5467
-74.3184
-74.1075
-73.9272
-74.0982
-74.2871
-74.4173
-74.0418
-77.7935
-77.9889
-78.3901
-78.7608
-79.0707
-79.2243
-78.9948
-78.1129
-77.5261
-77.2076
-76.9601
-76.7091
-76.3879
-76.023
-76.2324
-76.3199
-76.1906
-76.2208
-75.9581
-74.8421
-79.4781
-79.2706
-80.0085
-81.0143
-81.8762
-82.5798
-82.9006
-82.066
-80.2098
-79.3382
-78.8896
-78.8978
-79.0391
-79.1642
-78.4168
-78.4032
-78.7225
-78.9536
-78.1189
-77.7183
-76.662
-82.8957
-81.7726
-81.2527
-81.3116
-82.8168
-84.0126