/*--------------------------------*- C++ -*----------------------------------*\
  =========                 |
  \\      /  F ield         | OpenFOAM: The Open Source CFD Toolbox
   \\    /   O peration     | Website:  https://openfoam.org
    \\  /    A nd           | Version:  7
     \\/     M anipulation  |
\*---------------------------------------------------------------------------*/
FoamFile
{
    version     2.0;
    format      ascii;
    class       surfaceScalarField;
    location    "10";
    object      phi;
}
// * * * * * * * * * * * * * * * * * * * * * * * * * * * * * * * * * * * * * //

dimensions      [0 3 -1 0 0 0 0];

internalField   nonuniform List<scalar> 
54095
(
6.87383e-05
-5.18696e-05
0.000645983
-0.000218293
2.51014e-05
0.0013089
0.000290603
-7.82511e-05
-0.000302251
3.85141e-05
-3.90538e-05
0.000646523
-0.000632116
-0.000231923
0.000270814
0.000212058
9.40426e-06
7.28215e-06
-0.000290706
3.5346e-05
0.00160277
-5.37069e-06
-7.33153e-05
-0.00102735
0.000242238
-6.71102e-05
-0.000516433
1.49936e-05
-2.9733e-05
0.000661262
-0.00128748
0.000341486
-0.00309537
7.46589e-05
0.000653119
-0.00435503
-0.000754065
-0.000374145
0.00110832
-0.000118831
-5.60705e-08
-0.00179462
7.44854e-05
2.93382e-05
0.000181043
-0.000339193
5.20814e-05
0.00190488
-9.84368e-05
-7.31805e-05
-0.000871912
-1.12934e-05
-7.28048e-05
-0.00101037
0.000185044
-5.89486e-05
-0.000672262
-7.41696e-06
-2.3137e-05
0.000691816
-0.00137578
0.000112503
-0.00406657
-0.000142027
0.00066781
-0.0034957
-0.00140945
0.000261475
-0.00270146
-0.00046342
0.000668686
-0.00157443
-9.06936e-05
0.000677034
0.00455558
-0.000824108
-0.000206534
0.00179977
-0.00026331
-7.25074e-05
-0.00138879
-0.000132061
7.25537e-08
-0.00164459
-1.12376e-05
4.31866e-05
0.00038622
-0.000355068
5.91811e-05
0.00219335
-6.31535e-05
-7.31049e-05
-0.000792451
-9.52049e-05
-7.38828e-05
-0.000775629
-1.72906e-05
-7.00358e-05
-0.000981988
0.000122383
-5.32082e-05
-0.000764573
-3.81248e-05
-1.84205e-05
0.000748361
-0.00131703
0.000191459
-0.00563971
-0.000405584
0.00040544
-0.00547888
-0.00127636
0.00031288
-0.00451255
-0.000546788
0.000732627
-0.00385574
-0.000588722
0.000549744
-0.00328594
-0.00144819
0.000314464
-0.00239184
-0.000336617
0.000321966
-0.000807887
-0.000474629
0.000563729
-0.00111855
-0.000327458
0.000556695
0.00410857
-0.000792249
-0.000106529
0.00234348
-9.30371e-05
-0.000151988
-0.00219052
-0.000243036
-6.64004e-05
-0.00117449
-0.000125605
-1.18902e-05
-0.0014812
-0.000169535
5.69052e-05
0.000680414
-0.00037913
6.67546e-05
0.0024676
-5.11158e-05
-6.1938e-05
-0.00142977
-7.11887e-05
-7.23146e-05
-0.00072283
-9.69123e-05
-7.25508e-05
-0.000676202
-2.28559e-05
-6.78259e-05
-0.000944515
7.28015e-05
-4.87934e-05
-0.000807002
-4.9456e-05
-1.47642e-05
0.000812581
-0.00142731
0.000264036
-0.00503976
-0.000941015
0.000543612
-0.00648854
-0.00113509
0.000273588
-0.00605457
-0.000258636
0.000483595
-0.00611499
-0.000768418
0.000652265
-0.00563857
-0.00116576
0.000261104
-0.00505608
-0.000498807
0.000799129
-0.00264008
-0.000725526
0.000707822
-0.00376293
-0.000936585
0.000603666
-0.00296602
-0.00125754
0.000281936
-0.00220849
-0.000120356
7.09148e-05
-0.0012028
-0.000327966
0.000292221
-0.000451449
-0.000448948
0.000429996
-0.000668512
-0.000381473
0.00048802
0.00372596
-0.000750585
-2.25211e-05
0.00273745
-0.000156839
-0.000214805
-0.0023516
-0.000118276
-0.000148559
-0.00206128
-0.000219183
-8.24753e-05
-0.000981634
-0.000126106
-1.4588e-05
-0.00130645
-0.000229304
6.20243e-05
0.000987249
-0.000335864
5.38232e-05
0.00270018
-1.73052e-05
-5.52541e-05
-0.00204092
-5.79412e-05
-6.11525e-05
-0.00138299
-7.43713e-05
-7.19253e-05
-0.000649085
-9.74181e-05
-7.1434e-05
-0.000575176
-2.86661e-05
-6.61614e-05
-0.000898481
3.30239e-05
-4.55872e-05
-0.000809203
-5.90271e-05
-1.17311e-05
0.000883339
-0.00187643
0.000392848
-0.00365379
-0.00134786
0.000513156
-0.00481604
-0.00139173
0.000282636
-0.00506575
-0.000456093
0.000647207
-0.00627091
-0.00110736
0.000535579
-0.00641159
-0.000969894
0.000327692
-0.00657813
-0.000417108
0.000774783
-0.00599141
-0.000632622
0.000518867
-0.00607449
-0.0009674
0.0008787
-0.00622535
-0.000749021
0.000369854
-0.00593445
-0.000204312
0.000743744
-0.00107244
-0.000539827
0.000731532
-0.00245193
-0.000834659
0.000732534
-0.00350608
-0.000906968
0.000640931
-0.00279952
-0.00076714
0.000312558
-0.00250449
-0.000208594
-0.000176518
-0.00213775
-0.000136063
0.000138388
-0.00103118
-0.000254282
0.00012749
-0.000113843
-0.00041091
0.000347857
-0.000243544
-0.000424558
0.00039997
0.00349872
-0.000636089
4.14596e-05
0.00299622
-3.86939e-05
-0.000209742
-0.00287303
-0.000116689
-0.000211384
-0.00223002
-0.000108693
-0.0001558
-0.00195363
-0.000193307
-8.24728e-05
-0.000817861
-0.000129374
-2.7694e-05
-0.00111603
-0.000249933
7.25906e-05
0.00125144
-0.000307098
6.02042e-05
0.00288805
2.28486e-05
-4.70641e-05
-0.00190743
-2.6889e-05
-5.55798e-05
-0.0020196
-6.63574e-05
-6.03835e-05
-0.00132817
-7.78234e-05
-7.07918e-05
-0.000571903
-9.71529e-05
-7.07042e-05
-0.00047348
-3.44712e-05
-6.46567e-05
-0.00084494
8.33601e-06
-4.41655e-05
-0.000785105
-5.59708e-05
-9.07796e-06
0.000948388
-0.00183303
0.000121724
-0.00340939
-0.00139285
0.000555873
-0.00436686
-0.00178324
0.000408984
-0.00367127
-0.000998515
0.00101987
-0.00555608
-0.00143198
0.000542129
-0.00475091
-0.00135998
0.000357365
-0.00503303
-0.000684658
0.000672757
-0.00629641
-0.000510891
0.000709213
-0.00656627
-0.00122113
0.000466222
-0.00629638
-0.000656895
0.000387647
-0.0070579
-0.000304615
0.000739191
-0.00567344
-0.000507646
0.000623065
-0.00612779
-0.000748592
0.000794936
-0.00607679
-0.00107457
0.000845677
-0.00653357
-0.000208628
0.000498652
-0.00699161
-3.23735e-05
0.000607761
-0.00112123
-0.000207785
0.000685909
-0.000955092
-0.000490892
0.000696941
-0.00217973
-0.000865158
0.000674274
-0.00308518
-0.000727084
0.000420815
-0.00260525
-0.000379861
0.000320014
-0.00308074
-5.39819e-05
-0.00028844
-0.00284811
-0.000161329
-0.000153404
-0.00180131
-0.000126942
7.97762e-06
-0.000893421
-0.000218551
9.08631e-05
0.000168394
-0.000488609
0.000248141
0.00026752
-0.000414782
0.000360624
0.00334441
-0.000444304
6.71531e-05
0.00306627
5.82503e-05
-0.000182404
-0.00310053
-6.86915e-05
-0.000200881
-0.00284173
-0.000135691
-0.000207257
-0.00210923
-0.000114044
-0.000146457
-0.00185343
-0.000166052
-9.98047e-05
-0.000676852
-0.00011503
-3.4187e-05
-0.000928692
-0.00022941
8.17042e-05
0.00146768
-0.000249128
6.17264e-05
0.00301948
4.10738e-05
-2.94161e-05
-0.00175004
1.53291e-05
-4.74163e-05
-0.00193092
-3.57831e-05
-5.399e-05
-0.00199021
-7.388e-05
-5.96108e-05
-0.00126548
-8.09442e-05
-6.95e-05
-0.000492163
-9.62159e-05
-7.01693e-05
-0.000371751
-3.25445e-05
-6.39881e-05
-0.000792573
-1.03373e-05
-4.25796e-05
-0.000741266
-5.6492e-05
-6.61953e-06
0.0010115
-0.00165554
-9.25692e-05
-0.00349943
-0.00133581
0.000183827
-0.00490957
-0.00176412
0.000130478
-0.00355899
-0.00100084
0.000728485
-0.00519082
-0.00141458
0.000521016
-0.0044963
-0.00191271
0.000453229
-0.00357177
-0.000973328
0.0011888
-0.00571018
-0.000904876
0.000751373
-0.00537134
-0.00141536
0.000446973
-0.00464629
-0.00129251
0.000453894
-0.0048513
-0.000669575
0.000953698
-0.00682642
-0.000644829
0.000744745
-0.00619476
-0.000712617
0.000613953
-0.00674998
-0.00130895
0.000562577
-0.00623693
-0.000833761
0.000534036
-0.0069668
4.78394e-05
0.000911522
-0.00492279
-0.000262487
0.000636932
-0.00563261
-0.000440437
0.000649247
-0.00603256
-0.000955741
0.000781953
-0.00592249
-0.000904224
0.000832922
-0.0066907
0.000124765
0.000666425
-0.00816266
3.92376e-05
0.000311816
-0.00246089
-6.38112e-05
0.000616636
-0.00114947
-0.000207839
0.000621473
-0.000798728
-0.000437989
0.000595684
-0.0018817
-0.000939471
0.000361684
-0.00257519
-0.000460074
0.000371292
-0.00261123
-0.000209426
0.000247839
-0.00356345
8.98001e-05
-0.000279826
-0.00367077
-7.53727e-05
-0.000272979
-0.00272185
-0.000158365
-0.000168281
-0.00160238
-0.000122761
-2.9117e-05
-0.000764723
-0.000177243
2.67239e-05
0.000401003
-0.000334818
0.000209167
0.000638765
-0.000334235
0.000327194
0.00318919
-0.000263683
8.41734e-05
0.00299665
9.54552e-05
-0.000134545
-0.00319066
4.16072e-05
-0.000175549
-0.00315214
-9.47437e-05
-0.000195221
-0.00279481
-0.000169318
-0.000201606
-0.00195865
-0.000116765
-0.000150819
-0.00176659
-0.000135391
-0.000109899
-0.000561965
-9.46126e-05
-3.75e-05
-0.00074742
-0.000190791
8.26147e-05
0.00162725
-0.00020418
6.6804e-05
0.00310036
6.2907e-05
-1.93772e-05
-0.00128435
3.1204e-05
-2.97089e-05
-0.00179895
6.41845e-06
-4.57834e-05
-0.00194554
-4.35416e-05
-5.298e-05
-0.0019533
-8.92855e-05
-5.89142e-05
-0.00118678
-8.03378e-05
-6.91158e-05
-0.000412879
-9.49437e-05
-6.95408e-05
-0.000271255
-3.34104e-05
-6.29082e-05
-0.000738834
-2.28337e-05
-4.11722e-05
-0.000683879
-5.3823e-05
-4.04099e-06
0.00106936
8.13519e-05
-0.00277074
-0.00131248
-2.75456e-05
-0.00444397
-0.00167729
-0.00010944
-0.00347681
-0.00104017
0.000380754
-0.00550015
-0.00128492
0.000255184
-0.00516393
-0.00189215
7.98348e-05
-0.00365939
-0.000913339
0.000969556
-0.00543349
-0.00100915
0.000745972
-0.00531151
-0.0011566
0.000528362
-0.0048302
-0.00188328
0.000517562
-0.00349857
-0.000814841
0.00103666
-0.00615786
-0.000711237
0.00090672
-0.00579912
-0.000894528
0.000734077
-0.00547653
-0.00137298
0.000488497
-0.00461687
-0.00148903
0.000408075
-0.0046041
-0.00026084
0.00112386
-0.00692327
-0.00064408
0.000843615
-0.0065437
-0.000559177
0.000817859
-0.00627993
-0.0010444
0.0006659
-0.00676464
-0.00116446
0.000785274
-0.00622794
-0.00070645
0.000635186
-0.00677078
0.000189515
0.000981342
-0.00305075
-1.98578e-05
0.000681104
-0.00501092
-0.000277472
0.000565076
-0.0054788
-0.000410914
0.00056297
-0.00584065
-0.00096216
0.000747394
-0.00581427
-0.000623959
0.000843307
-0.0067037
-1.28215e-05
0.000641921
-0.00900119
0.000202836
-2.28704e-05
-0.00344829
4.78693e-05
0.000323337
-0.00229083
-8.0846e-05
0.00054335
-0.00114887
-0.000263201
0.000572348
-0.000634951
-0.000510667
0.000474965
-0.00166156
-0.000647493
0.000275839
-0.00216706
-0.000258392
0.000227472
-0.00266671
-0.000151578
0.000122845
-0.0037984
7.67984e-05
-0.000275977
-0.00374759
3.71532e-05
-0.000264914
-0.00367438
-0.000110583
-0.000257317
-0.00261698
-0.000189415
-0.000195903
-0.0014155
-0.000133336
-5.86008e-05
-0.000662827
-0.000124019
-1.82498e-05
0.000617048
-0.000233054
0.000184742
0.000919658
-0.000214167
0.000286405
0.00301034
-3.75486e-05
0.000101066
0.00272896
0.000117779
-8.11799e-05
-0.00263761
6.58965e-05
-0.000131479
-0.00326942
1.80836e-05
-0.000173704
-0.00318532
-0.000103521
-0.000188631
-0.0027478
-0.000205421
-0.000196503
-0.00179683
-0.000113826
-0.000164081
-0.00167892
-0.000111284
-0.000117588
-0.000465536
-6.71872e-05
-4.06892e-05
-0.00059034
-0.000146372
7.94491e-05
0.00173814
-0.000152936
6.79552e-05
0.00313152
2.39718e-05
-2.7421e-05
-0.000588031
5.33706e-05
-1.96593e-05
-0.00134777
2.13144e-05
-2.97627e-05
-0.00183629
-4.35342e-06
-4.55152e-05
-0.00194866
-5.20217e-05
-5.32139e-05
-0.00190698
-8.90489e-05
-5.83888e-05
-0.00110845
-7.92289e-05
-6.79819e-05
-0.000335209
-9.45569e-05
-6.84939e-05
-0.000171112
-3.34023e-05
-6.20907e-05
-0.000684513
-2.88739e-05
-4.00522e-05
-0.000618994
-4.22978e-05
-2.25529e-06
0.00111392
0.000151006
-0.00349435
-0.00172897
5.35468e-05
-0.00277261
-0.00112692
0.000116835
-0.00454202
-0.00125787
-3.28674e-05
-0.00454759
-0.00166255
-0.000145446
-0.00356097
-0.000771663
0.00045113
-0.00528881
-0.00094665
0.00036439
-0.00567185
-0.00124789
0.000465848
-0.00545866
-0.00170969
0.000110977
-0.00394395
-0.000767363
0.00105263
-0.00581565
-0.000698022
0.000924205
-0.00562494
-0.000732396
0.000726368
-0.00567164
-0.00086623
0.000566826
-0.00538621
-0.0017458
0.000518533
-0.00376033
-0.000333698
0.00102069
-0.00686513
-0.000690923
0.00101607
-0.00622037
-0.000894013
0.0010653
-0.0057955
-0.0010973
0.000650101
-0.00558523
-0.00111823
0.000429111
-0.00468413
-0.00146346
0.0003885
-0.0042356
0.000171217
0.00113793
-0.00678563
-0.000181479
0.00101507
-0.0069331
-0.000519133
0.00077611
-0.00626029
-0.000619026
0.000799603
-0.00620552
-0.00109544
0.000752721
-0.00659881
-0.00116136
0.00097916
-0.00603451
-0.000663433
0.00075496
-0.00687512
0.000139878
0.000744859
-0.00261667
0.000133959
0.000708321
-0.00316405
-0.000219998
0.000446501
-0.00475319
-0.000393789
0.000382655
-0.0051679
-0.000532048
0.000493634
-0.00556551
-0.00088999
0.000797938
-0.0055264
-0.000373267
0.000841568
-0.00678847
-0.000443194
0.000525355
-0.00923493
0.000149014
-0.000172305
-0.00362196
0.000119276
-1.53003e-05
-0.00319177
6.87872e-05
0.000236661
-0.00216351
-8.86853e-05
0.000424834
-0.00110208
-0.000307876
0.000567905
-0.000553353
-0.000518489
0.000361551
-0.0013528
-0.00049391
0.000160002
-0.00183873
2.0195e-05
4.04207e-05
-0.00281864
0.000180118
-8.15846e-06
-0.00400791
5.66953e-05
-0.000231669
-0.00371333
3.71294e-05
-0.000263854
-0.00371988
8.71208e-06
-0.000259306
-0.00366302
-0.000101837
-0.000265723
-0.00254884
-0.000210096
-0.000202726
-0.0012667
-0.000147365
-9.67611e-05
-0.000550776
-9.85457e-05
-3.46783e-05
0.00082373
-0.000143287
0.000153267
0.0011289
-0.000148658
0.000249051
0.00286464
0.000340588
0.000118388
0.00211704
8.52587e-05
-3.28951e-05
-0.00195735
9.28419e-05
-7.22217e-05
-0.00273634
3.1395e-05
-0.000130162
-0.00332304
-2.19754e-05
-0.000171821
-0.00318451
-0.000111594
-0.000183106
-0.00270163
-0.000195486
-0.000196333
-0.00165814
-0.000109287
-0.000167284
-0.00159917
-9.07353e-05
-0.00012074
-0.000389307
-4.16817e-05
-4.44069e-05
-0.000458204
-0.000106215
7.15947e-05
0.00181185
-0.000117142
6.86351e-05
0.00313773
-2.37122e-05
-2.199e-05
-0.000195234
2.78313e-05
-2.70374e-05
-0.000608484
4.27032e-05
-2.00574e-05
-0.00140018
8.8682e-06
-3.10312e-05
-0.00185964
-1.54303e-05
-4.6884e-05
-0.00193956
-6.28609e-05
-5.25205e-05
-0.00184998
-9.03081e-05
-5.72669e-05
-0.00102886
-8.25738e-05
-6.70219e-05
-0.000254107
-9.41942e-05
-6.77845e-05
-7.12244e-05
-3.33828e-05
-6.1449e-05
-0.000629733
-3.11287e-05
-3.93184e-05
-0.000550802
-2.82106e-05
-1.40234e-06
0.00114353
-0.00175363
5.10757e-05
-0.00268434
0.000145531
-0.00401261
-0.00151049
8.37982e-05
-0.00327197
-0.00172502
0.000117211
-0.00282735
-0.000963657
0.000343775
-0.00502099
-0.00101803
0.000191207
-0.00469471
-0.00166434
1.18263e-05
-0.00428841
-0.00152521
-4.4667e-05
-0.00370078
-0.000702964
0.000500154
-0.00590486
-0.000689352
0.000518395
-0.00545149
-0.000755114
0.000440906
-0.00562419
-0.00103333
0.000452785
-0.00563337
-0.00137081
-0.000260339
-0.00405861
-0.000254707
0.00104271
-0.00630384
-0.000564018
0.00098547
-0.00600382
-0.000839423
0.00084009
-0.00579326
-0.000766772
0.000563334
-0.00599868
-0.000853394
0.000539859
-0.00567238
-0.00167781
0.000389063
-0.00393504
-7.05218e-05
0.00110235
-0.00688931
-0.000261251
0.00103095
-0.00680023
-0.000521419
0.00106315
-0.00621593
-0.000812357
0.000993385
-0.00594546
-0.000896907
0.000363545
-0.0057182
-0.00111719
0.000497179
-0.00483697
-0.00139455
0.000412644
-0.00391712
0.000104987
0.00112875
-0.00552172
8.31208e-05
0.000992292
-0.00671201
-0.000382538
0.000745144
-0.0067396
-0.00055827
0.00082146
-0.00611767
-0.000774403
0.000746496
-0.00595694
-0.00109499
0.000931796
-0.00634644
-0.000849725
0.00113489
-0.00593798
-0.000940929
0.000692468
-0.00706986
0.000415736
0.000439443
-0.00311716
0.000249556
0.000525496
-0.00256413
2.50038e-05
0.000436131
-0.0031099
-0.000235867
0.000250678
-0.00447403
-0.000374746
0.000205044
-0.00481244
-0.000634634
0.000476521
-0.00512795
-0.000854214
0.000864047
-0.00518858
-0.00018872
0.00073876
-0.00679296
-0.000779999
0.000458
-0.00873281
0.000180525
-0.000286831
-0.00371603
9.81e-05
-0.00024944
-0.00344879
0.000125463
-5.62765e-05
-0.00301558
0.000165501
0.000102535
-0.00210855
-6.892e-05
0.000409964
-0.00108532
-0.000318409
0.000519172
-0.000539931
-0.000550757
0.000267548
-0.00100813
-0.000315641
3.22373e-05
-0.0016582
0.000126553
-3.84531e-05
-0.00306356
0.000733243
-0.000192638
-0.00420793
0.000122183
-0.000180941
-0.00357558
6.0231e-05
-0.000229501
-0.00371507
-1.01411e-05
-0.000271173
-0.00366648
-5.20001e-05
-0.000288732
-0.00360998
-0.000112794
-0.000255375
-0.002495
-0.000214362
-0.000221464
-0.00112312
-0.000145307
-0.000120238
-0.000429197
-6.75915e-05
-5.9737e-05
0.00101359
-6.98579e-05
0.000129867
0.00127626
1.03825e-05
0.000236834
0.00262959
0.000460056
0.000135204
0.00140464
3.23042e-05
-1.32946e-05
-0.000859006
9.66455e-05
-5.50958e-05
-0.00204329
6.7918e-05
-6.33167e-05
-0.0028284
-4.34621e-05
-0.000136527
-0.003306
-5.05353e-05
-0.000169476
-0.00316303
-0.00013641
-0.000176585
-0.00264782
-0.000191861
-0.000191885
-0.00153199
-0.000114022
-0.000171976
-0.00151648
-7.2545e-05
-0.00012252
-0.000332843
-9.43839e-06
-5.14411e-05
-0.000359113
-7.76717e-05
6.21536e-05
0.00186487
-8.42401e-05
6.73718e-05
0.00312639
-1.81021e-05
-1.29885e-05
-0.000154989
-2.45201e-05
-2.16563e-05
-0.000176095
2.61335e-05
-2.69567e-05
-0.000627718
2.94295e-05
-2.05137e-05
-0.00144013
-2.94189e-06
-3.17378e-05
-0.00187184
-2.75196e-05
-4.70105e-05
-0.00191755
-7.14048e-05
-5.18078e-05
-0.00178404
-9.51371e-05
-5.67819e-05
-0.000943963
-8.34048e-05
-6.56191e-05
-0.000172868
-9.29902e-05
-6.70347e-05
2.73515e-05
-3.54128e-05
-6.07939e-05
-0.000572845
-3.04417e-05
-3.86814e-05
-0.000483082
-2.15883e-05
-6.41612e-07
0.00116576
-0.00172454
3.03259e-05
-0.00261599
-0.00153763
7.49777e-05
-0.00312434
-0.00170704
4.40266e-05
-0.00274636
0.000181222
-0.00424345
-0.00101551
0.000141157
-0.00407249
-0.00152676
8.28667e-05
-0.00337522
-0.00164381
0.000101392
-0.00281013
-0.000685161
0.000410317
-0.00469478
-0.000798006
0.000347031
-0.00506816
-0.000866062
0.000305464
-0.0048774
-0.00168866
0.000217802
-0.00389555
-0.00141078
-1.15122e-06
-0.00365966
-0.000508403
0.000948558
-0.00598315
-0.000650911
0.000596614
-0.00589619
-0.000655464
0.000554188
-0.00574873
-0.000622602
0.000370631
-0.0056862
-0.00116103
0.000226351
-0.00581242
-0.00127068
-9.1589e-05
-0.00437414
-0.000169697
0.00113931
-0.00615509
-0.000373149
0.00102451
-0.00623099
-0.000509192
0.000938027
-0.00611399
-0.000700755
0.000709147
-0.00605067
-0.000587804
0.000559082
-0.00632701
-0.000750829
0.000424355
-0.00607403
-0.00143128
0.000380161
-0.00427847
0.000155461
0.00111374
-0.00695878
-0.000159404
0.00111289
-0.00672873
-0.000416218
0.00103656
-0.00673997
-0.000559877
0.00109344
-0.00631439
-0.000887278
0.00072161
-0.00619065
-0.000560622
0.000643726
-0.00639912
-0.000809502
0.00078734
-0.00525189
-0.00135294
0.000366122
-0.00387123
0.000335136
0.00112828
-0.00473564
0.000276731
0.000973132
-0.00552974
-0.000122492
0.000844438
-0.00666381
-0.000521642
0.000830129
-0.00646249
-0.000514618
0.000767069
-0.00599837
-0.000469093
0.000751048
-0.00594173
-0.000823471
0.000967875
-0.00621017
-0.000827243
0.00110678
-0.00571378
-0.00133769
0.000587568
-0.00709973
0.000379243
0.000362154
-0.00296915
0.000389249
0.000268323
-0.00315114
0.000256347
0.000325368
-0.00258425
7.59296e-05
0.000250909
-0.00302056
-0.000209267
5.38259e-05
-0.00418247
-0.000422375
0.000232882
-0.00446484
-0.000712404
0.000552048
-0.00465431
-0.000659662
0.000728997
-0.00483479
-0.000163092
0.000604957
-0.00665027
-0.000490759
0.000421085
-0.00792989
8.13012e-05
-0.000277862
-0.00362897
0.000200513
-0.000378502
-0.00372725
7.55613e-05
-0.000233408
-0.00335736
0.000114481
-0.000128723
-0.00295081
7.36349e-05
8.87973e-05
-0.00197381
-0.00012944
0.000319434
-0.000970503
-0.000298516
0.000398628
-0.000517802
-0.000528455
0.000212499
-0.000727532
-0.000102477
-5.50026e-05
-0.00160903
0.000416692
-0.000193045
-0.00346946
0.00116086
-0.000220898
-0.00468783
0.00017011
-0.000164668
-0.00320891
0.00012419
-0.000209068
-0.00362356
2.72666e-05
-0.000230368
-0.00371523
-0.000123799
-0.000294469
-0.00358041
-0.000109143
-0.000252161
-0.00355459
-0.000107707
-0.000243715
-0.00250145
-0.000190119
-0.000220356
-0.00102474
-0.000128527
-0.000122968
-0.000351461
-7.61962e-06
-7.8123e-05
0.00115665
2.42358e-05
0.000118773
0.00136064
0.000155977
0.000216021
0.00231513
0.000405785
0.000154482
0.000760134
0.000105485
-4.25656e-05
-0.000538237
3.48251e-05
-4.99939e-05
-0.000923453
8.82946e-05
-5.80256e-05
-0.00211074
3.80617e-05
-6.44137e-05
-0.00290914
-7.34647e-05
-0.00013807
-0.00326689
-9.22197e-05
-0.000168119
-0.0031068
-0.000146106
-0.000175233
-0.00258978
-0.000189346
-0.000192002
-0.00141775
-0.000115357
-0.000170752
-0.0014363
-5.58965e-05
-0.000113952
-0.000307426
1.7563e-05
-6.3578e-05
-0.000286357
-4.46582e-05
5.63441e-05
0.00189011
-7.03277e-05
6.4695e-05
0.00311043
-1.10094e-05
-1.80202e-05
-0.000378409
-2.72149e-05
-1.22752e-05
-0.000137155
-2.51296e-05
-2.18494e-05
-0.000156073
2.01799e-05
-2.64762e-05
-0.000641936
2.14739e-05
-1.97978e-05
-0.00147354
-1.38909e-05
-3.17051e-05
-0.00187326
-3.81217e-05
-4.56615e-05
-0.00188557
-7.76045e-05
-5.09867e-05
-0.00171223
-0.000100723
-5.62727e-05
-0.000852586
-9.15351e-05
-6.40974e-05
-8.427e-05
-9.22089e-05
-6.6031e-05
0.000124798
-3.84814e-05
-5.99913e-05
-0.000513054
-2.95672e-05
-3.80506e-05
-0.000416106
-9.78897e-06
-9.57076e-07
0.00117651
-9.72555e-05
-0.00289448
-0.00143365
1.80554e-05
-0.00328817
-0.00168651
-3.20501e-06
-0.00263332
-0.00100642
0.000117626
-0.00369161
-0.00136431
5.08173e-05
-0.00329358
-0.0016589
7.57057e-05
-0.00280698
0.000337607
-0.00428291
-0.000817001
0.000216587
-0.00429989
-0.000927092
0.000189685
-0.00411828
-0.00145928
3.04439e-05
-0.00353365
-0.00154726
0.000142392
-0.00281604
-0.000627993
0.000568084
-0.00491259
-0.000527106
0.000412544
-0.0048841
-0.00074976
0.000354064
-0.00502246
-0.000798102
0.000403939
-0.00488804
-0.00133639
0.000249763
-0.0039711
-0.00138423
-5.00326e-05
-0.00349608
2.91485e-05
0.00108257
-0.00593517
-0.000429806
0.000778917
-0.0061088
-0.000538638
0.000609626
-0.00592218
-0.000638065
0.000518949
-0.00595974
-0.000668685
0.000363833
-0.0057428
-0.00102883
0.000258427
-0.00588443
-0.00122808
-9.12207e-05
-0.00448612
0.000142233
0.00117979
-0.00617748
-1.01094e-05
0.00106442
-0.0063443
-0.000439331
0.000984585
-0.00625443
-0.000606175
0.000861902
-0.00622044
-0.000547767
0.000651022
-0.00648212
-0.000132986
0.000369469
-0.00669976
-0.000518648
0.000413743
-0.00639847
-0.00130295
0.000199466
-0.00452793
0.000329762
0.00115683
-0.00617835
0.000153848
0.00112856
-0.00685156
-0.000209074
0.00114962
-0.00675521
-0.000531916
0.00101157
-0.00664782
-0.000489025
0.000977017
-0.00659539
-0.000358142
0.00100432
-0.00666219
-0.000288779
0.000726085
-0.00687255
-0.000903796
0.0007349
-0.00554412
-0.00128974
0.000406462
-0.00432564
0.000523142
0.00125026
-0.00421508
0.00038257
0.00100318
-0.00475901
0.000147946
0.0010072
-0.0055841
-0.000258406
0.000838746
-0.00633809
-0.000520609
0.00080435
-0.00618843
-0.000537124
0.000740552
-0.00587312
-0.00061329
0.00075456
-0.00582753
-0.000703558
0.000958007
-0.0060175
-0.000578339
0.00111537
-0.00582633
-0.00119031
0.000681608
-0.00708178
0.000131794
0.000198383
-0.00295738
0.000474715
0.00019913
-0.00317416
0.000312355
0.000179756
-0.00324232
0.00040999
0.000152999
-0.00278185
-0.000161609
0.000172304
-0.00290379
-0.000274708
6.2797e-05
-0.00386711
-0.000282156
0.000173239
-0.00410239
-0.000698988
0.000507402
-0.00426218
-0.000375942
0.00053147
-0.00448784
0.000130209
0.000399596
-0.0063423
6.23007e-05
0.000627862
-0.0074592
0.000114332
-0.000191077
-0.0039941
0.000119744
-0.000321989
-0.00368104
0.00018081
-0.000374814
-0.00373939
8.15533e-05
-0.000266042
-0.0034254
2.86819e-05
-0.000120025
-0.00287981
0.000143303
-3.11249e-05
-0.00187426
-5.87218e-05
0.000197739
-0.000901012
-0.000266008
0.000277837
-0.00044566
-0.000286528
0.000116884
-0.000620511
0.000115163
-0.000178691
-0.00171431
0.000655816
-0.000310374
-0.00387983
0.000294955
-8.13749e-05
-0.00449563
0.000248473
-0.000124742
-0.00248244
0.000153649
-0.000179883
-0.00335692
0.000100013
-0.00018512
-0.00368052
2.18144e-05
-0.00023581
-0.00375764
-0.000168031
-0.000267317
-0.00347069
-0.00018384
-0.000249815
-0.00345687
-0.000110046
-0.000234675
-0.00252319
-0.000186961
-0.000192899
-0.000957195
-0.000105937
-0.000148003
-0.000291001
3.14249e-05
-8.22842e-05
0.00127039
0.000165113
0.000100997
0.00132812
0.000210704
0.000221709
0.00199254
0.000283603
0.000168297
0.000237906
0.00017268
-8.51441e-05
-0.00123092
9.42183e-05
-5.70886e-05
-0.000652576
6.75042e-05
-6.42723e-05
-0.00100984
7.13522e-05
-5.44561e-05
-0.00217187
2.5047e-06
-6.63668e-05
-0.00296188
-0.000120057
-0.000136964
-0.00319188
-0.000130293
-0.000167439
-0.00302242
-0.000152261
-0.000173613
-0.00253351
-0.000191622
-0.000188066
-0.00130954
-0.000139802
-0.000149181
-0.0013528
-3.90717e-05
-0.000130161
-0.000293981
2.39898e-05
-7.01155e-05
-0.000222369
-1.16191e-05
4.78952e-05
0.00188897
-5.13918e-05
5.86413e-05
0.00309339
3.26068e-06
-2.20174e-05
-0.000980993
-8.18994e-06
-1.81628e-05
-0.000364331
-3.4027e-05
-1.20354e-05
-0.000112942
-2.35357e-05
-2.20525e-05
-0.000136961
1.81026e-05
-2.62333e-05
-0.000653603
1.24099e-05
-2.09064e-05
-0.00149675
-2.0986e-05
-3.15334e-05
-0.0018664
-4.70286e-05
-4.48259e-05
-0.0018447
-8.34303e-05
-5.09e-05
-0.00163417
-0.00011435
-5.54155e-05
-0.000746918
-8.47407e-05
-6.45934e-05
-9.66944e-07
-9.2085e-05
-6.47188e-05
0.00022161
-4.40306e-05
-5.93846e-05
-0.000447689
-2.74049e-05
-3.73915e-05
-0.000352266
-5.06625e-06
-2.91154e-07
0.00118186
3.98017e-05
-0.0034103
-0.00162737
-9.84331e-05
-0.00285518
-0.0010063
9.08562e-05
-0.00359477
-0.00122285
-4.87737e-05
-0.00338406
-0.00170643
7.16367e-05
-0.00265742
-0.000851272
0.000199926
-0.00387083
-0.000924695
0.000118549
-0.00376174
-0.00140803
0.000110661
-0.00337978
-0.00157288
5.64256e-05
-0.00283779
0.000528665
-0.00430995
-0.000618819
0.000364384
-0.004339
-0.000766258
0.000292665
-0.00438637
-0.000877227
0.000165729
-0.00417444
-0.00125602
2.45004e-05
-0.00349613
-0.00154951
0.000149955
-0.00280072
6.81952e-05
0.000826536
-0.00520514
-0.000524406
0.000592147
-0.0049976
-0.00044229
0.000425172
-0.00505155
-0.00064901
0.000357404
-0.00496498
-0.000835018
0.000427049
-0.00489899
-0.00133596
0.000249375
-0.00396338
-0.00155757
0.000166862
-0.00333345
0.000105107
0.00123916
-0.00550669
-0.000175876
0.000902045
-0.00589253
-0.000540967
0.00084971
-0.00624725
-0.000561481
0.000632445
-0.00608037
-0.000610156
0.000475928
-0.00600944
-0.000529527
0.000434162
-0.005522
-0.000990076
9.77739e-05
-0.005602
-0.00117182
-0.00019323
-0.00442403
0.000413828
0.00121802
-0.00605396
0.000134223
0.0011116
-0.00620503
-0.000235791
0.00101052
-0.00634352
-0.000340807
0.000917177
-0.00650081
-0.000304875
0.0007795
-0.00653307
-0.000513267
0.000679895
-0.00663742
-0.000276417
0.000397506
-0.00669588
-0.000586769
0.000554138
-0.00707016
-0.00128285
0.000127494
-0.00466231
0.000720539
0.00122828
-0.00572618
0.000285773
0.00117427
-0.00612726
3.47501e-05
0.00112616
-0.00671491
-0.000356854
0.00105725
-0.00670243
-0.000465291
0.00107357
-0.00679969
-0.000310134
0.000961639
-0.0067797
-0.000312091
0.000776163
-0.00701347
-0.000432548
0.00070777
-0.00711643
-0.000349247
0.000809047
-0.00617579
-0.00137651
0.000482567
-0.00462201
0.000220954
0.00124364
-0.00372421
0.000370857
0.00113697
-0.00424501
0.000288987
0.00107448
-0.00480293
0.000279304
0.000910893
-0.00552556
-0.000441465
0.000849953
-0.00610384
-0.000354492
0.000723272
-0.00609137
-0.000215423
0.000708945
-0.00589424
-0.000697787
0.000787648
-0.00565837
-0.000506889
0.00103069
-0.00580186
-0.000115287
0.00120214
-0.00610137
-0.00123995
0.000677993
-0.00645752
0.00028184
-1.06005e-06
-0.00362721
0.000213063
0.000175586
-0.00302716
0.000427876
9.56422e-05
-0.00333711
0.000345782
-5.32332e-06
-0.00334823
0.000198452
9.64702e-05
-0.00287578
-4.51513e-05
7.73388e-05
-0.00272988
-0.000162207
-1.39673e-05
-0.00357642
-0.000195295
0.000156412
-0.00382211
-0.000490767
0.000280215
-0.00380668
-8.31165e-05
0.000361093
-0.00425106
0.000837137
0.000251255
-0.00614702
-0.00108512
0.000354049
-0.00643317
8.67834e-05
-0.000148135
-0.00356243
3.11592e-05
-0.000206173
-0.00398742
0.000126323
-0.000352596
-0.00372956
0.000172892
-0.000377587
-0.00377892
2.88559e-05
-0.000293678
-0.00344863
-1.67742e-05
-0.00019939
-0.00287861
0.00011033
-0.000104283
-0.00179262
-6.15808e-05
5.12026e-05
-0.000799757
-0.000245077
0.000166423
-0.000356058
-0.000373945
3.94071e-05
-0.000433239
0.000254494
-0.000327503
-0.00178656
0.000757085
-0.000405043
-0.00410254
0.000239609
-2.55381e-05
-0.00442609
0.000337171
-0.000126321
-0.00244986
0.000347015
-0.000132991
-0.00278213
0.000236406
-0.000130282
-0.00358066
9.03649e-05
-0.00016873
-0.00376661
-3.97913e-05
-0.000235897
-0.00374676
-0.000221751
-0.000271144
-0.00334766
-0.000248934
-0.000256238
-0.00331667
-0.000128639
-0.000221497
-0.00251821
-0.00017269
-0.000188118
-0.000936013
-7.98453e-05
-0.000165456
-0.000267787
9.98487e-05
-9.40746e-05
0.00132654
0.000222245
0.00011118
0.00124039
0.000237476
0.00023653
0.00167521
0.000271871
0.00018731
-0.000272667
0.000183479
-7.24979e-05
-0.00212068
0.000186828
-9.15464e-05
-0.00139148
7.47741e-05
-6.84644e-05
-0.000757185
8.40048e-05
-6.90164e-05
-0.00110282
4.79881e-05
-4.88023e-05
-0.00221932
-2.68889e-05
-5.98885e-05
-0.00299965
-0.000121471
-0.000136659
-0.00312217
-0.00015188
-0.000168949
-0.00292223
-0.000160599
-0.000175624
-0.00246878
-0.000214896
-0.000172952
-0.00118522
-0.000118571
-0.000175391
-0.00127374
-2.81557e-05
-0.000127591
-0.000300434
2.83774e-05
-8.1472e-05
-0.00016541
2.03122e-05
3.90434e-05
0.00186085
-4.21843e-05
5.28763e-05
0.00307763
2.56954e-05
-1.61372e-05
-0.00164956
6.07872e-06
-2.34094e-05
-0.000981826
-7.81338e-06
-1.79195e-05
-0.000350634
-3.476e-05
-1.21223e-05
-8.81121e-05
-1.96094e-05
-2.24609e-05
-0.000121124
1.54845e-05
-2.73319e-05
-0.000662662
1.43036e-06
-2.23514e-05
-0.00150736
-3.22212e-05
-3.09824e-05
-0.00184802
-5.34351e-05
-4.45704e-05
-0.0017976
-8.83377e-05
-5.02472e-05
-0.001551
-9.96404e-05
-5.58265e-05
-0.000656045
-8.76522e-05
-6.10662e-05
8.30327e-05
-9.03817e-05
-6.39353e-05
0.000316543
-4.89419e-05
-5.88302e-05
-0.000377308
-2.16852e-05
-3.7383e-05
-0.000293489
-9.56144e-07
4.72066e-07
0.00118235