/*--------------------------------*- C++ -*----------------------------------*\
  =========                 |
  \\      /  F ield         | OpenFOAM: The Open Source CFD Toolbox
   \\    /   O peration     | Website:  https://openfoam.org
    \\  /    A nd           | Version:  7
     \\/     M anipulation  |
\*---------------------------------------------------------------------------*/
FoamFile
{
    version     2.0;
    format      ascii;
    class       surfaceScalarField;
    location    "10";
    object      phi_0;
}
// * * * * * * * * * * * * * * * * * * * * * * * * * * * * * * * * * * * * * //

dimensions      [0 3 -1 0 0 0 0];

internalField   nonuniform List<scalar> 
54095
(
6.24406e-05
-4.93318e-05
0.000601993
-0.000217192
2.43172e-05
0.0012724
0.000287221
-7.7473e-05
-0.000327698
3.21678e-05
-3.71027e-05
0.000606928
-0.000614025
-0.000232028
0.000221355
0.000207798
8.7646e-06
-4.14148e-06
-0.000289817
3.39738e-05
0.00156042
-4.10876e-06
-7.39385e-05
-0.00102811
0.000237762
-6.65729e-05
-0.000535989
8.38815e-06
-2.83142e-05
0.000626854
-0.0012694
0.000348153
-0.00313874
5.79761e-05
0.000651479
-0.00438905
-0.000740408
-0.000375986
0.00104793
-0.000115631
-2.40522e-06
-0.00180234
7.16128e-05
2.8962e-05
0.000167019
-0.000340772
5.01969e-05
0.00185938
-9.60836e-05
-7.37084e-05
-0.000884506
-9.7937e-06
-7.33481e-05
-0.00101154
0.000180196
-5.86552e-05
-0.000685845
-1.46006e-05
-2.21539e-05
0.000663608
-0.00138505
0.000110088
-0.00399776
-0.000157974
0.000676366
-0.00349438
-0.0014078
0.000261941
-0.00273329
-0.000461748
0.000664507
-0.00158662
-7.89255e-05
0.000674568
0.00450788
-0.000819118
-0.00020465
0.00173093
-0.000260711
-7.21364e-05
-0.00141117
-0.000130557
-2.81292e-07
-0.00165233
-2.06453e-05
4.27885e-05
0.000375269
-0.000359741
5.65896e-05
0.00214793
-6.25734e-05
-7.39332e-05
-0.000799805
-9.39813e-05
-7.4145e-05
-0.000789728
-1.59733e-05
-7.06023e-05
-0.000983617
0.000117658
-5.30691e-05
-0.000772587
-4.51815e-05
-1.77489e-05
0.000726539
-0.00134492
0.00018461
-0.00556327
-0.000405074
0.000433739
-0.00547744
-0.00130482
0.000306562
-0.0044073
-0.00052957
0.000745968
-0.00386095
-0.000538078
0.00055679
-0.00333007
-0.00146538
0.000316061
-0.00240309
-0.000329731
0.000317118
-0.000826207
-0.000466795
0.000559036
-0.00113485
-0.000327472
0.000555724
0.00405433
-0.000798385
-0.000101682
0.00227125
-9.14377e-05
-0.000152059
-0.00221198
-0.000240341
-6.50966e-05
-0.0012
-0.000125297
-1.25873e-05
-0.00148763
-0.00017779
5.64121e-05
0.000670894
-0.000386878
6.20801e-05
0.00242755
-4.87863e-05
-6.27287e-05
-0.00142454
-7.06409e-05
-7.26704e-05
-0.000730639
-9.58216e-05
-7.28774e-05
-0.000691631
-2.17002e-05
-6.82362e-05
-0.00094675
6.83276e-05
-4.86385e-05
-0.000810025
-5.48506e-05
-1.42222e-05
0.000795611
-0.00142788
0.000257979
-0.00503749
-0.00092383
0.000542874
-0.00652226
-0.00116775
0.000261904
-0.00596224
-0.000216331
0.000531915
-0.00608649
-0.000720065
0.000604162
-0.00559306
-0.0012097
0.000263722
-0.0049267
-0.000484877
0.000805042
-0.00261689
-0.000697286
0.000715877
-0.00378954
-0.000928
0.000601594
-0.00301508
-0.00128352
0.000283936
-0.00220189
-0.000118954
7.26972e-05
-0.0012408
-0.000324345
0.000290192
-0.000473359
-0.000442368
0.000427118
-0.000689169
-0.000391749
0.000490828
0.00367578
-0.000762853
-1.77376e-05
0.00266496
-0.000154542
-0.000216835
-0.0023652
-0.000118076
-0.000148331
-0.00208131
-0.000218198
-8.31906e-05
-0.00100702
-0.000125311
-1.45447e-05
-0.00131306
-0.000239222
6.16411e-05
0.000978883
-0.000341286
5.09187e-05
0.00266306
-1.72294e-05
-5.51112e-05
-0.00203643
-5.60172e-05
-6.17587e-05
-0.00137943
-7.35758e-05
-7.2138e-05
-0.000657802
-9.66191e-05
-7.17577e-05
-0.000591491
-2.76565e-05
-6.64328e-05
-0.000901299
3.0407e-05
-4.57507e-05
-0.000808903
-6.09959e-05
-1.15036e-05
0.000868111
-0.00187304
0.000390149
-0.00367006
-0.00133805
0.000510189
-0.00484068
-0.00139003
0.000269975
-0.00508519
-0.00043863
0.000639444
-0.00625869
-0.00109023
0.000536573
-0.00642676
-0.00100691
0.00031828
-0.00648332
-0.000401363
0.000804191
-0.00593877
-0.000597481
0.000480433
-0.00606257
-0.000947962
0.000865522
-0.00617489
-0.00078326
0.000363416
-0.00579037
-0.000197625
0.000739794
-0.0010639
-0.000534878
0.000737884
-0.00242836
-0.000818185
0.00073542
-0.00354755
-0.000924049
0.000644529
-0.00284337
-0.000876205
0.000310624
-0.00239916
-0.000205805
-0.000173322
-0.00218084
-0.000134971
0.000138717
-0.00107243
-0.000254277
0.000127939
-0.000138101
-0.000405302
0.000348385
-0.000266735
-0.000436851
0.000403975
0.00345169
-0.000661837
4.9183e-05
0.00293633
-3.83307e-05
-0.000212612
-0.00286675
-0.000115709
-0.000213516
-0.00224032
-0.00010698
-0.000157342
-0.00197376
-0.00019279
-8.19773e-05
-0.000843415
-0.000129212
-2.72275e-05
-0.00112264
-0.000256714
7.25127e-05
0.00124441
-0.000310366
5.83694e-05
0.00285406
2.38567e-05
-4.68754e-05
-0.00190289
-2.6285e-05
-5.59197e-05
-0.00201598
-6.5361e-05
-6.109e-05
-0.00132512
-7.71105e-05
-7.13586e-05
-0.000581091
-9.64353e-05
-7.09961e-05
-0.000490492
-3.32846e-05
-6.50135e-05
-0.000848752
6.76527e-06
-4.41631e-05
-0.000783009
-5.9078e-05
-8.85795e-06
0.000936047
-0.00183864
0.000124469
-0.00339116
-0.00139861
0.00055321
-0.00434291
-0.00177972
0.000405419
-0.00368579
-0.00100475
0.0010211
-0.00557079
-0.00143441
0.000543966
-0.00477049
-0.00135927
0.000343494
-0.00507633
-0.000658246
0.000673228
-0.00632646
-0.000490593
0.000709778
-0.00653879
-0.00120672
0.000466992
-0.00631672
-0.00066579
0.000373795
-0.00697458
-0.000301558
0.00075994
-0.00567505
-0.000507483
0.000628671
-0.0061144
-0.000723902
0.000784373
-0.0060757
-0.00107797
0.000845642
-0.0065032
-0.000335616
0.000464379
-0.00679534
-3.16354e-05
0.000605881
-0.00113178
-0.00020513
0.000688052
-0.000943906
-0.000488069
0.00070179
-0.00216094
-0.00085393
0.000686114
-0.00314051
-0.000775103
0.000435354
-0.00262985
-0.000431494
0.00032171
-0.00295122
-5.16263e-05
-0.000292778
-0.00285913
-0.000161287
-0.000157079
-0.00183946
-0.000127047
1.0285e-05
-0.000934709
-0.000216677
9.15892e-05
0.000142582
-0.000488883
0.000249696
0.000247216
-0.000425797
0.000365794
0.00330417
-0.000475051
7.18831e-05
0.00302914
6.05393e-05
-0.000185716
-0.00308813
-6.50589e-05
-0.000203578
-0.00283792
-0.000131023
-0.000209731
-0.00212227
-0.000113507
-0.000147457
-0.00187188
-0.000165961
-9.94653e-05
-0.000701652
-0.000116202
-3.39696e-05
-0.00093324
-0.000232055
8.1241e-05
0.00146036
-0.00025109
6.10877e-05
0.00298499
4.32677e-05
-2.94225e-05
-0.00174841
1.61533e-05
-4.77423e-05
-0.00192722
-3.56049e-05
-5.51713e-05
-0.00198629
-7.22964e-05
-6.00014e-05
-0.00126418
-8.03588e-05
-7.00516e-05
-0.000501677
-9.56142e-05
-7.03919e-05
-0.0003895
-3.18256e-05
-6.4092e-05
-0.000796997
-1.14554e-05
-4.24346e-05
-0.000737977
-5.88624e-05
-6.40368e-06
0.00100131
-0.00165886
-9.14751e-05
-0.00349492
-0.00134095
0.000190847
-0.0048894
-0.0017667
0.000146476
-0.00355065
-0.00100688
0.00073165
-0.00517923
-0.00141464
0.000520333
-0.00447759
-0.00190868
0.000454639
-0.00359101
-0.000958396
0.00118671
-0.00572429
-0.000887749
0.000769323
-0.00539899
-0.00141725
0.000448703
-0.00466517
-0.00128048
0.000444267
-0.0049059
-0.00067258
0.000979345
-0.00685759
-0.000650003
0.000735083
-0.00620925
-0.000676781
0.000617789
-0.0067367
-0.00131407
0.000536039
-0.00624286
-0.000827795
0.000513102
-0.0069955
5.72058e-05
0.000937818
-0.00488935
-0.000267601
0.000646122
-0.00563003
-0.000437869
0.000654406
-0.00603463
-0.000928494
0.000786556
-0.00594205
-0.000961182
0.000828122
-0.00668086
9.19995e-05
0.000648135
-0.00796697
4.12332e-05
0.0003089
-0.00249921
-5.97263e-05
0.000620604
-0.00116589
-0.000203214
0.000625801
-0.000791749
-0.000427374
0.000605568
-0.0018697
-0.000954345
0.000384521
-0.00262421
-0.000499104
0.000380143
-0.00261497
-0.000209661
0.000260334
-0.00347694
9.38451e-05
-0.000284606
-0.00365975
-7.18079e-05
-0.000278819
-0.00273065
-0.000155732
-0.000169866
-0.0016346
-0.000122567
-2.8628e-05
-0.000805431
-0.000175562
2.80645e-05
0.000373813
-0.00034398
0.000211355
0.000629433
-0.000349573
0.000331742
0.00316182
-0.000281262
8.86293e-05
0.00297068
9.87911e-05
-0.000137159
-0.00317568
4.36607e-05
-0.000178627
-0.00314059
-9.26044e-05
-0.000197768
-0.00279288
-0.000165131
-0.000204196
-0.00197269
-0.0001168
-0.00015135
-0.00178356
-0.000136313
-0.000109757
-0.000585166
-9.64617e-05
-3.73633e-05
-0.00075
-0.000194408
8.23324e-05
0.00162207
-0.000206562
6.63624e-05
0.00306632
6.47336e-05
-1.95159e-05
-0.0012843
3.25449e-05
-2.9846e-05
-0.00179885
7.30352e-06
-4.68635e-05
-0.00194283
-4.28238e-05
-5.31018e-05
-0.00195037
-8.72455e-05
-5.96089e-05
-0.00118738
-8.01741e-05
-6.96539e-05
-0.000422241
-9.43642e-05
-6.97423e-05
-0.000289485
-3.2933e-05
-6.29053e-05
-0.000743593
-2.36646e-05
-4.10417e-05
-0.000679674
-5.37072e-05
-3.72743e-06
0.00105875
7.98748e-05
-0.00277244
-0.0013116
-3.01158e-05
-0.00444438
-0.00167963
-0.000107941
-0.00347405
-0.00105504
0.000392107
-0.00548154
-0.00127468
0.000255036
-0.00513791
-0.00189288
7.23209e-05
-0.00363877
-0.000919535
0.000972358
-0.00540709
-0.00100874
0.000748582
-0.00528649
-0.00119783
0.000525725
-0.0047681
-0.00188179
0.000524963
-0.00351467
-0.000823993
0.00103032
-0.00618676
-0.000708964
0.00091354
-0.00580955
-0.000883933
0.000736008
-0.00547914
-0.0013958
0.000483964
-0.00462313
-0.00146796
0.000404428
-0.00467016
-0.00025542
0.00113859
-0.00692352
-0.000651053
0.000852558
-0.00659161
-0.00056128
0.000813649
-0.0062817
-0.00101368
0.000658205
-0.00677369
-0.00117627
0.00075314
-0.00626781
-0.000722212
0.000620015
-0.00680131
0.000199179
0.00100019
-0.00301259
-4.85971e-06
0.000703624
-0.00500172
-0.000268468
0.00058419
-0.00549456
-0.000394764
0.000572458
-0.00585314
-0.000969262
0.000739247
-0.00583826
-0.00066833
0.000842093
-0.0067056
4.1595e-05
0.000664695
-0.00888292
0.000211476
-2.43969e-05
-0.00348697
4.46556e-05
0.000326182
-0.00232125
-7.8244e-05
0.000553102
-0.00117068
-0.000254822
0.000576049
-0.000629975
-0.000494893
0.000487929
-0.00165378
-0.000670848
0.000287532
-0.00220474
-0.000280581
0.00024488
-0.00266851
-0.000150149
0.00013756
-0.00374561
7.82994e-05
-0.00027656
-0.00374441
4.16857e-05
-0.000268993
-0.0036676
-0.000108541
-0.000261654
-0.00262292
-0.000186963
-0.000197313
-0.00144408
-0.000133073
-5.87269e-05
-0.000702367
-0.000124598
-1.69991e-05
0.000590453
-0.000240602
0.00018759
0.000917724
-0.000230726
0.000292625
0.00299415
-9.81851e-05
0.000105676
0.00275663
0.000122578
-8.327e-05
-0.00262549
6.95115e-05
-0.000134613
-0.00325666
2.23302e-05
-0.000175089
-0.0031783
-0.00010295
-0.000190985
-0.00274597
-0.000201606
-0.000198873
-0.00181081
-0.000113914
-0.000164347
-0.00169523
-0.000112134
-0.000117757
-0.000487003
-6.94121e-05
-4.02505e-05
-0.000590938
-0.000149676
7.93134e-05
0.00173513
-0.000153186
6.73178e-05
0.00309849
2.44228e-05
-2.76078e-05
-0.000591249
5.56455e-05
-1.97106e-05
-0.00135008
2.29806e-05
-3.00471e-05
-0.00183865
-2.40848e-06
-4.54508e-05
-0.00194808
-5.06982e-05
-5.33074e-05
-0.00190597
-8.84571e-05
-5.95087e-05
-0.00110907
-7.88564e-05
-6.84201e-05
-0.000344706
-9.40589e-05
-6.87307e-05
-0.000189601
-3.29923e-05
-6.20973e-05
-0.000689546
-2.96421e-05
-3.98861e-05
-0.000613874
-4.11605e-05
-2.29335e-06
0.0011022
0.000151813
-0.00350515
-0.00172887
5.10388e-05
-0.00277424
-0.00114092
0.000110611
-0.00453907
-0.00124446
-3.12057e-05
-0.00455134
-0.00166547
-0.000138595
-0.00356287
-0.000773009
0.000452981
-0.00526854
-0.000951838
0.000369532
-0.00565294
-0.00128242
0.000446966
-0.00542797
-0.00172588
0.000115099
-0.00390978
-0.00077931
0.00104811
-0.00579327
-0.000696941
0.000933141
-0.00560367
-0.000753929
0.000734805
-0.00562558
-0.000883312
0.000565942
-0.00532157
-0.00175708
0.000524578
-0.00375013
-0.000332481
0.00102145
-0.00688037
-0.000702722
0.00100973
-0.00623128
-0.000883474
0.00105656
-0.00580791
-0.00109286
0.000667892
-0.00558389
-0.00112873
0.000424137
-0.00469038
-0.00145994
0.000386206
-0.00431864
0.000185605
0.00114854
-0.00677486
-0.000172973
0.00103797
-0.00694082
-0.000526062
0.000776392
-0.00629676
-0.000598253
0.000804866
-0.00622487
-0.00108226
0.000735793
-0.00664334
-0.00117464
0.000950435
-0.00609192
-0.000631778
0.000752336
-0.00688027
0.000127975
0.000762586
-0.00264057
0.000148818
0.000736509
-0.00314964
-0.000205227
0.000474899
-0.00476544
-0.000385432
0.00040406
-0.00519556
-0.000503176
0.000494884
-0.0056005
-0.000896032
0.000792152
-0.00556314
-0.000396995
0.000844389
-0.00676887
-0.000346741
0.000546329
-0.00923266
0.000151579
-0.00017177
-0.00363546
0.000123537
-1.54622e-05
-0.00322717
6.39592e-05
0.000246239
-0.00218689
-8.88612e-05
0.000429774
-0.00112251
-0.000302947
0.000573813
-0.000545985
-0.000507235
0.000373602
-0.00135721
-0.000507743
0.000172612
-0.00186533
-1.68966e-05
5.81551e-05
-0.00280294
9.11858e-05
2.31051e-05
-0.00395809
5.95285e-05
-0.000230339
-0.00371174
4.30609e-05
-0.000266426
-0.00372053
1.35858e-05
-0.000257714
-0.0036628
-0.000100732
-0.000268432
-0.00255402
-0.000208447
-0.000204747
-0.00129122
-0.000147358
-9.65525e-05
-0.00058937
-9.91635e-05
-3.27422e-05
0.000797815
-0.000151341
0.000157889
0.00113439
-0.000163643
0.00025419
0.0028596
0.000303088
0.000120598
0.00217975
8.62829e-05
-3.25625e-05
-0.00194905
9.62971e-05
-7.58994e-05
-0.00272485
4.27022e-05
-0.000131345
-0.00332013
-1.67886e-05
-0.0001735
-0.0031814
-0.000109211
-0.000185346
-0.00270098
-0.000195262
-0.000198592
-0.00166976
-0.000108829
-0.000167823
-0.00161519
-9.19696e-05
-0.000120837
-0.000408506
-4.34976e-05
-4.37971e-05
-0.000457322
-0.00010926
7.16417e-05
0.00181042
-0.000116033
6.75077e-05
0.00310585
-2.32327e-05
-2.21811e-05
-0.000194637
2.82281e-05
-2.71418e-05
-0.000612046
4.49724e-05
-2.01186e-05
-0.00140498
1.14898e-05
-3.0897e-05
-0.00186469
-1.36422e-05
-4.63522e-05
-0.00194139
-6.16651e-05
-5.31655e-05
-0.00185065
-8.92841e-05
-5.78959e-05
-0.00103031
-8.2192e-05
-6.73518e-05
-0.000263893
-9.37201e-05
-6.80282e-05
-8.99498e-05
-3.29525e-05
-6.14545e-05
-0.000635025
-3.13114e-05
-3.91404e-05
-0.000545715
-2.77336e-05
-1.51029e-06
0.00113145
-0.00175397
5.10001e-05
-0.00268062
0.000142708
-0.00400869
-0.00150515
8.58542e-05
-0.00327928
-0.00172521
0.000114658
-0.00282916
-0.00096548
0.00034295
-0.00501542
-0.00102295
0.000187115
-0.00468627
-0.00165601
7.6769e-06
-0.00432402
-0.00153644
-5.24377e-05
-0.00369987
-0.000698791
0.000500841
-0.00589707
-0.000690877
0.000520723
-0.00542579
-0.000779943
0.000435901
-0.00561586
-0.00103059
0.000461711
-0.0056273
-0.0013975
-0.000238244
-0.00403112
-0.000243658
0.00104244
-0.00630438
-0.000569241
0.000992942
-0.00598655
-0.000833383
0.000847879
-0.00576683
-0.000776401
0.00057471
-0.00595081
-0.000853532
0.000551331
-0.00562352
-0.0016819
0.00039196
-0.00392012
-5.35903e-05
0.00109994
-0.00691261
-0.000260266
0.00102606
-0.00680941
-0.000535519
0.00105365
-0.00621891
-0.000817583
0.00101194
-0.00593262
-0.000935458
0.000371224
-0.00567777
-0.00113854
0.000476997
-0.00481727
-0.0013828
0.000413778
-0.0039814
8.69593e-05
0.00114359
-0.00550703
0.000101906
0.00100746
-0.00669743
-0.000360799
0.000763284
-0.00677214
-0.000555403
0.000817815
-0.00613974
-0.000765709
0.000750058
-0.0059766
-0.00111786
0.000911374
-0.00638246
-0.000875603
0.00111876
-0.00597974
-0.000852718
0.000716846
-0.00709114
0.00041747
0.000453109
-0.00312166
0.0002464
0.000546324
-0.00257325
3.59869e-05
0.000461567
-0.00310833
-0.000233757
0.000275013
-0.0044915
-0.000370855
0.000213417
-0.00484618
-0.000612502
0.000473551
-0.00517663
-0.000861662
0.0008612
-0.00522603
-0.000191267
0.0007543
-0.00680247
-0.000767267
0.000472971
-0.00884717
0.000178477
-0.000282476
-0.00370624
0.000103069
-0.000249805
-0.00346113
0.000126051
-5.26567e-05
-0.00304074
0.000168874
0.000107805
-0.00213453
-6.52886e-05
0.00041508
-0.00110694
-0.000316172
0.000527908
-0.000531477
-0.000546817
0.000277868
-0.00101481
-0.000338822
4.38642e-05
-0.00166356
9.58735e-05
-2.61804e-05
-0.00301317
0.000657255
-0.000169785
-0.00414247
0.000122973
-0.000177687
-0.00356771
6.3671e-05
-0.000232012
-0.00371353
4.58235e-06
-0.000269442
-0.00367068
-4.1253e-05
-0.00029269
-0.00361407
-0.000111292
-0.000258588
-0.0024981
-0.000213732
-0.000222905
-0.0011464
-0.000145567
-0.00012098
-0.000464394
-7.01401e-05
-5.79074e-05
0.000991782
-7.43394e-05
0.00013321
0.00128621
-7.3322e-06
0.000238535
0.00263973
0.000468344
0.000135133
0.00146024
3.45277e-05
-1.14532e-05
-0.000853177
9.67345e-05
-5.60612e-05
-0.00203739
7.16225e-05
-6.59453e-05
-0.0028169
-3.61979e-05
-0.000137018
-0.00330892
-4.6143e-05
-0.000170969
-0.00316328
-0.000132989
-0.000178907
-0.00264934
-0.000190351
-0.000193796
-0.00154272
-0.000113666
-0.000172423
-0.00153213
-7.38541e-05
-0.000123322
-0.000348847
-1.17644e-05
-5.056e-05
-0.000356309
-7.86923e-05
6.24875e-05
0.00186282
-8.35974e-05
6.56636e-05
0.00309605
-1.68738e-05
-1.3194e-05
-0.00015217
-2.39883e-05
-2.17677e-05
-0.000176022
2.74493e-05
-2.70388e-05
-0.000632575
3.16413e-05
-2.06233e-05
-0.00144689
-7.74481e-07
-3.17046e-05
-0.00187856
-2.58235e-05
-4.73121e-05
-0.00192142
-7.07298e-05
-5.23104e-05
-0.00178551
-9.40798e-05
-5.72863e-05
-0.000946292
-8.29468e-05
-6.58211e-05
-0.000183154
-9.25028e-05
-6.72766e-05
8.37505e-06
-3.48868e-05
-6.08023e-05
-0.000578476
-2.95841e-05
-3.85278e-05
-0.000479114
-2.12465e-05
-7.87514e-07
0.00115348
-0.00172554
3.23915e-05
-0.00261038
-0.00154042
7.65196e-05
-0.0031163
-0.00170811
4.41136e-05
-0.00274183
0.00017815
-0.00424409
-0.00101381
0.000137747
-0.00406972
-0.00153133
8.26379e-05
-0.00337194
-0.00164993
9.88219e-05
-0.00281448
-0.000681119
0.000408688
-0.00468723
-0.000799358
0.000346639
-0.00506646
-0.000879871
0.000294781
-0.00487345
-0.00169511
0.000210793
-0.00392274
-0.0014155
-4.99539e-06
-0.00367687
-0.000499266
0.000955551
-0.00596651
-0.000645936
0.000597794
-0.00589745
-0.000660832
0.000551854
-0.0057143
-0.000629101
0.000374443
-0.00567589
-0.00115711
0.000243398
-0.00580537
-0.00126525
-8.41161e-05
-0.00436366
-0.000158895
0.00114765
-0.00614836
-0.000365644
0.0010274
-0.00623346
-0.000517344
0.000947095
-0.00610394
-0.000730042
0.000720058
-0.00599972
-0.000633184
0.000568061
-0.00626982
-0.000770541
0.000427029
-0.00602659
-0.00144814
0.000392896
-0.00424767
0.000162253
0.0011107
-0.00696319
-0.000153388
0.00110652
-0.00673776
-0.000397978
0.00103847
-0.00675705
-0.000549443
0.00109586
-0.0063088
-0.000907986
0.000731848
-0.00615097
-0.000610179
0.000620622
-0.00632908
-0.000813491
0.000774149
-0.00523975
-0.00135018
0.000371998
-0.00385594
0.000335678
0.00113903
-0.00473443
0.000279871
0.000979133
-0.00551218
-9.11632e-05
0.000860837
-0.00666783
-0.000513837
0.000823889
-0.00649813
-0.000512467
0.0007724
-0.00602047
-0.000477784
0.00074608
-0.00594603
-0.000842992
0.000963251
-0.00624561
-0.000811686
0.00110327
-0.00574575
-0.00132309
0.000587142
-0.00712245
0.000376188
0.000371503
-0.00295982
0.000397445
0.000284401
-0.00315411
0.000249702
0.000345622
-0.00258096
9.37733e-05
0.000264773
-0.00302299
-0.000206348
6.52428e-05
-0.00420227
-0.000429155
0.000235165
-0.00449481
-0.000700973
0.000542894
-0.00470417
-0.000691674
0.000751685
-0.00487056
-0.000188287
0.000631523
-0.00667687
-0.000548673
0.000422987
-0.00806423
7.63819e-05
-0.000272421
-0.00362215
0.000202558
-0.000376938
-0.00371799
7.87787e-05
-0.000232811
-0.00335517
0.000122547
-0.000126527
-0.00297021
7.61297e-05
9.32467e-05
-0.00200011
-0.000127811
0.000327284
-0.000992233
-0.0002961
0.000408415
-0.00051149
-0.000539992
0.000224308
-0.000725402
-0.000124841
-4.29829e-05
-0.00159625
0.00039413
-0.000172902
-0.00341151
0.0011829
-0.000221128
-0.0046359
0.000177007
-0.000160941
-0.00318942
0.000126678
-0.000211278
-0.00361839
3.08608e-05
-0.000232912
-0.0037093
-0.000112516
-0.000298313
-0.00358874
-0.000100831
-0.000256651
-0.00356132
-0.000105731
-0.000248823
-0.00249944
-0.000189218
-0.00022405
-0.00104446
-0.000128841
-0.000124781
-0.000382345
-1.04841e-05
-7.64365e-05
0.00113806
1.14836e-05
0.000121488
0.00138001
0.000143446
0.000216798
0.00233593
0.000429108
0.000153193
0.000794346
0.000106666
-4.11485e-05
-0.000524291
3.36197e-05
-4.87931e-05
-0.000918053
9.09469e-05
-5.9474e-05
-0.00210736
4.31494e-05
-6.51383e-05
-0.00290029
-6.74376e-05
-0.000139403
-0.00327383
-8.49064e-05
-0.000168891
-0.00311421
-0.000145053
-0.000176777
-0.00259204
-0.000188226
-0.000193872
-0.00142713
-0.000114574
-0.000173641
-0.00145018
-5.74144e-05
-0.000115235
-0.00031926
1.66651e-05
-6.24978e-05
-0.000282875
-4.42821e-05
5.65463e-05
0.00188664
-6.99059e-05
6.32251e-05
0.00308148
-1.05215e-05
-1.798e-05
-0.000377204
-2.60159e-05
-1.24422e-05
-0.000135479
-2.45807e-05
-2.19179e-05
-0.000156563
2.14293e-05
-2.65378e-05
-0.00064809
2.28413e-05
-2.01905e-05
-0.00148125
-1.27924e-05
-3.21453e-05
-0.00188094
-3.66874e-05
-4.64975e-05
-0.00189054
-7.68339e-05
-5.14859e-05
-0.00171447
-9.85967e-05
-5.66535e-05
-0.000856863
-9.09458e-05
-6.41929e-05
-9.52914e-05
-9.17462e-05
-6.62527e-05
0.000105572
-3.79665e-05
-5.99607e-05
-0.000519077
-2.81785e-05
-3.80069e-05
-0.000413716
-9.0557e-06
-8.78558e-07
0.00116341
-9.66285e-05
-0.00289141
-0.0014378
2.1019e-05
-0.00327917
-0.0016874
-2.18996e-06
-0.00262891
-0.00100515
0.00011799
-0.0036879
-0.0013694
5.02555e-05
-0.00328437
-0.00166304
7.5143e-05
-0.00280387
0.000335182
-0.00427841
-0.000822746
0.000212322
-0.00429527
-0.000936678
0.000189502
-0.00411978
-0.00146643
3.05502e-05
-0.00353234
-0.00154671
0.000139875
-0.00282316
-0.000621304
0.00057036
-0.0049085
-0.000534152
0.000411861
-0.00486424
-0.000761082
0.000354228
-0.00502566
-0.000796967
0.000398969
-0.00489376
-0.00134729
0.000247835
-0.00398539
-0.00137285
-6.08954e-05
-0.00350838
4.86602e-05
0.00108742
-0.0059213
-0.000425743
0.000786464
-0.00609508
-0.0005535
0.000605194
-0.00591463
-0.000645902
0.000522077
-0.00594607
-0.000673817
0.000364221
-0.00575608
-0.00103056
0.000268542
-0.00589801
-0.00124435
-9.05071e-05
-0.00447694
0.000151639
0.00118944
-0.00617797
-1.08525e-05
0.00107014
-0.00633363
-0.000438684
0.000989965
-0.00623562
-0.000605815
0.000867254
-0.00619476
-0.000558993
0.000656804
-0.00643746
-0.000149642
0.000374218
-0.00667754
-0.000519641
0.000407344
-0.00633489
-0.00131545
0.000212685
-0.00449508
0.000339202
0.00115608
-0.0061769
0.000163872
0.00112605
-0.00686673
-0.000196403
0.00115959
-0.00675364
-0.00053291
0.00100355
-0.00664567
-0.000509715
0.000985676
-0.00656538
-0.000400822
0.00100089
-0.00660819
-0.00029662
0.000726272
-0.00682757
-0.000915613
0.000740069
-0.0055039
-0.00128595
0.000394844
-0.00428793
0.000523492
0.00126069
-0.00420608
0.000389461
0.00100803
-0.00475534
0.000152379
0.00101751
-0.00557153
-0.000230756
0.000841633
-0.00636105
-0.0005226
0.000812006
-0.00622149
-0.000558831
0.000743289
-0.005888
-0.000589598
0.000749991
-0.00584414
-0.000716633
0.000945362
-0.00606274
-0.000634753
0.00109984
-0.00581198
-0.00120301
0.00067572
-0.00714383
0.000131555
0.000199295
-0.00296312
0.000473554
0.000216046
-0.00316246
0.000313764
0.000191986
-0.00323546
0.000414083
0.00016336
-0.00277108
-0.000151256
0.000186622
-0.00291699
-0.000279212
6.96049e-05
-0.0038853
-0.000300617
0.000176895
-0.0041243
-0.000707519
0.000526931
-0.00431189
-0.000414577
0.000557027
-0.00450633
0.000125636
0.000425758
-0.00641114
8.0662e-05
0.000614509
-0.00757651
0.000128083
-0.000191818
-0.00399033
0.000118918
-0.000320272
-0.00367105
0.000184236
-0.000374905
-0.00372927
8.56601e-05
-0.000264089
-0.00341578
3.76461e-05
-0.000117591
-0.00289785
0.000145127
-2.2825e-05
-0.00190086
-6.03707e-05
0.000204121
-0.000916786
-0.000261801
0.00028888
-0.000443101
-0.000287399
0.000129255
-0.000620726
9.49867e-05
-0.000161883
-0.00169077
0.000614901
-0.000298089
-0.00380601
0.000389291
-0.000102875
-0.00449321
0.000243187
-0.000121911
-0.00245146
0.000149876
-0.00018282
-0.00333413
0.00010231
-0.000191709
-0.00367095
2.54365e-05
-0.000238353
-0.00375154
-0.000159882
-0.000271125
-0.00348182
-0.000170525
-0.0002523
-0.00347223
-0.000107534
-0.000238338
-0.00252267
-0.000186436
-0.000197418
-0.000973616
-0.000106957
-0.000148856
-0.000317543
2.56763e-05
-8.07554e-05
0.00125721
0.000156944
0.000103682
0.00135285
0.00020855
0.00022224
0.00201405
0.000296729
0.000166459
0.000261252
0.000171609
-8.34424e-05
-0.00121764
9.73233e-05
-5.58163e-05
-0.000640607
6.48894e-05
-6.38099e-05
-0.00100319
7.41257e-05
-5.58234e-05
-0.00216937
7.5355e-06
-6.82425e-05
-0.00295614
-0.000117404
-0.000138183
-0.00319992
-0.000124814
-0.000168186
-0.00303468
-0.000151301
-0.00017465
-0.00253679
-0.000186972
-0.000191292
-0.0013211
-0.000138727
-0.000149271
-0.00136836
-4.05378e-05
-0.000129945
-0.000303021
2.3506e-05
-6.91442e-05
-0.000218657
-1.06165e-05
4.79313e-05
0.00188437
-4.86697e-05
5.68103e-05
0.00306429
3.02787e-06
-2.12343e-05
-0.000977744
-7.69443e-06
-1.81781e-05
-0.000363774
-3.31414e-05
-1.21941e-05
-0.000112062
-2.31199e-05
-2.21054e-05
-0.000137875
1.89209e-05
-2.61696e-05
-0.000661031
1.38216e-05
-2.11458e-05
-0.00150607
-2.021e-05
-3.20371e-05
-0.00187519
-4.59301e-05
-4.55547e-05
-0.00185055
-8.27747e-05
-5.13671e-05
-0.00163699
-0.000115295
-5.55833e-05
-0.000750177
-8.48004e-05
-6.50494e-05
-1.16942e-05
-9.17147e-05
-6.4911e-05
0.000202237
-4.34323e-05
-5.93794e-05
-0.000454272
-2.72104e-05
-3.72596e-05
-0.000350124
-5.33271e-06
-2.43695e-07
0.00116899
3.8997e-05
-0.00340908
-0.00162667
-9.90447e-05
-0.0028531
-0.00100618
9.31645e-05
-0.00359005
-0.00122487
-4.70565e-05
-0.00337883
-0.00170838
7.15039e-05
-0.00265507
-0.000854632
0.00019983
-0.00386961
-0.000930947
0.00011686
-0.00376024
-0.00140864
0.000108499
-0.00337552
-0.00157194
5.68711e-05
-0.00283551
0.00052782
-0.00430852
-0.000624249
0.000359563
-0.00433556
-0.000770483
0.000289529
-0.0043859
-0.000874031
0.000166229
-0.0041784
-0.00126281
2.39044e-05
-0.00350085
-0.0015478
0.000150402
-0.0027986
8.9257e-05
0.000832024
-0.00519072
-0.000522737
0.000592272
-0.00499192
-0.000445219
0.000421766
-0.00504006
-0.000651784
0.000353312
-0.00497412
-0.000839079
0.000423263
-0.00490392
-0.00133192
0.000241794
-0.00398672
-0.00156102
0.000162245
-0.00335396
0.000114491
0.00124276
-0.00549247
-0.000184416
0.000907245
-0.00586852
-0.000547597
0.000853957
-0.00623493
-0.000570629
0.000632649
-0.00606039
-0.00060843
0.000479551
-0.00601196
-0.000531391
0.000429552
-0.00553534
-0.000987395
0.000103314
-0.00562407
-0.00116813
-0.000186956
-0.0044373
0.000424166
0.00122318
-0.0060396
0.000142681
0.00111457
-0.0062012
-0.000227397
0.00101758
-0.00633025
-0.000354623
0.000925149
-0.0064718
-0.000351532
0.000791342
-0.00648748
-0.000533127
0.000678812
-0.00660975
-0.00026135
0.000379931
-0.0066854
-0.000596022
0.000560402
-0.0070022
-0.00127643
0.000145562
-0.00465016
0.00073114
0.00123342
-0.00570774
0.000297033
0.00116847
-0.00612688
4.77435e-05
0.00111976
-0.00672226
-0.000346172
0.00105747
-0.00669215
-0.000472954
0.00107418
-0.00678381
-0.000333076
0.000964865
-0.00675511
-0.000284678
0.000787813
-0.00697465
-0.000422929
0.000708837
-0.00709005
-0.000413303
0.000783411
-0.00611391
-0.00136661
0.000470854
-0.00459518
0.000222033
0.00124841
-0.00371909
0.000373994
0.00114701
-0.0042455
0.000285304
0.00107816
-0.00478754
0.000285
0.000921133
-0.00552195
-0.000435741
0.000852915
-0.00611747
-0.00038688
0.000730611
-0.00610114
-0.000248459
0.000711964
-0.00590213
-0.000701768
0.00078
-0.00568453
-0.000570725
0.00101419
-0.00582094
-0.000140159
0.00119147
-0.00606194
-0.00122619
0.000671267
-0.00650825
0.000293493
-5.84728e-06
-0.00362786
0.000210889
0.000183067
-0.00302211
0.000435647
0.00010802
-0.0033299
0.000348357
1.51775e-05
-0.00334998
0.00022524
0.000108942
-0.00288099
-4.76748e-05
8.829e-05
-0.00274287
-0.000171274
-3.77085e-06
-0.00359374
-0.000171546
0.000161413
-0.00384903
-0.000485566
0.000296206
-0.0038529
-0.000135741
0.000391113
-0.00424096
0.00067411
0.000290174
-0.00614602
-0.000992148
0.000368365
-0.00656343
7.52204e-05
-0.000148827
-0.00357383
3.21853e-05
-0.000207327
-0.00398558
0.000128572
-0.000351821
-0.0037204
0.000177252
-0.000376827
-0.00376835
3.25558e-05
-0.000290687
-0.00343512
-1.0728e-05
-0.000192141
-0.00288833
0.000115334
-0.000101795
-0.00181781
-5.81801e-05
6.03996e-05
-0.000816562
-0.000242042
0.000176963
-0.000355724
-0.000376814
5.08352e-05
-0.000430954
0.000245087
-0.000311917
-0.00176509
0.000767334
-0.000396279
-0.00407139
0.000226204
-2.23189e-05
-0.00440036
0.000336242
-0.000121262
-0.00243066
0.00034244
-0.000131402
-0.00274799
0.000228608
-0.000139822
-0.00354974
9.20423e-05
-0.000174757
-0.00375247
-3.36311e-05
-0.000240441
-0.00374106
-0.000219699
-0.00027244
-0.00335938
-0.000241427
-0.000257462
-0.00333649
-0.000125569
-0.000224672
-0.00252115
-0.000172809
-0.000190915
-0.00094572
-8.1239e-05
-0.000167198
-0.000288588
9.46427e-05
-9.19239e-05
0.00131764
0.000221007
0.000113914
0.00126367
0.000236395
0.00023436
0.00169914
0.000268409
0.000185077
-0.000240904
0.000180673
-7.01577e-05
-0.00208897
0.000188508
-9.17617e-05
-0.0013779
7.74487e-05
-6.83156e-05
-0.000746691
8.47794e-05
-6.92471e-05
-0.00109766
4.99857e-05
-5.04857e-05
-0.0022182
-2.19061e-05
-6.31954e-05
-0.0029954
-0.000117158
-0.000138521
-0.00313264
-0.00014863
-0.000169659
-0.00293697
-0.000160528
-0.000176353
-0.00247398
-0.000216845
-0.000173095
-0.00119573
-0.000119369
-0.000176278
-0.00128746
-2.96157e-05
-0.000127888
-0.000306376
2.9326e-05
-8.06507e-05
-0.000162833
2.20264e-05
3.89985e-05
0.00185294
-3.93787e-05
5.16001e-05
0.00304673
2.49077e-05
-1.57246e-05
-0.00162865
5.9076e-06
-2.30026e-05
-0.000978827
-6.87979e-06
-1.79827e-05
-0.000351106
-3.44644e-05
-1.2286e-05
-8.74167e-05
-1.92747e-05
-2.25033e-05
-0.000122267
1.66935e-05
-2.72718e-05
-0.000671599
3.31439e-06
-2.2203e-05
-0.00151922
-3.06273e-05
-3.131e-05
-0.00185881
-5.25324e-05
-4.51149e-05
-0.00180427
-8.75398e-05
-5.05996e-05
-0.00155443
-9.88929e-05
-5.64911e-05
-0.000659843
-8.74712e-05
-6.15675e-05
7.24336e-05
-8.99349e-05
-6.41473e-05
0.000296939
-4.82787e-05
-5.88228e-05
-0.00038443
-2.13225e-05
-3.72756e-05
-0.00029177
-1.13934e-06
5.5804e-07
0.00116957
-0.00171403
7.25423e-05