/*--------------------------------*- C++ -*----------------------------------*\
  =========                 |
  \\      /  F ield         | OpenFOAM: The Open Source CFD Toolbox
   \\    /   O peration     | Website:  https://openfoam.org
    \\  /    A nd           | Version:  7
     \\/     M anipulation  |
\*---------------------------------------------------------------------------*/
FoamFile
{
    version     2.0;
    format      ascii;
    class       volVectorField;
    location    "10";
    object      U;
}
// * * * * * * * * * * * * * * * * * * * * * * * * * * * * * * * * * * * * * //

dimensions      [0 1 -1 0 0 0 0];

internalField   nonuniform List<vector> 
18750
(
(1.5579 -0.521303 -0.323454)
(-0.723244 -0.795109 0.477176)
(3.36839 0.00126093 -1.82384)
(1.28762 -0.601078 -0.177487)
(-1.41329 0.121101 -1.70886)
(2.20256 -0.0668937 -0.149654)
(-1.22389 -0.888015 0.396686)
(-0.150239 0.696603 -1.52683)
(3.09553 -0.0427284 -1.44164)
(0.99471 -0.658041 -0.0701324)
(-3.37221 2.32026 0.292531)
(0.488966 3.97996 0.270279)
(-1.77795 -0.303575 -2.42623)
(0.15995 1.26295 0.236513)
(1.15591 -0.160823 0.0810725)
(-1.55902 -0.975503 0.400397)
(-0.849902 0.641908 -1.43004)
(-0.159121 0.697878 -1.4524)
(2.71123 -0.066903 -1.16568)
(0.685043 -0.678205 0.00510719)
(-2.948 2.7234 -0.495908)
(-0.0527874 2.32532 1.88239)
(-3.78751 2.34811 0.175701)
(-1.36712 1.37211 4.26717)
(-0.0616892 -0.0904282 0.171404)
(-2.19231 -0.654579 -1.80334)
(-1.28267 1.06016 -0.217838)
(0.160583 1.16779 0.253918)
(0.413861 -0.275989 0.29523)
(-1.78892 -1.05429 0.29744)
(-0.713014 0.556223 -1.63092)
(-0.82881 0.621779 -1.48943)
(-0.176499 0.699067 -1.38925)
(2.26658 -0.0631117 -0.97103)
(0.369757 -0.678002 0.0546435)
(-2.54862 3.77723 0.0925346)
(-0.264716 3.70753 1.03936)
(-2.83978 3.27348 -0.165267)
(-1.77097 2.6252 1.79805)
(-0.815266 2.56011 1.49503)
(-3.8726 2.3395 0.265766)
(-1.11956 0.665394 1.89779)
(-1.41217 1.08745 4.25933)
(-1.15031 -3.99061 0.546109)
(-2.45439 -0.852412 -1.38511)
(-0.454588 1.51883 -0.773602)
(-1.11157 0.97596 -0.235725)
(0.173085 1.05137 0.230472)
(-0.509449 -0.239275 0.479496)
(-2.22143 -0.950854 0.269628)
(-0.501701 0.972381 -1.43392)
(-0.726059 0.578367 -1.60999)
(-0.844472 0.619634 -1.44719)
(-0.180634 0.706038 -1.34033)
(1.80362 -0.0313182 -0.830325)
(0.0434337 -0.649994 0.0894467)
(-1.63912 3.43831 0.406413)
(-1.10697 4.45916 0.641637)
(-1.65687 4.1729 0.366567)
(-0.734436 4.0962 0.817561)
(-1.14597 3.69092 1.67639)
(-2.56162 3.66383 -0.503546)
(-1.33916 1.85592 2.54443)
(-1.54555 2.70958 1.57423)
(-2.10212 2.45927 1.71462)
(-3.39824 2.48993 0.135429)
(-0.245049 1.14046 0.655395)
(-1.02967 0.577174 1.18278)
(-1.28388 0.726815 3.2946)
(-1.51624 -2.19097 0.781164)
(-2.62515 -1.03467 -1.00594)
(-0.472754 1.65214 -1.42367)
(-0.501749 1.46596 -0.683012)
(-1.02437 0.890686 -0.346846)
(0.164137 0.936373 0.246334)
(-1.02912 -0.269102 0.594073)
(-2.2546 -1.21469 -0.0385102)
(-0.189268 1.37354 -1.17513)
(-0.544565 0.972348 -1.43256)
(-0.753041 0.557217 -1.60607)
(-0.847522 0.612303 -1.42297)
(-0.209899 0.702528 -1.29481)
(1.35501 0.0292847 -0.721402)
(-0.165821 -0.610847 0.112075)
(-2.38183 2.52238 0.402057)
(-1.79145 3.32601 0.44335)
(-1.43034 3.56708 0.435058)
(-0.0753994 4.15777 1.28545)
(-1.172 4.45892 0.671516)
(-0.866009 4.37615 0.482205)
(-0.900678 3.9403 1.38785)
(-1.54649 4.3201 1.1741)
(-1.24308 4.36039 1.76404)
(-1.45047 3.95284 -0.27905)
(-0.676196 0.742391 2.24193)
(-1.25632 1.90191 2.56838)
(-1.44471 2.86387 1.67929)
(-1.824 2.39261 1.6823)
(-3.00536 2.45943 0.441529)
(-0.910679 1.53503 -0.119157)
(-0.356881 0.567573 1.12131)
(-0.843268 0.325569 0.785536)
(-1.19887 0.650038 2.69291)
(-1.7754 -1.63909 0.91116)
(-2.6855 -1.0179 -0.529753)
(0.00868267 1.93707 -1.50109)
(-0.389371 1.56993 -1.4442)
(-0.413628 1.4413 -0.801801)
(-0.935139 0.83937 -0.40262)
(0.169356 0.818602 0.222106)
(-1.36761 -0.409936 0.728826)
(-2.28058 -1.01658 -0.0600865)
(0.298396 1.26466 -1.1252)
(-0.180098 1.37855 -1.16033)
(-0.547283 0.989487 -1.43537)
(-0.733827 0.578619 -1.5904)
(-0.848767 0.606748 -1.40586)
(-0.251476 0.699677 -1.26335)
(0.954457 0.110162 -0.626386)
(-0.347852 -0.577233 0.133427)
(-2.37478 2.17335 -0.0337776)
(-2.0843 2.90636 0.613444)
(-2.16891 2.72244 0.59708)
(-1.1729 3.73537 1.08267)
(-1.81589 3.40565 0.435726)
(-1.11767 3.5733 0.522924)
(-0.551527 4.31722 1.13711)
(-0.181376 4.28105 1.23199)
(-1.21699 4.56562 0.773158)
(0.427028 4.81073 0.544981)
(-0.23639 3.77496 2.07918)
(-0.789654 4.25525 1.19386)
(-1.69276 4.36347 2.17084)
(-0.926514 4.74504 1.91668)
(1.46929 4.3651 0.471119)
(-0.539603 0.73514 1.97121)
(-0.611383 0.759215 1.87034)
(-0.85758 1.77212 2.56353)
(-1.26106 2.67472 1.85749)
(-1.62687 2.42504 1.5821)
(-1.89307 2.71149 0.704574)
(-0.25301 1.94078 -1.28636)
(-0.405237 1.34495 0.00474713)
(-0.190909 0.779566 0.212989)
(-0.666785 0.136704 0.610748)
(-1.25818 0.409677 2.05221)
(-2.20389 -2.05076 0.962348)
(-2.61486 -1.1636 -0.304672)
(0.324958 2.04336 -1.38638)
(0.0246821 1.93408 -1.45577)
(-0.420111 1.53395 -1.43063)
(-0.406417 1.42542 -0.753458)
(-0.849624 0.782486 -0.555167)
(0.156479 0.681935 0.242855)
(-1.38219 -0.405122 0.846582)
(-2.15529 -1.23182 -0.0891781)
(0.531189 1.13982 -0.848161)
(0.29122 1.26246 -1.1576)
(-0.152774 1.36329 -1.13786)
(-0.543375 0.99991 -1.41895)
(-0.743948 0.572495 -1.5818)
(-0.845748 0.599557 -1.39272)
(-0.18134 0.685595 -1.28462)
(0.6141 0.207623 -0.545939)
(-0.526266 -0.523387 0.153555)
(-1.58131 2.38757 -0.164784)
(-1.33713 3.37279 0.291636)
(-1.9673 2.69777 -0.310746)
(-1.59502 3.46296 0.83825)
(-1.8587 3.09957 0.476632)
(-2.08217 2.77005 0.693846)
(-1.4372 3.58036 2.14944)
(-0.71883 3.69719 1.21197)
(-1.6382 3.46935 0.567912)
(-0.712498 3.68407 0.512355)
(-0.656878 4.61944 1.43079)
(-0.448083 4.13332 1.43455)
(0.122226 4.56907 0.859489)
(-1.24897 4.58408 0.969661)
(0.537226 4.80346 0.529328)
(0.513729 3.29496 1.26722)
(-0.0285268 3.85398 1.63326)
(-0.543423 4.23067 1.43852)
(-1.46694 4.51061 2.00992)
(0.14998 4.677 1.72851)
(2.82354 4.34195 1.52324)
(0.0839974 1.74236 1.75652)
(-0.585676 0.772047 2.08634)
(-0.62408 0.692385 1.7253)
(-0.77007 1.52744 2.10253)
(-1.8426 2.46835 0.702152)
(-1.21595 2.37693 1.32026)
(-0.436177 2.81474 0.658463)
(0.374283 2.41394 -1.16322)
(-0.325402 1.9201 -1.2598)
(-0.420786 1.22281 -0.166555)
(-0.141938 0.58921 0.0949791)
(-0.496021 -0.0494448 0.292316)
(-1.18067 0.0299228 1.83522)
(-2.0994 -1.54886 0.954832)
(-2.42886 -1.12697 -0.218693)
(0.410548 2.08594 -1.16661)
(0.392897 2.06062 -1.32455)
(0.0109161 1.91003 -1.42646)
(-0.440443 1.56208 -1.3823)
(-0.373389 1.36871 -0.851862)
(-0.780094 0.731135 -0.669082)
(0.142614 0.557079 0.262678)
(-1.35108 -0.487481 0.899951)
(-2.04812 -1.21052 -0.0552568)
(0.612543 0.826383 -0.368)
(0.52499 1.145 -0.83748)
(0.306547 1.26845 -1.11935)
(-0.148671 1.35968 -1.12766)
(-0.595789 1.00714 -1.39229)
(-0.726559 0.575955 -1.57712)
(-0.835727 0.594794 -1.38413)
(-0.180961 0.673474 -1.28499)
(0.347044 0.304494 -0.471243)
(-0.669167 -0.483653 0.19474)
(-1.66871 1.89475 0.0194403)
(-1.37243 2.86567 -0.0106879)
(-1.50858 2.46389 -0.0831756)
(-0.715659 3.65084 0.162583)
(-1.21364 3.42561 0.585288)
(-2.08912 2.73048 -0.772215)
(-1.25709 3.42716 1.14746)
(-1.36657 3.5354 0.901807)
(-1.63595 3.48957 0.451035)
(-1.90973 2.87094 0.532779)
(-1.23926 4.18268 1.60893)
(-0.864116 4.05767 1.18659)
(-1.18857 3.87356 0.754157)
(-1.45908 3.42945 0.887775)
(-1.05585 3.61737 0.381471)
(-0.0341226 4.5915 1.98409)
(-0.113626 4.56955 1.35027)
(0.164717 4.25876 1.44401)
(-0.387978 4.75246 1.00363)
(-1.01331 4.67338 1.52857)
(1.05485 4.51655 0.746648)
(0.169271 1.9159 2.75029)
(0.628537 3.25918 1.1845)
(0.255464 3.68576 1.54795)
(-0.0545068 4.08931 1.53793)
(-0.872931 4.42354 2.16109)
(1.44375 4.27447 1.54276)
(3.09483 5.20135 1.57008)
(0.496813 2.35655 0.113453)
(0.256094 1.59399 1.66728)
(-0.391201 0.887097 1.88864)
(-0.620877 0.642845 1.56988)
(-0.641867 1.4522 1.48423)
(-0.891711 2.12582 0.737961)
(-0.576989 2.26932 0.881833)
(0.753564 2.54914 0.311134)
(0.682306 2.44145 -1.12183)
(0.437811 2.40213 -1.06548)
(-0.348324 1.85651 -1.21571)
(-0.576849 1.1719 -0.366275)
(-0.10695 0.546214 -0.101199)
(-0.304694 -0.273078 0.10953)
(-1.00456 -0.140023 1.65596)
(-1.94828 -1.31729 0.986128)
(-2.13217 -1.02149 -0.224247)
(0.795071 1.70043 -0.689869)
(0.418307 2.1152 -1.14186)
(0.397415 2.07696 -1.2838)
(0.0512777 1.87734 -1.3878)
(-0.620286 1.50199 -1.36334)
(-0.296511 1.3323 -0.896048)
(-0.726546 0.69789 -0.740393)
(0.146175 0.428877 0.244646)
(-1.27939 -0.608178 0.950586)
(-1.9585 -1.26053 -0.0440932)
(0.206543 0.388698 -0.466416)
(0.586381 0.828076 -0.396795)
(0.522907 1.14795 -0.813345)
(0.303176 1.26502 -1.0955)
(-0.159198 1.37117 -1.13221)
(-0.586044 0.997499 -1.39853)
(-0.721257 0.576238 -1.56675)
(-0.832505 0.591897 -1.37071)
(-0.174174 0.658403 -1.28327)
(0.157641 0.382517 -0.405867)
(-0.691739 -0.483454 0.23645)
(-1.23497 2.34755 0.121706)
(-1.53997 2.00779 0.0337557)
(-1.36424 3.02166 -0.0555485)
(-0.950094 3.24229 -0.143255)
(-1.32552 2.57355 -0.00293636)
(-0.804309 3.42427 0.762548)
(-0.503188 3.76225 0.0522758)
(-0.201109 3.55216 0.946289)
(-1.78933 2.93643 -0.660407)
(-0.970786 3.72674 1.40071)
(-0.553312 3.84663 1.12603)
(-0.288765 3.85647 1.00155)
(-1.27728 3.76944 0.773483)
(-1.81749 3.05321 0.580105)
(-0.500663 4.50562 1.5489)
(-1.15767 4.25343 1.63929)
(-0.674681 3.98741 1.6132)
(-1.22129 4.04184 0.556133)
(-0.777642 3.58414 0.895214)
(-0.870545 3.47465 0.105292)
(0.841359 4.42873 2.11248)
(0.0591705 4.57143 1.69723)
(-0.00889947 4.28025 1.62033)
(0.276861 4.24529 1.47094)
(-0.365917 4.81774 1.2804)
(-0.703379 4.71539 1.65149)
(1.21485 4.44169 0.715025)
(0.546011 1.80932 1.95086)
(0.278484 2.02065 1.95221)
(0.5897 3.2385 0.920634)
(0.210057 3.60503 1.09344)
(-0.282189 4.03398 1.29722)
(-0.0906077 4.17471 2.34202)
(2.22581 4.00824 1.4021)
(2.85377 5.55828 1.19758)
(0.0362034 2.43894 -0.268775)
(0.329101 2.12419 0.290896)
(0.225911 1.3568 1.41127)
(-0.338118 0.849924 1.76995)
(-0.701509 0.635417 1.46402)
(-0.490893 1.31512 0.983889)
(-0.453177 1.68463 0.364432)
(0.299885 2.07538 0.411912)
(2.21442 1.85383 -0.177624)
(0.472466 2.40948 -1.12527)
(0.683847 2.42982 -1.09846)
(0.506149 2.40412 -0.979626)
(-0.264035 1.81279 -1.2627)
(-0.643903 1.12789 -0.431065)
(-0.100825 0.463722 -0.288015)
(-0.177686 -0.45496 0.0439885)
(-0.847996 -0.345306 1.39316)
(-1.8087 -1.18089 1.02569)
(-1.72086 -0.841876 -0.208358)
(0.347961 1.27022 -0.476898)
(0.809129 1.71865 -0.66303)
(0.431499 2.17137 -1.16596)
(0.368943 2.10091 -1.24634)
(0.101194 1.87791 -1.33048)
(-0.497991 1.36879 -1.46966)
(-0.199314 1.30077 -0.943778)
(-0.691484 0.690514 -0.776616)
(0.150651 0.315028 0.184694)
(-1.1452 -0.656007 0.956078)
(-1.89239 -1.27519 -0.0411287)
(-0.235787 0.141244 -0.666191)
(0.188278 0.389727 -0.453794)
(0.551621 0.848836 -0.422885)
(0.498825 1.15088 -0.831977)
(0.283679 1.25836 -1.10785)
(-0.149506 1.37342 -1.10891)
(-0.57925 1.01944 -1.3769)
(-0.727381 0.595032 -1.54168)
(-0.820576 0.584554 -1.36632)
(-0.15876 0.645764 -1.28558)
(0.055952 0.419604 -0.367727)
(-0.667223 -0.481358 0.255224)
(-1.31626 1.89536 0.0438807)
(-0.786964 2.62796 0.169274)
(-1.18193 2.37338 0.0559786)
(-1.43593 2.10824 0.123339)
(-0.751435 3.30425 0.283613)
(-0.918562 3.13874 0.0761901)
(-1.49109 3.20387 -0.288349)
(-0.876273 2.69927 0.0243578)
(-0.686986 3.88756 0.254176)
(-0.44575 3.55591 0.816046)
(-0.263575 3.78066 0.221505)
(0.834771 3.63634 0.89457)
(-0.933009 3.171 -0.993586)
(-0.221803 4.14497 1.41886)
(-0.111599 3.95915 1.33245)
(-0.79043 3.87283 0.944745)
(-0.333612 4.00469 0.832964)
(-0.498313 4.06887 0.773614)
(-1.49053 3.34144 0.0849526)
(0.0938699 4.56014 1.64231)
(0.254115 4.51929 1.50895)
(-0.298029 4.19777 1.7511)
(-0.457795 4.11036 1.56237)
(-0.882667 4.19712 0.370853)
(-0.713455 3.51621 1.08321)
(-0.589056 3.26871 -0.0659848)
(0.144693 3.51984 2.24287)
(0.942121 4.30953 1.99029)
(-0.101033 4.64082 1.26658)
(0.029044 4.12416 1.58814)
(0.476253 4.03619 1.55341)
(-0.372103 4.70847 1.92458)
(0.0086962 4.40735 2.09694)
(0.747577 5.02569 0.518298)
(0.814113 2.02116 1.30607)
(0.564693 1.64562 1.41278)
(0.626119 2.04896 1.2294)
(0.68241 2.93499 0.539496)
(0.256854 3.35917 1.00753)
(-0.179884 4.01982 1.43105)
(0.359747 3.78798 2.44576)
(2.99657 3.67683 1.22482)
(3.32694 5.20175 1.01107)
(0.102094 2.50113 -0.762991)
(0.0589776 2.29254 -0.401873)
(0.317823 2.01329 0.0291558)
(0.428978 1.43817 0.83737)
(-0.307276 0.872746 1.85308)
(-0.806251 0.610887 1.28619)
(-0.571769 1.07136 0.693912)
(-0.0440316 1.37382 -0.222274)
(0.656874 1.72899 0.148903)
(4.36522 0.385434 -0.823196)
(0.627305 2.31648 -0.80882)
(0.511248 2.40448 -1.0627)
(0.638924 2.42758 -1.1293)
(0.435312 2.36782 -1.00287)
(-0.169021 1.81218 -1.25656)
(-0.64542 1.08887 -0.571388)
(-0.0991775 0.40511 -0.368903)
(-0.090822 -0.659391 0.0124868)
(-0.709863 -0.476612 1.2111)
(-1.67723 -1.15445 1.11303)
(-1.30718 -0.565005 -0.118099)
(-0.226904 0.540554 0.0110635)
(0.619581 1.28171 -0.391444)
(0.84414 1.74398 -0.616724)
(0.410145 2.17948 -1.18782)
(0.387507 2.09504 -1.23974)
(0.0432176 1.90612 -1.26298)
(-0.355112 1.39693 -1.45817)
(-0.197059 1.27726 -0.953923)
(-0.681938 0.69617 -0.781213)
(0.132328 0.234092 0.0898366)
(-1.10966 -0.715081 0.957627)
(-1.81892 -1.31228 -0.0508893)
(-0.251634 0.118073 -0.231834)
(-0.27506 0.152888 -0.668164)
(0.175736 0.389171 -0.452041)
(0.510435 0.860321 -0.460006)
(0.453741 1.15873 -0.889475)
(0.269144 1.25954 -1.10816)
(-0.145358 1.36526 -1.08715)
(-0.599936 1.02989 -1.37467)
(-0.737186 0.600145 -1.52319)
(-0.806455 0.58255 -1.36337)
(-0.156757 0.638431 -1.28281)
(0.00022205 0.457551 -0.344121)
(-0.643476 -0.449888 0.274718)
(-1.38806 1.81704 0.0434604)
(-1.182 2.1236 0.0404398)
(-1.14906 2.01185 0.0843322)
(-0.964035 2.74244 0.105674)
(-0.614842 2.72913 0.117421)
(-1.15372 2.36779 0.0760108)
(-1.23859 2.19947 0.164854)
(-0.615192 3.0231 0.462779)
(-0.474595 3.38302 0.305665)
(-0.335234 3.2735 0.304932)
(-1.62357 3.0776 -0.0924655)
(-0.587285 2.70966 0.0311153)
(-0.157335 3.88494 0.945065)
(-0.531788 3.90884 0.387261)
(-0.0763695 3.77836 0.758257)
(0.237403 3.85255 0.247762)
(0.544769 3.85693 0.308847)
(-0.635151 3.18084 -0.407567)
(-0.0181779 4.01088 1.42344)
(-0.194925 4.13075 1.3386)
(0.0348653 4.07241 1.29984)
(-0.182246 4.04134 0.724693)
(0.546467 4.1048 0.735682)
(-0.0628191 4.04911 0.963553)
(-1.13444 3.48983 0.0763702)
(0.518356 4.52136 1.78151)
(0.252283 4.50123 1.72075)
(0.320224 4.5208 1.52835)
(0.0117359 4.19289 1.60561)
(-0.695902 4.32793 0.863764)
(-0.400637 4.35035 0.411483)
(0.133728 3.78008 1.31587)
(-0.523012 3.14994 -0.187306)
(0.949656 3.05604 1.93413)
(0.945364 3.57347 1.81721)
(0.587505 4.50154 1.41451)
(0.145992 4.43441 1.459)
(0.492182 4.10801 1.30376)
(0.480642 4.02433 1.58725)
(-0.243115 4.73981 2.04748)
(0.35891 4.19479 2.05958)
(-0.29965 5.74678 0.145499)
(0.998617 1.8368 0.713753)
(0.837539 1.97799 0.907627)
(0.84933 1.5599 0.849894)
(1.08917 1.8142 0.710964)
(0.978155 2.73457 -0.160095)
(0.449642 3.18182 0.79641)
(-0.174055 3.73318 1.68736)
(0.952122 3.40358 2.12717)
(3.44372 3.2812 1.04054)
(4.18019 4.5155 0.990334)
(0.387374 2.35321 -0.902052)
(0.404016 2.39238 -1.09041)
(0.0457953 2.26342 -0.396388)
(0.267244 1.97263 -0.214439)
(0.420926 1.256 0.683438)
(-0.247884 0.799309 1.72988)
(-0.693424 0.773346 1.00245)
(-0.541193 0.979493 0.46453)
(0.288583 1.07548 -0.409527)
(1.98022 1.38316 -0.324)
(4.86016 -0.0739003 -1.06617)
(0.678918 2.03067 -0.752009)
(0.710207 2.30684 -0.860792)
(0.509421 2.39344 -1.08559)
(0.16991 2.37787 -1.35768)
(0.38963 2.3677 -0.938898)
(-0.135998 1.79984 -1.28042)
(-0.640897 1.07555 -0.695629)
(-0.102329 0.338812 -0.561716)
(-0.0141766 -0.854777 -0.0314798)
(-0.56121 -0.741198 1.08885)
(-1.48221 -1.03601 1.14033)
(-0.875687 -0.238728 -0.0418991)
(-0.0194805 0.314431 -0.178027)
(-0.129984 0.610992 -0.390357)
(0.735334 1.2696 -0.325777)
(0.796555 1.7806 -0.68571)
(0.4041 2.15265 -1.16795)
(0.37281 2.10158 -1.21968)
(0.0242997 1.88302 -1.24168)
(-0.37028 1.28121 -1.52577)
(-0.1356 1.24654 -0.982027)
(-0.646965 0.707867 -0.80984)
(0.0927256 0.212729 -0.0256993)
(-1.07544 -0.795255 0.945183)
(-1.8203 -1.23339 -0.0535701)
(-0.366105 0.261067 -0.327693)
(-0.304487 0.129254 -0.216479)
(-0.317268 0.157882 -0.67524)
(0.184563 0.392178 -0.443747)
(0.562562 0.834223 -0.438558)
(0.451287 1.14219 -0.903446)
(0.277939 1.23801 -1.10726)
(-0.156459 1.34752 -1.07337)
(-0.609047 1.05561 -1.35441)
(-0.745448 0.610085 -1.507)
(-0.807519 0.579798 -1.35752)
(-0.160224 0.635049 -1.27619)
(-0.0638459 0.47783 -0.322711)
(-0.712582 -0.565265 0.249615)
(-0.943605 2.01048 -0.211353)
(-1.05353 2.19075 0.0111297)
(-1.21497 1.95348 -0.00688908)
(-0.774002 2.46608 0.0914271)
(-0.948173 2.33651 -0.0196109)
(-0.957596 2.09172 0.10252)
(-0.600918 2.7801 0.227738)
(-0.510134 2.8818 0.137388)
(-0.450461 2.79162 0.102955)
(-0.804967 2.48254 0.0161894)
(-1.01107 2.25605 0.203945)
(-0.7099 3.16764 0.417539)
(-0.215165 3.17418 0.440044)
(-0.231398 3.39387 0.338184)
(-0.0604124 3.33064 0.501949)
(-1.12406 3.05666 -0.0279332)
(-0.288376 2.78323 -0.0514565)
(-0.178136 3.72937 1.24647)
(0.0211274 3.96787 1.00744)
(0.0216026 3.94711 0.583167)
(0.197726 3.92886 0.588122)
(0.356254 3.82761 0.312923)
(0.868088 3.86132 0.152631)
(0.184684 3.2527 -0.0183698)
(0.236569 4.02308 1.58894)
(0.109288 4.12636 1.3972)
(-0.129712 4.13061 1.27156)
(0.173745 4.07156 1.15927)
(0.481173 4.27195 0.773196)
(1.75454 4.06263 0.152646)
(0.823919 4.2698 0.971085)
(-0.557371 3.63755 0.112021)
(0.465391 4.03314 1.7226)
(0.841162 4.43115 1.77649)
(0.477929 4.3615 1.76979)
(0.0956626 4.44641 1.75684)
(0.280432 4.43121 1.41304)
(0.928584 4.24534 1.71652)
(1.14581 4.49242 1.11419)
(0.319306 3.8485 1.29599)
(-0.0890215 3.30327 -0.365893)
(0.545427 2.60605 2.16723)
(1.17768 2.98497 1.78065)
(1.02703 3.58778 1.81452)
(0.66949 4.17895 1.59512)
(0.323409 4.2491 1.54327)
(0.467702 3.99163 1.30373)
(0.580258 4.0878 1.63453)
(0.315287 4.53073 1.96269)
(0.406879 4.23765 2.00693)
(0.630213 5.48812 0.0956415)
(0.199421 1.91494 0.953924)
(1.07467 1.93397 0.306066)
(1.03906 1.9414 0.597705)
(1.09571 1.54757 0.495095)
(0.818841 1.81017 0.459878)
(0.698933 2.59185 0.18785)
(0.602245 2.88003 0.886111)
(-0.12259 3.19167 1.47848)
(1.58996 2.70862 1.73407)
(3.86828 2.57823 0.854581)
(5.29871 1.88285 1.94061)
(0.683275 2.5916 -0.751057)
(0.642339 2.35506 -1.12298)
(0.50123 2.39208 -0.999056)
(0.100181 2.2605 -0.605853)
(0.219688 1.92347 -0.170962)
(0.600042 1.14435 0.270469)
(0.0126866 0.693002 1.30387)
(-0.585283 0.655702 0.911953)
(-0.304352 0.670608 0.104852)
(0.76457 0.841378 -0.923753)
(2.75899 0.949447 -0.334586)
(4.41427 0.0333296 -0.582172)
(1.16389 1.48928 -0.577318)
(0.788052 2.07201 -0.949786)
(0.766175 2.3236 -0.858909)
(0.552682 2.42187 -1.08562)
(0.17932 2.42029 -1.11446)
(0.24757 2.41841 -0.84219)
(0.0233803 1.86689 -1.15688)
(-0.562943 1.03575 -0.531466)
(-0.122806 0.323309 -0.680841)
(0.0133393 -1.01527 -0.0485119)
(-0.303575 -0.911482 0.886255)
(-1.21484 -0.926164 1.21353)
(-0.475818 0.0415912 0.0386331)
(0.384455 0.745907 -0.434208)
(-0.132515 0.404087 -0.26648)
(-0.0209785 0.647936 -0.506741)
(0.713567 1.29381 -0.277452)
(0.710828 1.83743 -0.736959)
(0.387515 2.14574 -1.17506)
(0.324098 2.09584 -1.2257)
(0.123443 1.8869 -1.1904)
(-0.374308 1.27791 -1.48474)
(-0.283298 1.32198 -0.83559)
(-0.601994 0.733932 -0.890951)
(0.0318755 0.208595 -0.0807799)
(-1.02009 -0.827731 0.92056)
(-1.7923 -1.24042 -0.073741)
(-0.360626 0.643156 -0.449271)
(-0.428244 0.280281 -0.315262)
(-0.355569 0.142298 -0.220977)
(-0.347324 0.177753 -0.666309)
(0.243371 0.394734 -0.44429)
(0.57325 0.827517 -0.426291)
(0.49125 1.12133 -0.855969)
(0.269728 1.23103 -1.08976)
(-0.150518 1.35285 -1.07497)
(-0.627697 1.07754 -1.32491)
(-0.738847 0.626732 -1.48742)
(-0.81851 0.573711 -1.34887)
(-0.172829 0.633896 -1.26606)
(-0.131508 0.491156 -0.312177)
(-0.746746 -0.496106 0.312407)
(-0.789555 2.28473 0.0716346)
(-0.835917 2.05187 -0.191763)
(-0.495615 2.38028 0.0110917)
(-0.660793 2.3584 0.00124314)
(-1.06788 2.02929 0.04909)
(-0.493891 2.55761 0.110109)
(-0.44549 2.54539 0.119149)
(-0.857728 2.45832 0.0165897)
(-0.709708 2.17181 0.0665109)
(-0.39891 2.78654 0.395278)
(-0.274854 2.83717 0.272365)
(-0.30325 2.93391 0.22948)
(-0.181814 2.86123 0.0466182)
(-0.202258 2.57996 0.0528613)
(-0.904998 2.29807 0.201808)
(0.500346 3.22704 0.717846)
(-0.226317 3.29942 0.447548)
(-0.0290306 3.28098 0.41734)
(0.0494276 3.36377 0.38919)
(0.144112 3.3297 0.515308)
(-0.689111 3.10133 -0.0350614)
(-0.701385 2.69813 0.0842073)
(0.340609 3.51491 1.34856)
(0.661733 3.81152 0.861833)
(0.319674 4.03923 0.832199)
(0.139652 4.00633 0.654304)
(0.587607 3.98018 0.48623)
(0.815795 3.65624 0.549775)
(1.19311 3.61331 -0.215366)
(0.334975 3.17392 -0.0380931)
(0.771352 3.85322 1.55402)
(0.455757 3.98928 1.48527)
(0.297237 4.1398 1.35558)
(0.348794 4.2366 1.19823)
(0.791569 4.13257 1.01727)
(1.07395 4.23092 0.89645)
(1.80059 4.08854 0.122166)
(1.04014 4.59945 0.370739)
(-0.0904231 3.76927 -0.165813)
(1.49117 3.50349 1.80275)
(0.84049 3.91047 1.76776)
(0.853184 4.42001 1.82118)
(0.45267 4.42062 1.47761)
(0.437605 4.46621 1.6547)
(0.769083 4.38845 1.47303)
(1.00768 4.61465 1.23479)
(1.55312 4.52329 0.988681)
(1.72199 3.49015 1.58831)
(0.128539 3.58413 -0.385864)
(0.386896 2.39775 2.47179)
(1.17834 2.69395 1.87625)
(0.998458 2.98934 1.9842)
(1.7485 3.32154 1.59753)
(0.331108 4.1499 1.45005)
(0.710851 4.0854 1.44328)
(1.20383 3.75718 1.27118)
(0.699167 3.98809 1.74036)
(0.824436 4.08555 2.1293)
(1.46828 3.98682 2.30008)
(0.658435 5.24758 -0.192456)
(0.0922231 2.38037 -0.0434467)
(0.430614 1.91838 0.630683)
(1.17564 1.95022 0.192777)
(1.31747 1.92273 0.192174)
(0.999954 1.64464 0.386583)
(1.0941 1.57702 0.148661)
(0.932237 2.3055 -0.151244)
(0.69552 2.60546 0.788034)
(0.890952 2.8206 0.930078)
(2.15759 1.99551 0.998082)
(4.41577 1.8736 0.745718)
(2.06112 4.40959 1.1003)
(0.649499 2.35285 -0.395135)
(0.769612 2.53995 -0.790306)
(0.741836 2.32243 -1.21621)
(0.766899 2.37538 -0.98121)
(0.124833 2.30969 -0.59817)
(0.173962 1.96308 -0.464571)
(0.607151 1.03914 -0.0423228)
(0.0161696 0.641962 0.681188)
(-0.374562 0.556451 0.69511)
(-0.224959 0.608578 -0.106093)
(1.24646 0.528143 -1.60004)
(3.06799 0.874154 -0.0437227)
(3.74876 0.430723 -0.14586)
(1.42737 1.46622 -0.433943)
(1.34249 1.5806 -0.502345)
(1.22264 2.09989 -0.76555)
(0.892919 2.2853 -0.903902)
(0.574998 2.40216 -1.12708)
(-0.0403586 2.37266 -1.18337)
(0.147784 2.38342 -0.88455)
(0.0703472 1.85052 -1.10382)
(-0.502704 1.03936 -0.63499)
(-0.132224 0.313083 -0.691814)
(0.0452212 -1.15395 -0.0434096)
(-0.219298 -0.959637 0.870104)
(-0.921954 -0.866989 1.24933)
(-0.168574 0.243592 0.172387)
(0.78951 1.29459 -0.748883)
(0.641554 0.803104 -0.555735)
(-0.183713 0.50001 -0.342659)
(0.138256 0.684213 -0.517544)
(0.733299 1.30604 -0.255455)
(0.689088 1.85803 -0.719674)
(0.400737 2.13578 -1.18926)
(0.333388 2.05295 -1.25658)
(0.159363 1.85375 -1.20355)
(-0.525512 1.42811 -1.30026)
(-0.080749 1.18581 -0.994936)
(-0.562178 0.781459 -0.945867)
(-0.0851366 0.247254 -0.173188)
(-0.957822 -0.874567 0.871559)
(-1.73753 -1.18288 -0.0842557)
(0.0377378 1.10117 -0.412448)
(-0.319105 0.66867 -0.466842)
(-0.479045 0.309064 -0.302318)
(-0.407726 0.159113 -0.242569)
(-0.367123 0.198057 -0.655236)
(0.236078 0.369346 -0.50656)
(0.562081 0.81912 -0.473426)
(0.496255 1.11047 -0.842782)
(0.269947 1.20904 -1.09355)
(-0.157813 1.36963 -1.0721)
(-0.571017 0.99209 -1.37699)
(-0.750645 0.642228 -1.45137)
(-0.825982 0.56277 -1.35177)
(-0.185319 0.638233 -1.25517)
(-0.0858521 0.49463 -0.337673)
(-0.707333 -0.4191 0.330165)
(-0.871941 1.87217 0.131642)
(-0.62609 2.3416 -0.0166597)
(-0.522647 2.32394 0.0619274)
(-0.768111 2.07097 -0.174065)
(-0.492434 2.38558 0.139549)
(-0.347501 2.42469 -0.0714468)
(-0.501644 2.41278 0.0555079)
(-0.887921 2.0974 0.000560796)
(-0.360187 2.60018 0.222897)
(-0.210092 2.60783 0.0752846)
(-0.248817 2.60831 0.183404)
(-0.697706 2.48989 0.0382044)
(-0.565302 2.21988 0.0955595)
(-0.16147 2.80441 0.623592)
(-0.277858 2.81084 0.414072)
(0.106971 2.88153 0.340896)
(0.0125549 2.94787 0.259281)
(-0.0491384 2.86074 0.000802505)
(-0.326094 2.48709 0.0651265)
(-0.640282 2.3947 0.143902)
(0.127161 3.15008 1.06952)
(-0.331203 3.41788 0.763918)
(-0.286789 3.33745 0.503457)
(0.328412 3.40364 0.350736)
(0.181948 3.31943 0.428456)
(0.384314 3.30548 0.528312)
(-0.630707 3.11091 0.287512)
(-0.321775 2.64315 0.0465835)
(0.507325 3.35415 1.54937)
(0.607146 3.59891 1.25344)
(0.410681 3.88413 1.18834)
(0.678941 4.06028 0.865145)
(0.868609 3.95158 0.669438)
(0.61297 3.99527 0.406189)
(0.89172 3.62406 0.474398)
(1.57375 3.38002 -0.404855)
(0.406246 3.17322 -0.0108628)
(0.858906 3.56714 1.73231)
(0.79781 3.86579 1.49945)
(0.654885 3.98361 1.38908)
(0.466772 4.15077 1.27711)
(0.81173 4.30418 1.09451)
(1.45513 4.25892 0.930714)
(1.92888 4.08412 0.96373)
(1.6604 4.13496 1.24868)
(1.97097 4.47607 0.490135)
(0.0606132 3.76404 -0.26033)
(0.602369 2.90721 2.1)
(0.75056 3.73696 1.84969)
(1.16982 3.91523 1.72146)
(1.01454 4.16216 1.82575)
(0.702679 4.43373 1.72568)
(1.16931 4.40299 1.54343)
(1.67024 4.28496 1.32621)
(1.16819 4.69909 1.303)
(2.14625 4.2809 0.989242)
(3.08432 3.30196 1.79593)
(0.431539 3.70849 -0.355553)
(1.08349 2.16894 2.08114)
(0.760258 2.36577 2.30498)
(1.20616 2.63091 1.94095)
(1.20006 3.00144 1.8523)
(1.33619 3.30006 1.78549)
(0.777446 3.91657 1.30843)
(1.19679 3.84437 1.39055)
(1.7261 3.55328 1.30742)
(0.773231 3.8276 1.8651)
(1.46562 3.71663 2.24309)
(3.77104 2.35558 2.54579)
(0.545971 5.48084 -0.698622)
(-0.044128 2.61314 0.0271181)
(-0.133392 2.39088 0.180771)
(0.659756 1.93116 0.25814)
(1.16937 2.02333 -0.239171)
(1.3485 1.92021 0.0369926)
(1.11383 1.63711 0.241772)
(1.03884 1.46248 0.0904026)
(0.973846 2.0299 -0.102728)
(0.653062 2.48878 0.311749)
(0.302867 2.67311 0.806808)
(2.50427 1.68727 0.456988)
(4.86452 1.23331 0.294472)
(2.34343 3.51826 0.884688)
(0.947621 2.19998 -0.460133)
(1.42945 2.14733 -0.443975)
(1.2172 2.40925 -0.868868)
(0.85824 2.30168 -1.27433)
(0.626431 2.38388 -1.15163)
(0.289007 2.37231 -0.780564)
(0.0959295 2.06546 -0.630072)
(0.600868 1.01044 -0.332203)
(0.108166 0.511055 0.235954)
(-0.193014 0.380809 0.41124)
(-0.0409474 0.388198 -0.367224)
(1.50274 0.324943 -2.36386)
(3.09704 0.768147 -0.0621781)
(3.77001 0.354567 -0.0571813)
(1.09413 1.63303 -0.598335)
(1.4858 1.48709 -0.580008)
(1.39076 1.7014 -0.263371)
(1.449 2.16296 -0.593547)
(0.902632 2.33334 -0.868564)
(0.583476 2.40862 -1.11104)
(0.247844 2.31543 -1.22128)
(0.155773 2.36331 -0.81418)
(0.15633 1.8599 -0.968259)
(-0.398606 1.06821 -0.782769)
(-0.118774 0.312881 -0.784007)
(0.0475134 -1.25728 0.0505705)
(-0.136064 -1.0927 0.981298)
(-0.677792 -0.798569 1.28693)
(0.104996 0.486864 0.31878)
(0.75895 1.47161 -0.270017)
(0.967382 1.35798 -0.710158)
(0.828163 0.832796 -0.645754)
(-0.0642897 0.564922 -0.394865)
(0.349007 0.688866 -0.467392)
(0.799159 1.28206 -0.194506)
(0.611595 1.91965 -0.673626)
(0.340242 2.12293 -1.18946)
(0.374514 2.0149 -1.27046)
(0.214716 1.81063 -1.21171)
(-0.271725 1.16484 -1.51406)
(-0.0890706 1.20027 -0.917409)
(-0.502343 0.813591 -1.03398)
(-0.147926 0.327727 -0.256328)
(-0.913464 -0.888842 0.817166)
(-1.74018 -1.15394 -0.0770379)
(0.444759 1.12924 -0.316922)
(0.089669 1.10648 -0.474499)
(-0.276956 0.680402 -0.472527)
(-0.514036 0.340569 -0.286305)
(-0.455171 0.188339 -0.275745)
(-0.372507 0.220022 -0.648672)
(0.221978 0.381034 -0.514661)
(0.559933 0.820053 -0.473437)
(0.489124 1.0958 -0.838452)
(0.259245 1.2065 -1.07993)
(-0.157708 1.38203 -1.04216)
(-0.620605 1.09304 -1.26678)
(-0.753973 0.642918 -1.4253)
(-0.826291 0.565829 -1.3536)
(-0.205395 0.642475 -1.2451)
(-0.143136 0.489925 -0.325724)
(-0.748691 -0.443674 0.342754)
(-0.960769 1.74688 0.0994281)
(-0.94297 2.09759 -0.0425805)
(-0.773247 1.91559 0.113466)
(-0.675194 2.36853 0.157271)
(-0.539675 2.34242 0.0450761)
(-0.480248 2.3059 0.0551771)
(-0.653572 2.07478 -0.0579619)
(-0.317511 2.48651 0.249779)
(-0.398653 2.33679 0.143731)
(-0.285702 2.44646 -0.117198)
(-0.457656 2.43427 0.0911121)
(-0.819443 2.11093 -0.0399373)
(-0.486018 2.61685 0.427198)
(-0.199897 2.61664 0.214813)
(-0.195349 2.62975 0.130249)
(-0.281961 2.60255 0.200238)
(-0.50192 2.49361 0.0213167)
(-0.506598 2.27272 0.0431232)
(-0.134735 2.893 0.758465)
(0.127043 2.83193 0.560897)
(-0.0540215 2.86767 0.441414)
(0.136506 2.89244 0.327335)
(0.217985 2.94669 0.245024)
(0.260977 2.7931 0.0344118)
(-0.22063 2.52429 0.00743652)
(-0.598286 2.42636 0.171987)
(0.36874 3.09904 1.33338)
(0.185999 3.31665 0.997094)
(0.529708 3.45599 0.696995)
(0.251791 3.36705 0.601089)
(0.504299 3.4506 0.452374)
(0.53141 3.23581 0.53303)
(0.719458 3.21415 0.618852)
(-0.613745 3.09735 0.321054)
(-0.240519 2.61571 -0.0276949)
(0.695856 3.17706 1.71774)
(0.607066 3.33097 1.5162)
(0.626293 3.643 1.33292)
(0.841203 4.05338 0.858195)
(1.01945 4.04671 0.881397)
(1.50977 3.79579 0.749526)
(0.771463 3.8003 0.557088)
(1.126 3.67055 0.535822)
(1.17721 3.44816 -0.4016)
(0.447857 3.17132 0.0029862)
(0.692051 3.38316 1.95247)
(0.837376 3.67601 1.68746)
(0.669784 3.99213 1.49686)
(0.903607 3.99306 1.244)
(1.02337 4.2189 1.08826)
(1.22974 4.28994 1.03339)
(1.60279 4.19871 0.892503)
(1.48001 4.39867 0.697828)
(2.12356 4.17383 0.769442)
(2.12523 4.1869 0.223357)
(0.297457 3.69659 -0.4371)
(0.984577 2.66081 2.26215)
(0.732066 3.2276 1.84633)
(1.37948 3.36189 2.13885)
(1.57056 3.68084 1.93007)
(1.06774 4.10317 1.7686)
(1.07705 4.43952 1.59014)
(1.43834 4.42553 1.56081)
(1.71756 4.39792 1.4582)
(2.37961 4.31401 1.31882)
(3.52997 3.63473 1.58321)
(3.50701 3.18934 1.87)
(0.863708 4.08186 -0.652245)
(0.357728 2.38553 1.84738)
(1.1971 2.08028 2.16152)
(0.857094 2.44419 2.18623)
(1.18872 2.56886 2.05285)
(1.28678 2.98931 1.67617)
(1.04807 3.40829 1.93638)
(0.99915 3.82238 1.37814)
(1.39729 3.67528 1.36475)
(1.36059 3.55871 1.38489)
(1.52323 3.44904 2.32336)
(3.99498 2.05899 2.1987)
(5.7724 0.846734 2.70763)
(1.75079 4.83629 -0.665808)
(0.287631 2.35665 -0.0578636)
(0.495315 2.43869 -0.0732049)
(0.0178951 2.30823 0.221486)
(0.669744 1.92885 0.126494)