/*--------------------------------*- C++ -*----------------------------------*\
  =========                 |
  \\      /  F ield         | OpenFOAM: The Open Source CFD Toolbox
   \\    /   O peration     | Website:  https://openfoam.org
    \\  /    A nd           | Version:  7
     \\/     M anipulation  |
\*---------------------------------------------------------------------------*/
FoamFile
{
    version     2.0;
    format      ascii;
    class       volVectorField;
    location    "10";
    object      U_0;
}
// * * * * * * * * * * * * * * * * * * * * * * * * * * * * * * * * * * * * * //

dimensions      [0 1 -1 0 0 0 0];

internalField   nonuniform List<vector> 
18750
(
(1.4748 -0.485635 -0.274243)
(-0.762615 -0.770984 0.460797)
(3.32837 0.0212405 -1.76729)
(1.20142 -0.562004 -0.139872)
(-1.34878 0.147939 -1.70719)
(2.17748 -0.0575034 -0.137824)
(-1.25545 -0.856355 0.377253)
(-0.131582 0.698017 -1.54883)
(3.04411 -0.0222186 -1.39795)
(0.909647 -0.616101 -0.0430292)
(-3.30576 2.34406 0.333766)
(0.465347 4.01406 0.268858)
(-1.71703 -0.268552 -2.44117)
(0.168985 1.26844 0.216992)
(1.12262 -0.14935 0.0881463)
(-1.59467 -0.941321 0.378835)
(-0.81427 0.652793 -1.44318)
(-0.137012 0.697973 -1.47166)
(2.65766 -0.0460808 -1.13374)
(0.60542 -0.634783 0.0228432)
(-2.91545 2.69792 -0.537217)
(-0.108336 2.32026 1.88596)
(-3.7499 2.36969 0.167525)
(-1.34027 1.37961 4.25584)
(-0.0638233 -0.0794178 0.173204)
(-2.14645 -0.618827 -1.79564)
(-1.27325 1.07488 -0.218106)
(0.166631 1.17241 0.241)
(0.374044 -0.259758 0.297033)
(-1.83171 -1.0083 0.268603)
(-0.704275 0.560215 -1.63849)
(-0.813684 0.629661 -1.49661)
(-0.156965 0.698234 -1.40686)
(2.2175 -0.0432916 -0.947972)
(0.294473 -0.63976 0.065117)
(-2.63491 3.73346 0.0554473)
(-0.285658 3.69463 1.05636)
(-2.86954 3.19596 -0.155977)
(-1.79211 2.60933 1.8446)
(-0.702621 2.57064 1.51096)
(-3.88051 2.36461 0.283327)
(-1.1007 0.674138 1.87129)
(-1.40045 1.09062 4.23985)
(-1.15959 -3.94891 0.553452)
(-2.42304 -0.808029 -1.3615)
(-0.449771 1.53693 -0.765672)
(-1.09946 0.988657 -0.225631)
(0.178517 1.05536 0.222192)
(-0.553192 -0.220548 0.47657)
(-2.2665 -0.903876 0.213232)
(-0.464409 0.972562 -1.46103)
(-0.717641 0.581461 -1.6119)
(-0.827126 0.628421 -1.45941)
(-0.164263 0.703965 -1.35601)
(1.76381 -0.014311 -0.813225)
(-0.0247244 -0.606183 0.0970412)
(-1.6478 3.42838 0.396803)
(-1.08166 4.47644 0.648308)
(-1.77412 4.12797 0.334784)
(-0.620239 4.02231 0.94142)
(-1.00526 3.67672 1.62823)
(-2.65003 3.59614 -0.482157)
(-1.30743 1.83962 2.58299)
(-1.50298 2.72382 1.59228)
(-2.0822 2.48404 1.71034)
(-3.46503 2.49365 0.144105)
(-0.238182 1.16665 0.643058)
(-1.01442 0.589327 1.15705)
(-1.28361 0.74914 3.27733)
(-1.53631 -2.14392 0.792077)
(-2.61586 -0.995351 -0.9975)
(-0.468213 1.66248 -1.43131)
(-0.494796 1.48052 -0.671936)
(-1.01563 0.908389 -0.346718)
(0.169571 0.939976 0.241561)
(-1.08338 -0.251302 0.588505)
(-2.27042 -1.19314 -0.0791015)
(-0.183138 1.36773 -1.17775)
(-0.520827 0.969922 -1.44645)
(-0.749969 0.558964 -1.6058)
(-0.833458 0.620575 -1.42878)
(-0.19533 0.696845 -1.30515)
(1.32849 0.0407399 -0.706671)
(-0.182748 -0.580634 0.113074)
(-2.36808 2.53561 0.398509)
(-1.7562 3.34394 0.436147)
(-1.42237 3.5775 0.420147)
(-0.017384 4.16426 1.2837)
(-1.12226 4.46849 0.657252)
(-0.996089 4.32177 0.44849)
(-0.86846 3.88057 1.48306)
(-1.4298 4.3233 1.01164)
(-1.22651 4.29561 1.74647)
(-1.54754 3.93038 -0.309402)
(-0.670006 0.739662 2.23663)
(-1.24392 1.88339 2.60297)
(-1.38653 2.86928 1.66738)
(-1.86749 2.43696 1.68935)
(-3.09988 2.46711 0.408185)
(-0.892281 1.57244 -0.0900857)
(-0.354523 0.596248 1.1317)
(-0.836911 0.3407 0.777916)
(-1.19523 0.662535 2.6993)
(-1.80113 -1.60399 0.925277)
(-2.70326 -0.955691 -0.480011)
(0.00286621 1.93222 -1.52043)
(-0.374582 1.57648 -1.45529)
(-0.390473 1.448 -0.809389)
(-0.927938 0.855425 -0.397321)
(0.172089 0.822267 0.221161)
(-1.3934 -0.394712 0.728665)
(-2.27757 -0.988518 -0.081471)
(0.302451 1.25861 -1.1179)
(-0.178349 1.37623 -1.17025)
(-0.545424 0.98623 -1.44563)
(-0.726341 0.584046 -1.59709)
(-0.834838 0.615012 -1.41046)
(-0.233816 0.697964 -1.28323)
(0.931286 0.120968 -0.617709)
(-0.386684 -0.550219 0.136225)
(-2.38288 2.16141 -0.0199406)
(-2.09291 2.89767 0.609722)
(-2.16173 2.72935 0.58902)
(-1.17697 3.75186 1.08072)
(-1.80372 3.41519 0.415899)
(-1.11604 3.59286 0.509176)
(-0.523625 4.34591 1.10848)
(-0.166374 4.25757 1.25644)
(-1.17207 4.56936 0.763936)
(0.368657 4.75769 0.54891)
(-0.208606 3.77696 2.11697)
(-0.778276 4.23921 1.17886)
(-1.66766 4.33755 2.13287)
(-0.972688 4.74071 1.92157)
(0.927972 4.35206 0.279273)
(-0.535735 0.740002 1.95165)
(-0.600529 0.749629 1.87443)
(-0.863566 1.76246 2.59376)
(-1.20999 2.70162 1.86943)
(-1.67457 2.47001 1.60181)
(-2.06967 2.67147 0.672807)
(-0.241365 1.94731 -1.29118)
(-0.409059 1.37102 -0.00131656)
(-0.189516 0.804374 0.223851)
(-0.661471 0.152842 0.610848)
(-1.25615 0.425728 2.06435)
(-2.22679 -2.02197 0.985471)
(-2.62966 -1.1097 -0.282233)
(0.341004 2.03439 -1.40645)
(0.037665 1.92932 -1.47409)
(-0.395471 1.53623 -1.44724)
(-0.391447 1.43826 -0.749243)
(-0.842709 0.798947 -0.548731)
(0.158227 0.685186 0.241067)
(-1.38194 -0.394101 0.842016)
(-2.14212 -1.20831 -0.094682)
(0.551782 1.13923 -0.846924)
(0.296595 1.26152 -1.16366)
(-0.157524 1.35963 -1.15761)
(-0.52981 0.995519 -1.4359)
(-0.735975 0.577137 -1.58865)
(-0.83324 0.607566 -1.39554)
(-0.170455 0.684003 -1.29242)
(0.598661 0.214653 -0.539954)
(-0.553678 -0.503185 0.157395)
(-1.58636 2.38437 -0.165862)
(-1.34548 3.3574 0.283027)
(-1.96924 2.68822 -0.271668)
(-1.60259 3.4535 0.835493)
(-1.87521 3.08215 0.477657)
(-2.06996 2.78112 0.726225)
(-1.3717 3.61407 2.15676)
(-0.664135 3.70714 1.23392)
(-1.62442 3.48745 0.540993)
(-0.687691 3.70666 0.511305)
(-0.676993 4.62906 1.46219)
(-0.465444 4.14565 1.41143)
(0.184318 4.53977 0.878403)
(-1.22259 4.59271 0.90738)
(0.534169 4.79895 0.518616)
(0.513436 3.26124 1.32616)
(-0.0298128 3.84897 1.67103)
(-0.521051 4.22941 1.42329)
(-1.44803 4.51918 2.00954)
(-0.0592888 4.72102 1.76299)
(2.68032 4.25389 1.38408)
(0.0868123 1.76803 1.7621)
(-0.576453 0.784057 2.09187)
(-0.620517 0.686649 1.72739)
(-0.758847 1.51466 2.15596)
(-1.82682 2.50166 0.766514)
(-1.26454 2.39785 1.35978)
(-0.640295 2.80938 0.675441)
(0.379909 2.40564 -1.19296)
(-0.300482 1.92616 -1.28342)
(-0.395434 1.24091 -0.159761)
(-0.137295 0.617512 0.100324)
(-0.493083 -0.032858 0.2953)
(-1.19138 0.0468469 1.84471)
(-2.09922 -1.49012 0.977099)
(-2.44668 -1.09161 -0.212907)
(0.436654 2.07654 -1.19149)
(0.4019 2.05173 -1.34409)
(0.0225381 1.90744 -1.44413)
(-0.419803 1.56188 -1.40206)
(-0.362553 1.37667 -0.85055)
(-0.77255 0.745523 -0.665061)
(0.142922 0.559897 0.262302)
(-1.34984 -0.483147 0.895813)
(-2.03624 -1.1913 -0.0588125)
(0.630238 0.827259 -0.369459)
(0.540367 1.14653 -0.845119)
(0.306722 1.26618 -1.15145)
(-0.137307 1.35213 -1.12774)
(-0.576693 1.00844 -1.40726)
(-0.720144 0.57895 -1.58307)
(-0.823115 0.602574 -1.38636)
(-0.172024 0.668637 -1.28557)
(0.338999 0.307348 -0.466752)
(-0.663961 -0.473291 0.20603)
(-1.66916 1.89517 0.0163272)
(-1.37351 2.8632 -0.00646235)
(-1.51305 2.46201 -0.0931334)
(-0.728788 3.6351 0.188171)
(-1.20454 3.42183 0.577643)
(-2.09128 2.72554 -0.76472)
(-1.27683 3.40892 1.16159)
(-1.3704 3.53055 0.898528)
(-1.64905 3.46984 0.429466)
(-1.88604 2.87805 0.570479)
(-1.22802 4.19612 1.58795)
(-0.865412 4.04999 1.22146)
(-1.12625 3.87087 0.788076)
(-1.48795 3.43826 0.859471)
(-0.997936 3.65163 0.397527)
(0.00206501 4.59102 2.04393)
(-0.130762 4.60207 1.33564)
(0.153062 4.25922 1.44103)
(-0.300237 4.73403 0.973483)
(-1.01809 4.67342 1.46874)
(1.03688 4.55458 0.738433)
(0.175954 1.8962 2.8073)
(0.643612 3.24541 1.19694)
(0.271855 3.6879 1.58368)
(-0.0136017 4.08437 1.55073)
(-0.957401 4.45999 2.11556)
(1.29783 4.33622 1.58238)
(3.22644 5.01037 1.63291)
(0.52145 2.38597 0.0918378)
(0.255286 1.61837 1.68567)
(-0.39447 0.897384 1.90808)
(-0.616633 0.636888 1.58053)
(-0.627551 1.43849 1.54602)
(-0.930352 2.16811 0.751669)
(-0.659857 2.29643 0.936977)
(0.660421 2.55087 0.329988)
(0.691868 2.44086 -1.13217)
(0.448218 2.39425 -1.09039)
(-0.337828 1.86054 -1.23599)
(-0.554913 1.18774 -0.366275)
(-0.100778 0.574216 -0.0939433)
(-0.309964 -0.249285 0.121825)
(-1.02084 -0.124495 1.66944)
(-1.97929 -1.28887 1.01661)
(-2.16544 -1.01174 -0.228496)
(0.813316 1.69141 -0.702247)
(0.432025 2.09932 -1.16389)
(0.417285 2.067 -1.30204)
(0.0547073 1.87555 -1.40524)
(-0.592073 1.51432 -1.37586)
(-0.294181 1.34297 -0.894999)
(-0.71783 0.710593 -0.739238)
(0.143418 0.431343 0.248308)
(-1.28265 -0.599622 0.946187)
(-1.94255 -1.24105 -0.0495666)
(0.220175 0.390754 -0.469855)
(0.613156 0.823112 -0.39496)
(0.535692 1.14673 -0.826263)
(0.321019 1.26177 -1.09883)
(-0.150141 1.37204 -1.14292)
(-0.575186 0.998014 -1.41358)
(-0.712523 0.582025 -1.57274)
(-0.820545 0.599501 -1.37225)
(-0.16512 0.656621 -1.28364)
(0.154315 0.380983 -0.402346)
(-0.669549 -0.481571 0.234685)
(-1.23222 2.3533 0.122337)
(-1.53928 2.00931 0.0286052)
(-1.38549 3.01754 -0.067194)
(-0.930771 3.23817 -0.129515)
(-1.32876 2.5753 -0.0111612)
(-0.805906 3.41433 0.764474)
(-0.504566 3.75304 0.0633866)
(-0.318704 3.53589 0.916185)
(-1.81531 2.92329 -0.671932)
(-1.00688 3.71628 1.39051)
(-0.542633 3.82837 1.13823)
(-0.328582 3.8285 1.00864)
(-1.33142 3.72823 0.756235)
(-1.79797 3.05257 0.600838)
(-0.51796 4.51582 1.55308)
(-1.15712 4.2708 1.6239)
(-0.668171 3.99967 1.57917)
(-1.19904 4.03784 0.572716)
(-0.79473 3.60001 0.871294)
(-0.848077 3.516 0.130225)
(0.864927 4.42625 2.11359)
(0.103244 4.56435 1.74246)
(0.0174821 4.31165 1.60128)
(0.304543 4.25237 1.46998)
(-0.309117 4.81937 1.21604)
(-0.692103 4.75839 1.60798)
(1.31007 4.40501 0.751559)
(0.565742 1.83261 1.98442)
(0.265447 1.99735 2.03498)
(0.611962 3.2403 0.980233)
(0.246457 3.61441 1.12442)
(-0.214425 4.03019 1.29187)
(-0.153159 4.21565 2.31767)
(2.20346 4.00633 1.43272)
(2.91975 5.50251 1.26157)
(0.0379807 2.44883 -0.253114)
(0.354891 2.1464 0.288938)
(0.231176 1.36962 1.45232)
(-0.335791 0.864826 1.77789)
(-0.697106 0.631391 1.48439)
(-0.479953 1.31044 1.03168)
(-0.476807 1.7198 0.41145)
(0.238732 2.13308 0.474895)
(1.80123 2.06378 -0.0422634)
(0.503923 2.40969 -1.12014)
(0.708137 2.42201 -1.10892)
(0.525584 2.39858 -0.995528)
(-0.261304 1.81351 -1.27575)
(-0.628527 1.14152 -0.438066)
(-0.0925981 0.487778 -0.288483)
(-0.1832 -0.434163 0.0574381)
(-0.871602 -0.344677 1.41943)
(-1.84167 -1.1659 1.0644)
(-1.74279 -0.854223 -0.210185)
(0.33765 1.2656 -0.492397)
(0.820403 1.70944 -0.687861)
(0.453367 2.16342 -1.16737)
(0.387149 2.09319 -1.26189)
(0.114232 1.87198 -1.35045)
(-0.502225 1.37089 -1.47714)
(-0.191595 1.30967 -0.944705)
(-0.682297 0.701316 -0.775855)
(0.147665 0.316761 0.191308)
(-1.15955 -0.649994 0.951246)
(-1.87945 -1.26326 -0.0530488)
(-0.231189 0.140837 -0.670873)
(0.202121 0.390749 -0.455761)
(0.576483 0.847977 -0.423176)
(0.52777 1.14661 -0.825391)
(0.301812 1.24822 -1.10201)
(-0.148592 1.3788 -1.13815)
(-0.567648 1.01628 -1.38873)
(-0.719869 0.59665 -1.54941)
(-0.808436 0.592001 -1.36791)
(-0.151013 0.643809 -1.28436)
(0.0525432 0.409945 -0.365647)
(-0.66032 -0.487227 0.254996)
(-1.31736 1.89334 0.0426233)
(-0.793721 2.62279 0.168175)
(-1.17467 2.38058 0.0570674)
(-1.43536 2.1105 0.120292)
(-0.752607 3.29825 0.283403)
(-0.928832 3.13895 0.065682)
(-1.45451 3.21623 -0.271729)
(-0.892669 2.70088 0.0173414)
(-0.684106 3.87811 0.255076)
(-0.46074 3.54005 0.818289)
(-0.291158 3.77595 0.206106)
(0.830968 3.63376 0.917596)
(-0.996409 3.15883 -0.98567)
(-0.200926 4.14202 1.41707)
(-0.147182 3.94322 1.34212)
(-0.761272 3.86867 0.955853)
(-0.352898 3.98608 0.843554)
(-0.521288 4.04617 0.768678)
(-1.50024 3.32925 0.110629)
(0.121019 4.57151 1.63891)
(0.23932 4.52393 1.50668)
(-0.341988 4.20968 1.75341)
(-0.41175 4.10143 1.59916)
(-0.881819 4.198 0.377876)
(-0.74357 3.51685 1.05802)
(-0.54741 3.30977 -0.0487179)
(0.074522 3.5147 2.28264)
(1.00666 4.28808 2.03287)
(-0.0683619 4.64857 1.28863)
(0.0323312 4.13736 1.60675)
(0.533819 4.03597 1.54956)
(-0.311137 4.71892 1.86027)
(-0.035345 4.46636 2.04856)
(1.01 4.88765 0.589346)
(0.824742 2.02373 1.35266)
(0.560974 1.65549 1.4655)
(0.600833 2.04871 1.2964)
(0.685012 2.94383 0.606266)
(0.274605 3.37536 1.02204)
(-0.128079 4.01831 1.41486)
(0.33904 3.83305 2.44636)
(2.94844 3.68103 1.25819)
(3.31168 5.24167 1.03814)
(0.0861649 2.49389 -0.774177)
(0.0779064 2.30098 -0.400925)
(0.340624 2.02781 0.0440488)
(0.437764 1.45491 0.861166)
(-0.30192 0.886255 1.86534)
(-0.805688 0.60375 1.31358)
(-0.560086 1.0698 0.725284)
(-0.075135 1.40669 -0.183371)
(0.579587 1.74265 0.199985)
(4.16046 0.500918 -0.734404)
(0.646808 2.30949 -0.803414)
(0.534102 2.40111 -1.07375)
(0.733173 2.42075 -1.10172)
(0.47392 2.36254 -1.01289)
(-0.157102 1.8135 -1.26759)
(-0.630736 1.10127 -0.567428)
(-0.0895309 0.428905 -0.364816)
(-0.0984923 -0.63579 0.0247633)
(-0.726012 -0.472089 1.22131)
(-1.69938 -1.13132 1.12911)
(-1.33223 -0.596756 -0.128786)
(-0.221654 0.535603 0.0307038)
(0.607363 1.28006 -0.416268)
(0.859297 1.73345 -0.6329)
(0.431661 2.17773 -1.19631)
(0.404869 2.08893 -1.25176)
(0.0665567 1.89955 -1.28428)
(-0.344879 1.4027 -1.46641)
(-0.188544 1.28529 -0.953574)
(-0.67263 0.705373 -0.782077)
(0.131395 0.233004 0.0984932)
(-1.1189 -0.713827 0.95303)
(-1.79776 -1.28915 -0.0645784)
(-0.243728 0.115234 -0.235261)
(-0.269578 0.15202 -0.67092)
(0.187433 0.390422 -0.453872)
(0.524558 0.861652 -0.462895)
(0.478349 1.15823 -0.873148)
(0.279825 1.25891 -1.11016)
(-0.138381 1.36342 -1.10143)
(-0.587534 1.02586 -1.38168)
(-0.72855 0.602708 -1.53114)
(-0.794328 0.588449 -1.36543)
(-0.148647 0.63644 -1.28104)
(0.00879937 0.448223 -0.346617)
(-0.633024 -0.450076 0.273748)
(-1.38836 1.8143 0.045272)
(-1.18039 2.121 0.0418477)
(-1.15002 2.01028 0.0838208)
(-0.965813 2.74321 0.102376)
(-0.614258 2.72816 0.118264)
(-1.1613 2.37104 0.0739612)
(-1.24361 2.20093 0.161352)
(-0.608523 3.01897 0.46147)
(-0.466153 3.3815 0.306623)
(-0.360664 3.26878 0.282794)
(-1.60981 3.09974 -0.100282)
(-0.591557 2.71409 0.025239)
(-0.148062 3.87393 0.948024)
(-0.514823 3.91105 0.387299)
(-0.0895025 3.75931 0.766113)
(0.226288 3.84795 0.2451)
(0.559613 3.84505 0.357329)
(-0.647288 3.18346 -0.423357)
(0.0049309 4.00378 1.42563)
(-0.178294 4.13243 1.34736)
(0.0390178 4.06573 1.31743)
(-0.254038 4.0126 0.746927)
(0.419798 4.09343 0.771832)
(-0.117849 4.03391 0.944621)
(-1.13446 3.48463 0.0800878)
(0.527072 4.51993 1.77851)
(0.257097 4.51621 1.70747)
(0.368194 4.5282 1.5013)
(0.0217612 4.18484 1.62425)
(-0.723183 4.31994 0.881736)
(-0.543746 4.33727 0.36611)
(0.1136 3.774 1.30175)
(-0.494822 3.15746 -0.179792)
(0.94488 3.06064 1.949)
(0.934881 3.56156 1.83753)
(0.659999 4.48659 1.45734)
(0.158522 4.46077 1.42951)
(0.499451 4.11993 1.32252)
(0.522877 4.01013 1.56869)
(-0.226792 4.75151 2.04104)
(0.411663 4.19562 2.07446)
(-0.227716 5.73036 0.175211)
(1.00467 1.832 0.730527)
(0.842114 1.98216 0.944699)
(0.83003 1.56235 0.903267)
(1.10265 1.81547 0.759494)
(1.00222 2.74396 -0.138442)
(0.459333 3.19947 0.799648)
(-0.149693 3.7829 1.6534)
(0.894492 3.45606 2.18074)
(3.36699 3.36865 1.08972)
(4.03545 4.66797 0.996575)
(0.370247 2.35276 -0.866883)
(0.403962 2.3879 -1.09309)
(0.0625336 2.26316 -0.388212)
(0.296092 1.98182 -0.206727)
(0.426477 1.27266 0.703891)
(-0.247813 0.814926 1.75337)
(-0.693776 0.767677 1.03248)
(-0.541488 0.981493 0.503052)
(0.26859 1.08478 -0.382557)
(1.84244 1.42667 -0.270064)
(4.88948 -0.141828 -1.03911)
(0.694498 2.01474 -0.728958)
(0.722571 2.30184 -0.871064)
(0.530473 2.38619 -1.09605)
(0.223298 2.36386 -1.37899)
(0.418958 2.3604 -0.955213)
(-0.125639 1.79641 -1.29751)
(-0.626548 1.08427 -0.704917)
(-0.0925689 0.357612 -0.557785)
(-0.0221593 -0.835082 -0.0162615)
(-0.581774 -0.73094 1.09452)
(-1.50173 -1.03222 1.14772)
(-0.901731 -0.265335 -0.0559362)
(-0.00106285 0.304255 -0.173794)
(-0.124943 0.607259 -0.379351)
(0.751283 1.26454 -0.347514)
(0.831662 1.76474 -0.683248)
(0.428573 2.14826 -1.17732)
(0.398407 2.09396 -1.23251)
(0.0303946 1.88137 -1.25814)
(-0.356595 1.28716 -1.53556)
(-0.125842 1.25276 -0.990286)
(-0.639006 0.713905 -0.809747)
(0.0936874 0.208636 -0.0153963)
(-1.0707 -0.790936 0.937987)
(-1.81345 -1.22705 -0.0678398)
(-0.350875 0.25996 -0.333058)
(-0.295127 0.127323 -0.218317)
(-0.31131 0.157486 -0.676995)
(0.193728 0.394287 -0.445065)
(0.564715 0.841627 -0.454662)
(0.45659 1.14469 -0.913649)
(0.283846 1.24147 -1.11714)
(-0.146465 1.35204 -1.08704)
(-0.600369 1.04528 -1.35902)
(-0.736217 0.61251 -1.51494)
(-0.794226 0.586825 -1.3597)
(-0.152768 0.63302 -1.27393)
(-0.0488968 0.464365 -0.327797)
(-0.70749 -0.561502 0.252326)
(-0.945677 2.00829 -0.21119)
(-1.05992 2.18514 0.0129415)
(-1.21627 1.95035 -0.00438738)
(-0.771222 2.46639 0.0918327)
(-0.952732 2.32866 -0.019172)
(-0.964106 2.08911 0.102948)
(-0.598478 2.77887 0.225445)
(-0.519145 2.88027 0.132022)
(-0.45485 2.79072 0.105614)
(-0.821405 2.4825 0.0150163)
(-1.00984 2.2605 0.20256)
(-0.700769 3.16503 0.415694)
(-0.219565 3.16523 0.440086)
(-0.240346 3.39493 0.3356)
(-0.0613514 3.33401 0.494987)
(-1.13023 3.06758 -0.0289264)
(-0.25761 2.79101 -0.0611781)
(-0.173116 3.71941 1.25702)
(0.0240623 3.95855 1.01304)
(-0.00946482 3.94634 0.565048)
(0.181006 3.9154 0.598913)
(0.356534 3.82925 0.305954)
(0.866618 3.86628 0.186719)
(0.135791 3.25626 -0.0412839)
(0.246776 4.02252 1.60716)
(0.123588 4.11802 1.40026)
(-0.124052 4.12557 1.27632)
(0.191607 4.06671 1.166)
(0.435458 4.25769 0.763671)
(1.72432 4.04897 0.17917)
(0.806352 4.24393 1.00594)
(-0.601725 3.62005 0.119023)
(0.476571 4.03249 1.71574)
(0.861602 4.433 1.76964)
(0.50476 4.35591 1.80382)
(0.119992 4.44663 1.74567)
(0.281694 4.4203 1.42793)
(0.844956 4.23115 1.69391)
(1.0614 4.48503 1.08719)
(0.331851 3.84509 1.30754)
(-0.106715 3.27664 -0.351028)
(0.52483 2.59974 2.18995)
(1.2058 2.98083 1.77792)
(1.01679 3.57719 1.8373)
(0.735145 4.17681 1.59759)
(0.319815 4.2731 1.54369)
(0.444081 4.01679 1.30426)
(0.625399 4.07202 1.61665)
(0.285435 4.58141 1.9376)
(0.416402 4.24062 1.98138)
(0.602459 5.53644 0.121015)
(0.190718 1.92117 0.97877)
(1.08373 1.9235 0.345195)
(1.03504 1.9395 0.632685)
(1.10707 1.54474 0.509705)
(0.831093 1.8088 0.497252)
(0.715903 2.59576 0.193999)
(0.616123 2.89639 0.88064)
(-0.170074 3.23315 1.52904)
(1.5292 2.77548 1.81853)
(3.87774 2.5921 0.868766)
(5.43555 1.99869 1.86401)
(0.71599 2.58899 -0.754748)
(0.645265 2.34804 -1.11165)
(0.502991 2.38405 -1.00377)
(0.113917 2.25397 -0.600555)
(0.243499 1.92949 -0.164741)
(0.610773 1.16019 0.295598)
(0.0144355 0.70537 1.33265)
(-0.587997 0.65418 0.942647)
(-0.313818 0.676386 0.147094)
(0.712929 0.861992 -0.857746)
(2.68755 0.952871 -0.346719)
(4.5313 -0.0986359 -0.689762)
(1.15197 1.47187 -0.570978)
(0.766444 2.06218 -0.956428)
(0.773362 2.31716 -0.870582)
(0.564626 2.4152 -1.09385)
(0.219087 2.41456 -1.1359)
(0.3006 2.40542 -0.867303)
(0.0265718 1.8614 -1.17999)
(-0.553975 1.04576 -0.549711)
(-0.114048 0.341415 -0.681845)
(0.00395304 -0.995353 -0.0328556)
(-0.327147 -0.914439 0.892508)
(-1.23073 -0.933624 1.21528)
(-0.497651 0.0301568 0.0244796)
(0.371729 0.737628 -0.417729)
(-0.117163 0.393609 -0.261487)
(-0.0165098 0.643132 -0.505955)
(0.732976 1.28769 -0.293241)
(0.738613 1.82446 -0.746305)
(0.410171 2.14324 -1.17363)
(0.352008 2.09258 -1.23283)
(0.124873 1.88671 -1.20333)
(-0.335575 1.25035 -1.52119)
(-0.26953 1.32673 -0.852558)
(-0.594825 0.736329 -0.887993)
(0.0335952 0.202918 -0.0717814)
(-1.01423 -0.831594 0.911653)
(-1.77743 -1.25876 -0.0953883)
(-0.357703 0.641365 -0.442265)
(-0.415109 0.27861 -0.320772)
(-0.346045 0.140184 -0.222051)
(-0.341431 0.176734 -0.667739)
(0.25055 0.397904 -0.441081)
(0.581001 0.83331 -0.436345)
(0.489517 1.13041 -0.880114)
(0.279169 1.23752 -1.1036)
(-0.1412 1.35378 -1.08635)
(-0.626422 1.07966 -1.32293)
(-0.733192 0.62818 -1.49458)
(-0.805179 0.581351 -1.3494)
(-0.165375 0.632036 -1.26397)
(-0.139423 0.484039 -0.307513)
(-0.741586 -0.487051 0.312555)
(-0.79098 2.28272 0.0718611)
(-0.836698 2.05086 -0.193197)
(-0.49546 2.37806 0.0134467)
(-0.666977 2.35431 0.000668158)
(-1.06924 2.02694 0.0510057)
(-0.497323 2.55591 0.110652)
(-0.459005 2.54216 0.11796)
(-0.857211 2.45542 0.0146733)
(-0.70949 2.17119 0.0680173)
(-0.393536 2.7877 0.393071)
(-0.287033 2.83411 0.268469)
(-0.313184 2.93393 0.225363)
(-0.178046 2.86295 0.0476364)
(-0.214288 2.58388 0.0498991)
(-0.902863 2.29995 0.201194)
(0.540816 3.21051 0.722793)
(-0.221396 3.29521 0.445286)
(-0.0355773 3.27105 0.419361)
(0.0479141 3.36908 0.384489)
(0.139454 3.33484 0.512647)
(-0.682084 3.11165 -0.0477991)
(-0.696258 2.70397 0.0829408)
(0.355123 3.50561 1.35142)
(0.642742 3.80054 0.873724)
(0.310356 4.03135 0.839951)
(0.120436 4.00207 0.653452)
(0.595559 3.97205 0.496183)
(0.812361 3.66802 0.545376)
(1.19517 3.62541 -0.193772)
(0.340927 3.17881 -0.0352721)
(0.78859 3.84421 1.56218)
(0.465552 3.98687 1.49477)
(0.303684 4.13238 1.36592)
(0.318427 4.22286 1.20744)
(0.715955 4.11408 1.04058)
(1.00741 4.23169 0.883969)
(1.83433 4.07194 0.0607026)
(0.963793 4.5729 0.401188)
(-0.0936998 3.75923 -0.149468)
(1.51369 3.47845 1.80732)
(0.834833 3.90726 1.76746)
(0.880879 4.42731 1.81737)
(0.480911 4.41195 1.46623)
(0.440976 4.4621 1.66401)
(0.716954 4.38935 1.47629)
(1.03041 4.57596 1.26269)
(1.55601 4.51257 0.995723)
(1.51313 3.54193 1.54786)
(0.140472 3.56489 -0.387757)
(0.394794 2.39747 2.49001)
(1.1613 2.69118 1.89616)
(1.00616 2.97965 1.99552)
(1.75231 3.32457 1.609)
(0.358013 4.1543 1.47696)
(0.684124 4.10736 1.45538)
(1.13119 3.7893 1.27174)
(0.737815 3.98994 1.70991)
(0.782461 4.13686 2.09576)
(1.41211 3.98677 2.27359)
(0.711616 5.26246 -0.154436)
(0.132894 2.38243 -0.0669816)
(0.422009 1.91809 0.668952)
(1.18934 1.94377 0.216824)
(1.32073 1.91929 0.223384)
(1.01657 1.63374 0.412427)
(1.10222 1.58604 0.177805)
(0.930735 2.321 -0.129779)
(0.720769 2.6086 0.823848)
(0.921964 2.85126 0.970423)
(2.10523 2.04434 1.11254)
(4.29629 2.02261 0.793626)
(2.38034 4.18656 1.21311)
(0.626134 2.3619 -0.395602)
(0.767962 2.53824 -0.792555)
(0.748459 2.31557 -1.21235)
(0.778546 2.36642 -0.974482)
(0.132107 2.29761 -0.589904)
(0.203886 1.96055 -0.437374)
(0.623809 1.04963 -0.0322039)
(0.0223923 0.651321 0.717266)
(-0.379726 0.558102 0.729582)
(-0.235198 0.61366 -0.0682733)
(1.20596 0.538045 -1.52341)
(3.04291 0.838955 -0.0707543)
(3.80047 0.346204 -0.211503)
(1.42788 1.45327 -0.417214)
(1.35256 1.55808 -0.522151)
(1.18477 2.08756 -0.808558)
(0.89783 2.27846 -0.917854)
(0.59537 2.39416 -1.13701)
(-0.03071 2.38004 -1.17992)
(0.181903 2.38262 -0.893283)
(0.0801004 1.84875 -1.12501)
(-0.498091 1.04615 -0.639745)
(-0.125092 0.328071 -0.695915)
(0.0346822 -1.1358 -0.0268667)
(-0.241383 -0.964663 0.878042)
(-0.93614 -0.878466 1.24585)
(-0.181085 0.232375 0.158164)
(0.777175 1.27418 -0.742898)
(0.632067 0.796333 -0.541948)
(-0.177269 0.491473 -0.337483)
(0.138673 0.67986 -0.522548)
(0.745826 1.30062 -0.272609)
(0.712311 1.84709 -0.73894)
(0.429462 2.12957 -1.19397)
(0.348324 2.05537 -1.26024)
(0.162023 1.85874 -1.20904)
(-0.533727 1.44864 -1.28597)
(-0.0796477 1.19628 -0.993535)
(-0.555909 0.782392 -0.942116)
(-0.0803686 0.240104 -0.164722)
(-0.947394 -0.8794 0.862394)
(-1.70705 -1.16586 -0.0912945)
(0.0380384 1.09062 -0.382872)
(-0.319908 0.665352 -0.462779)
(-0.46826 0.307516 -0.308146)
(-0.39827 0.156606 -0.24328)
(-0.361327 0.196983 -0.656169)
(0.252635 0.369995 -0.503684)
(0.577414 0.819739 -0.470342)
(0.506226 1.11474 -0.857911)
(0.276427 1.21923 -1.10729)
(-0.148212 1.36864 -1.08148)
(-0.564147 0.990378 -1.38781)
(-0.744805 0.643575 -1.45938)
(-0.811411 0.569709 -1.35363)
(-0.177292 0.636389 -1.25358)
(-0.0839003 0.492899 -0.334324)
(-0.696634 -0.406767 0.329789)
(-0.870206 1.87232 0.129776)
(-0.627576 2.34079 -0.017629)
(-0.521169 2.32419 0.06265)
(-0.770578 2.06988 -0.177272)
(-0.4944 2.38604 0.14042)
(-0.345869 2.42303 -0.0690622)
(-0.503302 2.41124 0.0534828)
(-0.886511 2.09662 0.00330323)
(-0.357991 2.59883 0.222349)
(-0.208668 2.60828 0.073315)
(-0.244092 2.60916 0.182463)
(-0.701238 2.48894 0.0372185)
(-0.566127 2.21738 0.0967264)
(-0.15851 2.80342 0.624569)
(-0.27946 2.80817 0.409938)
(0.108678 2.8807 0.339832)
(0.0101763 2.94935 0.258987)
(-0.0523984 2.86508 0.00211742)
(-0.319867 2.49095 0.0659791)
(-0.643964 2.39463 0.143984)
(0.132391 3.13905 1.0774)
(-0.332571 3.41287 0.765327)
(-0.292959 3.33595 0.49541)
(0.321759 3.39636 0.347392)
(0.179926 3.32646 0.423748)
(0.385597 3.31081 0.525153)
(-0.611162 3.12112 0.280469)
(-0.312981 2.65149 0.0473162)
(0.515692 3.35227 1.55361)
(0.616615 3.58641 1.25438)
(0.420769 3.86493 1.19299)
(0.665937 4.05571 0.863008)
(0.811945 3.95772 0.663948)
(0.632035 4.00116 0.3957)
(0.900539 3.62335 0.470683)
(1.60633 3.38422 -0.397105)
(0.423645 3.17467 -0.00863769)
(0.86668 3.55441 1.74022)
(0.836959 3.85078 1.49858)
(0.665819 3.978 1.39674)
(0.463304 4.13862 1.2896)
(0.78271 4.29209 1.10427)
(1.43161 4.24787 0.942412)
(1.95543 4.05001 0.984475)
(1.66458 4.10754 1.23366)
(1.96003 4.46891 0.517129)
(0.0663753 3.76031 -0.253284)
(0.597576 2.88585 2.11188)
(0.780821 3.73367 1.83272)
(1.14931 3.92161 1.70677)
(1.03357 4.16755 1.8315)
(0.694327 4.4222 1.72285)
(1.08555 4.41108 1.55706)
(1.63476 4.28071 1.3326)
(1.11141 4.69854 1.30144)
(1.98218 4.34855 0.935467)
(3.027 3.29098 1.77591)
(0.418734 3.68353 -0.334762)
(1.08432 2.17498 2.07657)
(0.759531 2.35809 2.32657)
(1.22109 2.63075 1.94118)
(1.20462 2.99047 1.87921)
(1.42153 3.26648 1.77139)
(0.765779 3.92713 1.3202)
(1.17646 3.86228 1.39939)
(1.8064 3.53624 1.30737)
(0.78982 3.82992 1.83383)
(1.34829 3.79731 2.22712)
(3.31797 2.67519 2.48743)
(0.571673 5.47968 -0.67782)
(-0.0785399 2.61924 0.0248853)
(-0.123238 2.39169 0.173211)
(0.66338 1.92861 0.29072)
(1.1774 2.0138 -0.186898)
(1.35513 1.92023 0.0693419)
(1.12208 1.63748 0.263512)
(1.05498 1.46437 0.117958)
(0.996494 2.03438 -0.114729)
(0.680331 2.49364 0.338175)
(0.316936 2.69221 0.844255)
(2.47061 1.66573 0.578303)
(4.88447 1.20378 0.24333)
(2.24147 3.66974 0.929539)
(0.939371 2.21237 -0.464519)
(1.38389 2.15875 -0.447793)
(1.20142 2.40914 -0.868645)
(0.861981 2.29313 -1.27662)
(0.64043 2.37293 -1.14286)
(0.292322 2.3614 -0.764327)
(0.11431 2.06144 -0.623906)
(0.618224 1.01988 -0.309861)
(0.113463 0.52115 0.263822)
(-0.198672 0.38593 0.448749)
(-0.053436 0.394908 -0.342615)
(1.50661 0.320947 -2.29648)
(3.0961 0.768604 0.0218562)
(3.72868 0.361819 -0.0892994)
(1.07658 1.62585 -0.572068)
(1.50977 1.47381 -0.546853)
(1.4047 1.6768 -0.300421)
(1.45064 2.14174 -0.631124)
(0.905232 2.31904 -0.89781)
(0.606652 2.39297 -1.12564)
(0.268748 2.31241 -1.22023)
(0.182031 2.36557 -0.822029)
(0.158139 1.86113 -0.988615)
(-0.39289 1.07227 -0.793048)
(-0.112743 0.323938 -0.784921)
(0.0361151 -1.24206 0.0649803)
(-0.145535 -1.10318 0.969752)
(-0.690469 -0.810493 1.27949)
(0.0963973 0.460757 0.312356)
(0.733544 1.44881 -0.244254)
(0.961941 1.33924 -0.727907)
(0.833229 0.823539 -0.64798)
(-0.0740108 0.558937 -0.393144)
(0.347584 0.686941 -0.475281)
(0.807417 1.27897 -0.218538)
(0.647061 1.89905 -0.691524)
(0.371542 2.11854 -1.19655)
(0.393676 2.01367 -1.27733)
(0.22068 1.80908 -1.22595)
(-0.260723 1.1642 -1.52981)
(-0.0805324 1.20572 -0.924354)
(-0.494878 0.813379 -1.03154)
(-0.142738 0.31869 -0.248147)
(-0.902563 -0.892653 0.808256)
(-1.71472 -1.1455 -0.0828611)
(0.437904 1.12367 -0.33329)
(0.0756097 1.09763 -0.456504)
(-0.277852 0.679395 -0.469982)
(-0.505635 0.33959 -0.292672)
(-0.446091 0.185046 -0.276468)
(-0.366591 0.21869 -0.649332)
(0.233058 0.38369 -0.515122)
(0.580329 0.816368 -0.472689)
(0.498277 1.10262 -0.845808)
(0.270507 1.20493 -1.08742)
(-0.151312 1.3838 -1.06088)
(-0.611184 1.08894 -1.27908)
(-0.745967 0.64719 -1.43329)
(-0.811959 0.57224 -1.35505)
(-0.197046 0.6405 -1.24359)
(-0.14251 0.487501 -0.32184)
(-0.751388 -0.446097 0.339646)
(-0.963456 1.74573 0.102513)
(-0.941922 2.09799 -0.0406437)
(-0.771705 1.91565 0.110662)
(-0.676602 2.36727 0.160716)
(-0.538631 2.34127 0.0435805)
(-0.474284 2.3065 0.0571495)
(-0.652683 2.07474 -0.0604998)
(-0.324892 2.48421 0.251715)
(-0.397617 2.33575 0.14086)
(-0.282597 2.44574 -0.116253)
(-0.455478 2.43451 0.0898702)
(-0.818272 2.10988 -0.0385233)
(-0.491791 2.61622 0.42547)
(-0.203115 2.61602 0.21347)
(-0.188406 2.63144 0.128512)
(-0.279203 2.60361 0.198568)
(-0.499608 2.4928 0.0206772)
(-0.505929 2.2707 0.0443649)
(-0.15009 2.89339 0.763863)
(0.125347 2.83038 0.563129)
(-0.0488768 2.8671 0.439371)
(0.140121 2.8943 0.326938)
(0.222987 2.94768 0.244856)
(0.262213 2.79875 0.0313179)
(-0.221104 2.52337 0.00866263)
(-0.596769 2.427 0.170954)
(0.379773 3.09249 1.34489)
(0.195376 3.30437 1.00395)
(0.537176 3.45266 0.6948)
(0.251644 3.36814 0.593196)
(0.5137 3.45309 0.446518)
(0.526899 3.2408 0.529345)
(0.724872 3.21812 0.616487)
(-0.600595 3.11169 0.312636)
(-0.228206 2.61771 -0.0284271)
(0.679574 3.16595 1.7359)
(0.604747 3.31969 1.52507)
(0.644968 3.63261 1.33221)
(0.841657 4.03619 0.861111)
(1.03016 4.0435 0.879704)
(1.51729 3.79674 0.744822)
(0.767059 3.81653 0.542784)
(1.11567 3.66401 0.526544)
(1.22591 3.4456 -0.407721)
(0.463097 3.17522 0.00759784)
(0.68676 3.36275 1.96192)
(0.86646 3.66158 1.69088)
(0.692167 3.98343 1.49639)
(0.909452 3.98587 1.24736)
(1.00361 4.20668 1.09448)
(1.20943 4.28362 1.04285)
(1.61215 4.19224 0.894584)
(1.51712 4.37685 0.693583)
(2.11165 4.16934 0.798217)
(2.14284 4.19225 0.257715)
(0.296521 3.70115 -0.427425)
(1.04567 2.65186 2.26846)
(0.691741 3.21125 1.86443)
(1.38669 3.37008 2.12068)
(1.58784 3.67592 1.92104)
(1.09162 4.08346 1.77822)
(1.07824 4.42963 1.5971)
(1.44973 4.41803 1.56071)
(1.75625 4.37587 1.45684)
(2.30529 4.33106 1.28265)
(3.45922 3.65217 1.51499)
(3.45151 3.24928 1.80633)
(0.862808 4.01495 -0.59471)
(0.352016 2.38969 1.82907)
(1.21343 2.07538 2.16356)
(0.875104 2.42993 2.19881)
(1.201 2.56365 2.05769)
(1.2939 2.98273 1.69578)
(1.04902 3.41072 1.95292)
(1.00776 3.82319 1.36167)
(1.4216 3.66948 1.3734)
(1.38831 3.56061 1.38271)
(1.46457 3.49736 2.23983)
(3.74548 2.26725 2.25829)
(5.74907 0.832321 2.75028)
(1.60396 4.97285 -0.704976)
(0.306285 2.38282 -0.0477521)
(0.46788 2.45526 -0.0609404)
(0.00668689 2.31007 0.23654)
(0.674171 1.92327 0.15523)