/*--------------------------------*- C++ -*----------------------------------*\
  =========                 |
  \\      /  F ield         | OpenFOAM: The Open Source CFD Toolbox
   \\    /   O peration     | Website:  https://openfoam.org
    \\  /    A nd           | Version:  7
     \\/     M anipulation  |
\*---------------------------------------------------------------------------*/
FoamFile
{
    version     2.0;
    format      ascii;
    class       volScalarField;
    location    "7";
    object      nut;
}
// * * * * * * * * * * * * * * * * * * * * * * * * * * * * * * * * * * * * * //

dimensions      [0 2 -1 0 0 0 0];

internalField   nonuniform List<scalar> 
150000
(
0.00164065
0.00127102
0.00176124
0.00125552
0.00154407
0.00105858
0.00138642
0.00105431
0.00124786
0.00174848
0.00152542
0.00037767
0.000842064
0.00142902
0.00274664
0.00132493
0.00339251
0.00132713
0.0014957
0.00074239
0.000480504
0.00180298
0.00102154
0.0016553
0.00172681
0.000557517
0.000317785
0.000301745
0.000605552
0.00136169
0.00334264
0.00334055
0.00132459
0.00238495
0.00136087
0.000701152
0.000696106
0.000925396
0.00111848
0.0014568
0.000692063
0.00053153
0.000592804
0.000539058
0.00184927
0.00112839
0.0014672
0.00171645
0.000513603
0.000317589
0.000308385
0.000257892
0.000529653
0.000787561
0.00124114
0.00310873
0.00325224
0.00159603
0.00367879
0.00202175
0.000399935
0.000376401
0.0013026
0.00284603
0.00112992
0.000633254
0.000622689
0.000948793
0.00100893
0.00206903
0.00143762
0.00140771
0.00113166
0.000509819
0.00046253
0.000501194
0.000614918
0.000517483
0.0013113
0.00159243
0.00121464
0.00159927
0.000222597
0.000202518
0.000424266
0.000217938
0.000306437
0.000335345
0.000589378
0.000753819
0.00106133
0.00253012
0.00300498
0.00177092
0.00339037
0.0030315
0.00156969
0.000516102
0.0021058
0.00375394
0.00181706
0.000912416
0.00171178
0.00102555
0.000906018
0.00105307
0.00240406
0.00102335
0.00134874
0.000660709
0.000516217
0.000464335
0.000923025
0.000516799
0.000421539
0.00139245
0.00132649
0.00131488
0.000519113
0.000412215
0.000577932
0.000556518
0.000469059
0.000492809
0.000529151
0.00147148
0.00151834
0.000939545
0.00121896
0.000304482
0.000200475
0.00047963
0.000207583
0.000634137
0.000164092
0.00026356
0.000287835
0.000442341
0.0006881
0.000809806
0.00226609
0.00245564
0.000903787
0.00279125
0.00287213
0.00151682
0.00146874
0.00220606
0.00342356
0.00280143
0.00222195
0.00146227
0.00132126
0.00108779
0.00220624
0.00380476
0.00164329
0.00143794
0.00136292
0.000828678
0.000531926
0.000481744
0.000775398
0.00145504
0.00271121
0.000988484
0.00100986
0.000725188
0.000282192
0.0006744
0.000830616
0.000809432
0.000937543
0.0010637
0.00391833
0.0023516
0.00123512
0.00143595
0.000714216
0.000350172
0.000702039
0.000644445
0.000531046
0.000538704
0.000476815
0.000380531
0.000755559
0.000998858
0.00166743
0.000684157
0.0010049
0.000587136
0.000480635
0.000393942
0.000150967
0.00044053
0.000265985
0.000622207
0.000161147
0.000238246
0.000281545
0.00029419
0.000651644
0.00059297
0.00231725
0.00216196
0.000626972
0.00244689
0.00262454
0.00105518
0.000915402
0.0012809
0.00253224
0.0029413
0.00168422
0.000613735
0.000504988
0.00113915
0.00196471
0.00341281
0.00327175
0.00128729
0.00123582
0.000479141
0.000551098
0.00133808
0.00219283
0.00220394
0.00337703
0.00164993
0.00116012
0.00105891
0.00070392
0.000459999
0.00112241
0.000898347
0.000352628
0.000717818
0.00113969
0.00260954
0.00116883
0.000854262
0.000609188
0.000744947
0.000799138
0.000185903
0.000461255
0.000457507
0.000547031
0.00101635
0.000759716
0.00159569
0.00217166
0.00117009
0.00141368
0.000737875
0.000328905
0.000638875
0.000725463
0.000581684
0.000411554
0.000528004
0.000510242
0.000438009
0.000314306
0.000812359
0.000697832
0.002057
0.000574377
0.00051343
0.000630265
0.000216991
0.000292562
0.000157246
0.000351588
0.000337569
0.000414648
0.000234947
0.00047085
0.000188348
0.000281615
0.000389836
0.000350756
0.000652284
0.000439903
0.00233809
0.00237516
0.000703194
0.0025412
0.00229896
0.000726272
0.000311406
0.000798383
0.00240734
0.00251151
0.00161
0.000944059
0.000857833
0.000867486
0.00108757
0.00246897
0.00331162
0.00155006
0.000502676
0.000875404
0.000676381
0.00119036
0.00142532
0.00153404
0.00291361
0.00376677
0.00121516
0.00115811
0.000271565
0.000682395
0.00101746
0.000399899
0.00186315
0.00120749
0.00204454
0.00296466
0.00140684
0.000701211
0.00088935
0.000641298
0.00169788
0.000810887
0.000657827
0.000818452
0.00041464
0.00128382
0.000883834
0.00191
0.00272389
0.00124204
0.000852584
0.000915552
0.000560532
0.000172466
0.000213281
0.000646512
0.000686089
0.000563208
0.000611531
0.000616192
0.000780019
0.000762617
0.00163369
0.0018056
0.00110394
0.0012073
0.000850404
0.000366146
0.000527985
0.000811803
0.000622739
0.000451672
0.000385273
0.000474865
0.000512914
0.000447128
0.000394227
0.000404854
0.000580489
0.000560512
0.00172345
0.000578977
0.000384727
0.000864114
0.000278649
0.000319952
0.000173721
0.00032859
0.000384402
0.000355044
0.000231929
0.000473435
0.000238062
0.000393202
0.000177487
0.000204088
0.000332452
0.000462329
0.000651607
0.000400072
0.00254542
0.0023721
0.00062994
0.00275285
0.00230434
0.000913781
0.000638488
0.000692841
0.00259257
0.00253288
0.000551621
0.000497456
0.000454958
0.000348936
0.00062407
0.00245233
0.00261148
0.0011463
0.000833931
0.00108545
0.00141989
0.00105942
0.000701329
0.0008827
0.00219769
0.00326529
0.00122534
0.000528178
0.00138325
0.000981449
0.000583907
0.000331271
0.00161967
0.0018912
0.00150313
0.00297004
0.00326653
0.00220398
0.00100094
0.00127357
0.00120736
0.00048477
0.000825041
0.000892417
0.000735901
0.00132845
0.00252438
0.00216009
0.00293743
0.00184067
0.000899074
0.000564821
0.00079028
0.000365733
0.000436211
0.000656802
0.000550624
0.000597327
0.0022807
0.000436095
0.000393309
0.00140742
0.00242808
0.00222254
0.0014089
0.000982906
0.000698751
0.000835364
0.000228316
0.000786703
0.000399709
0.000712341
0.000480955
0.000797632
0.000611348
0.000429634
0.000422252
0.000482914
0.00105164
0.000810705
0.00171202
0.0010444
0.00125259
0.00103072
0.000495788
0.000476855
0.000660518
0.00069285
0.000542178
0.000396571
0.00028994
0.00037636
0.000528059
0.000507231
0.00040641
0.000345336
0.000423891
0.000426472
0.00050453
0.00164751
0.000593398
0.000279084
0.000942072
0.000461597
0.000289924
0.000143235
0.000308073
0.000406377
0.000303597
0.000224579
0.000181147
0.000255138
0.000558914
0.000349149
0.000368893
0.00022442
0.000215079
0.000358937
0.000620272
0.00063645
0.000367465
0.00224724
0.00250958
0.000748853
0.00258107
0.00243804
0.000651447
0.000274615
0.000552413
0.00285174
0.00242215
0.00075676
0.000545649
0.000656489
0.000360873
0.00114365
0.00253512
0.00247587
0.000789878
0.000457203
0.000771643
0.0008735
0.000412456
0.000363497
0.00102981
0.0024204
0.00275383
0.00108211
0.000932782
0.000950806
0.00116489
0.00136187
0.00112187
0.00108804
0.00102298
0.000627583
0.00242333
0.00307629
0.00168778
0.00127249
0.0012593
0.00128516
0.000926783
0.000516893
0.000178722
0.00031906
0.000575918
0.00204106
0.00131106
0.00250654
0.00404865
0.00147466
0.000928467
0.000892435
0.000906704
0.000941699
0.00107911
0.000715902
0.000346302
0.000846691
0.000760252
0.00121409
0.00123623
0.0017817
0.00257793
0.00255964
0.0011872
0.00065654
0.000738651
0.00241576
0.00136729
0.000615938
0.000475219
0.000433145
0.000700443
0.00075797
0.000739268
0.000564185
0.000518223
0.000812556
0.00164069
0.00231096
0.00154531
0.000875529
0.00115151
0.000954499
0.00102016
0.000371238
0.000496776
0.000564041
0.0004412
0.000461719
0.000489487
0.000839754
0.000583377
0.000474037
0.000848797
0.000891802
0.00126811
0.00151667
0.00130082
0.000974588
0.00118448
0.00121985
0.000664447
0.000544735
0.000542441
0.000626877
0.000474436
0.000358346
0.000267678
0.00029375
0.000329481
0.000375313
0.000506977
0.000471655
0.000359271
0.000272276
0.00049884
0.000411842
0.000377211
0.00141829
0.000603772
0.000317453
0.000954442
0.000183163
0.000288412
0.000124604
0.000212469
0.000400411
0.000260632
0.000202811
0.000170672
0.000208926
0.000201554
0.00027128
0.000546905
0.000367266
0.000334222
0.000267884
0.000217501
0.000341054
0.00048784
0.000589076
0.00026059
0.00216292
0.00219158
0.000511157
0.00241452
0.00252597
0.000546948
0.000340703
0.000828353
0.00265745
0.00233073
0.000615168
0.000287219
0.000857521
0.000619806
0.000737887
0.00253524
0.00244144
0.000802446
0.000517244
0.000555861
0.000527037
0.000727996
0.000667694
0.000821302
0.0026198
0.00241585
0.000414772
0.0006641
0.000866503
0.000668081
0.000466107
0.000635631
0.000713929
0.000701454
0.00133799
0.00255835
0.0028317
0.000886059
0.00123318
0.000976935
0.00106351
0.00116396
0.00124204
0.000709338
0.00140832
0.00108914
0.000744783
0.000679786
0.00240056
0.00304322
0.00142176
0.00212732
0.0014386
0.00168144
0.00128156
0.000649211
0.000609199
0.000868879
0.000972771
0.000595703
0.00126261
0.00162538
0.00116084
0.00285889
0.00382534
0.000768917
0.00105048
0.000985048
0.002011
0.000613048
0.000525781
0.000736274
0.000640837
0.000761674
0.000432469
0.000323011
0.000509583
0.00101967
0.000775811
0.00120224
0.00249431
0.00228196
0.000472052
0.000349315
0.00134403
0.00231167
0.000387458
0.000563383
0.000544199
0.000505916
0.000494612
0.000494545
0.000747611
0.00110173
0.000297322
0.000350883
0.000374473
0.00137556
0.00189819
0.00207937
0.00150396
0.000474469
0.000614208
0.000869313
0.000510252
0.000657258
0.000646128
0.000961563
0.000625103
0.000440256
0.000500199
0.000527347
0.000409258
0.000941064
0.000884396
0.000694459
0.000954052
0.000524568
0.000906101
0.00153304
0.00108021
0.00089305
0.00105678
0.00129318
0.000719065
0.000697705
0.000608769
0.000562059
0.000460132
0.000393741
0.000309403
0.000323156
0.000413875
0.000311903
0.000263694
0.000345974
0.000539912
0.000437367
0.000324032
0.000338217
0.000495357
0.000432747
0.00026107
0.00110238
0.000610714
0.000385671
0.000882578
0.000124598
0.000312291
0.00018406
0.000206293
0.000382249
0.000240194
0.000171167
0.000162492
0.000176452
0.000121485
0.000151624
0.000218916
0.000295052
0.000431662
0.00044734
0.000271324
0.000286647
0.000212396
0.000349315
0.000673243
0.000489802
0.000304905
0.00213271
0.00208212
0.000582871
0.00226679
0.00221743
0.000684346
0.000397088
0.000783015
0.0022883
0.00250685
0.000843298
0.000752432
0.000281985
0.000563382
0.000637166
0.00256839
0.00221441
0.000450812
0.000644061
0.000488522
0.000692458
0.000731265
0.000447862
0.000764993
0.00246138
0.00236641
0.000441421
0.000862584
0.000660778
0.000707336
0.000404997
0.000804847
0.000733604
0.000967429
0.000751221
0.00260016
0.00233766
0.000202411
0.00093551
0.000941415
0.000998648
0.000908351
0.000797667
0.000899979
0.000481718
0.000461709
0.00104974
0.000650707
0.00272061
0.00307364
0.00093178
0.00104112
0.00109772
0.000739877
0.001165
0.00128436
0.00110702
0.00118125
0.000866243
0.000849418
0.000854458
0.000971686
0.000981337
0.00228597
0.00269687
0.00103269
0.00165785
0.00151798
0.000658957
0.000751768
0.00103079
0.00052041
0.000517544
0.00112747
0.00041662
0.000478823
0.000705288
0.00108826
0.00225081
0.00120857
0.00253087
0.00302219
0.000592584
0.00115393
0.00113412
0.00158286
0.00094323
0.00072633
0.000984554
0.000463125
0.0004302
0.00064454
0.000604659
0.0010402
0.000788218
0.000688565
0.000844695
0.00181451
0.00126559
0.0024132
0.00235178
0.00103691
0.00097141
0.000922346
0.000547201
0.000465581
0.00082211
0.000571996
0.000404781
0.000680965
0.00067141
0.000665694
0.000517366
0.000721889
0.00113413
0.000838484
0.000629436
0.000628331
0.00110798
0.00180098
0.00212115
0.00138727
0.00103683
0.000673079
0.000629982
0.00108164
0.000622536
0.000808413
0.000537452
0.000748325
0.000548189
0.000470473
0.000361448
0.000390081
0.000656499
0.000465745
0.00073661
0.000727102
0.000552612
0.000522293
0.000440667
0.000350099
0.000888887
0.00104554
0.000854125
0.000866844
0.00140289
0.000735571
0.000792653
0.000645768
0.00061501
0.000482557
0.000357273
0.000301955
0.000374501
0.000554757
0.00091105
0.000316027
0.000346939
0.000201201
0.000432034
0.000610449
0.000390594
0.000323967
0.000340877
0.000585225
0.000527383
0.000244312
0.000869865
0.000619209
0.00040911
0.000730674
0.00022803
0.00034369
0.000265081
0.000393928
0.00030847
0.000168151
0.000111547
0.000158379
0.000137912
0.000178926
0.000133474
0.000253001
0.000169888
0.000235593
0.000313872
0.000371005
0.000491354
0.000185486
0.000251928
0.000221211
0.000361759
0.000335187
0.000388416
0.000316749
0.00207661
0.00215225
0.000455265
0.00229322
0.00217108
0.00067297
0.000587014
0.000406364
0.00232336
0.00228889
0.000826536
0.000680537
0.000674365
0.000412494
0.000917959
0.00221076
0.00239966
0.000986384
0.000949602
0.000593457
0.000714298
0.000964843
0.000671865
0.000748886
0.00241885
0.00214831
0.000674011
0.000449183
0.000698475
0.000600762
0.000659696
0.000894961
0.000237923
0.000464138
0.000522015
0.00257761
0.00250073
0.00079711
0.000706262
0.000354155
0.000631154
0.000738384
0.000349959
0.000577541
0.000544028
0.000413364
0.000673915
0.000710262
0.00277028
0.00238993
0.000797953
0.000758505
0.00069385
0.000736245
0.000814759
0.000611587
0.000743794
0.000760406
0.000405651
0.000702815
0.000858341
0.000865473
0.00111657
0.00261456
0.00283861
0.000584329
0.000706288
0.000789906
0.000834421
0.000972412
0.00135166
0.00101013
0.000896905
0.000916965
0.000968668
0.00148447
0.00085387
0.000616805
0.00127543
0.000782413
0.00258824
0.00241302
0.000903989
0.00148895
0.00124996
0.000880145
0.000884951
0.000994425
0.00079821
0.000438453
0.000205184
0.000842831
0.000745132
0.000301145
0.000386833
0.000753738
0.00153378
0.00104209
0.00126717
0.00261102
0.00307902
0.000700893
0.00106006
0.000877801
0.00142846
0.00106392
0.000602185
0.000421076
0.000813096
0.00044361
0.000302311
0.00052899
0.000787723
0.000867004
0.000560457
0.000634013
0.000440385
0.000611063
0.000710075
0.00108089
0.00230805
0.00194416
0.00133276
0.000582959
0.000650086
0.00206014
0.00226698
0.00151383
0.000280086
0.000642338
0.000570176
0.000502196
0.000693693
0.000694056
0.000614441
0.000645648
0.000706064
0.000632992
0.000465032
0.000697367
0.000709837
0.0010145
0.00141275
0.00202542
0.00143784
0.000615973
0.0010642
0.000722186
0.000623977
0.000341906
0.000353545
0.000552282
0.000645709
0.000650602
0.000467496
0.000591496
0.00052596
0.000631267
0.000503303
0.000558685
0.000452179
0.000618703
0.000864282
0.000893397
0.000336451
0.000522483
0.000611173
0.00102848
0.000939624
0.000823031
0.000817996
0.00140463
0.0007288
0.000685751
0.000667177
0.000554216
0.000449133
0.000428485
0.000360529
0.000400475
0.000475577
0.000802968
0.000576532
0.000720253
0.000273601
0.000356299
0.000207129
0.000522656
0.000642937
0.000401181
0.000432978
0.000332026
0.000695191
0.000819759
0.000415974
0.000537225
0.000624714
0.000471414
0.000591715
0.000322138
0.000333822
0.000340759
0.000500061
0.000184988
0.000108916
7.88769e-05
0.000140485
0.000199816
0.000167996
0.000123768
0.000123665
0.000154097
0.000332231
0.000206632
0.000241699
0.000346807
0.000471118
0.000497429
0.000223575
0.000160918
0.000197269
0.000354899
0.000399288
0.000268602
0.000287544
0.00208242
0.00213108
0.000406318
0.00233802
0.00221514
0.000375658
0.000403179
0.000392649
0.00224797
0.00220418
0.000535012
0.000614439
0.000618463
0.000548174
0.000484437
0.002294
0.00223976
0.000534996
0.000486004
0.000627008
0.000683805
0.000641366
0.000603676
0.000719567
0.00224693
0.00244449
0.000504334
0.000639228
0.000669861
0.00046673
0.000533365
0.000451289
0.000534352
0.000720519
0.000819425
0.0024298
0.00226409
0.000533658
0.000516075
0.000604525
0.000401241
0.000638777
0.000476298
0.000588952
0.000588923
0.000650256
0.000618932
0.000479806
0.00254325
0.00253744
0.00082614
0.000634643
0.000576553
0.000414758
0.00066534
0.000633439
0.000537037
0.000507428
0.00049131
0.000829491
0.000350254
0.000633363
0.000505243
0.00266342
0.00230575
0.000528578
0.000895089
0.00071903
0.000474225
0.000507849
0.000712483
0.000671901
0.000577837
0.000619112
0.000535256
0.000923209
0.000739107
0.000736899
0.000941245
0.00144902
0.00283901
0.00267429
0.000606132
0.000962101
0.00061545
0.000692887
0.00128845
0.000887768
0.00126641
0.0011885
0.000990339
0.00113677
0.00143463
0.000884648
0.000768072
0.000732994
0.00100469
0.000902622
0.00102184
0.00260505
0.00275602
0.000614242
0.00113519
0.00123109
0.00131852
0.000833954
0.000741431
0.00118251
0.00124658
0.000969402
0.000745863
0.000661083
0.000477187
0.000404535
0.000348778
0.000475969
0.000788176
0.0012762
0.00161221
0.00140244
0.00239662
0.00282731
0.00100817
0.000417946
0.000664885
0.0013609
0.00154469
0.000439705
0.000598668
0.000646133
0.000463537
0.000628688
0.00046765
0.000909921
0.000801504
0.000738667
0.000795373
0.00120148
0.00120442
0.000775766
0.000628348
0.000293964
0.00149327
0.00261063
0.00229923
0.000705059
0.000517694
0.000996126
0.00108407
0.000776355
0.00192963
0.00065685
0.000430697
0.000617942
0.000635454
0.00104574
0.000255315
0.000701917
0.000678704
0.000723871
0.000537783
0.000872006
0.00125606
0.000594701
0.000449919
0.000662703
0.00110995
0.00115164
0.00203228
0.00144658
0.000516105
0.000967512
0.000839113
0.000562406
0.000580427
0.000556324
0.000922157
0.00136306
0.000570006
0.000621945
0.000452152
0.000550251
0.000570745
0.000841554
0.000429756
0.000459416
0.000262607
0.000355818
0.000762288
0.000817764
0.000788796
0.000434445
0.000490881
0.000827019
0.0010974
0.0010783
0.000772683
0.000911249
0.0013055
0.000802786
0.000625968
0.00073951
0.000583667
0.000471114
0.000457204
0.000354947
0.000398853
0.000507691
0.000518652
0.000800561
0.000459666
0.000538594
0.0005147
0.000245499
0.000335613
0.000183894
0.000601602
0.000634261
0.000393487
0.000487928
0.000308178
0.000745266
0.000645374
0.000701398
0.000483351
0.000624996
0.000540105
0.000517539
0.000251343
0.000314553
0.000442531
0.000543237
0.00017526
0.000152496
8.81904e-05
0.000121727
0.00020709
0.000255
0.000142988
0.000145537
0.000244436
0.000151124
0.000166998
0.00022562
0.000213955
0.000242335
0.000388358
0.000571078
0.000468034
0.000344494
7.05546e-05
0.000212414
0.000335188
0.000173796
0.000204108
0.000302698
0.0020391
0.00210524
0.000434496
0.00222967
0.00221262
0.000449598
0.000472706
0.000431495
0.00233027
0.00225183
0.000593186
0.000540567
0.00043386
0.000499694
0.000386185
0.00228265
0.00220796
0.000548793
0.000629453
0.000477865
0.000255213
0.000676597
0.000441111
0.000657753
0.00227787
0.00227727
0.000626101
0.000501694
0.00053244
0.000280946
0.000620698
0.000892199
0.000616999
0.000571337
0.000611158
0.00218601
0.00246311
0.000651787
0.000492255
0.000665347
0.000450757
0.000560802
0.00053892
0.000665947
0.000842498
0.000299948
0.000643803
0.000732825
0.00244635
0.00210955
0.000324766
0.000539646
0.000603577
0.000303394
0.000419398
0.000444852
0.000349594
0.000536755
0.000581952
0.000399637
0.000562498
0.000700534
0.000405801
0.00244632
0.00251599
0.000726476
0.000539888
0.000884277
0.000648229
0.000663028
0.000610364
0.000563667
0.000544311
0.000585071
0.000557198
0.000638516
0.000502025
0.000720998
0.000426277
0.000682794
0.0027144
0.00222377
0.000719061
0.000635264
0.000853611
0.00070887
0.000921687
0.000540899
0.000555447
0.000513969
0.000548191
0.000691312
0.000553605
0.000705614
0.000629765
0.00083563
0.000859016
0.000770598
0.000566106
0.00295808
0.00292668
0.00128744
0.00081862
0.000727152
0.000544901
0.000965826
0.00107899
0.000700587
0.000687626
0.000783568
0.00111528
0.0012929
0.000938622
0.000766662
0.00107523
0.000652163
0.000647396
0.000836032
0.00081546
0.00161771
0.00236196
0.00315411
0.000803682
0.000802912
0.000957155
0.000515505
0.000452824
0.000965242
0.000837039
0.000942091
0.000928545
0.000445229
0.000834421
0.000494607
0.000809648
0.000449776
0.000542363
0.000186692
0.000473775
0.000993592
0.00117606
0.000784027
0.00238882
0.00280988
0.003128
0.00174794
0.000806409
0.000751711
0.00208702
0.00110127
0.00141444
0.000712985
0.000517184
0.000568966
0.000348145
0.000232788
0.000501281
0.000292473
0.00061685
0.000627919
0.000698141
0.00119696
0.00100345
0.000741668
0.000389946
0.000675163
0.000747732
0.00140118
0.00292437
0.00230447
0.000895926
0.00086163
0.00011173
0.00307351
0.00171632
0.00172094
0.000793936
0.000418164
0.000559061
0.000553848
0.000599643
0.000632098
0.000258836
0.00100095
0.000918698
0.000442475
0.000820903
0.000588504
0.00131834
0.000791219
0.000695834
0.000731662
0.000884591
0.00104343
0.000974374
0.00213243
0.00143885
0.000733747
0.00108598
0.000821922
0.00053912
0.000480702
0.000442049
0.000528248
0.00085007
0.000981819
0.000554426
0.000606444
0.00051533
0.000494343
0.000587867
0.000555958
0.000563905
0.000560556
0.000442473
0.000297099
0.000524451
0.000548697
0.000798594
0.00043006
0.000551805
0.000540956
0.000705865
0.000727151
0.00101182
0.000748746
0.000969115
0.00113865
0.00089253
0.000604129
0.00074661
0.000595609
0.000484675
0.000466239
0.000404768
0.000383907
0.000427236
0.000487209
0.00066584
0.000453557
0.000566084
0.000707237
0.000675316
0.000304677
0.000231903
0.000304409
0.000246517
0.000580401
0.000585151
0.00046268
0.000445974
0.00033658
0.000800069
0.000330379
0.000948938
0.00056332
0.000625961
0.000420901
0.000423724
0.000297631
0.000181904
0.000498923
0.000503515
0.000189113
0.000224285
0.00011698
0.000103418
0.000146625
0.00034508
0.000165189
0.000163833
0.000320795
0.000205341
0.000195268
0.000120004
0.00016485
0.000212709
0.000207226
0.000244612
0.000445237
0.000567764
0.000377911
0.000382071
5.69384e-05
0.000219022
0.000317668
0.000186137
0.000175991
0.000312939
0.00205364
0.00206314
0.000529726
0.00218043
0.0021701
0.000482141
0.000145711
0.000300719
0.00223889
0.00231032
0.000545669
0.000470742
0.000300086
0.000525774
0.000383566
0.0023123
0.00225482
0.00060705
0.000496045
0.000343074
0.000333827
0.000565515
0.000514386
0.000458641
0.00227919
0.00230376
0.00061174
0.000614439
0.000432626
0.000613757
0.000604169
0.000636045
0.000552326
0.000530798
0.000573094
0.00231968
0.00219491
0.000802733
0.000450481
0.000655168
0.000491229
0.00064356
0.000695721
0.000397504
0.000483472
0.000396059
0.000765557
0.000480372
0.00225104
0.00235538
0.00073798
0.000453001
0.000554026
0.000490554
0.000469162
0.000498362
0.000507238
0.000572642
0.000686317
0.00060716
0.00062826
0.000476059
0.000691794
0.00245318
0.00220025
0.000486621
0.000493966
0.000184057
0.000632027
0.000603704
0.000527809
0.000660714
0.000515135
0.000536381
0.000496507
0.000716721
0.000832613
0.000606168
0.000590544
0.000551364
0.00253436
0.00235018
0.00100025
0.000926056
0.000544362
0.000785128
0.000293101
0.000194374
0.000413431
0.00036184
0.000566586
0.000736873
0.000560035
0.000594515
0.000501512
0.000458838
0.000580355
0.000723074
0.000762407
0.00260422
0.00244144
0.000821661
0.000568283
0.000661009
0.000751011
0.000598075
0.000703059
0.000388964
0.000358131
0.000675984
0.000802012
0.000715666
0.000865644
0.00073298
0.000539582
0.000515672
0.000417596
0.00106869
0.000462651
0.00124254
0.00257896
0.00269121
0.000565031
0.000832012
0.000816975
0.00078804
0.000620865
0.00128194
0.00120314
0.000984337
0.000755176
0.000621066
0.00111949
0.0011247
0.00101271
0.000747417
0.000724235
0.000691749
0.000635275
0.00121252
0.000964715
0.00124568
0.000919702
0.00260275
0.00249151
0.000679452
0.000839224
0.000713631
0.00077673
0.00148645
0.000806067
0.000710778
0.000862557
0.000580342
0.000403983
0.000528392
0.000670127
0.0008371
0.000812366
0.000521416
0.000342417
0.000498826
0.000767885
0.000474042
0.0013132
0.0011257
0.00112217
0.00205266
0.00287304
0.00192072
0.00219715
0.00120713
0.000971291
0.000798386
0.00197745
0.000935439
0.000506385
0.000370513
0.000111587
0.000472342
0.000677285
0.000166121
0.00069109
0.000233449
0.000635622
0.000850045
0.000497698
0.000931464
0.000843472
0.000827895
0.000912364
0.000735691
0.000738719
0.000699339
0.00105843
0.00326572
0.00199982
0.000492585
0.00110344
0.000458785
0.000521246
0.00101528
0.00110077
0.000611575
0.000807402
0.000568201
0.000655591
0.000664657
0.000273793
0.000416743
0.000313819
0.000570929
0.000601193
0.000303679
0.000841105
0.000799604
0.000728014
0.000685648
0.000459998
0.000592595
0.000611519
0.000994703
0.00143107
0.000761729
0.00236428
0.0014222
0.000862375
0.00083408
0.000667575
0.000510157
0.000479989
0.000587324
0.000602339
0.000835073
0.000824141
0.000598203
0.000609026
0.000390127
0.000540796
0.000564856
0.00028926
0.000603926
0.000620128
0.000692542
0.000575262
0.000473073
0.00038349
0.000665391
0.000504751
0.000602429
0.000317613
0.00056526
0.000781355
0.000894566
0.000524976
0.00101353
0.000783359
0.000981429
0.00103337
0.000811875
0.0005901
0.000773509
0.000642038
0.00046202
0.00046909
0.000421129
0.000395749
0.000365368
0.000479992
0.000516984
0.000410727
0.00059884
0.000593357
0.000623969
0.000780262
0.000674678
0.000293599
0.00019551
0.000289066
0.000396356
0.000520204
0.000522846
0.000596994
0.000440745
0.00039344
0.000742666
0.000278333
0.00102831
0.000694629
0.000619365
0.000413838
0.000428945
0.000238622
0.000137314
0.000468632
0.000387184
0.000139216
0.000255095
9.50909e-05
0.000106419
0.000199651
0.000223162
0.000152217
0.000174352
0.000413485
0.000285079
0.000188778
0.000196489
0.000141909
0.000132636
0.000177094
0.000220897
0.000210916
0.000241788
0.000469267
0.000536996
0.000222412
0.000285068
6.41741e-05
0.000233387
0.000317124
0.000420517
0.000155752
0.000274483
0.00203056
0.00204174
0.000416146
0.00213282
0.0020393
0.000526191
0.000309635
0.000481779
0.00218141
0.00222966
0.000469943
0.000282327
0.000365131
0.000304757
0.000310012
0.00227498
0.00230221
0.000429604
0.000269485
0.000223733
0.000214368
0.000415598
0.000266488
0.000245873
0.00236857
0.00230739
0.000321303
0.000495863
0.000284873
0.00028363
0.000444762
0.000529606
0.000669192
0.000471158
0.000440718
0.00220264
0.0023081
0.000283516
0.000537678
0.000374139
0.000373656
0.000200915
0.000492952
0.000496577
0.000634317
0.000298793
0.000530617
0.000560518
0.00237164
0.00220138
0.000409452
0.000505163
0.000443468
0.000459444
0.000410429
0.000260519
0.000518252
0.000617757
0.00066944
0.000607932
0.000630874
0.000407607
0.00038833
0.00230142
0.00249548
0.000491083
0.000661505
0.000390056
0.000662755
0.000570098
0.000385144
0.000425753
0.000512016
0.000424156
0.000704738
0.000567251
0.000442343
0.000533397
0.000725589
0.000747286
0.00244641
0.00218781
0.000611887
0.000606467
0.000657845
0.000433497
0.000541226
0.00055673
0.000302049
0.000513045
0.000524879
0.000592529
0.000531705
0.000779594
0.000842993
0.000461446
0.000629141
0.000429705
0.000574431
0.00251773
0.00253859
0.000755064
0.000818798
0.000513954
0.000484388
0.000621858
0.000676739
0.000393254
0.000447306
0.000485717
0.000532461
0.000452228
0.00054841
0.000663076
0.000693226
0.000437968
0.000741247
0.000786859
0.000886082
0.000824225
0.00263265
0.0027204
0.000445127
0.000681968
0.000723614
0.000991332
0.000720434
0.000621578
0.000608043
0.000455845
0.000405864
0.000592506
0.0010111
0.000867655
0.00106009
0.000625855
0.00058516
0.000603425
0.000548447
0.000734329
0.000591434
0.000639633
0.00143458
0.00284631
0.00264756
0.000624441
0.000848719
0.000669812
0.0012787
0.000606379
0.000508445
0.0010983
0.00104571
0.00101661
0.00125046
0.000953764
0.000643927
0.000742145
0.000959296
0.000581117
0.000682894
0.00105962
0.000651747
0.0010063
0.00126917
0.000954785
0.000951623
0.00131468
0.00246869
0.0028103
0.00161025
0.000719395
0.000564952
0.00157527
0.000821355
0.00109795
0.00134248
0.00102685
0.000690277
0.00127256
0.00058682
0.000499263
0.000681258
0.000947644
0.000460957
0.000685025
0.000379023
0.000248592
0.000504982
0.00081837
0.001117
0.00130173
0.00136187
0.00125347
0.00124493
0.00281962
0.00281425
0.00219372
0.00144659
0.000737193
0.000881385
0.00114201
0.000810682
0.000921683
0.000395423
0.000395609
0.000151679
0.000729187
0.000351722
0.000514668
0.000616226
0.000633477
0.000540555
0.000308173
0.000532282
0.000558996
0.000703974
0.00087906
0.000960491
0.000925368
0.000903403
0.000790721
0.000458318
0.00160241
0.00314268
0.00214134
0.000382716
0.000804742
0.000519274
0.00050493
0.000653895
0.000456166
0.000803063
0.0005583
0.000641564
0.000540347
0.000456944
0.000262428
0.000447472
0.000375254
0.000787298
0.000402954
0.000218055
0.000535811
0.00061206
0.000619603
0.000717758
0.000632982
0.000583166
0.000703568
0.000675076
0.00085444
0.00100726
0.00106144
0.000662277
0.00225368
0.00140286
0.000813884
0.000828224
0.0011559
0.000612167
0.000696861
0.000649779
0.000413664
0.00118179
0.000667174
0.000738688
0.00057427
0.000345555
0.000481694
0.000557841
0.000300679
0.000441359
0.000431433
0.000767951
0.000744491
0.000472083
0.00056486
0.000446275
0.000394247
0.000569986
0.000474378
0.000507716
0.000225293
0.000636426
0.000744041
0.00113615
0.000650229
0.00112525
0.000809752
0.0010122
0.00103641
0.000964946
0.000591285
0.000796565
0.000711551
0.000496642
0.000517908
0.000432523
0.000395996
0.000363799
0.000434676
0.000512578
0.000415964
0.000582532
0.000633939
0.000661536
0.000642201
0.000577639
0.000583002
0.00048885
0.000342444
0.000208092
0.000330002
0.000543031
0.000447369
0.000495299
0.000712426
0.000838575
0.000383343
0.00068427
0.000241378
0.00113543
0.000837365
0.000612818
0.000465264
0.000419103
0.000157079
0.000153018
0.000419068
0.000196902
0.000171663
0.000269944
0.00013884
0.000214782
0.000258285
0.000271336
0.000185232
0.000186061
0.000535151
0.000323587
0.00017687
0.000254452
0.000225165
0.000140862
0.000146659
0.000137254
0.000193494
0.000218811
0.000213583
0.000260869
0.000541053
0.000575158
0.000152028
0.000184887
7.87264e-05
0.000252378
0.000301826
0.000257885
0.000114792
0.000304676
0.00215772
0.00201684
0.000364243
0.00219562
0.00201073
0.000431233
0.000402715
0.000474435
0.0020919
0.00203521
0.000593528
0.000305782
0.00047879
0.000482093
0.000385949
0.00217827
0.00220274
0.000345169
0.000476772
0.000542294
0.000306326
0.000364931
0.000487194
0.000339185
0.00226076
0.00222502
0.000502621
0.000302967
0.000343426
0.000229155
0.000309594
0.000340574
0.000276286
0.000234995
0.000610045
0.00227764
0.00223756
0.000326613
0.000538388
0.000242907
0.000382783
0.000457668
0.000479127
0.00039059
0.000667799
0.00050548
0.000494964