/*--------------------------------*- C++ -*----------------------------------*\
  =========                 |
  \\      /  F ield         | OpenFOAM: The Open Source CFD Toolbox
   \\    /   O peration     | Website:  https://openfoam.org
    \\  /    A nd           | Version:  7
     \\/     M anipulation  |
\*---------------------------------------------------------------------------*/
FoamFile
{
    version     2.0;
    format      ascii;
    class       volScalarField;
    location    "7";
    object      p;
}
// * * * * * * * * * * * * * * * * * * * * * * * * * * * * * * * * * * * * * //

dimensions      [0 2 -2 0 0 0 0];

internalField   nonuniform List<scalar> 
150000
(
-59.934
-63.8759
-59.9447
-62.2625
-60.0456
-65.2222
-63.758
-63.2099
-63.8247
-60.0827
-62.3581
-63.6471
-62.2469
-60.2778
-67.7722
-66.4047
-60.9089
-63.4913
-63.5772
-63.3256
-63.3584
-63.0517
-63.6487
-60.3102
-62.4948
-63.6364
-63.4646
-63.6305
-62.2633
-60.5532
-58.7133
-69.4925
-65.4361
-65.436
-66.9098
-64.0422
-65.0613
-60.2837
-61.7167
-63.4216
-63.5386
-63.4549
-63.6884
-63.2308
-62.8368
-63.4284
-60.5729
-62.7553
-63.5639
-63.4791
-63.3489
-63.4377
-63.6047
-62.268
-60.8259
-48.4896
-58.6058
-59.0718
-57.3333
-68.9743
-66.6612
-65.6795
-64.1257
-62.9812
-67.409
-66.1393
-65.4948
-64.582
-64.5764
-52.1667
-59.9887
-63.2914
-63.7066
-63.5454
-63.7185
-64.1623
-63.6171
-63.0674
-62.8779
-63.1414
-60.8205
-63.053
-63.4677
-63.4956
-63.3979
-63.5996
-63.2993
-63.3889
-63.5768
-62.25
-61.0552
-48.1603
-48.9821
-50.1357
-48.4658
-59.2573
-59.8697
-60.6434
-57.916
-56.2644
-68.5115
-68.1065
-66.0232
-64.8318
-64.6697
-63.0082
-60.9749
-67.762
-67.138
-65.8852
-64.9136
-64.6688
-64.3255
-64.0666
-57.7347
-58.2975
-63.1545
-63.8713
-63.6392
-63.7474
-64.2009
-63.4383
-64.1072
-63.4962
-62.8869
-62.8659
-62.9688
-61.0191
-63.3579
-63.3703
-63.5136
-63.4484
-63.6077
-63.8344
-63.5833
-63.2753
-63.3506
-63.5433
-62.2168
-61.2291
-47.3573
-48.5091
-48.8248
-48.3271
-50.3375
-50.5446
-52.4627
-49.8683
-49.2441
-59.3143
-60.3404
-60.3389
-60.5943
-60.141
-56.6823
-55.8489
-68.1112
-69.026
-66.687
-65.2762
-63.1094
-64.4881
-63.7392
-61.8276
-59.4099
-67.6812
-67.537
-66.328
-65.3138
-64.7101
-64.5745
-64.621
-63.8451
-63.6298
-56.0067
-56.9209
-63.0153
-64.045
-63.6833
-63.7748
-64.2305
-63.4352
-63.1836
-63.4341
-64.028
-63.3521
-62.7315
-62.8574
-62.5929
-61.1456
-63.5877
-63.301
-63.5205
-63.5034
-63.61
-63.8721
-64.5758
-63.788
-63.5624
-63.2508
-63.3101
-63.4992
-62.1693
-61.3404
-46.7574
-47.5966
-47.7322
-47.277
-48.8723
-49.2359
-49.6744
-48.6505
-48.5695
-51.2374
-50.3998
-53.0718
-54.2753
-53.0329
-50.1862
-49.7816
-58.8418
-60.5352
-59.6123
-60.4368
-60.4676
-60.7026
-60.483
-55.4364
-55.1154
-67.2763
-68.7623
-67.2931
-65.7193
-63.2403
-63.8849
-62.98
-63.6755
-63.4112
-60.7667
-58.2388
-67.4705
-67.7718
-66.7741
-65.5818
-64.7344
-64.6389
-63.4289
-64.7143
-64.5132
-63.4777
-63.2363
-57.7227
-56.5512
-62.8421
-64.1277
-63.7143
-63.7684
-64.2448
-63.4243
-63.2439
-64.2725
-63.1316
-63.409
-63.9354
-63.2034
-62.6004
-62.8536
-62.1438
-61.2049
-63.6761
-63.3195
-63.5436
-63.5537
-63.6108
-63.9047
-64.6158
-65.0895
-64.5241
-63.7414
-63.55
-63.2242
-63.2516
-63.4277
-62.1123
-61.3897
-45.845
-46.5832
-46.8385
-46.676
-47.6045
-47.775
-48.3065
-47.6396
-47.4461
-49.0186
-49.2954
-49.7855
-50.5113
-49.6047
-48.6994
-48.7872
-51.4448
-50.3895
-52.9987
-53.8252
-54.7326
-53.9157
-53.2334
-50.5089
-50.7342
-58.72
-61.2531
-59.2289
-60.5386
-60.3472
-60.0716
-60.5097
-60.1838
-59.5582
-54.9034
-54.9223
-66.3958
-68.3518
-67.613
-65.6787
-63.211
-63.3946
-63.9404
-63.694
-63.0273
-63.4931
-62.2318
-59.4752
-57.7514
-67.0085
-67.819
-66.9854
-65.7539
-64.8914
-64.485
-63.4689
-63.1847
-63.3548
-64.5171
-64.3645
-63.1598
-62.9125
-57.7605
-56.7385
-62.6159
-64.1346
-63.7413
-63.7623
-64.2333
-63.4141
-63.2993
-64.3173
-65.2933
-64.2272
-63.0865
-63.3656
-63.8305
-63.0474
-62.4753
-62.7894
-62.0922
-61.2327
-63.6968
-63.3825
-63.5543
-63.5858
-63.6093
-63.9331
-64.6511
-65.1074
-65.5389
-65.0652
-64.4808
-63.6968
-63.5434
-63.2139
-63.1984
-63.3623
-62.0568
-61.3916
-44.7438
-45.8749
-45.8529
-45.77
-46.4382
-46.7658
-46.905
-46.7369
-46.827
-47.4772
-47.6479
-48.2355
-48.5142
-48.3112
-47.8614
-47.467
-48.9954
-49.3045
-49.91
-50.2876
-50.59
-50.1525
-49.4419
-48.9017
-49.1009
-51.4562
-50.8171
-52.8547
-53.526
-54.6128
-54.838
-54.6666
-54.3838
-52.5173
-50.9211
-51.8509
-58.0097
-60.5104
-58.7994
-59.8365
-59.9399
-59.8074
-60.0386
-59.945
-60.5275
-60.473
-58.4764
-54.7775
-54.7867
-65.3309
-67.5159
-67.7128
-65.6688
-63.2527
-63.468
-64.1243
-64.0222
-63.9513
-63.2113
-62.9069
-63.1689
-61.4126
-58.5746
-57.4791
-66.3808
-67.6939
-67.1441
-65.9014
-64.9322
-64.0167
-63.4673
-63.2726
-63.8486
-63.0688
-63.2591
-64.628
-64.2912
-62.8565
-62.4725
-58.3849
-57.0185
-62.3703
-64.0647
-63.7138
-63.739
-64.2074
-63.3992
-63.3574
-64.3576
-65.2884
-66.0446
-65.2758
-64.1971
-63.038
-63.3246
-63.7087
-62.8842
-62.3519
-62.6887
-62.1109
-61.263
-63.695
-63.4669
-63.5378
-63.6046
-63.6108
-63.9546
-64.6851
-65.12
-65.5467
-65.8904
-65.5293
-65.0263
-64.4333
-63.6538
-63.5338
-63.1985
-63.1483
-63.3304
-62.0126
-61.3637
-44.3011
-44.7449
-44.7746
-44.8459
-45.8139
-45.8458
-45.8965
-46.0749
-45.6717
-46.495
-46.6681
-46.813
-47.0163
-47.0157
-46.7694
-47.009
-47.474
-47.5835
-48.1546
-48.4544
-48.8625
-48.6066
-48.4052
-47.7807
-47.524
-49.026
-49.4206
-49.8481
-49.9105
-50.461
-51.2442
-50.9156
-50.35
-49.3191
-49.3776
-49.3497
-51.6004
-50.7274
-52.8413
-53.8476
-54.5624
-55.0462
-55.4055
-55.1213
-54.6546
-53.9331
-53.0617
-51.3108
-51.7377
-57.3193
-59.4311
-58.4805
-59.3338
-59.6284
-59.6165
-59.7248
-60.1366
-60.4598
-59.9075
-60.5902
-60.1629
-58.808
-54.8159
-54.6394
-64.1002
-66.3535
-67.4532
-65.7358
-63.1946
-63.6067
-64.1267
-64.1508
-64.1325
-63.8309
-64.0333
-63.2225
-62.8025
-62.696
-61.4237
-58.4127
-57.4507
-65.6224
-67.4711
-66.8294
-66.0269
-64.8545
-64.0837
-63.4156
-63.3624
-63.8807
-64.8128
-63.8335
-62.9155
-63.1012
-64.5687
-64.1373
-62.5835
-62.1176
-58.8296
-57.4914
-62.1072
-63.9461
-63.6738
-63.711
-64.1842
-63.3726
-63.4198
-64.3862
-65.2872
-66.0551
-66.6506
-66.0389
-65.2162
-64.1805
-63.0105
-63.2812
-63.5699
-62.7312
-62.2324
-62.5661
-62.1491
-61.307
-63.6719
-63.5554
-63.5421
-63.6149
-63.6172
-63.9708
-64.7168
-65.1309
-65.5531
-65.8863
-66.2765
-65.8922
-65.5181
-64.9878
-64.3682
-63.6169
-63.5204
-63.1815
-63.1055
-63.2043
-61.9819
-61.3174
-43.8326
-44.2726
-44.2812
-44.311
-44.7751
-44.927
-45.0029
-44.8051
-44.7935
-45.7502
-45.8285
-45.9785
-45.9444
-45.9372
-45.735
-45.8011
-46.3941
-46.6578
-46.8356
-46.9638
-47.2086
-47.1706
-46.9722
-47.0123
-46.8195
-47.4281
-47.6696
-48.0765
-48.2962
-48.7595
-49.3866
-48.9831
-48.6996
-48.3703
-47.9183
-47.7676
-48.9745
-49.354
-49.5169
-50.0429
-50.3797
-51.0318
-51.5129
-51.2944
-50.8612
-50.3657
-49.5741
-49.7174
-49.7731
-51.5201
-51.6273
-52.7094
-53.9961
-54.7122
-55.0789
-55.2913
-55.6033
-55.4831
-54.9843
-54.7983
-54.2734
-53.6065
-51.4924
-52.0403
-56.8811
-59.3533
-58.445
-58.9309
-59.6137
-59.315
-59.6954
-60.0957
-60.5175
-60.2127
-60.3092
-59.8996
-60.4018
-59.9383
-58.4661
-55.2497
-54.3342
-62.6631
-65.4519
-66.7542
-65.3958
-63.1238
-63.5144
-64.0322
-64.2528
-64.1614
-64.1051
-64.0472
-63.5692
-63.4902
-63.0786
-62.6335
-62.4067
-60.7173
-58.4515
-57.3723
-64.7748
-66.7856
-66.6194
-66.0589
-65.2155
-64.0625
-63.3585
-63.3406
-63.8887
-64.7933
-65.7555
-64.8458
-63.7884
-62.7547
-62.9403
-64.4516
-63.9222
-62.3498
-61.8568
-59.2056
-58.0343
-61.8431
-63.8004
-63.6322
-63.6905
-64.1493
-63.3444
-63.4536
-64.4257
-65.2798
-66.0514
-66.6577
-67.6362
-66.638
-66.052
-65.1417
-64.1592
-62.9986
-63.237
-63.4338
-62.5969
-62.1206
-62.4159
-62.186
-61.3645
-63.6622
-63.6541
-63.5613
-63.6187
-63.6218
-63.9794
-64.7436
-65.1406
-65.5576
-65.879
-66.2688
-66.3427
-66.2892
-65.8897
-65.5056
-64.9578
-64.3047
-63.588
-63.5024
-63.1583
-63.0663
-63.0693
-61.9682
-61.2716
-43.502
-43.8343
-43.8511
-43.863
-44.2805
-44.2467
-44.3655
-44.1248
-44.323
-44.8484
-44.9274
-44.9446
-44.9365
-44.8686
-44.9426
-44.8119
-45.7911
-45.8661
-45.8449
-45.9622
-46.0125
-45.9438
-46.0135
-45.7134
-45.7328
-46.3172
-46.8228
-46.7393
-46.9013
-47.1248
-47.4862
-47.2029
-47.1898
-46.8996
-46.8024
-46.9163
-47.3618
-47.7441
-47.8712
-48.1264
-48.6095
-48.9689
-49.2485
-49.3294
-49.0625
-48.8305
-48.4582
-48.3096
-47.816
-48.6982
-49.5072
-49.2402
-49.8057
-50.5349
-50.7538
-51.4205
-51.6336
-51.43
-51.4162
-50.9465
-50.3174
-49.9101
-49.8647
-50.1084
-51.6322
-52.3559
-52.73
-53.8022
-54.9625
-55.0966
-55.2752
-55.5646
-55.7726
-55.6264
-55.8192
-55.5075
-55.007
-54.5386
-52.106
-51.8076
-52.314
-56.8743
-59.3463
-58.4066
-58.7627
-59.3582
-59.267
-59.4554
-60.0364
-60.4298
-60.5351
-60.5703
-60.3412
-60.0402
-59.7585
-60.1456
-59.8437
-57.8962
-55.7314
-54.1811
-61.5961
-64.8983
-66.0392
-65.2117
-63.7776
-63.7695
-63.9976
-64.1795
-64.176
-64.1312
-64.3237
-64.1257
-63.954
-63.4462
-63.4221
-62.9134
-62.3919
-62.0187
-60.7591
-58.8798
-57.4405
-63.9577
-65.818
-66.3443
-66.0168
-65.4044
-63.9081
-63.241
-63.5067
-63.8781
-64.7713
-65.6982
-66.8855
-65.7901
-64.855
-63.7245
-62.6278
-63.0248
-64.3311
-63.6414
-62.1678
-61.6404
-59.6152
-58.6956
-61.5772
-63.6274
-63.5932
-63.6616
-64.0948
-63.3077
-63.4498
-64.4443
-65.2873
-66.0462
-66.6638
-67.6327
-67.8331
-67.6258
-66.6309
-66.0468
-65.0575
-64.1201
-62.9781
-63.2016
-63.3106
-62.4613
-62.0382
-62.2236
-62.1669
-61.432
-63.6865
-63.7431
-63.5295
-63.6197
-63.6274
-63.9845
-64.7646
-65.1489
-65.5608
-65.8676
-66.2626
-66.3012
-66.2372
-66.3418
-66.2954
-65.8832
-65.4925
-64.9205
-64.245
-63.57
-63.4817
-63.1311
-63.0385
-62.9741
-61.9599
-61.2333
-43.2222
-43.4935
-43.5099
-43.5115
-43.8422
-43.8449
-43.8863
-43.8474
-43.8775
-44.3039
-44.1842
-44.2764
-44.292
-44.2642
-44.2817
-44.2949
-44.9265
-44.9195
-44.9051
-44.9518
-45.02
-44.9567
-44.938
-44.8772
-44.8942
-45.8013
-45.8718
-45.8598
-45.8523
-46.0941
-46.2289
-46.1144
-46.0139
-45.918
-45.8262
-45.6411
-46.2176
-46.6326
-46.6024
-46.814
-47.1537
-47.3248
-47.7148
-47.5906
-47.3147
-47.3222
-46.6866
-46.934
-47.0066
-47.2515
-47.6996
-47.9023
-48.1425
-48.5723
-48.7842
-49.3129
-49.7524
-49.5226
-49.4781
-49.2592
-48.8447
-48.6393
-48.2811
-47.9003
-48.5492
-49.6945
-49.5696
-49.8276
-50.4815
-51.0935
-51.219
-51.6831
-52.1673
-51.9994
-51.7672
-51.5729
-50.7279
-50.4326
-50.0065
-50.244
-50.2997
-51.7967
-52.5034
-52.8721
-53.78
-55.069
-54.9036
-55.2887
-55.4635
-55.7258
-56.2468
-55.9467
-55.8923
-55.8342
-55.6479
-55.0519
-54.103
-52.5889
-52.2001
-52.2854
-56.5392
-59.0738
-58.2093
-58.3278
-58.4445
-59.5283
-59.2754
-59.8579
-60.2415
-60.5095
-60.6933
-60.5377
-60.5471
-60.457
-60.0184
-59.6941
-60.0014
-59.2494
-57.8185
-56.0661
-53.9421
-61.0974
-64.3184
-65.348
-65.0921
-63.9727
-63.8513
-63.9638
-64.0809
-64.0217
-64.0605
-64.2585
-64.5585
-64.3385
-64.0709
-63.8635
-63.5479
-63.2431
-62.7585
-62.169
-61.7724
-60.6787
-59.6657
-57.6435
-63.033
-64.976
-65.7403
-65.7063
-65.4911
-64.0858
-63.1178
-63.5222
-63.9059
-64.7407
-65.6503
-66.8046
-67.0243
-66.9113
-65.8528
-64.8852
-63.6675
-62.5309
-62.8224
-64.1005
-63.3407
-62.0503
-61.4412
-60.0315
-59.5329
-61.3054
-63.4312
-63.5343
-63.613
-64.0388
-63.2649
-63.4947
-64.4535
-65.2847
-66.0362
-66.6656
-67.6073
-67.7282
-67.456
-67.936
-67.6077
-66.6234
-66.0309
-64.9679
-64.0699
-62.9566
-63.168
-63.2006
-62.3445
-61.9234
-61.982
-62.111
-61.5072
-63.6137
-63.7859
-63.4716
-63.6212
-63.6379
-63.995
-64.7773
-65.1572
-65.5617
-65.8552
-66.2339
-66.219
-66.1943
-66.2865
-66.2702
-66.3448
-66.2917
-65.873
-65.4768
-64.8771
-64.194
-63.5459
-63.4615
-63.1035
-63.0168
-62.9084
-61.9651
-61.2023
-42.9946
-43.2382
-43.2405
-43.2416
-43.5054
-43.521
-43.4563
-43.5206
-43.5516
-43.8533
-43.8339
-43.8896
-43.9322
-43.888
-43.8596
-43.8612
-44.333
-44.2875
-44.2855
-44.4119
-44.4566
-44.2811
-44.3196
-44.2835
-44.3243
-44.8499
-45.0144
-44.911
-45.0051
-45.1572
-45.352
-45.1271
-45.0127
-44.9998
-44.9694
-44.8886
-45.7893
-45.8585
-45.8573
-45.9448
-46.1587
-46.1963
-46.5017
-46.2428
-46.1184
-46.0191
-45.8768
-45.8586
-45.6838
-46.1904
-46.5565
-46.6324
-46.8832
-47.1776
-47.4796
-47.6519
-48.1196
-47.8589
-47.678
-47.33
-47.3385
-46.7495
-46.99
-47.0759
-47.3176
-47.6652
-47.9723
-48.0395
-48.5177
-48.7187
-49.1241
-49.6079
-50.1251
-49.8396
-49.7366
-49.3685
-49.3644
-48.891
-48.6252
-48.3247
-47.9595
-48.8437
-49.7425
-49.6903
-50.0314
-50.4457
-50.9949
-51.4532
-51.5877
-52.2019
-52.6522
-52.3008
-52.1947
-51.6345
-51.4877
-50.8862
-50.5314
-50.4752
-50.1189
-50.6881
-51.6753
-52.6755
-52.9274
-53.7633
-54.4461
-54.6952
-55.4076
-55.3971
-55.651
-56.1436
-56.2797
-56.3375
-56.2159
-56.0846
-56.0298
-55.737
-55.3794
-54.0147
-52.5218
-52.8515
-52.1962
-55.4193
-58.6966
-58.0284
-58.1158
-58.2862
-59.55
-59.2278
-59.6451
-60.151
-60.2466
-60.8166
-60.7495
-60.7678
-60.6546
-60.5691
-60.4139
-59.6587
-59.5889
-60.1548
-58.8554
-57.6215
-56.6281
-53.761
-60.283
-63.8067
-64.5962
-64.8014
-64.8029
-64.4202
-63.8068
-64.036
-63.9097
-63.9365
-64.1357
-64.3712
-64.4959
-64.7664
-64.2477
-64.0295
-63.8647
-63.2259
-62.8264
-62.4905
-61.9574
-61.2993
-60.5084
-60.529
-57.7667
-62.0762
-64.0621
-65.2503
-65.2782
-65.2704
-64.2479
-63.3247
-63.227
-63.8519
-64.753
-65.5931
-66.7039
-66.8152
-66.5806
-67.1885
-66.8603
-65.886
-64.8792
-63.6346
-62.3928
-62.7317
-63.8191
-63.0273
-61.8906
-61.3359
-60.461
-60.2758
-61.0832
-63.2185
-63.4605
-63.5404
-63.978
-63.2255
-63.5587
-64.4809
-65.2663
-66.0169
-66.6657
-67.572
-67.6184
-67.3348
-67.9457
-67.5718
-67.9935
-67.5888
-66.6081
-66.0023
-64.8719
-63.9939
-62.9413
-63.1357
-63.1324
-62.2302
-61.8224
-61.7443
-62.0149
-61.5937
-63.4993
-63.7917
-63.4478
-63.6145
-63.6534
-64.0119
-64.784
-65.1656
-65.5612
-65.843
-66.1796
-66.1281
-66.1264
-66.2183
-65.906
-66.3536
-66.2918
-66.3521
-66.2815
-65.8595
-65.4592
-64.8237
-64.1499
-63.5154
-63.442
-63.0775
-63.0089
-62.8644
-61.9759
-61.1979
-42.7727
-42.9951
-42.9546
-42.9987
-43.2478
-43.2075
-43.222
-43.2728
-43.2567
-43.5304
-43.4896
-43.4455
-43.5056
-43.5095
-43.5499
-43.5442
-43.9263
-43.8636
-43.8686
-43.9372
-44.0696
-43.7556
-43.8511
-43.787
-43.89
-44.3604
-44.3287
-44.266
-44.3811
-44.4914
-44.5341
-44.4034
-44.4224
-44.3745
-44.3703
-44.3567
-44.8151
-44.9794
-44.933
-44.9814
-45.1192
-45.2531
-45.5525
-45.2757
-45.135
-45.1164
-45.0151
-45.0343
-44.9048
-45.8363
-45.7806
-45.9209
-45.7283
-46.1175
-46.2336
-46.5253
-46.7157
-46.5581
-46.3429
-46.103
-46.0005
-45.9237
-45.877
-45.6825
-46.2399
-46.497
-46.6395
-46.8111
-47.1955
-47.4178
-47.7166
-48.0182
-48.2983
-48.0059
-47.946
-47.5527
-47.4767
-47.3086
-46.7902
-46.9805
-46.8798
-47.4857
-47.6616
-47.8912
-48.0351
-48.4936
-48.8136
-49.2104
-49.5098
-49.9992
-50.4316
-50.2965
-50.0317
-49.7498
-49.6926
-49.3855
-48.8074
-48.5832
-48.4347
-48.1509
-48.505
-49.7138
-49.834
-50.1732
-50.6009
-50.8789
-51.2729
-51.628
-52.1251
-52.4544
-52.9446
-52.678
-52.4721
-52.3373
-51.8554
-51.5029
-51.0749
-50.7133
-50.6242
-50.519
-51.1608
-51.3762
-52.7438
-52.9321
-53.7279
-54.5242
-55.134
-54.9396
-55.356
-55.6898
-56.0057
-56.252
-56.2075
-56.4573
-56.4283
-56.3752
-56.2812
-56.2387
-55.8032
-55.2125
-53.7425
-52.5405
-52.5439
-52.1051
-54.765
-57.8581
-57.909
-58.1759
-57.5675
-58.9535
-59.7739
-59.6651
-60.2237
-60.1782
-60.6405
-60.6663
-60.434
-60.9323
-60.764
-60.6797
-60.5857
-60.1877
-59.8725
-59.7597
-59.8745
-58.5329
-57.5273
-57.4767
-54.0264
-59.5838
-62.4892
-64.1808
-64.5962
-64.8421
-64.7306
-63.9475
-63.9225
-63.9944
-63.8157
-63.9913
-64.2177
-64.2319
-63.7844
-64.5987
-64.7779
-64.1458
-63.9592
-63.711
-62.8544
-62.7919
-62.2852
-61.498
-60.801
-60.5741
-61.6847
-57.6794
-61.319
-63.0478
-64.4666
-64.9054
-64.9574
-64.0778
-63.3681
-63.3154
-64.0282
-64.7427
-65.5566
-66.6171
-66.5759
-66.3401
-66.5567
-66.8205
-67.3481
-66.8392
-65.9371
-64.8656
-63.581
-62.3325
-62.6451
-63.4929
-62.7267
-61.6771
-61.2336
-60.8983
-60.8892
-60.9172
-63.0274
-63.3684
-63.4955
-63.9224
-63.204
-63.6257
-64.4876
-65.253
-66.0006
-66.6594
-67.5352
-67.4673
-67.1823
-67.7343
-67.4006
-68.1532
-67.673
-68.0172
-67.5752
-66.5898
-65.9668
-64.7841
-63.8959
-62.9253
-63.0892
-63.0695
-62.1362
-61.7321
-61.536
-61.9098
-61.6924
-63.4691
-63.7636
-63.436
-63.6017
-63.679
-64.0353
-64.7922
-65.1736
-65.5606
-65.8292
-66.119
-66.0341
-66.0502
-66.1349
-65.7848
-65.4151
-66.0233
-66.4224
-66.3007
-66.354
-66.2675
-65.8428
-65.4393
-64.7654
-64.114
-63.4934
-63.4245
-63.0556
-63.0051
-62.8198
-62.0284
-61.2445
-42.6027
-42.7682
-42.7815
-42.7802
-42.9849
-42.9574
-42.9944
-42.996
-43.0124
-43.2843
-43.2144
-43.2336
-43.2307
-43.1894
-43.2465
-43.2734
-43.6023
-43.4921
-43.4906
-43.5469
-43.6271
-43.5062
-43.5188
-43.5279
-43.5342
-43.9313
-43.8817
-43.9115
-43.918
-44.0284
-43.9839
-43.8602
-43.8833
-43.8444
-43.9398
-43.9123
-44.4242
-44.3132
-44.3988
-44.2817
-44.4473
-44.5338
-44.6628
-44.5747
-44.5117
-44.4104
-44.3984
-44.4442
-44.3621
-44.9221
-45.0347
-44.9859
-45.0075
-45.1151
-45.2786
-45.5213
-45.6429
-45.4578
-45.2941
-45.1702
-45.1206
-44.9932
-44.9665
-44.9173
-45.7943
-45.7803
-45.9175
-45.8798
-45.9539
-46.3016
-46.5044
-46.7495
-46.9365
-46.6847
-46.5509
-46.2114
-46.1596
-45.9326
-45.9631
-45.8506
-45.6217
-46.2212
-46.5895
-46.5991
-46.8468
-47.0057
-47.4452
-47.7531
-47.9938
-48.294
-48.4931
-48.2701
-48.1356
-48.0125
-47.7515
-47.5377
-47.181
-46.8586
-46.8482
-46.9055
-47.061
-47.638
-47.9249
-48.0678
-48.5328
-48.9528
-49.0267
-49.5547
-49.9667
-50.1689
-50.4729
-50.3753
-50.3674
-50.1439
-49.9234
-49.7653
-49.253
-48.7792
-48.672
-47.9967
-48.3085
-48.4395
-49.6975
-49.9288
-50.2507
-50.5925
-50.9175
-51.0972
-51.7061
-51.9812
-52.6123
-52.4834
-52.8691
-52.7643
-52.6033
-52.4973
-52.4131
-52.0397
-51.556
-50.9985
-51.0351
-50.8145
-51.0458
-51.1806
-51.9385
-52.4854
-52.7613
-53.6995
-54.1437
-55.0327
-55.2819
-55.2337
-55.5544
-55.8326
-56.2891
-56.0518
-56.1248
-56.4361
-56.5719
-56.635
-56.5919
-56.5897
-56.483
-55.8872
-54.6142
-53.4367
-52.3105
-52.8032
-51.8309
-55.1187
-57.2933
-57.5871
-58.138
-58.5553
-58.9172
-60.008
-59.8649
-60.1852
-60.1157
-60.2788
-60.5906
-60.2097
-59.4634
-60.6323
-61.0344
-60.7653
-60.7516
-60.6332
-60.3121
-60.1654
-59.8099
-59.3739
-58.0976
-57.1765
-58.191
-54.0344
-58.931
-61.2268
-63.3989
-64.3414
-64.0893
-64.4339
-64.1604
-63.9747
-63.8626
-63.7076
-63.7819
-64.0527
-63.8857
-63.5031
-63.1932
-64.0316
-64.8115
-64.7639
-64.0752
-63.9049
-63.5411
-62.7977
-62.6721
-62.0664
-61.2475
-60.4999
-60.6823
-63.0491
-57.7515
-60.5789
-62.2153
-63.6311
-64.453
-64.5486
-63.8356
-63.2694
-63.4196
-64.2072
-64.7707
-65.5352
-66.4931
-66.3286
-66.0876
-66.2415
-66.1693
-66.8836
-67.036
-67.4008
-66.8223
-65.9529
-64.8528
-63.546
-62.2985
-62.477
-63.1848
-62.445
-61.4888
-61.0949
-61.1695
-61.2828
-60.7708
-62.8846
-63.292
-63.4797
-63.848
-63.1848
-63.7127
-64.5172
-65.252
-65.9702
-66.6457
-67.474
-67.3096
-67.018
-67.5238
-67.1164
-65.6751
-67.6845
-68.3244
-67.7499
-68.0178
-67.5457
-66.5565
-65.9371
-64.7014
-63.799
-62.8989
-63.0194
-63.0151
-62.0536
-61.6364
-61.3525
-61.7735
-61.8033
-63.4488
-63.7065
-63.4308
-63.5931
-63.7158
-64.0588
-64.8026
-65.1807
-65.5589
-65.8131
-66.0561
-65.9358
-65.9931
-66.0378
-65.6484
-65.3292
-65.1298
-65.4911
-66.1098
-66.4676
-66.3022
-66.3491
-66.2486
-65.8237
-65.4253
-64.7204
-64.0866
-63.4778
-63.4144
-63.0368
-63.0055
-62.7556
-62.156
-61.3509
-42.5239
-42.6063
-42.6485
-42.6262
-42.7781
-42.81
-42.8276
-42.7856
-42.8141
-43.0327
-42.9674
-43.0443
-42.953
-42.9621
-43.0552
-43.02
-43.3222
-43.2611
-43.2884
-43.3145
-43.3309
-43.2319
-43.23
-43.3044
-43.2328
-43.5944
-43.594
-43.607
-43.6125
-43.588
-43.6893
-43.5594
-43.5182
-43.5524
-43.4688
-43.5797
-43.9626
-43.9912
-43.959
-43.9949
-44.032
-44.1285
-44.1134
-43.9873
-43.9117
-43.9291
-43.8257
-43.9346
-43.8766
-44.4905
-44.4586
-44.4574
-44.5001
-44.4146
-44.6738
-44.7567
-44.8564
-44.6885
-44.476
-44.4697
-44.4213
-44.4693
-44.4572
-44.3659
-44.923
-45.1233
-44.9783
-45.1526
-45.0323
-45.2548
-45.5266
-45.7394
-45.9555
-45.6368
-45.454
-45.3401
-45.2175
-45.1076
-44.9563
-44.8892
-44.9605
-45.681
-45.7729
-45.886
-45.9127
-45.9546
-46.2483
-46.439
-46.7785
-46.9478
-47.0393
-46.8107
-46.7267
-46.5386
-46.2709
-46.2828
-45.9744
-45.9013
-45.7904
-45.6366
-46.0471
-46.5517
-46.6665
-46.8699
-46.981
-47.2997
-47.5701
-47.9841
-48.2942
-48.489
-48.6028
-48.6423
-48.4242
-48.2762
-48.0474
-47.8655
-47.4359
-47.0624
-46.9411
-46.6188
-46.8079
-47.2505
-47.6226
-47.9415
-48.182
-48.4618
-48.873
-49.2464
-49.359
-49.8482
-50.218
-50.36
-50.4342
-50.5903
-50.542
-50.4856
-50.3122
-50.0951
-49.6962
-49.1563
-48.8132
-48.5051
-48.0963
-48.2791
-48.8047
-49.5435
-50.0702
-50.4498
-50.6811
-51.0375
-51.3648
-51.6043
-51.9404
-52.4956
-52.4537
-52.924
-53.0277
-52.7961
-52.7253
-52.6415
-52.7028
-52.3936
-51.9878
-51.7047
-51.0091
-51.2263
-50.9998
-50.8306
-51.0765
-51.8837
-52.5392
-52.7167
-53.6092
-53.9215
-54.8853
-55.231
-55.1994
-55.1017
-55.6477
-56.0614
-55.9825
-56.0435
-56.0933
-56.4168
-56.6519
-56.8403
-56.8406
-56.853
-56.9488
-56.463
-56.1212
-55.0791
-53.4099
-52.0246
-53.2233
-51.51
-54.5571
-56.8531
-57.2931
-57.8739
-58.725
-58.5783
-60.2346
-59.976
-59.8616
-59.9526
-60.1436
-60.2928
-60.0385
-59.3097
-59.0153
-59.7791
-60.5472
-61.044
-60.773
-60.8371
-60.6751
-60.5284
-60.1347
-59.7478
-59.1358
-57.7372
-57.0251
-59.057
-53.6532
-58.4505
-60.4294
-62.515
-63.5421
-63.4747
-64.3459
-64.0387
-63.7263
-63.8029
-63.5577
-63.5798
-63.8288
-63.591
-63.1957
-62.9687
-62.5344
-63.429
-64.2467
-64.9114
-64.7155
-64.1394
-63.8658
-63.4411
-62.7363
-62.5096
-61.8193
-60.9196
-60.3404
-60.915
-63.9494
-57.9238
-59.8516
-61.5775
-63.0562
-63.9269
-64.1463
-63.4625
-63.1143
-63.4177
-63.8576
-64.7821
-65.5208
-66.3495
-66.0841
-65.8137
-65.9281
-65.7439
-64.5706
-66.6326
-67.1799
-67.2377
-67.5132
-66.8202
-65.9516
-64.828
-63.5093
-62.2813
-62.331
-62.89
-62.2177
-61.3453
-61.0911
-61.2113
-61.4569
-60.6653
-62.7803
-63.2668
-63.4212
-63.7654
-63.1734
-63.8063
-64.5576
-65.2322
-65.9311
-66.6302
-67.3901
-67.1524
-66.8527
-67.3074
-66.8299
-65.4333
-64.8434
-65.9302
-67.9626
-68.457
-67.8103
-68.034
-67.4878
-66.5109
-65.907
-64.6001
-63.7065
-62.8534
-62.9456
-62.9823
-61.9854
-61.5135
-61.1292
-61.6324
-61.9258
-63.4054
-63.7057
-63.4456
-63.5829
-63.7573
-64.0933
-64.8136
-65.1894
-65.5547
-65.7956
-65.9874
-65.83
-65.9343
-65.9312
-65.4975
-65.2366
-65.0928
-65.0435
-65.2085
-65.5763
-66.1702
-66.4925
-66.2981
-66.3418
-66.2244
-65.802
-65.3773
-64.662
-64.0658
-63.4694
-63.4123
-63.0228
-63.0102
-62.6891
-62.3143
-61.4631
-42.2781
-42.526
-42.5195
-42.4719
-42.6474
-42.616
-42.6972
-42.6142
-42.6294
-42.8374
-42.7738
-42.8392
-42.7789
-42.8043
-42.8466
-42.8233
-43.0695
-43.0215
-43.0461
-42.9947
-43.1094
-43.0183
-42.956
-43.0392
-43.0058
-43.3465
-43.3591
-43.3564
-43.3239
-43.3569
-43.3572
-43.3134
-43.2557
-43.2585
-43.1848
-43.2381
-43.641
-43.6659
-43.6492
-43.6419
-43.628
-43.6309
-43.7449
-43.6539
-43.5787
-43.5113
-43.5359
-43.5737
-43.5728
-44.0243
-44.0439
-44.0077
-44.0423
-44.0564
-44.1268
-44.2292
-44.3192
-44.1141
-44.013
-43.9247
-43.9215
-43.8503
-43.9146
-43.8464
-44.5313
-44.4798
-44.4988
-44.5328
-44.5697
-44.6348
-44.7953
-44.971
-45.0885
-44.8547
-44.6439
-44.4997
-44.5235
-44.4384
-44.5184
-44.4455
-44.3803
-44.9958
-45.1227
-45.0867
-45.1276
-45.3012
-45.3825
-45.4789
-45.7229
-45.9024
-46.0619
-45.9395
-45.6494
-45.4982
-45.238
-45.2279
-45.0946
-44.8861
-44.7751
-44.929
-45.6691
-45.7456
-45.9763
-45.9033
-46.1018
-46.1933
-46.2921
-46.6828
-46.9503
-47.1296
-47.2347
-47.1764
-47.0755
-46.7536
-46.5299
-46.3989
-46.2524
-45.7939
-45.8461
-45.6202
-45.5543
-46.3707
-46.4754
-46.7675
-46.822
-47.0223
-47.2935
-47.5345
-47.8108
-48.2498
-48.5075
-48.7363
-48.9015
-48.7584
-48.6595
-48.6361
-48.2636
-48.0686
-47.8525
-47.4081
-47.0534
-46.8206
-46.7639
-46.8366
-47.4982
-47.703
-48.1415
-48.2176
-48.4694
-48.8891
-49.2895
-49.5844
-49.8383
-50.1064
-50.2471
-50.5561
-50.7103
-50.6278
-50.7205
-50.574
-50.6057
-50.3293
-50.1023
-49.6664
-49.3375
-48.7869
-48.6905
-48.152
-48.1515
-48.8075
-49.3591
-50.0428
-50.6072
-50.7469
-51.0878
-51.204
-51.7089
-51.8304
-52.3687
-52.9024
-52.8241
-53.1046
-53.2276
-53.0353
-52.8333
-52.7853
-52.7164
-52.6884
-52.4501
-52.0322
-51.9016
-51.3591
-51.4288
-51.0786
-50.9499
-50.8024
-51.398
-52.6638
-52.5858
-53.3583
-54.1755
-54.6953
-55.2879
-55.1327
-55.3092
-55.5645
-55.8972
-55.9685
-55.949
-56.0066
-55.8185
-56.1647
-56.5071
-56.9782
-57.0187
-57.0017
-57.1603
-57.2194
-56.5308
-56.1364
-55.0033
-53.5532
-51.9433
-53.0554
-51.4966
-53.9197
-56.7678
-56.9746
-57.6896
-58.4556
-58.2464
-59.6682
-60.1216
-59.8578
-59.8051
-60.0104
-60.2452
-59.8179
-59.1834
-58.8079
-58.7787
-59.2795
-60.011
-60.6854
-61.0513
-60.8674
-60.9505
-60.6986
-60.6409
-60.0362
-59.273
-58.2641
-57.8487
-57.1737
-60.0226
-53.7756
-58.1353
-59.6217
-61.7822
-63.0169
-63.0606
-64.0574
-63.7918
-63.5197
-63.5739
-63.3774
-63.4033
-63.7367
-63.3125
-62.9064
-62.7414
-62.2882
-61.7013
-62.8798
-63.6614
-64.4412
-65.0309
-64.7066
-64.1938
-63.8913
-63.354
-62.6512
-62.3943
-61.5808
-60.8006
-60.2953
-61.1166
-64.453
-58.1068
-59.2394
-60.9454
-62.3289
-63.7317
-63.7271
-63.0555
-62.9486
-63.4667
-63.9098
-64.6713
-65.5413
-66.1748
-65.8316
-65.5519
-65.6033
-65.2903
-64.1937
-63.5051
-65.0347
-67.1485
-67.4469
-67.4185
-67.5232
-66.8068
-65.9583
-64.7912
-63.4661
-62.2374
-62.2155
-62.6302
-62.056
-61.2446
-61.2049
-61.2157
-61.4661
-60.6514
-62.7359
-63.2533
-63.3952
-63.6816
-63.179
-63.9115
-64.6013
-65.2141
-65.8972
-66.6105
-67.2815
-66.996
-66.6757
-67.0843
-66.5518
-65.1923
-64.7136
-64.3571
-64.9591
-66.2027
-68.2308
-68.5441
-67.8323
-68.0572
-67.4009
-66.4734
-65.8261
-64.4893
-63.6144
-62.8016
-62.876
-62.9165
-61.9417
-61.4171
-60.8889
-61.4993
-62.0554
-63.3991
-63.7528
-63.4597
-63.5748
-63.802
-64.132
-64.8316
-65.1967
-65.5497
-65.7763
-65.9064
-65.7105
-65.8534
-65.8209
-65.3992
-65.14
-65.0989
-65.03
-64.9821
-65.0613
-65.2858
-65.665
-66.2229
-66.5036
-66.2883
-66.3343
-66.1949
-65.7806
-65.331
-64.5819
-64.0672
-63.4676
-63.4155
-63.0176
-63.0165
-62.6367
-62.4675
-61.5195
-42.3058
-42.3216
-42.2906
-42.2699
-42.5489
-42.5303
-42.5596
-42.4755
-42.4458
-42.6767
-42.6087
-42.6612
-42.6686
-42.5918
-42.6439
-42.6441
-42.8438
-42.8273
-42.8339
-42.8609
-42.8968
-42.7614
-42.8668
-42.8442
-42.8037
-43.0608
-43.0671
-43.0328
-43.0241
-43.0947
-43.1078
-43.0999
-43.0236
-42.9803
-43.1217
-43.0232
-43.3235
-43.3281
-43.3312
-43.3423
-43.3056
-43.4035
-43.413
-43.3799
-43.2777
-43.2269
-43.2499
-43.2161
-43.239
-43.674
-43.6778
-43.6687
-43.6312
-43.6859
-43.6353
-43.775
-43.8799
-43.6908
-43.6381
-43.4898
-43.5814
-43.5564
-43.5369
-43.5616
-44.066
-44.0422
-44.0004
-44.0565
-44.1729
-44.1209
-44.2124
-44.3446
-44.4038
-44.2535
-44.1495
-44.0099
-43.9535
-43.9073
-43.8565
-43.9123
-43.8466
-44.5766
-44.4148
-44.468
-44.4888
-44.6583
-44.7304
-44.6932
-44.8845
-45.0842
-45.238
-45.1729
-44.7657
-44.6258
-44.5843
-44.5637
-44.4913
-44.5438
-44.2913
-44.4053
-45.0596
-45.161
-45.1649
-45.1405
-45.3357
-45.4171
-45.4903
-45.5655
-45.9617
-46.0967
-46.2517
-46.0905
-45.8121
-45.6712
-45.4746
-45.3521
-45.2106
-44.953
-44.8894
-44.9022
-44.9138
-45.6668
-45.788
-46.006
-45.9175
-46.1186
-46.3469
-46.5612
-46.6553
-46.9139
-47.0829
-47.2849
-47.4114
-47.3369
-47.1833
-47.1958
-46.7044
-46.5722
-46.3457
-46.1215
-45.8192
-45.8724
-45.5989
-45.4908
-46.3954
-46.5276
-46.6902
-46.887
-47.0778
-47.3174
-47.61
-47.8219
-48.073
-48.3185
-48.6514
-48.7916
-48.9633
-48.9568
-48.7613
-48.7154
-48.6216
-48.3044
-47.9959
-47.6997
-47.4237
-47.2264
-47.0506
-46.8356
-46.9002
-47.5379
-47.6605
-48.124
-48.2296
-48.4817
-48.8951
-49.2472
-49.6076
-49.8273
-49.9728
-50.1769
-50.4385
-50.5756
-50.7717
-50.8147
-50.6801
-50.6422
-50.6365
-50.6137
-50.3048
-49.9713
-49.4938
-49.1794
-48.756
-48.7217
-47.9737
-48.1003
-48.8174
-49.4739
-49.9283
-50.5206
-51.0012
-51.1131
-51.3593
-51.6461
-52.113
-52.218
-52.7796
-52.8373
-52.9497
-53.0977
-53.3243
-53.1966
-53.1215
-52.7296
-52.8279
-52.8634
-52.664
-52.5492
-52.343
-51.997
-51.2023
-51.6847
-51.3256
-50.8513
-50.8217
-51.5606
-53.3703
-52.4887
-53.253
-54.09
-54.2662
-55.0667
-55.2813
-55.2973
-55.2345
-55.709
-55.9157
-55.7472
-55.7155
-55.575
-55.6569
-55.8755
-56.4411
-56.5471
-57.0258
-56.984
-57.0412
-57.6307
-57.552
-56.7068
-56.2865
-54.535
-53.7416
-51.7827
-53.1836
-51.2445
-54.486
-56.7905
-56.188
-57.5958
-58.2033
-58.4403
-59.3269
-59.7343
-59.9472
-59.6694
-59.9086
-60.1212
-59.6601
-59.0547
-58.55
-58.5052
-58.44
-58.951
-59.527
-60.1242
-60.7791
-61.0953
-61.07
-61.0488
-60.7186
-60.632
-60.0151
-59.3346
-58.0536
-58.0442
-57.5899
-60.0516
-53.9572
-57.9345
-58.912
-60.8138
-62.47
-62.7501
-63.2597
-63.2264
-63.2711
-63.2543
-63.1929
-63.2301
-63.4336
-63.0693
-62.6036
-62.5116
-61.9224
-61.5509
-61.2007
-62.1335
-63.2456
-63.9294
-64.7685
-65.2607
-64.6918
-64.2005
-63.8899
-63.2278
-62.4895
-62.2061
-61.3589
-60.6667
-60.3769
-61.5445
-64.9849
-58.2304
-58.8578
-60.4496
-61.6108
-63.4105
-63.3524
-62.6357
-62.7209
-63.5571
-64.0414
-64.7258
-65.5058
-65.9555
-65.5704
-65.2782
-65.2467
-64.8548
-63.858
-63.2739
-62.6936
-63.8546
-65.5388
-67.6359
-67.6538
-67.5501
-67.5321
-66.7852
-65.989
-64.7551
-63.3961
-62.1851
-62.1167
-62.4632
-61.9003
-61.1995
-61.3161
-61.1225
-61.2209
-60.6892
-62.8043
-63.2506
-63.374
-63.6044
-63.1975
-64.0412
-64.6493
-65.2197
-65.8715
-66.5685
-67.1694
-66.8376
-66.4862
-66.8568
-66.2362
-64.968
-64.565
-64.3215
-64.8475
-64.4194
-65.0882
-66.4719
-68.469
-68.6035
-67.8493
-68.0633
-67.3194
-66.431
-65.7112
-64.3671
-63.5199
-62.7533
-62.8217
-62.8663
-61.9146
-61.3987
-60.6368
-61.3556
-62.1914
-63.428
-63.797
-63.485
-63.5724
-63.8346
-64.1844
-64.8504
-65.2072
-65.5452
-65.753
-65.8141
-65.5764
-65.757
-65.7111
-65.3442
-65.077
-65.0674
-65.0221
-64.9955
-65.101
-64.9706
-65.0598
-65.3628
-65.7414
-66.2643
-66.5034
-66.2737