/*--------------------------------*- C++ -*----------------------------------*\
  =========                 |
  \\      /  F ield         | OpenFOAM: The Open Source CFD Toolbox
   \\    /   O peration     | Website:  https://openfoam.org
    \\  /    A nd           | Version:  7
     \\/     M anipulation  |
\*---------------------------------------------------------------------------*/
FoamFile
{
    version     2.0;
    format      ascii;
    class       volScalarField;
    location    "1.5";
    object      nut;
}
// * * * * * * * * * * * * * * * * * * * * * * * * * * * * * * * * * * * * * //

dimensions      [0 2 -1 0 0 0 0];

internalField   nonuniform List<scalar> 
18780
(
6.80778e-05
0.000545834
5.25636e-05
7.43782e-05
0.000335442
0.000172035
9.42249e-05
3.25503e-05
6.4769e-05
8.19486e-05
0.000171912
0.000425888
0.00030358
0.000121734
0.000117056
0.000125868
9.47843e-05
7.89939e-05
9.3451e-05
3.30169e-05
0.000251788
0.000330495
0.00029529
0.000258624
0.000312693
0.000127113
5.98466e-05
8.76634e-05
0.000123231
0.000169832
0.000108631
0.000290931
6.68832e-05
5.20998e-05
4.94873e-05
0.000366475
0.000396852
0.000431765
0.000354387
0.000195717
0.000338858
0.000263354
0.000178442
0.000155397
0.000245022
0.000106174
0.000107786
0.000167899
0.000171984
0.00016369
0.000130763
8.70519e-05
0.000155134
0.000120808
5.43228e-05
0.000122135
0.00115223
0.000804426
0.000327113
0.000257094
0.000160699
0.000208654
0.00034507
0.000292796
0.000298903
0.00055535
0.000324113
0.000166652
0.000171315
0.000270974
0.000215743
0.00030643
0.000138781
0.000197371
0.000149579
0.000166949
0.000134235
8.56455e-05
0.000242899
0.000131852
8.90876e-05
3.73955e-05
0.000188665
3.6973e-05
0.000531898
0.00128494
0.000824331
0.000640458
0.000975577
0.000503896
0.000371445
0.00023173
0.000212481
0.000462243
0.00043186
0.000326508
0.000276549
0.000521043
0.000297581
0.000324666
0.000232632
0.00028137
0.000248539
0.000231288
0.000199409
0.000199657
0.00016593
0.000171552
0.000145143
0.000163761
0.000147711
0.000119746
5.72285e-05
0.000157475
5.38032e-05
0.000101534
0.000105025
5.16501e-05
4.18685e-05
2.33417e-05
0.000394464
0.000598698
0.000585117
0.00156985
0.00128004
0.000650843
0.000517725
0.00032327
0.000380266
0.000355284
0.000317159
0.000276189
0.000390151
0.000378158
0.000495236
0.000350852
0.000335672
0.000430465
0.000300959
0.000275424
0.000242551
0.000290694
0.00025502
0.000274087
0.00027779
0.000241049
0.000213192
0.000193487
7.89401e-05
0.000136837
0.000164163
0.000145166
0.000161094
0.000143974
0.000118951
9.37977e-05
9.89298e-05
0.000144953
0.000226369
8.89151e-05
6.65035e-05
7.43241e-05
0.000132188
3.84058e-05
2.67332e-05
0.000427432
0.000387949
0.000528251
0.000678075
0.000519532
0.00105502
0.00142351
0.000944997
0.00123125
0.000762017
0.00053333
0.000707576
0.0010329
0.00019401
0.000371642
0.000258954
0.000337152
0.000479449
0.000403918
0.000477699
0.000491926
0.00036361
0.000361711
0.000377225
0.000401066
0.000494989
0.000288565
0.000245972
0.000263421
0.000279353
0.000198002
0.000313936
0.000256313
0.000243894
0.000224106
0.000213402
0.00018139
0.00013539
0.000173223
0.000141962
0.000148058
0.000153823
0.00013782
0.000120409
9.94652e-05
6.57427e-05
9.19855e-05
0.000130667
9.88091e-05
0.000136549
3.94932e-05
7.26737e-05
0.00017945
9.64793e-05
2.67985e-05
1.92545e-05
0.000365365
0.000604175
0.000555377
0.000530029
0.000642645
0.000598793
0.000495573
0.000298786
0.000779045
0.00101229
0.00120629
0.00118223
0.00146563
0.000821858
0.000636588
0.000637366
0.000322823
0.000639982
0.000274384
0.000616406
0.000274926
0.000247197
0.000526883
0.000435801
0.000261549
0.000481061
0.000406609
0.00047295
0.000379015
0.000324466
0.000398364
0.000394482
0.000484999
0.000377189
0.000256216
0.000223279
0.000257141
0.000244444
0.000234396
0.000205823
0.000326107
0.000246709
0.000252831
0.000226646
0.000214129
0.000203248
0.000154376
0.000139433
0.000189258
0.000119592
0.000140493
0.000150342
0.000135012
0.000125933
0.000106686
7.76379e-05
4.86777e-05
6.78042e-05
0.00017489
0.000178045
0.000128973
5.81329e-05
0.000128366
3.12595e-05
0.000107909
2.91779e-05
2.28329e-05
2.08255e-05
0.000406122
0.00033816
0.000605702
0.00054511
0.000352806
0.000584583
0.000705765
0.000499904
0.000560679
0.000561755
0.000358686
0.000809659
0.000729966
0.000766066
0.00121368
0.00107897
0.00070086
0.000922289
0.00121995
0.00138001
0.000779285
0.000364172
0.00061827
0.000545857
0.000661614
0.000789598
0.000236025
0.000379976
0.000213591
0.000538751
0.000496784
0.000469799
0.000530965
0.000489041
0.000446472
0.0003671
0.000377943
0.000334787
0.000306678
0.000382069
0.000445471
0.000387859
0.000399685
0.000234363
0.000223685
0.000237802
0.000256765
0.000212946
0.00018243
0.000291582
0.000242891
0.000244917
0.000251137
0.000233367
0.000201446
0.00019213
0.00016265
0.000107092
0.000112673
0.000182843
0.000138859
0.000152485
0.000156356
0.000129419
0.000116865
0.000105098
7.29576e-05
5.42259e-05
4.65657e-05
0.000102898
0.000103115
0.000182967
0.000178298
0.000228465
0.000118458
3.96156e-05
2.72545e-05
2.23466e-05
3.61979e-05
2.33326e-05
1.93543e-05
0.000253302
0.000405272
0.0004863
0.000400373
0.000465768
0.00037485
0.000738592
0.000566708
0.000751902
0.000359891
0.00066813
0.00060486
0.000557181
0.0005688
0.000464283
0.000529268
0.000654368
0.000557569
0.000730876
0.00097941
0.000891915
0.00136414
0.00146371
0.00126757
0.000821488
0.000700992
0.00125917
0.00117951
0.000576354
0.000491597
0.000339106
0.000486236
0.000884001
0.000538928
0.00059361
0.000476527
0.000354752
0.00025405
0.000549946
0.000562604
0.000481674
0.000377749
0.000451622
0.000419232
0.0003758
0.000360174
0.000292486
0.000309151
0.000310435
0.000275287
0.000410865
0.000473757
0.000383942
0.000354356
0.000308451
0.000235658
0.000245825
0.00025748
0.000231909
0.000167645
0.000284105
0.000255069
0.000196447
0.000233728
0.000243251
0.000224058
0.00020704
0.000191821
0.000158199
0.000114808
6.8746e-05
0.000179038
0.000148347
0.000178165
0.000154007
0.000137145
0.000126325
0.000120102
9.67375e-05
4.817e-05
4.96196e-05
4.78082e-05
3.99366e-05
5.21421e-05
0.000117474
0.000123602
0.000223617
0.000141452
5.60566e-05
7.55841e-05
3.71425e-05
3.05022e-05
2.36463e-05
2.31091e-05
2.18775e-05
2.6541e-05
0.000282321
0.000401792
0.00021616
0.000488229
0.000537034
0.00039177
0.000372915
0.000398353
0.000691132
0.000609304
0.000492089
0.000611317
0.000604989
0.000448666
0.000694825
0.000477053
0.000622331
0.00041501
0.000586667
0.000491842
0.000150619
0.000315446
0.000433594
0.000511928
0.00068807
0.000722022
0.00129136
0.00116868
0.000935195
0.00110653
0.00153895
0.00102586
0.000775248
0.000420229
0.000777214
0.00111666
0.00115955
0.000829721
0.000417035
0.000591837
0.000415984
0.000941653
0.000636511
0.000576856
0.000718846
0.000390246
0.000377451
0.000223582
0.000364197
0.000523016
0.00049368
0.000394196
0.000503668
0.000406756
0.000406862
0.000295961
0.000319001
0.000240596
0.000255244
0.000284249
0.000284942
0.000226083
0.000416183
0.000340746
0.000459137
0.000386408
0.000286095
0.000284317
0.000235253
0.000247143
0.000229655
0.000179672
0.000130311
0.000263994
0.000231225
0.000263275
0.000230125
0.000237723
0.000210189
0.000201936
0.0001977
0.000167958
0.000116343
7.5305e-05
5.47061e-05
0.000176617
0.000116597
0.000156769
0.000163661
0.000161809
0.000120084
0.00011344
9.47218e-05
0.000122206
4.12107e-05
5.37445e-05
4.25299e-05
4.13674e-05
4.31114e-05
0.000149371
0.000110547
8.75186e-05
9.36017e-05
8.10212e-05
4.13353e-05
7.63493e-05
5.9282e-05
2.443e-05
3.24127e-05
2.77272e-05
2.72495e-05
2.43761e-05
0.000243309
0.00046084
0.000277455
0.00027972
0.000320744
0.000360912
0.000545834
0.000344627
0.000315769
0.000516392
0.000395254
0.000627662
0.000409914
0.000481488
0.000615696
0.00049866
0.000537548
0.000675464
0.000633778
0.00067454
0.000444273
0.000598613
0.000313123
0.000387471
0.000623907
0.000622743
0.00055396
0.000269287
0.000350259
0.000925941
0.000243254
0.000390416
0.000633851
0.000916904
0.00150117
0.000983964
0.000729459
0.00093544
0.00138632
0.00160731
0.00119247
0.000774811
0.000877419
0.000662896
0.000994158
0.00111318
0.00101587
0.000787148
0.000542145
0.000433324
0.00033751
0.000804845
0.000740996
0.000554843
0.000527395
0.000522826
0.000533983
0.000403672
0.000324588
0.000348224
0.000511832
0.000462183
0.000397572
0.00030845
0.000595543
0.000372513
0.000457202
0.000337629
0.000335149
0.000335111
0.000228925
0.000261336
0.000272503
0.000239264
0.000169237
0.000289362
0.00046675
0.000402047
0.000389353
0.000319225
0.000286726
0.000226351
0.000235939
0.000219074
0.000183208
0.000144537
0.000102207
0.000231994
0.000202382
0.00025134
0.000218358
0.000239983
0.000195339
0.000188857
0.000182653
0.000148768
0.000112612
7.66649e-05
5.67908e-05
5.34279e-05
0.000107091
0.000149734
0.000130601
0.00014903
0.000142154
0.000120247
0.000106973
9.52377e-05
7.23901e-05
6.21654e-05
5.30194e-05
4.26377e-05
4.14723e-05
3.60261e-05
8.05453e-05
8.20089e-05
9.41859e-05
9.31323e-05
0.00011056
5.14383e-05
5.56742e-05
2.83019e-05
4.10578e-05
4.00495e-05
2.37779e-05
2.23083e-05
2.47778e-05
2.60443e-05
1.46246e-05
0.000194521
0.000362238
0.000295214
0.000431612
0.000366207
0.000355656
0.0004433
0.000365638
0.000451494
0.000307529
0.000518878
0.000458074
0.000393314
0.000581187
0.000542882
0.000738624
0.000520718
0.000703264
0.000903966
0.000680367
0.000310715
0.000527312
0.000748285
0.000732789
0.000558848
0.000482083
0.000591117
0.000681122
0.000638206
0.000382244
0.000365552
0.000456542
0.000577053
0.000545935
0.00059547
0.000641037
0.000658415
0.0010835
0.000610152
0.00034131
0.000520291
0.00085645
0.000988586
0.00134198
0.0015164
0.000713551
0.000908163
0.00110833
0.00117002
0.00146131
0.00109583
0.000783785
0.000637709
0.000653607
0.00113497
0.00078551
0.000879086
0.00106763
0.000862706
0.000577526
0.000702521
0.00036457
0.000752939
0.000735317
0.000564049
0.00049117
0.000618198
0.000839163
0.000548215
0.000565452
0.000417361
0.000378878
0.000458069
0.000402239
0.000367147
0.000320404
0.0002572
0.000406954
0.000650009
0.000501914
0.000363224
0.000401055
0.000287238
0.000202612
0.000246397
0.000266607
0.000237453
0.000184803
0.000136633
0.000461807
0.000424242
0.000356183
0.000315297
0.000377501
0.000299043
0.000226367
0.000230699
0.000203915
0.000168394
0.000141986
0.000114403
8.22267e-05
0.00021475
0.000171633
0.000204736
0.000217618
0.000220439
0.000186052
0.000180832
0.000174861
0.000137377
0.000102003
7.46064e-05
6.06352e-05
4.8737e-05
5.51478e-05
0.000138275
0.000175256
0.000149554
0.000149115
0.000130763
0.000114783
0.00011168
0.00010343
3.78283e-05
6.1932e-05
4.04954e-05
3.87009e-05
4.67445e-05
3.43794e-05
3.46563e-05
5.28583e-05
0.000113563
7.59279e-05
0.000163001
0.000173459
0.000125108
3.27891e-05
2.83685e-05
2.01345e-05
2.71079e-05
3.56564e-05
3.20619e-05
2.72753e-05
2.63812e-05
1.59433e-05
3.27337e-05
0.000336163
0.000171597
0.000305867
0.000416061
0.000346812
0.0003187
0.000446082
0.000368047
0.000275701
0.00038788
0.000509256
0.000267588
0.000356954
0.00044266
0.000456662
0.000493681
0.000495948
0.000563122
0.000339687
0.000505803
0.000480719
0.000557911
0.000539214
0.000510323
0.000292795
0.000465512
0.000430093
0.000583452
0.000383333
0.000643357
0.000727936
0.000830399
0.000762224
0.000638343
0.000500957
0.000674893
0.000533219
0.00070714
0.000529746
0.000725835
0.000467285
0.000486579
0.000538336
0.000734058
0.000364334
0.000866254
0.000895268
0.00120205
0.000598264
0.000555483
0.000513579
0.000841437
0.000906374
0.00128273
0.00135316
0.0013188
0.000845001
0.00115227
0.00114525
0.00131345
0.0014071
0.00141154
0.00106101
0.000490045
0.000699312
0.000965825
0.000941644
0.000685726
0.00096095
0.00087108
0.000888738
0.000770601
0.000420596
0.000440928
0.000703495
0.000666649
0.00053847
0.000506022
0.000369861
0.000739453
0.00052992
0.000690411
0.000518734
0.000604084
0.000490298
0.00027305
0.000303198
0.000328707
0.000313632
0.000263826
0.00021488
0.00059046
0.000381011
0.000439965
0.000428076
0.000481175
0.000437846
0.000248328
0.000241719
0.000254435
0.000238271
0.00018936
0.000152523
0.000113781
0.000353623
0.000385847
0.000372014
0.00041272
0.000413738
0.00028673
0.000217103
0.000215688
0.000193108
0.000149745
0.000143778
0.000119897
9.18717e-05
6.78752e-05
0.000206269
0.000198467
0.000189492
0.000213513
0.000190749
0.000175841
0.000169956
0.000165736
0.000134218
9.14128e-05
7.37138e-05
6.33223e-05
4.84496e-05
5.12027e-05
5.59027e-05
0.000178749
0.000149835
0.000159528
0.000153745
0.000204478
0.00011016
0.000105977
7.42912e-05
5.395e-05
4.90555e-05
4.40186e-05
3.30054e-05
4.58774e-05
3.48371e-05
3.30318e-05
3.56909e-05
3.94485e-05
0.000149576
0.000177543
7.3342e-05
0.000280425
9.30644e-05
0.000214181
2.9861e-05
2.25809e-05
1.88754e-05
2.55952e-05
1.79314e-05
3.05289e-05
2.76774e-05
1.45084e-05
3.13441e-05
1.38531e-05
0.000321244
0.000468582
0.000311186
0.000233116
0.000365129
0.000263282
0.000391554
0.000418249
0.000295773
0.000258265
0.000515962
0.00040582
0.000464756
0.000298913
0.000317828
0.000362519
0.000389126
0.000421936
0.000547112
0.000574858
0.000346595
0.000419307
0.000470471
0.000399049
0.000333411
0.000370676
0.000442468
0.000737832
0.000355687
0.000592706
0.000542387
0.000582845
0.000351662
0.000590992
0.000443081
0.000398698
0.000635627
0.000488499
0.000321356
0.000787293
0.000690163
0.000591406
0.000471153
0.000548467
0.000468756
0.000693719
0.000494562
0.000321619
0.000806437
0.000362073
0.00101481
0.000689037
0.000474212
0.00051796
9.9788e-05
0.000508286
0.000836349
0.00146802
0.000904167
0.000892112
0.000602974
0.000414101
0.00089696
0.000844899
0.00100535
0.000892964
0.000893964
0.000810315
0.00112776
0.00102002
0.00144946
0.0010495
0.00135922
0.00119951
0.000964458
0.000875005
0.000642007
0.0009108
0.000888021
0.000719154
0.000594762
0.000903544
0.000788232
0.000895314
0.000746264
0.000723577
0.000586532
0.000642612
0.000633762
0.000494435
0.000483441
0.000401565
0.000292311
0.000382756
0.00057252
0.000696632
0.000513188
0.000708505
0.000470802
0.000399164
0.000274965
0.000290985
0.000306924
0.000254224
0.00023365
0.000171057
0.000442609
0.000349052
0.000442867
0.000494404
0.000533503
0.000442269
0.000304304
0.000258599
0.000240684
0.000224276
0.000189417
0.000161971
0.000117324
0.00010629
0.000362191
0.000430434
0.00035855
0.000437284
0.000421355
0.000258016
0.000202684
0.000196257
0.000180282
0.000144394
0.000128332
0.000115837
9.62812e-05
6.76702e-05
7.69942e-05
0.000181937
0.00017277
0.000175427
0.000176936
0.000194591
0.000167869
0.000157739
0.000155663
0.000131033
8.26502e-05
6.58598e-05
6.43131e-05
5.22281e-05
4.06424e-05
5.24455e-05
4.44237e-05
0.00012028
0.000158839
0.000156787
0.000161235
0.000193288
0.000113607
0.000116207
8.45664e-05
6.91273e-05
4.10877e-05
5.24503e-05
4.2734e-05
4.29946e-05
4.15609e-05
3.32379e-05
3.56256e-05
3.07333e-05
5.79561e-05
8.97102e-05
0.000190269
9.56804e-05
0.000140128
8.20194e-05
4.57857e-05
3.50129e-05
4.20954e-05
3.49694e-05
2.38006e-05
4.76626e-05
2.93565e-05
2.69271e-05
2.32952e-05
1.887e-05
1.46904e-05
1.35013e-05
0.000545956
0.000243568
0.000352133
0.000412164
0.000338649
0.000285443
0.000277834
0.000322132
0.000306566
0.000303994
0.000462294
0.000356357
0.000419739
0.000330652
0.000309628
0.000512554
0.00043264
0.000460134
0.000447702
0.000407004
0.000226734
0.000422381
0.000455255
0.000376797
0.000286153
0.000182769
0.000245971
0.000295903
0.000443119
0.000414781
0.000307011
0.000468095
0.000368647
0.000572635
0.000457126
0.000502693
0.000441547
0.000574703
0.000640259
0.000791638
0.000729028
0.000722969
0.000249639
0.000607998
0.000410126
0.000535498
0.00049521
0.000552178
0.000470459
0.00059045
0.000664483
0.00077128
0.000550293
0.000458861
0.000445252
0.000615204
0.000272482
0.000330766
0.000450215
0.00115805
0.000782772
0.00062904
0.000820473
0.000424027
0.000516788
0.000340281
0.000517801
0.000981459
0.00107775
0.00110406
0.00102169
0.000870457
0.000460785
0.000381934
0.00107229
0.000825958
0.0014103
0.0012277
0.00104649
0.00100132
0.00103714
0.00109133
0.000865516
0.00137407
0.00131847
0.00144234
0.0013628
0.00136329
0.000589466
0.000475363
0.000762826
0.000767507
0.000692059
0.000656535
0.000502651
0.000931528
0.00085179
0.000837323
0.000998394
0.000702895
0.000703813
0.000725867
0.000568921
0.000438742
0.000444813
0.00041377
0.000314332
0.000235572
0.00057352
0.000705204
0.000645201
0.00062917
0.000668893
0.000553352
0.000549179
0.000278658
0.000281738
0.000295825
0.000261383
0.000213874
0.000212995
0.000117641
0.000574621
0.000529236
0.000382542
0.000495043
0.000543911
0.000487835
0.000330661
0.00026063
0.000224902
0.000207966
0.000173593
0.000161658
0.00012986
9.15846e-05
8.049e-05
0.000333539
0.000362363
0.000323923
0.000339599
0.000365757
0.000254124
0.000199698
0.00019281
0.000178312
0.000143056
0.000106884
0.00010837
9.53832e-05
7.13249e-05
8.33055e-05
4.74306e-05
0.000191382
0.000205189
0.000180811
0.00017141
0.000180076
0.000161856
0.000146379
0.000156595
0.00012418
8.62915e-05
6.11102e-05
6.30366e-05
5.0781e-05
4.15048e-05
4.43501e-05
5.38626e-05
3.9535e-05
0.000144868
0.000169217
0.000167933
0.000139962
0.00029032
0.000106173
0.000131703
8.18055e-05
0.000122197
5.00931e-05
6.67582e-05
4.94505e-05
4.09945e-05
4.75226e-05
3.83635e-05
3.80951e-05
3.39689e-05
3.00888e-05
0.000168002
5.85764e-05
3.95119e-05
0.000125955
0.00012259
5.11484e-05
0.000139397
3.66575e-05
2.30469e-05
4.51214e-05
5.41518e-05
2.88922e-05
2.88297e-05
2.98158e-05
3.29842e-05
1.22258e-05
1.26294e-05
1.49304e-05
1.544e-05
0.000749569
0.000471302
0.000442403
0.000370687
0.000372075
0.000402738
0.000346185
0.000430645
0.000285597
0.000310378
0.000346357
0.000374513
0.00036944
0.000330393
0.000382166
0.000501836
0.000477021
0.000401791
0.000375013
0.000428611
0.000331848
0.000336513
0.000534604
0.000434881
0.000326557
0.00018577
0.00029459
0.000203802
0.000326613
0.000278158
0.000386636
0.000389366
0.000470333
0.000405333
0.000348341
0.000325925
0.000511076
0.00032079
0.000498789
0.000452935
0.000558855
0.000278379
0.000358687
0.000349896
0.000530654
0.000417153
0.000434084
0.000463901
0.000379273
0.000573941
0.000395847
0.000412349
0.00065875
0.000573497
0.000484967
0.000440411
0.000627087
0.000397222
0.00047336
0.000607532
0.000568359
0.000897462
0.000806029
0.00065579
0.000500174
0.000405475
0.000453095
0.000439812
0.00032199
0.000853064
0.000719113
0.000833757
0.000901621
0.000864247
0.000428886
0.000604411
0.000536038
0.000316195
0.000503977
0.000788288
0.00092792
0.000665165
0.000869427
0.00090026
0.000944691
0.000686011
0.000442497
0.00114137
0.00100601
0.00102493
0.00179935
0.00119093
0.000865844
0.000990457
0.00101305
0.000905201
0.000691761
0.00151294
0.00132719
0.00179849
0.0011902
0.00135212
0.000930122
0.000705235
0.000801424
0.00067771
0.000618875
0.000650767
0.000552353
0.000396681
0.000950768
0.000746674
0.00102262
0.000851778
0.000858628
0.000818593
0.000785448
0.000560674
0.000367407
0.000377729
0.000416861
0.000313032
0.000245398
0.000216827
0.000423019
0.000548817
0.000684347
0.000619076
0.000640842
0.000631316
0.000558237
0.000334932
0.000294958
0.000290519
0.000262992
0.000208116
0.000209357
0.000144037
0.000102376
0.00053557
0.000475646
0.000341675
0.000516942
0.000532321
0.000500953
0.000326283
0.00024629
0.000217448
0.000188045
0.000164782
0.000153203
0.000137615
9.51561e-05
8.10668e-05
7.50942e-05
0.000309655
0.000359638
0.000345447
0.000383206
0.000328775
0.000251645
0.000207689
0.000190315
0.00017691
0.000135711
0.000110633
0.000104241
9.30407e-05
7.52914e-05
6.63588e-05
5.27342e-05
5.19266e-05
0.000196079
0.000254671
0.000194217
0.000176197
0.000190393
0.000162952
0.000156034
0.000147889
0.000117134
8.43933e-05
6.33151e-05
6.14017e-05
5.2762e-05
4.90338e-05
4.317e-05
5.49657e-05
4.00405e-05
3.74835e-05
0.000146143
0.000156747
0.000170029
0.00018466
0.000233621
0.000102977
9.42197e-05
7.54486e-05
7.32083e-05
5.44588e-05
5.91493e-05
4.73291e-05
4.24981e-05
4.94581e-05
3.42379e-05
3.78566e-05
4.02316e-05
3.19671e-05
3.11253e-05
0.000140527
5.51169e-05
1.51295e-05
0.000128945
6.57379e-05
0.000119418
4.57552e-05
5.41325e-05
2.94029e-05
2.10078e-05
3.42828e-05
1.30108e-05
3.33471e-05
3.20299e-05
2.97139e-05
1.35057e-05
1.42801e-05
1.42645e-05
1.55487e-05
2.03138e-05
0.00120084
0.000712106
0.000704038
0.000524962
0.000585507
0.000549494
0.00038933
0.000384655
0.000461452
0.000385287
0.000454549
0.000329318
0.000327499
0.000286672
0.000351259
0.000333302
0.000340869
0.000443687
0.000353133
0.000413866
0.000373422
0.000398769
0.000561988
0.000399407
0.000395949
0.000290478
0.000311626
0.000255411
0.000496475
0.000345937
0.000412671
0.000307955
0.000282489
0.000271876
0.00030913
0.000228326
0.000232472
0.000326662
0.00043774
0.000425109
0.000340448
0.000540842
0.000399695
0.000171562
0.000360522
0.000435279
0.000406776
0.000336474
0.000389642
0.000500801
0.000336098
0.000487261
0.000603093
0.0002568
0.00046012
0.000417928
0.000398176
0.000593282
0.000724298
0.000453438
0.00032317
0.000870989
0.000471142
0.000309795
0.000571938
0.000567664
0.000489754
0.000729981
0.000290711
0.000525988
0.000395993
0.000471079
0.000580919
0.000888806
0.000801938
0.000613909
0.000558584
0.000445081
0.000379125
0.00046302
0.000545903
0.000750717
0.000791798
0.000617939
0.00110616
0.000728416
0.00115664
0.000387954
0.000506798
0.000492457
0.000411602
0.000488088
0.000858203
0.00127106
0.0011149
0.000778029
0.00113476
0.000849312
0.000996629
0.000455991
0.000546277
0.000707545
0.00125693
0.00132745
0.00115536
0.00126968
0.000643857
0.000758035
0.000922048
0.000859169
0.00082734
0.000536462
0.0013771
0.00127431
0.00137991
0.00123645
0.0012808
0.00108079
0.00129173
0.000902762
0.000626533
0.000484994
0.000608035
0.000566697
0.000446472
0.000246806
0.00111123
0.000808557
0.00087439
0.000757279
0.00112793
0.000854858
0.000888093
0.000589009
0.000344177
0.000340976
0.000396141
0.000329392
0.000243592
0.000210813
0.000163959
0.000654034
0.000486067
0.000614058
0.0006316
0.000637542
0.000627078
0.000615614
0.000394325
0.000305834
0.000277248
0.000264992
0.000213868
0.000190909
0.00018306
0.000123231
9.13924e-05
0.000532319
0.000450843
0.000375921
0.000423524
0.00052823
0.000450121
0.00031051
0.000246844
0.000219083
0.000193013
0.000153025
0.000137223
0.000137225
0.000107253
7.90187e-05
7.1426e-05
5.41523e-05
0.000267173
0.000352844
0.000375757
0.000361192
0.000295082
0.000230961
0.000202298
0.000192178
0.000189866
0.000153661
0.000105231
9.16407e-05
8.95444e-05
6.96328e-05
6.81542e-05
6.17006e-05
6.48157e-05
4.63763e-05
0.000233133
0.000186428
0.000231852
0.00018514
0.000198867
0.000152355
0.00013793
0.000145589
0.000131633
8.81864e-05
7.47793e-05
6.59539e-05
5.3329e-05
5.48377e-05
5.77579e-05
4.6825e-05
4.48359e-05
3.73064e-05
3.90337e-05
0.000132701
0.000159726
0.000160011
0.000137375
0.000310566
0.000124595
0.000184081
6.96241e-05
3.63572e-05
6.4236e-05
4.63604e-05
4.42721e-05
4.87526e-05
5.17905e-05
3.73572e-05
2.89951e-05
3.24778e-05
3.28392e-05
3.21078e-05
3.24571e-05
6.92989e-05
8.83936e-05
0.000134363
0.000109158
0.000119576
9.91027e-05
0.000154897
6.23992e-05
2.82318e-05
3.73568e-05
4.87221e-05
5.49339e-05
2.51346e-05
3.16271e-05
3.07089e-05
2.29762e-05
1.59104e-05
1.40079e-05
1.45583e-05
1.98144e-05
2.57149e-05
0.00106114
0.00132847
0.00111519
0.000765229
0.000733529
0.000825434
0.000638485
0.000549026
0.000479917
0.000544476
0.000229612
0.000474392
0.000431381
0.000409552
0.000369023
0.000469472
0.000433782
0.000407326
0.000365608
0.000318979
0.000349808
0.000394592
0.000376715
0.00036701
0.000420459
0.000474964
0.000320426
0.000519221
0.000339916
0.00035156
0.00047582
0.000293795
0.000323437
0.000363415
0.000246631
0.00041274
0.00042403
0.000510368
0.000380003
0.000439945
0.000415994
0.000256472
0.00034073
0.000273282
0.000301336
0.000412224
0.000377334
0.000481206
0.000295899
0.000446355
0.000311046
0.00036915
0.00050894
0.000285717
0.000389083
0.000410055
0.000435071
0.0003
0.000428009
0.000264498
0.000472379
0.000328895
0.000272123
0.000443777
0.000301634
0.000463103
0.000460737
0.000452642
0.00060807
0.000521787
0.000760454
0.000537675
0.000757492
0.000479219
0.00074408
0.000606694
0.000466254
0.000497443
0.000507604
0.000755928
0.00104516
0.000335548
0.000536447
0.000805898
0.00104756
0.0010587
0.000781911
0.00126985
0.000659633
0.000631875
0.000594223
0.000476739
0.000749311
0.000407826
0.000944039
0.000907947
0.000765315
0.00117911
0.00087275
0.00117503
0.000769173
0.000514051
0.000366969
0.000558729
0.000899339
0.000220905
0.0010708
0.00211159
0.0010319
0.000803216
0.000988084
0.000851328
0.0010757
0.000654113
0.000357572
0.000583322
0.000640837
0.00139226
0.000775254
0.00207668
0.000887531
0.000532725
0.000742357
0.000662708
0.00074781
0.000858725
0.000592003
0.000453325
0.00132813
0.00141475
0.00136327
0.00151107
0.0011359
0.00117645
0.000809545
0.00090772
0.000616535
0.000394371
0.000490221
0.000561651
0.000437823
0.00029862
0.000170478
0.000901924
0.000877132
0.000941375
0.000846754
0.000980439
0.000931612
0.000766922
0.000584981
0.000406061
0.000338099
0.000376634
0.000335723
0.00024941
0.000203573
0.000155138
0.000151767
0.000549713
0.000622162
0.00059343
0.000609589
0.000661894
0.000672352
0.000607188
0.000472128
0.00032193
0.000262166
0.000247726
0.000222467
0.000180874
0.00017609
0.000129418
8.48046e-05
7.99726e-05
0.000478297
0.000474864
0.000416111
0.000397174
0.000505446
0.000443833
0.000305144
0.000255856
0.000223951
0.000190487
0.000157797
0.00012874
0.000127403
0.000117036
8.06865e-05
7.11565e-05
5.42838e-05
4.70243e-05
0.000284953
0.000303761
0.000413701
0.00035955
0.000250602
0.000236228
0.00021458
0.000200272
0.000188603
0.00016
0.000109039
8.88395e-05
8.74431e-05
7.2913e-05
6.29514e-05
6.136e-05
5.69637e-05
4.9122e-05
3.65144e-05
0.000181465
0.000181096
0.000214978
0.000175902
0.000184648
0.00015916
0.000145964
0.000129583
0.00011031
8.57687e-05
8.67692e-05
7.30894e-05
5.77528e-05
4.48668e-05
3.82345e-05
4.38173e-05
4.25342e-05
3.75897e-05
4.068e-05
3.31767e-05
0.000136474
0.000178603
0.000159233
0.000122813
0.000126225
6.96578e-05
7.50459e-05
7.16187e-05
4.14657e-05
6.5616e-05
3.8068e-05
4.34615e-05
4.40554e-05
4.70616e-05
4.12256e-05
3.13253e-05
3.23403e-05
3.31067e-05
3.16477e-05
3.33348e-05
3.34905e-05
6.27059e-05
0.000117987
0.000150076
7.11374e-05
0.000110783
0.000102218
5.03603e-05
2.39254e-05
2.19336e-05
4.7734e-05
3.46814e-05
2.83698e-05
2.91537e-05
2.66272e-05
2.81894e-05
1.83523e-05
1.57534e-05
1.35112e-05
1.41691e-05
1.88556e-05
2.53372e-05
3.0757e-05
0.00244205
0.000963462
0.000897226
0.00127952
0.0011318
0.00115044
0.000965106
0.000758158
0.000750496
0.000778745
0.000527236
0.000593676
0.000607777
0.0005494
0.000697177
0.000476629
0.000472631
0.0004821
0.000394357
0.000413115
0.000514521
0.000251817
0.000431743
0.000373545
0.000385971
0.000351204
0.000361756
0.000311829
0.00023717
0.000458001
0.000370314
0.000373094
0.000413271
0.000393851
0.000297294
0.000343118
0.000331565
0.000266862
0.00027869
0.000385198
0.000265489
0.00034405
0.000400415
0.000268043
0.000332127
0.000534584
0.000472862
0.000522082
0.000324349
0.000265235
0.000380086
0.000227316
0.000159013
0.000290445
0.000274713
0.000304721
0.000491926
0.000426453
0.000415853
0.000341731
0.00029811
0.000412551
0.000537177
0.000157207
0.00033484
0.000687394
0.000404442
0.000358359
0.000402734
0.000446736
0.000621283
0.000333007
0.000377842
0.000613026
0.000455435
0.000534877
0.00047255
0.000554813
0.000356886
0.00055852
0.000440183
0.00046592
0.000582218
0.000641384
0.000474295
0.000807067
0.000593819
0.000471118
0.000923746
0.000433348
0.00058166
0.000603386
0.000516099
0.000664071
0.000835864
0.000560263
0.000729356
0.000925989
0.00083257
0.00097502
0.00117141
0.0013485
0.000557537
0.000545781
0.000572133
0.000493588
0.000551335
0.00012698
0.00119092
0.00157782
0.00061826
0.000824368
0.00106971
0.0010839
0.000973441
0.000448505
0.000498265
0.00026142
0.000409014
0.00045607
0.000393956
0.000846373
0.00139188
0.00128975
0.000752093
0.000898069
0.000905623
0.000934014
0.000851275
0.000476103
0.000367652
0.000678701
0.000826336
0.00118736
0.00115151
0.00120808
0.00209038
0.00150848
0.000604614
0.000614554
0.000637969
0.000796229
0.000672873
0.000457875
0.000295442
0.00122008
0.00143053
0.00172382
0.00171949
0.00115145
0.00123232
0.00124342
0.000848394
0.00062267
0.000341605
0.000384419
0.000544168
0.000427674
0.000335569
0.000224464
0.000161452
0.000833561
0.000800505
0.000938463
0.00083646
0.000980621
0.000906078
0.000708081
0.000706485
0.000490816
0.000352059
0.000356429
0.000335245
0.00025276
0.000205373
0.000159945
0.000167989
0.000102048
0.00040594
0.000508698
0.000571879
0.000554571
0.000569502
0.000648994
0.000574831
0.000473093
0.000331045
0.000248238
0.000249489
0.000217396
0.000182114
0.000162588
0.000146957
9.3268e-05
8.71271e-05
7.99353e-05
0.000428446
0.000480374
0.000412438
0.00038969
0.000446449
0.00042545
0.000307535
0.000254775
0.000229771
0.000202649
0.000193994
0.000134069
0.000121978
0.000114523
9.11267e-05
6.58855e-05
5.5264e-05
6.05206e-05
4.85464e-05
0.000247861
0.000278085
0.00039059
0.000353754
0.00022668
0.000219177
0.000193818
0.000204979
0.000195631
0.000142749
0.000110775
9.6037e-05
9.02024e-05
7.25122e-05
6.04516e-05
6.1034e-05
5.53398e-05
4.98997e-05
4.06603e-05
4.13745e-05
0.000157477
0.000135623
0.000181434
0.000191809
0.000174507
0.000137133
0.000124143
0.000142551
0.000118724
8.12487e-05
7.95867e-05
7.5285e-05
5.96954e-05
5.42709e-05
4.78679e-05
3.93268e-05
3.98665e-05
3.89242e-05
4.10538e-05
3.47449e-05
3.34591e-05
0.000107072
0.00016905
0.000141392
0.000146499
9.48539e-05
0.000131596
0.000217401
6.96109e-05
6.05003e-05
6.27988e-05
6.83882e-05
3.14241e-05
4.10525e-05
4.14925e-05
4.1932e-05
3.34588e-05
3.39688e-05
3.22e-05
3.17021e-05
3.26296e-05
3.43754e-05
3.3543e-05
7.0408e-05
7.30666e-05
9.82957e-05
5.23096e-05
0.000106096
5.04883e-05
0.000210872
1.59314e-05
2.45112e-05
2.30001e-05
1.78911e-05
5.60487e-05
3.26458e-05
2.1861e-05
2.73737e-05
1.99075e-05
1.55559e-05
1.38354e-05
1.36925e-05
1.76249e-05
2.40049e-05
3.00008e-05
3.31206e-05
0.00247428
0.00246884
0.00105559
0.000907214
0.00101109
0.00126011
0.00100462
0.00116884
0.00107543