/*--------------------------------*- C++ -*----------------------------------*\
  =========                 |
  \\      /  F ield         | OpenFOAM: The Open Source CFD Toolbox
   \\    /   O peration     | Website:  https://openfoam.org
    \\  /    A nd           | Version:  7
     \\/     M anipulation  |
\*---------------------------------------------------------------------------*/
FoamFile
{
    version     2.0;
    format      ascii;
    class       volScalarField;
    location    "1.5";
    object      p;
}
// * * * * * * * * * * * * * * * * * * * * * * * * * * * * * * * * * * * * * //

dimensions      [0 2 -2 0 0 0 0];

internalField   nonuniform List<scalar> 
18780
(
-55.7183
-57.0753
-55.7299
-55.0455
-58.4001
-57.041
-56.1
-55.7266
-55.0468
-54.425
-59.293
-58.3683
-57.5075
-57.0088
-56.1257
-55.2337
-55.7223
-55.0452
-54.4443
-53.8222
-57.9811
-59.2828
-58.86
-58.3185
-57.5671
-56.6313
-56.9787
-56.1282
-55.2516
-54.4344
-55.7163
-55.049
-54.4694
-53.8481
-53.2851
-57.1718
-58.065
-58.2631
-59.1242
-58.7915
-57.9488
-58.2285
-57.5869
-56.6706
-55.5384
-56.9315
-56.1128
-55.2643
-54.4629
-53.734
-55.7139
-55.0525
-54.4878
-53.8592
-53.2909
-52.7538
-55.0693
-57.1003
-56.8574
-58.1048
-58.5352
-58.411
-58.9348
-58.6934
-57.9473
-56.5311
-58.071
-57.5319
-56.6597
-55.5642
-54.5085
-56.8702
-56.0813
-55.263
-54.4872
-53.7645
-53.0661
-55.7095
-55.0548
-54.4862
-53.8596
-53.3036
-52.7562
-52.3149
-54.0848
-55.1736
-55.6313
-57.1814
-57.0317
-56.7058
-58.0588
-58.5384
-58.5141
-58.0176
-58.7616
-58.5407
-57.8525
-56.571
-55.4272
-57.9065
-57.4327
-56.5772
-55.5739
-54.5643
-53.5769
-56.8003
-56.0427
-55.2499
-54.5007
-53.792
-53.0983
-52.4792
-55.6997
-55.0544
-54.476
-53.8596
-53.3196
-52.7792
-52.3268
-51.9012
-52.3893
-54.2484
-54.043
-55.2632
-55.5672
-55.9089
-57.2139
-57.3122
-56.953
-56.5808
-58.0011
-58.4491
-58.4691
-58.0346
-56.9233
-58.5637
-58.328
-57.6746
-56.6214
-55.6079
-54.2561
-57.7376
-57.296
-56.4744
-55.5469
-54.604
-53.645
-52.7614
-56.7269
-56.0044
-55.2409
-54.5078
-53.8137
-53.129
-52.5108
-51.986
-55.6809
-55.049
-54.4712
-53.8603
-53.3133
-52.7922
-52.3313
-51.9093
-51.5697
-50.482
-51.3514
-52.4737
-52.6268
-54.3752
-53.9813
-53.903
-55.4606
-55.9134
-56.0484
-55.5696
-57.171
-57.0172
-57.0098
-56.8321
-56.6117
-57.8955
-58.2721
-58.2836
-57.9189
-57.0116
-55.4772
-58.3447
-58.0941
-57.4954
-56.5946
-55.7364
-54.4504
-53.1797
-57.5687
-57.1324
-56.3677
-55.5023
-54.6203
-53.7015
-52.8245
-52.1077
-56.6493
-55.9492
-55.2229
-54.5055
-53.8291
-53.1545
-52.5411
-52.0144
-51.5874
-55.6685
-55.0444
-54.468
-53.8602
-53.306
-52.7934
-52.3312
-51.9121
-51.5769
-51.2523
-49.7224
-50.4959
-50.4407
-51.4998
-51.4854
-52.6572
-52.7579
-52.8925
-54.5287
-54.1116
-54.1601
-53.8103
-55.5344
-55.8427
-56.0589
-55.7896
-55.2113
-57.0785
-57.037
-56.9753
-57.0031
-56.963
-55.8785
-57.7592
-58.0569
-58.0408
-57.7137
-57.0366
-55.6405
-53.8023
-58.1074
-57.8397
-57.2991
-56.535
-55.7699
-54.6026
-53.3012
-52.3184
-57.3921
-56.9637
-56.25
-55.449
-54.6146
-53.7411
-52.8804
-52.1621
-51.6108
-56.5565
-55.887
-55.1931
-54.4975
-53.8417
-53.1766
-52.5699
-52.0428
-51.6097
-51.2431
-55.6598
-55.0366
-54.4684
-53.8602
-53.3195
-52.8071
-52.3488
-51.9154
-51.5815
-51.2567
-50.9858
-49.1665
-49.8046
-49.748
-50.547
-50.485
-50.6383
-51.5467
-51.5617
-51.7116
-52.8326
-52.8303
-53.0226
-52.8259
-54.7
-54.5198
-54.194
-54.0951
-53.7081
-55.62
-55.6921
-56.0188
-55.8964
-55.5361
-55.1224
-56.9777
-56.8725
-56.9545
-57.0441
-57.2615
-56.323
-54.5175
-57.5845
-57.7171
-57.7523
-57.4752
-57.0056
-55.7445
-54.0158
-52.6128
-57.8533
-57.5841
-57.1286
-56.4442
-55.7526
-54.6882
-53.4152
-52.4218
-51.6686
-57.2108
-56.7973
-56.1313
-55.3795
-54.5929
-53.7643
-52.9269
-52.2145
-51.6538
-51.212
-56.4677
-55.8246
-55.1588
-54.48
-53.8468
-53.1976
-52.5954
-52.07
-51.6331
-51.2593
-50.9413
-55.65
-55.0267
-54.4702
-53.8613
-53.3298
-52.8261
-52.3631
-51.9305
-51.5863
-51.2616
-50.9898
-50.7196
-48.4322
-48.7917
-49.2506
-49.2978
-49.8122
-49.8797
-49.8177
-50.567
-50.5328
-50.7602
-50.5363
-51.5407
-51.6144
-51.6425
-51.8062
-52.8725
-53.0707
-53.3607
-53.0972
-52.5132
-54.9362
-54.6732
-54.1486
-54.3395
-54.045
-53.6243
-55.7291
-55.809
-55.9347
-55.9598
-55.8667
-55.6049
-54.3915
-56.8709
-56.7404
-56.8188
-57.0117
-57.4296
-56.7475
-54.9013
-52.9718
-57.3536
-57.4555
-57.4668
-57.2135
-56.8555
-55.7999
-54.1793
-52.7966
-51.7748
-57.5969
-57.3321
-56.9398
-56.3311
-55.676
-54.7183
-53.5068
-52.5167
-51.7481
-51.1887
-57.027
-56.631
-56.0056
-55.297
-54.5564
-53.7732
-52.9643
-52.2614
-51.6968
-51.2455
-50.8787
-56.3796
-55.7566
-55.1177
-54.458
-53.8432
-53.2107
-52.6177
-52.0957
-51.6552
-51.2765
-50.9521
-50.6593
-55.6316
-55.0156
-54.4681
-53.8629
-53.3246
-52.8327
-52.3705
-51.9423
-51.5926
-51.2683
-50.9941
-50.7229
-50.4698
-48.2263
-48.4853
-48.4942
-48.7596
-48.8455
-49.2587
-49.3452
-49.2687
-49.9191
-49.8835
-49.9513
-49.8573
-50.5991
-50.7469
-50.661
-50.6725
-50.4929
-51.6493
-51.6985
-51.7151
-51.9759
-51.8304
-52.9026
-53.1918
-53.3423
-53.3511
-52.7488
-52.2189
-55.1027
-54.6991
-54.0951
-54.4069
-54.2836
-54.1738
-53.6985
-55.8015
-55.8018
-55.843
-55.9828
-56.0512
-56.0755
-54.987
-53.3049
-56.7379
-56.5925
-56.6665
-56.8829
-57.4438
-57.1873
-55.254
-53.2815
-51.8941
-57.1419
-57.2935
-57.1789
-56.9137
-56.6657
-55.7491
-54.2742
-52.968
-51.9156
-51.1745
-57.3398
-57.1061
-56.7116
-56.1854
-55.5595
-54.68
-53.5633
-52.5973
-51.8252
-51.247
-50.8095
-56.8514
-56.4714
-55.8693
-55.2038
-54.5119
-53.772
-52.9928
-52.3034
-51.7376
-51.2796
-50.904
-50.5828
-56.2777
-55.6901
-55.0706
-54.4346
-53.8348
-53.219
-52.6376
-52.1185
-51.6777
-51.294
-50.9638
-50.6673
-50.4004
-55.6044
-55.0003
-54.4617
-53.8628
-53.3264
-52.8382
-52.3733
-51.9497
-51.6005
-51.2761
-50.9982
-50.7262
-50.4719
-50.2311
-48.0575
-48.1847
-48.3999
-48.4411
-48.5349
-48.6288
-48.7486
-48.9024
-48.9741
-49.104
-49.3817
-49.2793
-49.3828
-49.9152
-49.9993
-49.9902
-50.0399
-49.8402
-50.7467
-50.732
-50.8964
-50.8515
-50.8889
-50.4339
-51.7225
-51.7559
-51.8069
-51.9567
-51.8733
-51.4435
-52.9532
-53.0741
-53.4115
-53.4009
-52.7486
-52.6023
-52.3148
-55.1988
-54.5527
-54.0744
-54.3343
-54.4878
-54.3666
-54.2323
-52.9999
-55.8532
-55.8422
-55.7078
-55.8684
-56.1293
-56.6015
-55.6191
-53.7678
-52.0449
-56.6284
-56.4269
-56.4474
-56.6495
-57.2568
-57.2922
-55.4528
-53.5561
-52.1373
-51.1758
-57.1102
-56.9876
-56.8268
-56.5795
-56.4088
-55.6493
-54.3581
-53.1074
-52.0516
-51.2761
-50.7376
-57.0967
-56.849
-56.4765
-56.0194
-55.4187
-54.6117
-53.5931
-52.6622
-51.8956
-51.3062
-50.8504
-50.4928
-56.6868
-56.3127
-55.7337
-55.1068
-54.4584
-53.7624
-53.0141
-52.3391
-51.7753
-51.313
-50.9315
-50.6
-50.3201
-56.1715
-55.6243
-55.0268
-54.4054
-53.8252
-53.2238
-52.6526
-52.1407
-51.6973
-51.3109
-50.9757
-50.6754
-50.4059
-50.1619
-55.5714
-54.9789
-54.4484
-53.8601
-53.3327
-52.8367
-52.377
-51.9608
-51.6118
-51.2832
-51.003
-50.7301
-50.4746
-50.2325
-50.0087
-48.0117
-48.0266
-48.1421
-48.2042
-48.3344
-48.3919
-48.4955
-48.5682
-48.6629
-48.6886
-48.7552
-48.9115
-49.0482
-48.9487
-49.1581
-49.2841
-49.4353
-49.3493
-49.3678
-49.9141
-50.0182
-50.0845
-50.175
-49.9855
-49.8112
-50.8222
-50.7761
-50.9101
-50.9805
-50.8234
-50.7073
-50.359
-51.8492
-51.788
-51.9076
-52.1045
-51.8984
-51.665
-51.5516
-52.972
-53.1988
-53.3769
-53.5121
-52.9483
-52.8808
-52.6382
-52.2526
-55.2323
-54.6434
-54.0264
-54.4598
-54.5898
-54.7533
-54.7788
-53.6379
-51.8439
-55.8568
-55.8277
-55.5848
-55.6995
-56.0671
-56.8004
-56.1731
-54.3595
-52.4292
-51.0981
-56.4584
-56.1563
-56.1913
-56.3545
-56.9485
-57.0528
-55.519
-53.7763
-52.375
-51.3429
-50.659
-56.8216
-56.6387
-56.5154
-56.2452
-56.0983
-55.5339
-54.4132
-53.2066
-52.1689
-51.3778
-50.8081
-50.3936
-56.8537
-56.6464
-56.2628
-55.8362
-55.2485
-54.5259
-53.5976
-52.7104
-51.9575
-51.3629
-50.8936
-50.5193
-50.2236
-56.5318
-56.1618
-55.6027
-55.009
-54.3982
-53.7433
-53.0291
-52.3687
-51.81
-51.3452
-50.9588
-50.6194
-50.3297
-50.0855
-56.0623
-55.5483
-54.9764
-54.3708
-53.8091
-53.2252
-52.6662
-52.1603
-51.7142
-51.3282
-50.9894
-50.6853
-50.4118
-50.1645
-49.9406
-55.5393
-54.9365
-54.4278
-53.853
-53.3333
-52.837
-52.3781
-51.9694
-51.6243
-51.291
-51.0074
-50.7334
-50.4775
-50.234
-50.0091
-49.7935
-47.7222
-47.996
-47.9983
-48.0052
-48.1089
-48.1552
-48.2099
-48.318
-48.3504
-48.419
-48.5686
-48.6103
-48.694
-48.64
-48.6431
-48.8592
-48.8543
-49.0305
-49.0636
-48.9557
-49.1959
-49.3231
-49.4027
-49.5127
-49.4575
-49.3526
-49.9809
-50.0425
-50.1279
-50.0952
-50.1261
-49.8913
-49.7143
-50.6633
-50.9137
-51.0209
-51.0258
-50.8298
-50.9036
-50.5674
-50.1088
-51.8555
-51.916
-51.9005
-52.3674
-52.0324
-51.7512
-51.5994
-51.2077
-53.0747
-53.3651
-53.4829
-53.6535
-53.2203
-53.1108
-53.3595
-52.8836
-51.6822
-55.2148
-54.699
-54.0714
-54.3258
-54.7173
-55.0489
-55.1927
-54.3435
-52.4238
-50.9976
-55.7947
-55.8265
-55.4959
-55.5548
-56.0201
-56.7995
-56.6032
-54.8889
-52.8216
-51.3804
-50.5125
-56.228
-56.0562
-55.9108
-56.0616
-56.4976
-56.6599
-55.4793
-53.9152
-52.5738
-51.5146
-50.7721
-50.2717
-56.4422
-56.4897
-56.2169
-55.9279
-55.78
-55.3455
-54.3842
-53.2635
-52.2611
-51.4721
-50.8817
-50.4379
-50.1201
-56.6343
-56.4492
-56.0462
-55.5886
-55.0532
-54.4239
-53.5798
-52.7429
-52.0079
-51.4149
-50.9361
-50.548
-50.2386
-49.9982
-56.3868
-56.0127
-55.4805
-54.9132
-54.3411
-53.7175
-53.0378
-52.3934
-51.8412
-51.3749
-50.9841
-50.6378
-50.341
-50.0889
-49.8732
-55.9731
-55.4717
-54.9217
-54.3332
-53.7903
-53.2227
-52.6775
-52.1778
-51.7343
-51.345
-51.005
-50.6971
-50.4151
-50.1676
-49.9408
-49.735
-55.5115
-54.8928
-54.4055
-53.8446
-53.3312
-52.8403
-52.3764
-51.9758
-51.6342
-51.2984
-51.012
-50.7374
-50.4804
-50.2358
-50.0097
-49.7932
-49.5875
-47.7539
-47.7523
-47.8446
-47.9712
-47.9983
-48.0212
-48.0208
-48.1116
-48.1973
-48.1805
-48.2432
-48.3718
-48.3243
-48.4501
-48.4208
-48.562
-48.663
-48.5826
-48.7207
-48.6542
-48.6882
-48.9356
-48.882
-49.0347
-49.0522
-49.0484
-48.967
-49.1563
-49.3998
-49.4868
-49.4559
-49.5108
-49.42
-49.2501
-49.9452
-50.125
-50.1265
-50.1937
-50.2643
-50.0029
-49.7823
-49.6644
-50.6712
-50.9851
-50.9619
-50.94
-51.0649
-50.9024
-50.7337
-50.223
-49.7451
-51.8389
-52.0445
-51.9994
-52.1439
-52.2217
-51.9732
-51.7744
-51.5442
-50.741
-53.3437
-53.3732
-53.6086
-53.6486
-53.5342
-53.4655
-53.851
-53.715
-52.3812
-50.7308
-55.2085
-54.7808
-54.0051
-54.2696
-54.7679
-55.0285
-55.4947
-55.0335
-53.1589
-51.3746
-50.36
-55.7534
-55.7602
-55.4005
-55.3639
-55.682
-56.5762
-56.7611
-55.2127
-53.1574
-51.6778
-50.6988
-50.0969
-56.0766
-55.904
-55.6811
-55.728
-56.0223
-56.215
-55.2585
-54.0048
-52.7257
-51.6702
-50.8927
-50.3448
-49.9854
-56.2866
-56.2273
-55.9361
-55.6815
-55.5017
-55.1141
-54.2884
-53.2747
-52.33
-51.5536
-50.9525
-50.4873
-50.1434
-49.9014
-56.4639
-56.2851
-55.8787
-55.3583
-54.8855
-54.3178
-53.5479
-52.7627
-52.0479
-51.4604
-50.977
-50.5784
-50.2553
-50.0032
-49.7979
-56.2348
-55.8698
-55.3645
-54.8224
-54.2839
-53.6871
-53.0401
-52.4124
-51.868
-51.4032
-51.0069
-50.6547
-50.3538
-50.0933
-49.8725
-49.6778
-55.9029
-55.3942
-54.8657
-54.2965
-53.7702
-53.2187
-52.685
-52.1929
-51.7543
-51.362
-51.0203
-50.7091
-50.4222
-50.1713
-49.9415
-49.7333
-49.5382
-55.4866
-54.867
-54.3891
-53.839
-53.3269
-52.8406
-52.3795
-51.9845
-51.6406
-51.3039
-51.0161
-50.7409
-50.4836
-50.2379
-50.0104
-49.7932
-49.5863
-49.395
-47.6596
-47.7721
-47.7893
-47.8239
-47.8276
-47.8601
-47.9417
-47.9392
-48.0181
-48.052
-48.0724
-48.149
-48.1569
-48.1874
-48.2507
-48.2542
-48.3711
-48.4103
-48.3892
-48.4424
-48.4497
-48.5317
-48.6442
-48.6893
-48.6954
-48.7727
-48.7739
-48.6413
-48.9465
-48.9442
-49.0692
-49.0664
-49.1022
-49.043
-48.9388
-49.297
-49.4094
-49.4618
-49.496
-49.4363
-49.37
-49.2686
-49.1579
-49.994
-50.1237
-50.1199
-50.1987
-50.2369
-50.2061
-49.9356
-49.8267
-49.3316
-50.7942
-50.9277
-50.9483
-51.0117
-51.1864
-51.0352
-50.7603
-50.4666
-50.1955
-49.2932
-51.9036
-52.1026
-52.0023
-52.1933
-52.2597
-52.1033
-52.371
-52.2473
-51.3652
-50.0453
-53.4337
-53.3717
-53.4905
-53.3955
-53.4125
-53.3514
-53.7233
-54.0107
-53.1805
-51.2795
-50.04
-55.1351
-54.6909
-53.9204
-54.1949
-54.7192
-55.1428
-55.6597
-55.8421
-53.8566
-51.8359
-50.6276
-49.8738
-55.7321
-55.688
-55.2591
-55.1518
-55.3941
-56.1901
-56.5557
-55.231
-53.424
-51.9558
-50.9023
-50.2079
-49.8156
-56.0648
-55.7243
-55.4863
-55.4322
-55.5915
-55.7479
-55.0242
-54.0398
-52.8228
-51.7989
-51.0075
-50.4263
-50.0252
-49.7822
-56.0902
-55.9209
-55.6902
-55.4549
-55.2532
-54.8411
-54.1528
-53.2453
-52.3705
-51.6188
-51.0183
-50.5371
-50.172
-49.9097
-49.7181
-56.2858
-56.1093
-55.7228
-55.1902
-54.7687
-54.2137
-53.5093
-52.7701
-52.0776
-51.4997
-51.015
-50.609
-50.2737
-50.01
-49.7958
-49.6192
-56.0692
-55.7257
-55.25
-54.7351
-54.2264
-53.6538
-53.0398
-52.4269
-51.8914
-51.4288
-51.0282
-50.6722
-50.3664
-50.0987
-49.8726
-49.6731
-49.4952
-55.8283
-55.3191
-54.8099
-54.258
-53.7484
-53.211
-52.6915
-52.2066
-51.7692
-51.377
-51.0346
-50.7205
-50.4311
-50.1753
-49.9423
-49.7317
-49.5347
-49.3551
-55.455
-54.8528
-54.3737
-53.8309
-53.3244
-52.8393
-52.3817
-51.9944
-51.6441
-51.3104
-51.0192
-50.7452
-50.4868
-50.2403
-50.0113
-49.7934
-49.5852
-49.3934
-49.2122
-47.6145
-47.6254
-47.7095
-47.7732
-47.8036
-47.7779
-47.833
-47.857
-47.8763
-47.9039
-47.9081
-47.9876
-48.012
-48.0695
-48.0192
-48.0359
-48.118
-48.2167
-48.1847
-48.2151
-48.2417
-48.236
-48.309
-48.4247
-48.4667
-48.4713
-48.4767
-48.4492
-48.5963
-48.6706
-48.6654
-48.7111
-48.7107
-48.6517
-48.6629
-48.5803
-48.9479
-48.9998
-49.0476
-49.1721
-49.1345
-49.1495
-49.0261
-48.9106
-49.3983
-49.4637
-49.5788
-49.5797
-49.5826
-49.4907
-49.431
-49.2141
-49.0229
-50.0262
-50.134
-50.2561
-50.2247
-50.3033
-50.2273
-50.1091
-49.9789
-49.5563
-48.7908
-50.7509
-50.9488
-51.0245
-51.0866
-51.0442
-51.0806
-51.0611
-50.9457
-50.6234
-49.6286
-48.946
-51.9541
-52.09
-52.0486
-52.2301
-52.2761
-52.1919
-52.2968
-52.8682
-52.1675
-50.5868
-49.6356
-53.4643
-53.4759
-53.5349
-53.4745
-53.5471
-53.2222
-53.9191
-54.4641
-53.991
-51.9658
-50.4178
-49.5419
-55.1961
-54.7092
-53.9393
-54.0119
-54.5769
-54.9821
-55.5324
-56.1021
-54.4717
-52.3104
-50.9389
-50.0459
-49.5778
-55.7371
-55.6126
-55.1789
-55.0342
-55.044
-55.6931
-56.0102
-54.9772
-53.5782
-52.1901
-51.1037
-50.3418
-49.8742
-49.6363
-55.9528
-55.634
-55.3186
-55.1798
-55.2171
-55.3334
-54.7569
-53.9717
-52.8646
-51.8902
-51.1104
-50.5068
-50.0726
-49.7963
-49.626
-55.9338
-55.8073
-55.4567
-55.2363
-54.9517
-54.6013
-54.0043
-53.192
-52.3865
-51.668
-51.0741
-50.5856
-50.2032
-49.9208
-49.7159
-49.5578
-56.1152
-55.895
-55.5306
-54.9675
-54.62
-54.1129
-53.4634
-52.7656
-52.0977
-51.5319
-51.049
-50.6385
-50.2935
-50.0185
-49.7947
-49.6125
-49.4534
-55.9044
-55.5867
-55.1322
-54.6482
-54.1684
-53.6176
-53.034
-52.4377
-51.9111
-51.452
-51.0495
-50.6897
-50.3776
-50.1052
-49.8736
-49.6688
-49.4883
-49.328
-55.7675
-55.2475
-54.7556
-54.2186
-53.7198
-53.203
-52.6946
-52.2188
-51.7808
-51.3925
-51.0481
-50.7321
-50.4403
-50.1789
-49.9437
-49.7308
-49.5314
-49.3506
-49.1845
-55.431
-54.8377
-54.3475
-53.8211
-53.3223
-52.8389
-52.3814
-52.005
-51.6494
-51.3199
-51.0234
-50.7481
-50.4901
-50.2427
-50.0125
-49.7936
-49.5842
-49.3918
-49.2104
-49.038
-47.5385
-47.5981
-47.618
-47.5535
-47.7078
-47.7036
-47.7754
-47.7658
-47.7665
-47.8071
-47.7521
-47.8443
-47.9049
-47.9184
-47.9344
-47.9526
-47.9691
-48.0296
-48.0723
-48.0472
-48.0951
-48.0726
-48.1193
-48.1662
-48.2051
-48.2528
-48.2566
-48.2666
-48.2054
-48.4019
-48.4347
-48.4836
-48.4665
-48.4766
-48.4796
-48.4533
-48.5385
-48.6573
-48.6921
-48.7376
-48.7641
-48.6948
-48.7432
-48.6215
-48.4697
-48.9536
-48.979
-49.1572
-49.1816
-49.1803
-49.1874
-49.0848
-48.9726
-48.8311
-49.4216
-49.5091
-49.6262
-49.6118
-49.6019
-49.6132
-49.5173
-49.4667
-49.2234
-48.7923
-50.0231
-50.1711
-50.3153
-50.3219
-50.33
-50.2571
-50.3312
-50.1232
-49.7021
-49.194
-48.5268
-50.784
-50.9456
-51.0896
-51.1838
-51.1101
-51.0562
-51.3222
-51.2691
-50.9691
-50.2003
-49.1386
-48.6368
-52.1812
-52.1532
-52.0203
-52.0196
-52.5081
-52.3122
-52.1169
-52.8305
-52.8236
-51.3202
-49.9862
-49.1816
-53.6131
-53.546
-53.6717
-53.6726
-53.5464
-53.7126
-54.3147
-55.0042
-54.8955
-52.7327
-50.8764
-49.7785
-49.2588
-55.2631
-54.9429
-54.4028
-53.8914
-54.4507
-54.8225
-55.2724
-56.118
-54.8052
-52.7104
-51.2684
-50.2572
-49.6662
-49.4401
-55.671
-55.5704
-55.2352
-54.8986
-54.7362
-55.189
-55.3665
-54.6176
-53.6079
-52.3553
-51.2885
-50.4822
-49.9488
-49.6577
-49.5136
-55.7365
-55.5903
-55.1847
-54.9614
-54.9031
-54.9449
-54.4662
-53.8093
-52.8389
-51.948
-51.1945
-50.5831
-50.1237
-49.816
-49.6227
-49.4901
-55.7629
-55.6483
-55.2853
-55.105
-54.7725
-54.4473
-53.8613
-53.1245
-52.3814
-51.6984
-51.1197
-50.6289
-50.2346
-49.9344
-49.7152
-49.5479
-49.4171
-55.9148
-55.6982
-55.3117
-54.7932
-54.4542
-54.0183
-53.4165
-52.7536
-52.1108
-51.5576
-51.0797
-50.6669
-50.3135
-50.0289
-49.7953
-49.6069
-49.4429
-49.3036
-55.7282
-55.461
-55.0177
-54.5646
-54.1071
-53.5816
-53.0261
-52.446
-51.9285
-51.4725
-51.0704
-50.7073
-50.3902
-50.1127
-49.8752
-49.6652
-49.4815
-49.3191
-49.169
-55.6686
-55.1755
-54.7005
-54.1794
-53.693
-53.194
-52.6992
-52.2291
-51.7958
-51.4059
-51.0617
-50.7439
-50.4495
-50.1832
-49.9459
-49.7304
-49.5285
-49.346
-49.1788
-49.0232
-55.4177
-54.8271
-54.306
-53.81
-53.317
-52.8378
-52.3788
-52.0144
-51.6581
-51.3273
-51.0287
-50.7504
-50.4934
-50.2453
-50.014
-49.794
-49.5833
-49.3903
-49.2085
-49.0357
-48.875
-47.4029
-47.4934
-47.5121
-47.5779
-47.6332
-47.5792
-47.5646
-47.6351
-47.6985
-47.6804
-47.7594
-47.7279
-47.7547
-47.7936
-47.8088
-47.751
-47.8055
-47.8641
-47.9341
-47.9332
-47.9407
-47.9279
-47.9833
-48.0156
-48.0435
-48.0791
-48.0924
-48.0715
-48.0553
-48.1675
-48.2157
-48.2686
-48.2502
-48.2815
-48.2353
-48.2587
-48.2622
-48.3121
-48.45
-48.4953
-48.5076
-48.5075
-48.5152
-48.4413
-48.4374
-48.5224
-48.6325
-48.7401
-48.7829
-48.7643
-48.8169
-48.8009
-48.6546
-48.617
-48.5405
-48.9266
-49.0499
-49.1226
-49.2466
-49.2362
-49.2376
-49.1953
-49.0707
-48.9117
-48.7094
-49.4159
-49.4898
-49.5639
-49.6353
-49.7496
-49.6533
-49.5745
-49.6149
-49.2648
-48.8912
-48.5567
-50.1311
-50.1732
-50.2698
-50.3052
-50.425
-50.2802
-50.3873
-50.3672
-50.0852
-49.431
-48.7143
-48.3681
-50.8448
-50.9757
-51.1036
-51.1702
-51.3616
-51.1164
-51.1078
-51.4053
-51.5323
-50.8967
-49.4465
-48.838
-48.5504
-52.2023
-52.2261
-52.1078
-52.0016
-52.4548
-52.1923
-52.1116
-53.2225
-53.4688
-52.1492
-50.4935
-49.4665
-48.9554
-53.6535
-53.6858
-53.7375
-53.6314
-53.4995
-53.2538
-53.7315
-54.7665
-55.261
-53.4746
-51.3579
-50.0944
-49.3732
-49.2054
-55.303
-55.0308
-54.3754
-53.8186
-54.2788
-54.5795
-54.7978
-55.664
-54.7772
-52.9814
-51.5982
-50.4851
-49.7825
-49.468
-49.3753
-55.6778
-55.5377
-55.1204
-54.802
-54.5376
-54.7139
-54.8276
-54.3267
-53.5274
-52.4385
-51.4414
-50.6149
-50.0338
-49.691
-49.5127
-49.4189
-55.6177
-55.4526
-55.0758
-54.8
-54.6562
-54.5693
-54.1884
-53.5903
-52.763
-51.969
-51.2573
-50.65
-50.1752
-49.8411
-49.6242
-49.4763
-49.3771
-55.6152
-55.4673
-55.1704
-54.9787
-54.6865
-54.2727
-53.7337
-53.056
-52.3588
-51.7141
-51.1538
-50.6659
-50.264
-49.9498
-49.7165
-49.5396
-49.4014
-49.2846
-55.7128
-55.5195
-55.1298
-54.6513
-54.3347
-53.9304
-53.3702
-52.7371
-52.1193
-51.5791
-51.1066
-50.6931
-50.3331
-50.04
-49.7977
-49.6017
-49.4322
-49.2903
-49.1593
-55.6036
-55.3341
-54.9142
-54.4866
-54.0515
-53.5459
-53.0091
-52.4541
-51.9435
-51.4921
-51.0902
-50.725
-50.4034
-50.1198
-49.8778
-49.6624
-49.4752
-49.3099
-49.1591
-49.0182
-55.5477
-55.0967
-54.642
-54.1409
-53.6717
-53.1825
-52.7023
-52.2363
-51.8098
-51.4176
-51.0758
-50.7557
-50.4588
-50.1899
-49.9482
-49.7298
-49.5258
-49.3417
-49.1728
-49.017
-48.8711
-55.3996
-54.8124
-54.276
-53.7991
-53.3064
-52.8358
-52.3756
-52.0174
-51.6681
-51.334
-51.0362
-50.755
-50.4967
-50.2481
-50.0146
-49.7946
-49.5826
-49.3889
-49.2068
-49.0335
-48.8728
-48.7208
-47.322
-47.4235
-47.4784
-47.5097
-47.5215
-47.4669
-47.5512
-47.6085
-47.6116
-47.5699
-47.6895
-47.6158
-47.6193
-47.6632
-47.6337
-47.6663
-47.7408
-47.7823
-47.8215
-47.8016
-47.7954
-47.808
-47.8386
-47.8546
-47.9339
-47.9441
-47.9738
-47.953
-47.9063
-47.9709
-48.0398
-48.0842
-48.084
-48.1027
-48.1308
-48.1449
-48.0289
-48.1512
-48.2476
-48.2645
-48.3222
-48.3153
-48.2585
-48.3007
-48.2914
-48.2515
-48.3689
-48.3845
-48.5356
-48.5271
-48.5385
-48.5618
-48.5335
-48.4611
-48.4654
-48.5443
-48.6177
-48.7257
-48.7873
-48.8152
-48.7385
-48.8298
-48.7411
-48.6655
-48.5009
-48.3365
-48.9463
-49.0766
-49.1505
-49.1902
-49.2207
-49.2254
-49.2599
-49.1284
-49.0038
-48.7163
-48.4916
-49.4065
-49.518
-49.6459
-49.623
-49.8734
-49.7223
-49.6931
-49.7061
-49.3906
-49.16
-48.6495
-48.4329
-50.0421
-50.1436
-50.2624
-50.2752
-50.3844
-50.2694
-50.4575
-50.6104
-50.5101
-49.92
-49.0666
-48.5036
-48.3109
-51.0106
-51.0211
-51.1521
-51.2422
-51.2979
-51.1582
-51.0774
-51.377
-52.1505
-51.5954
-50.0643
-49.0884
-48.6095
-48.7948
-52.3096
-52.4295
-52.2145
-52.0661
-52.243
-51.9386
-52.048
-53.2796
-54.2255
-53.0591
-51.1236
-49.8715
-49.0897
-48.9581
-53.605
-53.6095
-53.6525
-53.6157
-53.3579
-53.0557
-52.7954
-53.9787
-55.3425
-53.8794
-51.8713
-50.4638
-49.5426
-49.2357
-49.21
-55.4319
-55.0188
-54.3408
-53.6736
-54.1283
-54.2957
-54.3085
-55.0209
-54.4339
-53.1255
-51.8772
-50.7087
-49.9232
-49.5234
-49.3704
-49.3266
-55.6895
-55.5342
-55.155
-54.7458
-54.3977
-54.3441
-54.3407
-53.919
-53.3318
-52.4451
-51.5431
-50.7348
-50.1243
-49.7344
-49.5182
-49.4013
-49.3345
-55.5126
-55.3531
-54.9809
-54.6817
-54.4743
-54.32
-53.9414
-53.3735
-52.6616
-51.956
-51.2935
-50.7052
-50.2219
-49.8687
-49.6291
-49.4655
-49.3575
-49.2639
-55.475
-55.3493
-55.0448
-54.865
-54.5752
-54.1056
-53.6249
-52.9888
-52.325
-51.7165
-51.1765
-50.6954
-50.2911
-49.9632
-49.7204
-49.5328
-49.3853
-49.2667
-49.156
-55.5524
-55.3562
-55.0332
-54.5244
-54.2434
-53.8504
-53.3261
-52.7189
-52.1244
-51.5976
-51.1289
-50.717
-50.3517
-50.0518
-49.8008
-49.5968
-49.4222
-49.277
-49.1448
-49.0209
-55.5071
-55.2145
-54.8194
-54.4099
-53.994
-53.5109
-52.9956
-52.4604
-51.9567
-51.5103
-51.1097
-50.7428
-50.417
-50.1274
-49.8806
-49.6603
-49.4695
-49.3011
-49.1488
-49.0076
-48.8755
-55.4487
-55.0174
-54.5827
-54.1014
-53.6443
-53.1711
-52.7016
-52.2413
-51.821
-51.4326
-51.0896
-50.7673
-50.4683
-50.1967
-49.9512
-49.7296
-49.5236
-49.3376
-49.1671
-49.0105
-48.8645
-48.7276
-55.3662
-54.7933
-54.2624
-53.7901
-53.2965
-52.8348
-52.3748
-52.0208
-51.6755
-51.3428
-51.0441
-50.759
-50.5001
-50.2507
-50.0165
-49.7954
-49.5821
-49.3877
-49.2051
-49.0314
-48.8705
-48.7183
-48.5725
-47.2638
-47.3213
-47.3806
-47.4207
-47.4066
-47.4303
-47.5349
-47.4888
-47.4367
-47.5802
-47.6049
-47.5926
-47.5797
-47.5888
-47.6415
-47.6738
-47.6711
-47.6769
-47.6567
-47.73
-47.7303
-47.6798
-47.8016
-47.8732
-47.8307
-47.8521
-47.8868
-47.7827
-47.8368
-47.8672
-47.9252
-47.9784
-47.9718
-48.0323
-48.0118
-47.8562
-47.9791
-48.0275
-48.067
-48.1146
-48.1635
-48.1145
-48.1367
-48.1525
-48.0162
-48.1232
-48.1918
-48.2448
-48.3168
-48.3524
-48.3407
-48.3093
-48.2724
-48.3126
-48.2572
-48.3256
-48.4281
-48.5588
-48.5551
-48.5852
-48.5257
-48.5222
-48.567
-48.4425
-48.4289
-48.5208
-48.6205
-48.7164
-48.8119
-48.8583
-48.7764
-48.8485
-48.7836
-48.7188
-48.5292
-48.4393
-48.4284
-48.9247
-49.1051
-49.1228
-49.1877
-49.2649
-49.2864
-49.2821
-49.2422
-49.0428
-48.8764
-48.6194
-48.4973
-49.4103
-49.4892
-49.6221
-49.7133
-49.4158
-49.6727
-49.8201
-49.7943
-49.6593
-49.4225
-48.9701
-48.4047
-48.3974
-50.0332
-50.2675
-50.2632
-50.1825
-50.3584
-50.2377
-50.3153
-50.5527
-50.8021
-50.2552
-49.6677
-48.6824
-48.3718
-48.5134
-51.0349
-51.1361
-51.1626
-51.2551
-51.1225
-50.9257
-51.0808
-51.5048
-52.4963
-52.2503
-50.7977
-49.391
-48.7583
-48.7253
-49.0087
-52.3293
-52.473
-52.2768
-52.0285
-52.2257
-52.2641
-51.927
-53.1513
-54.3077
-53.896
-51.8944
-50.3142
-49.2986
-48.9699
-49.0282
-53.8421
-53.6037
-53.8168
-53.6823
-53.3741
-52.7744
-52.9622
-53.7829
-54.9575
-54.0948
-52.3671
-50.8661
-49.756
-49.2995
-49.1912
-49.2329
-55.4049
-55.1139
-54.5442
-53.799
-54.0029
-54.0967
-53.9323
-54.2743
-53.933
-53.0921
-52.0649
-50.9161
-50.0771
-49.6007
-49.3807
-49.3005
-49.2859
-55.5682
-55.5706
-55.0892
-54.7392
-54.3243
-54.0844
-53.9373
-53.5563
-53.064
-52.3689
-51.5896
-50.8322
-50.2117
-49.7865
-49.5324
-49.3865
-49.3067
-49.2482
-55.3557
-55.3034
-54.9043
-54.5806
-54.3061
-54.1609
-53.7548
-53.1989
-52.5495
-51.9113
-51.3036
-50.745
-50.263
-49.8972
-49.6389
-49.4576
-49.338
-49.2404
-49.1583
-55.3105
-55.2169
-54.9263
-54.7625
-54.4957
-53.9969
-53.5399
-52.9242
-52.2869
-51.7069
-51.1895
-50.7199
-50.315
-49.9788
-49.7264
-49.527
-49.3711
-49.2485
-49.1373
-49.0333
-55.393
-55.1997
-54.8732
-54.4408
-54.1567
-53.7792
-53.2872
-52.7011
-52.127
-51.6116
-51.1483
-50.7388
-50.3689
-50.0631
-49.8043
-49.5926
-49.4128
-49.2638
-49.1294
-49.0057
-48.8895
-55.3928
-55.1027
-54.7255
-54.3347
-53.9361
-53.4766
-52.9853
-52.4662
-51.9699
-51.5269
-51.1286
-50.7606
-50.4307
-50.1354
-49.8833
-49.6589
-49.4642
-49.2925
-49.1385
-48.9962
-48.8645
-48.7407
-55.3572
-54.9441
-54.5243
-54.0613
-53.6131
-53.1537
-52.6922
-52.2462
-51.8312
-51.4474
-51.1027
-50.7788
-50.4781
-50.2038
-49.9545
-49.7299
-49.5218
-49.3338
-49.1615
-49.0041
-48.8574
-48.7205
-48.5892
-55.3256
-54.7721
-54.2487
-53.773
-53.2878
-52.8331
-52.3776
-52.0224
-51.6804
-51.3498
-51.05
-50.7652
-50.503
-50.2534
-50.0184
-49.7964
-49.5817
-49.3866
-49.2036
-49.0295
-48.868
-48.7158
-48.5701
-48.4332
-47.3104
-47.302
-47.2797
-47.4687
-47.4443
-47.3704
-47.4001
-47.4242
-47.4366
-47.4665
-47.4993
-47.4154
-47.5832
-47.593
-47.5811
-47.5823
-47.5889
-47.645
-47.641
-47.7074
-47.6743
-47.7319
-47.6922
-47.7166
-47.7642
-47.7065
-47.7516
-47.7769
-47.8258
-47.8476
-47.8766
-47.8779
-47.9272
-47.8008
-47.8409
-47.8657
-47.8853
-47.9662
-48.0155
-48.0775
-48.0328
-48.0127
-47.9251
-47.932
-48.0113
-48.0969
-48.1765
-48.1522
-48.1567
-48.1623
-48.1187
-48.1769
-48.0531
-48.131
-48.2111
-48.2913
-48.2918
-48.3893
-48.3189
-48.3353
-48.2887
-48.284
-48.348
-48.2683
-48.3232
-48.4399
-48.4876
-48.6272
-48.6326
-48.5652
-48.5399
-48.4875
-48.4338
-48.3758
-48.5087
-48.5345
-48.6511
-48.7265
-48.8505
-48.8846
-48.9509
-48.8352
-48.8633
-48.7718
-48.6507
-48.5531
-48.4516
-48.5264
-48.9143
-49.1243
-49.1397
-49.2453
-49.1184
-49.3701
-49.3218
-49.2657
-49.3666
-48.9264
-48.7407
-48.5267
-48.4221
-49.3356
-49.6003
-49.6827
-49.6947
-49.6817
-49.5385
-49.702
-49.9506
-49.8769
-49.7731
-49.1534
-48.4598
-48.3799
-48.5756
-50.0327
-50.3153
-50.3312
-50.1298
-50.2766
-49.9175
-50.3861
-50.4876
-50.9143
-50.7481
-50.4161
-48.8217
-48.5658
-48.3285
-48.8491
-51.0024
-51.1706
-51.2059
-51.2492
-51.3119
-51.0752
-51.2024
-51.4202
-52.7235
-53.0069
-51.6672
-49.7604
-49.0366
-48.72
-48.9059
-49.1759
-52.3476
-52.6856
-52.3505
-52.1206
-52.2133
-52.0921
-52.0132
-52.5155
-53.8944
-54.4623
-52.6715
-50.7891
-49.5984
-49.0581
-48.9973
-49.0952
-54.1551
-54.4385
-53.7652
-53.8166
-53.5626
-52.6994
-52.4898
-53.1156
-54.3848
-54.0457
-52.7843
-51.2501
-50.0112
-49.409
-49.2101
-49.1906
-49.2422
-55.367
-55.9378
-54.4952
-53.9862
-53.9403
-53.9215
-53.5375
-53.6592
-53.4273
-52.9068
-52.0967
-51.0687
-50.2261
-49.6864
-49.4079
-49.2841
-49.2482
-49.2366
-55.3955
-55.6252
-55.0701
-54.7159
-54.3147
-53.9131
-53.6433
-53.2152
-52.7853
-52.2325
-51.5816
-50.895
-50.2872
-49.8372
-49.552
-49.3778
-49.2822
-49.2178
-49.1684
-55.1645
-55.2143
-54.8372
-54.4977
-54.2043
-54.0324
-53.6204
-53.0532
-52.4341
-51.8442
-51.2902
-50.7654
-50.2967
-49.9251
-49.6509
-49.4531
-49.3212
-49.2166
-49.1345
-49.0494
-55.163
-55.0857
-54.8281
-54.67
-54.354
-53.9161
-53.476
-52.8738
-52.2504
-51.6937
-51.1951
-50.7399
-50.3363
-49.9954
-49.7322
-49.5224
-49.3578
-49.2301
-49.1173
-49.0134
-48.9104
-55.2406
-55.0383
-54.773
-54.3632
-54.0852
-53.7137
-53.252
-52.6864
-52.1288
-51.6243
-51.1661
-50.7586
-50.3853
-50.0742
-49.8079
-49.5887
-49.404
-49.2508
-49.114
-48.9895
-48.8737
-48.7635
-55.2762
-54.9966
-54.6378
-54.262
-53.878
-53.4435
-52.9719
-52.4703
-51.9834
-51.5441
-51.1476
-50.7781
-50.4448
-50.1447
-49.8868
-49.6582
-49.4592
-49.2843
-49.1284
-48.9848
-48.8526
-48.7294
-48.6064
-55.2667
-54.871
-54.467
-54.0204
-53.5852
-53.1396
-52.6828
-52.25
-51.8407
-51.4591
-51.1157
-50.7897
-50.488
-50.2108
-49.9586
-49.7307
-49.5203
-49.3302
-49.1561
-48.9977
-48.8503
-48.713
-48.5822
-48.4574
-54.7458
-54.2232
-53.7524
-53.274
-52.8291
-52.3807
-52.0222
-51.6825
-51.3557
-51.0536
-50.7729
-50.506
-50.2561
-50.0205
-49.7976
-49.5815
-49.3856
-49.2021
-49.0276
-48.8657
-48.7133
-48.5676
-48.4312
-48.3001
-47.1777
-47.3183
-47.3538
-47.277
-47.3569
-47.4181
-47.4451
-47.4059
-47.373
-47.4989
-47.4518
-47.421
-47.4361
-47.4264
-47.4359
-47.5222
-47.5997
-47.578
-47.6034
-47.5931
-47.5835
-47.7028
-47.639
-47.6346
-47.6702
-47.6639
-47.6998
-47.691
-47.748
-47.7547
-47.6935
-47.7597
-47.7876
-47.8095
-47.833
-47.8554
-47.9319
-47.9076
-47.885
-47.7594
-47.8562
-47.8866
-47.9471
-47.9857
-47.9901
-48.0248
-48.0615
-48.0171
-48.048
-47.876
-47.9507
-48.0726
-48.0876
-48.1351
-48.178
-48.1519
-48.1534
-48.1679
-48.2472
-48.1807
-48.0258
-48.1079
-48.2094
-48.3035
-48.3911
-48.378
-48.3634
-48.3649
-48.3228
-48.2423
-48.2531
-48.3747
-48.1774
-48.3725
-48.4588
-48.5442
-48.6155
-48.6291
-48.6255
-48.5503
-48.5974
-48.5293
-48.443
-48.3828
-48.6448
-48.5424
-48.6101
-48.7642
-48.8815
-48.8479
-48.8802
-48.9496
-48.8957
-48.8672
-48.7336
-48.5462
-48.1776
-48.4715
-48.8667
-48.9202
-49.0652
-49.1994
-49.2695
-49.1687
-49.4749
-49.3279
-49.3923
-49.4398
-49.2046
-48.8764
-48.524
-48.4235
-48.8018
-49.4162
-49.6818
-49.7381
-49.8017
-49.7287
-49.6649
-49.6895
-49.8419
-50.1214
-50.0807
-49.5095
-48.867
-48.4372
-48.4732
-48.8248
-50.0046
-50.2892
-50.3585
-50.3123
-50.2267
-50.292
-50.4874
-50.5394
-51.1396
-51.3313
-50.8768
-49.4337
-48.7548
-48.3236
-48.6734
-49.115
-51.142
-51.1461
-51.2795
-51.2851
-51.3542
-51.1502