/*--------------------------------*- C++ -*----------------------------------*\
  =========                 |
  \\      /  F ield         | OpenFOAM: The Open Source CFD Toolbox
   \\    /   O peration     | Website:  https://openfoam.org
    \\  /    A nd           | Version:  7
     \\/     M anipulation  |
\*---------------------------------------------------------------------------*/
FoamFile
{
    version     2.0;
    format      ascii;
    class       surfaceScalarField;
    location    "1.5";
    object      phi;
}
// * * * * * * * * * * * * * * * * * * * * * * * * * * * * * * * * * * * * * //

dimensions      [0 3 -1 0 0 0 0];

internalField   nonuniform List<scalar> 
54184
(
-4.3453e-06
0.00296025
8.33759e-06
-3.11614e-05
0.00286246
5.86988e-05
9.99309e-06
0.00295822
8.97504e-06
-3.20758e-05
0.0027844
8.29227e-06
-0.000148037
0.0012494
8.11192e-05
3.96892e-05
0.00284167
5.82235e-05
-5.99997e-05
0.0030868
7.18294e-05
2.41509e-05
0.00294146
9.91364e-06
-1.70508e-05
0.00280155
8.87983e-06
-4.14809e-05
0.00236093
7.68761e-06
-0.000249597
-0.00215414
4.12842e-05
-2.93351e-05
0.0013066
9.534e-05
-0.000141303
0.00195207
0.000133918
8.90215e-05
0.0027835
5.88689e-05
-3.52647e-05
0.00309404
6.91991e-05
-8.10139e-05
0.00286955
7.10613e-05
3.88997e-05
0.00290938
9.61785e-06
-6.51872e-06
0.00280819
9.79305e-06
-3.39071e-05
0.00239501
8.69848e-06
-5.70729e-05
0.00195471
7.09081e-06
-0.000243672
-0.00382426
0.000169862
-0.000142635
-0.00196398
4.14853e-06
-0.000290566
-0.000560089
5.21249e-05
3.76561e-05
0.00134441
9.93219e-05
-0.000116009
0.00199692
0.000131237
-0.000143035
0.00250458
0.000166832
0.000120897
0.0027142
5.59505e-05
7.68797e-06
0.0030696
6.90936e-05
-5.54446e-05
0.00288553
7.47565e-05
-0.00010396
0.00240213
5.82292e-05
5.63227e-05
0.00286189
7.44483e-06
1.08866e-05
0.00279769
9.23091e-06
-2.10098e-05
0.00241738
8.43598e-06
-5.30852e-05
0.0020087
7.79512e-06
-7.66559e-05
0.00166203
6.73784e-06
-0.000173437
-0.00534619
0.00045644
-0.000182544
-0.00371244
0.000119661
-0.000457805
-0.00338876
9.83252e-05
-8.83621e-05
-0.00177688
2.51005e-05
-0.000227749
-0.000485839
4.16381e-05
-0.000265606
0.000715276
0.000114056
0.000120617
0.00133536
9.75934e-05
-2.73988e-05
0.00200357
0.000127754
-0.000104306
0.00251518
0.000169495
-8.26597e-05
0.00247678
0.000151686
0.000160042
0.00261812
5.48312e-05
5.92565e-05
0.00301259
6.45963e-05
-1.32014e-05
0.00287488
7.19393e-05
-9.22829e-05
0.0024544
6.16859e-05
-0.000163102
0.00200906
3.90513e-05
6.56155e-05
0.0028039
9.27234e-06
3.04092e-05
0.00276767
7.04823e-06
-5.41657e-06
0.00242269
9.34107e-06
-4.18498e-05
0.00205196
7.0254e-06
-7.51226e-05
0.0017376
7.34259e-06
-8.42929e-05
0.00140937
6.95576e-06
0.000107948
-0.00633857
0.00100698
-0.000302645
-0.00506551
0.000241941
-0.000476427
-0.00493349
0.000447971
-0.000161616
-0.0035818
9.57323e-05
-0.000227434
-0.00333851
6.90929e-05
-0.000397419
-0.00283383
6.27076e-05
8.96191e-06
-0.00160633
6.78751e-06
-0.000119306
-0.000404421
3.55906e-05
-0.000215394
0.000742985
0.000125016
-0.00014633
0.00157311
0.000181023
0.000163857
0.0013276
9.47954e-05
7.23498e-05
0.00196422
0.000123855
5.18624e-05
0.00242159
0.00015628
-8.40393e-05
0.00248473
0.000153303
-0.000202963
0.0022524
0.000104342
0.000179591
0.00251289
5.42385e-05
8.9437e-05
0.002945
6.33904e-05
2.8715e-05
0.0028362
6.91426e-05
-6.01771e-05
0.0024864
5.82669e-05
-0.0001517
0.00210588
4.14419e-05
-0.000196506
0.00163667
3.08776e-05
7.27134e-05
0.00273878
8.90711e-06
3.92328e-05
0.00272864
9.06897e-06
1.02705e-05
0.00241263
6.83633e-06
-2.76523e-05
0.00208023
8.72196e-06
-6.41626e-05
0.00180189
6.90073e-06
-8.62406e-05
0.00149466
8.28662e-06
-8.25924e-05
0.00114784
7.00846e-06
0.000186441
-0.00691695
0.00215267
-1.62622e-05
-0.00613092
0.00109849
-7.0676e-05
-0.00628784
0.000757054
-0.000337866
-0.00484659
0.000318927
-0.000200651
-0.00498532
0.000266986
-0.000461916
-0.00427526
0.000395222
-8.42929e-05
-0.00340237
4.22083e-05
-0.000180639
-0.0032084
2.69498e-05
-0.000359332
-0.00265968
3.88763e-05
-0.000473316
-0.00173454
7.92367e-05
4.89122e-05
-0.00144374
2.43624e-05
7.23818e-07
-0.000361643
3.56354e-05
-2.77813e-06
0.000753028
8.01885e-05
-0.000132708
0.00155845
0.000188344
-0.000260822
0.0016886
0.000160947
0.000219638
0.00128042
8.82677e-05
0.000165276
0.00186245
0.000120719
0.000118394
0.00230592
0.000149851
1.20045e-05
0.00243219
0.000136637
-0.000167023
0.00231678
0.000104246
-0.00030186
0.00189961
7.67486e-05
0.00019355
0.00240107
5.35802e-05
0.000132136
0.00284451
6.18291e-05
6.56801e-05
0.00277883
6.53501e-05
-3.10571e-05
0.00250394
5.50126e-05
-0.000122029
0.00218356
3.84562e-05
-0.000194908
0.00175499
3.17865e-05
-0.000200954
0.00126171
2.88877e-05
8.39943e-05
0.0026619
8.37376e-06
5.22872e-05
0.00267695
8.30961e-06
1.61775e-05
0.00239693
8.59392e-06
-2.00939e-05
0.00210191
5.25446e-06
-5.51858e-05
0.00185814
7.66122e-06
-7.82715e-05
0.0015726
7.23802e-06
-8.51968e-05
0.00123248
8.84402e-06
-7.65296e-05
0.000840402
7.499e-06
0.000261101
-0.00706331
0.00234926
0.000177471
-0.00693179
0.00236678
0.000269349
-0.00660263
0.0019749
-2.24249e-05
-0.00599291
0.000951873
-6.90357e-05
-0.00605544
0.000734475
-0.000506981
-0.00559694
0.000720432
-0.00012451
-0.00475475
0.000196673
-0.000166333
-0.00495974
0.00027904
-0.000471769
-0.0042658
0.000369972
-0.000561262
-0.00398435
0.000377335
-4.5711e-05
-0.00324902
3.29246e-05
-0.000103455
-0.00305642
-5.59359e-06
-0.000204577
-0.00244088
9.94856e-06
-0.000380002
-0.00150792
5.95567e-05
-0.000552352
-0.000386347
0.000171461
0.000126152
-0.0013077
2.66546e-05
0.000120972
-0.000325147
3.21705e-05
8.57815e-05
0.000738234
8.30409e-05
-5.56646e-06
0.00153508
0.000121125
-0.000211941
0.00176512
0.000156735
-0.000404501
0.00189209
0.000135073
0.000273009
0.0012067
9.14322e-05
0.000223397
0.0017465
0.000112959
0.000172981
0.0021765
0.000142837
5.41249e-05
0.00237095
0.000125912
-9.79712e-05
0.00233714
9.22185e-05
-0.00028237
0.00201465
7.66673e-05
-0.000341111
0.00147194
7.11925e-05
0.00021669
0.0022769
5.10065e-05
0.000165444
0.00272958
5.5353e-05
9.87209e-05
0.00269335
6.47684e-05
2.04534e-06
0.0024952
5.19425e-05
-9.10269e-05
0.00223872
3.56879e-05
-0.000168439
0.00185372
2.98911e-05
-0.000204411
0.00138279
2.99143e-05
-0.000183117
0.000862853
2.73792e-05
9.58044e-05
0.00257236
8.73779e-06
6.59145e-05
0.00261167
7.74032e-06
3.33074e-05
0.00236444
7.48523e-06
-7.5116e-06
0.00210998
8.02973e-06
-4.03223e-05
0.00189856
5.15496e-06
-6.67293e-05
0.00163965
7.33705e-06
-7.81811e-05
0.00131037
7.52658e-06
-8.02336e-05
0.000920882
8.5977e-06
-7.01827e-05
0.00055939
8.07201e-06
5.69236e-05
-0.00610858
0.00299922
0.000263288
-0.00664219
0.00261503
5.89123e-05
-0.00704974
0.00262596
0.000389893
-0.00682169
0.00255242
0.000200164
-0.00689313
0.002314
0.000303632
-0.00658061
0.00197209
-0.000106905
-0.00608519
0.00163422
3.69267e-05
-0.00578756
0.000916343
7.64299e-05
-0.0058994
0.000553067
-0.000187826
-0.0057881
0.000641686
-0.000583312
-0.00503773
0.000751776
-0.000287796
-0.00451692
0.000196428
-0.000546895
-0.00453679
0.000217164
-0.000199275
-0.00430169
0.000309624
-0.000486761
-0.00384176
0.000334135
-0.000733536
-0.00355178
0.000415615
1.93822e-05
-0.00309101
1.72055e-06
-8.66175e-05
-0.00281415
-1.75164e-06
-0.000116765
-0.00224312
-8.03366e-07
-0.000230959
-0.0013032
3.06168e-05
-0.000484423
-0.000194801
0.000140492
-0.000679205
0.000726676
0.00023195
0.000197461
-0.00118858
2.949e-05
0.000212997
-0.000317074
2.89813e-05
0.000172146
0.000696211
7.50284e-05
6.83129e-05
0.00147891
0.000125022
-0.000115949
0.00178284
0.00012139
-0.000369431
0.00201312
0.000122767
-0.000499295
0.001689
0.000114698
0.000306628
0.00111189
8.82253e-05
0.000272115
0.0016166
0.00011466
0.000219582
0.00203704
0.000131555
0.000105926
0.00229489
0.000115023
-4.97365e-05
0.00234077
8.0993e-05
-0.000225304
0.00209853
6.52029e-05
-0.000340404
0.0016124
7.21938e-05
-0.0003206
0.000980994
7.07319e-05
0.000238519
0.00214559
4.73211e-05
0.000193871
0.00259421
5.84204e-05
0.000114803
0.00260965
5.75587e-05
3.29511e-05
0.00247021
4.92984e-05
-5.77928e-05
0.00227496
3.31749e-05
-0.000141663
0.00193747
2.6877e-05
-0.000185417
0.00149172
2.82033e-05
-0.000191638
0.000974334
2.98375e-05
-0.000160333
0.000517448
2.79538e-05
0.000106481
0.00247267
8.19443e-06
7.81913e-05
0.00253358
8.64179e-06
4.5581e-05
0.00231884
7.76316e-06
7.7892e-07
0.00211064
6.05347e-06
-3.52356e-05
0.00193458
7.23988e-06
-6.02235e-05
0.00169881
6.21559e-06
-7.16641e-05
0.00138212
7.25369e-06
-7.47523e-05
0.000995172
7.98867e-06
-7.43532e-05
0.000633502
8.8391e-06
-6.3455e-05
0.000353922
8.94286e-06
-1.1112e-05
-0.00559369
0.00311938
0.000128983
-0.00611307
0.00298341
0.000341991
-0.00611255
0.00296893
7.62112e-05
-0.00671896
0.00285883
0.000297812
-0.0065258
0.00275553
0.00019918
-0.00709841
0.00260342
0.000414795
-0.0070773
0.00277041
0.000132374
-0.00613611
0.00248748
0.000129743
-0.00677835
0.00232794
0.000363198
-0.00651275
0.00195938
0.000387472
-0.00619673
0.00150833
-0.000207823
-0.00558588
0.00124472
-0.00015938
-0.0053986
0.000729963
-0.000426148
-0.00577008
0.000666276
-0.000361543
-0.00556683
0.000494073
-0.000456306
-0.00512484
0.000698347
-0.000717174
-0.00506801
0.000757608
-0.000165906
-0.00430134
6.779e-05
-0.000134711
-0.00449479
0.000202527
-0.000375254
-0.00409252
0.000266481
-0.000340509
-0.00371261
0.000290024
-0.000708299
-0.00337092
0.000377153
-0.000849678
-0.0017279
0.000495319
7.67756e-05
-0.00289178
3.22075e-06
0.000125974
-0.00270098
-2.44209e-05
-2.92331e-05
-0.00202846
-1.50302e-05
-8.67868e-05
-0.00115969
1.07914e-05
-0.000336847
-3.54152e-05
9.21294e-05
-0.000647256
0.000943005
0.000201987
-0.000711109
0.00142984
0.000229453
0.000235154
-0.00107428
2.42702e-05
0.000263269
-0.000311654
3.29152e-05
0.000226291
0.000650748
6.77352e-05
0.000146824
0.0014113
0.000101743
-4.10612e-05
0.00178786
0.000111328
-0.000279658
0.00209348
9.5383e-05
-0.000488229
0.00185329
0.0001063
-0.000491419
0.0012181
0.000111643
0.000341975
0.000991844
9.70321e-05
0.000318844
0.00147134
0.000108515
0.000226267
0.00191412
0.000126117
0.000163128
0.00219258
0.000103682
2.01532e-05
0.00230744
7.04143e-05
-0.000166865
0.00214891
5.58111e-05
-0.000300187
0.00173155
6.08287e-05
-0.000331274
0.00112147
7.13508e-05
-0.000275835
0.000507029
6.96474e-05
0.00026197
0.00200153
4.78388e-05
0.000219521
0.00245149
4.87084e-05
0.000138518
0.00251669
5.844e-05
5.88327e-05
0.00242436
4.53585e-05
-2.78108e-05
0.00228715
2.96832e-05
-0.000113986
0.00199944
2.4964e-05
-0.000164609
0.00158616
2.53819e-05
-0.000178051
0.00107896
2.68748e-05
-0.000170654
0.000613224
3.03625e-05
-0.000139037
0.00028915
3.07612e-05
0.000115922
0.0023636
7.44825e-06
8.61183e-05
0.00244824
7.41418e-06
5.18302e-05
0.00226828
7.36951e-06
1.73693e-05
0.00209273
8.30271e-06
-2.19884e-05
0.00195666
5.96481e-06
-4.87571e-05
0.00174813
6.68009e-06
-6.41459e-05
0.00144526
7.22017e-06
-6.99151e-05
0.00106455
7.78778e-06
-7.10392e-05
0.00070393
8.60043e-06
-6.8079e-05
0.000421006
9.8348e-06
-5.68886e-05
0.000204775
9.6957e-06
-3.054e-05
-0.00558782
0.00330612
0.000102448
-0.00569263
0.00314172
0.000299964
-0.00556774
0.00306993
3.8111e-05
-0.00615204
0.00327674
0.000236845
-0.00618354
0.00311536
0.000300134
-0.00608491
0.00285261
0.000204495
-0.00679246
0.0028589
0.000346898
-0.00655061
0.00295154
0.00017511
-0.00642614
0.0028385
0.000265168
-0.00729008
0.00261582
0.000361597
-0.00722035
0.00274807
0.000401169
-0.00609171
0.00271232
0.000224342
-0.00562152
0.00238248
0.000133235
-0.00682689
0.00229845
0.000313217
-0.00669537
0.0017712
-2.9395e-05
-0.00604331
0.00147381
-0.000138334
-0.00567836
0.00128284
-0.000457912
-0.00562229
0.00103783
-2.99085e-05
-0.00519108
0.000746551
-1.30013e-05
-0.00544352
0.00028169
-0.00038024
-0.00539764
0.000502069
-0.000524114
-0.00505992
0.000612752
-0.000744866
-0.00507093
0.000737833
-0.000729102
-0.00436931
0.000813997
-0.000188597
-0.00401085
8.95682e-05
-0.00019359
-0.00419965
9.22084e-05
-8.95071e-05
-0.00404026
0.000210537
-0.000241183
-0.00352404
0.00023231
-0.000531476
-0.00319342
0.000307158
-0.000866477
-0.00159499
0.00046346
-0.000904714
0.000613461
0.000448606
8.59733e-05
-0.00269556
1.52609e-05
8.0619e-05
-0.00250248
-1.26332e-05
6.88626e-05
-0.00188098
-1.44713e-05
3.45485e-05
-0.00105486
-7.59224e-06
-0.000186573
6.47628e-05
5.61249e-05
-0.00051875
0.00112818
0.000146042
-0.000699128
0.0016334
0.000209326
-0.000685865
0.00126159
0.000202657
0.000287853
-0.00098026
2.87167e-05
0.000289218
-0.000299136
4.13786e-05
0.000257938
0.000580421
7.15704e-05
0.000212813
0.00133057
9.87795e-05
7.73847e-05
0.00176166
7.07027e-05
-0.000198489
0.0021649
7.15342e-05
-0.000416689
0.00197713
8.8043e-05
-0.000501708
0.00138498
0.000109851
-0.000431398
0.0007061
0.000113048
0.000382939
0.000855428
9.47351e-05
0.000340344
0.0013396
0.000107944
0.00028068
0.00176572
0.000114751
0.00019739
0.00208519
9.49519e-05
7.00874e-05
0.00225321
6.00145e-05
-0.000111953
0.00217045
4.68371e-05
-0.000255766
0.00182302
5.54963e-05
-0.000303731
0.00124477
6.32111e-05
-0.000293317
0.000630096
7.09469e-05
-0.000230694
0.000168175
7.00275e-05
0.00028095
0.00184774
4.40296e-05
0.000233824
0.00229974
5.18828e-05
0.000169068
0.00239752
5.064e-05
8.25112e-05
0.00237582
4.18397e-05
2.24707e-07
0.00228306
2.72373e-05
-8.65504e-05
0.00204489
2.2026e-05
-0.000141485
0.00166526
2.32023e-05
-0.000163283
0.00117167
2.60367e-05
-0.000162885
0.000704031
2.79141e-05
-0.000150077
0.0003687
3.2811e-05
-0.000120975
0.00015406
3.42179e-05
0.000124827
0.00224515
7.35064e-06
9.68767e-05
0.00235223
6.58452e-06
6.07652e-05
0.0022086
6.32632e-06
1.71087e-05
0.00207911
3.87743e-06
-1.76249e-05
0.00197483
7.75937e-06
-3.87063e-05
0.00178611
6.68541e-06
-5.57352e-05
0.00150068
6.99649e-06
-6.4141e-05
0.00112813
7.7869e-06
-6.69913e-05
0.000770298
8.41076e-06
-6.59361e-05
0.00048596
9.58235e-06
-6.18969e-05
0.000265885
1.06221e-05
-4.9703e-05
8.37384e-05
1.05084e-05
-7.90982e-05
-0.00494362
0.00379931
-2.90236e-05
-0.00525807
0.00358758
8.73361e-05
-0.00563232
0.00327127
0.000325546
-0.00544129
0.00339267
-1.50973e-05
-0.00573548
0.00342491
0.000374507
-0.00570956
0.00314587
0.000460711
-0.00579766
0.00303194
0.000147466
-0.00624535
0.00330262
0.000254702
-0.00609335
0.00327874
0.000321798
-0.00616945
0.00305322
0.000193787
-0.00620273
0.00289332
0.000185441
-0.00680169
0.00285061
0.000341554
-0.006585
0.00291333
0.000431617
-0.00657099
0.00306595
0.000367904
-0.00628007
0.00288741
0.000230164
-0.00749242
0.00267887
0.000290886
-0.00727612
0.00269392
0.000434371
-0.00647671
0.00266931
0.000126543
-0.00567026
0.00249618
4.60547e-05
-0.00489849
0.00201207
0.000196037
-0.00690626
0.00227596
0.000192288
-0.00629672
0.0016945
0.00033226
-0.00610404
0.00111943
-0.000137255
-0.00572899
0.00113757
-0.000595136
-0.00569308
0.00120391
-0.000532645
-0.00570854
0.0010395
-4.1298e-05
-0.00493049
0.00053171
-0.000305241
-0.00505324
0.000467929
-0.000225754
-0.00525874
0.000279033
-0.000375362
-0.00496191
0.000538244
-0.000528599
-0.00511637
0.000655313
-0.000863355
-0.00443314
0.000798541
-0.000740239
-0.0022299
0.000843875
-0.000174087
-0.0038014
4.48269e-05
-0.000180822
-0.0039578
0.00010916
-0.000153783
-0.00387543
0.000150033
-5.19199e-05
-0.00337697
0.000149938
-0.000386936
-0.00299827
0.000237515
-0.000763404
-0.00141634
0.000373167
-0.000904108
0.000861307
0.000420593
-0.00085017
0.00110282
0.00036527
0.000208765
-0.00255481
1.33473e-05
0.000163881
-0.00235957
-2.31605e-06
0.000122103
-0.00174467
-1.31135e-05
0.000122444
-0.000962171
-1.67864e-05
-2.4592e-05
0.000154418
4.72933e-06
-0.000374835
0.00126675
9.39048e-05
-0.000596227
0.00179509
0.000163889
-0.0006956
0.00146881
0.000195998
-0.00062069
0.000757533
0.000196778
0.000328376
-0.000892482
3.88197e-05
0.000323116
-0.000301597
4.84055e-05
0.000366689
0.000455555
8.02355e-05
0.000296817
0.00121324
8.94803e-05
0.000165793
0.00170497
5.97647e-05
-6.26386e-05
0.00214323
4.30616e-05
-0.000334432
0.00206011
6.72163e-05
-0.000450778
0.00152822
9.18576e-05
-0.000455663
0.000863725
0.000114572
-0.000361899
0.000294227
0.000115522
0.000405961
0.000719212
9.51939e-05
0.000358992
0.00120453
0.000104638
0.000313713
0.00162878
0.00010024
0.000233572
0.00196545
8.34262e-05
0.000112752
0.00218441
5.12223e-05
-6.728e-05
0.00217335
3.78471e-05
-0.000212466
0.00189513
4.57022e-05
-0.000273078
0.00135187
5.81881e-05
-0.000277943
0.000742644
6.57205e-05
-0.000250653
0.000266069
7.36279e-05
-0.000194126
-3.52982e-06
7.27097e-05
0.000295534
0.00169217
3.87466e-05
0.000249087
0.00214351
4.80511e-05
0.000184804
0.00227526
5.01058e-05
0.0001073
0.00229693
3.93303e-05
2.71754e-05
0.00225654
2.3563e-05
-6.0482e-05
0.00207445
1.94578e-05
-0.000118287
0.00172841
2.14266e-05
-0.000146404
0.00125122
2.592e-05
-0.000153402
0.000788779
2.76991e-05
-0.000146184
0.000445494
3.13686e-05
-0.000131178
0.000219387
3.67644e-05
-0.000102995
2.96181e-05
3.77009e-05
0.000132142
0.00211888
7.59237e-06
0.000107235
0.00224492
7.42654e-06
7.07156e-05
0.00213813
6.34617e-06
3.0926e-05
0.00204653
7.98499e-06
2.4881e-06
0.00197245
3.76503e-06
-2.91513e-05
0.00181629
6.73316e-06
-4.79636e-05
0.00154855
6.77179e-06
-5.80277e-05
0.0011857
7.45114e-06
-6.23591e-05
0.000832076
8.36804e-06
-6.34072e-05
0.000548386
9.39167e-06
-6.07047e-05
0.000325711
1.04606e-05
-5.46252e-05
0.000137485
1.15009e-05
-4.13386e-05
-2.76428e-05
1.11833e-05
-8.89984e-05
-0.00487594
0.0039426
-5.70059e-05
-0.00495328
0.00377466
0.000170124
-0.00498278
0.00383463
-6.40524e-05
-0.00518401
0.0036018
0.000196301
-0.00512631
0.00361122
3.45917e-05
-0.00572147
0.00360742
0.000391301
-0.00553369
0.00334688
0.00043378
-0.00545298
0.00346449
0.000172179
-0.00586247
0.00343412
0.000252802
-0.00574245
0.00345971
0.000508114
-0.00595511
0.003117
0.000258388
-0.00572523
0.00305323
0.000200103
-0.00635663
0.00321904
0.000486263
-0.00625242
0.00331699
0.000356976
-0.00603232
0.00321625
0.000203109
-0.00610126
0.00311654
8.57893e-05
-0.00613694
0.00309198
0.000249818
-0.00690916
0.00284725
0.000322093
-0.00667543
0.00290984
0.000434339
-0.00668709
0.00302946
0.000214296
-0.00642185
0.00311998
0.000152037
-0.00555349
0.00287493
0.000192805
-0.00759629
0.00273547
0.000378502
-0.00749845
0.00271498
0.000479441
-0.00657327
0.0026433
0.00016119
-0.00557464
0.00227524
0.00014611
-0.00533357
0.00219001
-0.000184236
-0.00581196
0.00175844
0.000202408
-0.00685955
0.00199706
0.000135387
-0.00619881
0.00173743
0.000146186
-0.00582754
0.00104606
-5.62542e-05
-0.00581332
0.000884659
-0.000465308
-0.00572263
0.00110382
-0.000777998
-0.00576802
0.00117803
-0.000531094
-0.00481016
0.00111307
-2.05569e-05
-0.00472662
0.000393691
-0.000190585
-0.00473419
0.000222421
-0.000343405
-0.00491108
0.000309891
-0.000217727
-0.00489957
0.000382498
-0.000541642
-0.00500454
0.000581125
-0.000844283
-0.00441582
0.000718865
-0.000861629
-0.00232181
0.000847973
-0.000907239
-4.20863e-05
0.000724162
-2.1941e-05
-0.00354446
-2.58397e-05
-0.000117752
-0.0036815
5.01635e-05
-1.93906e-05
-0.00371153
8.67456e-05
5.80972e-05
-0.00323842
7.58269e-05
-0.000133529
-0.0028603
0.000120908
-0.000597242
-0.00121836
0.000261941
-0.000770546
0.00107358
0.00033521
-0.000878583
0.00135162
0.00035477
-0.000803236
0.000759149
0.000302864
0.000220107
-0.00238708
1.8182e-05
0.000187737
-0.00221712
6.28516e-06
0.000250849
-0.00162075
-1.0397e-05
0.00026153
-0.000920051
-1.99471e-05
0.000142929
0.000179675
-1.91785e-05
-0.000162307
0.00132805
4.31031e-05
-0.000465692
0.00190632
0.000113931
-0.000620085
0.0016347
0.000167302
-0.000657484
0.000954363
0.000200988
-0.000523841
0.000300086
0.000194306
0.000403292
-0.000860334
4.73168e-05
0.000429859
-0.000385001
5.13564e-05
0.000442808
0.000286006
8.88599e-05
0.000353242
0.00109943
7.43718e-05
0.000245791
0.00162482
3.6595e-05
8.18223e-06
0.00210365
2.38742e-05
-0.000268938
0.00211228
4.73688e-05
-0.000394689
0.00163781
7.92341e-05
-0.000426419
0.00100306
0.000100996
-0.000390825
0.00042975
0.000119221
-0.000299055
5.68909e-05
0.000119405
0.000418313
0.000588228
0.000100109
0.000370975
0.00107675
0.000101091
0.000326977
0.00149611
9.51331e-05
0.000263531
0.00183714
7.23199e-05
0.000156379
0.00209709
4.15429e-05
-2.45376e-05
0.0021586
3.00326e-05
-0.000167832
0.00194457
3.79584e-05
-0.000238691
0.00144218
4.76832e-05
-0.000258681
0.000846501
5.96099e-05
-0.000244342
0.000360513
6.94344e-05
-0.000212227
7.33668e-05
7.77808e-05
-0.000160425
-8.62747e-05
7.63578e-05
0.000300687
0.00154017
3.71872e-05
0.000267453
0.00198009
4.19462e-05
0.000195832
0.00215242
4.57774e-05
0.000127162
0.00221771
3.30942e-05
4.63375e-05
0.00222964
2.23772e-05
-3.51127e-05
0.00208683
1.71438e-05
-9.65305e-05
0.00177794
1.84932e-05
-0.000130151
0.00132562
1.91523e-05
-0.000143629
0.000867353
2.86169e-05
-0.000141441
0.000521221
3.00057e-05
-0.00012816
0.000282704
3.55073e-05
-0.000113022
8.37674e-05
4.10123e-05
-8.52239e-05
-9.05335e-05
4.06316e-05
0.00013849
0.00198692
6.56914e-06
0.000115132
0.00213043
6.95008e-06
7.80914e-05
0.00206046
7.00747e-06
4.17174e-05
0.00200729
3.8633e-06
-1.52043e-06
0.00197389
8.06459e-06
-2.25041e-05
0.00183654
6.02627e-06
-3.86224e-05
0.00158707
6.83728e-06
-5.19247e-05
0.00123722
7.17683e-06
-5.9642e-05
0.000891156
8.01323e-06
-6.06042e-05
0.000608168
9.19062e-06
-5.92453e-05
0.000384025
1.03231e-05
-5.42067e-05
0.000190779
1.13729e-05
-4.61136e-05
1.77227e-05
1.2249e-05
-3.35748e-05
-0.000102908
1.19307e-05
-8.84238e-05
-0.00434531
0.00432436
-0.000156389
-0.00484121
0.0039019
0.000112798
-0.0049412
0.00406238
-8.67129e-05
-0.00495057
0.00372473
0.000140079
-0.00496856
0.00381667
0.000345598
-0.00498377
0.00387979
-6.55374e-05
-0.00512661
0.00396633
0.000375985
-0.00515366
0.00364446
0.000317502
-0.00517105
0.00363115
0.000165192
-0.00572869
0.00356933
0.000265343
-0.00564959
0.00371077
0.000295061
-0.00534144
0.00344839
0.000388835
-0.00522606
0.00341703
0.000280782
-0.0060889
0.00343063
0.000572472
-0.00580447
0.00340993
0.00050152
-0.0061207
0.00348076
0.000267206
-0.00581632
0.00314399
0.000346836
-0.00573991
0.00304888
0.000263233
-0.00640703
0.00313062
0.000356187
-0.00633825
0.00327077
0.000468208
-0.00603362
0.00328443
9.41496e-05
-0.00607793
0.00331307
0.000109182
-0.00620602
0.00322847
0.000151984
-0.00572208
0.00300782
9.328e-05
-0.00689427
0.00282581
0.000473786
-0.00680107
0.0028776
0.000462603
-0.00677118
0.00301077
0.000144294
-0.00639152
0.00301602
0.00032325
-0.00564706
0.00303642
8.30364e-05
-0.00554103
0.0028244
0.000155748
-0.00762131
0.00275229
0.000233864
-0.00747773
0.00261628
0.000510254
-0.00681399
0.00259163
0.000121089
-0.00531246
0.00220378
0.000214144
-0.00568638
0.0019486
-0.000191905
-0.00608993
0.00188188
-0.0003041
-0.00583257
0.0017763
0.000107306
-0.00676504
0.00188633
0.000157102
-0.00604565
0.00149621
0.000399499
-0.00579372
0.000960713
-7.77239e-05
-0.00560708
0.000699819
-0.000493972
-0.00585943
0.000973791
-0.000765707
-0.00584803
0.00110526
-0.000789043
-0.00492297
0.00121825
-0.000801697
-0.00277087
0.00112162
3.93171e-05
-0.00443383
0.000242235
-0.000244589
-0.00440391
0.000190247
-0.000194933
-0.00465114
0.000138021
-0.000129669
-0.00472464
0.000322729
-0.000266481
-0.00492249
0.000433401
-0.000534566
-0.00451621
0.000618837
-0.000771978
-0.00237859
0.000777081
-0.000989487
0.000177276
0.000739514
-0.000980745
0.000402065
0.000600568
-2.97444e-05
-0.00331375
1.87944e-06
-6.13412e-05
-0.00348653
2.82627e-05
2.18801e-05
-0.00349073
5.83371e-05
0.000186175
-0.0030747
-1.62124e-06
4.55222e-05
-0.00269605
8.98623e-06
-0.000389997
-0.00101202
0.000142254
-0.000586994
0.00120821
0.000248618
-0.000780242
0.00154909
0.000297904
-0.000855727
0.00100694
0.000305225
-0.000715197
0.000228364
0.000283532
0.000318708
-0.00222571
2.27702e-05
0.000326707
-0.00211492
1.91243e-05
0.000344542
-0.00152388
7.68615e-06
0.000347708
-0.000900005
-2.49088e-05
0.000288775
0.000155724
-3.89805e-05
-1.51628e-05
0.00132036
1.18479e-05
-0.000336233
0.00193638
8.03387e-05
-0.000530087
0.00174511
0.00013892
-0.000612618
0.0011236
0.000184261
-0.000573184
0.000477729
0.000205705
-0.00042565
9.56505e-06
0.000189517
0.00046757
-0.000878249
6.43128e-05
0.00034611
-0.000367422
5.4602e-05
0.000435976
0.000143421
8.49427e-05
0.000404164
0.000977622
7.00354e-05
0.000320046
0.00151746
1.8068e-05
8.03401e-05
0.00203337
2.00267e-06
-0.000192084
0.00213178
2.86279e-05
-0.000337495
0.00172018
6.3799e-05
-0.000389167
0.00112083
9.19519e-05
-0.000374644
0.000551524
0.000109525
-0.00032785
0.000166598
0.000125137
-0.000240563
-9.9073e-05
0.000125018
0.000431243
0.000457266
9.25612e-05
0.000389756
0.000963353
9.12021e-05
0.000330434
0.00137621
8.63939e-05
0.000287839
0.00170673
6.4872e-05
0.000184158
0.00199822
3.33653e-05
1.44149e-05
0.00212878
2.18341e-05
-0.000124623
0.00197178
3.09116e-05
-0.000204081
0.00151153
4.25356e-05
-0.000236835
0.000935432
5.19573e-05
-0.000235318
0.000448722
6.52788e-05
-0.000209353
0.000148975
7.50188e-05
-0.000177676
-2.62744e-05
8.24342e-05
-0.000126278
-0.000184688
7.98663e-05
0.000307485
0.0013842
3.51024e-05
0.000282814
0.00180865
4.09503e-05
0.000215149
0.00201701
4.02925e-05
0.000146834
0.00212423
3.41364e-05
7.36034e-05
0.00217107
1.65422e-05
-1.16911e-05
0.00208338
1.50146e-05
-7.22253e-05
0.00181217
1.6519e-05
-0.000112332
0.00138216
2.23601e-05
-0.000136085
0.000941868
2.10798e-05
-0.000136298
0.00059636
2.91714e-05
-0.000124761
0.000343979
3.42471e-05
-0.000110766
0.000135813
4.00203e-05
-9.54509e-05
-4.46555e-05
4.44717e-05
-6.72634e-05
-0.000181145
4.28956e-05
0.000144861
0.00184851
6.33861e-06
0.000120962
0.00201018
5.85313e-06
8.45105e-05
0.00197668
6.21463e-06
5.0474e-05
0.00195614
7.68415e-06
1.81286e-05
0.00195542
4.21102e-06
-8.60871e-06
0.00184683
6.37668e-06
-3.3545e-05
0.00162032
6.3227e-06
-4.60935e-05
0.0012831
7.04616e-06
-5.51907e-05
0.000945732
7.79125e-06
-5.82242e-05
0.000665361
9.04431e-06
-5.8034e-05
0.000441119
1.0131e-05
-5.3507e-05
0.000243394
1.12152e-05
-4.62953e-05
6.3257e-05
1.21339e-05
-3.78585e-05
-6.59459e-05
1.31453e-05
-2.53536e-05
-0.000169646
1.25851e-05
1.81395e-06
-0.00433608
0.00422942
-0.00014244
-0.00436825
0.00432593
0.000202553
-0.00458529
0.0042538
-6.50302e-05
-0.00484536
0.00385033
7.18686e-05
-0.00499664
0.00402555
0.000280116
-0.00479976
0.00418361
-6.83901e-05
-0.00496329
0.00405999
0.000268246
-0.00496563
0.00382954
0.000268664
-0.00495939
0.00384112
0.000382131
-0.00493283
0.00387133
0.000108913
-0.0051159
0.00397911
0.000252608
-0.00517842
0.00400382
0.000295237
-0.005163
0.00363624
0.000383548
-0.00509371
0.00358391
0.000123848
-0.0056389
0.00360345
0.000440659
-0.00564447
0.00369603
0.000663706
-0.00548123
0.00368838
0.000575467
-0.00541075
0.00332481
0.000769231
-0.00548143
0.0033982
0.000106077
-0.00603439
0.00338353
0.000557915
-0.00601585
0.00344028
0.000547634
-0.00618085
0.00339065
0.000397754
-0.00613924
0.00350008
0.000417629
-0.00602235
0.00311799
0.000246591
-0.00566013
0.00306903
0.000228285
-0.00647374
0.0030778
0.000516067
-0.00643674
0.00318683
0.000412293
-0.00601448
0.00330194
0.000334145
-0.00623819
0.00325483
0.000241412
-0.00628883
0.00347771
0.000272421
-0.00583688
0.00315389
0.000198529
-0.00577844
0.00294302
0.00018924
-0.00694871
0.00276349
0.000346721
-0.00690053
0.00281242
0.000615195
-0.00690498
0.00290646
0.000333066
-0.00654474
0.00295201
0.000632962
-0.00586555
0.00281569
0.000207516
-0.00587185
0.00296781
3.83854e-05
-0.00595236
0.00258671
-1.08572e-05
-0.00757959
0.00277235
0.000281984
-0.0073811
0.00253079
0.000772233
-0.0069755
0.00240505
0.000352462
-0.00535643
0.00220542
0.00014556
-0.00576518
0.00164304
-2.91639e-05
-0.00660006
0.00172219
-0.000473674
-0.00617171
0.00190565
-0.000463685
-0.00479311
0.00167174
0.000140754
-0.00659878
0.00175456
4.99277e-05
-0.00592559
0.00147175
0.000321048
-0.00566405
0.000850556
0.000236238
-0.00569522
0.000682939
-0.000321798
-0.00590678
0.000802488
-0.00025774
-0.0060992
0.000948137
-0.000732816
-0.00499995
0.00114309
-0.000925296
-0.00283555
0.00121874
-0.000985244
-0.000841457
0.00095893
0.000100302
-0.00429988
0.000216602
-0.000143398
-0.00411936
3.97351e-05
-0.000201443
-0.00434193
0.00010437
-2.91994e-05
-0.00453456
0.00016331
-0.000228375
-0.00465781
0.000331941
-0.000540963
-0.0044427
0.000510861
-0.000650587
-0.00237687
0.000680715
-0.000901682
0.000401591
0.000674207
-0.00106238
0.000720751
0.000627478
-0.000916886
0.000238759
0.000490253
7.39938e-05
-0.00304728
-5.27301e-05
-4.228e-05
-0.0031243
8.64407e-06
0.000103481
-0.00328155
6.01407e-05
0.000206711
-0.00284663
-2.87376e-05
0.000205405
-0.00254173
-7.25718e-05
-0.00013657
-0.000907461
2.58346e-05
-0.000392933
0.00125475
0.000152414
-0.000654678
0.0016829
0.000239392
-0.000800449
0.0012196
0.000273072
-0.000784211
0.000454396
0.00029022
-0.000579884
-0.000147693
0.000279125
0.000452518
-0.00214997
8.29104e-05
0.00025942
-0.00202696
2.15095e-05
0.000370805
-0.00146002
2.04305e-05
0.00040953
-0.000876804
-2.08816e-05
0.000392799
0.000112048
-5.39857e-05
0.000114437
0.00127285
-2.55621e-05
-0.000203503
0.00191581
4.38406e-05
-0.000432962
0.0018116
0.000109314
-0.000556206
0.0012607
0.000168867
-0.00055224
0.000643319
0.000196267
-0.000478674
0.000162761
0.000203332
-0.00033752
-0.000157748
0.000190335
0.000377899
-0.000800946
7.81715e-05
0.000387155
-0.000354433
5.39253e-05
0.000443412
3.21682e-06
8.18284e-05
0.000434202
0.000858863
5.73382e-05
0.000361009
0.00140598
4.65695e-06
0.000132789
0.0019444
-1.13399e-05
-0.000115279
0.0021109
1.35388e-05
-0.000277437
0.00177045
5.17166e-05
-0.000349382
0.00121685
8.03265e-05
-0.00035074
0.00065789
0.000101007
-0.000320779
0.000270575
0.000116973
-0.000268185
-1.61925e-05
0.000132765
-0.000182243
-0.000199741
0.000130452
0.000433543
0.000339194
8.58756e-05
0.000400829
0.000854885
8.30149e-05
0.000347983
0.00125426
8.03131e-05
0.000303834
0.00158255
5.35701e-05
0.000204269
0.00190658
2.58454e-05
4.77458e-05
0.00208784
1.48642e-05
-8.23322e-05
0.00198093
2.27918e-05
-0.000167921
0.00156351
3.45191e-05
-0.000214787
0.00100835
4.83197e-05
-0.000224899
0.000528407
6.08732e-05
-0.000202893
0.00022048
7.1906e-05
-0.000175055
3.25274e-05
8.0506e-05
-0.000143249