/*--------------------------------*- C++ -*----------------------------------*\
  =========                 |
  \\      /  F ield         | OpenFOAM: The Open Source CFD Toolbox
   \\    /   O peration     | Website:  https://openfoam.org
    \\  /    A nd           | Version:  7
     \\/     M anipulation  |
\*---------------------------------------------------------------------------*/
FoamFile
{
    version     2.0;
    format      ascii;
    class       volVectorField;
    location    "1.5";
    object      U;
}
// * * * * * * * * * * * * * * * * * * * * * * * * * * * * * * * * * * * * * //

dimensions      [0 1 -1 0 0 0 0];

internalField   nonuniform List<vector> 
18780
(
(-1.50609 0.079402 0.193133)
(-1.48338 -0.137688 0.387091)
(-1.50652 0.0741432 0.205659)
(-1.4215 0.257752 0.193329)
(-0.595486 0.403369 0.292175)
(-1.45933 -0.180294 0.38872)
(-1.53573 0.222084 0.540908)
(-1.50789 0.0820029 0.216604)
(-1.42695 0.222721 0.174386)
(-1.20906 0.317719 0.186139)
(1.09946 0.512621 0.165262)
(-0.650798 -0.0271582 0.382318)
(-0.999981 0.2286 0.470087)
(-1.45061 -0.209332 0.380589)
(-1.57169 0.140865 0.435497)
(-1.43843 0.320739 0.556205)
(-1.50943 0.0670479 0.215361)
(-1.41217 0.245426 0.206405)
(-1.19759 0.313331 0.195029)
(-0.988661 0.44577 0.168409)
(1.87102 0.546844 0.521288)
(1.0601 0.206875 0.0270013)
(0.294776 0.625767 0.11332)
(-0.668171 -0.249615 0.395167)
(-0.963296 0.244967 0.407276)
(-1.26451 0.308487 0.736218)
(-1.44418 -0.222583 0.383691)
(-1.5567 0.13198 0.453007)
(-1.44093 0.300239 0.528647)
(-1.21493 0.461749 0.524941)
(-1.50658 0.0422503 0.198994)
(-1.4147 0.216256 0.197925)
(-1.19315 0.321166 0.202379)
(-0.998764 0.442289 0.169034)
(-0.842828 0.584292 0.156149)
(2.64477 0.463266 0.876455)
(1.92359 0.185255 0.287804)
(1.73103 0.60483 0.299894)
(0.900185 0.0857891 0.179129)
(0.277807 0.426334 0.00146122)
(-0.40164 0.4928 0.213409)
(-0.753232 -0.339469 0.387127)
(-1.00146 0.0696968 0.420424)
(-1.255 0.23356 0.688384)
(-1.25969 0.361751 0.806282)
(-1.45278 -0.291333 0.355461)
(-1.5484 0.0842945 0.413715)
(-1.44183 0.250372 0.515044)
(-1.20253 0.453253 0.504674)
(-1.00272 0.682851 0.358465)
(-1.49223 0.0534857 0.219217)
(-1.42861 0.138165 0.123293)
(-1.20198 0.294014 0.188225)
(-0.991965 0.448255 0.152319)
(-0.841984 0.583434 0.155756)
(-0.732484 0.645524 0.158026)
(3.26479 0.134846 1.95375)
(2.61841 0.268379 0.626786)
(2.23234 1.00053 1.02445)
(1.83332 -0.0566833 0.30202)
(1.69935 0.36948 0.227324)
(1.4394 0.72024 0.173217)
(0.851595 -0.245777 0.0430332)
(0.24238 0.178009 -0.0257543)
(-0.310384 0.38911 0.232678)
(-0.833454 -0.0169082 0.560996)
(-0.79576 -0.439423 0.362849)
(-1.04266 -0.102514 0.414392)
(-1.24752 0.121622 0.659421)
(-1.21977 0.353232 0.736958)
(-1.12392 0.631287 0.575298)
(-1.4364 -0.259946 0.382389)
(-1.52694 0.0778128 0.429387)
(-1.42788 0.201656 0.497765)
(-1.20728 0.414782 0.481867)
(-1.01182 0.650904 0.346031)
(-0.815921 0.775367 0.241963)
(-1.48103 0.0530902 0.208683)
(-1.39564 0.229302 0.184769)
(-1.19721 0.267679 0.171134)
(-0.99744 0.40903 0.206002)
(-0.849478 0.575629 0.142483)
(-0.7043 0.639678 0.153339)
(-0.580006 0.619396 0.158957)
(3.43197 -0.169981 3.32147)
(3.0179 0.259855 2.0948)
(3.11643 0.519685 1.41552)
(2.46823 0.17486 0.638903)
(2.63387 0.120872 0.288692)
(2.13142 0.614517 0.808597)
(1.72085 -0.21763 0.201594)
(1.6678 0.105439 0.108913)
(1.38491 0.455681 0.0791203)
(0.9228 0.733714 0.128679)
(0.693887 -0.332638 0.106157)
(0.184717 -0.0975036 -0.00416956)
(-0.431484 -0.222052 0.234643)
(-0.699038 0.0934297 0.541648)
(-0.839027 0.388606 0.571451)
(-0.841772 -0.497018 0.323739)
(-1.03677 -0.169973 0.415158)
(-1.20774 0.0139686 0.63931)
(-1.21347 0.302145 0.655081)
(-1.12269 0.573869 0.526755)
(-0.939757 0.819715 0.378622)
(-1.39426 -0.214977 0.395191)
(-1.52846 -0.0190755 0.398747)
(-1.41909 0.147286 0.468954)
(-1.20747 0.39575 0.462385)
(-1.02224 0.617208 0.326318)
(-0.822607 0.754641 0.233506)
(-0.620492 0.759031 0.229073)
(-1.48303 0.0430927 0.199896)
(-1.38393 0.226686 0.176466)
(-1.1707 0.340834 0.19586)
(-0.986235 0.455433 0.119006)
(-0.83485 0.590459 0.162987)
(-0.702368 0.650258 0.14836)
(-0.581213 0.635448 0.19014)
(-0.422412 0.583231 0.164556)
(3.45439 -0.0437338 2.957)
(3.40883 -0.443498 3.39751)
(3.2707 -0.195456 3.04436)
(3.03324 0.0838273 1.81899)
(3.00969 0.234305 1.26742)
(2.75829 0.900184 1.17494)
(2.41757 -0.174658 0.419595)
(2.44041 0.00396469 0.527881)
(2.12025 0.436512 0.716055)
(1.95369 0.822172 0.781204)
(1.61296 -0.418921 0.0975032)
(1.55639 -0.186842 -0.0260737)
(1.28172 0.182128 0.017537)
(0.797357 0.489909 0.0902942)
(0.223944 0.77104 0.285813)
(0.573206 -0.537289 0.101867)
(0.0670344 -0.451556 0.0395221)
(-0.425253 -0.352186 0.225113)
(-0.817697 -0.192938 0.266659)
(-0.833393 0.301227 0.523165)
(-0.920493 0.753182 0.49176)
(-0.872795 -0.545142 0.325418)
(-1.03081 -0.249292 0.400585)
(-1.16495 -0.0533347 0.617841)
(-1.17891 0.244242 0.614512)
(-1.11879 0.511241 0.474015)
(-0.949351 0.774552 0.341317)
(-0.72212 0.871544 0.322313)
(-1.39935 -0.234475 0.357978)
(-1.52124 -0.0536699 0.37723)
(-1.39925 0.120253 0.478737)
(-1.20941 0.357801 0.440986)
(-1.02774 0.587823 0.304668)
(-0.839444 0.724139 0.213454)
(-0.641003 0.744193 0.207752)
(-0.424223 0.694382 0.208697)
(-1.48148 0.0364643 0.194822)
(-1.38723 0.183446 0.160826)
(-1.18236 0.292214 0.172824)
(-0.986549 0.421078 0.170606)
(-0.867124 0.545727 0.105006)
(-0.734036 0.622876 0.159426)
(-0.603771 0.631803 0.154654)
(-0.428153 0.589202 0.179364)
(-0.281266 0.541388 0.178415)
(2.92285 0.233259 3.10939)
(3.24415 -0.22109 2.96178)
(3.46209 -0.147618 3.00465)
(3.27964 -0.175147 3.12057)
(3.37652 -0.673282 3.43655)
(3.1939 -0.31942 2.9954)
(2.86154 0.377287 2.77246)
(2.98783 -0.439158 1.54783)
(3.09245 -0.113243 1.07101)
(2.80592 0.672372 0.989155)
(2.40869 0.923548 1.3337)
(2.298 -0.323617 0.351323)
(2.37555 -0.169717 0.327858)
(2.16339 0.0399475 0.536041)
(1.96273 0.485037 0.639851)
(1.74815 1.10234 0.702868)
(1.477 -0.624735 0.063713)
(1.41078 -0.337042 0.0396416)
(1.16623 -0.0466954 0.00256221)
(0.721161 0.264399 0.0285941)
(0.161925 0.596135 0.193481)
(-0.339443 0.967888 0.582844)
(0.394683 -0.72155 0.119063)
(-0.0177135 -0.611663 0.0618823)
(-0.478307 -0.466806 0.161853)
(-0.791769 -0.230364 0.28786)
(-0.885959 0.174615 0.415386)
(-0.930086 0.677238 0.421032)
(-0.816531 0.968319 0.384593)
(-0.911768 -0.590593 0.313416)
(-1.01911 -0.345876 0.430453)
(-1.14037 -0.139816 0.570941)
(-1.15734 0.162548 0.574558)
(-1.10856 0.445277 0.429275)
(-0.957242 0.723147 0.29797)
(-0.737192 0.842218 0.296204)
(-0.47577 0.794158 0.320897)
(-1.4003 -0.249428 0.364493)
(-1.49552 -0.0438738 0.379664)
(-1.40241 0.0674014 0.409871)
(-1.19906 0.338134 0.428082)
(-1.03475 0.551327 0.2866)
(-0.845411 0.701078 0.1986)
(-0.646627 0.732007 0.203416)
(-0.434063 0.688147 0.204111)
(-0.254569 0.624004 0.20456)
(-1.46969 0.0310187 0.187515)
(-1.37637 0.18164 0.184366)
(-1.1865 0.252726 0.164236)
(-0.976382 0.442314 0.148072)
(-0.819844 0.593827 0.172165)
(-0.709636 0.654764 0.113351)
(-0.575352 0.622691 0.150178)
(-0.441681 0.587644 0.157965)
(-0.284367 0.542521 0.176159)
(-0.178631 0.490932 0.192928)
(2.70211 0.182197 2.90951)
(3.01467 -0.0381003 2.99341)
(3.04303 -0.0533763 3.10357)
(3.28687 -0.160721 2.94236)
(3.19984 -0.34057 3.03447)
(3.45195 -0.415252 3.06238)
(3.41415 -0.457447 3.11168)
(2.94845 0.0386675 3.37785)
(3.29811 -0.670457 3.44104)
(3.17442 -0.709203 2.84714)
(3.17698 -0.537652 2.25525)
(2.70901 0.533334 2.05809)
(2.72392 -0.131462 1.70579)
(2.88787 0.786468 1.26267)
(2.91008 0.00843112 0.676323)
(2.55737 0.632029 1.05771)
(2.41594 0.974782 1.21903)
(2.14263 -0.516657 0.193072)
(2.22761 -0.255305 0.38308)
(2.07234 -0.169829 0.490128)
(1.89557 0.123123 0.600092)
(1.74175 0.839064 0.548098)
(0.837215 1.35284 1.01609)
(1.30992 -0.771538 0.0291294)
(1.26059 -0.58364 -0.0593191)
(1.02093 -0.274788 -0.0471162)
(0.623854 0.0482377 -0.00579991)
(0.0920626 0.39796 0.115784)
(-0.381894 0.82108 0.454696)
(-0.679483 1.0742 0.612686)
(0.258861 -0.798897 0.0967846)
(-0.0982936 -0.708776 0.0656503)
(-0.508277 -0.527823 0.12044)
(-0.814852 -0.284022 0.300832)
(-0.847613 0.133413 0.423824)
(-0.960549 0.594318 0.320573)
(-0.849911 0.916917 0.307574)
(-0.584977 0.953067 0.354785)
(-0.933989 -0.639804 0.342203)
(-1.05638 -0.450376 0.423953)
(-1.0886 -0.062004 0.559458)
(-1.14415 0.0957564 0.52966)
(-1.10519 0.374096 0.382727)
(-0.962278 0.670373 0.252466)
(-0.756218 0.809475 0.24787)
(-0.491416 0.780171 0.296589)
(-0.242856 0.680421 0.314691)
(-1.38759 -0.270227 0.348607)
(-1.48381 -0.103293 0.324973)
(-1.36826 0.0794342 0.451916)
(-1.19666 0.310157 0.399934)
(-1.03569 0.52714 0.264764)
(-0.856016 0.672904 0.183363)
(-0.662123 0.715902 0.177302)
(-0.449535 0.678177 0.185941)
(-0.26102 0.615272 0.20506)
(-0.142644 0.557882 0.217764)
(-1.46639 0.0331574 0.188768)
(-1.35303 0.191776 0.170825)
(-1.15261 0.312236 0.181883)
(-0.997706 0.368979 0.170078)
(-0.856233 0.556367 0.112184)
(-0.727372 0.631388 0.136962)
(-0.575045 0.622524 0.149421)
(-0.422503 0.581224 0.155807)
(-0.287119 0.542925 0.173221)
(-0.180946 0.491335 0.19341)
(-0.102643 0.43975 0.214601)
(2.66034 0.319103 2.75964)
(2.75882 0.0231998 2.9143)
(2.70789 0.0669375 2.91525)
(2.94713 -0.168385 3.10494)
(2.95839 0.0254501 3.17842)
(3.04722 0.114896 2.97073)
(3.26742 -0.572608 2.95737)
(3.1797 -0.46433 3.01995)
(3.10031 -0.120868 3.28442)
(3.45248 -0.728234 3.09445)
(3.47285 -0.617481 3.05642)
(2.96123 -0.354654 3.35998)
(2.70022 0.0773636 3.11737)
(3.20919 -0.87181 3.43604)
(3.15779 -0.906799 2.8773)
(2.92043 0.148626 2.37072)
(2.81402 0.106874 1.78542)
(2.77017 0.843924 1.58755)
(2.62421 -0.51435 1.31857)
(2.87959 -0.588156 0.554192)
(2.70607 0.42088 0.840285)
(2.56116 0.306593 0.901794)
(2.5202 0.722097 1.09743)
(2.06486 1.01207 1.31488)
(1.94973 -0.68773 0.131567)
(2.021 -0.853082 0.0729425)
(1.98231 -0.348674 0.388391)
(1.7845 -0.211324 0.499968)
(1.69141 0.50194 0.43143)
(0.852099 1.18995 0.868293)
(-0.281304 1.3232 1.03716)
(1.13645 -0.871472 0.0621539)
(1.08566 -0.717548 -0.0164373)
(0.857593 -0.427123 -0.0471231)
(0.5148 -0.164402 -0.0176606)
(0.0240065 0.190889 0.0486309)
(-0.458369 0.646515 0.316963)
(-0.719148 0.984354 0.495308)
(-0.596543 1.05229 0.514017)
(0.117402 -0.884505 0.105724)
(-0.179699 -0.774436 0.0569727)
(-0.523716 -0.566986 0.136368)
(-0.825377 -0.380783 0.2966)
(-0.925797 -0.018854 0.280207)
(-0.974241 0.514781 0.254018)
(-0.859707 0.864624 0.255604)
(-0.609274 0.924718 0.311114)
(-0.33236 0.82637 0.357795)
(-0.978572 -0.712556 0.339284)
(-1.04957 -0.48092 0.478493)
(-1.06654 -0.149948 0.516196)
(-1.11553 0.0621612 0.4978)
(-1.09569 0.312023 0.337786)
(-0.959143 0.621139 0.213328)
(-0.763983 0.775319 0.217891)
(-0.518683 0.760143 0.253081)
(-0.257777 0.676972 0.285956)
(-0.0774588 0.571928 0.312611)
(-1.39136 -0.296513 0.305161)
(-1.45864 -0.102742 0.348902)
(-1.3783 0.0505151 0.370894)
(-1.18903 0.293668 0.375979)
(-1.03492 0.503333 0.239568)
(-0.860036 0.652625 0.158224)
(-0.671783 0.696963 0.16716)
(-0.456321 0.669576 0.174358)
(-0.269251 0.61333 0.183448)
(-0.145281 0.553066 0.211902)
(-0.0769909 0.495777 0.24725)
(-1.46213 0.0267407 0.174512)
(-1.35135 0.168843 0.137737)
(-1.13645 0.297844 0.145533)
(-0.938517 0.483071 0.137526)
(-0.802754 0.612613 0.189057)
(-0.716995 0.612145 0.142976)
(-0.594366 0.621106 0.145182)
(-0.425509 0.581073 0.156597)
(-0.286754 0.542019 0.170699)
(-0.182515 0.494234 0.188263)
(-0.105851 0.442129 0.213776)
(-0.0421192 0.383658 0.231982)
(2.31215 0.482804 2.71904)
(2.52753 0.187086 2.79943)
(2.72659 0.00591655 2.77296)
(2.59096 0.0131028 2.89086)
(2.7473 -0.0727226 2.89474)
(2.75318 -0.208596 2.97919)
(2.80426 -0.0391143 2.80646)
(3.02289 -0.371548 3.08143)
(2.98758 -0.275601 3.06385)
(2.91715 0.0221202 3.21776)
(3.13671 0.0776716 2.8931)
(3.23181 -0.826462 2.96711)
(3.15289 -0.673211 3.03786)
(3.13991 -0.541958 3.14932)
(3.04464 -0.317524 3.2464)
(3.5266 -0.995612 3.12762)
(3.44634 -0.793962 3.09344)
(3.02429 -0.684267 3.36825)
(2.75537 -0.0122371 3.03246)
(2.33922 0.215386 3.02906)
(3.21848 -1.18127 3.15819)
(3.17526 -0.792822 2.83099)
(3.00619 -0.614513 1.90767)
(2.77388 0.255623 1.58963)
(2.74169 0.691712 1.65621)
(2.82065 0.8194 1.43298)
(2.48684 -0.478106 1.11482)
(2.60325 0.0219507 0.998273)
(2.70453 -0.486112 0.332112)
(2.49446 0.124208 0.768975)
(2.58095 0.351864 0.991026)
(2.19342 0.814765 1.13213)
(0.99817 1.15018 1.5126)
(1.78691 -0.722335 0.13918)
(1.88132 -0.67473 0.216437)
(1.86135 -0.640176 0.279112)
(1.63462 -0.460039 0.403613)
(1.58063 0.166089 0.326684)
(0.841056 0.983279 0.719744)
(-0.3112 1.22708 0.886254)
(-0.508404 1.17022 0.824154)
(0.918814 -0.979491 0.0622344)
(0.970965 -0.780267 0.00522924)
(0.768653 -0.534622 -0.0421175)
(0.445982 -0.296812 -0.0159279)
(-0.0648634 -0.0296077 -0.0202685)
(-0.497056 0.479337 0.221293)
(-0.749466 0.873623 0.376037)
(-0.634046 1.00877 0.439818)
(-0.350406 0.938064 0.483148)
(-0.0408145 -0.95449 0.142914)
(-0.263467 -0.80251 0.075184)
(-0.623327 -0.667161 0.196367)
(-0.829842 -0.413598 0.304221)
(-0.918617 -0.0805451 0.272174)
(-1.00392 0.432564 0.153462)
(-0.878496 0.804216 0.184272)
(-0.63498 0.889543 0.255978)
(-0.357323 0.813168 0.326182)
(-0.13373 0.693815 0.363157)
(-1.02283 -0.740729 0.371874)
(-1.05032 -0.496862 0.465731)
(-1.08036 -0.232118 0.456665)
(-1.09988 0.023636 0.450036)
(-1.0815 0.263417 0.300388)
(-0.958829 0.566313 0.17254)
(-0.777128 0.73417 0.183689)
(-0.524616 0.735554 0.240815)
(-0.276702 0.665018 0.264756)
(-0.0876681 0.570108 0.29449)
(0.00389238 0.48715 0.318955)
(-1.38779 -0.300341 0.288653)
(-1.43581 -0.109725 0.340027)
(-1.34158 0.0511699 0.398374)
(-1.18197 0.270726 0.35057)
(-1.03476 0.473471 0.215071)
(-0.866115 0.624408 0.150486)
(-0.679389 0.679736 0.152038)
(-0.468949 0.65821 0.155266)
(-0.278274 0.603724 0.184735)
(-0.149122 0.550871 0.20117)
(-0.0761725 0.494255 0.238743)
(-0.0154118 0.430832 0.274576)
(-1.46031 0.0121141 0.174425)
(-1.35473 0.160213 0.149296)
(-1.13574 0.279564 0.144558)
(-0.955672 0.423768 0.129629)
(-0.899839 0.484824 0.0325584)
(-0.71978 0.601995 0.142865)
(-0.585568 0.613303 0.141489)
(-0.439249 0.583832 0.153115)
(-0.290036 0.539218 0.17142)
(-0.180576 0.494659 0.184606)
(-0.105532 0.446092 0.210491)
(-0.0438834 0.386731 0.231071)
(0.0122927 0.317446 0.25005)
(2.30837 0.304188 2.61019)
(2.36031 0.291358 2.70145)
(2.36739 0.260426 2.78364)
(2.52194 0.0343897 2.80217)
(2.49541 0.0196681 2.84151)
(2.76126 -0.0875789 2.80263)
(2.67115 -0.133958 2.82731)
(2.65521 -0.090572 2.89972)
(2.81099 -0.3979 2.92541)
(2.77203 -0.248304 2.94705)
(2.83759 -0.348008 2.90003)
(2.76741 0.167495 2.84723)
(3.01752 -0.493262 3.03501)
(2.97721 -0.434279 3.123)
(2.98222 -0.31452 3.06291)
(2.90038 -0.132602 3.13848)
(2.98952 0.1812 3.08942)
(3.22415 -0.971917 2.98603)
(3.12868 -0.814251 3.03808)
(3.18269 -0.707243 3.06526)
(3.09131 -0.392823 3.23375)
(2.70102 -0.144787 3.3531)
(3.49928 -1.2945 3.17421)
(3.48901 -1.15269 3.22064)
(3.08438 -0.999415 3.22351)
(2.77805 -0.539385 2.95067)
(2.42118 0.209689 2.89165)
(2.83016 0.39221 2.19908)
(3.08939 -1.51565 2.91973)
(2.79796 -0.987683 3.09241)
(2.88347 -0.355945 1.8012)
(2.90865 -0.241854 1.07043)
(2.8591 0.224803 1.49374)
(2.78226 0.828429 1.52867)
(2.32902 0.703985 1.58957)
(2.3328 -0.660308 0.737266)
(2.4933 -0.4321 0.539273)
(2.48464 -0.220108 0.499313)
(2.4518 -0.354156 0.571111)
(2.51665 0.0885666 0.905994)
(2.23706 0.585606 0.996074)
(1.16066 0.985181 1.38937)
(0.0238523 1.20423 1.38531)
(1.52501 -1.04757 -0.0606483)
(1.65436 -0.993659 0.0392247)
(1.70177 -0.823244 0.19435)
(1.4997 -0.707707 0.292904)
(1.44644 -0.19062 0.125081)
(0.833909 0.713933 0.530196)
(-0.357129 1.11604 0.710106)
(-0.560285 1.11674 0.707385)
(-0.341909 1.09039 0.639105)
(0.807556 -1.07052 0.0731772)
(0.884528 -0.90662 -0.00774534)
(0.581792 -0.822269 -0.0175608)
(0.27275 -0.550035 -0.0136072)
(-0.157087 -0.238014 -0.0682034)
(-0.67083 0.176277 0.0467069)
(-0.826095 0.74671 0.231189)
(-0.668875 0.95188 0.359641)
(-0.386947 0.924917 0.436964)
(-0.129512 0.78209 0.48783)
(-0.169127 -0.981364 0.170247)
(-0.313974 -0.837236 0.097968)
(-0.575721 -0.72061 0.223869)
(-0.840299 -0.458147 0.286995)
(-0.931441 -0.123727 0.214796)
(-0.983412 0.388241 0.0957079)
(-0.878863 0.757042 0.115289)
(-0.646409 0.85132 0.206757)
(-0.385635 0.798698 0.278512)
(-0.152972 0.690342 0.337491)
(-0.0215798 0.574266 0.376024)
(-1.02417 -0.788612 0.428627)
(-1.05718 -0.516197 0.439313)
(-1.07093 -0.261259 0.44216)
(-1.09203 -0.0294243 0.394408)
(-1.07597 0.214305 0.253685)
(-0.949521 0.530572 0.136868)
(-0.785686 0.692886 0.150193)
(-0.54825 0.709499 0.195343)
(-0.286985 0.655538 0.237582)
(-0.100138 0.569248 0.274808)
(-0.00118251 0.479988 0.308836)
(0.0420646 0.408538 0.339212)
(-1.36286 -0.293952 0.276618)
(-1.44292 -0.145868 0.281781)
(-1.32901 0.0329216 0.354645)
(-1.16882 0.258647 0.317877)
(-1.01977 0.472951 0.206936)
(-0.867571 0.60878 0.12393)
(-0.684055 0.668509 0.125455)
(-0.4736 0.648046 0.146926)
(-0.282213 0.594137 0.203122)
(-0.151977 0.547132 0.198041)
(-0.0768539 0.491392 0.231064)
(-0.0137194 0.430269 0.270579)
(0.0428211 0.360151 0.300107)
(-1.46601 0.0121006 0.162333)
(-1.33248 0.15387 0.161679)
(-1.11395 0.285073 0.171891)
(-0.965601 0.396778 0.131678)
(-0.765816 0.628364 0.217708)
(-0.704622 0.627693 0.128537)
(-0.591592 0.603442 0.145545)
(-0.429944 0.577489 0.147975)
(-0.289449 0.54441 0.162009)
(-0.18387 0.495698 0.183314)
(-0.108707 0.448431 0.208759)
(-0.0454885 0.390775 0.22936)
(0.0123987 0.321426 0.248592)
(0.048682 0.257419 0.265548)
(2.04082 0.444842 2.75861)
(2.30441 0.189079 2.59948)
(2.34183 0.275342 2.68621)
(2.38636 0.194832 2.66294)
(2.38348 0.196577 2.77219)
(2.3748 0.209145 2.78053)
(2.47497 -0.131274 2.83022)
(2.46625 -0.214726 2.872)
(2.50943 0.00669439 2.83127)
(2.75466 -0.382057 2.7793)
(2.69067 -0.241233 2.84966)
(2.58672 -0.191834 2.92174)
(2.46516 -0.0378953 3.01776)
(2.82392 -0.744125 2.9401)
(2.70627 -0.815982 2.96368)
(2.90949 -0.354376 2.93234)
(2.72326 0.0120369 2.9654)
(2.70808 0.214004 2.85723)
(3.02096 -0.866867 2.99215)
(2.97742 -0.678512 3.05732)
(2.88316 -0.526029 3.13329)
(2.95722 -0.144334 3.01051)
(2.95482 0.0548611 3.25337)
(2.79216 0.00928599 3.22292)
(3.21163 -1.06699 2.96849)
(3.14471 -1.08114 3.04514)
(3.15958 -0.894675 3.08154)
(3.07019 -0.324443 3.26505)
(2.66355 -0.622097 3.30004)
(2.5929 0.122586 3.32693)
(3.47222 -1.41181 3.21913)
(3.47858 -1.20575 3.33846)
(3.05417 -1.30359 3.1765)
(2.53657 -0.545581 3.05283)
(2.72442 0.0626493 2.50799)
(2.87345 0.39056 2.21396)
(2.77091 0.474277 2.28477)
(2.9396 -1.66808 2.71072)
(2.84718 -1.15457 2.60075)
(2.78332 -0.654224 1.679)
(2.72911 -0.407179 0.987805)
(2.84966 0.191169 1.35446)
(2.84662 0.665076 1.44856)
(2.36395 0.758822 1.58022)
(1.27916 0.905359 1.74093)
(2.13565 -0.823171 0.51454)
(2.25984 -0.386482 0.489323)
(2.31254 -0.60752 0.185375)
(2.29065 -0.594888 0.496533)
(2.44362 -0.407707 0.631835)
(2.27818 0.240592 0.847795)
(1.2316 0.776479 1.27743)
(0.0119908 1.14848 1.27854)
(-0.156422 1.12229 1.13625)
(1.37254 -1.07109 0.0396973)
(1.45825 -1.03933 -0.033986)
(1.50845 -1.00732 0.143766)
(1.3265 -0.914566 0.143443)
(1.28156 -0.518175 -0.0309645)
(0.624893 0.419489 0.300738)
(-0.443837 0.954075 0.497586)
(-0.605728 1.03805 0.569229)
(-0.391879 1.07365 0.582746)
(-0.0893275 0.95022 0.571883)
(0.60248 -1.27185 0.126494)
(0.420621 -1.18342 0.00446291)
(0.292698 -1.04334 0.0411692)
(0.182305 -0.707539 -0.0254109)
(-0.259897 -0.434394 -0.085987)
(-0.627531 0.0547839 -0.0153269)
(-0.798639 0.666245 0.164492)
(-0.694096 0.885825 0.280275)
(-0.421047 0.897029 0.392162)
(-0.161506 0.778623 0.464197)
(0.00777437 0.653 0.471686)
(-0.224078 -0.988073 0.237477)
(-0.35054 -0.839529 0.123704)
(-0.570235 -0.715153 0.222576)
(-0.830595 -0.474069 0.30471)
(-0.942685 -0.180459 0.147027)
(-0.977363 0.323927 0.0125139)
(-0.883202 0.700492 0.0558602)
(-0.659421 0.807406 0.160313)
(-0.392884 0.769998 0.255342)
(-0.177762 0.68374 0.30837)
(-0.0345474 0.573949 0.35577)
(0.0509855 0.46543 0.390627)
(-1.06453 -0.74973 0.403996)
(-1.07944 -0.528706 0.432292)
(-1.04878 -0.220556 0.444035)
(-1.07588 -0.0677158 0.371109)
(-1.05933 0.183679 0.216462)
(-0.950752 0.485402 0.102085)
(-0.788456 0.657199 0.121071)
(-0.554088 0.687272 0.165843)
(-0.303674 0.648986 0.197986)
(-0.106473 0.568743 0.253335)
(-0.00803123 0.474704 0.295966)
(0.0400525 0.405409 0.331137)
(0.0879553 0.336907 0.353562)
(-1.35955 -0.290749 0.246697)
(-1.44021 -0.159571 0.272452)
(-1.31954 0.0260546 0.32619)
(-1.15578 0.241163 0.30301)
(-1.03613 0.420946 0.152098)
(-0.869383 0.585914 0.115931)
(-0.694055 0.644503 0.120497)
(-0.483324 0.636711 0.133503)
(-0.293815 0.611337 0.11794)
(-0.158543 0.545039 0.193761)
(-0.075562 0.492664 0.217234)
(-0.0134289 0.430475 0.262993)
(0.0440651 0.362422 0.297662)
(0.0860036 0.29263 0.316938)
(-1.46477 0.0152674 0.154439)
(-1.31881 0.159789 0.129856)
(-1.10578 0.280402 0.140313)
(-0.963701 0.393109 0.133871)
(-0.871793 0.503733 0.0371029)
(-0.749052 0.571152 0.126389)
(-0.577761 0.627454 0.131487)
(-0.429695 0.577365 0.147155)
(-0.285402 0.544008 0.157298)
(-0.184145 0.499938 0.177896)
(-0.105441 0.454651 0.202686)
(-0.0446461 0.395646 0.226921)
(0.0114113 0.325474 0.247006)
(0.0482614 0.261457 0.264343)
(0.0813887 0.192965 0.280791)
(2.04485 0.264146 2.52033)
(2.04397 0.364139 2.74712)
(2.16579 0.284644 2.69402)
(2.33402 0.0414244 2.61552)
(2.3562 0.0828037 2.64577)
(2.29023 0.124635 2.80349)
(2.37333 0.0507793 2.63132)
(2.37117 -0.0835633 2.78066)
(2.38331 0.0681107 2.78577)
(2.3044 0.134268 2.81768)
(2.45068 -0.322815 2.84836)
(2.47776 -0.24375 2.85918)
(2.47603 -0.00637036 2.8835)
(2.42628 -0.0250805 2.87488)
(2.69563 -0.550177 2.8247)
(2.68548 -0.446199 2.84663)
(2.58266 -0.462259 2.92738)
(2.53446 -0.22494 2.98657)
(2.54418 -0.213304 2.84716)
(2.82652 -0.880307 2.88891)
(2.79796 -0.771801 2.97214)
(2.93909 -0.700085 2.85942)
(2.87231 -0.164588 3.01625)
(2.79854 -0.0549214 2.90154)
(2.69323 0.260681 2.83287)
(3.00474 -0.95686 2.97954)
(2.94557 -1.06383 2.95529)
(2.83697 -0.784532 3.13603)
(2.91925 -0.487228 3.07134)
(3.04719 -0.0579598 3.16392)
(2.69674 -0.107561 3.43017)
(2.78403 0.0562766 2.99972)
(3.12615 -1.3241 2.97058)
(3.11892 -1.22872 3.0244)
(3.19253 -1.08636 3.03342)
(3.04318 -0.596831 3.23411)
(2.67639 -0.951759 3.08666)
(2.76833 -0.257881 3.0958)
(2.80185 0.273332 3.07846)
(3.42241 -1.45812 3.22382)
(3.32803 -1.49224 3.36617)
(2.94742 -1.85569 2.86813)
(2.49251 -0.647298 3.01319)
(2.84984 -0.236262 2.22536)
(3.01634 0.157166 2.02619)
(2.90045 0.476846 2.17877)
(2.23285 0.856593 2.2937)
(2.74479 -1.86425 2.51752)
(2.64064 -1.26949 2.52267)
(2.68595 -0.85606 1.51192)
(2.67231 -0.637442 0.887631)
(2.94802 -0.272099 0.93424)
(3.0391 -0.0179731 1.23865)
(2.46085 0.506641 1.45248)
(1.38561 0.87168 1.72839)
(0.408251 1.14457 1.58946)
(1.98517 -0.897131 0.46349)
(2.06193 -0.604844 0.240492)
(2.11019 -0.65891 0.139409)
(2.09524 -0.890222 0.258314)
(2.24618 -0.688264 0.530243)
(2.25101 -0.1232 0.673414)
(1.28623 0.462188 1.12654)
(-0.026691 1.0528 1.18625)
(-0.23489 1.11053 1.06184)
(-0.0687509 0.96782 0.900116)
(1.09925 -1.19146 -0.0698526)
(1.23769 -1.08242 -0.0292931)
(1.33203 -1.0616 0.13833)
(1.11759 -1.04617 0.0852805)
(1.08691 -0.767829 -0.151522)
(0.500814 0.0626635 0.056642)
(-0.427826 0.70455 0.27215)
(-0.643012 0.927932 0.435205)
(-0.440355 1.03937 0.515555)
(-0.132506 0.959025 0.527149)
(0.0852411 0.75288 0.569259)
(0.128003 -1.34678 0.354199)
(0.604697 -0.989895 -0.01076)
(0.234746 -1.04514 0.0892916)
(0.0293188 -0.864077 -0.00115399)
(-0.34725 -0.612429 -0.0982723)
(-0.710204 -0.0412677 -0.0888847)
(-0.810367 0.565145 0.0753874)
(-0.7004 0.823908 0.206236)
(-0.445126 0.858872 0.347932)
(-0.202017 0.764317 0.43712)
(-0.0179776 0.652 0.458845)
(0.0846846 0.525329 0.470351)
(-0.34597 -1.0064 0.273194)
(-0.444224 -0.844994 0.149743)
(-0.556581 -0.740166 0.21509)
(-0.824241 -0.495303 0.282735)
(-0.926154 -0.197691 0.11138)
(-0.954238 0.28347 -0.0331454)
(-0.880136 0.642579 0.00262286)
(-0.67087 0.759808 0.111343)
(-0.422129 0.739735 0.212652)
(-0.183393 0.669931 0.280599)
(-0.0509724 0.575954 0.330447)
(0.0432208 0.468408 0.374152)
(0.0974487 0.349762 0.415279)
(-1.06535 -0.765237 0.395499)
(-1.10877 -0.549123 0.394909)
(-1.0572 -0.283516 0.369026)
(-1.07559 -0.094242 0.297796)
(-1.04623 0.148845 0.17692)
(-0.942703 0.458275 0.0700777)
(-0.796527 0.620084 0.0873004)
(-0.565018 0.660177 0.13752)
(-0.305387 0.63813 0.186283)
(-0.115639 0.570901 0.231098)
(-0.0143361 0.467855 0.28486)
(0.037973 0.393633 0.323549)
(0.0894161 0.33863 0.348793)
(0.123 0.255281 0.370471)
(-1.37074 -0.298542 0.224131)
(-1.41412 -0.172684 0.272991)
(-1.29873 0.0225575 0.322791)
(-1.14873 0.233762 0.256641)
(-0.994724 0.450826 0.183521)
(-0.863879 0.576121 0.0881595)
(-0.68816 0.639028 0.0996272)
(-0.483759 0.633182 0.111678)
(-0.289921 0.59471 0.178441)
(-0.159296 0.549603 0.175716)
(-0.0750094 0.49511 0.21187)
(-0.00897861 0.427802 0.26071)
(0.0462343 0.362758 0.293522)
(0.0879457 0.29368 0.316411)
(0.111775 0.22387 0.33879)
(-1.4609 0.00424717 0.142974)
(-1.32498 0.148846 0.127872)
(-1.11007 0.280285 0.126404)
(-0.938003 0.399938 0.132174)
(-0.771706 0.59264 0.203067)
(-0.696054 0.623794 0.142262)
(-0.619768 0.584236 0.152237)
(-0.435076 0.579763 0.139692)
(-0.286556 0.545281 0.153777)
(-0.180567 0.500986 0.174775)
(-0.110617 0.456219 0.203962)
(-0.048011 0.399448 0.226743)
(0.00997471 0.330228 0.244958)
(0.04796 0.265303 0.263189)
(0.0800959 0.188242 0.282653)
(0.113017 0.115821 0.299456)
(1.94578 0.337259 2.35898)
(2.06356 0.151065 2.53264)
(2.07001 0.166774 2.48528)
(2.07404 0.155879 2.72864)
(2.16217 0.248228 2.72167)
(2.18556 0.259448 2.66281)
(2.30542 -0.141668 2.60248)
(2.38919 -0.063103 2.60836)
(2.29969 0.0618176 2.8115)
(2.26278 0.13553 2.8231)
(2.37698 -0.265406 2.63378)
(2.39017 -0.181991 2.73628)
(2.38736 -0.199923 2.79954)
(2.3845 0.0227674 2.78047)
(2.2778 0.130107 2.80916)
(2.41244 -0.427757 2.83554)
(2.45525 -0.565249 2.87606)
(2.44479 -0.452809 2.87939)
(2.48996 -0.339171 2.85281)
(2.49551 -0.310522 2.78139)
(2.67113 -0.547531 2.81493)
(2.65537 -0.863173 2.83471)
(2.6101 -0.548071 2.91312)
(2.69437 -0.53081 2.81528)
(2.76174 -0.339235 2.72763)
(2.46069 -0.129603 2.92143)
(2.75348 -1.13188 2.94751)
(2.75018 -1.0077 2.93469)
(2.91216 -0.740841 2.92663)
(3.01807 -0.553827 2.94121)
(2.96268 -0.470572 2.92681)
(2.69389 -0.150459 2.9562)
(2.57397 0.141177 2.91737)
(2.85999 -1.25452 2.88829)
(2.96455 -1.14831 2.90908)
(2.69297 -1.22652 3.10583)
(2.98603 -0.916159 3.10291)
(2.91473 -0.586852 3.07107)
(2.90941 -0.223987 3.40435)
(2.79278 -0.183668 3.09061)
(2.72515 0.0123015 3.04448)
(3.10087 -1.45814 2.93912)
(3.08174 -1.45114 2.93849)
(3.06815 -1.39108 2.96517)
(3.10986 -1.28318 3.06274)
(2.77109 -0.936222 3.01253)
(2.86565 -0.702991 2.80534)
(2.93215 0.121111 3.02994)
(2.79549 0.0920397 2.87233)
(3.29789 -1.68429 3.16331)
(3.2619 -1.4975 3.41747)
(2.98425 -1.89792 2.67199)
(2.3981 -1.35908 2.8827)
(2.70046 -0.448214 2.30747)
(3.3188 -0.581908 1.65073)
(3.05557 0.277785 2.0067)
(2.3881 0.74516 2.26864)
(1.46236 0.969337 2.07189)
(2.50937 -2.12644 2.28307)
(2.46543 -1.47175 2.37607)
(2.5765 -1.01202 1.54708)
(2.7042 -0.848119 0.768781)
(2.84697 -0.341565 0.987507)
(3.04552 0.0387898 1.20964)
(2.5683 0.257085 1.26235)
(1.4753 0.703695 1.656)
(0.389584 1.10196 1.57724)
(0.151233 1.2034 1.21298)
(1.78729 -1.07163 0.217299)
(1.91559 -0.68221 0.211644)
(1.87397 -0.907594 -0.102866)
(1.94855 -0.922287 0.18374)
(2.04546 -1.00478 0.257481)
(2.09912 -0.481974 0.468058)
(1.23344 0.193389 0.951887)
(-0.0842208 0.933186 1.04372)
(-0.310574 1.07268 0.965571)
(-0.163267 0.974825 0.875284)
(0.0962195 0.817144 0.749743)
(0.781874 -1.2627 -0.107974)
(1.0206 -1.20178 -0.12578)
(1.09019 -1.172 0.0583481)
(0.959598 -1.07239 0.093649)
(0.890926 -0.8973 -0.205043)
(0.377316 -0.164732 -0.132492)
(-0.492078 0.484785 0.0575818)
(-0.683187 0.808273 0.295762)
(-0.476831 0.988475 0.439334)
(-0.178456 0.949558 0.482517)
(0.0542249 0.781462 0.532786)
(0.183059 0.584376 0.557178)
(0.461094 -1.17362 0.189044)
(0.43252 -1.09476 0.037774)
(0.114764 -1.05313 0.106919)
(-0.084556 -0.947562 0.0133944)
(-0.424545 -0.696493 -0.102723)
(-0.714652 -0.108095 -0.151796)
(-0.815632 0.466768 -0.0233141)
(-0.703738 0.75396 0.135186)
(-0.470047 0.821958 0.290354)
(-0.225655 0.734686 0.41461)
(-0.0537859 0.641204 0.446486)
(0.0663968 0.527765 0.459284)
(0.122968 0.403689 0.474977)
(-0.436713 -0.952341 0.297913)
(-0.510449 -0.794243 0.196092)
(-0.560019 -0.727833 0.188584)
(-0.860971 -0.458241 0.280766)
(-0.900531 -0.180194 0.0649953)
(-0.927188 0.25071 -0.0814286)
(-0.866227 0.588116 -0.0320257)
(-0.669254 0.709514 0.0769428)
(-0.425461 0.710103 0.192065)
(-0.204785 0.657936 0.257001)
(-0.0638343 0.567338 0.310443)
(0.0335576 0.469072 0.354574)
(0.0941248 0.357795 0.403841)
(0.142721 0.272923 0.421847)
(-1.11587 -0.753071 0.370947)
(-1.16547 -0.558579 0.345938)
(-1.08189 -0.296057 0.336232)
(-1.0427 -0.0950762 0.321211)
(-1.03536 0.131867 0.154816)
(-0.936575 0.430057 0.0455835)
(-0.795758 0.590461 0.0603925)
(-0.568309 0.642104 0.104526)
(-0.311872 0.635136 0.149037)
(-0.116202 0.574701 0.214763)
(-0.0178253 0.466713 0.27225)
(0.0327973 0.383033 0.311422)
(0.0904391 0.332689 0.34336)
(0.125337 0.265601 0.366861)
(0.135309 0.203941 0.381538)
(-1.35162 -0.293799 0.243954)
(-1.39749 -0.176095 0.244277)
(-1.28536 0.0133674 0.27824)
(-1.13116 0.219706 0.255431)
(-1.01116 0.405019 0.122781)
(-0.861639 0.559671 0.07808)
(-0.708622 0.601467 0.0998975)
(-0.483736 0.629579 0.0954169)
(-0.299892 0.606572 0.120929)
(-0.160913 0.550715 0.171707)
(-0.0707262 0.495338 0.213581)
(-0.00668722 0.423171 0.260192)
(0.0491947 0.363876 0.285971)
(0.0893204 0.293409 0.3158)
(0.113419 0.225433 0.338435)
(0.117019 0.152649 0.359906)
(-1.47638 -0.000453322 0.142)
(-1.30474 0.139969 0.141717)
(-1.1046 0.259005 0.136824)
(-0.915866 0.414072 0.101183)
(-0.835927 0.523769 0.0980203)
(-0.713523 0.606205 0.099383)
(-0.585682 0.618191 0.125307)
(-0.433681 0.578891 0.138671)
(-0.291576 0.548282 0.153318)