/*--------------------------------*- C++ -*----------------------------------*\
  =========                 |
  \\      /  F ield         | OpenFOAM: The Open Source CFD Toolbox
   \\    /   O peration     | Website:  https://openfoam.org
    \\  /    A nd           | Version:  7
     \\/     M anipulation  |
\*---------------------------------------------------------------------------*/
FoamFile
{
    version     2.0;
    format      ascii;
    class       volVectorField;
    location    "1.5";
    object      U_0;
}
// * * * * * * * * * * * * * * * * * * * * * * * * * * * * * * * * * * * * * //

dimensions      [0 1 -1 0 0 0 0];

internalField   nonuniform List<vector> 
18780
(
(-1.50574 0.0843908 0.198326)
(-1.48333 -0.132495 0.389539)
(-1.50511 0.081898 0.214877)
(-1.41852 0.257035 0.191655)
(-0.599836 0.405462 0.296368)
(-1.45974 -0.171446 0.393127)
(-1.53345 0.227568 0.54406)
(-1.50738 0.086802 0.220689)
(-1.42466 0.226912 0.179532)
(-1.20597 0.318257 0.18755)
(1.09731 0.519242 0.168956)
(-0.654136 -0.0276545 0.387066)
(-1.00182 0.234027 0.474321)
(-1.45179 -0.20145 0.383831)
(-1.57098 0.146429 0.437075)
(-1.43521 0.327703 0.559306)
(-1.50979 0.0678444 0.216279)
(-1.41025 0.249553 0.212476)
(-1.19532 0.317769 0.19835)
(-0.987304 0.448438 0.169927)
(1.87127 0.55167 0.524783)
(1.0592 0.212478 0.0267427)
(0.288676 0.629593 0.117531)
(-0.671527 -0.247142 0.398415)
(-0.964018 0.255502 0.411789)
(-1.26495 0.312625 0.740284)
(-1.44453 -0.215997 0.386832)
(-1.5548 0.138599 0.456808)
(-1.43879 0.305566 0.531025)
(-1.21202 0.466401 0.525352)
(-1.50629 0.0463732 0.202553)
(-1.4154 0.202673 0.186262)
(-1.19163 0.325133 0.20494)
(-0.996022 0.445277 0.170176)
(-0.839827 0.584831 0.158003)
(2.64155 0.46937 0.886428)
(1.9242 0.191679 0.290842)
(1.73375 0.607371 0.300481)
(0.897268 0.0903572 0.179767)
(0.273561 0.431356 0.0049939)
(-0.405476 0.495452 0.219528)
(-0.755015 -0.334712 0.3888)
(-1.00369 0.0685553 0.425919)
(-1.25526 0.237928 0.6924)
(-1.25716 0.367678 0.808238)
(-1.45364 -0.285348 0.35823)
(-1.54729 0.090211 0.416658)
(-1.43944 0.254052 0.517738)
(-1.19963 0.458153 0.50513)
(-0.999959 0.685654 0.359112)
(-1.49088 0.0621566 0.224891)
(-1.42478 0.146639 0.12678)
(-1.2014 0.291539 0.187134)
(-0.99016 0.445344 0.160503)
(-0.839724 0.585572 0.157599)
(-0.73042 0.646237 0.159802)
(3.2667 0.140855 1.94942)
(2.62183 0.265751 0.630122)
(2.23961 0.981077 1.01286)
(1.83576 -0.0542629 0.302273)
(1.6999 0.373246 0.229292)
(1.43869 0.724774 0.175087)
(0.850135 -0.239084 0.0452577)
(0.238051 0.183875 -0.0227721)
(-0.315572 0.388021 0.239133)
(-0.833409 -0.00980457 0.56587)
(-0.797741 -0.433844 0.364218)
(-1.04397 -0.0997048 0.418443)
(-1.24737 0.125478 0.663422)
(-1.21798 0.359141 0.73814)
(-1.12132 0.635707 0.577149)
(-1.43501 -0.246886 0.388583)
(-1.5267 0.0799895 0.432627)
(-1.42596 0.204429 0.49954)
(-1.20489 0.419303 0.483045)
(-1.00915 0.6538 0.346908)
(-0.813196 0.776667 0.243587)
(-1.47932 0.061056 0.211343)
(-1.38928 0.248769 0.197257)
(-1.19012 0.28368 0.177689)
(-0.992943 0.416247 0.19845)
(-0.848304 0.577868 0.144003)
(-0.702252 0.640319 0.155124)
(-0.578236 0.61961 0.160894)
(3.43281 -0.174852 3.31752)
(3.02475 0.252916 2.08734)
(3.10996 0.537551 1.42594)
(2.47164 0.175042 0.641189)
(2.62192 0.154923 0.315261)
(2.13291 0.614386 0.811779)
(1.72266 -0.215752 0.204372)
(1.66636 0.111671 0.112405)
(1.38372 0.460915 0.0821262)
(0.919389 0.737796 0.132441)
(0.691029 -0.33009 0.106931)
(0.180728 -0.0926872 -0.0013053)
(-0.435326 -0.217088 0.239812)
(-0.699278 0.0975771 0.54175)
(-0.837808 0.394411 0.5768)
(-0.843093 -0.491176 0.325474)
(-1.03777 -0.164317 0.418596)
(-1.20772 0.0179133 0.643236)
(-1.21176 0.307506 0.657025)
(-1.12036 0.578415 0.52855)
(-0.936478 0.822266 0.381008)
(-1.39352 -0.205707 0.397252)
(-1.52808 -0.0161946 0.400964)
(-1.41681 0.150876 0.472159)
(-1.2052 0.399965 0.464063)
(-1.01968 0.620188 0.327178)
(-0.819897 0.756048 0.235146)
(-0.617985 0.75949 0.230737)
(-1.48187 0.0494456 0.20141)
(-1.38482 0.220339 0.174803)
(-1.17038 0.338582 0.196696)
(-0.984302 0.458155 0.120966)
(-0.834443 0.591143 0.163143)
(-0.700772 0.649615 0.151003)
(-0.579402 0.636245 0.190617)
(-0.420922 0.583345 0.166244)
(3.45202 -0.0447442 2.95773)
(3.4093 -0.442898 3.39229)
(3.26675 -0.198473 3.04211)
(3.03568 0.092651 1.82114)
(3.0103 0.243841 1.26897)
(2.75578 0.900736 1.17941)
(2.41915 -0.172127 0.425599)
(2.44251 0.00215335 0.527527)
(2.11852 0.438494 0.720173)
(1.95546 0.826922 0.782065)
(1.61451 -0.41643 0.0989945)
(1.55682 -0.183346 -0.0258742)
(1.28088 0.186704 0.0196772)
(0.792676 0.494058 0.094558)
(0.220689 0.774643 0.291505)
(0.573033 -0.530277 0.102872)
(0.0635156 -0.446625 0.0421292)
(-0.429295 -0.347502 0.229484)
(-0.816937 -0.185291 0.271984)
(-0.832901 0.306785 0.527297)
(-0.918603 0.758157 0.493923)
(-0.873766 -0.539672 0.327334)
(-1.03182 -0.244583 0.404152)
(-1.16517 -0.0489679 0.620963)
(-1.17751 0.248852 0.616897)
(-1.11656 0.515612 0.475951)
(-0.946311 0.777256 0.343714)
(-0.718797 0.872508 0.324558)
(-1.40056 -0.228613 0.360487)
(-1.51955 -0.0474581 0.380504)
(-1.39709 0.12381 0.480259)
(-1.20716 0.361601 0.442715)
(-1.02536 0.590524 0.305793)
(-0.836886 0.725603 0.215024)
(-0.638572 0.744684 0.209498)
(-0.422109 0.694492 0.210249)
(-1.47937 0.0413247 0.196891)
(-1.38689 0.185106 0.16591)
(-1.18432 0.285169 0.171946)
(-0.984647 0.42257 0.17674)
(-0.861441 0.551306 0.113114)
(-0.731328 0.62421 0.16025)
(-0.602231 0.632089 0.156207)
(-0.426809 0.589209 0.18025)
(-0.28012 0.541212 0.179864)
(2.92266 0.230635 3.11245)
(3.24409 -0.228575 2.96249)
(3.46234 -0.151667 3.00244)
(3.27112 -0.168666 3.12483)
(3.37773 -0.679343 3.43261)
(3.19479 -0.313967 2.99307)
(2.85788 0.39615 2.76956)
(2.99549 -0.437731 1.54279)
(3.09255 -0.122767 1.06674)
(2.80079 0.681369 0.995804)
(2.40782 0.924316 1.33929)
(2.30023 -0.324165 0.355448)
(2.37527 -0.174109 0.329515)
(2.16105 0.0457213 0.541222)
(1.96397 0.490791 0.640991)
(1.74678 1.1056 0.706676)
(1.47942 -0.622104 0.0645411)
(1.41064 -0.334054 0.0401636)
(1.16515 -0.0420443 0.00484655)
(0.717394 0.269544 0.0322172)
(0.159076 0.600481 0.198937)
(-0.340923 0.971462 0.588797)
(0.392782 -0.717982 0.120109)
(-0.0209542 -0.607253 0.0644098)
(-0.482149 -0.46195 0.165146)
(-0.790583 -0.223059 0.293068)
(-0.884922 0.181346 0.419966)
(-0.928505 0.682474 0.423549)
(-0.813001 0.970615 0.387417)
(-0.912509 -0.585462 0.315664)
(-1.02023 -0.342166 0.434312)
(-1.14007 -0.133296 0.57383)
(-1.15676 0.166737 0.576679)
(-1.1069 0.449206 0.431147)
(-0.954604 0.725956 0.300157)
(-0.734008 0.84333 0.298466)
(-0.472848 0.794157 0.322885)
(-1.40114 -0.243553 0.368131)
(-1.4942 -0.0388709 0.381615)
(-1.40022 0.0723174 0.41254)
(-1.19683 0.342247 0.429532)
(-1.03246 0.553943 0.287878)
(-0.842901 0.702582 0.200423)
(-0.644156 0.732567 0.205151)
(-0.431959 0.688149 0.205734)
(-0.252926 0.623801 0.206089)
(-1.47069 0.0357984 0.189468)
(-1.3729 0.188164 0.189852)
(-1.18333 0.2583 0.168359)
(-0.976717 0.438923 0.151234)
(-0.818644 0.594294 0.171983)
(-0.707086 0.659686 0.111112)
(-0.573627 0.622889 0.151822)
(-0.440145 0.587657 0.159562)
(-0.283006 0.542303 0.177478)
(-0.177638 0.490636 0.194285)
(2.70228 0.180003 2.90922)
(3.01478 -0.0395791 2.99493)
(3.04586 -0.0580648 3.09938)
(3.28535 -0.163481 2.94358)
(3.19782 -0.33663 3.03923)
(3.45221 -0.415818 3.06042)
(3.4077 -0.459779 3.11434)
(2.94364 0.0336858 3.37763)
(3.29724 -0.680857 3.4382)
(3.17559 -0.704333 2.84105)
(3.17461 -0.538254 2.25809)
(2.70979 0.543121 2.0554)
(2.73093 -0.13603 1.70213)
(2.89009 0.776924 1.26423)
(2.90969 0.0067617 0.677915)
(2.55448 0.636009 1.06635)
(2.41583 0.973903 1.2205)
(2.14569 -0.516046 0.197894)
(2.22872 -0.253154 0.386884)
(2.07205 -0.170307 0.49258)
(1.89694 0.128936 0.600718)
(1.74069 0.844432 0.551444)
(0.829959 1.35446 1.02151)
(1.31223 -0.770411 0.0291139)
(1.26101 -0.57961 -0.0581949)
(1.02083 -0.27021 -0.0449471)
(0.620284 0.0537501 -0.00261436)
(0.0895685 0.403117 0.120868)
(-0.383314 0.825173 0.460264)
(-0.677417 1.07646 0.615588)
(0.258403 -0.794766 0.0983297)
(-0.101432 -0.704775 0.0679688)
(-0.511512 -0.522897 0.123704)
(-0.814643 -0.278377 0.304906)
(-0.845925 0.141887 0.429224)
(-0.958782 0.599719 0.323692)
(-0.846384 0.919582 0.310866)
(-0.581337 0.953636 0.357126)
(-0.934514 -0.635377 0.344739)
(-1.05742 -0.447254 0.427764)
(-1.08773 -0.0550014 0.562104)
(-1.14344 0.10069 0.531874)
(-1.10376 0.378051 0.384528)
(-0.959875 0.673374 0.25468)
(-0.753259 0.810762 0.250103)
(-0.488601 0.780279 0.298466)
(-0.240564 0.679961 0.316245)
(-1.38916 -0.266881 0.34799)
(-1.48297 -0.0991616 0.327985)
(-1.36635 0.0851206 0.454415)
(-1.19491 0.31419 0.400976)
(-1.03337 0.529803 0.265962)
(-0.853514 0.674555 0.184902)
(-0.659853 0.716442 0.178897)
(-0.447433 0.678259 0.187424)
(-0.25936 0.615072 0.206562)
(-0.141425 0.557558 0.219278)
(-1.46848 0.0367187 0.189923)
(-1.35322 0.192614 0.164015)
(-1.14694 0.323028 0.183065)
(-0.994053 0.374964 0.172347)
(-0.856809 0.556463 0.10953)
(-0.728094 0.628979 0.142868)
(-0.573324 0.622853 0.151166)
(-0.421124 0.58134 0.157426)
(-0.285761 0.542707 0.174705)
(-0.180007 0.491076 0.19475)
(-0.101802 0.439342 0.215822)
(2.65986 0.317838 2.76047)
(2.75833 0.0199689 2.91537)
(2.70805 0.0668179 2.9134)
(2.94701 -0.169829 3.1039)
(2.9577 0.0276893 3.18193)
(3.05158 0.113895 2.96444)
(3.26713 -0.569698 2.95633)
(3.17989 -0.466907 3.02044)
(3.09821 -0.117597 3.28858)
(3.44928 -0.726763 3.09354)
(3.47055 -0.625362 3.05756)
(2.9564 -0.338113 3.36111)
(2.69197 0.0769565 3.12039)
(3.20861 -0.870031 3.43784)
(3.1578 -0.915582 2.86743)
(2.91933 0.14917 2.36839)
(2.81377 0.112122 1.78946)
(2.77104 0.842733 1.5874)
(2.62871 -0.512912 1.32433)
(2.88494 -0.584682 0.552033)
(2.70489 0.417158 0.841459)
(2.56131 0.308574 0.907496)
(2.51899 0.724828 1.09981)
(2.0572 1.01233 1.32189)
(1.95251 -0.689577 0.133322)
(2.02518 -0.847273 0.0785761)
(1.98163 -0.347114 0.392105)
(1.78632 -0.206879 0.50164)
(1.69124 0.509052 0.43353)
(0.845387 1.19278 0.873639)
(-0.28188 1.32378 1.03985)
(1.13898 -0.869547 0.0620977)
(1.0857 -0.715919 -0.0168839)
(0.857844 -0.423231 -0.0453602)
(0.511922 -0.158995 -0.0148128)
(0.0212585 0.196678 0.0532085)
(-0.459227 0.651371 0.322413)
(-0.717145 0.987406 0.498659)
(-0.592346 1.05331 0.516359)
(0.116442 -0.880571 0.106545)
(-0.182361 -0.770524 0.0589357)
(-0.52703 -0.562498 0.139822)
(-0.8249 -0.375716 0.300018)
(-0.926768 -0.0150477 0.280587)
(-0.972892 0.520046 0.256821)
(-0.856985 0.867335 0.258276)
(-0.605842 0.925507 0.313578)
(-0.329453 0.825995 0.359847)
(-0.979473 -0.70874 0.341841)
(-1.05002 -0.47619 0.481491)
(-1.0665 -0.144383 0.519193)
(-1.11492 0.0669948 0.499713)
(-1.09423 0.316256 0.339576)
(-0.957013 0.624145 0.215528)
(-0.761153 0.776655 0.220496)
(-0.515952 0.760348 0.25518)
(-0.25553 0.676602 0.287594)
(-0.0758948 0.571294 0.313977)
(-1.39279 -0.291326 0.308049)
(-1.45686 -0.0967787 0.354117)
(-1.37668 0.0550051 0.372162)
(-1.18742 0.297715 0.377167)
(-1.03298 0.50561 0.240599)
(-0.857673 0.654145 0.160006)
(-0.669518 0.697463 0.169064)
(-0.454196 0.669719 0.175869)
(-0.267622 0.613186 0.185012)
(-0.14405 0.552781 0.213419)
(-0.0760933 0.495275 0.248688)
(-1.4656 0.0297174 0.175506)
(-1.35212 0.17162 0.141633)
(-1.13655 0.29697 0.14403)
(-0.932619 0.494353 0.134936)
(-0.802121 0.612475 0.189457)
(-0.715035 0.609708 0.145912)
(-0.592771 0.621114 0.146822)
(-0.424193 0.58131 0.158367)
(-0.285398 0.541511 0.172198)
(-0.181554 0.494019 0.189555)
(-0.104993 0.441734 0.214988)
(-0.0414269 0.383172 0.233167)
(2.31365 0.480775 2.71905)
(2.52745 0.18315 2.79931)
(2.72548 0.0069111 2.77221)
(2.59092 0.00910975 2.8918)
(2.74509 -0.075291 2.89586)
(2.75392 -0.21257 2.97777)
(2.80205 -0.0322282 2.80621)
(3.02173 -0.373417 3.08325)
(2.98893 -0.275617 3.06339)
(2.91613 0.0224378 3.21757)
(3.14127 0.0828858 2.89103)
(3.23114 -0.827847 2.96626)
(3.15143 -0.67844 3.03835)
(3.13631 -0.537126 3.1551)
(3.03943 -0.317639 3.24887)
(3.52184 -0.99609 3.12712)
(3.44571 -0.788973 3.08898)
(3.01536 -0.675777 3.37263)
(2.75317 -0.0103331 3.03017)
(2.34078 0.214346 3.0252)
(3.21546 -1.17768 3.16814)
(3.17275 -0.800112 2.82272)
(3.0035 -0.609533 1.90986)
(2.77197 0.254754 1.59546)
(2.7437 0.694831 1.65381)
(2.81102 0.825705 1.44327)
(2.49163 -0.479215 1.12187)
(2.60853 0.0142745 0.993119)
(2.70504 -0.477565 0.339525)
(2.49446 0.126611 0.77413)
(2.58124 0.356247 0.99302)
(2.18667 0.816799 1.13786)
(0.986781 1.15309 1.51659)
(1.79004 -0.720367 0.143989)
(1.88325 -0.677039 0.218137)
(1.86191 -0.636417 0.28299)
(1.63584 -0.456928 0.405488)
(1.5809 0.173876 0.329537)
(0.835201 0.987583 0.72497)
(-0.312309 1.2284 0.88905)
(-0.504816 1.17127 0.825886)
(0.921375 -0.977181 0.0620826)
(0.970981 -0.779057 0.0061334)
(0.767917 -0.531242 -0.0406572)
(0.443025 -0.292445 -0.0133952)
(-0.0673016 -0.0232373 -0.0161006)
(-0.498849 0.482577 0.225133)
(-0.74705 0.877642 0.380304)
(-0.63002 1.01029 0.442615)
(-0.346596 0.937681 0.485467)
(-0.0417068 -0.950845 0.143688)
(-0.265388 -0.798464 0.0768271)
(-0.627632 -0.663269 0.199961)
(-0.829294 -0.408978 0.30725)
(-0.918245 -0.074609 0.275729)
(-1.00239 0.438296 0.156723)
(-0.875688 0.807184 0.187265)
(-0.63179 0.890603 0.258505)
(-0.354507 0.813004 0.328256)
(-0.131607 0.693054 0.364827)
(-1.02369 -0.736483 0.375051)
(-1.05031 -0.492155 0.467867)
(-1.08069 -0.2296 0.457766)
(-1.09986 0.0274084 0.451468)
(-1.0804 0.267431 0.302053)
(-0.956869 0.56945 0.174717)
(-0.774662 0.735449 0.186285)
(-0.521995 0.735786 0.242967)
(-0.274459 0.664735 0.26651)
(-0.0861093 0.569542 0.295922)
(0.00489636 0.486476 0.320215)
(-1.38811 -0.294993 0.291381)
(-1.43599 -0.107564 0.339367)
(-1.33909 0.0561904 0.401896)
(-1.18013 0.27448 0.351487)
(-1.0326 0.476499 0.216699)
(-0.864035 0.625991 0.152253)
(-0.677131 0.680477 0.153477)
(-0.466879 0.658371 0.156914)
(-0.276561 0.603484 0.186892)
(-0.14786 0.550622 0.20274)
(-0.0752883 0.493775 0.24019)
(-0.014777 0.430228 0.275901)
(-1.46116 0.0166526 0.177315)
(-1.35158 0.16273 0.156357)
(-1.13446 0.282539 0.1507)
(-0.95682 0.421386 0.131948)
(-0.89604 0.489178 0.0381118)
(-0.716611 0.604063 0.144522)
(-0.584103 0.612228 0.143733)
(-0.437945 0.584127 0.15465)
(-0.288598 0.539139 0.172794)
(-0.179652 0.494442 0.185977)
(-0.104685 0.445696 0.211707)
(-0.043234 0.386252 0.232259)
(0.012725 0.316883 0.251186)
(2.30922 0.304018 2.60977)
(2.3608 0.292724 2.70126)
(2.36773 0.257131 2.78369)
(2.52205 0.0341258 2.80199)
(2.49646 0.0219189 2.84047)
(2.7603 -0.0867147 2.80257)
(2.66827 -0.134138 2.82939)
(2.65552 -0.0903201 2.89946)
(2.80901 -0.395653 2.92433)
(2.77406 -0.248203 2.94692)
(2.83589 -0.3471 2.89804)
(2.76619 0.169538 2.84684)
(3.01665 -0.495059 3.03724)
(2.976 -0.438408 3.12245)
(2.98436 -0.309399 3.06186)
(2.90062 -0.138739 3.14044)
(2.98476 0.186179 3.09312)
(3.22144 -0.977764 2.98753)
(3.12723 -0.811483 3.03841)
(3.1822 -0.707753 3.06613)
(3.08896 -0.403146 3.23295)
(2.69734 -0.141995 3.35524)
(3.49699 -1.29559 3.17337)
(3.48341 -1.15624 3.21413)
(3.07754 -0.995511 3.22597)
(2.78017 -0.527374 2.94479)
(2.41806 0.208841 2.89319)
(2.83173 0.388996 2.19706)
(3.08919 -1.51457 2.92688)
(2.80558 -0.97998 3.08609)
(2.88279 -0.359208 1.79537)
(2.90751 -0.233794 1.07841)
(2.85985 0.226279 1.49692)
(2.78246 0.824296 1.52563)
(2.31767 0.704803 1.59581)
(2.33809 -0.657743 0.745159)
(2.49689 -0.431103 0.545634)
(2.48601 -0.226286 0.499983)
(2.45267 -0.347808 0.576255)
(2.51752 0.0935514 0.910315)
(2.23264 0.588136 0.99955)
(1.14923 0.98881 1.39327)
(0.0230669 1.20483 1.38666)
(1.52929 -1.04478 -0.0576055)
(1.658 -0.990493 0.0451222)
(1.70269 -0.821804 0.197035)
(1.50016 -0.704567 0.295911)
(1.44706 -0.182689 0.128832)
(0.828076 0.720754 0.536004)
(-0.359026 1.11813 0.712832)
(-0.556642 1.11843 0.710203)
(-0.337383 1.09035 0.640629)
(0.810062 -1.06872 0.0727426)
(0.883171 -0.905391 -0.00647275)
(0.585883 -0.815552 -0.0169903)
(0.270854 -0.54469 -0.0112598)
(-0.159206 -0.232088 -0.0646689)
(-0.670573 0.184541 0.052523)
(-0.823605 0.751583 0.23594)
(-0.665302 0.95367 0.36293)
(-0.383272 0.924884 0.43955)
(-0.126828 0.781023 0.489739)
(-0.170091 -0.977792 0.170916)
(-0.316195 -0.833923 0.0995401)
(-0.57892 -0.716257 0.226667)
(-0.840097 -0.454393 0.289861)
(-0.932127 -0.118348 0.216372)
(-0.982433 0.393456 0.0985093)
(-0.876455 0.759981 0.118397)
(-0.643378 0.852558 0.2095)
(-0.382897 0.798736 0.280762)
(-0.150871 0.68972 0.339215)
(-0.0201669 0.573303 0.37747)
(-1.02426 -0.78454 0.431888)
(-1.05697 -0.511532 0.441581)
(-1.07041 -0.256265 0.445074)
(-1.09201 -0.0258734 0.396361)
(-1.07499 0.218222 0.255352)
(-0.947728 0.533637 0.139069)
(-0.783308 0.6943 0.152821)
(-0.54584 0.709952 0.197269)
(-0.284846 0.655432 0.239191)
(-0.0985595 0.568767 0.276296)
(-0.000130342 0.479341 0.310155)
(0.0427461 0.407828 0.340415)
(-1.363 -0.289067 0.278876)
(-1.44339 -0.141686 0.285464)
(-1.32792 0.0371413 0.35556)
(-1.16697 0.262237 0.319011)
(-1.01839 0.475018 0.207508)
(-0.865561 0.610496 0.12568)
(-0.68205 0.669106 0.127189)
(-0.471603 0.648216 0.148666)
(-0.280569 0.594516 0.203194)
(-0.150742 0.546905 0.199644)
(-0.075961 0.490961 0.232496)
(-0.013071 0.429679 0.271941)
(0.0432225 0.359502 0.301299)
(-1.46261 0.0160663 0.163236)
(-1.32871 0.159837 0.162595)
(-1.11024 0.289621 0.175033)
(-0.967469 0.394149 0.135246)
(-0.765523 0.628226 0.215294)
(-0.703111 0.62915 0.128745)
(-0.589056 0.605064 0.147092)
(-0.428508 0.577856 0.149435)
(-0.288344 0.544793 0.163112)
(-0.182978 0.495547 0.184607)
(-0.107841 0.448066 0.209958)
(-0.0448124 0.390306 0.230541)
(0.0128595 0.320873 0.249723)
(0.0489353 0.256872 0.266631)
(2.04236 0.44365 2.75759)
(2.3045 0.189402 2.5991)
(2.34156 0.274635 2.68758)
(2.38764 0.194616 2.66336)
(2.38369 0.193635 2.77259)
(2.37475 0.207784 2.7799)
(2.47535 -0.135896 2.82978)
(2.46596 -0.214346 2.87182)
(2.51037 0.00503905 2.83024)
(2.75544 -0.381016 2.77954)
(2.68902 -0.244572 2.84968)
(2.58676 -0.191111 2.92286)
(2.46305 -0.037307 3.01671)
(2.8204 -0.746561 2.94269)
(2.70629 -0.816968 2.96239)
(2.90881 -0.35278 2.93286)
(2.72262 0.0164879 2.963)
(2.7054 0.215657 2.85607)
(3.02043 -0.868556 2.99288)
(2.97607 -0.671623 3.06036)
(2.88409 -0.525432 3.13157)
(2.95824 -0.147649 3.01133)
(2.95393 0.0560539 3.25558)
(2.7939 0.00669221 3.21826)
(3.21029 -1.07224 2.96891)
(3.14376 -1.07995 3.04506)
(3.15858 -0.893866 3.08171)
(3.06905 -0.325963 3.2655)
(2.6611 -0.607397 3.30494)
(2.59423 0.126353 3.32875)
(3.46922 -1.41714 3.21892)
(3.47683 -1.20947 3.33348)
(3.04635 -1.29669 3.18135)
(2.53804 -0.543969 3.04546)
(2.72202 0.0671382 2.51205)
(2.87758 0.385881 2.20921)
(2.76616 0.472868 2.28747)
(2.93961 -1.66647 2.7177)
(2.84565 -1.15292 2.6062)
(2.78393 -0.649615 1.67228)
(2.73159 -0.405312 0.987421)
(2.84802 0.192747 1.36315)
(2.846 0.658569 1.4457)
(2.35725 0.756095 1.58241)
(1.2694 0.906166 1.74259)
(2.14006 -0.823127 0.517044)
(2.26403 -0.38798 0.492664)
(2.31458 -0.606946 0.191426)
(2.2923 -0.592155 0.501945)
(2.44629 -0.401306 0.637089)
(2.27401 0.245582 0.85129)
(1.22117 0.782233 1.28159)
(0.0101951 1.15005 1.27952)
(-0.152708 1.12151 1.13714)
(1.37529 -1.07091 0.0416086)
(1.46031 -1.04021 -0.0314557)
(1.50968 -1.00645 0.145687)
(1.32797 -0.912164 0.146235)
(1.28203 -0.512175 -0.0280278)
(0.620417 0.427575 0.307174)
(-0.445055 0.95753 0.501729)
(-0.601872 1.04071 0.573091)
(-0.387384 1.07421 0.584853)
(-0.0856143 0.948999 0.573801)
(0.603667 -1.27058 0.126575)
(0.424657 -1.17966 0.00580275)
(0.292464 -1.0413 0.0423563)
(0.180397 -0.703055 -0.0232594)
(-0.26216 -0.42892 -0.0830622)
(-0.627701 0.0620184 -0.010442)
(-0.797068 0.670866 0.168755)
(-0.69073 0.888037 0.283891)
(-0.417577 0.897332 0.394988)
(-0.158878 0.777752 0.466326)
(0.009475 0.651835 0.473178)
(-0.224839 -0.984687 0.237966)
(-0.352349 -0.836199 0.125109)
(-0.57318 -0.710887 0.225292)
(-0.830632 -0.47056 0.307273)
(-0.943414 -0.175534 0.149368)
(-0.976942 0.328973 0.0155004)
(-0.881208 0.703374 0.0590687)
(-0.656784 0.80873 0.16308)
(-0.39031 0.770086 0.257647)
(-0.175647 0.68327 0.310174)
(-0.0331106 0.573077 0.35727)
(0.0518864 0.464391 0.391931)
(-1.06503 -0.745438 0.40631)
(-1.07944 -0.524394 0.434533)
(-1.04857 -0.216916 0.444864)
(-1.07581 -0.0640302 0.372822)
(-1.0584 0.187313 0.218053)
(-0.949166 0.488375 0.104269)
(-0.786265 0.658656 0.123591)
(-0.551714 0.687803 0.168003)
(-0.301511 0.649021 0.199905)
(-0.104921 0.568364 0.254869)
(-0.00694004 0.474066 0.297351)
(0.0407538 0.404742 0.332373)
(0.0883667 0.336185 0.354677)
(-1.3607 -0.286286 0.249811)
(-1.43935 -0.155734 0.276205)
(-1.31808 0.0302091 0.328736)
(-1.15452 0.24481 0.303924)
(-1.03415 0.423648 0.153845)
(-0.867394 0.587516 0.11752)
(-0.691946 0.645219 0.122414)
(-0.481248 0.637084 0.135014)
(-0.292158 0.611397 0.120176)
(-0.15724 0.54492 0.195231)
(-0.0745876 0.492294 0.218646)
(-0.0127506 0.429905 0.264365)
(0.0444665 0.361794 0.298863)
(0.0861765 0.292001 0.318041)
(-1.46406 0.0203015 0.155972)
(-1.31547 0.163938 0.130434)
(-1.1033 0.282826 0.140287)
(-0.960868 0.39721 0.136812)
(-0.872103 0.502042 0.0373431)
(-0.747433 0.571503 0.130209)
(-0.576469 0.629021 0.133106)
(-0.428379 0.577895 0.148504)
(-0.284039 0.544107 0.158612)
(-0.183214 0.499874 0.179245)
(-0.1046 0.454288 0.203926)
(-0.0440058 0.395193 0.228102)
(0.0119047 0.324925 0.248136)
(0.0485117 0.260915 0.265427)
(0.0815255 0.19257 0.281751)
(2.04506 0.262836 2.52003)
(2.04454 0.366938 2.74707)
(2.16559 0.284316 2.69345)
(2.335 0.0408629 2.61485)
(2.35545 0.0838034 2.64766)
(2.28939 0.124765 2.80417)
(2.37401 0.0517901 2.6313)
(2.37165 -0.0826831 2.7813)
(2.38361 0.0709253 2.78517)
(2.30306 0.134905 2.81781)
(2.45077 -0.331533 2.84854)
(2.47742 -0.244099 2.85864)
(2.47654 -0.00614178 2.88262)
(2.42689 -0.0209618 2.87358)
(2.69516 -0.559574 2.82527)
(2.68491 -0.442175 2.84636)
(2.58115 -0.465284 2.92751)
(2.53305 -0.223818 2.98766)
(2.53927 -0.209198 2.84929)
(2.82602 -0.882743 2.88778)
(2.79793 -0.770585 2.97184)
(2.94162 -0.697043 2.85856)
(2.86917 -0.163297 3.01561)
(2.79658 -0.0513814 2.89996)
(2.69214 0.262536 2.83104)
(3.00596 -0.957935 2.97994)
(2.94165 -1.06918 2.95705)
(2.83841 -0.781266 3.13634)
(2.91957 -0.475116 3.06892)
(3.04841 -0.0532887 3.16977)
(2.69336 -0.111767 3.42932)
(2.78586 0.0535625 2.99804)
(3.12486 -1.32643 2.97144)
(3.11777 -1.23171 3.02538)
(3.19269 -1.08811 3.03341)
(3.03968 -0.588552 3.23811)
(2.67238 -0.95887 3.08785)
(2.76689 -0.245484 3.10421)
(2.80234 0.271515 3.07563)
(3.4239 -1.45994 3.2243)
(3.32638 -1.49904 3.36239)
(2.93689 -1.85586 2.87568)
(2.49053 -0.643435 3.00704)
(2.8562 -0.232816 2.22226)
(3.00812 0.171208 2.03591)
(2.8999 0.472923 2.17875)
(2.2245 0.858525 2.29154)
(2.74715 -1.86061 2.52426)
(2.64357 -1.26659 2.52289)
(2.68727 -0.854801 1.50411)
(2.66955 -0.637483 0.888584)
(2.94963 -0.269069 0.938901)
(3.0328 -0.00482539 1.24491)
(2.45249 0.508236 1.45685)
(1.37564 0.87277 1.72972)
(0.406257 1.14528 1.58895)
(1.98815 -0.895998 0.468395)
(2.06457 -0.604585 0.243547)
(2.11305 -0.659964 0.144283)
(2.09694 -0.890978 0.263217)
(2.24954 -0.6852 0.534614)
(2.24735 -0.115824 0.678038)
(1.27696 0.469363 1.13163)
(-0.0284693 1.05563 1.18717)
(-0.231117 1.11067 1.0635)
(-0.0643023 0.965855 0.900684)
(1.1038 -1.18942 -0.0661078)
(1.24079 -1.08125 -0.02595)
(1.33399 -1.06028 0.1408)
(1.11866 -1.04547 0.0862418)
(1.08749 -0.763111 -0.149266)
(0.496334 0.0714006 0.0632347)
(-0.429041 0.709624 0.277206)
(-0.639804 0.931528 0.439572)
(-0.436119 1.04058 0.518319)
(-0.128723 0.958256 0.529299)
(0.0877002 0.751154 0.570942)
(0.1296 -1.34633 0.35109)
(0.603367 -0.989606 -0.00968176)
(0.23336 -1.04468 0.0909227)
(0.0275298 -0.860545 0.00074389)
(-0.349662 -0.607679 -0.0958178)
(-0.710981 -0.0359022 -0.0855231)
(-0.808975 0.569714 0.079402)
(-0.697555 0.826447 0.209538)
(-0.441956 0.859497 0.350922)
(-0.199485 0.763677 0.439465)
(-0.0162674 0.6509 0.460494)
(0.0856779 0.524088 0.471622)
(-0.346907 -1.00374 0.274032)
(-0.445207 -0.842215 0.15107)
(-0.559403 -0.736555 0.217786)
(-0.824569 -0.49254 0.284618)
(-0.927028 -0.192971 0.113536)
(-0.953711 0.288255 -0.0300613)
(-0.878352 0.645426 0.00595317)
(-0.668432 0.761219 0.114241)
(-0.419734 0.740052 0.215072)
(-0.181356 0.669608 0.282427)
(-0.0495109 0.57519 0.332003)
(0.0441294 0.467433 0.37552)
(0.0979667 0.348794 0.416388)
(-1.06578 -0.761293 0.398051)
(-1.10874 -0.545048 0.396981)
(-1.05697 -0.279756 0.371475)
(-1.07541 -0.0905826 0.299992)
(-1.04549 0.152175 0.178752)
(-0.941181 0.461281 0.0723008)
(-0.794542 0.621577 0.0897299)
(-0.562838 0.660847 0.139585)
(-0.303255 0.638335 0.188004)
(-0.114082 0.570643 0.232725)
(-0.0132571 0.467276 0.286277)
(0.0386842 0.392987 0.324842)
(0.0898399 0.33794 0.349959)
(0.123117 0.254547 0.371504)
(-1.37132 -0.295188 0.22734)
(-1.41302 -0.168719 0.276137)
(-1.29734 0.0265408 0.324933)
(-1.14755 0.237275 0.257919)
(-0.992839 0.453657 0.1849)
(-0.861932 0.577936 0.0896096)
(-0.686431 0.639306 0.101605)
(-0.481598 0.63375 0.113043)
(-0.288326 0.594613 0.181341)
(-0.158009 0.549486 0.177327)
(-0.074179 0.494827 0.21316)
(-0.00836061 0.427395 0.261919)
(0.0465556 0.362142 0.29476)
(0.0881281 0.293057 0.317508)
(0.111751 0.223267 0.339814)
(-1.461 0.00694781 0.145234)
(-1.32182 0.149137 0.132631)
(-1.10874 0.28222 0.127242)
(-0.932621 0.406157 0.130823)
(-0.769475 0.59378 0.208263)
(-0.692037 0.627631 0.141409)
(-0.619832 0.583387 0.15401)
(-0.433383 0.580059 0.141074)
(-0.285285 0.545282 0.155182)
(-0.17959 0.500904 0.176111)
(-0.109736 0.45593 0.205151)
(-0.0473039 0.399047 0.227883)
(0.0104421 0.329672 0.246092)
(0.0482115 0.264766 0.264274)
(0.0801784 0.187761 0.283684)
(0.112953 0.115251 0.300468)
(1.94554 0.336551 2.35961)
(2.06398 0.150423 2.53235)
(2.07003 0.166031 2.48492)
(2.07504 0.156003 2.7288)
(2.16281 0.246683 2.72087)
(2.18577 0.258572 2.66259)
(2.30637 -0.141127 2.60245)
(2.38922 -0.0632933 2.60878)
(2.29798 0.0595225 2.81416)
(2.26236 0.138605 2.82262)
(2.37862 -0.264291 2.63159)
(2.3899 -0.184416 2.73803)
(2.38756 -0.197643 2.79884)
(2.38369 0.0214516 2.78087)
(2.27602 0.134354 2.80969)
(2.41336 -0.432213 2.83417)
(2.45466 -0.567287 2.87651)
(2.44494 -0.448273 2.87871)
(2.49031 -0.341836 2.85188)
(2.49379 -0.307366 2.78216)
(2.67246 -0.55161 2.81609)
(2.65467 -0.862084 2.83352)
(2.60942 -0.547488 2.91351)
(2.69297 -0.530453 2.81617)
(2.76036 -0.339632 2.72779)
(2.45969 -0.128577 2.92032)
(2.75155 -1.14009 2.9462)
(2.75051 -1.00922 2.93415)
(2.91347 -0.74361 2.92554)
(3.01663 -0.549321 2.94263)
(2.96144 -0.472999 2.92362)
(2.6918 -0.144744 2.95576)
(2.56895 0.144344 2.91859)
(2.8605 -1.2599 2.88693)
(2.95968 -1.15323 2.91138)
(2.69208 -1.22469 3.10742)
(2.98641 -0.915138 3.10318)
(2.91807 -0.585889 3.07215)
(2.90774 -0.228091 3.40647)
(2.79132 -0.172849 3.08641)
(2.7252 0.0092547 3.04281)
(3.10034 -1.46243 2.93914)
(3.07959 -1.45643 2.9384)
(3.06928 -1.39004 2.96684)
(3.10593 -1.28124 3.06407)
(2.7683 -0.951075 3.00625)
(2.86783 -0.698149 2.80944)
(2.93347 0.121271 3.02895)
(2.79238 0.0907367 2.87011)
(3.29935 -1.68513 3.16446)
(3.25899 -1.51024 3.41429)
(2.97377 -1.90508 2.67002)
(2.40101 -1.33509 2.88129)
(2.7058 -0.453585 2.30057)
(3.32165 -0.581274 1.64259)
(3.04342 0.29059 2.01899)
(2.37921 0.74949 2.26959)
(1.45578 0.963888 2.07115)
(2.50957 -2.13096 2.28526)
(2.46903 -1.46543 2.38084)
(2.57652 -1.0119 1.53891)
(2.70135 -0.850735 0.767706)
(2.8484 -0.346278 0.984567)
(3.04345 0.0365872 1.21168)
(2.56036 0.255689 1.2648)
(1.46479 0.709089 1.65931)
(0.387492 1.10306 1.5765)
(0.153128 1.20246 1.2113)
(1.79179 -1.07086 0.220495)
(1.91719 -0.68141 0.215579)
(1.87452 -0.912011 -0.0997002)
(1.95028 -0.922691 0.188567)
(2.04782 -1.00267 0.262848)
(2.09791 -0.476408 0.472706)
(1.22562 0.200904 0.958223)
(-0.0866361 0.937465 1.04537)
(-0.30687 1.07413 0.968033)
(-0.158938 0.973537 0.876295)
(0.0996229 0.815024 0.750864)
(0.784108 -1.26322 -0.105721)
(1.02419 -1.20042 -0.122117)
(1.09298 -1.171 0.0617421)
(0.960309 -1.07161 0.0947809)
(0.891426 -0.894094 -0.203332)
(0.372315 -0.158079 -0.127416)
(-0.493052 0.49066 0.0631688)
(-0.679525 0.812926 0.301276)
(-0.472836 0.990322 0.442748)
(-0.174761 0.949261 0.484944)
(0.0567511 0.780137 0.534724)
(0.184477 0.582534 0.558507)
(0.463618 -1.17227 0.188544)
(0.432928 -1.09363 0.0386414)
(0.114276 -1.05272 0.108746)
(-0.0866289 -0.944975 0.0155387)
(-0.426554 -0.692883 -0.100492)
(-0.714985 -0.102553 -0.148079)
(-0.814666 0.471075 -0.019263)
(-0.701518 0.756538 0.138896)
(-0.467253 0.822983 0.293391)
(-0.223304 0.734322 0.416977)
(-0.0521251 0.640228 0.448298)
(0.0674222 0.526558 0.460642)
(0.123438 0.402509 0.476037)
(-0.437786 -0.949834 0.299087)
(-0.511816 -0.791363 0.197715)
(-0.562697 -0.724383 0.191431)
(-0.860942 -0.4559 0.282235)
(-0.90067 -0.176241 0.0668942)
(-0.926902 0.254937 -0.0787667)
(-0.86475 0.590762 -0.0286547)
(-0.66716 0.710818 0.079997)
(-0.423148 0.710554 0.194642)
(-0.202756 0.657803 0.259014)
(-0.0623757 0.566759 0.311944)
(0.0345126 0.468142 0.356)
(0.0946728 0.356842 0.405042)
(0.142899 0.272048 0.422842)
(-1.11632 -0.748972 0.373353)
(-1.16511 -0.554553 0.348272)
(-1.08163 -0.292734 0.338171)
(-1.04303 -0.0924918 0.321532)
(-1.0347 0.13525 0.1562)
(-0.935251 0.432871 0.047729)
(-0.7938 0.592071 0.0626904)
(-0.566081 0.643031 0.106571)
(-0.309767 0.635491 0.150983)
(-0.114679 0.574484 0.216575)
(-0.0166746 0.466091 0.273918)
(0.0335719 0.382278 0.312912)
(0.0908838 0.332043 0.344559)
(0.12547 0.264913 0.367907)
(0.135209 0.203323 0.382506)
(-1.35204 -0.287889 0.247021)
(-1.39686 -0.172069 0.246883)
(-1.2843 0.0172413 0.280046)
(-1.12997 0.222993 0.256833)
(-1.01055 0.406496 0.122946)
(-0.859734 0.561382 0.0801824)
(-0.706386 0.602617 0.101431)
(-0.481814 0.629974 0.0972776)
(-0.298626 0.607067 0.121202)
(-0.159674 0.550607 0.173341)
(-0.0697673 0.495062 0.214973)
(-0.00598647 0.42274 0.261467)
(0.0495637 0.363251 0.287251)
(0.0894937 0.292786 0.316916)
(0.113412 0.224849 0.339461)
(0.116858 0.152099 0.360879)
(-1.47985 0.00316702 0.145898)
(-1.2991 0.14522 0.145617)
(-1.10205 0.261307 0.140994)
(-0.915315 0.416987 0.103846)
(-0.835929 0.523874 0.0963269)
(-0.71344 0.605118 0.0992728)
(-0.581254 0.62253 0.125099)
(-0.432577 0.579811 0.140448)