/*--------------------------------*- C++ -*----------------------------------*\
  =========                 |
  \\      /  F ield         | OpenFOAM: The Open Source CFD Toolbox
   \\    /   O peration     | Website:  https://openfoam.org
    \\  /    A nd           | Version:  7
     \\/     M anipulation  |
\*---------------------------------------------------------------------------*/
FoamFile
{
    version     2.0;
    format      ascii;
    class       volScalarField;
    location    "5";
    object      nut;
}
// * * * * * * * * * * * * * * * * * * * * * * * * * * * * * * * * * * * * * //

dimensions      [0 2 -1 0 0 0 0];

internalField   nonuniform List<scalar> 
18750
(
0.000512913
0.00103964
0.00080597
0.000474213
0.00231974
0.001397
0.000801456
0.000379385
0.000680484
0.000550159
0.0031057
0.00200299
0.00203326
0.000632775
0.0010367
0.000852797
0.000326151
0.000325735
0.000534214
0.000710396
0.00300824
0.00258606
0.00375833
0.00215762
0.00141625
0.00177831
0.000420363
0.000421761
0.000705287
0.00111537
0.000261954
0.000294379
0.000284116
0.000745471
0.000746351
0.00319408
0.00155347
0.00418103
0.00151386
0.00472373
0.00286393
0.00189202
0.00166782
0.00188758
0.00196841
0.000503206
0.000410539
0.00048614
0.000352978
0.000815016
0.000205944
0.000221031
0.000398858
0.000216199
0.00104396
0.00081522
0.00277797
0.00152813
0.00317423
0.0011845
0.00134193
0.00384914
0.00092987
0.00174461
0.00415176
0.00235903
0.00129565
0.00109237
0.00158575
0.00167788
0.00191661
0.000316702
0.000468437
0.000196611
0.000674464
0.000546371
0.00177896
8.35709e-05
0.00018404
0.000191161
0.000234088
0.000204985
0.00116868
0.000814587
0.00208447
0.00109894
0.00231493
0.00140117
0.00163935
0.00292119
0.0013186
0.00110036
0.00342911
0.0027929
0.0012682
0.00065518
0.00117733
0.00192953
0.00364574
0.000755122
0.00122996
0.000714582
0.00125645
0.00155803
0.00184785
0.000358674
0.000323471
0.000442683
0.000201403
0.000438945
0.000558944
0.000826413
7.9744e-05
0.000119415
0.000177057
0.000195573
0.000224227
0.000317802
0.00116287
0.000705876
0.00250995
0.000917984
0.00240955
0.00101096
0.000982314
0.00243046
0.000672034
0.00163455
0.000889595
0.00275942
0.00128087
0.00147884
0.00178814
0.00329786
0.00247822
0.00104839
0.0011699
0.000815158
0.00296126
0.00232972
0.00315918
0.000730436
0.000763731
0.00116418
0.00125321
0.000822962
0.00205303
0.00172504
0.000372922
0.000363736
0.00032326
0.000394555
0.000208822
0.000517309
0.000584148
0.000779164
0.000132732
6.50369e-05
0.000124848
0.000185231
0.000177233
0.000329612
0.000447732
0.00115496
0.000707567
0.00232186
0.00114543
0.00244296
0.000372912
0.00115062
0.00285325
0.000788413
0.000889288
0.00115634
0.00280613
0.00112592
0.000927382
0.00140898
0.00148886
0.00295166
0.00122271
0.000968581
0.00161318
0.00162243
0.00155317
0.0035065
0.000806459
0.00144473
0.00118852
0.000980532
0.00215285
0.00175972
0.00357198
0.000551404
0.00073497
0.000765394
0.00123256
0.00107951
0.000525499
0.00123444
0.00161011
0.000470116
0.000383424
0.000389467
0.000272814
0.000343051
0.00013103
0.000492599
0.000456137
0.00216352
0.000122717
0.00011794
6.38467e-05
0.000125991
0.000179808
0.000162223
0.000312929
0.000508035
0.00105519
0.000686913
0.00244342
0.000541601
0.00228973
0.000553583
0.00115076
0.00239387
0.000468581
0.000585872
0.00144959
0.00307466
0.00127421
0.000485456
0.000822002
0.00192828
0.00275281
0.00111768
0.00106912
0.000971527
0.00113537
0.00196762
0.00284109
0.000804942
0.00149533
0.00126966
0.00152846
0.00228405
0.00145379
0.00364232
0.00098244
0.00111218
0.00121986
0.00105465
0.00144165
0.00217604
0.00109692
0.00296307
0.000424159
0.000571103
0.000692493
0.000825794
0.00117677
0.000505322
0.000501279
0.00211108
0.00153048
0.000393371
0.000403425
0.000363125
0.000327059
0.000319662
0.000384431
0.000194853
0.000413013
0.000621532
0.000803602
0.000100372
0.000117806
0.000134391
8.13913e-05
0.000127232
0.000173922
0.000141493
0.000301979
0.000533988
0.000919268
0.000611914
0.00241133
0.00081602
0.00235086
0.000415673
0.00048399
0.00230874
0.000666078
0.000657467
0.00102154
0.00216905
0.000707994
0.000494219
0.000770046
0.00105275
0.00295526
0.00136634
0.000758883
0.000691232
0.00108253
0.00181935
0.00303613
0.000810007
0.00070621
0.00085913
0.00113738
0.00136123
0.00134603
0.00268141
0.000562078
0.000823679
0.000751822
0.000856707
0.00134161
0.0016782
0.00308266
0.00370102
0.000593301
0.0021119
0.00082399
0.00122357
0.00123843
0.00175838
0.00189611
0.00163436
0.00297295
0.00066713
0.000985792
0.000584383
0.000554728
0.000528598
0.00104988
0.000630872
0.000305334
0.00196821
0.00148215
0.000185175
0.000326984
0.000449094
0.000367622
0.000328945
0.000411035
0.000341613
0.00044735
0.000374005
0.000479334
0.000839942
8.98839e-05
8.89626e-05
5.98999e-05
0.000163626
6.52337e-05
0.000108068
0.000176656
0.000122773
0.000328122
0.000540365
0.000753518
0.000553761
0.00223894
0.000462843
0.00238979
0.000590287
0.000585897
0.00229962
0.000524915
0.000711543
0.000636639
0.00220815
0.000742765
0.000618219
0.000645244
0.00134335
0.00232935
0.000619003
0.000494086
0.000682452
0.0010588
0.000465803
0.00311846
0.00117354
0.00113954
0.000673647
0.000826032
0.000938125
0.00134004
0.00300947
0.000561187
0.000838383
0.000833323
0.000764739
0.00164356
0.00172837
0.0018536
0.00277196
0.000438869
0.000388369
0.000904204
0.00059469
0.00101833
0.000978127
0.00181328
0.0025286
0.0029882
0.000681069
0.00100385
0.00127931
0.000980453
0.00154314
0.00163121
0.00124201
0.00164859
0.00138848
0.00322048
0.000728747
0.00056173
0.000984064
0.000465168
0.000695809
0.000565587
0.000943026
0.000867336
0.000933657
0.00119042
0.00175412
0.000207684
0.000411487
0.00026658
0.000364048
0.00035865
0.000255981
0.000482088
0.000235301
0.000303343
0.00039632
0.00085174
0.00208622
6.86885e-05
8.00747e-05
8.48359e-05
3.4685e-05
0.000131644
6.13158e-05
0.000113592
0.000172972
0.000125903
0.000319412
0.000523328
0.000592347
0.000482342
0.00242453
0.000528047
0.00229646
0.000595311
0.00064012
0.0023304
0.000577249
0.000632633
0.000605822
0.0022403
0.00032629
0.000455958
0.000449667
0.000612025
0.00225616
0.000640046
0.000649742
0.000754016
0.000654929
0.000956074
0.00228136
0.0011352
0.000507879
0.000357275
0.00110198
0.00143955
0.000422548
0.00294402
0.0013015
0.00126291
0.000748563
0.000881481
0.000720133
0.000938243
0.00174924
0.00297576
0.000900789
0.000686105
0.000716536
0.00108047
0.00132573
0.00139656
0.00232149
0.00235364
0.0029218
0.000695232
0.000765979
0.000341429
0.00102864
0.00140154
0.00101275
0.00101711
0.00134287
0.00247669
0.00265162
0.000864272
0.000809078
0.000732123
0.000971153
0.00120382
0.00113204
0.00165801
0.000972598
0.0020412
0.000802334
0.00294248
0.000694558
0.000683795
0.000600776
0.000552959
0.000554016
0.000851503
0.000430144
0.000898681
0.000574641
0.000782163
0.00143828
0.00195222
0.000655717
0.000135764
0.000450787
0.000283524
0.000341168
0.000358582
0.000306077
0.000554055
0.000250911
0.000222829
0.000301525
0.000855084
0.000989853
0.000247121
0.000387271
7.51741e-05
7.65523e-05
3.56474e-05
8.24906e-05
8.61504e-05
0.00011037
0.000166102
0.000138026
0.000318188
0.000515255
0.000456981
0.000433053
0.00242785
0.00040404
0.00238726
0.000329399
0.00064049
0.00227635
0.000428974
0.000612961
0.000608875
0.00234553
0.000392127
0.000543288
0.000693057
0.000502193
0.00219497
0.000650374
0.000563567
0.00036784
0.000395827
0.000766102
0.00219433
0.000910412
0.000636401
0.000447117
0.000840425
0.000600952
0.000940428
0.00260427
0.00159831
0.000574369
0.000518391
0.000524688
0.00121999
0.000974677
0.000581931
0.00296841
0.000957545
0.00148602
0.00091322
0.000794358
0.000718081
0.00101136
0.00101837
0.00197238
0.00293054
0.00047822
0.000681187
0.000659837
0.000685116
0.000955679
0.0012899
0.00149006
0.00236494
0.00190324
0.00271224
0.000777278
0.000712361
0.000517325
0.000466029
0.000837193
0.0012687
0.000936888
0.000949101
0.000723573
0.00224001
0.0022921
0.00109249
0.000964614
0.000880786
0.000919739
0.00110014
0.000935319
0.00148264
0.00147671
0.00142432
0.00122929
0.000947846
0.00330644
0.000522866
0.000599419
0.000707339
0.000546153
0.000725332
0.00051458
0.000561449
0.000472304
0.000874956
0.000547319
0.00117521
0.00140184
0.00176475
0.000278772
0.000442539
0.0001074
0.000285955
0.000361114
0.000321115
0.000360454
0.000341643
0.00051554
0.000238536
0.000493423
0.000234055
0.000715019
0.000808558
0.000158207
0.000141767
0.000233667
9.25113e-05
0.000110074
0.000125582
5.77864e-05
8.00287e-05
9.76978e-05
0.000159998
0.000162135
0.000309926
0.00048242
0.000349677
0.00039342
0.00208757
0.000537245
0.00238745
0.000256852
0.000560978
0.00237246
0.000254209
0.000466892
0.000490622
0.00237879
0.000569629
0.000456511
0.000591444
0.000676071
0.00226378
0.000388102
0.000518949
0.000567429
0.000409058
0.000431779
0.00220029
0.000611379
0.000634149
0.000569862
0.00060278
0.000584626
0.000696739
0.00234138
0.000616259
0.000631885
0.000499015
0.000578447
0.000802772
0.000858667
0.000877364
0.00252145
0.00140462
0.000911759
0.000534368
0.00068864
0.000832945
0.000998891
0.000721976
0.00113055
0.00297478
0.000969236
0.00148195
0.00109862
0.000724899
0.00079637
0.00100933
0.00117986
0.00126557
0.00152658
0.00272968
0.000220825
0.000419274
0.000886443
0.000519159
0.000561892
0.000932302
0.00135415
0.00209808
0.00183227
0.0014468
0.00273107
0.000503523
0.000723134
0.000740538
0.000446803
0.00086153
0.000623
0.00101192
0.000481158
0.00347444
0.00194938
0.00141168
0.0027663
0.00108727
0.00101654
0.000897472
0.000657025
0.000677196
0.00128285
0.00111604
0.00131807
0.00117622
0.000937365
0.0013416
0.00153435
0.00345301
0.000299627
0.000647128
0.000697831
0.000652637
0.000618667
0.000717225
0.000577019
0.000528452
0.000482391
0.000703937
0.00060638
0.00101851
0.00179658
0.00181933
0.000868014
0.000311332
0.000445706
0.000285737
0.000487488
0.000522953
0.000405261
0.000334715
0.00026993
0.000569475
0.000315524
0.000603067
0.000587279
0.000709206
0.000982069
0.000132849
0.00015282
0.000117712
0.00035301
5.08481e-05
0.000128263
8.90492e-05
4.36231e-05
0.000105101
0.000106273
0.000124677
0.000148814
0.000316992
0.000455284
0.000287549
0.000352805
0.00214733
0.000326318
0.00214892
0.000416621
0.000401976
0.00231235
0.000450301
0.000306776
0.000439995
0.00236137
0.000708292
0.000403287
0.000424021
0.000391168
0.00238371
0.000363936
0.000292689
0.000305278
0.000571843
0.000575943
0.00223642
0.00048279
0.000467017
0.000308727
0.000432755
0.000471393
0.00024248
0.00225067
0.000753959
0.000656133
0.000647782
0.000355686
0.000765891
0.000402612
0.000498354
0.00241794
0.000454723
0.000790697
0.000418704
0.000584883
0.000948285
0.000694592
0.000892263
0.000755493
0.00245719
0.00117012
0.00153315
0.000411735
0.000677029
0.000888898
0.000798549
0.000716786
0.000965689
0.00130464
0.00241472
0.00084922
0.000925819
0.00128751
0.000716737
0.000591451
0.000892723
0.00142456
0.00148895
0.00198068
0.00108012
0.00272069
0.000461036
0.000390632
0.000620419
0.000665175
0.0006968
0.000950563
0.00139644
0.001126
0.00167305
0.00117463
0.00149206
0.00254226
0.000960213
0.000734456
0.000819119
0.000865037
0.000248133
0.000644794
0.00090664
0.00119118
0.00127396
0.000961309
0.00081302
0.00143413
0.00322346
0.000915347
0.00112248
0.00101125
0.000856556
0.000747566
0.000897474
0.00107312
0.00107909
0.00142112
0.000800569
0.00146065
0.00114153
0.00137624
0.00321567
0.000141689
0.00102384
0.000626784
0.000515559
0.000708738
0.000520173
0.000598913
0.000352328
0.000472052
0.000376872
0.000460089
0.000616142
0.00135326
0.00224248
0.00179143
0.000563736
0.000507175
4.07758e-05
0.000111599
0.000116745
0.000343639
0.000240172
0.00040113
0.000297286
0.000221209
0.000635254
0.000408516
0.000524448
0.000719904
0.000771109
0.000974596
0.000178599
0.000230238
0.000168132
0.000148357
0.000110896
5.66667e-05
8.07923e-05
7.13847e-05
3.87073e-05
9.47635e-05
0.000106855
0.000114812
0.00016682
0.00033311
0.000413435
0.000237923
0.000322376
0.00218237
0.000421247
0.00210892
0.000326746
0.000630186
0.00208583
0.000355415
0.000399987
0.000649804
0.00223499
0.000446047
0.000449038
0.000421528
0.000308482
0.00240013
0.000486023
0.000276765
0.000419051
0.000284582
0.000373963
0.00231214
0.000458309
0.000311267
0.000506781
0.000251388
0.000547926
0.000438016
0.00205208
0.000517117
0.000383681
0.000449248
0.000299806
0.000624919
0.000337806
0.000241622
0.0024361
0.000593443
0.000554863
0.000497243
0.000624022
0.000631287
0.000454166
0.000357156
0.000374709
0.00254409
0.000578613
0.000888466
0.000731301
0.000628014
0.00102541
0.00091764
0.000871469
0.000997697
0.00082572
0.00250115
0.000778012
0.00115825
0.000726735
0.000455659
0.000753479
0.00122946
0.00158578
0.000634199
0.000767538
0.00105952
0.00258895
0.000975446
0.000766339
0.000843761
0.00085059
0.00073097
0.00109099
0.00146846
0.00125884
0.0016564
0.00216005
0.00112374
0.00268895
0.00045884
0.000109716
0.000437615
0.000693717
0.00100885
0.00042586
0.000662846
0.00132198
0.000848517
0.00227196
0.00156619
0.0016849
0.00260155
0.000930563
0.000855568
0.000355173
0.000982786
0.000417581
0.000326634
0.000436998
0.000741567
0.000948751
0.000899008
0.00182472
0.00097577
0.00135576
0.003315
0.000578513
0.000804778
0.00131599
0.000860075
0.000822043
0.000644422
0.000744534
0.00109443
0.00103911
0.00119431
0.000801608
0.00104872
0.00179789
0.00131713
0.00328581
0.000433658
0.00034189
0.000388259
0.000394574
0.000474617
0.000646985
0.000555437
0.000404687
0.000367146
0.000394292
0.000387689
0.000496327
0.000340459
0.00127782
0.00173804
0.00155135
0.00045021
0.000628037
0.000988322
0.000670476
0.000209823
0.000173486
0.000221121
0.000523236
0.000353733
0.00032406
0.000198622
0.000578577
0.000491305
0.000751874
0.000673518
0.000629433
0.000782035
0.000142997
0.000155654
0.000251734
0.000134667
0.000187716
9.76977e-05
5.40423e-05
8.67703e-05
8.3228e-05
4.47286e-05
8.77713e-05
0.000105599
0.000165515
0.000228829
0.000352816
0.000215503
0.000211341
0.000298347
0.00229611
0.000379111
0.00223069
0.000304197
0.000327613
0.00213242
0.000508002
0.000352455
0.000546951
0.00205869
0.000425484
0.000378486
0.000308257
0.000416092
0.00224506
0.000435727
0.000403709
0.000542929
0.000571347
0.000319604
0.00229612
0.000453074
0.000291519
0.000393236
0.000346862
0.000406229
0.000581664
0.00231848
0.000427516
0.000233476
0.000370094
0.000287107
0.000472763
0.000673271
0.000284409
0.00227973
0.000376166
0.000410168
0.00035839
0.000487722
0.000444911
0.000550945
0.000360495
0.000287013
0.00230951
0.000614155
0.000583737
0.000480417
0.000496715
0.000752403
0.000664373
0.000427763
0.000319746
0.000241134
0.00261756
0.00064641
0.000363384
0.000789561
0.000757518
0.000958087
0.000803446
0.000713217
0.000945299
0.00130569
0.000800598
0.00227876
0.000694202
0.000868312
0.000878165
0.000582145
0.000646507
0.000853069
0.00130013
0.00174708
0.000902803
0.00114187
0.000744312
0.00259251
0.000776934
0.000609193
0.000887178
0.000543827
0.000523665
0.00105529
0.00181299
0.00131356
0.0010427
0.00156951
0.00142502
0.00128696
0.00267848
0.000365288
0.000323622
0.000161802
0.000617223
0.000444388
0.000439903
0.000875686
0.00065401
0.000380973
0.000967702
0.000712978
0.00124862
0.00138615
0.00277607
0.000926496
0.000899424
0.000802414
0.000648379
0.000693044
0.000640209
0.000515128
0.00101338
0.000989006
0.00072235
0.000728377
0.00176882
0.000555514
0.00150156
0.00336736
0.000680519
0.000489938
0.00116106
0.000983564
0.000953944
0.000653794
0.000691719
0.000823878
0.00110125
0.000959316
0.0011879
0.000827702
0.00161396
0.00134388
0.00111202
0.00324469
0.0006749
0.000793418
0.000441396
0.000648639
0.000409946
0.000485072
0.000566701
0.000477073
0.000455429
0.000725075
0.000386747
0.000498786
0.000583813
0.000601222
0.00139091
0.00149199
0.00123687
0.000201979
0.000599188
0.000452488
0.000332702
0.000269014
0.000200082
0.000172238
0.00027108
0.000411023
0.000302551
0.000290279
0.000171991
0.000506841
0.000599182
0.000812766
0.000709075
0.00054035
0.000713258
0.000290368
0.000136161
0.000200118
0.000197779
0.000149358
0.000163027
6.55541e-05
0.000107706
0.000112378
8.86618e-05
5.60169e-05
0.00010512
8.68486e-05
0.000100124
0.000239557
0.00037405
0.000181287
0.000210896
0.000283617
0.002307
0.000421826
0.00230755
0.000346793
0.000451169
0.00225247
0.000497754
0.000458877
0.000531851
0.00211631
0.000414265
0.000390273
0.000403565
0.000589808
0.00211402
0.00044947
0.000504214
0.000386949
0.000417581
0.000483986
0.00221403
0.000444922
0.000341042
0.000325655
0.000723313
0.000523092
0.000445601
0.0024513
0.000513531
0.000364783
0.000362954
0.00034693
0.00024955
0.000611075
0.000748733
0.00248478
0.000275589
0.000396711
0.000251313
0.000315826
0.000381601
0.000511149
0.000556785
0.000490099
0.00254582
0.000435235
0.000393306
0.000453214
0.000575978
0.000484497
0.000383209
0.000308986
0.000496925
0.00033785
0.00246194
0.000673507
0.000492779
0.000507491
0.000457531
0.000456944
0.000757342
0.000869659
0.000591575
0.000346796
0.000333692
0.0023441
0.000766799
0.0006681
0.000634309
0.000607083
0.000887786
0.00148204
0.000837606
0.00100927
0.000891303
0.00118567
0.000475312
0.00227959
0.000599732
0.0014685
0.000902173
0.000596757
0.000652211
0.000969986
0.0012941
0.00124946
0.000600799
0.000990142
0.00119846
0.000794394
0.00263991
0.000513265
0.000673523
0.000680278
0.000684193
0.000608483
0.000807042
0.00150166
0.0012738
0.000611013
0.00136353
0.00135289
0.00157621
0.00117782
0.0028348
0.000352514
0.000351649
0.000331021
0.000300626
0.000556533
0.000604501
0.000308893
0.000533916
0.000764082
0.000321259
0.000772115
0.00133881
0.00112595
0.0012644
0.00279253
0.000470902
0.000936449
0.000965765
0.000647559
0.000787289
0.000478595
0.00040761
0.00086288
0.00067007
0.00132736
0.0013404
0.000376858
0.00228459
0.0014367
0.00211654
0.00364667
0.000679126
0.000878965
0.000457795
0.00110104
0.00108669
0.000935512
0.000883378
0.00071119
0.00080926
0.000894296
0.00103531
0.00111278
0.000645862
0.00150064
0.00195738
0.00129924
0.00280657
0.000525124
0.000313489
0.000518036
0.000216398
0.000398517
0.000269607
0.000434024
0.000892577
0.000468326
0.000476134
0.000425444
0.000304572
0.000423529
0.000625576
0.000440792
0.00134927
0.00130999
0.00123187
0.000372897
0.000260099
0.000657661
0.000677489
0.00081115
0.000346411
0.000339567
0.000324717
0.000261975
0.00033823
0.000353907
0.00026384
0.000167026
0.000453752
0.000753644
0.000825588
0.000497291
0.000455793
0.000659874
0.000175078
0.000192257
0.000164641
0.00022092
0.000155464
0.00020329
0.000128076
0.000147887
0.000103647
0.000115335
8.38349e-05
3.04974e-05
9.59323e-05
0.000114906
0.00015836
0.000328176
0.000385751
0.000378324
0.000184317
0.000267221
0.00231711
0.000430054
0.0023323
0.000161642
0.000434982
0.00227438
0.000125208
0.000379251
0.000365585
0.00231256
0.000149909
0.000280777
0.000405585
0.000591043
0.00217266
0.00024914
0.000453198
0.000392549
0.000328852
0.000498712
0.00220212
0.000592988
0.000397306
0.000383489
0.000182139
0.000660849
0.000310596
0.00215085
0.000488067
0.000355578
0.000329284
0.000298119
0.000699022
0.000162135
0.000276832
0.00266417
0.000314076
0.000287879
0.00028817
0.000268665
0.000292632
0.000358478
0.000523729
0.00074771
0.00253133
0.0005078
0.000345429
0.000408515
0.000386517
0.000417737
0.000438687
0.000403794
0.000529576
0.000515556
0.00260387
0.000419585
0.00040081
0.000348959
0.000280726
0.000622305
0.000432989
0.000509457
0.000444756
0.000570812
0.000696038
0.0025112
0.000764423
0.000639971
0.000477079
0.000460167
0.000624279
0.00110845
0.000533246
0.000781029
0.000628199
0.000406273
0.000647902
0.00249746
0.000689876
0.000453808
0.000782865
0.000744593
0.000780214
0.00101217
0.00109315
0.00107091
0.000888022
0.000908533
0.00102823
0.000638492
0.00225129
0.00097253
0.00121483
0.00078993
0.000995237
0.000794988
0.000895978
0.00150914
0.00162309
0.000950834
0.000666534
0.000986018
0.00106369
0.00059107
0.00276984
0.00032617
0.000493558
0.000651498
0.000862752
0.00052826
0.000440409
0.000697867
0.00124728
0.000864803
0.000832863
0.00138256
0.00127955
0.00159813
0.00110343
0.00334338
0.000815951
0.000331449
0.000422988
0.000143639
0.000411336
0.000549692
0.000735651
0.000608124
0.00108744
0.000739716
0.000471824
0.000950109
0.00171056
0.00166727
0.00160444
0.00302327
0.00126179
0.000938723
0.000884275
0.00106908
0.000900605
0.000705289
0.000662671
0.000624769
0.000656708
0.00123254
0.000860079
0.00103384
0.000787874
0.00132656
0.00129677
0.00231672
0.00352178
0.00057533
0.00045469
0.000518712
0.000591663
0.000871807
0.00074721
0.000942688
0.000788518
0.000763054
0.000694995
0.000970195
0.000896074
0.00101415
0.000851647
0.00161081
0.00127798
0.00168678
0.0025509
0.000558528
0.000447255
0.000460345
0.000514056
0.000327326
0.000643574
0.000303905
0.000420939
0.000584927
0.000508592
0.000509068
0.000419786
0.000242587
0.000378276
0.000754047
0.000801123
0.0011787
0.00135427
0.00129377
0.000391107
0.000324977
0.000312529
0.000508952
0.00052269
0.000438157
0.000206949
8.11418e-05
0.000356702
0.000272957
0.000254269
0.000318633
0.000168274
0.000162165
0.000401816
0.000597813
0.000813638
0.00052894
0.000409036
0.000576008
0.000197002
0.000238958
0.000112997
0.000119972
0.000245645
0.000130809
0.000138896
0.000199515
7.67014e-05
0.000132441
8.15444e-05
8.3145e-05
3.89322e-05
8.46073e-05
0.000121173
0.000168545
0.00038287
0.000352837
0.00014085
0.000172618
0.00025573
0.00214622
0.000564022
0.00229125
0.000330703
0.000483647
0.00232955
0.000353492
0.000258554
0.000461435
0.00224806
0.000265936
0.000151825
0.000349221
0.00042045
0.00228631
0.000304492
0.000218142
0.000223175
0.000182658
0.000496043
0.00226587
0.000297279
0.000248424
0.000412021
0.000326591
0.000312697
0.000397684
0.0022405
0.000307043
0.000386041
0.000378877
0.000256203
0.000401395
0.000643141
0.000417176
0.00221811
0.000374161
0.000312166
0.000326283
0.000163059
0.000459096
0.000559418
0.000397352
0.000266262
0.00276108
0.000389422
0.000283107
0.000443985
0.000318773
0.000328041
0.000268746
0.000260296
0.000361801
0.000699246
0.00277728
0.000501002
0.000396987
0.000386471
0.000298102
0.000642823
0.000370873
0.000367658
0.000434125
0.000429001
0.000794474
0.0027547
0.000550698
0.000526582
0.00048011
0.000432897
0.000535885
0.000460669
0.000378194
0.000583728
0.000602566
0.000759516
0.000740707
0.00251904
0.000719108
0.000583213
0.000438514
0.000364398
0.000632341
0.000604463
0.00104603
0.000746357
0.000561214
0.000717639
0.00022293
0.000582974
0.00241639
0.000772674
0.000385554
0.000885981
0.000857061
0.000960311
0.00135359
0.00121419
0.000770642
0.000901622
0.00092171
0.000782555
0.00102798
0.000669312
0.00228663
0.000897903
0.000696719
0.000814181
0.000541957
0.000895059
0.000866606
0.00187607
0.00187931
0.00121659
0.000708324
0.00129462
0.00099213
0.000995023
0.000955102
0.00240378
0.000268418
0.000371003
0.000484298
0.000586373
0.000447429
0.000431554
0.00040574
0.00110624
0.000914846
0.000872474
0.00145303
0.00128792
0.0015356
0.00167143
0.0012681
0.00343339
0.00091575
0.000588749
0.000309187
0.000303738
0.000317758
0.00029768
0.000584165
0.00044531
0.00128503
0.00101059
0.00065006
0.000434053
0.00117096
0.00125483
0.00181581
0.00207109
0.00301832
0.00115429
0.00114474
0.000807202
0.00102996
0.00112739
0.000753517
0.000789028
0.000421928
0.000765392
0.000836041
0.000696375
0.000810488
0.00122876
0.00162129
0.00110564
0.00127484
0.00175091
0.00340522
0.000660933
0.000296041
0.000603928
0.000535751
0.000918225
0.000595845
0.000889495
0.0009501
0.000636576
0.000655276
0.000736781
0.000806647
0.00086835
0.000967662
0.000695187
0.00237352
0.00142682
0.00118709
0.00261942
0.000777908
0.000540796
0.000394728
0.000733081
0.000379832
0.00113915
0.000515451
0.000339428
0.000555827
0.000510718
0.000508569
0.000572405
0.000649865
0.000185451
0.000321907
0.000709992
0.000625381
0.00109106
0.00128835
0.00119289
0.00125614
0.000383772
0.000254233
0.000415731
0.000463175
0.000349535
0.00044744
0.000101149
0.000269263
0.000338569
0.000389043
0.000195592
0.000269111
0.00018229
0.000171092
0.000416287
0.000662476
0.000782777
0.0003806
0.000421602
0.000597872
0.000177719
0.000188765
0.000206642
0.000161054
0.000113424
0.000222314
0.000137428
0.000208486
0.000162678
6.5018e-05
0.000133057
6.46036e-05
7.72086e-05
3.34044e-05
9.00597e-05
2.40886e-05
0.000102014
0.000382668
0.000351914
0.000128052
0.000156944
0.000249249
0.00212146
0.000356254
0.00216758
0.000227123
0.000415645
0.00232074
0.000354564
0.000415602
0.000489422
0.00237363
0.000321007
0.000340664
0.000383598
0.000534318
0.00222945
0.000521405
0.000245411
0.00022425
0.000134008
0.000607606
0.00222697
0.000367818
0.000124258
0.000454713
0.000305703
0.000227554
0.000509853
0.00230631
0.000308737
0.000235653
0.000291774
0.000188801
0.000241065
0.000488935
0.000368489
0.00229636
0.00034147
0.000343961
0.000311352
0.000274628
0.000439681
0.000576415
0.000320528
0.000226906
0.00215967
0.000240609
0.000266258
0.000389629
0.000229684
0.000390436
0.000408582
0.000488631
0.000370174
0.000638796
0.00265339
0.000277321
0.000374782
0.000281484
0.000337719
0.000499644
0.000356017
0.000357732
0.000471002
0.000515235
0.000789073
0.00289342
0.000534732
0.000419754
0.000494514
0.000382014
0.000212482
0.000489628
0.000302701
0.000468332
0.00042113
0.000526526
0.00116728
0.00275345
0.000482147
0.000531952
0.000631168
0.000609229
0.000762885
0.00068797
0.00100269
0.000444311
0.000534793
0.000647535
0.000649941
0.00100731
0.00271079
0.000526036
0.000649649
0.000614096
0.000819607
0.000603673
0.00078885
0.000967688
0.000511308
0.000743619
0.000624239
0.000650788
0.000894023
0.000557107
0.00249762
0.000572174
0.000686781
0.000605393
0.000639678
0.000797417
0.00122039
0.00141205
0.00131493
0.000931957
0.000834193
0.000877764
0.000667242
0.000594935
0.000652603
0.00250877
0.000667922
0.000823476
0.000634701
0.000560904
0.000969934
0.000874331
0.0015449
0.00196723
0.00111105
0.000637783
0.00098217
0.00113663
0.0012111
0.00121696
0.000750593
0.00234969
0.000205671
0.000443304
0.000334799
0.000534732
0.000669328
0.000591477
0.00060688
0.000757671
0.00141098
0.000459212
0.00053693
0.00134076
0.00133177
0.00193224
0.00201352
0.00203952
0.00288584
0.000995448
0.00127087
0.000488072
0.000288212
0.000216972
0.00025979
0.000450685
0.000831617
0.000809444
0.000909773
0.000990648
0.000668214
0.00078373
0.00107451
0.000750366
0.00157547
0.00201705
0.00274311
0.00120482
0.00100505
0.00108859
0.000987858
0.000953894
0.000841931
0.000971274
0.000914576
0.000528553
0.000824174
0.00081509
0.000691656
0.00102132
0.001316
0.00221174
0.000781535
0.000646491
0.0018847
0.00329528
0.000653161
0.000480779
0.000361149
0.000634782
0.000655619
0.000743952
0.000940181
0.000887042
0.000884344
0.000660552
0.000652018
0.000781647
0.000859069
0.000850409
0.000635602
0.001077
0.00129083
0.00112267
0.00128754
0.00350295
0.00108337
0.000939351
0.000328017
0.000407445
0.00142687
0.000772599
0.000284586
0.00041497
0.000285517
0.000436276
0.00052693
0.000539026
0.000603722
0.000314437
0.000208842
0.000243905
0.000505156
0.00076169
0.00126422
0.00123429
0.00140013
0.000609987
0.000911939
0.000364937
0.000196353
0.000490675
0.000638831
0.000359404
0.000645285
0.000310155
0.000232881
0.000357579
0.0002191
0.000211527
0.000265244
0.000203213
0.000205937
0.000390376
0.000838885
0.000637889
0.000352203
0.000364983
0.000551609
0.00024717
0.000205811
0.0001493
0.000144212
0.000172367
0.000190344
0.000105313
0.00022712
0.000136877
0.000185092
0.000123861
0.000293672
0.000110376
6.42586e-05
7.82258e-05
3.315e-05
0.000102246
6.76724e-05
0.000151818
0.000380186
0.000248423
0.000202525
0.000151357
0.000244745
0.00209754
0.000406487
0.00210206
0.000477821
0.000415225
0.00223651
0.00053048
0.000278213
0.000519252
0.00229277
0.000431191
0.000377388
0.000378962
0.000681109
0.00236435
0.000374422
0.000217034
0.000432429
0.000499573
0.000462994
0.00221823
0.000418725
0.000452827
0.000153908
0.000318628
0.000369131
0.000569947
0.00221633
0.000376107
0.000445386
0.000197292
0.000422502
0.000269845
0.000245675
0.000425957
0.00230221
0.000283199
0.000634081
0.000309293
0.000220223
0.000425045
0.000298572
0.000347979
0.000333354
0.00231407
0.000404355
0.000315883
0.000305056
0.000275324
0.000161668
0.000360632
0.000558156
0.000509229
0.000388502
0.0022329
0.00043403
0.000205818
0.000239854
0.00038346
0.000335288
0.000359731
0.000175956
0.000523795
0.00038131
0.00056394
0.00235499
0.000442625
0.000338055
0.000306064
0.000459182
0.000276699
0.000541282
0.000332129
0.000631083
0.000500875
0.000376209
0.000683141
0.00272491
0.000653603
0.000543181
0.000397525
0.000613345
0.000552726
0.000427379
0.000555786
0.000554883
0.000823396
0.000653678
0.000701108
0.000892341
0.00257272
0.000532346
0.000647724
0.000481777
0.000539307
0.000588549
0.000660093
0.000650363
0.000663517
0.000494289
0.000604186
0.000572314
0.000746194
0.00115448
0.00264295
0.000670305
0.000821458
0.00046948
0.000482915
0.000711966
0.000797747
0.00104142
0.00131725
0.000530794
0.000748822
0.000699043
0.00067078
0.000983788
0.000834732
0.00259939
0.000671452
0.000511957
0.000184151
0.000659059
0.000590584
0.00125574
0.0010827
0.00114225
0.000841727
0.00103928
0.00106156
0.0010719
0.000807785
0.000687786
0.000781237
0.00257765
0.000587383
0.000677444
0.000872547
0.000694998
0.000713157
0.000884425
0.00106834
0.00184614
0.000992549
0.00124215
0.000985026
0.00117061
0.00125883
0.00138187
0.00121529
0.000930722
0.00232484
0.000320145
0.000174815
0.00047678
0.00051283
0.000560336
0.00052515
0.000341432
0.000953633
0.00119647
0.000565299
0.000713024
0.000959127
0.00108111
0.00140942
0.00155688
0.0018833
0.00178288
0.00316243
0.0012786
0.0011613
0.000893008
0.000568189
0.000384198
0.000382857
0.000419537
0.000498014
0.000665239
0.00118892
0.00116108
0.00107663
0.000793023
0.00110183
0.000663008
0.000976565
0.00142555
0.00204134
0.00281339
0.00145858
0.00114571
0.00104172
0.000946208
0.00124037
0.000999195
0.000936125
0.00126061
0.000757455
0.000560535
0.000574503
0.00085292
0.000718039
0.000553339
0.00076934
0.00162866
0.000734922
0.000785914
0.00149875
0.00321156
0.000948021
0.00152139
0.000431889
0.000466716
0.000471299
0.00059655
0.00103485
0.000556674
0.000947025
0.000841752