/*--------------------------------*- C++ -*----------------------------------*\
  =========                 |
  \\      /  F ield         | OpenFOAM: The Open Source CFD Toolbox
   \\    /   O peration     | Website:  https://openfoam.org
    \\  /    A nd           | Version:  7
     \\/     M anipulation  |
\*---------------------------------------------------------------------------*/
FoamFile
{
    version     2.0;
    format      ascii;
    class       volScalarField;
    location    "5";
    object      p;
}
// * * * * * * * * * * * * * * * * * * * * * * * * * * * * * * * * * * * * * //

dimensions      [0 2 -2 0 0 0 0];

internalField   nonuniform List<scalar> 
18750
(
-79.1976
-80.9699
-79.7142
-79.1065
-77.3133
-83.2801
-80.569
-79.5781
-79.6183
-79.0104
-70.0188
-81.5354
-77.0201
-84.2065
-82.791
-80.1405
-78.2033
-79.6199
-79.4805
-78.9133
-67.3909
-74.3425
-69.9881
-86.3139
-80.5031
-76.1275
-80.3644
-84.1149
-82.3602
-79.6914
-76.5834
-78.2402
-79.6375
-79.3397
-78.821
-63.3504
-71.4931
-67.3195
-80.4385
-75.5251
-70.6025
-82.6432
-86.2278
-80.3333
-75.509
-76.5675
-80.4683
-83.9714
-81.8796
-79.2625
-76.663
-76.6388
-78.2683
-79.629
-79.1865
-78.7228
-62.2568
-65.2192
-64.0806
-73.2789
-71.8679
-67.3139
-79.9236
-80.2562
-76.0503
-70.9737
-76.8411
-83.2666
-86.0666
-79.8667
-75.2916
-76.3243
-76.682
-80.5662
-83.8497
-81.5344
-78.9782
-76.6847
-76.685
-76.6781
-78.3128
-79.5994
-79.051
-78.6145
-59.9804
-62.8323
-62.2689
-64.5759
-65.4014
-65.2315
-72.0362
-73.2412
-72.1315
-66.6245
-75.3953
-81.0907
-79.7216
-75.5072
-71.2474
-75.0553
-77.5633
-83.6477
-86.0446
-79.4398
-74.8562
-76.3326
-76.3618
-76.8681
-80.6054
-83.7282
-81.0604
-78.7871
-76.3787
-76.7055
-76.6953
-76.699
-78.3275
-79.5486
-78.9864
-78.5148
-58.5678
-60.5955
-59.6132
-62.8006
-63.3005
-62.6164
-65.9956
-65.3201
-65.5116
-65.4648
-71.8553
-72.6634
-72.8188
-72.7327
-65.7956
-73.1566
-76.1294
-82.0145
-79.9406
-75.0136
-70.9282
-75.256
-75.2763
-78.1213
-83.983
-85.8822
-79.042
-74.4331
-75.7532
-76.3404
-76.3999
-77.098
-80.6252
-83.4791
-80.551
-78.2515
-76.3374
-76.4
-76.7257
-76.7042
-76.7154
-78.2925
-79.488
-78.9677
-78.4134
-57.9418
-58.3512
-58.6359
-60.8322
-60.71
-59.482
-63.3827
-62.705
-63.0565
-62.807
-66.876
-66.6837
-65.8403
-65.4956
-65.43
-71.8724
-72.0645
-73.5306
-72.2245
-73.1794
-66.047
-73.5824
-73.6482
-77.0072
-82.6347
-80.157
-75.0788
-70.729
-75.8592
-75.4236
-75.5086
-78.5121
-84.2794
-85.2954
-78.147
-73.9414
-75.7319
-75.7994
-76.3673
-76.4438
-77.2887
-80.6539
-83.1562
-80.0538
-77.7342
-76.4991
-76.3651
-76.4219
-76.7459
-76.7193
-76.7332
-78.26
-79.4171
-78.9689
-78.318
-57.2881
-58.03
-57.9499
-58.9868
-58.5905
-58.4612
-60.6714
-61.1567
-60.6371
-59.6223
-63.5299
-63.5355
-62.4805
-62.8802
-62.8128
-66.7181
-67.3715
-67.1702
-66.05
-64.8494
-65.5885
-71.4772
-72.6732
-72.5643
-74.2154
-72.1121
-73.064
-66.4504
-73.2662
-73.8628
-74.3146
-78.1128
-83.0973
-80.2416
-75.7828
-69.9449
-75.6164
-75.9042
-75.6044
-75.7597
-78.7759
-84.3987
-84.5843
-77.2255
-73.7636
-75.4675
-75.745
-75.8631
-76.3953
-76.4874
-77.4319
-80.65
-82.8052
-79.682
-77.552
-76.3201
-76.5141
-76.3907
-76.4422
-76.7656
-76.7351
-76.756
-78.2369
-79.3338
-78.9404
-78.2318
-56.4167
-57.0541
-57.3745
-58.0644
-58.1415
-57.9286
-59.1307
-59.0464
-58.6402
-58.4568
-60.6082
-60.9113
-61.4157
-60.7225
-59.7485
-63.817
-63.9933
-63.4767
-62.0102
-62.7784
-62.7868
-66.7112
-67.0959
-67.9724
-67.5315
-65.9352
-65.7246
-65.8853
-70.8944
-71.6664
-73.2873
-73.4808
-74.3549
-72.1787
-73.0556
-66.5452
-73.524
-73.0975
-74.3557
-74.6731
-79.4153
-83.6957
-80.1166
-76.222
-69.0396
-74.7063
-75.4716
-76.0028
-75.7677
-76.0215
-78.8524
-84.3926
-83.6247
-76.7225
-73.63
-75.5269
-75.5756
-75.7659
-75.9313
-76.4318
-76.5369
-77.5243
-80.5899
-82.4179
-79.379
-77.1517
-76.1679
-76.3538
-76.5288
-76.4174
-76.466
-76.7842
-76.7504
-76.7814
-78.2154
-79.2731
-78.8745
-78.1463
-55.9464
-56.3738
-56.4637
-57.2214
-57.1409
-57.4458
-58.0319
-58.0739
-58.2465
-57.9051
-59.334
-59.3092
-59.0845
-58.7295
-58.5798
-61.0765
-61.1557
-60.9226
-61.3072
-60.737
-59.918
-64.1006
-64.151
-64.1377
-63.3686
-62.062
-62.5897
-62.299
-67.0381
-67.1165
-67.4678
-68.6936
-67.9401
-65.5851
-65.4184
-66.3018
-70.7863
-71.1763
-72.0076
-73.3313
-74.5928
-74.8728
-71.5843
-73.538
-66.7312
-73.1003
-73.6817
-73.5006
-74.5736
-74.9966
-80.6052
-83.9732
-79.7995
-76.2391
-69.1126
-73.8096
-74.901
-75.5091
-76.0876
-75.985
-76.2483
-78.9044
-84.4659
-82.7103
-76.2698
-73.3772
-75.4076
-75.5951
-75.6916
-75.8004
-76.0034
-76.4726
-76.5984
-77.572
-80.5042
-82.0171
-78.9171
-76.7841
-76.1031
-76.1853
-76.3885
-76.5395
-76.4447
-76.492
-76.7994
-76.7652
-76.8046
-78.1941
-79.2364
-78.789
-78.0834
-55.5876
-55.9805
-55.9241
-56.5704
-56.3763
-56.5239
-57.2598
-57.2188
-57.2142
-57.4585
-58.0678
-58.1179
-58.2599
-58.2526
-57.9059
-59.6832
-59.5265
-59.3202
-59.0805
-59.011
-58.7516
-61.098
-61.2869
-61.4117
-60.8869
-61.4192
-60.7181
-60.3007
-64.22
-64.4736
-64.5204
-64.2684
-63.5702
-61.8889
-62.1594
-61.8584
-67.5539
-67.4999
-67.5957
-67.8753
-69.0872
-67.7788
-65.6592
-65.3748
-66.224
-70.3841
-70.9945
-71.5569
-72.2797
-73.3365
-75.248
-75.3665
-71.5618
-73.7278
-67.5146
-72.076
-73.2724
-73.9041
-73.8794
-74.8355
-75.4426
-81.8813
-84.315
-79.3437
-76.1125
-69.4429
-73.5374
-73.9656
-75.08
-75.645
-76.2012
-76.1131
-76.434
-78.872
-84.245
-81.9499
-76.08
-73.335
-75.348
-75.4454
-75.6744
-75.8024
-75.8566
-76.08
-76.5197
-76.6591
-77.5741
-80.3982
-81.5988
-78.5891
-76.7175
-76.1292
-76.1223
-76.2027
-76.4163
-76.552
-76.4732
-76.5145
-76.8135
-76.7783
-76.8262
-78.1712
-79.1952
-78.6949
-78.0324
-55.1941
-55.5933
-55.6208
-56.029
-55.9746
-55.9942
-56.6143
-56.5567
-56.4195
-56.5388
-57.3435
-57.2238
-57.3212
-57.2983
-57.4599
-58.1792
-58.1863
-58.2209
-58.2648
-58.249
-57.9131
-59.6962
-59.771
-59.6344
-59.2784
-58.9704
-59.0617
-58.8157
-61.6418
-61.4251
-61.5963
-61.4368
-60.9546
-61.5322
-60.3577
-60.1452
-65.0088
-64.753
-64.5824
-64.6495
-64.3088
-63.3974
-62.3634
-61.9655
-62.1162
-67.8294
-67.7322
-68.0144
-68.4126
-68.4349
-69.2453
-67.8653
-65.6005
-65.5194
-65.8844
-70.233
-70.4611
-71.3346
-72.0574
-72.7928
-73.6751
-76.3208
-76.061
-70.9135
-73.9104
-68.4174
-71.9492
-72.2611
-73.4173
-74.0937
-74.3208
-75.1298
-75.8592
-83.2568
-85.0732
-78.7301
-75.7819
-69.535
-73.8715
-73.6756
-74.1174
-75.2855
-75.7924
-76.2667
-76.2576
-76.6262
-78.8411
-83.6677
-81.3652
-75.9733
-73.4649
-75.4406
-75.4015
-75.484
-75.7454
-75.9228
-75.9097
-76.1606
-76.5736
-76.7227
-77.551
-80.2233
-81.1544
-78.3663
-76.718
-76.1365
-76.1287
-76.1373
-76.2223
-76.4442
-76.5706
-76.5009
-76.5358
-76.829
-76.7885
-76.8487
-78.1473
-79.1462
-78.6001
-77.9865
-55.0525
-55.3433
-55.2264
-55.6711
-55.652
-55.6299
-56.0982
-55.9835
-56.1042
-56.0582
-56.6701
-56.609
-56.5321
-56.4797
-56.5217
-57.4045
-57.3183
-57.3099
-57.3837
-57.3
-57.4574
-58.3156
-58.3114
-58.2932
-58.1829
-58.2405
-58.3216
-57.9419
-59.7204
-59.7708
-59.8244
-59.6995
-59.3552
-58.8915
-59.1289
-58.9131
-61.8524
-61.7125
-61.798
-61.75
-61.674
-60.9587
-61.1503
-60.1174
-60.1998
-65.4016
-65.3181
-65.1402
-64.9314
-64.8715
-64.5083
-63.3907
-62.3802
-62.2856
-62.2426
-67.9583
-67.9174
-67.9584
-68.3132
-68.6848
-69.116
-69.6887
-68.6408
-65.8944
-65.6918
-65.5678
-70.0317
-70.3477
-70.7373
-71.6646
-72.5587
-73.385
-74.2154
-77.1667
-76.7624
-71.3848
-73.8382
-68.9931
-72.1437
-72.05
-72.4035
-73.5186
-74.3028
-74.7578
-75.3802
-76.3763
-84.0076
-84.3544
-78.7154
-75.828
-70.0487
-74.0833
-73.9253
-73.7759
-74.2597
-75.4977
-75.9411
-76.3591
-76.4098
-76.8158
-78.9325
-83.0456
-80.7205
-75.7236
-73.755
-75.6597
-75.4912
-75.4448
-75.5364
-75.8203
-76.0883
-75.9456
-76.2437
-76.6342
-76.7794
-77.5012
-79.9975
-80.7256
-78.1343
-76.7769
-76.2683
-76.142
-76.1247
-76.1494
-76.2434
-76.4753
-76.5956
-76.5279
-76.5546
-76.8449
-76.797
-76.873
-78.122
-79.0901
-78.5125
-77.9447
-54.7268
-55.0437
-54.9769
-55.2846
-55.2852
-55.2361
-55.6493
-55.6516
-55.61
-55.6422
-56.1041
-56.1047
-56.0368
-56.109
-56.0961
-56.7207
-56.641
-56.6092
-56.608
-56.5672
-56.5362
-57.5111
-57.4329
-57.4044
-57.3905
-57.3493
-57.3328
-57.3789
-58.4823
-58.4152
-58.3486
-58.2835
-58.1993
-58.3007
-58.2339
-58.0442
-59.8989
-59.8976
-59.8801
-59.7508
-59.6093
-59.409
-58.8242
-59.0066
-58.8502
-62.1467
-61.9266
-62.0248
-62.0262
-61.9951
-61.7745
-61.0814
-60.8665
-60.2069
-60.6059
-65.4184
-65.5744
-65.5255
-65.5212
-65.1438
-65.0051
-64.6847
-63.8686
-62.7231
-62.637
-62.2683
-68.0233
-68.0669
-68.031
-68.4708
-68.7917
-68.9852
-69.963
-70.2301
-68.161
-66.5526
-65.7523
-65.6727
-70.471
-70.0312
-70.3938
-71.0419
-71.8914
-73.0654
-73.9362
-75
-78.1097
-76.6042
-71.2625
-73.8159
-68.4849
-72.5775
-72.088
-72.1775
-72.5283
-73.6837
-74.5029
-75.0422
-75.7529
-76.8882
-83.917
-83.9584
-78.0127
-76.1193
-70.2529
-74.2875
-74.174
-73.9506
-73.8969
-74.4403
-75.7397
-76.1047
-76.5828
-76.5925
-76.983
-79.0305
-82.4972
-79.907
-75.7763
-74.2073
-75.6951
-75.6547
-75.5456
-75.4695
-75.5846
-75.9072
-76.2047
-76.0248
-76.3346
-76.6958
-76.828
-77.4286
-79.7577
-80.3445
-77.9664
-76.9151
-76.3471
-76.2766
-76.1433
-76.1229
-76.1616
-76.2609
-76.5059
-76.6115
-76.556
-76.5757
-76.8614
-76.805
-76.8865
-78.094
-79.0336
-78.4366
-77.9046
-54.5996
-54.8002
-54.7194
-55.0145
-54.8958
-54.9406
-55.2641
-55.2882
-55.1949
-55.2317
-55.6662
-55.634
-55.6553
-55.6874
-55.6447
-56.1613
-56.1641
-56.1322
-56.1036
-56.1658
-56.0899
-56.8352
-56.7565
-56.6591
-56.6953
-56.5616
-56.5616
-56.717
-57.6076
-57.5311
-57.5209
-57.4109
-57.2765
-57.3669
-57.3663
-57.3036
-58.7301
-58.6061
-58.5052
-58.3231
-58.2667
-58.3326
-58.282
-58.1298
-57.9641
-60.2334
-60.0592
-60.0783
-59.8918
-59.6514
-59.6089
-59.4212
-58.747
-58.8715
-58.9692
-62.6285
-62.4343
-62.3402
-62.2008
-62.176
-62.2329
-61.7818
-60.9642
-60.5482
-60.4449
-60.6257
-65.2907
-65.6032
-65.6236
-65.5599
-65.5346
-65.3254
-65.3373
-65.2107
-63.3624
-62.932
-62.906
-62.3227
-67.8217
-68.2036
-68.078
-68.5129
-68.8047
-69.322
-69.7915
-70.7563
-70.4996
-69.0415
-67.2676
-65.6996
-65.6612
-71.2644
-70.3633
-70.3387
-70.4893
-71.1621
-72.2728
-73.5049
-74.3639
-75.7986
-77.7097
-76.1676
-70.9396
-74.0047
-68.475
-73.4771
-72.6233
-72.2053
-72.2711
-72.7561
-73.8505
-74.7539
-75.3498
-76.067
-77.4209
-83.3113
-83.2638
-77.1937
-76.6189
-69.7318
-74.2686
-74.2475
-74.184
-73.9531
-74.0206
-74.6936
-75.9467
-76.2451
-76.6847
-76.7332
-77.1283
-78.8111
-81.9851
-79.6187
-76.1773
-74.8212
-75.6113
-75.7119
-75.6499
-75.5821
-75.5163
-75.6316
-76.0239
-76.2893
-76.1543
-76.4058
-76.7515
-76.8715
-77.3404
-79.4888
-80.0145
-77.8507
-77.1097
-76.5394
-76.3591
-76.2883
-76.1435
-76.1184
-76.1696
-76.2794
-76.5381
-76.6241
-76.581
-76.5988
-76.8659
-76.8159
-76.8898
-78.0624
-78.9813
-78.3716
-77.8648
-54.4167
-54.5665
-54.5536
-54.8196
-54.7845
-54.7144
-55.0135
-54.9969
-54.9277
-54.9164
-55.2839
-55.241
-55.2867
-55.2211
-55.2045
-55.7333
-55.6768
-55.7215
-55.6435
-55.6869
-55.657
-56.2535
-56.2375
-56.1255
-56.1085
-56.1079
-56.1496
-56.1734
-56.9826
-56.8866
-56.7489
-56.7067
-56.6487
-56.5939
-56.5873
-56.6214
-57.798
-57.6017
-57.5763
-57.4692
-57.3947
-57.3274
-57.3338
-57.3503
-57.2403
-59.0439
-58.824
-58.7058
-58.476
-58.2573
-58.2409
-58.3463
-58.1536
-58.057
-57.912
-60.4328
-60.2903
-60.3587
-60.1359
-59.6221
-59.5707
-59.4496
-59.2414
-58.645
-59.0336
-59.1212
-62.4784
-62.7547
-62.6752
-62.5815
-62.2554
-62.1402
-62.1357
-62.0483
-61.1393
-60.3887
-60.5886
-60.5759
-65.577
-65.7047
-65.8004
-65.8267
-65.6592
-65.755
-65.6928
-65.7059
-65.6101
-63.6554
-63.201
-62.9938
-62.2087
-68.393
-68.1723
-68.3106
-68.5323
-68.74
-69.2823
-69.5826
-70.2351
-71.4382
-71.0027
-69.1119
-67.6059
-65.5841
-65.0578
-71.7295
-71.3406
-70.7741
-70.5388
-70.6641
-71.6148
-72.5962
-73.6917
-74.7421
-76.2418
-78.0701
-75.6939
-71.552
-73.9229
-68.6954
-73.5248
-73.5591
-72.631
-72.2983
-72.3541
-72.952
-74.0172
-74.9301
-75.6598
-76.4556
-77.8654
-82.6736
-82.2638
-76.83
-77.1114
-69.2803
-73.9835
-74.3555
-74.3191
-74.1356
-73.9882
-74.1209
-74.9254
-76.1787
-76.3974
-76.7501
-76.8564
-77.2438
-78.4444
-81.1371
-79.2764
-76.5539
-75.5097
-75.7664
-75.634
-75.7089
-75.6699
-75.5988
-75.5566
-75.6783
-76.1398
-76.4073
-76.225
-76.4969
-76.805
-76.9105
-77.2409
-79.2272
-79.7147
-77.7609
-77.3184
-76.6563
-76.5574
-76.3723
-76.303
-76.1417
-76.1133
-76.1792
-76.2971
-76.5671
-76.6489
-76.6056
-76.6178
-76.8807
-76.8219
-76.8901
-78.0261
-78.9303
-78.319
-77.8249
-54.2232
-54.4055
-54.3771
-54.6409
-54.5677
-54.5547
-54.8107
-54.7628
-54.7551
-54.6993
-55.0486
-55.007
-54.982
-54.9217
-54.8703
-55.3611
-55.3181
-55.2806
-55.2365
-55.2048
-55.16
-55.8141
-55.7517
-55.7023
-55.6408
-55.6738
-55.6853
-55.5028
-56.3696
-56.2945
-56.2121
-56.1291
-56.1509
-56.0217
-56.1032
-56.3504
-57.0899
-56.9204
-56.8213
-56.7368
-56.6671
-56.5887
-56.6055
-56.5878
-56.4934
-57.9021
-57.7931
-57.6909
-57.4876
-57.471
-57.4278
-57.3555
-57.2992
-57.2657
-56.9692
-59.1026
-59.1252
-58.9047
-58.6862
-58.4756
-58.2875
-58.2295
-58.2018
-58.1094
-58.007
-58.1096
-60.7296
-60.352
-60.3927
-60.384
-60.0127
-59.5424
-59.534
-59.2526
-59.259
-58.8203
-59.1366
-59.1518
-62.8001
-62.6345
-62.8149
-62.8576
-62.5903
-62.2833
-62.134
-62.4571
-62.3486
-61.1345
-60.5029
-60.6716
-60.4006
-65.819
-65.6083
-65.746
-66.0123
-66.0443
-65.8816
-65.6991
-65.9724
-66.0059
-65.828
-64.0433
-63.4058
-63.0066
-61.698
-68.6881
-68.6518
-68.4965
-68.671
-68.7134
-69.0173
-69.4583
-69.8584
-70.6969
-71.8694
-71.2749
-68.393
-67.6726
-65.3604
-65.0276
-72.2164
-71.7673
-71.4412
-70.9202
-70.7574
-71.1171
-72.0159
-72.9395
-73.8418
-75.3775
-76.9018
-78.3937
-75.2108
-72.0539
-73.638
-67.8179
-72.881
-73.5443
-73.6172
-72.7462
-72.4292
-72.5673
-73.1455
-74.2617
-75.2027
-75.976
-76.914
-78.2975
-81.9363
-81.3805
-76.4134
-77.5766
-69.451
-74.0929
-74.167
-74.4126
-74.3694
-74.1794
-74.0451
-74.2517
-75.1475
-76.3956
-76.5609
-76.9502
-76.9978
-77.3316
-78.2452
-80.4235
-78.8771
-77.0868
-76.12
-75.8413
-75.8308
-75.6332
-75.7235
-75.6743
-75.6009
-75.601
-75.7328
-76.2637
-76.5171
-76.2799
-76.5886
-76.8489
-76.9429
-77.133
-78.9847
-79.4077
-77.6889
-77.4999
-76.7481
-76.6896
-76.5745
-76.3876
-76.3222
-76.1387
-76.107
-76.1887
-76.3212
-76.5908
-76.6759
-76.6313
-76.6348
-76.8957
-76.8207
-76.8862
-77.9855
-78.9015
-78.2786
-77.7861
-54.0578
-54.1812
-54.1727
-54.4569
-54.3756
-54.3784
-54.6534
-54.5714
-54.5958
-54.4937
-54.8948
-54.8241
-54.7566
-54.6906
-54.6704
-55.0808
-55.0225
-54.9701
-54.9971
-54.9346
-54.8329
-55.4419
-55.3727
-55.3344
-55.3008
-55.174
-55.1788
-55.054
-55.9138
-55.8168
-55.7453
-55.6712
-55.5997
-55.6429
-55.6608
-55.4889
-56.4818
-56.3606
-56.2968
-56.2343
-56.089
-56.0639
-56.014
-56.0641
-56.4712
-57.1953
-57.095
-56.9411
-56.7816
-56.6688
-56.6727
-56.6232
-56.5286
-56.5456
-56.2877
-58.0553
-57.9276
-57.805
-57.708
-57.5178
-57.4502
-57.3382
-57.2972
-57.2423
-57.0892
-57.0358
-59.3457
-59.1207
-59.1548
-58.8413
-58.5796
-58.2433
-58.4154
-58.2661
-58.1707
-58.1972
-58.0641
-58.1794
-60.7653
-60.3961
-60.36
-60.4157
-60.2127
-59.8146
-59.5143
-59.4142
-59.447
-59.2358
-58.8937
-59.0599
-59.1004
-63.021
-62.825
-62.9763
-62.7927
-63.0504
-62.6431
-62.1618
-62.6909
-62.7567
-62.2087
-61.2594
-60.5762
-60.8065
-60.3281
-66.0253
-65.8371
-65.7168
-65.8709
-66.3362
-66.0977
-65.9232
-66.1389
-66.2353
-66.2468
-65.6725
-64.1404
-63.2299
-62.9572
-61.1262
-68.9049
-68.9308
-68.8178
-68.7237
-68.8609
-68.721
-69.363
-69.7026
-70.2193
-71.071
-72.2376
-71.2375
-68.3761
-67.6053
-64.968
-64.9497
-71.1927
-72.3107
-71.9216
-71.5731
-71.0476
-71.0971
-71.5701
-72.2225
-73.2851
-74.5653
-76.2875
-77.6924
-77.9398
-75.1299
-72.4091
-73.3178
-67.5611
-72.785
-72.9895
-73.86
-73.6916
-72.8241
-72.6316
-72.801
-73.5193
-74.5318
-75.519
-76.3644
-77.3414
-78.6961
-81.118
-80.2739
-76.1797
-77.6404
-70.0402
-74.3337
-74.2516
-74.2356
-74.4882
-74.4149
-74.2307
-74.0991
-74.3775
-75.3768
-76.6264
-76.7215
-77.0333
-77.1583
-77.3831
-78.0099
-79.9055
-78.6441
-77.2557
-76.5986
-75.6971
-75.9412
-75.8783
-75.6168
-75.7607
-75.7027
-75.624
-75.6473
-75.7899
-76.3763
-76.6147
-76.3754
-76.6692
-76.8894
-76.9493
-77.0172
-78.738
-79.1522
-77.6179
-77.6265
-76.7035
-76.7655
-76.722
-76.5902
-76.4031
-76.3436
-76.1344
-76.1018
-76.2013
-76.3502
-76.6182
-76.7029
-76.6546
-76.652
-76.9193
-76.8254
-76.8871
-77.9339
-78.8674
-78.2442
-77.7482
-53.9479
-54.0675
-54.014
-54.2632
-54.1843
-54.1574
-54.3969
-54.427
-54.3384
-54.3373
-54.6554
-54.5944
-54.5102
-54.5411
-54.4431
-54.8731
-54.8301
-54.7465
-54.7466
-54.6882
-54.6233
-55.1379
-55.1017
-55.0333
-54.9981
-54.9197
-54.9137
-54.8094
-55.6058
-55.4741
-55.3725
-55.3529
-55.1941
-55.253
-55.074
-54.9906
-56.0155
-55.9279
-55.8124
-55.7422
-55.587
-55.6561
-55.5326
-55.5761
-55.4802
-56.5946
-56.4865
-56.3009
-56.2613
-56.2034
-56.1307
-56.0349
-56.0227
-56.0229
-56.1777
-57.3068
-57.2236
-57.1141
-56.9628
-56.699
-56.7034
-56.6627
-56.5543
-56.5014
-56.2729
-56.2129
-58.2353
-58.0743
-57.9243
-57.8017
-57.5959
-57.4521
-57.4126
-57.3195
-57.2329
-57.1357
-57.1561
-57.1648
-59.4531
-59.4001
-59.2046
-59.0021
-58.7079
-58.4148
-58.2723
-58.2703
-58.2631
-58.1117
-58.2294
-58.142
-58.3068
-60.8012
-60.8347
-60.5393
-60.4265
-60.2261
-59.9684
-59.7594
-59.5365
-59.7109
-59.4454
-59.1561
-58.9995
-59.1418
-58.9914
-63.225
-63.1957
-62.9707
-62.9149
-62.8292
-62.856
-62.6562
-62.6582
-62.9189
-62.8047
-61.8355
-61.2751
-60.6083
-60.6134
-60.1931
-66.1855
-66.1359
-65.8971
-65.8738
-65.9293
-66.3399
-66.1136
-66.1588
-66.471
-66.5301
-66.4898
-65.6819
-64.1729
-63.0641
-62.6775
-61.0861
-69.1786
-69.3394
-69.1813
-69.065
-68.9819
-68.8895
-69.1483
-69.6302
-70.266
-70.4874
-71.352
-72.5391
-71.2139
-68.5322
-67.4193
-64.1121
-64.6516
-70.4015
-71.3686
-72.336
-71.976
-71.8421
-71.3229
-71.4002
-71.918
-72.655
-73.6888
-75.2823
-76.789
-77.7722
-77.5557
-75.3586
-72.4703
-72.3597
-67.8237
-73.2364
-72.8568
-73.1632
-74.0328
-73.8913
-73.0565
-72.7319
-73.034
-73.8289
-74.7968
-75.7862
-76.7993
-77.7224
-79.0438
-80.3101
-79.2576
-76.004
-77.9925
-70.4626
-74.6015
-74.4694
-74.4541
-74.3421
-74.5824
-74.5137
-74.2731
-74.1797
-74.5536
-75.6771
-76.8254
-76.9085
-77.103
-77.2494
-77.4038
-77.8084
-79.457
-78.4273
-77.4167
-77.2232
-75.905
-75.7996
-76.0224
-75.9227
-75.6181
-75.8219
-75.7496
-75.6382
-75.7113
-75.8641
-76.4859
-76.7066
-76.4695
-76.7295
-76.9283
-76.922
-76.9244
-78.4781
-78.9751
-77.5395
-77.7068
-76.4563
-76.7295
-76.7856
-76.7507
-76.6046
-76.4194
-76.3632
-76.1291
-76.0995
-76.2068
-76.38
-76.6428
-76.727
-76.6775
-76.6684
-76.9435
-76.8281
-76.8946
-77.8927
-78.7987
-78.2133
-77.7112
-53.8162
-53.9664
-53.8936
-54.089
-54.0362
-53.9794
-54.2561
-54.2318
-54.1838
-54.1339
-54.4325
-54.3747
-54.3556
-54.2974
-54.2656
-54.6689
-54.6619
-54.5254
-54.5452
-54.4946
-54.4305
-54.9051
-54.8622
-54.7728
-54.7169
-54.7056
-54.6497
-54.5809
-55.2714
-55.1361
-55.0653
-55.0892
-54.9702
-54.8785
-54.9051
-54.7465
-55.6454
-55.5484
-55.4444
-55.3926
-55.2504
-55.2313
-55.2268
-55.102
-54.9558
-56.1331
-56.0497
-55.8764
-55.8034
-55.6766
-55.6277
-55.5632
-55.4768
-55.5003
-55.5255
-56.683
-56.5891
-56.4987
-56.3273
-56.1458
-56.1397
-56.0943
-55.9949
-55.9903
-55.8955
-55.8749
-57.3554
-57.3575
-57.1736
-57.0214
-56.9031
-56.6923
-56.7101
-56.5495
-56.4485
-56.3426
-56.235
-56.2701
-58.336
-58.2125
-58.0534
-57.8801
-57.6118
-57.5673
-57.2138
-57.3519
-57.1922
-57.1997
-57.0872
-57.0644
-57.1359
-59.7699
-59.5219
-59.3758
-59.0647
-58.8222
-58.5731
-58.2099
-58.4942
-58.3758
-58.3707
-58.2074
-58.1234
-58.1686
-58.3535
-61.2442
-60.9384
-60.7732
-60.6789
-60.1963
-60.0593
-59.9082
-59.2275
-59.5984
-59.698
-59.4097
-59.2057
-59.4111
-59.1622
-58.8313
-63.4692
-63.4217
-63.3047
-63.1178
-62.7743
-62.9338
-62.9266
-62.7456
-62.7961
-63.0923
-62.5913
-62.0082
-61.3843
-60.6557
-60.5649
-60.1995
-66.2177
-66.2206
-66.2094
-66.0606
-65.9537
-66.0309
-66.192
-66.2904
-66.2132
-66.4009
-66.5732
-66.4071
-65.8008
-64.6193
-62.971
-62.1776
-61.0996
-68.9302
-69.2937
-69.5423
-69.5195
-69.3919
-69.3087
-69.1956
-69.6222
-69.9536
-70.5183
-70.9419
-71.8957
-72.7189
-70.974
-68.41
-67.5393
-64.562
-64.6319
-70.8678
-70.6763
-71.6395
-72.4555
-72.1523
-72.0093
-71.4029
-71.6897
-72.3689
-73.1321
-74.2724
-75.7339
-77.3618
-78.2142
-77.0136
-75.1997
-72.514
-71.7342
-67.392
-73.3427
-73.3453
-72.9306
-73.2933
-74.0531
-73.9445
-73.2405
-72.8724
-73.3546
-74.2062
-75.1184
-76.2187
-77.2094
-78.0714
-79.268
-79.3795
-78.6798
-75.7537
-77.7282
-71.2896
-75.1261
-74.6757
-74.7
-74.6028
-74.5741
-74.6208
-74.5657
-74.3521
-74.2724
-74.7058
-75.9751
-76.9875
-77.1128
-77.2088
-77.3034
-77.3936
-77.6176
-79.0571
-78.1863
-77.5559
-77.6991
-76.0831
-75.977
-75.9182
-76.111
-75.9621
-75.6785
-75.8874
-75.7537
-75.66
-75.7396
-75.9508
-76.6019
-76.7894
-76.5699
-76.7822
-76.958
-76.8832
-76.8631
-78.173
-78.8188
-77.4618
-77.7717
-77.6015
-75.9038
-76.488
-76.7469
-76.8059
-76.7775
-76.6185
-76.4384
-76.3808
-76.1232
-76.1008
-76.218
-76.4138
-76.6622
-76.7575
-76.6958
-76.6853
-76.9615
-76.8284
-76.9008
-77.8835
-78.7434
-78.1844
-77.675
-53.7585
-53.8299
-53.813
-53.9504
-53.8875
-53.8326
-54.0602
-54.0406
-54.0296
-54.0231
-54.2443
-54.2407
-54.2206
-54.1367
-54.1199
-54.4366
-54.4359
-54.3119
-54.3433
-54.3019
-54.2495
-54.6962
-54.642
-54.5603
-54.5131
-54.4678
-54.468
-54.385
-54.9965
-54.8575
-54.802
-54.754
-54.6834
-54.6486
-54.61
-54.5271
-55.335
-55.1922
-55.1343
-55.0968
-54.9998
-54.9416
-54.9074
-54.8684
-54.7266
-55.7824
-55.6137
-55.5544
-55.4465
-55.3484
-55.2894
-55.1876
-55.1035
-55.0523
-54.8846
-56.2826
-56.1324
-56.0222
-55.8449
-55.7172
-55.6557
-55.6025
-55.497
-55.4478
-55.4919
-55.3885
-56.7677
-56.6994
-56.593
-56.3565
-56.2842
-56.1462
-56.0819
-56.026
-55.9688
-55.8839
-55.7019
-55.8456
-57.5354
-57.3642
-57.2156
-57.0993
-56.9249
-56.8122
-56.5616
-56.6885
-56.4952
-56.454
-56.3137
-56.3287
-56.3425
-58.5908
-58.3102
-58.1652
-57.974
-57.7138
-57.4867
-57.2772
-57.3371
-57.2687
-57.2817
-57.2654
-57.1106
-57.1366
-57.2042
-59.9845
-59.8106
-59.4054
-59.264
-59.0448
-58.6729
-58.4894
-58.2904
-58.5129
-58.3296
-58.4522
-58.148
-58.1996
-58.1969
-58.3625
-61.5184
-61.2743
-61.2163
-60.8219
-60.5503
-60.2122
-60.1104
-59.5723
-59.7384
-59.7358
-59.7775
-59.441
-59.3025
-59.2668
-58.9393
-58.8179
-63.7929
-63.6065
-63.4849
-63.2922
-63.2202
-62.9932
-63.1512
-62.5462
-62.5877
-62.8922
-63.1575
-62.6142
-62.128
-61.3019
-60.8592
-60.5822
-60.3396
-66.4739
-66.3011
-66.392
-66.4269
-66.0893
-66.1295
-66.0784
-66.1814
-66.2863
-66.4201
-66.3802
-66.8043
-66.513
-65.716
-64.7012
-62.5989
-62.1549
-61.1935
-68.8994
-69.149
-69.4635
-69.8141
-69.8314
-69.7598
-69.5979
-69.9097
-69.8867
-70.3653
-71.0458
-71.4559
-72.2266
-72.5976
-70.7991
-68.053
-67.6497
-64.9337
-64.6906
-71.1
-71.2871
-71.0404
-71.9019
-72.5862
-72.5776
-72.1224
-71.5154
-72.0264
-73.003
-73.77
-74.7351
-76.2986
-77.8596
-78.2025
-76.6082
-75.2003
-72.7206
-70.9253
-66.7292
-74.0239
-73.3686
-73.3477
-73.088
-73.4452
-74.052
-73.9277
-73.3653
-73.0866
-73.7128
-74.5209
-75.4252
-76.8743
-77.5975
-78.4295
-79.0595
-78.8399
-78.008
-75.3953
-76.9383
-72.3716
-75.6075
-75.0929
-74.815
-74.8873
-74.7601
-74.6611
-74.6851
-74.5591
-74.4338
-74.4165
-74.8803
-76.2811
-77.1514
-77.2964
-77.2618
-77.36
-77.3485
-77.4195
-78.7699
-78.0014
-77.3534
-77.5201
-77.6235
-76.0417
-76.1703
-76.0556
-76.0403
-76.2107
-75.9949
-75.7097
-75.9429
-75.7702
-75.6898
-75.7516
-76.064
-76.7201
-76.859
-76.6579
-76.8368
-76.9821
-76.8429
-76.799
-77.9206
-78.6599
-77.4081
-77.7628
-78.0572
-77.6387
-75.9387
-75.9096
-76.5174
-76.7656
-76.8279
-76.8016
-76.632
-76.4638
-76.3981
-76.1161
-76.1056
-76.2445
-76.446
-76.6838
-76.7861
-76.7218
-76.7039
-76.9803
-76.8273
-76.9051
-77.8758
-78.6964
-78.155
-53.6146
-53.7471
-53.7313
-53.8607
-53.819
-53.7557
-53.9442
-53.9213
-53.8511
-53.8253
-54.1104
-54.0281
-53.9914
-54.0619
-53.9568
-54.2941
-54.2115
-54.1731
-54.1765
-54.0643
-54.0471
-54.4819
-54.4041
-54.3753
-54.3178
-54.3897
-54.342
-54.2284
-54.7432
-54.6626
-54.6073
-54.5194
-54.477
-54.4252
-54.3455
-54.3792
-55.1024
-55.002
-54.8317
-54.7773
-54.7914
-54.611
-54.6088
-54.5674
-54.486
-55.407
-55.293
-55.1959
-55.1098
-55.0275
-54.8844
-55.0118
-54.8205
-54.8599
-54.708
-55.8628
-55.7316
-55.6419
-55.5072
-55.3985
-55.2744
-55.3351
-55.0688
-55.1028
-54.9892
-54.8965
-56.3389
-56.2556
-56.121
-55.93
-55.8253
-55.7046
-55.5951
-55.4661
-55.4593
-55.418
-55.3711
-55.417
-57.0103
-56.7625
-56.6535
-56.4933
-56.4404
-56.2259
-56.0688
-56.0631
-56.0156
-55.9366
-55.7834
-55.6934
-55.7387
-57.709
-57.3605
-57.3367
-57.2121
-57.0313
-56.8193
-56.7699
-56.6435
-56.5412
-56.3508
-56.3369
-56.2357
-56.2671
-56.3624
-58.7923
-58.7031
-58.3259
-58.1163
-57.8335
-57.5249
-57.3562
-57.2799
-57.3019
-57.3574
-57.2597
-57.3117
-56.899
-57.2706
-57.0998
-60.2167
-60.0892
-59.8073
-59.3826
-59.1866
-58.9152
-58.665
-58.6008
-58.4322
-58.4757
-58.2236
-58.2434
-58.1111
-58.5925
-58.2029
-58.4078
-61.8651
-61.6353
-61.4487
-61.1438
-60.7645
-60.6155
-60.2442
-59.6594
-59.7529
-59.8986
-59.9127
-59.7514
-59.623
-58.9855
-59.2148
-58.9811
-58.707
-64.0667
-63.9586
-63.6509
-63.502
-63.3922
-63.2976
-63.1012
-62.7544
-62.8427
-63.004
-63.3403
-62.9508
-62.7255
-61.9756
-61.7163
-60.8066
-60.5392
-60.4215
-67.0011
-66.6214
-66.4706
-66.6072
-66.7861
-66.3179
-66.3226
-66.1052
-66.4202
-66.4377
-66.3883
-66.7949
-67.0908
-66.3139
-65.8116
-64.6491
-62.413
-62.0758
-61.3653
-69.1111
-69.0848
-69.1695
-69.8831
-70.164
-70.3326
-70.0771
-70.0445
-70.2318
-70.3847
-71.1027
-71.5348
-71.8835
-72.7405
-72.4253
-70.6431
-67.9005
-67.7004
-64.9133
-64.1993
-71.7918
-71.3331
-71.6076
-71.4216
-72.2007
-72.7166
-72.8687
-72.2926
-71.7611
-72.4138
-73.5355
-74.4381
-75.5353
-76.8628
-78.5619
-78.1037
-76.369
-75.2681
-72.7871
-70.1704
-66.1669
-74.997
-73.7793
-73.5437
-73.49
-73.4043
-73.5725
-74.1283
-74.0448
-73.3737
-73.3543
-74.0285
-74.814
-75.7328
-77.2903
-77.9393
-78.6308
-78.7531
-78.3506
-77.2691
-75.2549
-75.6668
-72.3171
-76.6353
-76.0424
-75.5729
-75.091
-74.9383
-75.0634
-74.9289
-74.6903
-74.7455
-74.6906
-74.5655
-74.5395
-75.083
-76.5969
-77.3411
-77.4497
-77.3254
-77.3664
-77.2714
-77.2365
-78.3871
-77.8683
-76.7837
-77.4057
-77.3436
-77.7113
-76.0351
-76.0651
-76.2704
-76.1374
-76.1291
-76.3013
-76.0167
-75.7542
-76.007
-75.787
-75.7137
-75.8096
-76.1801
-76.8572
-76.924
-76.731
-76.8822
-76.9882
-76.808
-76.7445
-77.7508
-78.5022
-77.368
-78.5718
-78.1077
-76.0347
-75.9213
-75.9224
-76.5466
-76.7839
-76.8486
-76.8226
-76.6456
-76.4897
-76.4158
-76.1104
-76.1146
-76.2764
-76.4746
-76.7082
-76.8103
-76.7433
-76.7243
-76.9995
-76.8243
-76.9088
-77.8627
-78.6487
-53.6058
-53.5966
-53.7589
-53.6989
-53.6927
-53.9033
-53.8575
-53.769
-53.7233
-54.0061
-53.9153
-53.8819
-53.7877
-53.7934
-54.1402
-54.0478
-54.0314
-54.0045
-54.0572
-53.9241
-54.3211
-54.2652
-54.2121
-54.1563
-54.1799
-53.9499
-54.0075
-54.5187
-54.4449
-54.341
-54.3749
-54.2463
-54.2369
-54.3588
-54.1815
-54.8026
-54.7756
-54.5849
-54.5253
-54.4893
-54.4313
-54.395
-54.3224
-54.3899
-55.101
-55.0698
-54.8921
-54.8415
-54.7915
-54.625
-54.6016
-54.5846
-54.5081
-54.4453
-55.5738
-55.376
-55.295
-55.1989
-55.0537
-54.991
-54.9788
-54.8528
-54.7607
-54.8182
-54.6446
-55.9902
-55.7599
-55.6555
-55.6205
-55.3994
-55.3242
-55.2619
-55.1854
-55.0825
-55.0763
-54.984
-54.9441
-56.5482
-56.3326
-56.2072
-56.1334
-55.8402
-55.7732
-55.6733
-55.55
-55.475
-55.384
-55.3074
-55.2837
-55.3068
-57.0829
-56.9256
-56.7554
-56.5793
-56.4613
-56.3579
-56.2689
-56.0233
-55.9965
-55.6529
-55.8196
-55.7526
-55.5903
-55.7823
-57.9311
-57.8299
-57.446
-57.2534
-57.1108
-56.9583
-56.8007
-56.6231
-56.5879
-56.4149
-56.3758
-56.3985
-56.2222
-56.3513
-56.3638
-59.1426
-58.8153
-58.6319
-58.1638
-57.9889
-57.8153
-57.3412
-57.3999
-57.3093
-57.4279
-57.1425
-57.1883
-57.0698
-57.0272
-57.2483
-56.9925
-60.4709
-60.3119
-60.0468
-59.7395
-59.4263
-59.0546
-58.7871
-58.7908
-58.5942
-58.518
-58.2502
-58.3244
-58.0813
-58.1912
-58.3041
-58.1965
-58.3778
-62.0397
-62.0968
-61.7172
-61.4404
-61.2255
-60.8948
-60.5751
-60.2779
-60.0091
-60.0321
-60.0115
-60.0101
-59.8402
-59.6664
-59.4196
-59.4696
-58.9733
-58.6814
-64.3842
-64.175
-64.027
-63.8232
-63.7353
-63.4657
-63.4155
-63.1374
-62.9596
-62.9625
-63.3608
-63.1284
-63.0253
-62.8393
-62.4043
-61.9812
-60.8391
-60.7083
-60.3942
-67.1739
-67.1093
-66.6523
-66.6616
-66.8315
-66.9615
-66.6748
-66.5943
-66.5893
-66.5257
-66.414
-66.7457
-67.1498
-67.1862
-66.6323
-65.9272
-64.5129
-62.3577
-62.1091
-60.9555
-69.6236
-69.1734
-69.47
-69.6579
-70.0697
-70.4433
-70.5964
-70.3219
-70.3191
-70.6073
-71.1817
-71.9411
-72.2942
-72.6651
-72.6571
-72.1908
-70.5414
-68.2411
-67.7707
-64.5707
-64.572
-73.3572
-71.6027
-71.4478
-72.0378
-71.8833
-72.3984
-72.9685
-73.0302
-72.4296
-72.022
-72.7984
-74.1419
-75.1771
-76.1907
-77.5142
-78.9109
-77.7496
-76.1877
-75.5731
-72.298
-69.9294
-66.4711
-70.8697
-75.5271
-74.7352
-73.7426
-73.6954
-73.6982
-73.5959
-73.6759
-74.2053
-74.0672
-73.4714
-73.6171
-74.3631
-75.1645
-76.1083
-77.5694
-78.2257
-78.6797
-78.4165
-77.9034
-76.4821
-75.1652
-74.8444
-71.5073
-75.2456
-77.0365
-76.2504
-75.9756
-75.6299
-75.315
-75.128
-75.2368
-75.0475
-74.7336
-74.8004
-74.7528
-74.6903
-74.6739
-75.2906
-76.8839
-77.5224
-77.5636
-77.3645
-77.3537
-77.1629
-77.0621
-78.01
-77.645
-76.0988
-78.1548
-77.3406
-76.7564
-76.0221
-76.0938
-76.3872
-76.2134
-76.2225
-76.3755
-76.0542
-75.8176
-76.0698
-75.8107
-75.7525
-75.8791
-76.2909
-76.9835
-77.0037
-76.8297
-76.9259
-76.9797
-76.7812
-76.707
-77.6468
-78.3605
-77.8433
-78.6111
-76.0066
-75.5086
-75.9054
-75.9381
-76.575
-76.8029
-76.866
-76.8414
-76.6591
-76.5168
-76.4349
-76.1054
-76.1292
-76.3069
-76.5054
-76.7307
-76.8318
-76.7612
-76.7425
-77.0206
-76.8282
-76.9137
-77.8544
-53.6025
-53.584
-53.5555
-53.7534
-53.7813
-53.6878
-53.633
-53.9013
-53.8477
-53.7901
-53.7356
-53.7484
-54.0145
-53.9985
-53.9212
-53.8917
-53.7478
-53.7734
-54.1254
-54.0821