/*--------------------------------*- C++ -*----------------------------------*\
  =========                 |
  \\      /  F ield         | OpenFOAM: The Open Source CFD Toolbox
   \\    /   O peration     | Website:  https://openfoam.org
    \\  /    A nd           | Version:  7
     \\/     M anipulation  |
\*---------------------------------------------------------------------------*/
FoamFile
{
    version     2.0;
    format      ascii;
    class       surfaceScalarField;
    location    "5";
    object      phi;
}
// * * * * * * * * * * * * * * * * * * * * * * * * * * * * * * * * * * * * * //

dimensions      [0 3 -1 0 0 0 0];

internalField   nonuniform List<scalar> 
54125
(
0.000101967
-1.94988e-06
-0.000352064
0.000433601
-8.7904e-05
-0.00390146
0.000216406
-7.55048e-05
-0.000438254
0.000101125
-2.91639e-06
-0.000450273
0.000153285
0.000465152
-0.00670041
0.000388149
-2.87461e-05
-0.00206478
0.000388639
-0.00012381
-0.00406517
5.76139e-05
-7.66054e-05
0.000214984
0.000226275
-7.7146e-05
-0.000590299
0.000102993
-5.28601e-06
-0.00054798
-0.000250948
0.000527992
-0.00942257
0.000353307
0.000392321
-0.00556177
0.000209383
0.000233995
-0.00675515
0.000113412
3.30345e-05
-0.000234195
0.000454245
-8.00334e-05
-0.00233653
0.000348589
-0.000149098
-0.00416166
-9.54847e-05
-5.30099e-05
-1.34346e-05
7.25332e-05
-7.86598e-05
0.000143965
0.000236322
-7.88862e-05
-0.000753021
0.000109073
-9.61464e-06
-0.000647438
-0.000600069
0.000563792
-0.00635302
-0.000685341
0.00127214
-0.00680236
-0.000193811
0.000481989
-0.00950136
0.000281491
0.000381061
-0.00353063
0.000511775
0.000130254
-0.00551555
2.92748e-05
0.000290065
-0.0067259
-0.000195905
1.61906e-05
0.00130222
4.41185e-05
2.30073e-05
-0.000308821
0.000329537
-0.000131003
-0.00244784
0.000306258
-0.000158121
-0.00420073
-3.12798e-05
-5.68849e-05
-0.00026198
-8.71839e-05
-5.52172e-05
5.03066e-05
8.2797e-05
-8.02973e-05
6.2579e-05
0.000233774
-8.07219e-05
-0.000915687
0.0001166
-1.71787e-05
-0.00074686
-0.00110113
-1.30205e-05
-0.00518389
-0.000788903
0.000953598
-0.00827277
-0.000956716
0.000478735
-0.00606885
0.000211682
0.0015415
-0.00633613
-0.000743591
0.0012897
-0.0063547
-0.000663212
0.000660959
-0.00946983
-0.000166033
0.000278588
-0.00199315
0.000326217
0.000219082
-0.00390155
0.0006575
0.000117276
-0.00567073
-8.83666e-05
0.000233241
-0.00656452
-0.000141855
3.69726e-05
0.00152749
-0.00025846
6.74827e-06
0.00148976
6.85738e-05
-3.1682e-06
-0.000422433
0.000345826
-0.000166377
-0.00255164
0.00029008
-0.000108482
-0.00426573
-6.14282e-07
-5.24578e-05
-0.000524762
-2.71821e-05
-5.75141e-05
-0.000232501
-8.02114e-05
-5.63946e-05
0.000106615
9.60624e-05
-8.36267e-05
-3.05785e-05
0.000221604
-8.3657e-05
-0.00107081
0.000104614
-2.41263e-05
-0.000827347
-0.00149639
0.000224696
-0.00451333
-0.000413372
0.000133623
-0.00786683
-0.00146596
-4.60835e-05
-0.00462856
7.93258e-05
0.00120815
-0.00950814
-0.00129257
0.00109366
-0.00833872
-0.00114565
0.00040749
-0.0059939
-0.000126993
0.00145772
-0.00472249
0.000557125
0.00151648
-0.00679382
7.65187e-05
0.00148132
-0.00659409
-0.0010005
0.000795943
-0.00935365
-0.000340999
6.26561e-05
-0.000820888
-0.000193569
0.000156688
-0.00199564
0.000417384
0.000125005
-0.00425809
0.000739773
6.5587e-05
-0.00589702
-1.91281e-05
0.000426551
-0.00668186
-6.85517e-05
8.80525e-05
-0.000208277
-0.00012618
2.88878e-05
0.00160435
-0.000182743
-2.27491e-06
0.00159139
-8.60653e-07
-2.50109e-05
-0.000466876
0.000276719
-0.00018666
-0.00252858
0.000235522
-0.000136767
-0.00425987
-3.73242e-05
-4.47185e-05
-0.000312908
7.0419e-07
-5.27607e-05
-0.000530219
-2.49932e-05
-5.75277e-05
-0.000206375
-7.35472e-05
-5.95408e-05
0.000156076
0.000107519
-8.20827e-05
-0.000139672
0.000198672
-8.56678e-05
-0.00120794
0.000102347
-3.20097e-05
-0.000897685
-0.00161767
0.000112189
-0.00383235
-0.00076942
0.000536893
-0.0050616
-0.00161933
0.000275594
-0.00463555
-0.000305969
0.000606071
-0.00869339
-0.000844832
0.000236704
-0.00859736
-0.00143903
0.000204163
-0.00453935
-0.000183565
0.00144234
-0.00860017
5.05894e-05
0.00137161
-0.00927955
-0.00109236
0.00121037
-0.00797272
-0.00148423
0.000442479
-0.00595264
-0.000212523
0.00111099
-0.00321429
4.32989e-05
0.00148473
-0.00492761
0.000533946
0.00146891
-0.00689798
0.0004451
0.00141947
-0.00692294
-0.0010194
0.000904849
-0.00925823
-0.000100401
-9.7776e-05
-0.00163353
-0.000283144
2.08302e-05
-0.000528065
-6.2797e-05
0.000110938
-0.00210152
0.000246209
0.000111552
-0.00455113
0.000449773
0.000226706
-0.00587023
0.00015527
0.000279307
-0.00688091
-6.86306e-05
1.71999e-05
-0.00085198
-5.56805e-05
7.60233e-05
-0.000199028
-0.000105823
2.23814e-05
0.00166052
-0.000190314
-1.39032e-05
0.00169705
8.04372e-05
-3.62292e-05
-0.000590224
0.000320679
-0.000192844
-0.00259451
0.000188557
-0.000147719
-0.00419836
-3.65005e-05
-4.93969e-05
-0.000471882
-3.86787e-05
-4.5064e-05
-0.000281926
2.20042e-06
-5.32483e-05
-0.000536699
-1.98517e-05
-5.74843e-05
-0.000188579
-6.4341e-05
-5.80603e-05
0.000196395
0.000113369
-8.01493e-05
-0.00025856
0.000173848
-8.77039e-05
-0.0013261
0.000103619
-3.78027e-05
-0.000963501
-0.00147866
-1.08912e-05
-0.00343343
-0.000400222
4.44253e-05
-0.00595729
-0.00151589
9.21195e-05
-0.00402791
-0.000315115
0.000576925
-0.00665051
-0.000837843
0.000595458
-0.00538845
-0.00157475
0.000321845
-0.00482168
-0.000229369
0.000875009
-0.00849069
-0.000480631
0.000640441
-0.00856591
-0.00119264
0.000530113
-0.00882302
-0.00156558
0.000284958
-0.00474296
1.71482e-06
0.00142393
-0.00631435
-0.000245222
0.00147314
-0.00841318
-0.00018903
0.00140579
-0.00875199
-0.000801339
0.00120769
-0.00749149
-0.00162397
0.000651568
-0.00599964
-0.000116428
0.000817228
-0.00283823
-0.000153322
0.00111971
-0.00297908
5.07243e-05
0.00146705
-0.00503927
0.000347302
0.00137995
-0.00695955
0.000517923
0.000858474
-0.00694472
-0.000766094
0.000864642
-0.00920151
-7.27035e-05
-0.000261673
-0.00212524
-0.000133363
-0.000122295
-0.00141272
-0.000252562
-2.17885e-05
-0.000248599
-0.00016503
4.87154e-05
-0.00206397
0.000405578
-2.28609e-05
-0.0046267
0.000458169
3.47026e-05
-0.00576312
5.85991e-05
0.000191132
-0.00694209
-2.05712e-05
-7.77373e-05
-0.000442086
-4.70135e-05
4.05158e-06
-0.000771673
-4.14479e-05
6.2098e-05
-0.000195096
-8.13502e-05
1.45244e-05
0.0016936
-0.000157162
-1.86938e-05
0.00177234
0.00014535
-5.47419e-05
-0.000760307
0.000314479
-0.000192941
-0.00268991
0.000188976
-8.73568e-05
-0.00419636
-2.26746e-05
-5.15825e-05
-0.000512754
-3.67022e-05
-4.93306e-05
-0.000430913
-3.96975e-05
-4.56107e-05
-0.000249866
2.5139e-06
-5.34825e-05
-0.000543215
-1.88301e-05
-5.69473e-05
-0.000170862
-5.81861e-05
-5.66443e-05
0.000231076
0.000114938
-7.98214e-05
-0.000381381
0.000148695
-8.96877e-05
-0.00142291
8.46421e-05
-4.26605e-05
-0.00100548
-0.00166683
0.000159563
-0.00312507
-0.000722634
0.000191726
-0.00447277
-0.00135762
-1.91983e-05
-0.0035725
-0.000482285
3.43999e-05
-0.00504995
-0.000481861
-7.33421e-05
-0.00614781
-0.00124593
-5.38985e-05
-0.00430283
-0.000112101
0.000663383
-0.00706209
-0.000509178
0.000540071
-0.00656658
-0.00111773
0.000603385
-0.0057449
-0.00163003
0.000365848
-0.00512308
5.68711e-05
0.00118443
-0.00791649
-0.000401979
0.000920288
-0.00861378
-0.000617481
0.000828492
-0.00843584
-0.00118112
0.000619521
-0.00877781
-0.00162923
0.000239505
-0.0049772
-0.0001806
0.00111871
-0.00514353
-0.000257596
0.00160128
-0.00633822
-0.000317985
0.00140573
-0.00804441
-0.000409835
0.00142306
-0.00821022
-0.000338348
0.00128498
-0.00726863
-0.00158285
0.000520797
-0.00570368
-0.000202886
0.000667073
-0.00334376
-0.000143751
0.00078885
-0.00249699
-0.000218822
0.001139
-0.00268476
-0.000109289
0.00144134
-0.0051564
0.000544742
0.00079866
-0.0070389
0.000217626
0.000778815
-0.00661834
-0.000874108
0.000738692
-0.00900749
8.22738e-05
-0.00035557
-0.00212568
-2.64708e-05
-0.000277213
-0.00199086
-0.000106426
-0.000135309
-0.00123422
-0.000189772
-7.56105e-05
-1.58521e-05
-0.000159026
-8.20678e-05
-0.0020029
0.00011106
-0.000141445
-0.00441626
0.000416777
-5.51194e-05
-0.00561916
-6.50226e-05
0.000153259
-0.00684135
4.06651e-05
-0.00015888
-0.00154471
-2.61773e-05
-9.26294e-05
-0.00035593
-6.40992e-05
-1.11705e-05
-0.000674003
-2.64582e-05
5.1653e-05
-0.000203253
-6.72993e-05
9.26271e-06
0.00171411
-0.000119973
-3.21482e-05
0.00181153
0.00016877
-6.55509e-05
-0.000941528
0.000294153
-0.000194505
-0.00272822
0.000135882
-0.000124451
-0.00412315
-4.92761e-05
-5.31454e-05
-0.000517631
-2.41365e-05
-5.16593e-05
-0.000486289
-3.67712e-05
-4.93047e-05
-0.000390448
-4.07401e-05
-4.63591e-05
-0.000216249
1.52845e-06
-5.3778e-05
-0.000547913
-1.35319e-05
-5.61465e-05
-0.000157828
-4.50551e-05
-5.62305e-05
0.00025254
0.000112709
-8.07127e-05
-0.000503065
0.000127141
-9.10257e-05
-0.00150168
7.24791e-05
-4.70449e-05
-0.00103092
-0.00144436
-0.000200129
-0.00323629
-0.000899096
0.000257447
-0.00410599
-0.00154144
0.000160787
-0.00310205
-0.000528306
0.000276874
-0.00488887
-0.000794551
0.000211835
-0.00439111
-0.00135291
-2.72728e-05
-0.00343825
-0.000163159
6.27599e-05
-0.00576279
-0.000566477
4.97015e-05
-0.00511569
-0.000713188
-0.00030823
-0.00629803
-0.00135359
-0.000335798
-0.00424347
0.000113975
0.000862826
-0.00686854
-0.000347788
0.000595752
-0.00717196
-0.000619629
0.000577134
-0.00653818
-0.000916883
0.00069435
-0.00633764
-0.00169371
0.000379025
-0.00543762
-0.000198636
0.00109328
-0.00714023
-0.000360595
0.00113485
-0.00802806
-0.000582464
0.000986172
-0.00850698
-0.000682851
0.0008999
-0.0084432
-0.00090078
0.000627294
-0.00860316
-0.00159582
0.000215167
-0.0051794
-0.000436019
0.0010697
-0.00601529
-0.000323726
0.0012765
-0.00463877
-0.000383131
0.00166912
-0.0064373
-0.000410481
0.00132666
-0.00764682
-0.000267947
0.00157474
-0.0076873
-0.000536801
0.00118017
-0.00717357
-0.00155876
0.000519284
-0.00553831
-0.000116627
0.000621022
-0.00405608
-0.000164665
0.000640866
-0.00305758
-4.06792e-05
0.000750159
-0.0021739
-0.000235183
0.00111845
-0.00231646
-9.25392e-05
0.00127395
-0.00569818
9.81181e-05
0.000752923
-0.00700007
0.000299638
0.000663318
-0.00642583
-0.0010638
0.000704316
-0.00871303
-0.000111092
-0.000143226
-0.00229806
-1.59249e-05
-0.000357481
-0.00205567
-0.000122637
-0.000249296
-0.00181834
-0.000107195
-0.000197152
-0.00103194
-0.000127372
-0.000120574
8.27272e-05
-0.000156978
-0.000215416
-0.00189192
0.000160151
-0.000188346
-0.00427442
0.000376475
-9.78647e-05
-0.00545036
-0.000115875
0.000300924
-0.00689051
-0.000173564
-0.000147516
-0.00173459
3.40321e-05
-0.000164719
-0.00153079
-2.59249e-05
-0.000103647
-0.0002743
-3.5815e-05
-2.41405e-05
-0.000603135
-2.83858e-05
3.9328e-05
-0.000203404
-3.48372e-05
-1.77607e-06
0.00170504
-5.83397e-05
-4.16788e-05
0.00180094
0.000189442
-8.18041e-05
-0.00113096
0.000207496
-0.000206604
-0.00272643
0.000127735
-0.000166865
-0.00401154
-5.86582e-05
-4.97077e-05
-0.000912397
-5.50785e-05
-5.30698e-05
-0.000461142
-2.67998e-05
-5.1885e-05
-0.000456909
-3.62696e-05
-4.97131e-05
-0.000350824
-4.01053e-05
-4.7184e-05
-0.000182738
1.72476e-06
-5.39599e-05
-0.000551824
-9.87381e-06
-5.52782e-05
-0.000148907
-3.62709e-05
-5.64451e-05
0.000264544
0.000107355
-8.1524e-05
-0.000619922
0.000100882
-9.12259e-05
-0.00155838
7.34732e-05
-4.95855e-05
-0.0010548
-0.00125522
-0.000159809
-0.00358787
-0.0012048
-2.99644e-05
-0.00397009
-0.00126127
-0.000280029
-0.00323643
-0.00050525
0.000203728
-0.00448625
-0.000908882
0.000229169
-0.00406004
-0.00156435
0.000145937
-0.00303654
-0.000288786
0.000402841
-0.00493238
-0.000456315
0.000271002
-0.0050582
-0.000843544
0.000189872
-0.0044779
-0.00146692
4.31213e-05
-0.00336803
6.90122e-05
0.000167722
-0.00611219
-0.000325763
5.93091e-05
-0.00579443
-0.000666491
6.27032e-05
-0.00543976
-0.000656179
-0.000403749
-0.00649078
-0.00125897
-0.00039464
-0.00428358
-0.000284503
0.00108272
-0.00633645
-0.000122458
0.000705854
-0.00721678
-0.00061261
0.000607888
-0.00717257
-0.000677936
0.000669701
-0.00651845
-0.00089135
0.000745832
-0.00671388
-0.00163531
0.000373305
-0.00577143
-0.000413769
0.001052
-0.00720223
-0.000313848
0.00123275
-0.00724801
-0.000544027
0.00120356
-0.00808455
-0.000651337
0.00103233
-0.00839856
-0.000706508
0.000997146
-0.00837449
-0.000827348
0.000636668
-0.00873412
-0.0015317
0.000239838
-0.0054463
-0.00045831
0.00125135
-0.00575963
-0.000415644
0.00115643
-0.00564424
-9.25811e-05
0.00155462
-0.00447236
-0.000507685
0.00151948
-0.00635762
-0.000318749
0.00142377
-0.00726964
-0.000127702
0.00163249
-0.0079138
-0.000293828
0.00131545
-0.00737628
-0.00154845
0.000529079
-0.00558274
-0.000299729
0.000698895
-0.0043932
-0.000278002
0.000606531
-0.00375967
-0.000195536
0.000614977
-0.0028495
-5.5509e-05
0.000822497
-0.00192963
-0.000163596
0.000958402
-0.00196468
-5.30343e-05
0.000987503
-0.0060367
0.000310782
0.000615634
-0.00710302
0.000614379
0.000625862
-0.00658528
-0.000967211
0.000765226
-0.00862692
-0.000351373
-7.89508e-06
-0.00335431
-0.000148584
-0.000161921
-0.00231101
-0.000183481
-0.000275548
-0.00187186
-6.11523e-05
-0.000302491
-0.00168766
-8.66965e-05
-0.000162698
-0.000931508
-0.000101601
-0.000174651
0.000108726
-0.000179115
-0.00028551
-0.00167398
0.00032133
-0.000198026
-0.00430615
0.000256348
1.98248e-05
-0.00521811
7.45932e-05
0.000243423
-0.0070808
-0.00016965
-0.000142236
-0.0022717
-0.000192671
-0.000148871
-0.00161285
-2.80314e-05
-0.000168294
-0.00146491
-2.23105e-05
-0.000113033
-0.000199367
-6.69366e-05
-3.94618e-05
-0.000497514
-3.06539e-05
2.91873e-05
-0.000201989
-4.90602e-06
-1.49743e-05
0.00167337
-3.54124e-05
-5.2014e-05
0.0017703
0.000197011
-8.33159e-05
-0.00134391
0.000213415
-0.000221683
-0.00278414
0.000137368
-8.72189e-05
-0.00398821
-4.59682e-05
-4.7615e-05
-0.00137421
-5.77864e-05
-4.99411e-05
-0.000857739
-5.65822e-05
-5.31728e-05
-0.000403272
-2.97243e-05
-5.23925e-05
-0.000424505
-3.54329e-05
-5.03742e-05
-0.000312201
-3.89046e-05
-4.79126e-05
-0.000149881
3.8138e-06
-5.41528e-05
-0.000556763
-7.97202e-06
-5.43497e-05
-0.00014303
-2.67127e-05
-5.68339e-05
0.000266566
0.000100908
-8.15966e-05
-0.000730459
8.18159e-05
-9.04478e-05
-0.00159934
4.00702e-05
-5.08268e-05
-0.00104405
-0.00152783
0.000215496
-0.00273272
-0.00139086
-3.48902e-06
-0.00366117
-0.00120949
-7.94773e-05
-0.00356017
-0.000732872
0.000191866
-0.00404616
-0.00112073
-0.000142781
-0.00389549
-0.00125815
-0.000312681
-0.00322995
-0.000382141
0.000259057
-0.00452585
-0.000437691
0.000144231
-0.00441993
-0.000899732
0.000201955
-0.00405987
-0.00152977
0.000119938
-0.00309363
-0.000206932
0.000592211
-0.00521745
-0.000305025
0.000397368
-0.00507949
-0.000490183
0.000269204
-0.00531384
-0.000927672
0.000175035
-0.00433832
-0.0014084
0.000175055
-0.00339365
-0.000108942
8.86421e-05
-0.00633655
-4.28145e-05
6.6419e-05
-0.00619894
-0.000519822
0.000152786
-0.0059773
-0.000843572
0.000179451
-0.00585732
-0.000971987
-0.00037256
-0.00643222
-0.00127382
-0.000427296
-0.00421777
-0.000304961
0.00104731
-0.00624844
-0.000296679
0.00105793
-0.0067057
-0.000477719
0.000642874
-0.00731807
-0.000638763
0.000702809
-0.00721825
-0.000702574
0.000701426
-0.00647797
-0.000989152
0.000709812
-0.00688858
-0.00159273
0.00024338
-0.00595379
-0.000572879
0.0013342
-0.00676944
-0.000326739
0.00115851
-0.00721688
-0.000329353
0.0012991
-0.00710677
-0.000628022
0.00116818
-0.00810007
-0.00066921
0.00118774
-0.00823869
-0.000721006
0.0011503
-0.00829482
-0.000766878
0.000730873
-0.0087521
-0.00149826
0.000354811
-0.0058513
-0.000390929
0.00131433
-0.00565775
-0.000617964
0.0012669
-0.00553013
-0.000266505
0.00129739
-0.00531604
-0.000151866
0.00162197
-0.0044785
-0.000483744
0.00140565
-0.00601935
-5.39274e-05
0.00151794
-0.00715419
0.000169679
0.00168335
-0.0081406
0.000440219
0.00150229
-0.00817533
-0.00123138
0.000426046
-0.00574462
-0.000328175
0.00069748
-0.00476863
-0.000366803
0.000676774
-0.00424523
-0.000474795
0.000628739
-0.00348211
-0.000194853
0.000680912
-0.00257422
-7.04797e-05
0.000695899
-0.00168335
-0.000144355
0.000807222
-0.00174165
-0.000132239
0.000856576
-0.00632452
0.00061707
0.000439784
-0.00721268
0.000602756
0.000920129
-0.00708659
-0.000624882
0.000867433
-0.00879488
-0.000220957
-0.000125486
-0.00368008
-0.000358336
-2.49776e-05
-0.00332558
-0.00027202
-0.000103825
-0.00223874
-0.000123508
-0.000307839
-0.00176531
-0.000102211
-0.000271274
-0.00154381
-0.000153067
-0.000204611
-0.000779135
-0.00013344
-0.000215901
0.000167651
-0.000163146
-0.000312253
-0.00143202
0.000289431
-0.000247312
-0.00413143
0.000400762
-5.63019e-05
-0.00510573
2.07847e-05
0.00032127
-0.00728548
-0.000129883
-0.000111125
-0.00268603
-0.000169781
-0.000147292
-0.00216129
-0.000191384
-0.000156825
-0.00148951
-2.99588e-05
-0.000171665
-0.00140605
-1.68789e-05
-0.000120892
-0.000136491
-4.60755e-05
-4.94864e-05
-0.000411669
-8.06182e-06
1.77401e-05
-0.000222828
2.18884e-05
-2.6092e-05
0.00161759
-6.67822e-06
-4.58439e-05
0.00171279
0.000198887
-0.000109474
-0.00155409
0.000167092
-0.000231832
-0.0027248
9.33514e-06
-0.000118397
-0.00383908
-4.16801e-05
-4.49765e-05
-0.00138041
-4.71296e-05
-4.67637e-05
-0.00133026
-5.42353e-05
-4.97807e-05
-0.000806896
-5.42217e-05
-5.39155e-05
-0.000347528
-3.07283e-05
-5.30499e-05
-0.000391101
-3.50014e-05
-5.05275e-05
-0.000274585
-3.85901e-05
-4.88468e-05
-0.000116597
7.23074e-06
-5.44961e-05
-0.000563848
-8.26903e-06
-5.34568e-05
-0.000138138
-1.67311e-05
-5.71845e-05
0.000258885
9.30984e-05
-8.15386e-05
-0.000832467
6.136e-05
-8.92402e-05
-0.00162228
2.32838e-05
-5.09401e-05
-0.00101639
-0.0016936
8.23462e-05
-0.00262501
-0.00135748
0.000223885
-0.00330851
-0.00157228
0.00023811
-0.00260803
-0.00104622
0.000273457
-0.00396515
-0.00131722
8.4181e-05
-0.00362834
-0.00121702
-2.74236e-05
-0.00357388
-0.000676757
0.000453036
-0.00423429
-0.000698664
0.000139853
-0.00406782
-0.00104955
-0.000162065
-0.00389629
-0.00122022
-0.000248922
-0.00329057
-0.00030223
0.0003034
-0.00491788
-0.000335744
0.000211905
-0.00456281
-0.000394468
0.000107465
-0.00442116
-0.000857215
0.000135849
-0.00414623
-0.00151786
0.000125377
-0.00310955
-0.000279361
0.000742873
-0.00528672
-0.000189037
0.000578421
-0.00525228
-0.000431296
0.000395369
-0.00529418
-0.000765168
0.000235331
-0.00545254
-0.000989283
0.000211717
-0.00435769
-0.00139419
0.000283695
-0.00355698
-4.44034e-05
0.000207126
-0.00670673
-0.000272278
-2.06437e-06
-0.00629246
-0.000285217
0.000133115
-0.00637178
-0.000510383
0.000309598
-0.00623582
-0.000958169
0.000330102
-0.00630439
-0.00127042
-0.000351382
-0.00622686
-0.00132214
-0.000239102
-0.00424926
-0.000506936
0.000943416
-0.00627784
-0.000220015
0.00124964
-0.00654687
-0.00055707
0.000992539
-0.00682764
-0.000623869
0.000719768
-0.00733918
-0.000682607
0.000734855
-0.00723829
-0.000696811
0.000722497
-0.00651485
-0.00106367
0.000630459
-0.00697887
-0.00157127
-8.86498e-05
-0.00579212
-0.000774627
0.0015924
-0.00590479
-0.000588301
0.00127747
-0.00691807
-0.000275141
0.00117257
-0.00708172
-0.000493244
0.00132455
-0.00692176
-0.00068839
0.00122223
-0.00792991
-0.000535941
0.00146432
-0.00807069
-0.00054611
0.00126592
-0.00811409
-0.000357472
0.000933815
-0.00853341
-0.00121567
0.00040318
-0.00627019
-0.000295627
0.00130096
-0.00586391
-0.000393902
0.00124799
-0.00561174
-0.000514304
0.00122653
-0.00541977
-0.000335556
0.00140506
-0.00495843
-0.000347121
0.00156323
-0.00435944
-0.000299924
0.0013447
-0.00569054
2.22045e-05
0.00153295
-0.00715824
0.000486038
0.00163864
-0.00814591
0.000399689
0.00138819
-0.00893441
-0.00109002
0.000264622
-0.00554411
-0.000151641
0.000642067
-0.00493208
-0.000248626
0.000630873
-0.00483244
-0.000383104
0.000632545
-0.00413795
-0.000336647
0.000632183
-0.00322024
-0.00022146
0.000630846
-0.00238991
-0.000256115
0.000666902
-0.00143998
-0.00025019
0.000623011
-0.00139133
-6.80818e-05
0.000690533
-0.00667033
0.00053936
0.000569438
-0.00711192
0.000588997
0.00090625
-0.00731365
-0.0006134
0.000838341
-0.00899903
-0.000180049
-0.000210441
-0.00338822
-0.000255935
-8.23429e-05
-0.00353656
-0.000343869
-6.10752e-05
-0.00321585
-0.000233457
-0.000153703
-0.00218938
-0.00013349
-0.000310361
-0.00160961
-0.000174503
-0.000312391
-0.0013076
-9.91793e-05
-0.000225775
-0.000678144
-0.000119462
-0.000246573
0.000243322
-7.9082e-05
-0.000368037
-0.00123889
0.000280014
-0.000289244
-0.00397961
0.000294648
-1.99373e-05
-0.00489208
-0.000206992
0.000230924
-0.00730008
-0.000126344
-0.000100589
-0.00282995
-0.000134278
-0.000134941
-0.00261123
-0.000159947
-0.000154285
-0.00205812
-0.000183912
-0.000164333
-0.00136715
-6.12065e-05
-0.000174663
-0.0013218
-1.92079e-05
-0.000127718
-7.40527e-05
-5.26393e-05
-5.88316e-05
-0.000321048
4.23052e-06
-3.0113e-06
-0.000242908
4.37434e-05
-3.62373e-05
0.00155597
3.50529e-05
-6.22336e-05
0.00161376
0.000210778
-0.000121332
-0.00178228
0.000175827
-0.000230399
-0.00272727
-5.7988e-05
-0.000121089
-0.00363672
-3.61742e-05
-4.60388e-05
-0.00123844
-3.52231e-05
-4.53527e-05
-0.0013466
-5.73709e-05
-4.47507e-05
-0.00127792
-5.06132e-05
-5.08277e-05
-0.00075937
-5.38195e-05
-5.3249e-05
-0.000293509
-3.28911e-05
-5.35477e-05
-0.00035519
-3.46087e-05
-5.08097e-05
-0.000238013
-3.72018e-05
-4.97332e-05
-8.41575e-05
1.0173e-05
-5.47532e-05
-0.000572724
-1.01391e-05
-5.25695e-05
-0.000132614
-1.06092e-05
-5.74415e-05
0.000245397
8.56306e-05
-8.19523e-05
-0.000925385
4.37193e-05
-8.78384e-05
-0.0016291
1.68723e-05
-5.06278e-05
-0.000982636
-0.00145942
-8.48254e-05
-0.00252245
-0.00130388
-4.78267e-05
-0.0032054
-0.00155333
4.23773e-05
-0.00268634
-0.00120749
0.000282192
-0.00361358
-0.00127796
0.000142245
-0.0032519
-0.00151629
0.000281787
-0.00259054
-0.000819951
0.000320425
-0.00394548
-0.00110066
0.000347999
-0.00382697
-0.0012178
0.000170376
-0.0036579
-0.00122883
4.49998e-06
-0.00356977
-0.000185543
0.000574498
-0.00442322
-0.000593858
0.000423188
-0.00425951
-0.000745455
0.000107525
-0.00398643
-0.000885857
-0.000141407
-0.00397516
-0.00122347
-0.000215954
-0.00336901
-0.000489241
0.000503627
-0.00503654
-0.000325186
0.00030619
-0.00487602
-0.000468005
0.000219644
-0.00463828
-0.000711297
7.69502e-05
-0.00441613
-0.000808047
4.81594e-05
-0.00425025
-0.00137209
0.000106269
-0.00323793
-0.00020214
0.000819962
-0.00539489
-0.000298301
0.000658014
-0.00534029
-0.000228463
0.000503796
-0.00541746
-0.00047256
0.000414158
-0.00551083
-0.000972533
0.000253718
-0.00548018
-0.00117501
0.000231647
-0.00440105
-0.0013981
0.000275573
-0.00375658
2.41437e-05
0.000381799
-0.00703318
-8.41632e-05
4.54805e-05
-0.00689013
-0.000392033
8.83363e-05
-0.00641272
-0.000615956
0.000302058
-0.00637215
-0.000452765
0.000436058
-0.00657162
-0.000966977
0.000289951
-0.00667556
-0.00148819
-0.000153364
-0.00588808
-0.00132592
-0.000106549
-0.00438806
-0.000856416
0.000957155
-0.00664027
-0.000337088
0.00137178
-0.00665119
-0.000382114
0.00131524
-0.00676259
-0.00070485
0.000915795
-0.00681207
-0.000769481
0.00079642
-0.00731966
-0.000701512
0.000813578
-0.0071638
-0.000732967
0.000804494
-0.00650203
-0.00102164
0.00022384
-0.0066272
-0.00141155
-0.00014524
-0.005451
-0.000473663
0.00174646
-0.0058991
-0.000614142
0.00160027
-0.00600736
-0.000439533
0.00124858
-0.00706885
-0.000423917
0.00117486
-0.00684367
-0.000639652
0.00138711
-0.00679411
-0.00057589
0.00142473
-0.00761436
-0.000491908
0.00148696
-0.00777761
-0.000360147
0.00141434
-0.00774843
-0.000337141
0.000980822
-0.00837423
-0.00122122
0.000298372
-0.00643736
-0.000110103
0.00133505
-0.00569855
-0.000237882
0.00122668
-0.00585335
-0.000423499
0.00114484
-0.00548966
-0.000439989
0.00124672
-0.00515808
-0.000511102
0.00140674
-0.0045123
-0.000546245
0.00150104
-0.00422565
-0.000332185
0.00130855
-0.00538415
0.000153172
0.00149703
-0.00723788
0.000480727
0.00154267
-0.00824176
9.70115e-05
0.00108592
-0.00926372
-0.00105131
0.000317556
-0.00542376
-0.000114228
0.000424632
-0.0047379
-0.000122597
0.000554119
-0.00498867
-0.00024816
0.00053854
-0.00483415
-0.000501484
0.000602776
-0.00384052
-0.000427396
0.000599117
-0.00289461
-0.00033045
0.000635171
-0.00220224
-0.000275739
0.000537504
-0.00117791
-0.000233154
0.000499133
-0.00108624
9.91551e-05
0.000424019
-0.00670315
0.000502867
0.000449346
-0.00687787
0.000458893
0.000919239
-0.00755879
-0.000940325
0.000764318
-0.00903002
-2.99718e-05
-0.000270922
-0.00375315
-0.00019775
-0.000135852
-0.00327124
-0.000239858
-0.000148702
-0.00336902
-0.000343404
-0.000100351
-0.00310971
-0.000257496
-0.00014647
-0.00215698
-0.000168906
-0.000312087
-0.00146022
-7.88332e-05
-0.000322666
-0.00118452
-0.000121447
-0.000232539
-0.0005665
-0.00012021
-0.000276432
0.000315671
-3.73677e-05
-0.000399416
-0.0010563
0.000294239
-0.000356959
-0.00372605
0.000256867
-0.000113198
-0.004629
-0.000402651
0.00022898
-0.0071844
-0.00011664
-0.000145086
-0.00261155
-9.04565e-05
-0.000125492
-0.00278417
-0.000146458
-0.000122688
-0.00255374
-0.00015133
-0.000159091
-0.00196264
-0.000183892
-0.000155368
-0.00125638
-7.96182e-05
-0.000173615
-0.00122917
-2.16447e-05
-0.000136727
-9.1209e-06
-5.2454e-05
-7.46308e-05
-0.000234176
3.02862e-05
-1.91418e-05
-0.000280117
6.22142e-05
-4.47838e-05
0.00146616
6.74763e-05
-6.07123e-05
0.00147506
0.00019741
-0.000152678
-0.00197178
0.000166621
-0.00022321
-0.00274805
-9.16823e-05
-0.000107032
-0.00342114
-1.16727e-05
-4.82364e-05
-0.00113559
-1.76731e-05
-4.59213e-05
-0.0012202
-5.13316e-05
-4.26893e-05
-0.00129733
-5.56888e-05
-4.818e-05
-0.00122488
-6.64565e-05
-5.04623e-05
-0.0006957
-5.33806e-05
-5.36247e-05
-0.000240051
-3.43051e-05
-5.43477e-05
-0.000317347
-3.36989e-05
-5.10211e-05
-0.000203026
-3.54455e-05
-5.05462e-05
-5.29191e-05
1.26229e-05
-5.48307e-05
-0.000583086
-1.08324e-05
-5.17504e-05
-0.000127473
-6.29791e-06
-5.80198e-05
0.000227763
7.54417e-05
-8.28851e-05
-0.00100578
2.84164e-05
-8.62771e-05
-0.00162187
6.15321e-06
-5.01112e-05
-0.000938678
-0.0015118
-1.7305e-06
-0.00251389
-0.0013576
-2.04363e-05
-0.00319918
-0.00138738
-2.32659e-05
-0.00266513
-0.0013242
2.56094e-05
-0.00333955
-0.00110356
-3.65716e-05
-0.00330085
-0.0014664
-3.33806e-07
-0.0027359
-0.000858728
0.000345671
-0.00367142
-0.00131402
0.000244678
-0.00350265
-0.00103502
0.000146427
-0.00329931
-0.00160621
0.00026979
-0.00248296
-0.000423001
0.000544563
-0.00408552
-0.000797866
0.000507299
-0.00390077
-0.00111118
0.000401479
-0.00369235
-0.00118409
0.000169745
-0.00352491
-0.00130056
-5.71706e-05
-0.00343551
-0.000374172
0.000573303
-0.00441039
-0.000490202
0.000569674
-0.00440469
-0.000727068
0.000371428
-0.00426435
-0.000835535
5.27749e-05
-0.00405637
-0.00088544
-0.000174471
-0.00393925
-0.00120313
-0.000127361
-0.0034106
-0.000463411
0.000636084
-0.00517777
-0.000570945
0.000570344
-0.00502805
-0.000376817
0.000332997
-0.00484102
-0.000568048
0.000260199
-0.00472604
-0.000786457
-9.66149e-05
-0.00445743
-0.000962233
-1.60487e-05
-0.00434072
-0.00141358
9.50293e-05
-0.00331748
-0.000186245
0.000945127
-0.00561469
-0.000173118
0.000769417
-0.00541734
-0.000360647
0.000600808
-0.00546869
-0.000510022
0.000526339
-0.00563558
-0.000472835
0.000472265
-0.0057093
-0.00114614
0.000282805
-0.00535217
-0.00137378
0.000211261
-0.00445115
-0.00133611
0.000218605
-0.003965
-0.000226878
0.000378245
-0.00695059
-3.40377e-05
0.000131233
-0.00742198
-0.000357398
0.000160145
-0.00698666
-0.000581687
0.000390887
-0.00662471
-0.000649524
0.000439037
-0.00649509
-0.00050767
0.000361824
-0.00683734
-0.00116218
0.000254512
-0.00665422
-0.00162112
3.5834e-05
-0.00543099
-0.0013151
-0.000199238
-0.00428528
-0.000525378
0.00112762
-0.00722318
-0.000463194
0.00145738
-0.00687682
-0.000361814
0.00160637
-0.00702004
-0.000576257
0.00113069
-0.00682514
-0.000785912
0.000962154
-0.00683154
-0.000852084
0.000891202
-0.00712109
-0.000648512
0.000920135
-0.00712283
-0.000774958
0.000732542
-0.00659592
-0.000956617
9.63129e-05
-0.00624927
-0.00144357
-0.000141118
-0.00508753
-0.000224931
0.00180325
-0.00648533
-0.000434201
0.00175926
-0.00586177
-0.000503812
0.00154745
-0.00622591
-0.000492234
0.00122914
-0.00707087
-0.000656141
0.0012893
-0.00660083
-0.000789313
0.0014179
-0.0065442
-0.000664746
0.00149855
-0.00729339
-0.000393876
0.00167765
-0.00749387
-0.000299837
0.00147523
-0.00746227
-0.000450222
0.000890019
-0.00841864
-0.00130453
0.000184324
-0.00636846
-3.97651e-05
0.00126729
-0.00542196
-6.96599e-05
0.00117884
-0.00570365
-0.000364582
0.00110928
-0.00570136
-0.000701895
0.00114352
-0.00518604
-0.000580004
0.00121385
-0.00481258
-0.000424488
0.00141434
-0.00433156
-0.000603351
0.00138867
-0.00397816
-7.70128e-05
0.00125979
-0.00530305
0.000469636
0.00127043
-0.00733612
0.000449458
0.000758872
-0.0078613
-9.89895e-05
0.000979124
-0.00936741
-0.00131615
0.000422146
-0.00547008
0.000110912
8.32718e-05
-0.00422912
-9.80578e-05
0.000365599
-0.00464907
-0.000107286
0.000458483
-0.00504118
-0.000349846
0.000516315
-0.00474124
-0.000398591
0.000582572
-0.00368288
-0.000527383
0.000616493
-0.00251745
-0.000285654
0.00053508
-0.00199299
-0.000348271
0.000464969
-0.000916924
-0.000206471
0.000340343
-0.000916305
0.000522126
0.000115818
-0.00692912
0.000535159
0.00041997
-0.00661952
0.000241085
0.000841563
-0.00762025
-0.0012997
0.000670242
-0.00880321
-0.000145333
-0.00030967
-0.00333069
-5.33226e-05
-0.000244725
-0.00368141
-0.000165759
-0.000149571
-0.00325107
-0.000243217
-0.000155532
-0.00322195
-0.000363291
-0.000100645
-0.00297614
-0.000289513
-0.000168076
-0.0020911
-0.000137796
-0.000304814
-0.00136192
-0.00011118
-0.000317695
-0.00104064
-7.47763e-05
-0.000245584
-0.000492287
-6.48678e-05
-0.000294744
0.000338082
2.05246e-05
-0.000436215
-0.000930095
0.000306345
-0.000396395
-0.00355179
0.000188658
-0.000115812
-0.00430625
-0.000566796
0.000267035
-0.00697632
-6.73447e-05
-0.000165216
-0.00243188
-7.57991e-05
-0.000137971
-0.00254094
-9.07606e-05
-0.000114848
-0.00275258
-0.00012246
-0.000110888
-0.00253517
-0.000195596
-0.000147859
-0.00184101
-0.000178547
-0.00015635
-0.00114847
-0.000107392
-0.000189993
-0.00110282
-3.53241e-05
-0.000140227
5.81007e-05
-4.70025e-05
-8.50093e-05
-0.000156752
4.27639e-05
-3.25132e-05
-0.000322528
8.80172e-05
-5.64535e-05
0.00136306
8.13005e-05
-8.06397e-05
0.00131542
0.000184452
-0.000159768