/*--------------------------------*- C++ -*----------------------------------*\
  =========                 |
  \\      /  F ield         | OpenFOAM: The Open Source CFD Toolbox
   \\    /   O peration     | Website:  https://openfoam.org
    \\  /    A nd           | Version:  7
     \\/     M anipulation  |
\*---------------------------------------------------------------------------*/
FoamFile
{
    version     2.0;
    format      ascii;
    class       surfaceScalarField;
    location    "5";
    object      phi_0;
}
// * * * * * * * * * * * * * * * * * * * * * * * * * * * * * * * * * * * * * //

dimensions      [0 3 -1 0 0 0 0];

internalField   nonuniform List<scalar> 
54125
(
0.000102837
-1.85457e-06
-0.000314597
0.000439367
-8.31847e-05
-0.00390445
0.00021256
-7.48063e-05
-0.000400311
0.000100894
-2.74182e-06
-0.00041275
0.000158679
0.000501653
-0.00670382
0.000372615
-2.05623e-05
-0.00203968
0.00039203
-0.000120641
-0.00407495
5.58351e-05
-7.60359e-05
0.000218682
0.000223065
-7.65393e-05
-0.000549579
0.000102381
-4.86461e-06
-0.000510267
-0.000244614
0.000517277
-0.00940258
0.000323298
0.000431673
-0.00556992
0.000197241
0.000244134
-0.00675317
0.000116874
3.58019e-05
-0.000226046
0.00046374
-7.37607e-05
-0.00232723
0.000353655
-0.000147239
-0.00417898
-9.61031e-05
-5.25143e-05
-2.044e-05
7.09032e-05
-7.80715e-05
0.000149311
0.000233995
-7.82531e-05
-0.000710186
0.000106886
-8.61905e-06
-0.000608534
-0.000567443
0.000539971
-0.00635382
-0.000678349
0.00127272
-0.00688198
-0.000210843
0.000495843
-0.00949034
0.000279008
0.000395978
-0.00348775
0.000499346
0.000150554
-0.00551194
5.97113e-05
0.00030131
-0.00676053
-0.000197785
1.84389e-05
0.00128256
4.02486e-05
2.55794e-05
-0.000294731
0.000329503
-0.000126368
-0.00244361
0.00030602
-0.0001685
-0.00420962
-3.15661e-05
-5.66496e-05
-0.000270261
-8.78986e-05
-5.47678e-05
4.41548e-05
8.10648e-05
-7.9754e-05
6.97475e-05
0.000233433
-8.00092e-05
-0.000872228
0.000118027
-1.59059e-05
-0.000710655
-0.00106315
1.52875e-05
-0.00526267
-0.000744516
0.000911325
-0.00825091
-0.000943587
0.000481319
-0.0061024
0.000173102
0.00155394
-0.006289
-0.000794156
0.00128479
-0.00637742
-0.000584509
0.000636591
-0.00948271
-0.000172765
0.000282467
-0.00198845
0.000300549
0.000241949
-0.00383945
0.000628388
0.000128546
-0.00563806
-8.35355e-05
0.000197508
-0.00656849
-0.000141469
3.79757e-05
0.00151045
-0.000259875
8.72769e-06
0.00147139
7.66713e-05
-6.27078e-07
-0.000416079
0.000357731
-0.000163031
-0.00257338
0.000295696
-0.000106894
-0.00428039
1.62176e-07
-5.26501e-05
-0.000529369
-2.74191e-05
-5.73345e-05
-0.000240276
-8.10082e-05
-5.60294e-05
0.000101438
9.44583e-05
-8.30947e-05
-2.16253e-05
0.000223643
-8.28179e-05
-0.00102896
0.000105642
-2.30231e-05
-0.000793274
-0.0014796
0.000226963
-0.00451244
-0.000382163
0.000140333
-0.00780329
-0.00145729
-6.6812e-05
-0.00468215
7.60404e-05
0.00118932
-0.00951232
-0.00127513
0.00108525
-0.00837386
-0.00109263
0.000411855
-0.00600613
-0.000140356
0.00145366
-0.00468587
0.000534716
0.00153346
-0.00677184
-5.59754e-06
0.00145904
-0.00656588
-0.000973838
0.000784552
-0.00937696
-0.000345483
6.5139e-05
-0.000851937
-0.000203079
0.000166035
-0.00196933
0.000435064
0.000128977
-0.00419827
0.000774878
3.19439e-05
-0.00588965
-5.19217e-05
0.00043323
-0.0066541
-6.65488e-05
8.8604e-05
-0.000215765
-0.000126445
2.9973e-05
0.00158823
-0.000185603
-3.90112e-07
0.00157574
-3.98517e-06
-2.29859e-05
-0.000457681
0.000271072
-0.000185382
-0.00254232
0.00024159
-0.000131834
-0.00428451
-3.68431e-05
-4.49391e-05
-0.000315477
1.22637e-06
-5.29734e-05
-0.000534956
-2.5252e-05
-5.74346e-05
-0.000213618
-7.43114e-05
-5.91777e-05
0.000151833
0.000106095
-8.19343e-05
-0.000128604
0.000201495
-8.49062e-05
-0.00116857
0.000101648
-3.06016e-05
-0.00086432
-0.00161736
0.000107431
-0.00383096
-0.000765636
0.000535859
-0.00506084
-0.00161082
0.000268799
-0.00462771
-0.000280394
0.000609666
-0.00872016
-0.000798583
0.000204503
-0.00855115
-0.00142658
0.000189676
-0.00453788
-0.000172056
0.0014405
-0.00858173
7.33516e-05
0.00135945
-0.00932516
-0.00114234
0.00119886
-0.00802412
-0.00145519
0.000423101
-0.00594787
-0.000221161
0.00110261
-0.00321655
3.64584e-05
0.00148691
-0.00487886
0.000561668
0.00147216
-0.00691156
0.000435882
0.00147128
-0.00691361
-0.00105216
0.000897002
-0.00927373
-9.54067e-05
-9.5328e-05
-0.00165559
-0.000283088
2.42352e-05
-0.000553494
-6.7008e-05
0.00011917
-0.00207812
0.000223867
0.00012223
-0.00451641
0.000464038
0.00023729
-0.00588667
0.000151055
0.0002905
-0.00685406
-6.94159e-05
1.83746e-05
-0.000855068
-5.46203e-05
7.67278e-05
-0.000206673
-0.000106191
2.3312e-05
0.00164547
-0.000193926
-1.16799e-05
0.00168405
7.28768e-05
-3.39758e-05
-0.000575868
0.000318089
-0.00019312
-0.00259763
0.000191024
-0.000148549
-0.00422533
-3.62424e-05
-4.94593e-05
-0.000478022
-3.82071e-05
-4.52588e-05
-0.000284985
2.55681e-06
-5.34649e-05
-0.000541483
-2.0445e-05
-5.74246e-05
-0.000194927
-6.51076e-05
-5.80372e-05
0.000193043
0.000112356
-7.99134e-05
-0.000245953
0.00017728
-8.69532e-05
-0.0012895
0.000103666
-3.66952e-05
-0.000931291
-0.00148322
-6.79493e-06
-0.00342888
-0.000405028
4.83527e-05
-0.00594235
-0.00152174
9.85116e-05
-0.00401856
-0.00030056
0.000577295
-0.00665875
-0.000822528
0.000590233
-0.00535833
-0.0015752
0.000319738
-0.00479883
-0.000204717
0.000877161
-0.00848102
-0.000465807
0.000622408
-0.00859891
-0.00117715
0.000506555
-0.00883321
-0.00155883
0.000287186
-0.00472143
1.89593e-05
0.00139423
-0.00626536
-0.000234589
0.00147952
-0.00843075
-0.000141361
0.00140761
-0.00883089
-0.000826776
0.00121086
-0.00754923
-0.00160789
0.000638943
-0.00603109
-0.000113249
0.000810565
-0.00287162
-0.000145554
0.00111377
-0.00298094
5.38616e-05
0.00146879
-0.00499637
0.00031962
0.001433
-0.00696903
0.000515158
0.000911762
-0.00697949
-0.00077506
0.000884849
-0.00923246
-7.86456e-05
-0.000259552
-0.00214325
-0.000130601
-0.000120661
-0.00143471
-0.000256349
-1.75867e-05
-0.000266579
-0.000164182
5.81446e-05
-0.00204378
0.000426186
-1.17656e-05
-0.00462066
0.000464704
4.94915e-05
-0.00579228
7.21217e-05
0.000208802
-0.00694396
-1.99019e-05
-7.59563e-05
-0.000444352
-4.56293e-05
5.29252e-06
-0.00077621
-4.06948e-05
6.27708e-05
-0.000202881
-8.22994e-05
1.57008e-05
0.00167994
-0.000161856
-1.59888e-05
0.00176281
0.00013583
-5.28044e-05
-0.000739657
0.000310564
-0.000193813
-0.00268565
0.000188072
-9.42975e-05
-0.00421544
-2.25709e-05
-5.1563e-05
-0.000519376
-3.65185e-05
-4.93739e-05
-0.000437389
-3.92611e-05
-4.57737e-05
-0.000253415
2.93288e-06
-5.36885e-05
-0.000548152
-1.96717e-05
-5.68992e-05
-0.000176393
-5.90374e-05
-5.65301e-05
0.000228697
0.00011431
-7.94864e-05
-0.000367729
0.000152345
-8.90229e-05
-0.00138952
8.66763e-05
-4.16705e-05
-0.000976297
-0.00166988
0.000160047
-0.00312385
-0.000721484
0.000190192
-0.00448358
-0.0013602
-1.86809e-05
-0.00357174
-0.000469942
3.48241e-05
-0.00506309
-0.000473031
-6.02216e-05
-0.00613311
-0.00125499
-3.89197e-05
-0.00429985
-9.81769e-05
0.000670212
-0.00705574
-0.000497711
0.000541253
-0.00657786
-0.00112177
0.000603239
-0.00569722
-0.00162391
0.000363255
-0.005097
7.57186e-05
0.00117331
-0.00789205
-0.000386648
0.000914946
-0.0086215
-0.000602045
0.000813958
-0.00844563
-0.00119764
0.000613042
-0.00878821
-0.00162802
0.000249026
-0.00495032
-0.00016534
0.00109115
-0.00519897
-0.000234939
0.00158491
-0.00628137
-0.000304371
0.00142399
-0.0080889
-0.000409311
0.00140499
-0.00829608
-0.000391355
0.00128292
-0.00728669
-0.00158904
0.000535157
-0.00575226
-0.000210432
0.000659029
-0.00338277
-0.000147366
0.000787733
-0.00252881
-0.000208361
0.00113325
-0.00269338
-0.000100852
0.00144681
-0.00507351
0.000576778
0.000852067
-0.00705993
0.00025273
0.000794704
-0.00667737
-0.00085263
0.00075447
-0.00906218
8.41327e-05
-0.000355113
-0.00213064
-2.00454e-05
-0.000278298
-0.0020112
-0.000105803
-0.000131045
-0.00125615
-0.000193393
-7.10242e-05
-2.63173e-05
-0.000158424
-6.98617e-05
-0.00198911
0.000113541
-0.000132356
-0.00441653
0.000412719
-4.09963e-05
-0.00564464
-4.52475e-05
0.000137965
-0.00684861
4.15185e-05
-0.000158136
-0.00154612
-2.55696e-05
-9.09668e-05
-0.000359042
-6.44585e-05
-9.87051e-06
-0.000678372
-2.5611e-05
5.23223e-05
-0.000210958
-6.89953e-05
1.07146e-05
0.00170256
-0.00012499
-2.99203e-05
0.00180588
0.000164697
-6.36743e-05
-0.000920183
0.000302421
-0.000194372
-0.00273565
0.000140142
-0.000118604
-0.0041503
-4.81123e-05
-5.30603e-05
-0.000523645
-2.39155e-05
-5.16579e-05
-0.000493176
-3.65906e-05
-4.93246e-05
-0.000397247
-4.03449e-05
-4.64835e-05
-0.000220275
1.86014e-06
-5.39707e-05
-0.00055294
-1.42339e-05
-5.60533e-05
-0.000162636
-4.58371e-05
-5.60582e-05
0.000251106
0.000112369
-8.03816e-05
-0.000488739
0.000131313
-9.05286e-05
-0.00147197
7.3544e-05
-4.61971e-05
-0.00100364
-0.0014521
-0.000196494
-0.00322884
-0.000899566
0.00025898
-0.00410996
-0.00154293
0.00016182
-0.00310294
-0.000527155
0.000275831
-0.00488264
-0.000790391
0.00020905
-0.00439395
-0.00134737
-3.03171e-05
-0.00344905
-0.000151548
6.84599e-05
-0.00576892
-0.000560634
4.95142e-05
-0.0051099
-0.000714263
-0.000292632
-0.0062869
-0.00135347
-0.000320225
-0.00425006
0.000103744
0.000876569
-0.00684475
-0.000328258
0.000598346
-0.00717123
-0.000609971
0.000574334
-0.00654103
-0.000933688
0.000685237
-0.00628315
-0.00169756
0.000380317
-0.00540778
-0.000182239
0.00107542
-0.00714566
-0.000331345
0.00113528
-0.00801598
-0.000569818
0.000982801
-0.00852489
-0.00068969
0.000884196
-0.0084364
-0.000930677
0.000626149
-0.00862601
-0.00160586
0.000214916
-0.00514842
-0.000436773
0.00106263
-0.00605761
-0.000340198
0.00124886
-0.00467009
-0.000364183
0.00168189
-0.00638344
-0.000418472
0.00132438
-0.00769067
-0.000276445
0.00156337
-0.0077233
-0.000516561
0.00119263
-0.00717487
-0.00155428
0.000508302
-0.00555892
-0.000114267
0.000613801
-0.00409044
-0.000159375
0.000640143
-0.00309585
-4.40652e-05
0.000741671
-0.00219897
-0.000226596
0.00112112
-0.00233449
-9.08984e-05
0.00130165
-0.00559062
9.45816e-05
0.000769098
-0.00701537
0.000260618
0.000664932
-0.00643574
-0.00103513
0.000700537
-0.00877284
-0.000110105
-0.000145421
-0.00228592
-1.65688e-06
-0.000361703
-0.00207115
-0.000122645
-0.000247664
-0.0018364
-0.000106856
-0.000196646
-0.00104928
-0.000129023
-0.00011568
7.95292e-05
-0.000150746
-0.000205789
-0.00188992
0.000149274
-0.000185921
-0.00425618
0.000390298
-0.000109453
-0.0054851
-0.000133486
0.000290182
-0.00686516
-0.000171258
-0.000147717
-0.00174367
3.7489e-05
-0.000164358
-0.00153413
-2.54725e-05
-0.000102493
-0.000277538
-3.39078e-05
-2.28601e-05
-0.000609626
-2.75691e-05
4.00333e-05
-0.000210848
-3.64547e-05
-6.60949e-07
0.00169552
-6.25345e-05
-3.93201e-05
0.00179823
0.000185324
-7.98434e-05
-0.00110767
0.000211458
-0.000204487
-0.00272991
0.000124259
-0.000161718
-0.0040393
-5.8502e-05
-4.95871e-05
-0.000911303
-5.39685e-05
-5.29789e-05
-0.000468356
-2.62275e-05
-5.18751e-05
-0.000464398
-3.61653e-05
-4.96725e-05
-0.000357893
-3.97616e-05
-4.72918e-05
-0.000187192
1.92042e-06
-5.41381e-05
-0.000556776
-1.06188e-05
-5.5168e-05
-0.000152907
-3.72299e-05
-5.6266e-05
0.000264221
0.000107178
-8.13022e-05
-0.000605143
0.000104318
-9.09655e-05
-0.00153152
7.51624e-05
-4.89738e-05
-0.00102983
-0.00125716
-0.0001635
-0.00358968
-0.00120503
-2.6297e-05
-0.00397282
-0.00126566
-0.000276739
-0.00322937
-0.000505147
0.000204654
-0.00449001
-0.000908397
0.000231652
-0.00406178
-0.00156437
0.000147336
-0.00303327
-0.000283122
0.000402631
-0.00493232
-0.000457927
0.000268691
-0.00504499
-0.000840356
0.000187098
-0.00448527
-0.00146637
3.77618e-05
-0.00337392
6.74691e-05
0.000178018
-0.0061182
-0.000312887
5.55839e-05
-0.00579036
-0.000658695
5.93261e-05
-0.00541313
-0.000652131
-0.000396061
-0.00649262
-0.00126724
-0.000389621
-0.00429076
-0.000279466
0.00108403
-0.00631375
-9.66596e-05
0.000718864
-0.00719995
-0.000601709
0.000602544
-0.00716754
-0.000680734
0.000658956
-0.00652371
-0.000895536
0.000746146
-0.00668412
-0.00164185
0.000371896
-0.00574369
-0.000415536
0.00105351
-0.0072103
-0.000318887
0.00122024
-0.00725193
-0.0005318
0.00121153
-0.00807709
-0.0006588
0.0010164
-0.00841677
-0.000702563
0.000992938
-0.00837707
-0.000830321
0.000625919
-0.00872325
-0.0015311
0.000234321
-0.00540592
-0.00044463
0.00125999
-0.00577029
-0.000422096
0.00114753
-0.00569355
-8.75676e-05
0.00153198
-0.00447668
-0.000493528
0.00154298
-0.00633511
-0.000322789
0.00141198
-0.0073074
-0.000173548
0.00162285
-0.00788539
-0.000370318
0.00129341
-0.00732904
-0.00156122
0.000529209
-0.00556204
-0.000300037
0.000699162
-0.00439724
-0.000255703
0.000601109
-0.00379736
-0.000200233
0.000609051
-0.00288564
-5.08084e-05
0.00081893
-0.00195283
-0.000159867
0.000966684
-0.00196868
-4.50236e-05
0.00101176
-0.005939
0.000279702
0.000623439
-0.0071043
0.000602263
0.000590833
-0.006538
-0.00101559
0.000750657
-0.00864139
-0.000354004
-9.21776e-06
-0.0033425
-0.000139835
-0.000166782
-0.00230351
-0.000181792
-0.000278853
-0.00188364
-5.95922e-05
-0.000303502
-0.00170386
-8.44131e-05
-0.000160089
-0.000948026
-0.000100438
-0.000169812
0.000107534
-0.00018006
-0.00027907
-0.00167925
0.000306117
-0.000194204
-0.00429222
0.00024751
9.29037e-06
-0.00524026
5.3526e-05
0.000224382
-0.00701881
-0.000169403
-0.000142021
-0.00227509
-0.000190417
-0.000148812
-0.00162276
-2.43216e-05
-0.000168126
-0.0014704
-2.19431e-05
-0.000111909
-0.000202711
-6.68942e-05
-3.83306e-05
-0.00050413
-3.04465e-05
2.99147e-05
-0.000209056
-6.79315e-06
-1.36531e-05
0.00166603
-3.85633e-05
-4.9367e-05
0.00176908
0.000196689
-8.20933e-05
-0.00131957
0.000218679
-0.000221063
-0.00278493
0.000145829
-9.87526e-05
-0.00401122
-4.60099e-05
-4.7708e-05
-0.00137431
-5.79146e-05
-4.98572e-05
-0.00085651
-5.62271e-05
-5.30808e-05
-0.000410923
-2.94535e-05
-5.23314e-05
-0.000432286
-3.53501e-05
-5.03244e-05
-0.00031951
-3.85782e-05
-4.80126e-05
-0.00015474
3.92617e-06
-5.43051e-05
-0.000561565
-8.81444e-06
-5.42197e-05
-0.000146139
-2.75132e-05
-5.66426e-05
0.000267074
0.000100744
-8.15185e-05
-0.000715334
8.47227e-05
-9.03547e-05
-0.00157486
4.47282e-05
-5.04899e-05
-0.00102407
-0.00152518
0.000213962
-0.00273698
-0.00139187
-6.42747e-06
-0.00366376
-0.00120811
-8.43435e-05
-0.00356288
-0.00073059
0.000192519
-0.00404592
-0.0011217
-0.000140814
-0.00389544
-0.00126117
-0.000311903
-0.00322067
-0.000379506
0.00025871
-0.00452732
-0.000438494
0.000147197
-0.00442498
-0.000900263
0.000204219
-0.00405876
-0.00153379
0.000119972
-0.00308582
-0.00020637
0.000592443
-0.00522483
-0.000302555
0.000396609
-0.00507057
-0.000482787
0.00026787
-0.00530167
-0.000922176
0.000172152
-0.00434962
-0.00141145
0.000165243
-0.00339495
-0.000101505
0.000104738
-0.0063392
-2.81142e-05
6.57955e-05
-0.00619696
-0.000513956
0.000145486
-0.00596427
-0.000836519
0.000170155
-0.00582357
-0.000952644
-0.000373534
-0.0064516
-0.00127368
-0.000427667
-0.00423126
-0.00031214
0.00103927
-0.00623682
-0.000287176
0.00106578
-0.00669238
-0.000460584
0.000642914
-0.00731154
-0.000637089
0.000694863
-0.00722516
-0.000707034
0.000697175
-0.00647027
-0.000978821
0.000707555
-0.00687128
-0.00159458
0.000270167
-0.00595038
-0.00056511
0.0013469
-0.00674845
-0.000337058
0.0011554
-0.0072305
-0.000307552
0.00129771
-0.00711812
-0.000620952
0.00117278
-0.00810605
-0.000657097
0.00116169
-0.00825121
-0.000748291
0.00113093
-0.00830734
-0.00079367
0.000719413
-0.00878499
-0.00152125
0.000340687
-0.00578657
-0.000391623
0.00132484
-0.00565573
-0.000617238
0.00127171
-0.00553294
-0.000279538
0.00127965
-0.00536191
-0.000127494
0.00161974
-0.00447676
-0.000499871
0.00141883
-0.00600195
-7.93685e-05
0.00150506
-0.00715527
0.000145499
0.00168549
-0.00814327
0.00039716
0.00149792
-0.00809265
-0.00126026
0.000443061
-0.00576043
-0.000337568
0.000702595
-0.00474919
-0.000359285
0.000677973
-0.00425466
-0.000480506
0.000623147
-0.00351274
-0.000194621
0.000675807
-0.00260749
-5.84275e-05
0.000694405
-0.00170654
-0.000137108
0.000820827
-0.00174108
-0.000135541
0.000867107
-0.00622719
0.000595996
0.000437175
-0.00724052
0.000608701
0.00089108
-0.00703961
-0.000661927
0.000866013
-0.00879195
-0.000221005
-0.00012967
-0.00369011
-0.000359551
-2.46764e-05
-0.00331547
-0.00026745
-0.000106642
-0.0022326
-0.000122993
-0.000309237
-0.00177686
-0.000101676
-0.000269962
-0.0015592
-0.00015224
-0.000201806
-0.000794239
-0.000132572
-0.00021139
0.000165633
-0.000178
-0.000306011
-0.001428
0.00029206
-0.000245497
-0.0041328
0.000401737
-6.72513e-05
-0.00513168
4.93985e-05
0.00032813
-0.00725051
-0.000129996
-0.000109271
-0.00268835
-0.000170154
-0.000146641
-0.00216502
-0.000192045
-0.000155964
-0.00149911
-2.6645e-05
-0.000171355
-0.00141376
-1.64361e-05
-0.00012008
-0.000139876
-4.58131e-05
-4.84558e-05
-0.000418525
-7.89566e-06
1.86048e-05
-0.000229493
1.91353e-05
-2.46362e-05
0.00161335
-1.01883e-05
-4.38699e-05
0.00171353
0.000196412
-0.000108437
-0.00152787
0.000164313
-0.000232458
-0.00273082
2.57057e-05
-0.000115113
-0.00387708
-4.30618e-05
-4.50041e-05
-0.00137974
-4.67481e-05
-4.71228e-05
-0.0013303
-5.46898e-05
-4.96334e-05
-0.000805267
-5.39619e-05
-5.3839e-05
-0.000355453
-3.04248e-05
-5.29774e-05
-0.000399208
-3.49362e-05
-5.04824e-05
-0.000282104
-3.83043e-05
-4.89321e-05
-0.000121808
7.28912e-06
-5.4614e-05
-0.00056846
-9.23251e-06
-5.33126e-05
-0.000140237
-1.76749e-05
-5.69578e-05
0.000260189
9.30923e-05
-8.14263e-05
-0.000817355
6.46028e-05
-8.92321e-05
-0.00160072
2.50691e-05
-5.07629e-05
-0.000998377
-0.0016951
8.37725e-05
-0.00262447
-0.00136048
0.000224379
-0.00330812
-0.0015706
0.000237446
-0.00261193
-0.00104132
0.000271254
-0.00396773
-0.0013191
7.94803e-05
-0.00363018
-0.00121545
-3.16965e-05
-0.0035769
-0.000674165
0.000453527
-0.00423431
-0.000695328
0.000139772
-0.00406968
-0.00105114
-0.000162465
-0.00389401
-0.00122099
-0.000250541
-0.00328293
-0.000297365
0.00030331
-0.0049246
-0.000333605
0.000212392
-0.00456147
-0.000388871
0.000108958
-0.00442364
-0.000857698
0.000138701
-0.00414197
-0.00152152
0.000127175
-0.00310292
-0.000281748
0.000748291
-0.00528901
-0.000187058
0.000579696
-0.00524898
-0.000428261
0.000393348
-0.00528174
-0.000752909
0.000234503
-0.00544763
-0.000983932
0.000209175
-0.00436226
-0.00139236
0.000278384
-0.00355465
-5.06023e-05
0.000231029
-0.00669147
-0.000261483
-1.34777e-06
-0.00629775
-0.000266778
0.000125295
-0.00637057
-0.000514149
0.000298601
-0.00621566
-0.000959762
0.000325346
-0.00626972
-0.00125964
-0.000351917
-0.00624653
-0.00132235
-0.000253133
-0.00425036
-0.000520338
0.000923935
-0.00626865
-0.00022042
0.00124046
-0.00652815
-0.000538389
0.00100382
-0.00682244
-0.000613476
0.000711887
-0.00733604
-0.000680351
0.000733881
-0.00723861
-0.000701536
0.000715668
-0.00652513
-0.0010704
0.000656423
-0.00698081
-0.00158773
-6.77489e-05
-0.00581615
-0.000777691
0.00159739
-0.0058884
-0.000603598
0.00128812
-0.00689481
-0.000273307
0.00117001
-0.00710904
-0.000471565
0.00132647
-0.00692774
-0.000701816
0.00120139
-0.0079438
-0.000556529
0.00145461
-0.00809773
-0.000548822
0.00125888
-0.00815249
-0.000395472
0.000913406
-0.00856508
-0.00123199
0.000409969
-0.00622481
-0.000302093
0.00131192
-0.00586392
-0.000382298
0.00125755
-0.00561856
-0.00053007
0.00122767
-0.0054314
-0.000327446
0.00139596
-0.0050053
-0.000324658
0.00157024
-0.00436194
-0.000296363
0.00135005
-0.00568768
3.85182e-06
0.00152771
-0.00713688
0.000460293
0.00163916
-0.00814881
0.000431184
0.00142279
-0.00889486
-0.0011029
0.000269792
-0.00558925
-0.000159306
0.00064532
-0.00492402
-0.0002519
0.000638336
-0.00481721
-0.000375426
0.000633511
-0.00415705
-0.000339203
0.000628629
-0.00324935
-0.000220122
0.000627988
-0.00242263
-0.000243493
0.000669055
-0.00146351
-0.000245574
0.000634062
-0.00139503
-9.59676e-05
0.000722146
-0.00659419
0.000538737
0.000557174
-0.00715329
0.0005994
0.000897312
-0.00726857
-0.000588607
0.000844681
-0.00899862
-0.000179899
-0.000215171
-0.00339777
-0.000257123
-8.16362e-05
-0.00354618
-0.000346687
-5.80849e-05
-0.00320938
-0.000230868
-0.000155505
-0.00218211
-0.000129347
-0.000312202
-0.00162171
-0.000172557
-0.000311491
-0.00132277
-9.74022e-05
-0.0002233
-0.000692823
-0.000120823
-0.000242105
0.000241685
-9.28565e-05
-0.000360953
-0.00122988
0.000281427
-0.000283901
-0.00400117
0.000298843
-1.31277e-05
-0.00492495
-0.000163606
0.000234299
-0.0072955
-0.000130894
-9.79949e-05
-0.00283431
-0.000134125
-0.00013417
-0.00261344
-0.000161753
-0.00015352
-0.0020604
-0.000184107
-0.000164712
-0.0013756
-5.8162e-05
-0.000174832
-0.00133127
-1.86808e-05
-0.000126878
-7.77092e-05
-5.21677e-05
-5.7884e-05
-0.000328172
4.34245e-06
-2.3068e-06
-0.000248875
4.02519e-05
-3.4769e-05
0.00155477
2.92652e-05
-6.05636e-05
0.00161872
0.000210012
-0.000120528
-0.00175672
0.000174314
-0.000232405
-0.00272324
-4.89217e-05
-0.000122859
-0.00368023
-3.81959e-05
-4.61038e-05
-0.00123861
-3.45514e-05
-4.55968e-05
-0.00134672
-5.72794e-05
-4.47141e-05
-0.00127794
-4.96132e-05
-5.06643e-05
-0.000758829
-5.34409e-05
-5.31705e-05
-0.000301819
-3.25083e-05
-5.34713e-05
-0.000363711
-3.45999e-05
-5.0777e-05
-0.000245659
-3.6965e-05
-4.97975e-05
-8.96598e-05
1.01617e-05
-5.4847e-05
-0.000577087
-1.10227e-05
-5.24214e-05
-0.00013375
-1.1549e-05
-5.71798e-05
0.000247491
8.58214e-05
-8.18012e-05
-0.000910607
4.604e-05
-8.78947e-05
-0.00160963
1.84315e-05
-5.05251e-05
-0.000966283
-0.00145967
-8.53673e-05
-0.00252061
-0.00130433
-4.76739e-05
-0.00320556
-0.00155501
4.38271e-05
-0.00268389
-0.00120353
0.000283567
-0.00361628
-0.00127987
0.000142997
-0.0032529
-0.00151442
0.000281129
-0.0025941
-0.000816541
0.000316777
-0.00394767
-0.00109884
0.000345548
-0.00383028
-0.00121907
0.000167407
-0.00366135
-0.00122424
2.39372e-06
-0.00357605
-0.000179539
0.00057466
-0.00442072
-0.00059084
0.00042321
-0.00426051
-0.000741546
0.000108375
-0.00398784
-0.000887035
-0.000140962
-0.00397425
-0.00122372
-0.000217034
-0.00336371
-0.000489148
0.00050139
-0.00503972
-0.000324536
0.000305102
-0.00487983
-0.000463397
0.000218488
-0.00463586
-0.000701193
8.05059e-05
-0.00441716
-0.000805897
5.18974e-05
-0.00424472
-0.00137374
0.000110289
-0.00323183
-0.000208927
0.00082385
-0.00539937
-0.000292665
0.000660004
-0.00533813
-0.000217807
0.00050451
-0.00540911
-0.000471205
0.000411007
-0.00550119
-0.000964214
0.000253265
-0.00548727
-0.00116904
0.000228987
-0.00440347
-0.00140048
0.000275306
-0.00375183
1.05952e-05
0.000404573
-0.00699059
-7.35904e-05
4.71018e-05
-0.00688675
-0.000380934
7.33595e-05
-0.00640327
-0.00060432
0.000288751
-0.00636988
-0.000456501
0.000433808
-0.00654797
-0.000961603
0.000293972
-0.00665554
-0.0014796
-0.000169765
-0.0059207
-0.00132756
-0.000115303
-0.00439522
-0.000866017
0.000931137
-0.00663583
-0.000353449
0.00133877
-0.0066171
-0.000368349
0.00132597
-0.00675526
-0.000695658
0.000921213
-0.00680768
-0.000757586
0.000791587
-0.00733797
-0.000711335
0.000798561
-0.0071667
-0.000729017
0.000803159
-0.00649168
-0.00102781
0.000256007
-0.00667223
-0.00141907
-0.000143253
-0.00548581
-0.000481686
0.00174483
-0.00589809
-0.000622247
0.00161119
-0.00597152
-0.000450157
0.0012533
-0.007058
-0.000405323
0.00117416
-0.00687885
-0.000624099
0.00138068
-0.00680759
-0.000569638
0.00141887
-0.00763478
-0.000502107
0.00146971
-0.0078026
-0.000386159
0.00140373
-0.00779636
-0.000328695
0.000990791
-0.00838602
-0.00121964
0.000306433
-0.0064145
-0.000115051
0.00134522
-0.00569148
-0.00022968
0.00123811
-0.0058667
-0.000405822
0.00114938
-0.00550987
-0.000437005
0.00124539
-0.00518303
-0.000508423
0.00140226
-0.00454902
-0.000533221
0.00151193
-0.0042341
-0.000343558
0.00131175
-0.00537373
0.000152753
0.00149851
-0.00724495
0.000475589
0.00161565
-0.00827852
0.000129158
0.00110622
-0.00926105
-0.00103638
0.000308755
-0.00545023
-0.000119137
0.000425787
-0.00474687
-0.000128962
0.000561727
-0.00497557
-0.000244662
0.000543053
-0.00482877
-0.000501024
0.000602004
-0.00386027
-0.000417168
0.000595422
-0.00292897
-0.000324779
0.000633868
-0.00223522
-0.000265989
0.000541485
-0.00120235
-0.00023912
0.000509312
-0.0010639
4.11586e-05
0.000453826
-0.00662486
0.000507187
0.000446453
-0.0069282
0.000490097
0.000917148
-0.00753229
-0.000879373
0.000782395
-0.00906525
-2.94547e-05
-0.000271693
-0.00375395
-0.000199827
-0.000140777
-0.00327293
-0.000242556
-0.000145819
-0.00337764
-0.000343276
-9.99266e-05
-0.00310579
-0.000252847
-0.000149451
-0.00215017
-0.000166163
-0.000314694
-0.00147102
-7.86112e-05
-0.000322046
-0.00119758
-0.000120524
-0.000230523
-0.000579538
-0.000123159
-0.000272461
0.000316604
-4.104e-05
-0.00039386
-0.00104961
0.000296406
-0.000354633
-0.00374606
0.00026831
-0.000107646
-0.004677
-0.000365758
0.000223618
-0.00720228
-0.000121637
-0.000145075
-0.00262247
-9.46362e-05
-0.000124535
-0.00278386
-0.000146951
-0.000124517
-0.00255278
-0.000148859
-0.000159742
-0.00196613
-0.000183145
-0.000156007
-0.00126473
-7.59934e-05
-0.000173696
-0.00124097
-2.03967e-05
-0.000135937
-1.38596e-05
-5.21819e-05
-7.36617e-05
-0.000241601
3.01809e-05
-1.8369e-05
-0.000285295
5.90583e-05
-4.34178e-05
0.00146754
6.26756e-05
-5.92376e-05
0.00148321
0.000196809
-0.000153218
-0.00194689
0.000170675
-0.000225194
-0.00274554
-8.46153e-05
-0.000110727
-0.00346646
-1.312e-05
-4.84917e-05
-0.00113557
-1.91032e-05
-4.59976e-05
-0.00121911
-5.06533e-05
-4.27261e-05
-0.00129805
-5.60342e-05
-4.76909e-05
-0.00122488
-6.54364e-05
-5.03596e-05
-0.000696203
-5.31436e-05
-5.35367e-05
-0.00024861
-3.39787e-05
-5.43001e-05
-0.000326209
-3.3727e-05
-5.10007e-05
-0.000210729
-3.52153e-05
-5.05833e-05
-5.87081e-05
1.25567e-05
-5.49067e-05
-0.000587158
-1.16075e-05
-5.1609e-05
-0.000127714
-7.12769e-06
-5.77565e-05
0.000230574
7.63984e-05
-8.27173e-05
-0.000992183
3.00815e-05
-8.63902e-05
-0.00160385
8.32615e-06
-5.00686e-05
-0.000924541
-0.00150939
-3.34001e-06
-0.00251737
-0.00135401
-2.57392e-05
-0.00320018
-0.00138711
-2.38329e-05
-0.00266467
-0.00132118
2.65515e-05
-0.00334124
-0.0011065
-3.63826e-05
-0.00329873
-0.00146602
1.85687e-06
-0.00273415
-0.000855948
0.000344964
-0.00367137
-0.00131122
0.000245196
-0.00350609
-0.00103632
0.000146398
-0.00330092
-0.00160211
0.000271051
-0.00248728
-0.000415013
0.000542416
-0.00408956
-0.000797135
0.000506214
-0.00390204
-0.00110861
0.000400578
-0.00369639
-0.001184
0.000169024
-0.00353102
-0.00129606
-5.99391e-05
-0.00344377
-0.000371516
0.000573503
-0.00441149
-0.000484456
0.000569146
-0.00440673
-0.000722715
0.000372538
-0.00426536
-0.000830623
5.37071e-05
-0.00405308
-0.000880328
-0.000174552
-0.0039423
-0.00120121
-0.000130061
-0.00340617
-0.00046472
0.000632985
-0.00518771
-0.000565792
0.000569906
-0.0050314
-0.000371179
0.000331714
-0.00483969
-0.00056155
0.000259271
-0.00472428
-0.000781252
-9.00884e-05
-0.00445813
-0.000955161
-1.30621e-05
-0.00433525
-0.00141479
9.43517e-05
-0.00331187
-0.000186601
0.000943393
-0.00562644
-0.000168185
0.000772596
-0.00541737
-0.000355795
0.000600027
-0.00545879
-0.000504183
0.000524816
-0.00562306
-0.000469767
0.000470391
-0.00570505
-0.00113733
0.000282133
-0.00536469
-0.00136895
0.000211646
-0.00445046
-0.00133444
0.000218841
-0.0039638
-0.000238735
0.000391946
-0.00690567
-2.91135e-05
0.000141889
-0.00740971
-0.000338792
0.00014083
-0.00698378
-0.000571489
0.000373972
-0.00661266
-0.000645425
0.000432862
-0.00648109
-0.000504688
0.000367308
-0.00682795
-0.00115775
0.000256653
-0.00665322
-0.00162275
2.15372e-05
-0.0054626
-0.00131564
-0.000203425
-0.00429523
-0.000533043
0.00110983
-0.00721506
-0.000493064
0.00141951
-0.00684576
-0.000349715
0.00161086
-0.00700243
-0.000559892
0.00114285
-0.00682233
-0.000780111
0.000964366
-0.00682444
-0.000850769
0.000878072
-0.00713635
-0.000647492
0.000908171
-0.00712633
-0.000770831
0.000734594
-0.00658559
-0.000958339
9.64152e-05
-0.00628225
-0.00143351
-0.000143226
-0.00512872
-0.000215894
0.00180461
-0.00650714
-0.000430123
0.00176553
-0.00585198
-0.00050245
0.00155801
-0.0061796
-0.000481071
0.00123369
-0.00707347
-0.00064371
0.00126888
-0.00663177
-0.000781859
0.00141317
-0.00655325
-0.000673103
0.00147721
-0.00731274
-0.000402314
0.00166758
-0.00751139
-0.000316625
0.00147753
-0.00749089
-0.000426251
0.000906697
-0.00843088
-0.00129543
0.000205127
-0.00636058
-4.30263e-05
0.00125977
-0.00543073
-6.8791e-05
0.00118579
-0.00569933
-0.000349089
0.00111167
-0.00572456
-0.00070285
0.0011428
-0.00520545
-0.000570658
0.00121344
-0.00484073
-0.0004197
0.00141119
-0.00435336
-0.000601101
0.00139845
-0.00398569
-0.000103568
0.00126741
-0.00527818
0.000367029
0.0013524
-0.00730757
0.000453591
0.000754995
-0.00787369
-5.57483e-05
0.000973146
-0.0093796
-0.00127201
0.000417071
-0.00547467
0.00010158
8.38533e-05
-0.0042463
-0.000103372
0.00036673
-0.00464833
-9.99745e-05
0.000464129
-0.00503923
-0.000335902
0.000514784
-0.00474893
-0.000396362
0.000582122
-0.00370345
-0.000534506
0.000612948
-0.0025397
-0.000284392
0.000535881
-0.00202384
-0.00034291
0.000470688
-0.000941342
-0.000214807
0.000351682
-0.000870106
0.000570786
0.000132421
-0.00692266
0.000538997
0.000400668
-0.00665431
0.000290262
0.000849089
-0.00762094
-0.00124857
0.00068275
-0.00886518
-0.000143783
-0.000309732
-0.00333951
-4.99019e-05
-0.000248325
-0.00369114
-0.000168018
-0.000148772
-0.00324891
-0.000241468
-0.000156178
-0.00322878
-0.000361637
-0.000101553
-0.0029752
-0.000282993
-0.000170177
-0.00208769
-0.000136166
-0.000306705
-0.00137059
-0.000109989
-0.00031721
-0.00105309
-7.49591e-05
-0.000243726
-0.000503133
-6.87236e-05
-0.000292087
0.000342613
9.68291e-06
-0.000431484
-0.000919771
0.000304368
-0.000393686
-0.00356758
0.000205542
-0.000124776
-0.00436348
-0.000541313
0.000261461
-0.00700704
-7.02333e-05
-0.00016593
-0.0024424
-7.72395e-05
-0.000139292
-0.00254958
-9.0882e-05
-0.000116291
-0.00275185
-0.000124504
-0.000111231
-0.00253282
-0.000192459
-0.000148172
-0.00184694
-0.000178464
-0.00015567
-0.00115743
-0.000105571
-0.00018988
-0.00111544
-3.46128e-05
-0.000139587
5.29517e-05
-4.69238e-05
-8.41836e-05
-0.000164078
4.2849e-05
-3.18417e-05
-0.000327163
8.50185e-05
-5.49543e-05
0.00136663
7.73232e-05
-7.96163e-05
0.00132515
0.000185952
-0.000161548
-0.00212009