/*--------------------------------*- C++ -*----------------------------------*\
  =========                 |
  \\      /  F ield         | OpenFOAM: The Open Source CFD Toolbox
   \\    /   O peration     | Website:  https://openfoam.org
    \\  /    A nd           | Version:  7
     \\/     M anipulation  |
\*---------------------------------------------------------------------------*/
FoamFile
{
    version     2.0;
    format      ascii;
    class       volVectorField;
    location    "5";
    object      U_0;
}
// * * * * * * * * * * * * * * * * * * * * * * * * * * * * * * * * * * * * * //

dimensions      [0 1 -1 0 0 0 0];

internalField   nonuniform List<vector> 
18750
(
(0.190382 -0.101544 0.969191)
(2.36917 -2.8007 -1.06797)
(-0.0264513 -2.63964 -1.06382)
(0.23634 -0.229677 0.985568)
(4.24386 -2.51988 2.03925)
(1.19278 -1.42837 -0.182207)
(2.32955 -2.76564 -0.860575)
(-0.300457 -1.1843 -2.08168)
(-0.121378 -2.8178 -1.11975)
(0.26206 -0.38053 0.956504)
(6.42206 0.364992 -0.0744674)
(3.68285 -2.98861 1.86005)
(4.27218 -2.57196 1.82748)
(0.164131 0.62917 -0.111778)
(1.26993 -1.56122 -0.927183)
(2.25378 -2.80071 -0.762184)
(0.104381 0.765976 -1.08374)
(-0.344521 -1.23996 -2.1148)
(-0.218113 -2.92696 -1.18167)
(0.262273 -0.538043 0.864645)
(4.23867 -0.0318457 1.18208)
(4.76193 -0.163819 2.95844)
(6.40771 -0.644779 -0.505982)
(1.89525 -2.17305 1.61426)
(2.74273 -4.31588 -0.0181257)
(4.14518 -2.57941 1.76389)
(-0.695902 1.5571 0.701135)
(0.274516 0.306588 -0.173469)
(1.26576 -1.83407 -1.39753)
(2.21865 -2.88327 -0.715071)
(0.20593 0.263477 -1.05809)
(0.110816 0.718435 -1.14468)
(-0.381804 -1.28184 -2.14404)
(-0.269453 -2.90794 -1.25024)
(0.24933 -0.701761 0.695858)
(4.08039 1.5373 0.291564)
(5.99062 2.94143 1.14475)
(4.33854 0.159165 0.787267)
(4.17392 -0.390809 4.41261)
(4.53154 -0.387767 3.22812)
(6.56267 -0.277665 -1.33861)
(1.44459 0.509491 1.9043)
(2.43029 -1.21966 1.06194)
(3.41016 -3.00089 0.599044)
(3.93355 -2.43763 1.85611)
(-0.957426 0.481913 -0.392356)
(-0.708472 1.45979 0.610076)
(0.227833 0.10826 -0.48206)
(1.20683 -2.01041 -1.76596)
(1.94767 -3.11424 0.388961)
(0.325491 -0.23523 -1.38473)
(0.204826 0.232941 -1.09641)
(0.0965961 0.701128 -1.1953)
(-0.415464 -1.30315 -2.17063)
(-0.311814 -2.72099 -1.38974)
(0.225339 -0.820794 0.530627)
(3.22503 1.54966 -0.345618)
(4.87839 -1.21686 -0.277268)
(3.55807 2.49743 -0.327728)
(6.4445 -1.59407 2.87413)
(6.16079 3.17213 1.21082)
(4.44127 1.01455 -0.207112)
(3.15278 0.219564 4.79301)
(4.12923 -2.16232 4.23127)
(3.74618 -3.29636 4.89979)
(6.68518 0.000868459 -0.989331)
(0.835603 1.12936 0.644943)
(1.53573 1.38114 1.15264)
(2.31808 -1.50312 0.295738)
(2.90456 -3.43142 -0.261298)
(3.87767 -2.51417 1.86069)
(0.187795 0.32307 0.851652)
(-1.00685 0.461184 -0.450185)
(-0.752822 1.3737 0.488709)
(0.281502 -0.258384 -0.664718)
(1.07806 -2.19027 -2.01756)
(1.90039 -2.83761 0.0637127)
(0.243135 0.318936 -0.83914)
(0.318115 -0.23267 -1.39208)
(0.196954 0.230363 -1.11413)
(0.122676 0.664007 -1.31906)
(-0.43168 -1.30642 -2.17404)
(-0.251019 -2.46866 -1.52644)
(0.177829 -0.936447 0.314338)
(2.8073 2.19227 0.197808)
(3.51371 1.86477 1.03409)
(3.39492 1.631 -0.6731)
(5.86184 0.0358293 0.878598)
(5.62249 -0.132284 0.0292547)
(3.64513 1.73434 -0.0323305)
(5.71764 -0.495502 2.76035)
(6.07775 -2.28537 3.68175)
(6.08177 1.3488 1.89975)
(4.80417 2.04101 -0.982043)
(2.37177 0.919142 4.06719)
(3.18236 -0.816186 4.85474)
(3.8791 -3.3686 3.7584)
(3.41315 -4.32965 5.463)
(6.49431 -0.854779 0.20359)
(1.20139 0.23886 -0.17031)
(0.655784 1.09588 0.396724)
(1.55075 0.572892 0.9141)
(3.00505 -0.617199 0.499603)
(3.36314 -2.64717 1.74889)
(3.87243 -2.64255 1.8502)
(0.6549 0.399317 0.332484)
(0.18098 0.244279 0.808197)
(-1.02831 0.464148 -0.486048)
(-0.779609 1.32226 0.405593)
(0.154005 -0.571383 -0.768242)
(0.93464 -2.19551 -2.01796)
(1.92924 -2.79288 -0.277405)
(0.353367 0.311872 -1.00781)
(0.246729 0.329546 -0.857143)
(0.305004 -0.240497 -1.392)
(0.199267 0.215937 -1.13101)
(0.10929 0.659848 -1.27483)
(-0.425469 -1.27417 -2.14519)
(-0.185243 -2.17912 -1.63824)
(0.157849 -0.970886 0.130851)
(2.38998 1.47131 -0.140956)
(3.86176 -0.295296 0.0633258)
(2.90478 2.02289 0.479478)
(4.47087 0.0112741 0.634376)
(3.87803 1.55233 1.44503)
(3.56446 1.8388 -0.554544)
(5.63076 0.0479744 1.26474)
(5.92373 -0.0181574 0.800508)
(6.13718 0.401536 0.711388)
(3.73267 1.74764 0.023785)
(4.15313 -0.436565 3.73093)
(5.69964 -0.884859 2.74141)
(5.79267 -1.77852 3.65228)
(5.3836 -0.439773 2.71162)
(5.25566 2.52444 -0.614577)
(1.92985 0.0569608 2.3551)
(2.13519 0.372311 4.30922)
(3.09971 -1.20475 4.82953)
(3.93196 -3.4254 3.35768)
(3.66625 -3.64603 4.95127)
(5.70798 -2.79439 1.71269)
(1.48465 0.0598841 -0.640235)
(1.07476 0.136327 -0.22919)
(0.505713 0.967974 0.209362)
(1.64635 0.731997 0.663101)
(2.90552 -1.25157 0.0158311)
(2.88157 -3.39988 0.568187)
(3.95175 -2.67912 1.69145)
(0.352727 0.313584 -0.0467129)
(0.604069 0.365051 0.217649)
(0.181269 0.174392 0.762138)
(-1.05382 0.422172 -0.540229)
(-0.838405 1.17126 0.368808)
(0.101466 -0.852166 -0.904072)
(0.885516 -2.23546 -1.91733)
(1.62731 -2.92538 0.401796)
(0.388573 0.491193 -1.07051)
(0.348685 0.318192 -1.00561)
(0.252721 0.327236 -0.889162)
(0.296892 -0.243112 -1.38221)
(0.201495 0.205288 -1.13202)
(0.120841 0.625664 -1.22748)
(-0.381702 -1.19787 -2.13456)
(-0.07427 -1.88871 -1.72325)
(0.147987 -0.973077 -0.0323471)
(2.2387 1.55015 -0.130146)
(3.09528 0.586289 0.130229)
(2.55188 1.08246 -0.190568)
(3.41578 0.0716675 0.0760559)
(4.03134 -0.420571 -0.252238)
(3.234 1.1911 0.83289)
(4.6475 -0.308855 1.13036)
(4.50934 0.0377869 0.503176)
(4.12149 1.61387 1.48197)
(4.03188 1.65864 -0.478863)
(5.1155 -0.601241 1.95816)
(5.80841 -0.0512392 1.40843)
(5.77441 -0.304851 1.26664)
(6.26631 0.27751 1.04256)
(3.99414 1.34447 -0.00991615)
(3.5941 0.0723257 2.60487)
(4.08225 -0.678473 3.96457)
(5.39016 -1.12457 2.96912)
(5.63285 -1.21785 3.16469)
(4.58838 -2.04411 3.25109)
(5.47148 2.33405 -0.581634)
(2.44486 0.112194 2.26458)
(1.87551 0.239533 2.20767)
(1.99312 0.24246 4.31372)
(3.19635 -0.983262 4.91158)
(3.30237 -4.67193 0.526636)
(3.62901 -3.2556 3.42846)
(5.55579 -2.87298 1.31375)
(1.38631 -0.286334 -1.58596)
(1.35696 -0.272723 -0.820491)
(0.921742 0.00344663 -0.36561)
(0.356339 0.851662 -0.0801257)
(1.70048 0.534296 -0.0997576)
(2.54471 -1.7536 -0.293156)
(2.64069 -3.5717 0.0275612)
(3.79639 -2.80059 1.687)
(1.00158 -0.414149 -1.05225)
(0.317594 0.271524 -0.12697)
(0.587014 0.331131 0.0743105)
(0.182841 0.118774 0.722532)
(-1.04045 0.48297 -0.56268)
(-0.806315 1.12922 0.255288)
(0.0479585 -1.14367 -1.03139)
(0.815345 -2.25504 -1.82943)
(1.59455 -2.64695 0.0948525)
(0.389012 0.391343 -1.13384)
(0.403352 0.466986 -1.081)
(0.347093 0.318448 -1.00458)
(0.254472 0.325693 -0.921115)
(0.300224 -0.239515 -1.36629)
(0.199504 0.191956 -1.12251)
(0.123269 0.565172 -1.23776)
(-0.307758 -1.08998 -2.15069)
(0.065228 -1.62466 -1.78473)
(0.143954 -0.947533 -0.192614)
(2.28527 1.50807 -0.208274)
(2.82106 0.591136 0.464148)
(2.33353 1.32213 -0.165546)
(3.22119 0.456887 0.276726)
(3.03745 0.439188 0.155293)
(2.67942 0.822627 -0.244694)
(3.81161 -0.263908 0.0249383)
(3.39717 0.163205 0.0932362)
(4.1577 -0.190774 -0.950921)
(3.29081 1.01652 0.489736)
(4.38327 -0.574949 1.02676)
(4.78777 -0.28597 1.1034)
(4.50367 0.161645 0.535956)
(4.44834 1.05041 1.56365)
(4.37323 1.63161 -0.43599)
(4.60191 -0.317509 2.50213)
(5.37039 0.0593701 2.00528)
(5.85317 -0.179747 1.66057)
(5.74093 -0.459877 1.31889)
(6.09155 -0.399521 0.970576)
(4.13653 0.929147 -0.0174444)
(4.08942 0.404182 2.32305)
(3.31569 -0.229751 3.23934)
(4.14604 -0.629149 3.55854)
(5.21315 -1.10203 3.29334)
(4.98419 -1.73028 3.09498)
(4.55161 -1.60523 2.77295)
(5.47073 2.16397 -0.929326)
(2.69663 -0.767827 1.69798)
(2.0362 -0.136894 2.26145)
(1.81291 0.0838427 2.26966)
(1.85998 -0.103776 4.15693)
(3.3678 -1.20433 4.25672)
(4.10839 -2.22031 1.32095)
(3.34284 -3.01278 3.07939)
(5.60509 -2.51927 0.750762)
(1.54412 -0.181561 -1.34229)
(1.374 -0.272221 -1.5689)
(1.40214 -0.11577 -0.806801)
(0.751422 -0.126741 -0.538961)
(0.225217 0.729593 -0.41114)
(1.53666 0.166662 -0.726864)
(2.30329 -1.90664 -0.430402)
(1.99711 -3.54281 -0.517623)
(3.66171 -2.89912 1.67454)
(1.23831 0.389998 -1.09902)
(0.967472 -0.437236 -1.18368)
(0.27122 0.24031 -0.198368)
(0.546404 0.322705 -0.0302889)
(0.174089 0.0879177 0.685083)
(-1.0757 0.435633 -0.63115)
(-0.90703 0.966696 0.230092)
(-0.039312 -1.39447 -1.14325)
(0.646024 -2.32255 -1.84743)
(1.66175 -2.59041 -0.42864)
(0.64448 0.380534 -1.06632)
(0.382679 0.405905 -1.13439)
(0.409529 0.434488 -1.092)
(0.342614 0.311778 -1.01113)
(0.256367 0.315341 -0.958935)
(0.290749 -0.24639 -1.35095)
(0.211763 0.189504 -1.10739)
(0.126893 0.52633 -1.27699)
(-0.218521 -0.97736 -2.16613)
(0.208311 -1.39174 -1.83158)
(0.167642 -0.891321 -0.30768)
(2.42709 0.67304 -0.000879501)
(2.75644 0.655755 -0.136605)
(2.38538 1.19874 -0.248408)
(2.98471 0.174663 0.066792)
(2.80665 0.531576 0.48676)
(2.35934 1.24924 -0.202139)
(3.2367 -0.0161671 0.398826)
(3.34684 0.115361 0.306122)
(3.11378 0.329908 0.179612)
(2.58598 0.990235 -0.153543)
(3.92575 -0.574323 0.173204)
(3.82291 -0.203571 0.0589082)
(3.5866 -0.0972173 0.131315)
(4.30428 -0.837792 -1.41911)
(3.32899 0.727236 0.544566)
(4.06416 0.135284 1.65078)
(4.6569 -0.562077 0.822521)
(4.79109 -0.217476 1.17151)
(4.47909 -0.0955938 0.727459)
(4.73222 0.0168 1.60082)
(4.6503 1.21833 -0.284507)
(4.94547 0.348721 1.53677)
(4.93995 0.131074 2.29987)
(5.42295 -0.105338 2.03358)
(5.77477 -0.373177 1.90482)
(5.67162 -0.962231 1.43001)
(5.98412 -0.93187 0.844476)
(4.26566 0.410614 0.0276638)
(4.06194 0.791863 2.59574)
(3.97498 0.0401773 2.48728)
(2.87629 -0.919031 4.05066)
(4.34134 -0.622776 2.85466)
(4.81478 -1.46732 3.91058)
(4.67458 -2.3812 3.16172)
(4.1946 -2.34626 3.01706)
(5.61196 2.09559 -1.86862)
(2.96414 0.485782 1.86697)
(2.5034 -0.387841 1.63803)
(2.17557 0.163673 1.95539)
(1.26749 0.290908 2.43208)
(1.25853 -0.267535 3.97431)
(3.68044 -1.28431 3.11717)
(3.94643 -2.66523 0.889205)
(3.26416 -2.99389 3.30708)
(5.42209 -2.2841 0.944242)
(2.35034 1.1113 0.202585)
(1.32635 -0.255657 -1.40671)
(1.29373 -0.31892 -1.33173)
(0.95539 -0.451196 -1.20974)
(0.685078 -0.0855137 -0.595365)
(0.147663 0.494004 -0.851978)
(1.19537 -0.26316 -1.06074)
(2.15441 -2.02678 -0.579697)
(2.58433 -2.84972 0.85021)
(3.42944 -3.27277 1.73366)
(1.59049 0.668232 -0.999195)
(1.21566 0.416845 -1.06778)
(0.927413 -0.416271 -1.27533)
(0.230616 0.21703 -0.268579)
(0.507742 0.294835 -0.161269)
(0.178677 0.0475147 0.618903)
(-1.08107 0.402216 -0.737424)
(-0.902417 0.852564 0.115155)
(-0.0921552 -1.59374 -1.26935)
(0.652872 -2.24229 -1.94836)
(1.23022 -2.76459 0.481121)
(0.931788 0.289436 -1.02196)
(0.639626 0.352637 -1.08029)
(0.387133 0.418156 -1.13825)
(0.407882 0.384498 -1.11271)
(0.346359 0.305832 -1.01934)
(0.253535 0.301238 -0.992723)
(0.28007 -0.259915 -1.33588)
(0.227242 0.192573 -1.08755)
(0.11675 0.467373 -1.31736)
(-0.115746 -0.891056 -2.15076)
(0.346712 -1.21527 -1.84771)
(0.200302 -0.822803 -0.393519)
(1.94082 1.09029 0.176161)
(2.50163 1.07033 -0.26462)
(2.44442 0.323544 0.037378)
(2.70135 0.288745 0.0796864)
(2.68014 0.398272 -0.246255)
(2.41991 1.05317 -0.311018)
(2.97659 0.0412517 0.377137)
(2.95103 -0.0504616 0.0174334)
(2.85114 0.364226 0.491259)
(2.45015 1.0442 -0.175441)
(3.44427 -0.293588 0.545967)
(3.30671 -0.131593 0.352878)
(3.53082 0.0775245 0.239812)
(3.14466 0.287356 0.245316)
(2.68993 0.673876 -0.0558496)
(4.14694 -0.181834 0.270959)
(4.02493 -0.606839 0.0802643)
(3.97345 -0.0495068 0.05926)
(3.81392 -0.152261 0.29958)
(4.40487 -0.569612 -1.67212)
(3.33254 0.447443 0.435094)
(4.06407 0.253629 1.74169)
(4.32699 -0.514532 1.39284)
(4.87391 -0.387882 0.755175)
(4.85685 -0.417637 1.24325)
(4.53738 -0.273169 0.88044)
(4.77477 -0.57441 1.43056)
(4.89505 0.675488 -0.267038)
(4.36224 0.0693495 2.29538)
(4.81815 0.131824 2.22713)
(4.78311 -0.553626 2.56217)
(5.58989 -0.298248 1.9067)
(5.6164 -0.977539 2.20131)
(5.53392 -1.33363 1.58863)
(5.94864 -1.44135 0.891673)
(4.31884 -0.0338489 0.115829)
(3.7554 0.348177 3.059)
(3.80533 0.781521 2.80603)
(3.62825 -0.415374 3.08779)
(2.72062 -1.22217 4.15754)
(4.10425 -0.938345 2.72176)
(4.28559 -2.15151 4.09927)
(4.25093 -3.51325 3.44995)
(3.23412 -4.62739 4.03375)
(5.6089 1.14652 -1.98349)
(3.21178 0.767812 2.28526)
(2.97308 0.535312 1.84769)
(2.68056 0.65995 1.75968)
(1.80635 0.0831759 2.27342)
(1.44425 -0.0951994 1.81544)
(1.31045 -0.27164 3.26593)
(4.16416 -0.945455 2.68432)
(3.34259 -4.04842 0.211007)
(3.26405 -3.41856 3.39826)
(4.69195 -3.75857 1.80054)
(2.53221 0.580694 -0.281111)
(2.40932 1.07838 0.071723)
(1.68351 0.16118 -0.958915)
(1.12878 -0.37877 -1.40482)
(1.16591 -0.1762 -0.837654)
(0.630726 -0.0293936 -0.630654)
(0.0533063 0.263111 -1.10999)
(1.02916 -0.355504 -1.00081)
(1.99935 -2.11843 -0.800369)
(1.96407 -3.07755 0.246151)
(3.32697 -3.58797 1.76468)
(1.83432 0.415506 -0.974296)
(1.56017 0.555513 -1.0504)
(1.14094 0.382471 -1.05063)
(0.890311 -0.332218 -1.33857)
(0.188817 0.190352 -0.351822)
(0.453718 0.267472 -0.231221)
(0.147919 -0.0253484 0.522369)
(-1.06619 0.392981 -0.761996)
(-0.887683 0.730199 0.206211)
(-0.149097 -1.75109 -1.41903)
(0.540486 -2.21425 -1.96316)
(1.4918 -2.34524 0.084054)
(0.926431 0.189523 -0.96327)
(0.927819 0.286203 -1.02135)
(0.626718 0.335865 -1.09011)
(0.368589 0.402628 -1.14832)
(0.400269 0.333829 -1.14104)
(0.341954 0.303444 -1.01849)
(0.251694 0.295151 -1.02521)
(0.266989 -0.278975 -1.3222)
(0.247376 0.200691 -1.07033)
(0.112349 0.414666 -1.36018)
(-0.0154622 -0.815671 -2.12312)
(0.46552 -1.08817 -1.83872)
(0.222433 -0.75376 -0.441087)
(1.83357 0.977782 0.0899335)
(2.25312 0.849038 0.156729)
(1.93163 1.07891 0.21981)
(2.70195 0.55011 0.250174)
(2.56875 0.834319 -0.169296)
(2.44227 0.164226 0.0514989)
(2.8146 0.186352 0.300662)
(2.70092 0.0274198 -0.0378692)
(2.65729 0.205326 -0.251607)
(2.52355 0.866422 -0.313213)
(3.26162 0.0742227 0.152451)
(2.98223 -0.221599 0.295227)
(2.92646 -0.395723 -0.0407447)
(2.87605 0.228114 0.408959)
(2.49695 0.882102 -0.0982882)
(3.44346 -0.285988 0.832784)
(3.3473 -0.539219 0.588065)
(3.42436 -0.287841 0.419937)
(3.75156 -0.00804418 0.140185)
(3.20995 0.301663 0.428086)
(2.778 0.592224 0.0651337)
(4.24709 -0.250222 0.0433952)
(4.2046 -0.0949722 0.0884497)
(4.2088 -0.381306 0.301062)
(4.07817 -0.345945 0.213999)
(4.06367 -0.541488 0.60817)
(4.48499 -0.335398 -1.65946)
(3.3971 0.311281 0.34538)
(4.19325 1.01304 1.54431)
(4.22117 -0.412087 1.96468)
(4.52423 -0.469854 1.25413)
(4.87659 -0.631779 0.972832)
(4.97106 -0.502568 1.22463)
(4.56457 -0.405689 0.926933)
(4.75904 -0.930432 1.11561)
(4.88919 0.412167 -0.196709)
(3.92599 0.433744 2.71246)
(4.54603 0.237454 2.05429)
(4.74756 -0.466655 2.29873)
(4.65848 -0.496412 2.60592)
(5.57121 -0.524444 2.14709)
(5.21566 -1.73741 2.53318)
(5.18532 -2.11871 1.93367)
(5.25144 -2.61625 1.26842)
(4.27743 -1.19104 0.239136)
(3.89295 0.131816 3.0378)
(3.73335 0.164913 2.9477)
(3.84015 0.434412 2.79934)
(3.39896 -0.56485 3.4517)
(2.67601 -1.10766 3.84114)
(3.62945 -1.27373 3.0071)
(3.88287 -2.75382 4.10451)
(3.82348 -4.32464 3.44563)
(3.40494 -5.12758 3.76952)
(5.19253 0.357906 -1.6573)
(3.2947 0.344448 1.94397)
(3.23005 0.46501 2.19436)
(3.02247 0.625214 1.8456)
(2.37853 0.178418 1.83977)
(1.8368 -0.1948 2.13025)
(1.20782 0.370071 1.7747)
(1.31876 0.280132 2.78718)
(4.28937 -1.19627 2.23738)
(3.09223 -4.09614 2.03114)
(2.75176 -4.37594 3.19437)
(4.48033 -4.06838 1.61791)
(2.27453 0.4153 -0.781588)
(2.49822 0.470771 -0.263901)
(2.42805 0.942951 0.0846298)
(1.47312 -0.0213951 -1.15319)
(1.05873 -0.470526 -1.50636)
(0.87162 -0.361768 -1.1661)
(0.446183 -0.185067 -0.741281)
(-0.111216 0.0841338 -1.3796)
(0.782261 -0.467734 -1.23701)
(1.86605 -2.10911 -0.959316)
(2.13748 -2.77381 1.13538)
(3.67632 -3.38511 1.67375)
(1.93458 0.469528 -0.517476)
(1.81737 0.23979 -0.998783)
(1.52522 0.350327 -1.17671)
(1.06334 0.286577 -1.05935)
(0.867911 -0.298538 -1.37124)
(0.155523 0.171793 -0.427695)
(0.421426 0.252328 -0.28783)
(0.10769 -0.127595 0.382242)
(-1.01931 0.413015 -0.771034)
(-0.944148 0.622964 -0.0201169)
(-0.174958 -1.90152 -1.60596)
(0.495799 -2.1104 -1.80442)
(1.55843 -2.11247 -0.147826)
(0.844906 0.227839 -0.94274)
(0.91809 0.220628 -0.947401)
(0.930292 0.300953 -1.01086)
(0.604043 0.298858 -1.11622)
(0.36988 0.385337 -1.14991)
(0.404426 0.311858 -1.15989)
(0.340811 0.291931 -1.02856)
(0.25787 0.294027 -1.06024)
(0.251077 -0.301211 -1.30995)
(0.281993 0.216102 -1.0531)
(0.106809 0.361021 -1.39985)
(0.0900985 -0.753914 -2.09979)
(0.557644 -1.00276 -1.81294)
(0.240779 -0.687606 -0.473535)
(1.69037 1.11519 -0.0908497)
(2.19737 0.865631 0.0317906)
(1.87495 0.851096 -0.00596985)
(2.47343 0.701849 0.191882)
(2.26497 0.661688 0.144655)
(1.98696 0.969762 0.308835)
(2.62024 0.518252 0.229992)
(2.6638 0.403638 0.295718)
(2.59478 0.566661 -0.0979152)
(2.47478 -0.0569956 0.049539)
(2.8248 -0.0399637 0.53408)
(2.80335 -0.0237644 0.313119)
(2.70341 -0.0936659 -0.0749892)
(2.69705 -0.114352 -0.141588)
(2.58222 0.691133 -0.275315)
(3.32033 0.224111 0.491082)
(3.21626 -0.134808 0.148293)
(3.05242 -0.214707 0.2663)
(2.96885 -0.147589 -0.099411)
(2.94128 -0.0751906 0.345583)
(2.58955 0.540929 0.0697696)
(3.51187 -0.366069 0.946413)
(3.43373 -0.457663 0.755875)
(3.43294 -0.683814 0.50819)
(3.5503 -0.540575 0.448628)
(3.9101 0.0666397 0.0779019)
(3.35076 0.359889 0.570556)
(2.92111 0.364484 0.080455)
(4.35047 -0.424262 0.536401)
(4.4564 -0.436721 -0.0919102)
(4.23608 -0.0191634 0.0568527)
(4.24736 -0.277833 0.546511)
(4.2025 -0.789728 0.356726)
(4.32067 -1.13607 0.635684)
(4.55254 -0.246519 -1.06893)
(3.44543 0.143487 0.229156)
(4.5393 1.40019 1.27221)
(4.30047 0.424525 1.9649)
(4.32337 -0.641932 1.93895)
(4.49373 -0.517517 1.29515)
(4.89508 -0.843234 1.11764)
(4.94337 -0.663308 1.24659)
(4.44252 -0.878263 1.08521)
(4.47121 -1.55885 -0.0153603)
(4.65434 -0.0539525 -0.0946903)
(3.90875 0.327339 3.18308)
(3.8864 0.0847465 2.74541)
(4.70144 -0.34315 2.02242)
(4.70859 -0.569215 2.32976)
(4.74269 -0.309551 2.5296)
(5.01488 -1.33559 2.97482)
(4.93695 -1.8875 2.66378)
(4.46164 -2.94888 2.28957)
(4.73474 -3.04748 1.43232)
(4.24417 -1.57637 0.10428)
(3.72468 -0.27346 2.98301)
(3.78524 -0.444344 2.85585)
(3.82821 -0.333476 2.72972)
(3.66985 -0.0813524 2.9517)
(3.28172 -0.407491 3.53282)
(2.86661 -0.741141 3.35555)
(3.3785 -1.51144 3.12241)
(3.66733 -3.38061 3.89571)
(3.64928 -4.44212 3.40224)
(4.00606 -4.9605 2.6917)
(4.91994 -0.185634 -1.1378)
(3.20345 0.290737 1.84295)
(3.29108 0.339493 1.67312)
(3.3228 0.137236 1.96935)
(2.86361 0.37175 1.80915)
(2.33069 0.140577 1.73023)
(1.8457 0.527085 2.01706)
(1.14465 0.140119 1.26352)
(1.26409 0.492018 2.33102)
(4.10284 -1.98239 1.15446)
(2.71724 -4.18766 2.39185)
(2.66069 -4.47022 3.25075)
(4.91529 -3.83679 1.62894)
(2.49405 0.35733 -1.0556)
(2.28332 0.405031 -0.405683)
(2.42099 0.379685 -0.540999)
(2.40585 0.785363 -0.150852)
(1.60077 0.128028 -1.0814)
(0.92345 -0.431537 -1.53863)
(0.798052 -0.287718 -1.24173)
(0.379522 -0.209935 -0.757087)
(-0.298182 -0.0723425 -1.58587)
(0.489932 -0.628215 -1.43139)
(1.55379 -2.20554 -1.28086)
(1.64578 -3.05345 0.41244)
(3.80486 -3.27689 1.60243)
(1.79338 0.321874 -0.865788)
(1.84472 -0.0165014 -0.850768)
(1.77393 0.306847 -0.962293)
(1.43333 0.156214 -1.29446)
(1.0079 0.248498 -1.10058)
(0.826347 -0.275327 -1.39024)
(0.124635 0.175509 -0.507743)
(0.349772 0.222614 -0.423593)
(0.0688134 -0.208465 0.234773)
(-0.969809 0.436774 -0.772346)
(-0.922345 0.582085 -0.0191363)
(-0.265684 -2.02368 -1.76661)
(0.535829 -2.03202 -1.68542)
(1.34529 -2.06824 -0.0201068)
(0.739374 0.10277 -0.970725)
(0.810564 0.0829559 -0.989589)
(0.954277 0.35504 -0.863131)
(0.91309 0.23988 -1.03897)
(0.622624 0.328202 -1.10352)
(0.346191 0.365774 -1.15879)
(0.404142 0.308042 -1.17361)
(0.339048 0.283165 -1.04261)
(0.253998 0.283156 -1.0926)
(0.232979 -0.323281 -1.2989)
(0.312183 0.222377 -1.0371)
(0.105253 0.315177 -1.45447)
(0.194461 -0.709672 -2.08588)
(0.621787 -0.948145 -1.77866)
(0.259348 -0.628908 -0.497675)
(1.71781 0.585085 -0.0523171)
(2.12421 0.626968 -0.0337548)
(1.88921 0.799113 -0.0224713)
(2.27216 0.743571 -0.10629)
(2.22827 0.67247 0.065516)
(1.99311 0.607874 -0.0640445)
(2.43611 0.378831 0.240868)
(2.43894 0.627542 0.0882742)
(2.34231 0.47571 0.115185)
(2.03116 0.917554 0.341991)
(2.74692 -0.195113 0.305072)
(2.64132 0.22038 0.313782)
(2.56583 0.302364 0.372746)
(2.56679 0.229146 -0.0445108)
(2.43475 -0.182892 0.00936015)
(2.88085 0.194348 0.559965)
(2.87936 -0.179721 0.486539)
(2.8203 -0.16626 0.286001)
(2.71748 -0.0499877 -0.142631)
(2.69414 -0.289653 -0.120922)
(2.64387 0.333261 -0.125472)
(3.45956 0.126007 0.553289)
(3.32391 -0.0157654 0.495017)
(3.16932 -0.356169 0.199506)
(3.10026 -0.343168 0.28055)
(3.04989 -0.210932 -0.224415)
(3.05697 -0.171269 0.140947)
(2.61386 0.408382 0.156432)
(3.66064 -0.39628 1.01747)
(3.44178 -0.668818 0.839117)
(3.46579 -0.740661 0.665016)
(3.64455 -0.435348 0.495732)
(3.64901 -0.851173 0.535483)
(3.94911 0.0207031 0.0131422)
(3.49801 0.312014 0.543722)
(3.10255 0.0146495 0.0553919)
(4.26529 0.0867882 0.54699)
(4.65337 -0.97558 0.204928)
(4.57783 -0.386892 0.142818)
(4.41367 -0.0958116 0.258751)
(4.39499 -0.243874 0.758213)
(4.37079 -1.17438 0.246945)
(4.39617 -1.15271 0.554841)
(4.35358 -0.0530135 -0.528132)
(3.41578 -0.241694 -0.174497)
(4.75681 0.448481 1.59359)
(4.5338 0.751675 2.15527)
(4.56818 -0.193024 2.238)
(4.4651 -0.723618 1.63701)
(4.48578 -0.805413 1.43654)
(4.80181 -0.959829 1.3246)
(4.71351 -1.21143 1.37511)
(4.49796 -0.96286 0.879843)
(4.07374 -1.5943 -0.354129)
(4.49193 -0.110864 -0.0156124)
(4.26945 -0.0360472 3.31069)
(3.90443 0.1341 3.22994)
(4.10169 0.12747 2.6913)
(4.61652 -0.700551 2.04651)
(4.56139 -0.426859 2.59173)
(4.69207 -0.340401 2.51588)
(4.91327 -1.32512 2.92623)
(4.6133 -2.44086 2.85749)
(3.87666 -3.25421 2.4092)
(4.88183 -3.01532 1.1508)
(4.15676 -1.81022 0.00207508)
(3.32689 -0.381686 3.15307)
(3.54738 -0.872528 2.81918)
(3.75642 -0.608076 2.64879)
(3.67409 0.300311 2.71632)
(3.59045 0.0597025 2.89516)
(2.86917 -0.726372 3.68575)
(2.71652 -0.51359 3.17575)
(2.92505 -1.86043 3.24221)
(3.42038 -3.77563 3.73554)
(3.28782 -4.43787 3.05839)
(4.02258 -4.98315 2.3754)
(5.45128 0.107934 -0.803296)
(2.78936 -0.745654 0.614717)
(3.07213 0.0924641 1.64144)
(3.37473 -0.0528495 1.34563)
(3.28462 -0.0811131 1.82496)
(2.70737 0.103436 1.74403)
(2.03629 0.361411 1.87723)
(1.52429 -0.302672 1.79652)
(1.02576 0.385515 1.04336)
(1.34612 0.763502 1.70804)
(3.97829 -2.41353 0.109502)
(2.3513 -4.22577 2.55295)
(2.95407 -4.31332 2.90227)
(5.43959 -3.46584 1.33285)
(2.2617 0.487574 -1.19697)
(2.53468 0.262822 -0.81081)
(2.21298 0.224868 -0.668329)
(2.33184 0.273848 -0.645707)
(2.37598 0.657396 -0.19208)
(1.60023 0.18296 -1.07945)
(0.77961 -0.398717 -1.55084)
(0.719834 -0.230733 -1.29403)
(0.187013 -0.350133 -0.836028)
(-0.447646 -0.215241 -1.68875)
(0.126869 -0.739464 -1.71382)
(1.45622 -2.04577 -1.46482)
(1.12919 -3.09416 0.386654)
(3.85003 -3.16573 1.48822)
(1.61235 -0.0814522 -1.17071)
(1.67899 -0.122841 -0.903727)
(1.85722 -0.0238263 -0.767437)
(1.79545 0.17635 -0.924063)
(1.48366 0.412117 -1.12674)
(1.0322 0.203249 -1.10554)
(0.711939 -0.24843 -1.43055)
(0.089403 0.169351 -0.597984)
(0.306527 0.197815 -0.523845)
(0.0381916 -0.28111 0.102291)
(-0.921557 0.42532 -0.75986)
(-0.824637 0.488045 -0.351945)
(-0.310867 -2.08788 -1.77268)
(0.552754 -1.92748 -1.63842)
(1.2401 -1.9394 0.0874167)
(0.673319 0.307893 -1.08495)
(0.756695 0.085496 -0.933038)
(0.82555 0.0996672 -0.960762)
(0.903223 0.126298 -0.974629)
(0.903482 0.229408 -1.04377)
(0.595969 0.301001 -1.12249)
(0.330094 0.308037 -1.18758)
(0.405584 0.29568 -1.17825)
(0.337156 0.274298 -1.05429)
(0.247013 0.266409 -1.11846)
(0.216395 -0.344499 -1.2854)
(0.342462 0.216314 -1.02141)
(0.108028 0.27671 -1.52311)
(0.289841 -0.681294 -2.07465)
(0.662312 -0.914621 -1.74275)
(0.268753 -0.578077 -0.514845)
(1.30034 1.00836 0.112008)
(1.8233 0.811184 0.0484772)
(1.69557 0.550162 -0.0795906)
(2.09323 0.735942 0.00572517)
(2.18015 0.213336 -0.0130023)
(1.94611 0.663375 -0.101564)
(2.32134 0.505574 0.148851)
(2.29324 0.715674 -0.116425)
(2.30233 0.122197 0.0683744)
(2.02248 0.560162 -0.095288)
(2.45777 0.370933 0.321082)
(2.44407 0.328956 0.28758)
(2.42294 0.462816 0.130912)
(2.33675 0.466457 0.0750507)
(2.0556 0.923606 0.316099)
(2.63795 -0.0659414 0.617354)
(2.62766 0.188793 0.543429)
(2.6334 0.274572 0.329801)
(2.53273 0.0693933 0.322561)
(2.44733 0.116686 -0.109251)
(2.31518 -0.133707 -0.0546251)
(2.98434 0.209224 0.515318)
(2.89372 0.185392 0.582234)
(2.89495 -0.253091 0.425271)
(2.87655 -0.235949 0.248682)
(2.78041 -0.233946 -0.230399)
(2.692 -0.279468 -0.111081)
(2.65686 0.235027 -0.042001)
(3.41627 0.129128 0.783403)
(3.32257 -0.0766435 0.705604)
(3.34026 -0.0400863 0.499426)
(3.20044 -0.464325 0.252404)
(3.11018 -0.537025 0.041085)
(3.14795 -0.208616 -0.164804)
(3.18942 -0.16253 0.0270343)
(2.75444 0.0644853 0.318926)
(3.68437 -0.250921 1.17407)
(3.59454 -0.292633 0.996232)
(3.51028 -0.5906 0.799771)
(3.53799 -0.754134 0.769607)
(3.66551 -0.975264 0.56094)
(3.72631 -1.00581 0.637001)
(3.97284 0.00284378 0.0100243)
(3.59463 0.150317 0.44693)
(3.18412 -0.0505959 -0.0121205)
(4.45704 0.0661881 0.508711)
(4.61157 -0.980586 0.197051)
(4.79888 -1.03577 0.234256)
(4.69706 -0.389001 0.762919)
(4.6301 -0.183305 0.445611)
(4.63044 -0.430868 0.690523)
(4.44339 -1.38071 0.20536)
(4.21722 -1.511 0.583691)
(4.02272 -0.420159 -0.360082)
(3.36693 -0.448188 -0.139413)
(4.57442 -0.136276 1.92428)
(4.76202 -0.0683247 2.25641)
(4.57622 -0.33997 2.78653)
(4.78001 -0.365916 1.95413)
(4.54926 -0.583019 1.61325)
(4.56408 -0.814674 1.47518)
(4.64876 -1.13751 1.55764)
(4.62376 -1.53028 1.4008)
(4.5422 -1.26074 0.683371)
(3.85839 -1.93964 -0.446484)
(4.48638 -0.0401104 0.00585796)
(4.20259 -0.177812 3.446)
(4.22745 -0.0974679 3.35604)
(3.9138 0.289759 3.11941)
(4.39009 0.166504 2.61081)
(4.63134 -0.775316 2.18546)
(4.29338 -0.716708 2.78023)
(4.50268 -0.587728 2.77908)
(4.35277 -2.17011 3.51512)
(3.79539 -3.32036 3.03585)
(3.63126 -3.42567 2.33497)
(4.97893 -2.89525 0.857245)
(4.13421 -1.94054 -0.00251969)
(3.75678 -0.359092 2.56059)
(3.50648 -0.717306 2.68206)
(3.58649 -1.10049 2.45337)
(3.80673 -0.340179 2.62581)
(3.47203 -0.285151 2.69188)
(3.4439 0.358539 2.8545)
(2.96716 -0.271707 3.30043)
(2.74581 -0.463964 2.93568)
(2.54271 -2.45631 2.84387)
(1.1601 -6.23354 0.0716413)
(2.84504 -4.7904 2.63689)
(3.94932 -4.89991 2.54242)
(6.27328 0.450151 -0.846643)
(2.60327 -0.0579222 -0.0995815)
(2.57961 -0.854466 0.496928)
(3.02002 -0.272849 1.38348)
(3.33115 -0.281506 1.33685)
(3.19035 -0.127495 1.78143)
(2.58102 0.0488571 1.73311)
(1.90187 0.047864 1.49504)
(1.37248 -0.111545 1.5957)
(0.900488 0.29792 0.715774)
(1.19575 0.550605 0.780104)
(3.70947 -2.74618 -0.303069)
(1.7968 -4.44962 2.59779)
(3.22783 -4.02673 2.636)
(5.72765 -3.01447 0.973633)
(2.06134 0.410907 -1.39025)
(2.24008 0.267543 -1.25689)
(2.41663 -0.050576 -0.618322)
(2.20728 -0.158684 -0.662953)
(2.28346 0.251194 -0.613604)
(2.358 0.472362 -0.394323)
(1.75062 0.379648 -1.0182)
(0.961937 -0.333135 -1.4812)
(0.64184 -0.250423 -1.34182)
(0.0956485 -0.401442 -0.90788)
(-0.620858 -0.393236 -1.75947)
(0.0551244 -0.858137 -1.90531)
(1.22589 -1.88969 -1.60523)
(1.1493 -2.66079 0.835805)
(3.87923 -3.1068 1.35668)
(1.63582 0.126698 -1.13062)
(1.50568 -0.630796 -1.06734)
(1.67813 -0.0750359 -0.880405)
(1.88266 0.0949557 -0.624031)
(1.7956 0.0452019 -0.934383)
(1.46571 0.437892 -1.1123)
(0.703275 -0.141483 -1.33264)
(0.722834 -0.181448 -1.39221)
(0.0549713 0.168684 -0.653806)
(0.25602 0.185578 -0.593129)
(-0.0373041 -0.38374 -0.08649)
(-0.850407 0.404918 -0.719888)
(-0.777103 0.45674 -0.486941)
(-0.237563 -2.09205 -1.626)
(0.51722 -1.88007 -1.50097)
(1.22123 -1.76893 0.0671786)
(0.642342 0.204579 -1.15354)
(0.677749 0.301002 -1.04742)
(0.756869 0.0530943 -0.907905)
(0.790352 -0.012754 -0.982406)
(0.894402 0.14664 -0.962153)
(0.893895 0.226948 -1.04765)
(0.577255 0.274645 -1.1371)
(0.323771 0.314327 -1.20312)
(0.397249 0.283253 -1.18415)
(0.340804 0.26059 -1.07487)
(0.239382 0.24792 -1.14522)
(0.210602 -0.348984 -1.26744)
(0.363731 0.213361 -1.00864)
(0.120471 0.248057 -1.60641)
(0.37581 -0.667637 -2.05821)
(0.691665 -0.894291 -1.7041)
(0.263382 -0.533769 -0.53051)
(1.37651 0.833298 0.00702489)
(1.61246 0.867774 0.155257)
(1.37723 0.878394 0.135241)
(1.84759 0.927598 0.157449)
(1.82813 0.801966 0.0792403)
(1.67999 0.509394 -0.0791132)
(2.1826 0.627391 0.141575)
(2.07638 0.727696 0.144825)
(2.09495 0.272739 0.0584088)
(1.9817 0.611376 -0.0650557)
(2.34282 0.389363 0.270477)
(2.3678 0.405787 0.199952)
(2.29415 0.668984 -0.222325)
(2.22271 0.28966 -0.0365855)
(2.04648 0.535164 -0.175381)
(2.47198 0.173278 0.480689)
(2.46665 0.226563 0.32825)
(2.47122 0.0762445 0.286003)
(2.39231 0.445429 0.225705)
(2.29438 0.396576 0.118571)
(2.05711 1.03285 0.236018)
(2.74057 0.141975 0.411367)
(2.64934 0.0813666 0.581823)
(2.62998 -0.0406745 0.464081)
(2.65845 0.198586 0.336058)
(2.49681 -0.0279084 0.298419)
(2.41814 0.0613259 -0.00570939)
(2.27023 0.0433535 0.00196656)
(2.93866 0.277062 0.780115)
(3.00147 0.128019 0.528535)
(2.93378 -0.012957 0.542963)
(2.92575 -0.176981 0.433679)
(2.88743 -0.139609 0.286818)
(2.93292 -0.248149 -0.145009)
(2.81716 -0.103836 0.00815338)
(2.74664 0.0623342 0.0809062)
(3.46401 0.276438 0.86701)
(3.34623 -0.0160275 0.835283)
(3.24313 -0.135166 0.64277)
(3.2839 -0.215464 0.560867)
(3.2427 -0.433893 0.315246)
(3.22265 -0.545844 -0.0560107)
(3.27025 -0.153938 -0.0681925)
(3.2828 -0.0725859 0.0667451)
(2.82107 0.0772867 0.225025)
(3.58401 -0.484933 1.23992)
(3.57702 -0.249554 1.25355)
(3.5255 -0.468334 0.912116)
(3.65292 -0.492957 0.865691)
(3.69831 -0.990752 0.762351)
(3.72605 -1.23896 0.499737)
(3.76908 -1.02981 0.661806)
(3.95735 -0.156522 0.0385434)
(3.51546 -0.146816 0.410017)
(3.19663 -0.243147 -0.0444533)
(4.4642 0.0137319 0.68937)
(4.66158 -0.409685 0.399871)
(4.8279 -1.08139 0.0151229)
(4.89569 -0.725055 0.616946)
(4.75566 -0.595866 1.0131)
(4.71193 -0.639278 0.673813)
(4.68335 -0.609465 0.574155)