/*--------------------------------*- C++ -*----------------------------------*\
  =========                 |
  \\      /  F ield         | OpenFOAM: The Open Source CFD Toolbox
   \\    /   O peration     | Website:  https://openfoam.org
    \\  /    A nd           | Version:  7
     \\/     M anipulation  |
\*---------------------------------------------------------------------------*/
FoamFile
{
    version     2.0;
    format      ascii;
    class       volScalarField;
    location    "7";
    object      nut;
}
// * * * * * * * * * * * * * * * * * * * * * * * * * * * * * * * * * * * * * //

dimensions      [0 2 -1 0 0 0 0];

internalField   nonuniform List<scalar> 
18870
(
7.34187e-05
0.000348877
9.18551e-05
0.000158276
0.00053579
0.000235583
0.000554178
0.000108452
0.000181087
7.71401e-05
0.000551403
0.000275242
0.000298634
0.000104883
0.000234224
0.000200144
0.000153694
0.000197852
7.58137e-05
0.000121376
0.000777687
0.000655503
0.000459291
0.000339983
0.000252191
0.000228714
0.00015405
0.000168226
0.000401908
0.000306528
0.000179784
0.00024061
0.000120874
0.000188627
6.29629e-05
0.000922997
0.00114797
0.000532311
0.00053062
0.000579093
0.000378368
0.000496032
0.000239333
0.000237983
0.000299631
0.000172846
0.000114247
0.000347383
0.000171886
0.000227828
0.000187037
0.000240218
0.000217263
0.000107601
6.78712e-05
0.000224018
0.00054504
0.000750137
0.000746347
0.000871008
0.000650099
0.000636564
0.000756805
0.000530755
0.000483022
0.000683894
0.000403553
0.00033583
0.000254873
0.000319892
0.000425111
0.000107391
0.000146291
0.000211983
0.000293616
0.00022154
0.000524592
0.000205126
0.000187546
0.000230968
0.000104171
9.16218e-05
0.000267218
0.000237837
0.000510809
0.00056059
0.000378982
0.000667129
0.000509352
0.000648539
0.000872859
0.00068853
0.00082919
0.000758682
0.000403782
0.000533872
0.000494069
0.000636844
0.000756423
0.000381469
0.000265938
0.0002673
0.000339138
0.000786788
0.000157327
0.000171829
0.000241876
0.000278966
0.000235931
0.000503584
0.000344165
0.00040592
0.000142103
0.000161731
0.000145937
7.48661e-05
0.000131645
0.000284421
0.000570874
0.000192542
0.000328209
0.00068799
0.00034555
0.00078183
0.000545561
0.000329048
0.000542025
0.000344718
0.00110203
0.000561241
0.000709985
0.000720742
0.000857314
0.000829095
0.000910602
0.000460538
0.000499942
0.000518684
0.000728166
0.000459005
0.0018017
0.000403138
0.000437389
0.00036271
0.000317997
0.000533078
0.000613597
0.000878809
6.86751e-05
0.000148195
0.000233734
0.000192415
0.000274919
0.000213001
0.000317794
0.00027101
0.000146955
0.000179161
8.8749e-05
9.52713e-05
7.2973e-05
0.000131522
0.000205189
6.25735e-05
0.00030431
0.000385427
0.000349503
0.000385128
0.000235748
0.000129365
0.000233199
0.000451724
0.000759495
0.000382319
0.000561909
0.000554946
0.000446181
0.000606671
0.000913733
0.000707316
0.000739925
0.000565712
0.000735027
0.000701973
0.000841982
0.000766383
0.000510206
0.000475584
0.00061152
0.000468719
0.000568995
0.00157321
0.000695253
0.000330107
0.000355933
0.000307836
0.000606976
0.000278399
0.000639326
0.000473603
0.000466484
5.59938e-05
0.000158851
0.000180156
0.000358563
0.000291643
0.000415503
0.000334564
0.000302881
0.00043352
0.000169001
0.000190776
0.000109109
0.000103303
0.00011482
7.24044e-05
0.000197898
7.86581e-05
0.00052371
0.000164611
0.000429805
0.000410577
0.000275244
0.000508036
0.000312693
0.00027163
0.000183585
0.000224386
0.000331756
0.000644805
0.000583266
0.000531707
0.000598296
0.000532431
0.00044271
0.000583992
0.000760283
0.000587268
0.000632892
0.000674927
0.000997281
0.00049916
0.000822685
0.000663635
0.000499985
0.000813411
0.00166357
0.00180742
0.000763305
0.000622737
0.000903335
0.000536221
0.000565597
0.000735991
0.000918487
0.000727168
0.000423422
0.000499771
0.000515438
0.000525734
0.000931256
0.00079289
0.000788733
0.000957184
0.000590386
5.56566e-05
0.000139644
0.000167753
0.00025353
0.000874538
0.000698733
0.000191063
0.000207863
0.000368171
0.000395948
0.000144458
0.00020742
9.85256e-05
0.000142268
0.000152682
0.000240539
0.000218963
0.000153415
0.000412366
0.00024875
0.000426562
0.000398545
0.000228614
0.000270022
0.000511279
0.00054605
0.000454062
0.000721999
0.000638367
0.000478358
0.000520172
0.000550619
0.000531895
0.000371197
0.00049554
0.000391488
0.000549879
0.000511983
0.000712345
0.000627574
0.000561138
0.000642008
0.000976666
0.00104772
0.00047168
0.00066981
0.000833573
0.00119581
0.000604209
0.0009835
0.000561973
0.00067588
0.000624622
0.000920124
0.00204063
0.0012333
0.00131962
0.000608905
0.000647155
0.000463134
0.000568668
0.000552766
0.000673115
0.000676184
0.00060791
0.000412112
0.000368595
0.000382172
0.000486214
0.000421197
0.000367628
0.000624599
0.000842394
0.000660743
0.000726633
0.000791263
7.61035e-05
0.000139633
0.000211636
0.000405169
0.000336297
0.00037905
0.000269384
0.000237692
0.000518783
0.000314181
0.000214257
0.00020012
0.000228154
8.58836e-05
0.000142869
0.000109912
8.83137e-05
0.000216873
0.000214047
0.00023888
0.000318989
0.000248981
0.000224525
0.000400348
0.000412332
0.000313417
0.000349022
0.000417836
0.000356589
0.000791979
0.000646619
0.000490025
0.000482407
0.000393393
0.000516248
0.000366532
0.000492197
0.000310047
0.000697382
0.000705101
0.000555466
0.000544917
0.000706524
0.000523543
0.00059169
0.000408697
0.000668968
0.000664469
0.000942293
0.000532506
0.000380779
0.000891985
0.000464814
0.000507706
0.000468938
0.000522452
0.000414409
0.000585931
0.000787999
0.000869403
0.000912795
0.000447169
0.00059013
0.000630192
0.000814462
0.00092915
0.000498322
0.000733233
0.000637795
0.000613272
0.000825243
0.00061443
0.000765003
0.000873236
0.0007665
0.000860237
0.000762235
0.000848318
0.000387408
0.000675292
0.000419972
0.000342629
0.000873185
0.000451296
0.00085558
0.000565147
0.00073288
0.000658675
0.00068875
0.000113166
0.000166142
0.000282383
0.000242432
0.000658189
0.000368693
0.000522992
0.000293862
0.000443417
0.000263318
0.000301201
0.000195441
0.000290991
0.000242449
0.000142382
0.000114931
8.72683e-05
0.000171684
0.000156571
0.000301698
0.000317553
0.000381547
0.000226318
0.000116013
0.000181185
0.00031785
0.000410551
0.000363514
0.00044132
0.000504232
0.000370839
0.000650742
0.000286268
0.000445073
0.000354998
0.000413996
0.000214498
0.000495298
0.000244586
0.000576032
0.000515006
0.000577673
0.000538066
0.000470617
0.000840521
0.00024367
0.000684615
0.000696318
0.000702054
0.000601268
0.000324729
0.000173597
0.000523529
0.000742171
0.001437
0.000415805
0.000520357
0.000314182
0.000650066
0.000632404
0.000638489
0.00138404
0.00181556
0.000696072
0.000318239
0.000409013
0.00093423
0.000949972
0.000440855
0.000665269
0.000763324
0.000780349
0.000523199
0.000449716
0.000764417
0.000859961
0.000845456
0.000859254
0.000796989
0.000934476
0.000558438
0.000694063
0.00093005
0.000871167
0.000661597
0.000896884
0.00081316
0.000643517
0.000645512
0.00101294
0.000829581
0.000485316
0.00045062
0.000352244
0.000286919
0.000268984
0.000439976
0.000571511
0.000501702
0.000610521
0.000699439
0.000652981
0.000462997
0.000149497
0.000255033
0.00030992
0.000158602
0.000460702
0.000304707
0.000384784
0.000366933
0.000396202
0.000350292
0.000171814
9.05191e-05
0.000308826
0.000162717
0.000205672
0.000175021
0.000135235
0.000128286
0.000147022
0.000148237
0.000371103
0.000430761
0.000478959
0.000153396
9.07245e-05
0.000414752
0.000332809
0.000361482
0.000352465
0.000332494
0.000417582
0.000556438
0.000377375
0.000525396
0.000636491
0.000399837
0.000171871
0.000510457
0.000633827
0.000324142
0.000442757
0.000435732
0.000549192
0.000661926
0.000472093
0.000463856
0.000358939
0.000628418
0.000778205
0.000705728
0.000669852
0.000413185
0.000389792
0.000816599
0.00100993
0.000388601
0.00050505
0.000595354
0.000782287
0.000405225
0.00124742
0.000966354
0.000353705
0.000523933
0.00034195
0.000472326
0.000432175
0.000371456
0.00105023
0.000336236
0.000475249
0.000380829
0.00105906
0.000719443
0.000719285
0.000323952
0.000602525
0.00059951
0.000713488
0.000603731
0.000848165
0.000579825
0.000887032
0.000768291
0.000590329
0.000725786
0.000884486
0.000856429
0.000750579
0.000940978
0.000703198
0.000666263
0.00168806
0.000519588
0.000456697
0.000763717
0.00102105
0.000874972
0.00100577
0.000772245
0.000560383
0.00074968
0.00119183
0.000787073
0.00041077
0.000473853
0.00043806
0.000693239
0.000328094
0.000121663
0.000319974
0.000483228
0.00079743
0.000642189
0.000681529
0.000496383
0.000282245
0.000285958
0.000182646
0.000290664
0.000419707
0.000145135
0.000344404
0.000322858
0.0001841
0.000385023
0.00047937
0.000260963
0.000231433
0.000779578
0.000314847
0.000173439
0.00012614
0.000151137
0.000146582
0.000139058
9.48375e-05
0.00016084
0.000167154
0.000428956
0.000488939
0.000476803
0.000418612
9.87507e-05
0.000296324
0.000193703
6.37237e-05
0.000331916
0.000241095
0.000427512
0.000431301
0.000445366
0.000385671
0.000401305
0.000305342
0.000435023
0.000391774
0.000501144
0.00058937
0.000477384
0.00029537
0.000668023
0.000578983
0.000590015
0.000441288
0.000613162
0.000736161
0.000454031
0.000444498
0.000559666
0.000462927
0.000670687
0.000526564
0.000458756
0.00034777
0.000725192
0.000488109
0.000494915
0.000656835
0.000474094
0.000380186
0.000329568
0.000273689
0.000501516
0.0004829
0.000594136
0.000488994
0.000261034
0.000218731
0.000742325
0.000597392
0.000368761
0.00046889
0.000580694
0.00053568
0.000461088
0.000306614
0.000535087
0.000563504
0.000422489
0.000431105
0.000626507
0.000431374
0.000656679
0.000489017
0.000593906
0.000808724
0.000340427
0.000777984
0.00106817
0.000811965
0.000960701
0.000786422
0.000767257
0.0011213
0.000766102
0.000763262
0.000696342
0.00102801
0.00128696
0.000626978
0.000563761
0.000630153
0.00126441
0.000774151
0.00084033
0.000722974
0.000716058
0.000945025
0.00107326
0.000853625
0.000779086
0.00118579
0.000719455
0.000646675
0.00062829
0.00039974
0.000385364
0.000471342
0.000480454
0.000460277
0.000221491
7.8162e-05
0.000223362
0.000827958
0.000315708
0.000462546
0.000659616
0.000470553
0.00032236
0.000234964
0.000576633
0.000248626
0.00027216
0.000406869
0.000302319
0.000443253
0.000306585
0.000196314
0.00025995
0.000394529
0.00032174
0.000347165
0.000437741
0.000294709
0.000238817
0.00037322
0.000179351
0.000213719
0.000216935
8.25038e-05
9.44903e-05
0.000152335
0.000212031
0.000466992
0.000498137
0.00049678
0.000431251
0.00018802
0.0001853
0.00054397
5.3491e-05
0.000144858
0.000230191
0.000454476
0.000281014
0.000422669
0.000247669
0.000229478
0.000552466
0.000416627
0.000457116
0.000440201
0.000463949
0.000367353
0.000410688
0.00061905
0.000260241
0.000455335
0.000573938
0.000347522
0.000603662
0.000284339
0.000398075
0.000443276
0.000304897
0.000505766
0.000360657
0.00044296
0.00051267
0.000370372
0.000402392
0.000517031
0.000527728
0.000710354
0.000374315
0.000430143
0.000395552
0.000785878
0.000438228
0.000613553
0.000581316
0.000930083
0.000385019
0.000363766
0.000451657
0.0011228
0.000405928
0.000561093
0.000525011
0.000332575
0.000404629
0.000587363
0.000216355
0.00041495
0.000891666
0.000611732
0.000442135
0.000412758
0.000554541
0.000480617
0.000449299
0.000444034
0.000516018
0.000463227
0.000814108
0.000640992
0.000598732
0.000725778
0.000440562
0.000621301
0.000579883
0.000673976
0.000465052
0.000622718
0.000851824
0.000692961
0.000686248
0.000913644
0.000871299
0.000509734
0.000852216
0.000707393
0.000567186
0.000911853
0.00122317
0.0016735
0.00145305
0.00155706
0.000744821
0.00132519
0.000985259
0.000672235
0.000965471
0.000520305
0.000593223
0.00110435
0.00108071
0.000803754
0.000902822
0.000890289
0.000456737
0.00105414
0.00090561
0.000547663
0.000301708
0.000338379
0.000609836
0.000481011
0.000568262
0.000507891
0.000183968
0.000214666
0.000306994
0.000247882
0.000582089
0.000630321
0.000639782
0.000286419
0.000316605
0.000452263
0.00063381
0.000303808
0.000347147
0.000363494
0.000409618
0.000323409
0.000320132
0.000286737
0.000522944
0.000245964
0.000327452
0.000323031
0.000395135
0.00024282
0.000306716
0.000210014
0.000408796
0.000353219
0.000117103
0.000348593
0.000276146
0.000144776
0.000120888
9.55562e-05
0.000250933
0.000461221
0.000519069
0.000611848
0.000170404
0.000202147
0.000208317
0.000398046
0.000109441
5.5199e-05
0.000100769
0.000132568
0.000369976
0.000288084
0.000643805
0.000416349
0.000321043
0.000353097
0.000327801
0.000279678
0.00025918
0.00038833
0.000434044
0.000368034
0.00042665
0.000335138
0.000486977
0.0003754
0.000468395
0.000460076
0.000223249
0.000206044
0.000296969
0.000506048
0.000475817
0.000435536
0.000433085
0.000516996
0.000502899
0.000409074
0.000296756
0.000435883
0.00047761
0.000341718
0.000533306
0.000450818
0.000367776
0.000790089
0.000423243
0.000719482
0.00035466
0.000462287
0.000506941
0.000406701
0.000296598
0.000477342
0.000533719
0.00052595
0.000513738
0.000526216
0.00069141
0.00031467
0.000450521
0.000358832
0.000586752
0.000275123
0.000351573
0.000193169
0.000621877
0.000850274
0.000495737
0.000401853
0.000336043
0.000379742
0.000487824
0.000375911
0.000941646
0.000467626
0.000677045
0.000979599
0.00129951
0.000199705
0.000523498
9.59343e-05
0.000464214
0.000620791
0.00102197
0.000784493
0.000654816
0.000707863
0.000894892
0.000611156
0.000785951
0.000547155
0.000520895
0.00112009
0.000863739
0.000540673
0.00086553
0.00101044
0.00100064
0.000664336
0.00059381
0.000602379
0.000786268
0.000824267
0.00117634
0.0012375
0.0011931
0.000925859
0.000733607
0.00081986
0.000626833
0.000223824
0.000750416
0.000970944
0.000559615
0.000567159
0.000923254
0.000980752
0.00085167
0.000924902
0.000910349
0.00077748
0.000576851
0.000917942
0.000418855
0.000294647
0.000344615
0.000509607
0.000330524
0.000472208
0.000523404
0.000583264
0.000115024
0.000208362
0.000253949
0.000528941
0.000381219
0.0006413
0.000555648
0.000439688
0.000617052
0.000444844
0.000642597
0.000434549
0.000256412
0.000248177
0.000432547
0.000573751
0.000327111
0.0002178
0.0002626
0.000350569
0.000161049
0.000353248
0.000211561
0.000261799
0.000337968
0.000360695
0.00022965
0.000459919
0.000221474
0.00045892
0.000106246
0.000401127
0.000297408
0.000115721
0.000129864
0.00013119
0.000287586
0.000430495
0.000550493
0.000639117
0.000242755
8.45698e-05
0.000266109
0.000427657
0.000172906
0.000180059
0.00019135
0.000385553
0.000438135
0.000307513
0.000208459
0.000472496
0.000386761
0.000266532
0.000468106
0.000542581
0.000353478
0.00032701
0.000342645
0.000306513
0.000335331
0.00029639
0.000249432
0.000448437
0.000396723
0.000454561
0.000477168
0.000249286
0.00044243
0.000567682
0.000545001
0.000579523
0.000347965
0.000323132
0.000516892
0.000360648
0.000599959
0.000529175
0.000368488
0.000260378
0.00055616
0.000417189
0.000570407
0.000425415
0.000509375
0.000506358
0.000252656
0.000614932
0.000559144
0.000305915
0.000413739
0.000332161
0.000439476
0.000425713
0.000452289
0.000657814
0.000652327
0.000421758
0.000439207
0.000366012
0.000307962
0.000470038
0.000632533
0.000534915
0.000487941
0.00051906
0.000376777
0.000458231
0.000635122
0.000382243
0.000393222
0.000472686
0.000825788
0.00114305
0.000492335
0.000392894
0.000571431
0.00033188
0.000734704
0.00047261
0.000327537
0.000265619
0.00045878
0.000628547
0.000559378
0.00042232
0.000772721
0.000690009
0.000445899
0.000860513
0.000706447
0.000396721
0.000532034
0.000593847
0.000582706
0.000713734
0.00108829
0.000988573
0.000585906
0.000659797
0.000572413
0.000734162
0.00143282
0.000733856
0.00074248
0.00110646
0.000989398
0.000943771
0.00104171
0.000868347
0.000526231
0.000657086
0.000992794
0.000638442
0.000773848
0.000900066
0.000882676
0.00114926
0.00117861
0.00119747
0.000452962
0.000626484
0.000943298
0.000460747
0.00035982
0.000714865
0.000700148
0.000245485
0.00059429
0.000739276
0.000947445
0.00118423
0.000632689
0.000427202
0.00028104
0.00108073
0.000698607
0.000571908
0.00030746
0.000714483
0.000450742
0.000855817
0.000207661
0.000325946
0.000459711
0.000549522
0.00055455
0.000305026
0.000228032
0.00026967
0.000468037
0.00109484
0.000586016
0.000605395
0.000374096
0.000590807
0.000290096
0.000506254
0.000439278
0.000250241
0.000170428
0.00013594
0.000564792
0.000594333
0.000398705
0.000179622
0.000261332
0.000205294
0.000235882
0.000394901
0.000288805
0.000217872
0.000578968
0.00034427
0.000344855
0.000502569
0.000295602
0.000461663
0.000165509
0.000158567
0.000350988
0.000260151
0.000194159
0.000155949
0.000226673
0.000312181
0.000300522
0.00054659
0.000641685
0.000267717
0.000283543
0.000329055
0.000283112
0.000216235
0.000188456
0.000234468
0.000293072
5.11177e-05
0.000347664
0.000468677
0.000427453
0.000330592
0.000324726
0.000286118
0.000448802
0.000288785
0.000404895
0.000309909
0.000346977
0.000256594
0.000411075
0.000439134
0.000472643
0.000492147
0.000241825
0.000365341
0.000391364
0.000214734
0.000288876
0.000434406
0.000424794
0.000509405
0.00047221
0.000256454
0.000398846
0.000240219
0.000488001
0.000453628
0.000387642
0.000415271
0.000343257
0.00046878
0.00048553
0.00039998
0.000607514
0.000351581
0.000331059
0.000299068
0.00029858
0.000586447
0.000370969
0.000458501
0.000523579
0.000306727
0.000372638
0.000456459
0.000538305
0.000540033
0.00051363
0.000427576
0.000405763
0.000412106
0.000537495
0.000234099
0.000443537
0.000479964
0.000815476
0.000502994
0.000302458
0.000306049
0.000485502
0.000487906
0.00053963
0.000338803
0.000506046
0.000473999
0.000447691
0.000460225
0.000979342
0.000772628
0.000349885
0.000468499
0.000339724
0.000614071
0.000966403
0.000900898
0.000562215
0.000528376
0.000450807
0.00117625
0.000907596
0.0003617
0.000233629
0.000335552
0.000523483
0.000691008
0.000809725
0.000744072
0.000607132
0.000441018
0.000426516
0.000643115
0.00081513
0.000208429
0.000549572
0.000613523
0.0006684
0.000663868
0.000906147
0.000736076
0.000673655
0.000981398
0.000756919
0.000614463
0.00087156
0.000653156
0.000844393
0.00109591
0.000950093
0.00130574
0.000656293
0.00101993
0.00186893
0.000565809
0.000568089
0.0005159
0.00117168
0.000874681
0.000842977
0.000624815
0.000860329
0.00118384
0.00120978
0.00208217
0.00119849
0.000767005
0.000943368
0.000755622
0.000375118
0.000659371
0.000760884
0.000630731
0.000376209
0.000799115
0.000657918
0.00082399
0.00103943
0.000932391
0.000518119
0.000512193
0.000302297
0.000491913
0.000219438
0.000781713
0.000290718
0.000866913
0.000476985
0.000618466
0.000519834
0.000487745
0.000531179
0.000488429
0.000595792
0.000681995
0.000452856
0.000232738
0.000348528
0.000684617
0.000382947
0.000676763
0.000687601
0.000427448
0.000628219
0.000516104
0.000432542
0.00032017
0.000247852
0.000278983
0.000314124
0.000181929
0.000433661
0.000694107
0.00045908
0.000190196
0.000266012
0.000198784
0.000336542
0.000315304
0.000424399
0.000212098
0.00040659
0.000393675
0.000392982
0.000353437
0.000318596
0.000105203
0.000135328
0.000133373
0.000228839
0.000256601
0.000223996
0.000336064
0.000220356
0.000161313
0.000342103
0.000231246
0.000496775
0.000644698
0.000440874
0.000357892
0.000435757
0.000142103
0.000111053
5.76269e-05
0.000327367
0.00013238
5.47642e-05
6.98058e-05
0.000474555
0.00056536
0.000408997
0.000430227
0.00044733
0.000427942
0.00030068
0.000415478
0.000347653
0.000254879
0.000356513
0.000290533
0.000461797
0.000346633
0.000362214
0.000344843
0.000264224
0.000367512
0.00035718
0.000291501
0.000184699
0.000516609
0.000433122
0.000298437
0.000410969
0.000314726
0.00025871
0.000257174
0.000513225
0.000348358
0.000325039
0.000439627
0.000317759
0.000319645
0.000282215
0.000383685
0.000404085
0.000356923
0.000346898
0.000327504
0.000304
0.000532249
0.000429158
0.000322576
0.000365865
0.000437702
0.000406507
0.000267094
0.000303119
0.000369396
0.000595111
0.000537004
0.000344618
0.000508795
0.000530607
0.00042565
0.000262698
0.000388943
0.000452967
0.000558599
0.000440064
0.000489341
0.000373697
0.000446833
0.000445505
0.000616749
0.000567384
0.000524701
0.000812503
0.000455041
0.000680303
0.000310836
0.000289187
0.000457708
0.00040619
0.000481718
0.00139199
0.000681934
0.000658856
0.000632892
0.000554242
0.000580238
0.000142963
0.000250023
0.00052209
0.000618173
0.000494316
0.000685298
0.00101595
0.000389325
0.000655512
0.000456516
0.00109303
0.000434588
0.000562748
0.00063317
0.00052825
0.000593339
0.000578011
0.000616053
0.000868568
0.00080602
0.000796271
0.000827252
0.000235304
0.000545305
0.00122757
0.000454645
0.000775447
0.000909739
0.000589296
0.000733693
0.000630577
0.000715737
0.000933801
0.000665174
0.000589192
0.000480576
0.00079498
0.000855924
0.000573425
0.000745609
0.00112767
0.000723387
0.000700768
0.00112681
0.00136253
0.000984003
0.000670868
0.000833429
0.000543053
0.000684765
0.000682598
0.000898413
0.000576239
0.000764691
0.000683525
0.00061602
0.000925222
0.00135698
0.00138156
0.00104625
0.000488253
0.000575666
0.000693691
0.000704418
0.000251066
0.000952773
0.000554321
0.00065497
0.000372264
0.00033863
0.000980687
0.000781462
0.000964287
0.00103752
0.000649158
0.000315786
0.00031948
0.000628978
0.0013346
0.000308138
0.000613455
0.000443668
0.000541084
0.000569463
0.000475109
0.000572021
0.000334529
0.000513661
0.000518118
0.000581961
0.000536353
0.000453621
0.000442209
0.000273509
0.000572405
0.00048682
0.000391452
0.00075209
0.000378512
0.000775003
0.00045058
0.000421661
0.000534879
0.000428038
0.000305499
0.000256886
0.000288968
0.000188274
0.0002989
8.15852e-05
0.000741618
0.000475377
0.000159472
0.000258713
0.000223306
0.000147667
0.000416276
0.000471516
0.000445183
0.000409487
0.000295205
0.000426201
0.000390029
0.000320681
0.000165126
0.000163843
0.00024823
0.000214291
0.000183471
0.000123156
0.00022195
0.000367211
0.000162274
0.000132567
0.000436089
0.000212383
0.000291856
0.000614384
0.000606714
0.00043343
0.000462699
0.000254378
9.6552e-05
0.00014758
0.000283235
0.000147237
9.81811e-05
8.46327e-05
9.72645e-05
0.000712725
0.000534808
0.000576518
0.000485509
0.00043673
0.000437911
0.00027381
0.00032523
0.00029422
0.000251976
0.000189085
0.000307327
0.00028702
0.000269537
0.000264262
0.000474742
0.000409594
0.000404298
0.000393539
0.000414499
0.000468245
0.00038681
0.000317693
0.000390736
0.000388914
0.000416911
0.000208642
0.000299787
0.000436792
0.000357571
0.000302959
0.000391187
0.000340041
0.000283584
0.00032242
0.00026289
0.000474987
0.000437109
0.00040531
0.000362108
0.000249901
0.000326999
0.000313876
0.000370666
0.00051176
0.000315019
0.000558674
0.000330235
0.00028093
0.000332248
0.000389055
0.000663647
0.000249877
0.000451841
0.000551155
0.000234294
0.000427098
0.000197127
0.000251631
0.000447022
0.000504331
0.000636184
0.000550779
0.000581887
0.000411828
0.000609704
0.000471158
0.000367808
0.00040758
0.00046979
0.000274312
0.000600354
0.000295673
0.000651505
0.000576436
0.000536127
0.000602555
0.00064245
0.000297184
0.000784524
0.000483295
0.000695425
0.000546618
0.000598166
0.000423798
0.000369704
0.000631392
0.000636638
0.000432267
0.000779929
0.0010794
0.000364555
0.000735421
0.000364313
0.000387727
0.0002711
0.000898508
0.000562405
0.000592493
0.000472733
0.000628458
0.00069672
0.000549355
0.000611953
0.000196373
0.000435539
0.000621857
0.000366938
0.000373806
0.00033512
0.000516267
0.000435153
0.000763825
0.000665527
0.000947257
0.00078496
0.000581802
0.000587329
0.000470305
0.000339122
0.000579776
0.00058122
0.00112298
0.000778714
0.00046577
0.000526837
0.000891572
0.000779842
0.000721837
0.0013643
0.000555786
0.000526672
0.000826389
0.00150181
0.000650418
0.00061492
0.000491402
0.000640282
0.00118575
0.00111156
0.00123079
0.00136965
0.00109805
0.000870836
0.00131301
0.00142202
0.000274045
0.000817859
0.00121026
0.00108044
0.000602499
0.000923126
0.000533519
0.000890195
0.000849546
0.00103455
0.0014285
0.00125466
0.000677159
0.000441766
0.00050541
0.00065572
0.000611941
0.000342776
0.000687793
0.000445151
0.000252196
8.63628e-05
0.000172943
0.000213103
0.000292833
0.000860734
0.00105818
0.00100169
0.000417236
0.00041286
0.00105221
0.000325675
0.000432401
0.000615525
0.000238466
0.0008896
0.000300834
0.000654167
0.000482464
0.000513203
0.000464465
0.000197433
0.00051724
0.000685514
0.000593167
0.000721372
0.000344076
0.000521744
0.000448664
0.000420004
0.000465951
0.00050052
0.000544788
0.000373512
0.00065105
0.000364263
0.000579594
0.000688198
0.00041255
0.00035558
0.000265126
0.000318464
0.000303993
0.000201963
0.000393293
0.000282922
0.000242267
0.000596733
0.00030121
0.000202915
0.00017425
0.000414594
0.000376726
0.000374305
0.000687277
0.000504042
0.000285063
0.000421531
0.000319119
0.000355102
6.99123e-05
0.000176591
0.000231935
0.000216309
0.000383402
0.000108523
0.000134394
0.00022556
0.000266778
9.67392e-05
0.000127678
0.000390713
0.000443392
0.000136179
0.00041706
0.000645763
0.00052562
0.000494223
0.000157355
9.9794e-05
0.000146151
5.23586e-05
0.000175415
0.000146923
1.40191e-05
0.00010086
0.000104808
0.00128605
0.000721132
0.000761883
0.00043482
0.000514695
0.000465332
0.000373256
0.000333415
0.000290411
0.000249056
0.000293464
0.000294161
0.000375507
0.000222982
0.000247616
0.000228675
0.000247358
0.000353244
0.000310128
0.000309126
0.00033556
0.0004516
0.00038553
0.000321509
0.000511285
0.000495936
0.0002475
0.000340803
0.000370639
0.000276151
0.000370109
0.000348898
0.000303272
0.00018994
0.000332753
0.000282869
0.000366976
0.000441839
0.000320934
0.000224818
0.000224534
0.000250187
0.000257001
0.000258724
0.000361484
0.000417324
0.000402303
0.000409637
0.00030121
0.000327767
0.000342921
0.000370994
0.000403158
0.000305194
0.000402868
0.000344032
0.000412608
0.000425521
0.000257984
0.000428402
0.000449059
0.000546856
0.000739325
0.000460184
0.000552944
0.000517648
0.00036397
0.0004144
0.000218072
0.000237556
0.000321352
0.000408635
0.000384733
0.000796261
0.000481924
0.000638903
0.000593991
0.000492331
0.000316661
0.000508742
0.000213231
0.000456692
0.00051146
0.000481421
0.000362587
0.000528051
0.000419542
0.000411319
0.000187793
0.000619949
0.00099821
0.000681255
0.00050834
0.000426814
0.000776062
0.000720917
0.00042517
0.000358026
0.000346796
0.00099116
0.000868818
0.000396212
0.000634218
0.000589
0.00114335
0.000867905
0.000529886
0.000741165
0.000297833
0.000501051
0.000472781
0.00060466
0.000550957
0.000635002
0.000754708
0.000590763
0.000597213
0.000930372
0.000709037
0.000125745
0.000557103
0.000675008
0.00069595
0.000611922
0.000466897
0.000563883
0.00067786
0.000476053
0.000681758
0.000920974
0.00054761
0.000488936
0.000664468
0.000275621
0.000877145
0.000670976
0.000401055
0.00093925
0.000329688
0.00037606
0.00107026
0.00119346
0.000928202
0.000801951
0.00100319
0.000842965
0.000612931
0.000774178
0.000489372
0.000461843
0.00122697
0.000814291
0.000753414
0.000811349
0.000728075
0.000774763
0.00122885
0.00126411
0.00117115
0.000871899
0.000713317
0.000743693
0.000742762
0.00067923
0.000472898
0.000833399
0.00140474
0.000529726
0.000657631
0.00139135
0.000861592
0.000614405
0.00119525
0.00152
0.00144269
0.000820474
0.0004259
0.0003812
0.000857401
0.000632279
0.000740982
0.000710724
0.000458124
0.000522135
0.00020252
0.000166146
6.61142e-05
0.000268566
0.000158158
0.000435284
0.00102962
0.0010671
0.000721508
0.00060541
0.00049573
0.000310317
0.000419572
0.000795622
0.000520747
0.000661725
0.000970219
0.000408946
0.000769236
0.00049059
0.000709344
0.000351668
0.00031371
0.000464799
0.000451771
0.000487145
0.00048873
0.000732887
0.000417641
0.000393911
0.000400179
0.000445151
0.000767692
0.000256419
0.000495887
0.000394417
0.000460496
0.000331246
0.00079574
0.000566211
0.00048814
0.000274404
0.000301105
0.000351998
0.000235453
0.000242794
0.000423645
0.000446858
0.000525445
0.000350327
0.000579424
0.000585834
0.000185187
0.000304647
0.000353436
0.000521676
0.000283617
0.000503342
0.000378921
0.000250818
0.000688646
0.000122351
0.000242658
0.000143149
0.000212749
8.07372e-05
0.000209156
0.000375956
0.000259953
0.000217357
0.000158383
0.000281827
0.000280672
0.000185556
0.000217529
0.000328459
0.000548592
0.000416969
0.000223385
0.000586482
0.000608834
0.000582872
0.000166901
0.000104538
0.000101864
0.000223449
0.000179759
8.67459e-05
6.61916e-05
7.10005e-05
0.000188194
0.000109735
0.00120995
0.00123842
0.00106892
0.000634006
0.000561565
0.000517915
0.000443258
0.000489821
0.000429517
0.000466886
0.000518311
0.000461084
0.000461613
0.000298854
0.000296962
0.000435527
0.000366025
0.000354367
0.000289701
0.000269854
0.00019283
0.000333036
0.00034265
0.000309442
0.000339167
0.000346929
0.000422608
0.000411523
0.00019848
0.000301508
0.000268797
0.000297662
0.000424773
0.000366905
0.000371339
0.000305493
0.000247953
0.000305858
0.000226279
0.000256695
0.000195678
0.000248489
0.000220036
0.000304006
0.000233062
0.000406432
0.000446362
0.000355551
0.000243082
0.000335244
0.000352821
0.000330355
0.000267741
0.000361225
0.000336728
0.000391469
0.000445158
0.000431397
0.000378473
0.000402587
0.000373052
0.000425027
0.000319333
0.000374243
0.000516064
0.000486249
0.000503578
0.000279325
0.000336033
0.000462442
0.000372242
0.000609091
0.000485058
0.000396394
0.000767839
0.000537161
0.000416358
0.00076408
0.000323814
0.000216825
0.000353638
0.000321461
0.000795786
0.000501341
0.000457729
0.000497307
0.00057987
0.000300743
0.000664802
0.000484351
0.000359786
0.000491595
0.000410335
0.000934011
0.00067178
0.000891019
0.000387882
0.000299436
0.000608661
0.000445308
0.000569024
0.000622552
0.00023183
0.000571337
0.000894464
0.000584894
0.000470536
0.00080979
0.000653701
0.00054551
0.000607977
0.000767866
0.000341211
0.000487518
0.000883717
0.000303278
0.000989832
0.00133076
0.000742909
0.000375453
0.000464465
0.000535885
0.000527005
0.000598772
0.000812249
0.000285754
0.000723923
0.000306709
0.000901412
0.00112063
0.000524321
0.000698238
0.000573375
0.000216556
0.000665168
0.00104909
0.000655289
0.000627523
0.000538184
0.000363148
0.000543049
0.000570228
0.000727981
0.0007827
0.000918623
0.000792042
0.000693873
0.000422005
0.000486211
0.00081706
0.000948553
0.000711497
0.00115016
0.000832886
0.000519611
0.00116535
0.00150362
0.00112424
0.00134665
0.0010263
0.000727631
0.000838168
0.000769517
0.000856942
0.000889629
0.000781648
0.00102704
0.000555891
0.000570074
0.000693594
0.000515378
0.000655261
0.000700163
0.000862019
0.00131768
0.00123558
0.00101945
0.000465549
0.00069347