/*--------------------------------*- C++ -*----------------------------------*\
  =========                 |
  \\      /  F ield         | OpenFOAM: The Open Source CFD Toolbox
   \\    /   O peration     | Website:  https://openfoam.org
    \\  /    A nd           | Version:  7
     \\/     M anipulation  |
\*---------------------------------------------------------------------------*/
FoamFile
{
    version     2.0;
    format      ascii;
    class       volScalarField;
    location    "7";
    object      p;
}
// * * * * * * * * * * * * * * * * * * * * * * * * * * * * * * * * * * * * * //

dimensions      [0 2 -2 0 0 0 0];

internalField   nonuniform List<scalar> 
18870
(
-60.1228
-59.5496
-60.1158
-59.5967
-58.5089
-59.5797
-58.9486
-60.1118
-59.599
-59.3581
-57.2906
-58.584
-58.1104
-59.6123
-58.9747
-58.3885
-60.1118
-59.6056
-59.3576
-59.0449
-56.083
-57.4073
-57.384
-58.6635
-58.1545
-57.4887
-59.6563
-58.9983
-58.3909
-57.8747
-60.1166
-59.6168
-59.3557
-59.0532
-58.5934
-54.6897
-56.1469
-56.1742
-57.6408
-57.4044
-56.8445
-58.7435
-58.1623
-57.4881
-56.9044
-59.6991
-59.0266
-58.4082
-57.8821
-57.6301
-60.1272
-59.6321
-59.357
-59.0546
-58.5844
-58.1795
-53.1509
-54.68
-54.7098
-56.2604
-56.154
-55.5139
-57.782
-57.4375
-56.8154
-55.9176
-58.7688
-58.1759
-57.4683
-56.9034
-56.6727
-59.7388
-59.059
-58.4311
-57.8917
-57.594
-57.2159
-60.1411
-59.6516
-59.3652
-59.0582
-58.5878
-58.1685
-57.7325
-52.0308
-53.162
-53.0769
-54.6548
-54.644
-54.2825
-56.3831
-56.1878
-55.2885
-54.7506
-58.058
-57.4571
-56.7849
-55.8787
-55.2963
-58.8178
-58.1967
-57.4775
-56.8966
-56.6558
-56.1717
-59.7791
-59.0841
-58.4557
-57.9233
-57.5829
-57.2458
-56.8587
-60.1572
-59.674
-59.3758
-59.0623
-58.5939
-58.1732
-57.7329
-57.6137
-50.7607
-51.9595
-51.9037
-53.1546
-53.15
-52.4864
-54.6222
-54.6121
-54.1134
-53.2556
-56.5096
-56.1786
-55.2214
-54.705
-54.0477
-58.2033
-57.492
-56.754
-55.8743
-55.3007
-55.2269
-58.8866
-58.201
-57.4818
-56.8898
-56.5855
-56.1988
-55.7456
-59.8151
-59.1231
-58.4833
-57.9576
-57.6464
-57.2911
-56.8688
-56.7597
-60.1756
-59.6987
-59.38
-59.0683
-58.5927
-58.1804
-57.7429
-57.6735
-57.6817
-49.9597
-50.6889
-50.6886
-51.9587
-51.8593
-51.5071
-53.2635
-52.9723
-52.6467
-52.115
-54.6966
-54.4591
-53.9769
-53.0907
-52.5378
-56.5548
-56.1739
-55.2692
-54.735
-54.1065
-53.5522
-58.3017
-57.4684
-56.7255
-55.8847
-55.2847
-55.253
-54.8205
-58.9407
-58.2175
-57.4454
-56.8879
-56.5825
-56.2117
-55.7806
-55.5636
-59.8478
-59.1573
-58.5085
-57.9896
-57.6706
-57.3397
-56.9084
-56.8676
-56.531
-60.1921
-59.7281
-59.383
-59.0849
-58.5981
-58.1678
-57.7519
-57.7298
-57.731
-56.9256
-49.2003
-49.8991
-49.8784
-50.6652
-50.5894
-50.3798
-51.9934
-51.6999
-51.4298
-50.9526
-53.2183
-52.8372
-52.6065
-52.1253
-51.4909
-54.7898
-54.4469
-53.8616
-53.1243
-52.5437
-52.4399
-56.6895
-56.1447
-55.2499
-54.7557
-54.1265
-53.7018
-53.9035
-58.4252
-57.439
-56.6838
-55.8224
-55.2696
-55.1996
-54.7588
-54.9455
-58.9883
-58.2609
-57.4426
-56.858
-56.5612
-56.259
-55.92
-55.651
-55.2232
-59.8773
-59.1626
-58.5294
-58.0446
-57.6285
-57.379
-56.9813
-56.9375
-56.549
-55.8465
-60.2044
-59.7616
-59.3982
-59.1035
-58.6199
-58.1519
-57.7727
-57.7728
-57.7738
-56.9689
-56.0364
-48.5653
-49.1439
-49.1458
-49.8166
-49.7778
-49.703
-50.5505
-50.4366
-50.2752
-50.1455
-51.9224
-51.8273
-51.3278
-50.9642
-50.7595
-53.0921
-52.7824
-52.4524
-52.0364
-51.4157
-51.2396
-54.9044
-54.5026
-53.7469
-53.1105
-52.6104
-52.5015
-52.1967
-56.7915
-56.346
-55.1669
-54.6566
-54.1656
-53.7878
-53.8966
-53.7182
-58.4226
-57.3524
-56.6358
-55.7678
-55.283
-55.1678
-54.7394
-54.8572
-54.1668
-59.0509
-58.3177
-57.4276
-56.8539
-56.5895
-56.2996
-55.6685
-55.7581
-55.3087
-54.185
-59.913
-59.1705
-58.556
-58.1011
-57.6575
-57.4289
-57.0538
-56.9946
-56.5833
-55.9266
-55.0492
-60.2198
-59.8004
-59.428
-59.1284
-58.6431
-58.132
-57.8173
-57.8241
-57.8187
-57.0108
-56.0722
-55.2444
-48.0824
-48.4996
-48.5588
-49.0354
-49.0788
-49.0166
-49.7576
-49.67
-49.5852
-49.4858
-50.5182
-50.4367
-50.2677
-50.051
-50.0485
-51.7965
-51.7289
-51.3668
-50.9501
-50.4831
-50.2286
-53.0777
-52.7454
-52.3398
-51.9838
-51.5197
-51.4274
-51.0345
-54.9525
-54.6792
-53.8123
-53.1155
-52.6144
-52.5867
-52.3582
-51.9818
-56.8594
-55.8054
-55.0392
-54.6135
-54.1902
-53.7442
-53.8474
-53.6673
-53.1766
-58.4641
-57.2848
-56.5594
-55.7512
-55.2306
-55.1015
-54.6749
-54.8472
-54.1769
-53.3395
-59.0958
-58.3493
-57.4412
-56.8907
-56.6221
-56.3349
-55.713
-55.8517
-55.358
-54.3153
-53.567
-59.9502
-59.1986
-58.585
-58.1151
-57.6971
-57.4574
-57.111
-57.0686
-56.7005
-55.9989
-55.1231
-54.4053
-60.2407
-59.843
-59.4581
-59.1552
-58.6534
-58.109
-57.8758
-57.8833
-57.8694
-57.0646
-56.0956
-55.2769
-54.3449
-47.7996
-48.0522
-48.1517
-48.4418
-48.5089
-48.4347
-49.0728
-49.1334
-49.0284
-48.8982
-49.6507
-49.6733
-49.5904
-49.3781
-49.1998
-50.5043
-50.3722
-50.2861
-50.0265
-49.9921
-49.6276
-51.7398
-51.6045
-51.2443
-50.8999
-50.4819
-50.2943
-49.9691
-52.9896
-52.3004
-52.2759
-51.9273
-51.747
-51.1883
-51.1989
-50.7915
-55.0759
-54.7119
-53.8726
-53.1767
-52.7455
-52.3113
-52.312
-51.8712
-51.6247
-56.8732
-55.6663
-55.0241
-54.525
-54.096
-53.7179
-53.7576
-53.693
-53.1114
-52.2685
-58.4569
-57.2815
-56.4209
-55.7142
-55.3062
-55.0518
-54.6078
-54.7559
-54.2328
-53.3128
-52.6363
-59.1275
-58.3239
-57.4967
-56.9601
-56.5597
-56.3441
-55.8588
-55.96
-55.4141
-54.4083
-53.7651
-53.2308
-59.9833
-59.2256
-58.6218
-58.1574
-57.6708
-57.4557
-57.1633
-57.1657
-56.8003
-56.0795
-55.2137
-54.5139
-53.7107
-60.2755
-59.8881
-59.4871
-59.1794
-58.6577
-58.0879
-57.9254
-57.9493
-57.924
-57.1214
-56.13
-55.3308
-54.3791
-53.602
-47.5422
-47.7618
-47.7551
-48.0554
-48.0589
-48.0586
-48.4276
-48.4358
-48.4292
-48.3828
-49.0334
-49.0263
-48.989
-48.8305
-48.6376
-49.6787
-49.5601
-49.4335
-49.345
-49.2526
-49.0175
-50.5271
-50.2358
-50.2355
-49.9946
-49.8384
-49.5274
-49.3482
-51.6033
-51.4895
-51.2253
-50.9551
-50.7205
-50.357
-50.1521
-49.8024
-52.9303
-52.7727
-52.3182
-51.8033
-51.6591
-51.2868
-51.1963
-50.8512
-50.455
-55.0675
-54.2527
-53.7046
-53.1627
-52.7362
-52.2635
-52.3114
-51.9463
-51.5931
-50.8226
-56.8223
-55.8065
-54.8636
-54.2933
-54.0512
-53.6869
-53.6121
-53.6181
-53.0998
-52.0796
-51.6483
-58.4227
-57.2026
-56.2911
-55.6718
-55.3214
-55.0419
-54.5793
-54.7408
-54.1856
-53.1988
-52.6439
-52.0452
-59.1767
-58.3558
-57.5202
-57.0127
-56.5918
-56.3715
-55.9486
-56.0013
-55.4596
-54.5028
-53.8683
-53.2744
-52.7334
-60.0154
-59.2719
-58.6724
-58.2171
-57.727
-57.4921
-57.2279
-57.266
-56.8758
-56.1786
-55.3171
-54.6098
-53.7648
-52.768
-60.3071
-59.9247
-59.5215
-59.2025
-58.6657
-58.1076
-57.9643
-58.0212
-57.9808
-57.1789
-56.1635
-55.3752
-54.4179
-53.6481
-53.1261
-47.3499
-47.5257
-47.463
-47.7778
-47.7054
-47.7255
-47.9954
-48.0281
-47.9943
-47.9627
-48.5687
-48.3837
-48.3815
-48.3292
-48.1538
-49.0158
-48.9579
-48.8806
-48.7493
-48.6878
-48.4015
-49.6044
-49.513
-49.3755
-49.3302
-49.1955
-48.9986
-48.9204
-50.4956
-50.2432
-50.1158
-50.0333
-49.7622
-49.727
-49.3004
-49.134
-51.5668
-51.5184
-51.2187
-50.7623
-50.641
-50.4373
-50.1809
-50.009
-49.523
-53.0364
-52.8199
-52.2971
-51.829
-51.6805
-51.6123
-51.0807
-50.9515
-50.4994
-49.9332
-54.9885
-54.1794
-53.6502
-53.1008
-52.7267
-52.5776
-52.2505
-52.0371
-51.4913
-50.7923
-50.3552
-56.8448
-55.7667
-54.6907
-54.1679
-54.0896
-53.6671
-53.5178
-53.6178
-53.0433
-52.0946
-51.3888
-51.2625
-58.3235
-57.0442
-56.2533
-55.6288
-55.3206
-55.079
-54.6543
-54.7163
-54.2613
-53.4303
-52.6438
-52.2131
-51.6472
-59.1969
-58.3966
-57.5846
-57.0491
-56.6515
-56.3869
-56.0559
-56.0345
-55.5127
-54.6371
-54.0052
-53.4292
-52.802
-51.8533
-60.0464
-59.3265
-58.7423
-58.2809
-57.8078
-57.5346
-57.2909
-57.3871
-56.9575
-56.2847
-55.4363
-54.6778
-53.8415
-52.8109
-52.0387
-60.3274
-59.9678
-59.566
-59.2223
-58.677
-58.154
-58.0022
-58.0977
-58.0427
-57.2362
-56.1969
-55.4025
-54.4881
-53.7171
-53.1401
-52.4858
-47.2408
-47.3099
-47.3053
-47.4769
-47.5147
-47.4715
-47.7252
-47.7458
-47.6741
-47.6653
-48.1087
-48.0193
-47.9895
-47.8559
-47.8588
-48.4675
-48.5264
-48.3355
-48.2699
-48.2855
-48.0359
-48.9607
-48.9315
-48.8825
-48.6772
-48.6099
-48.4563
-48.3584
-49.7234
-49.5698
-49.3604
-49.1222
-49.2101
-49.0118
-48.766
-48.6256
-50.4365
-50.4092
-50.078
-50.0723
-49.9269
-49.6922
-49.5232
-49.2191
-48.8088
-51.5598
-51.4698
-51.207
-50.8833
-50.563
-50.5542
-50.2544
-50.0017
-49.5751
-49.1829
-53.1151
-52.6281
-52.1744
-51.9149
-51.8236
-51.6774
-51.0931
-51.0586
-50.5036
-49.9795
-49.4912
-54.8721
-54.2418
-53.5838
-53.0948
-52.7619
-52.5953
-52.2668
-52.1576
-51.5518
-50.7465
-50.3452
-50.364
-56.7797
-55.4912
-54.5944
-54.0438
-54.0648
-53.6836
-53.4964
-53.5772
-53.0938
-52.1724
-51.4608
-51.2263
-50.5905
-58.2203
-56.9133
-56.1735
-55.6184
-55.3784
-55.1553
-54.7107
-54.8406
-54.2575
-53.563
-52.7378
-52.27
-51.6993
-51.1701
-59.2424
-58.4014
-57.6637
-57.1292
-56.6889
-56.4292
-56.2142
-56.0095
-55.5727
-54.7926
-54.1504
-53.582
-52.8943
-51.9014
-51.7866
-60.075
-59.3828
-58.8273
-58.3569
-57.8729
-57.5802
-57.3486
-57.4884
-57.0696
-56.388
-55.5614
-54.7563
-53.914
-52.8339
-52.0967
-52.0756
-60.3599
-60.0219
-59.6128
-59.2481
-58.6894
-58.2054
-58.0435
-58.1742
-58.1058
-57.2967
-56.2411
-55.4191
-54.5428
-53.7935
-53.1416
-52.5154
-52.3184
-47.1365
-47.2152
-47.1889
-47.2672
-47.2848
-47.3042
-47.4822
-47.4816
-47.4858
-47.4432
-47.6885
-47.7119
-47.6886
-47.6337
-47.5289
-48.056
-48.0534
-47.9791
-47.838
-47.9011
-47.773
-48.4286
-48.3742
-48.458
-48.2324
-48.328
-48.0383
-47.9143
-49.0214
-48.9722
-48.8326
-48.6687
-48.6096
-48.4257
-48.3515
-48.1978
-49.7262
-49.583
-49.3433
-49.3768
-49.0997
-49.08
-48.8401
-48.5219
-48.4398
-50.4823
-50.2439
-50.1649
-49.9146
-49.867
-49.7143
-49.408
-49.2954
-48.8066
-48.5679
-51.5158
-51.375
-51.1915
-50.9817
-50.7248
-50.5762
-50.3469
-50.1113
-49.5576
-49.2848
-48.9532
-53.1066
-52.6546
-52.1931
-51.9433
-52.0019
-51.4861
-51.3277
-51.0496
-50.5095
-49.8016
-49.65
-49.3385
-54.8052
-54.0792
-53.4272
-52.93
-52.741
-52.6328
-52.3597
-52.2791
-51.5779
-50.8094
-50.4136
-50.4664
-49.7519
-56.7922
-55.401
-54.444
-54.0718
-54.1134
-53.7435
-53.569
-53.6136
-53.1952
-52.1984
-51.7164
-51.2764
-50.7537
-50.4101
-58.1536
-56.8602
-56.0352
-55.6965
-55.4734
-55.2219
-54.8624
-54.9454
-54.3153
-53.5833
-52.8691
-52.3816
-51.7666
-51.2899
-51.2752
-59.2925
-58.4143
-57.7294
-57.2082
-56.7713
-56.4835
-56.3723
-56.12
-55.6364
-54.9712
-54.2739
-53.7293
-53.0026
-51.9428
-51.8482
-51.8458
-60.0898
-59.4631
-58.9204
-58.4418
-57.9201
-57.6442
-57.4368
-57.5943
-57.1878
-56.528
-55.6722
-54.8288
-53.9812
-52.8664
-52.1851
-52.1522
-52.1735
-60.3954
-60.0695
-59.6593
-59.2937
-58.7016
-58.2348
-58.0908
-58.2453
-58.1704
-57.3673
-56.2861
-55.4307
-54.5833
-53.8238
-53.1404
-52.5397
-52.3537
-52.3791
-47.0618
-47.148
-47.1754
-47.1484
-47.1597
-47.1136
-47.271
-47.2515
-47.2759
-47.2134
-47.4608
-47.4191
-47.4494
-47.416
-47.3766
-47.6747
-47.6834
-47.6655
-47.59
-47.5574
-47.4429
-48.0362
-48.0525
-48.0074
-47.9326
-47.8845
-47.7374
-47.5677
-48.4547
-48.3679
-48.3889
-48.2697
-48.2102
-48.0169
-47.9334
-47.7866
-48.9202
-48.9249
-48.8623
-48.6916
-48.6772
-48.6775
-48.2778
-48.2073
-47.9714
-49.6218
-49.5077
-49.3562
-49.2946
-49.1438
-49.0333
-48.857
-48.6931
-48.4098
-48.2488
-50.4838
-50.2707
-50.1446
-49.9858
-49.7985
-49.8588
-49.5359
-49.318
-48.9857
-48.6103
-48.5405
-51.5732
-51.1942
-51.1847
-50.9508
-50.9478
-50.6281
-50.3633
-50.0654
-49.5566
-49.2778
-49.0191
-48.7004
-53.0748
-52.7192
-52.2362
-52.1215
-51.7341
-51.5667
-51.4054
-51.0648
-50.5794
-49.8156
-49.7058
-49.558
-49.2188
-54.7845
-54.0246
-53.3017
-52.9712
-52.7421
-52.7122
-52.4234
-52.3401
-51.6412
-50.8999
-50.5659
-50.3921
-49.9799
-49.8489
-56.8431
-55.3325
-54.3767
-54.1391
-54.1043
-53.982
-53.7435
-53.6993
-53.2793
-52.291
-51.8847
-51.3796
-50.8689
-50.6151
-50.9135
-58.0824
-56.7429
-56.0513
-55.8106
-55.5582
-55.3511
-55.094
-54.9819
-54.431
-53.7649
-53.0263
-52.5488
-51.8772
-51.4083
-51.4623
-51.4784
-59.3528
-58.4486
-57.838
-57.3054
-56.8694
-56.5534
-56.5014
-56.217
-55.7968
-55.1322
-54.4108
-53.8431
-53.0455
-51.9955
-51.9329
-51.9607
-52.0818
-60.1289
-59.5656
-59.044
-58.5353
-58.0058
-57.7236
-57.556
-57.6975
-57.2926
-56.6364
-55.7754
-54.9168
-54.0606
-52.884
-52.3131
-52.2055
-52.2442
-52.2828
-60.4262
-60.1168
-59.714
-59.3444
-58.7171
-58.2475
-58.1408
-58.3173
-58.2361
-57.4404
-56.3239
-55.4553
-54.6293
-53.829
-53.1339
-52.5622
-52.3948
-52.4091
-52.4453
-47.0098
-46.9775
-47.0284
-47.1149
-47.0609
-47.0206
-47.1319
-47.1343
-47.0795
-47.0737
-47.287
-47.2503
-47.2179
-47.23
-47.1292
-47.5111
-47.5027
-47.4411
-47.4044
-47.3793
-47.2504
-47.6471
-47.7387
-47.6684
-47.5965
-47.5508
-47.4344
-47.3932
-48.0145
-48.0436
-48.0085
-47.9328
-47.8612
-47.7045
-47.533
-47.5166
-48.4977
-48.3808
-48.4029
-48.247
-48.1926
-48.1138
-47.9341
-47.8256
-47.6515
-49.0544
-48.9592
-48.788
-48.6779
-48.5909
-48.4691
-48.3377
-48.167
-48.0364
-47.9571
-49.677
-49.5429
-49.4425
-49.0836
-49.2369
-49.0826
-48.8644
-48.6371
-48.3984
-48.2494
-48.3373
-50.3882
-50.2845
-50.2939
-50.1418
-49.7327
-49.8562
-49.6556
-49.4022
-49.0386
-48.6817
-48.5595
-48.3613
-51.664
-51.2002
-51.1054
-50.8891
-51.0384
-50.8696
-50.4246
-50.2133
-49.6526
-49.1546
-49.0787
-48.903
-48.8246
-53.0218
-52.8742
-52.0886
-52.3568
-51.6779
-51.7434
-51.3777
-51.197
-50.4521
-50.0071
-49.5889
-49.6204
-49.3665
-49.4186
-54.8154
-53.7017
-53.2135
-53.0202
-52.7944
-52.6991
-52.5762
-52.5175
-51.6677
-50.8266
-50.7868
-50.4728
-50.1395
-49.9359
-50.4767
-56.6977
-55.197
-54.3766
-54.2352
-54.2657
-54.1428
-53.7859
-53.7368
-53.3163
-52.4837
-51.9636
-51.5345
-51.0061
-50.8918
-51.1399
-51.172
-57.961
-56.6659
-56.13
-55.9686
-55.7074
-55.5494
-55.3229
-55.3338
-54.5851
-53.989
-53.2116
-52.7261
-51.9629
-51.5597
-51.5929
-51.5977
-51.9799
-59.3668
-58.473
-57.9771
-57.4479
-56.9908
-56.6565
-56.6265
-56.373
-55.9455
-55.3013
-54.5338
-53.9663
-53.0782
-52.0814
-52.0509
-52.0552
-52.177
-52.2897
-60.1966
-59.64
-59.2195
-58.6451
-58.0991
-57.817
-57.6436
-57.7721
-57.3878
-56.6797
-55.8912
-54.9965
-54.1435
-52.92
-52.4658
-52.2557
-52.3247
-52.3449
-52.4772
-60.4567
-60.1568
-59.7654
-59.389
-58.7376
-58.2719
-58.1958
-58.38
-58.2949
-57.5076
-56.3674
-55.4931
-54.6776
-53.8141
-53.1228
-52.5817
-52.4367
-52.4352
-52.4767
-52.3863
-46.9616
-46.9224
-46.8798
-46.9281
-46.9856
-46.8991
-47.0961
-47.074
-46.9775
-46.9635
-47.1843
-47.1968
-47.1196
-47.0293
-46.9638
-47.1957
-47.2643
-47.1975
-47.1988
-47.1396
-47.0725
-47.5692
-47.4458
-47.4686
-47.3971
-47.3709
-47.2624
-47.1369
-47.7064
-47.6737
-47.7165
-47.5999
-47.5051
-47.4695
-47.3562
-47.2542
-48.0966
-48.0685
-47.995
-47.9231
-47.8595
-47.6474
-47.5992
-47.4535
-47.3359
-48.4887
-48.4637
-48.4065
-48.3058
-48.1622
-48.1135
-47.9623
-47.9031
-47.592
-47.5869
-49.1033
-49.0128
-48.8257
-48.7198
-48.6659
-48.571
-48.3424
-48.2232
-48.0411
-47.9175
-47.9935
-49.5893
-49.5412
-49.3723
-49.4168
-49.2394
-49.1763
-48.9944
-48.7928
-48.4723
-48.3128
-48.1898
-48.1681
-50.5057
-50.305
-50.2327
-50.0248
-50.1821
-49.8344
-49.6972
-49.4063
-49.0169
-48.77
-48.5793
-48.4241
-48.5736
-51.5619
-51.1524
-51.0061
-50.9581
-50.8625
-50.9981
-50.45
-50.2569
-49.7189
-49.2222
-49.1368
-49.0099
-48.9517
-49.2828
-53.0986
-52.9332
-52.1956
-52.282
-51.8321
-51.7409
-51.5891
-51.198
-50.5512
-50.0952
-49.8033
-49.7553
-49.5184
-49.7673
-50.2398
-54.7705
-53.5888
-53.0653
-52.9939
-53.287
-52.9034
-52.7827
-52.4882
-51.913
-51.3442
-50.9779
-50.5987
-50.2109
-50.2591
-50.7691
-51.2106
-56.5296
-55.1551
-54.4144
-54.4225
-54.4079
-54.1878
-54.0656
-53.803
-53.3297
-52.6254
-52.1412
-51.7597
-51.2104
-51.0722
-51.3224
-51.3923
-51.7016
-57.9255
-56.6636
-56.2185
-56.1231
-55.8806
-55.7489
-55.5018
-55.3337
-54.7921
-54.1555
-53.4115
-52.8617
-52.0286
-51.7911
-51.7365
-51.802
-52.1152
-52.2934
-59.3793
-58.562
-58.1377
-57.5972
-57.1024
-56.741
-56.7771
-56.5861
-56.0874
-55.5369
-54.6893
-54.0913
-53.1263
-52.1774
-52.1658
-52.1534
-52.2776
-52.3881
-52.6005
-60.2681
-59.7657
-59.4296
-58.7843
-58.1797
-57.8988
-57.7258
-57.8747
-57.472
-56.7663
-56.0043
-55.1217
-54.2257
-52.9903
-52.6022
-52.3218
-52.4034
-52.4109
-52.5338
-52.5545
-60.4959
-60.1972
-59.8169
-59.4324
-58.7715
-58.3151
-58.252
-58.4294
-58.3441
-57.5665
-56.4139
-55.5292
-54.7246
-53.7946
-53.1038
-52.602
-52.4907
-52.4591
-52.5127
-52.4199
-52.4162
-46.9045
-46.9244
-46.8829
-46.9374
-46.9186
-46.8234
-47.0127
-47.0018
-46.9398
-46.8637
-47.0852
-47.0609
-47.0052
-46.9321
-46.8948
-47.1555
-47.1166
-47.0746
-47.031
-46.9798
-46.8774
-47.3563
-47.2578
-47.2215
-47.1629
-47.1384
-47.0605
-46.9287
-47.5147
-47.4874
-47.4473
-47.4106
-47.3279
-47.2389
-47.1666
-47.0677
-47.765
-47.6894
-47.6499
-47.6621
-47.5283
-47.4474
-47.3729
-47.2507
-47.1119
-48.1389
-48.0774
-48.0205
-47.967
-47.8948
-47.7934
-47.7102
-47.4544
-47.3
-47.2893
-48.4764
-48.4829
-48.4164
-48.3207
-48.1161
-47.9539
-47.915
-47.8454
-47.6995
-47.6247
-47.5168
-49.0914
-48.9376
-48.8082
-48.7404
-48.7453
-48.6536
-48.4565
-48.2154
-47.9357
-47.953
-47.8656
-48.0387
-49.549
-49.4672
-49.3989
-49.5914
-49.3377
-49.2358
-48.9999
-48.8837
-48.6075
-48.2986
-48.4643
-48.0165
-48.1935
-50.5067
-50.3833
-50.47
-50.0629
-50.1929
-49.9206
-49.8046
-49.4817
-48.978
-48.8298
-48.7061
-48.609
-48.6438
-48.9302
-51.7254
-51.3793
-50.9939
-51.1305
-50.9825
-50.8691
-50.5912
-50.259
-49.7401
-49.4163
-49.2785
-49.1729
-49.1323
-49.3791
-49.676
-53.1095
-52.7913
-52.0921
-51.9144
-52.2839
-52.0013
-51.8077
-51.3203
-50.7482
-49.9628
-50.1047
-49.8383
-49.6398
-49.7645
-50.5421
-50.953
-54.7639
-53.5465
-53.0745
-53.1368
-53.4999
-53.0808
-52.9999
-52.5754
-52.0596
-51.5569
-51.1521
-50.7556
-50.3038
-50.6558
-50.994
-51.3548
-51.5643
-56.4181
-55.0526
-54.4799
-54.6182
-54.6329
-54.4377
-54.2958
-54.0052
-53.4164
-52.9091
-52.3714
-51.8517
-51.3861
-51.2376
-51.5318
-51.662
-51.8596
-52.2668
-57.9217
-56.6969
-56.3497
-56.2566
-56.0208
-55.9675
-55.7313
-55.7532
-55.0175
-54.3931
-53.6231
-53.022
-52.1801
-51.9137
-51.918
-51.9811
-52.2467
-52.4963
-52.6815
-59.3932
-58.6915
-58.3199
-57.7928
-57.2121
-56.827
-56.9406
-56.8418
-56.2899
-55.7243
-54.815
-54.1943
-53.2589
-52.298
-52.2836
-52.2722
-52.3685
-52.4902
-52.686
-52.7785
-60.3463
-59.9572
-59.6245
-58.9434
-58.2793
-57.9819
-57.798
-57.9683
-57.5747
-56.8838
-56.1173
-55.2215
-54.2974
-53.0796
-52.71
-52.395
-52.4635
-52.4763
-52.5919
-52.6069
-52.657
-60.543
-60.2408
-59.8676
-59.4738
-58.8234
-58.3775
-58.3022
-58.4781
-58.3772
-57.6183
-56.4609
-55.5784
-54.7699
-53.7793
-53.0783
-52.635
-52.5424
-52.4841
-52.5428
-52.4565
-52.4423
-52.5901
-46.8272
-46.8898
-46.8325
-46.9331
-46.8534
-46.8163
-46.9559
-46.936
-46.8574
-46.7734
-46.9809
-46.997
-46.9533
-46.8482
-46.742
-47.1577
-47.0807
-46.9801
-46.8941
-46.8655
-46.7596
-47.0963
-47.1293
-47.0785
-47.0331
-46.9503
-46.9002
-46.7854
-47.36
-47.3163
-47.2255
-47.1961
-47.1275
-47.043
-46.9805
-46.8744
-47.5229
-47.456
-47.4451
-47.4033
-47.3262
-47.2661
-47.1584
-47.0506
-46.8818
-47.7531
-47.7602
-47.7016
-47.6277
-47.5735
-47.5344
-47.2919
-47.2552
-47.1033
-47.0231
-48.1137
-48.0051
-48.0055
-47.9992
-47.8352
-47.8002
-47.5378
-47.5971
-47.3815
-47.2692
-47.2089
-48.5191
-48.5023
-48.4523
-48.3156
-48.2962
-48.1091
-47.9685
-47.7229
-47.7326
-47.4689
-47.7796
-47.7258
-49.1174
-48.898
-48.9512
-48.7719
-48.7311
-48.5174
-48.5808
-48.3877
-47.9947
-48.0459
-48.0173
-47.7344
-47.9211
-49.6949
-49.4932
-49.5778
-49.2316
-49.3557
-49.2552
-49.1068
-48.8649
-48.5396
-48.2924
-48.3958
-48.1439
-48.4604
-48.5904
-50.5646
-50.3853
-50.0827
-50.3235
-50.2008
-50.011
-49.7526
-49.5639
-49.1423
-49.0245
-48.8763
-48.727
-48.8352
-49.047
-49.3545
-51.5412
-51.471
-51.1294
-51.1438
-51.0886
-51.0739
-50.8011
-50.3904
-49.8757
-49.4831
-49.4999
-49.3303
-49.2043
-49.5786
-49.8982
-50.0813
-53.079
-52.378
-52.6522
-52.0332
-52.6345
-51.8978
-52.0047
-51.5639
-50.7831
-50.5209
-50.2358
-49.9965
-49.9435
-50.3027
-50.8038
-51.0879
-51.2845
-54.717
-53.4793
-53.2329
-53.2911
-53.2756
-53.3801
-53.2215
-52.7922
-52.0762
-51.5281
-51.2587
-50.9692
-50.6234
-50.6039
-51.2224
-51.64
-51.6479
-51.9446
-56.3645
-54.8913
-54.6311
-54.9044
-54.9681
-54.7244
-54.4501
-54.0902
-53.6305
-53.0443
-52.5392
-51.9518
-51.5631
-51.5083
-51.7618
-51.9356
-52.1036
-52.509
-52.73
-57.9718
-56.8081
-56.5475
-56.449
-56.1558
-56.2111
-55.9747
-56.0058
-55.1327
-54.5534
-53.8371
-53.1274
-52.3202
-51.9893
-52.0831
-52.1663
-52.3967
-52.7076
-52.8214
-53.0674
-59.4456
-58.8253
-58.4878
-58.0552
-57.3443
-56.9297
-57.0694
-57.0848
-56.5351
-55.8689
-54.9191
-54.312
-53.3836
-52.3693
-52.4119
-52.3995
-52.4621
-52.6035
-52.781
-52.8652
-53.0637
-60.4221
-60.0711
-59.7902
-59.1018
-58.3912
-58.0602
-57.8813
-58.09
-57.6856
-56.9894
-56.221
-55.2296
-54.3543
-53.1355
-52.7863
-52.4726
-52.5217
-52.5436
-52.652
-52.6591
-52.6955
-52.8552
-60.5815
-60.2882
-59.9132
-59.5131
-58.8797
-58.4378
-58.3581
-58.5403
-58.4104
-57.6565
-56.489
-55.6356
-54.812
-53.7576
-53.0634
-52.674
-52.5832
-52.504
-52.5712
-52.4756
-52.4765
-52.6009
-52.5474
-46.7264
-46.7829
-46.7828
-46.8412
-46.859
-46.8205
-46.9048
-46.8752
-46.8245
-46.6615
-46.8828
-46.9237
-46.8381
-46.7493
-46.6955
-46.9751
-46.9686
-46.9333
-46.8151
-46.7375
-46.6219
-47.112
-47.0418
-46.9799
-46.9243
-46.8523
-46.7295
-46.6607
-47.1942
-47.1453
-47.0818
-47.0682
-46.9586
-46.8397
-46.7167
-46.7191
-47.322
-47.3549
-47.2685
-47.216
-47.1443
-47.0784
-46.9739
-46.8547
-46.7857
-47.5057
-47.4305
-47.4292
-47.435
-47.3146
-47.2901
-47.1521
-47.0043
-46.9325
-46.8163
-47.7567
-47.7667
-47.7076
-47.5791
-47.5748
-47.5057
-47.3784
-47.2703
-47.096
-47.0902
-46.9691
-48.1864
-48.0636
-48.0426
-47.9513
-47.8423
-47.713
-47.6377
-47.4388
-47.4051
-47.1461
-47.4362
-47.3984
-48.5109
-48.486
-48.5111
-48.3979
-48.2084
-48.2132
-48.0512
-47.9244
-47.6003
-47.7944
-47.5046
-47.7298
-47.8328
-49.0029
-49.002
-48.7129
-48.7546
-48.7982
-48.5873
-48.4408
-48.4565
-48.1102
-47.8616
-48.2701
-47.8069
-48.1554
-48.295
-49.6241
-49.5666
-49.6256
-49.3814
-49.3599
-49.2937
-49.2149
-49.0187
-48.7939
-48.6405
-48.4763
-48.2756
-48.2633
-48.6945
-48.8995
-50.7725
-50.4373
-50.248
-50.2514
-50.1229
-50.1612
-49.9704
-49.5657
-49.2427
-48.7608
-49.0777
-48.8908
-49.0891
-49.2249
-49.3923
-49.7727
-51.601
-51.4819
-51.0345
-51.3147
-51.256
-51.2379
-50.9317
-50.5058
-49.99
-49.7123
-49.609
-49.54
-49.4064
-49.8124
-50.141
-50.31
-50.8402
-53.2454
-52.4201
-52.9623
-51.8696
-52.2854
-52.353
-52.1946
-51.6746
-50.9087
-50.7162
-50.312
-50.1851
-50.1439
-50.6034
-50.9844
-51.2805
-51.5172
-51.841
-54.5787
-53.42
-53.4079
-53.4617
-53.4379
-53.6911
-53.4358
-52.8781
-52.2538
-51.688
-51.4487
-51.1063
-50.914
-51.0126
-51.5478
-51.6065
-51.8392
-52.1974
-52.7016
-56.1051
-54.972
-54.8413
-55.1956
-55.1774
-54.9327
-54.6841
-54.3486
-53.8971
-53.2894
-52.7039
-52.1
-51.8113
-51.7727
-51.9685
-52.1355
-52.3302
-52.6744
-52.9313
-53.0078
-58.0223
-56.9735
-56.7906
-56.6991
-56.3031
-56.3284
-56.2274
-55.8588
-55.3384
-54.7118
-54.0163
-53.2635
-52.4646
-52.1415
-52.2659
-52.3649
-52.5565
-52.8797
-53.0007
-53.1577
-53.1829
-59.6095
-59.0572
-58.6592
-58.3597
-57.5021
-57.1287
-57.2116
-57.1785
-56.7616
-56.0215
-55.0345
-54.3769
-53.4297
-52.4819
-52.5598
-52.5246
-52.562
-52.7308
-52.8734
-52.947
-53.0934
-53.0626
-60.5091
-60.1746
-59.953
-59.2805
-58.5092
-58.141
-57.9626
-58.2214
-57.7998
-57.0931
-56.312
-55.3374
-54.4085
-53.2126
-52.831
-52.5713
-52.5816
-52.6153
-52.7049
-52.7122
-52.7137
-52.8563
-52.8922
-60.6191
-60.336
-59.9566
-59.5566
-58.9408
-58.4844
-58.4329
-58.6323
-58.4554
-57.6982
-56.5407
-55.6912
-54.8497
-53.7326
-53.0806
-52.7116
-52.6205
-52.5236
-52.5987
-52.4926
-52.4998
-52.6128
-52.5234
-52.5946
-46.5755
-46.7495
-46.736
-46.8212
-46.8
-46.6787
-46.8198
-46.8173
-46.7748
-46.6838
-46.8544
-46.8247
-46.7644
-46.6356
-46.5033
-46.8793
-46.8992
-46.8749
-46.7415
-46.6648
-46.5097
-47.0468
-46.9547
-46.9221
-46.8549
-46.6638
-46.5858
-46.5467
-47.1079
-47.0446
-46.9966
-46.9663
-46.8777
-46.7549
-46.6182
-46.5844
-47.1982
-47.2192
-47.0801
-47.0466
-46.9572
-46.8145
-46.7815
-46.6951
-46.6426
-47.3243
-47.3274
-47.2874
-47.1982
-47.1407
-47.0958
-46.9805
-46.8231
-46.7548
-46.6845
-47.5421
-47.5321
-47.4319
-47.3941
-47.3296
-47.2906
-47.1511
-47.1005
-46.9233
-46.7971
-46.8097
-47.7783
-47.7798
-47.6888
-47.6733
-47.5707
-47.5171
-47.4104
-47.221
-47.1222
-46.9553
-47.0419
-47.0198
-48.0948
-48.0548
-48.1099
-47.9736
-47.887
-47.8036
-47.5874
-47.5742
-47.4564
-47.3014
-47.3533
-47.4825
-47.6318
-48.4949
-48.524
-48.4801
-48.4367
-48.2729
-48.0959
-48.1074
-48.0018
-47.7258
-47.5895
-47.9499
-47.7364
-47.821
-47.9767
-49.2241
-49.0288
-49.029
-48.8848
-48.8617
-48.7404
-48.5532
-48.4086
-48.2639
-47.9311
-48.074
-48.0115
-48.122
-48.3815
-48.4525
-49.8449
-49.5721
-49.4654
-49.5518
-49.6061
-49.4591
-49.1985
-48.9666
-48.6089
-48.9068
-48.6486
-48.6795
-48.7578
-48.9234
-48.6772
-49.0579
-50.4721
-50.5795
-50.3398
-50.3449
-50.4322
-50.3054
-50.0247
-49.7081
-49.313
-49.0058
-49.1788
-49.1863
-49.1316
-49.4335
-49.5421
-49.5791
-50.1561
-51.7404
-51.5314
-50.9682
-51.314
-51.3799
-51.247
-51.1865
-50.539
-50.0693
-49.8726
-49.8606
-49.6777
-49.5557
-50.1934
-50.5589
-50.656
-50.7835
-51.4324
-53.2653
-52.4067
-52.5126
-52.6865
-52.286
-52.6982
-52.3071
-51.8988
-51.1184
-50.7816
-50.5402
-50.4026
-50.3357
-50.5523
-51.3521
-51.5089
-51.672
-51.8323
-52.3354
-54.577
-53.5283
-53.4438
-54.2178
-53.8646
-53.9256
-53.6131
-53.0039
-52.5078
-51.9642
-51.5902
-51.2642
-51.1747
-51.3912
-51.8681
-52.0553
-52.2561
-52.5092
-52.8292
-52.8301
-56.1065
-55.1943
-55.0944
-55.3229
-55.4372
-55.2723
-54.9625
-54.6658
-54.076
-53.5755
-52.9335
-52.2643
-52.0272
-52.0825
-52.0674
-52.4334
-52.6043
-52.8603
-53.1049
-53.1589
-53.3163
-58.1642
-57.241
-57.0827
-56.9611
-56.5232
-56.3514
-56.3509
-55.9756
-55.5898
-54.8593
-54.1447
-53.4495
-52.732
-52.282
-52.4594
-52.5635
-52.7337
-53.024
-53.1411
-53.2502
-53.2749
-53.398
-59.7785
-59.286
-58.8571
-58.6476
-57.6767
-57.3082
-57.372
-57.4456
-57.0142
-56.1944
-55.1685
-54.4779
-53.4975
-52.6407
-52.7236
-52.6272
-52.6833
-52.8468
-52.9674
-53.0264
-53.1621
-53.0833
-53.3597
-60.5856
-60.3025
-60.0891
-59.4673
-58.6439
-58.2372
-58.0395
-58.3394
-57.9112
-57.1706
-56.3908
-55.4448
-54.4509
-53.3275
-52.9028
-52.68
-52.6455
-52.6759
-52.753
-52.7545
-52.7352
-52.8645
-52.887
-52.9963
-60.6672
-60.3789
-60.0029
-59.5896
-59.0122
-58.5329
-58.5071
-58.7119
-58.5215
-57.7449
-56.5885
-55.7365
-54.8829
-53.7131
-53.1062
-52.7499
-52.6555
-52.5479
-52.6209
-52.5061
-52.5177
-52.6185
-52.5075
-52.5764
-52.8906
-46.5408
-46.4987
-46.6878
-46.7198
-46.595
-46.7559
-46.734
-46.6561
-46.494
-46.8299
-46.8034
-46.7655
-46.64
-46.41
-46.8447
-46.8125
-46.7734
-46.6377
-46.4921
-46.3769
-46.9056
-46.8966
-46.8974
-46.782
-46.6518
-46.4924
-46.4407
-46.9508
-46.9469
-46.9463
-46.8815
-46.7085
-46.6051
-46.5639
-46.4544
-47.1291
-47.0165
-46.9751
-46.9439
-46.8721
-46.7088
-46.5776
-46.5593
-46.5136
-47.2236
-47.1812
-47.1365
-47.0323
-46.9746
-46.8598
-46.8203
-46.6751
-46.6236
-46.5742
-47.336
-47.3354
-47.2724
-47.2709
-47.1878
-47.0849
-46.97
-46.7346
-46.769
-46.6341
-46.6095
-47.5447
-47.533
-47.4002
-47.4123
-47.3361
-47.2847
-47.1589
-47.1701
-46.9613
-46.7779
-46.7858
-46.7198
-47.8168
-47.747
-47.7341
-47.7076
-47.5428
-47.6061
-47.4158
-47.1073
-47.1895
-46.9027
-47.0697
-47.0891
-47.3051
-48.046
-48.131
-48.1496
-47.9409
-47.9543
-47.6212
-47.598
-47.6725
-47.4169
-47.453
-47.4929
-47.4993
-47.6118
-47.926
-48.488
-48.5468
-48.5095
-48.5454
-48.5012
-48.1754
-48.1082
-48.073
-47.7248
-47.4219
-47.7797
-47.789
-47.8823
-48.1821
-48.3425
-48.9159
-48.9347
-48.9856
-48.9923
-48.8731
-48.776
-48.7121
-48.5179
-48.4585
-48.5742
-48.2452
-48.3063
-48.0952
-48.3953
-48.4076
-48.6474
-49.8392
-49.7058
-49.4576
-49.6097
-49.4723
-49.5865
-49.3766
-49.0384
-48.7098
-48.4983
-48.7221
-48.6989
-48.8961
-49.0552
-49.1436
-49.0364
-49.5708
-50.6205
-50.5134
-50.4334
-50.48
-50.6442
-50.4343
-50.2018
-49.7581
-49.4348
-49.2974
-49.2897
-49.3301
-49.3302
-49.5979
-49.9438
-49.8447
-50.4993
-51.3895
-51.7961
-51.4867
-51.4861
-51.4721
-51.5748
-51.4737
-51.1504
-50.8688
-50.1438
-50.0437
-50.039
-49.9075
-49.9537
-50.0465
-50.8013
-51.008
-51.2247
-51.521
-52.0506
-53.2746
-52.8755
-52.3653
-52.927
-52.9692
-52.9103
-52.5893
-52.0119
-51.3711
-50.9512
-50.7717
-50.6332
-50.7698
-50.9487
-51.5483
-51.8457
-51.8906
-52.2034
-52.4393
-52.8074
-54.599
-53.6486
-53.7848
-54.6551
-54.2091
-54.2393
-53.8355
-53.1629
-52.6196
-52.1734
-51.7117
-51.4785
-51.4799
-51.7185
-52.3229
-52.5552
-52.5464
-52.7553
-53.0347
-52.849
-53.4274
-56.2396
-55.2731
-55.6914
-55.717
-55.6933
-55.5095
-55.0557
-54.8806
-54.305
-53.7514
-53.0621
-52.444
-52.2055
-52.4095
-52.4886
-52.6918
-52.9198
-53.1385
-53.2565
-53.3492
-53.3462
-53.8016
-58.3156
-57.5905
-57.365
-57.2419
-56.8161
-56.5106
-56.5654
-56.0838
-55.7058
-55.0152
-54.253
-53.6028
-53.0117
-52.4379
-52.6546
-52.7427
-52.9613
-53.1785
-53.2482
-53.357
-53.3723
-53.3874
-53.6745
-59.8934
-59.5036
-59.0943
-58.8824
-57.8957
-57.4479
-57.5335
-57.6465
-57.1542
-56.4323
-55.3306
-54.582
-53.5762
-52.8565
-52.8815
-52.7222
-52.8084
-52.955
-53.0653
-53.1101
-53.2596
-53.1196
-53.3145
-53.4595
-60.6443
-60.4361
-60.1994
-59.6254
-58.7818
-58.3454
-58.1312
-58.4594
-58.0185
-57.1972
-56.459
-55.4977
-54.4833
-53.3459
-52.9965
-52.7749
-52.7103
-52.7298
-52.8028
-52.7898
-52.779
-52.8622
-52.8788
-52.9844
-53.5762
-60.6983
-60.4132
-60.0459
-59.6233
-59.0877
-58.6014
-58.5718
-58.7901
-58.587
-57.8032
-56.6399
-55.7763
-54.9021
-53.6903
-53.1332
-52.7876
-52.6899
-52.5624
-52.6466
-52.5186
-52.5266
-52.6162
-52.4994
-52.5572
-52.8254
-53.9908
-46.5055
-46.4799
-46.3454
-46.6915
-46.6818
-46.5689
-46.4192
-46.7389
-46.7361
-46.6318
-46.4838
-46.2461
-46.8744
-46.8391
-46.7478
-46.6018
-46.4615
-46.2468
-46.8025
-46.8122
-46.7776
-46.658