/*--------------------------------*- C++ -*----------------------------------*\
  =========                 |
  \\      /  F ield         | OpenFOAM: The Open Source CFD Toolbox
   \\    /   O peration     | Website:  https://openfoam.org
    \\  /    A nd           | Version:  7
     \\/     M anipulation  |
\*---------------------------------------------------------------------------*/
FoamFile
{
    version     2.0;
    format      ascii;
    class       surfaceScalarField;
    location    "7";
    object      phi_0;
}
// * * * * * * * * * * * * * * * * * * * * * * * * * * * * * * * * * * * * * //

dimensions      [0 3 -1 0 0 0 0];

internalField   nonuniform List<scalar> 
54451
(
1.01048e-06
0.00165653
-7.60975e-05
4.70824e-05
0.00291787
-0.000218542
1.27221e-05
0.00164945
-7.68963e-05
1.64523e-05
0.00137083
-6.56199e-05
0.0001484
0.00408747
-0.000263924
6.4974e-05
0.00288484
-0.000220553
-7.77971e-06
0.0026202
-0.000194756
1.7956e-05
0.00163688
-7.79241e-05
2.97467e-05
0.00133051
-6.63295e-05
2.21965e-05
0.00167508
-5.57773e-05
0.000287739
0.00506772
-0.000118609
0.000139811
0.00404469
-0.000284803
2.27033e-05
0.00347283
-0.000273823
8.7396e-05
0.00283259
-0.000224306
1.90562e-05
0.00260936
-0.000199019
-5.00119e-05
0.00260045
-0.000147177
2.39882e-05
0.00161765
-7.88492e-05
3.48006e-05
0.00128512
-6.7328e-05
3.00522e-05
0.00163557
-5.68712e-05
4.15458e-05
0.00211395
-5.72606e-05
0.000249913
0.00553578
0.000325814
0.000239013
0.00512578
-0.000128797
4.31996e-05
0.00446924
-0.000111019
0.00017661
0.00397213
-0.000279974
1.48096e-05
0.00347137
-0.000279095
-5.75857e-05
0.00297928
-0.000280169
9.59653e-05
0.00277826
-0.000227114
3.6827e-05
0.00258352
-0.000200497
-1.74339e-05
0.00259713
-0.000148212
-5.62757e-06
0.00286517
-0.000132372
2.74387e-05
0.00159443
-7.97752e-05
4.12167e-05
0.00123303
-6.79818e-05
4.47491e-05
0.00158103
-5.75356e-05
4.79575e-05
0.00206714
-5.80163e-05
1.61997e-05
0.00219719
-6.81765e-05
0.000285792
0.00613928
0.000954626
0.000150926
0.00570365
0.000413418
-8.88548e-05
0.00518119
0.00035225
0.000231869
0.00509311
-0.000124401
1.87987e-05
0.00443567
-9.9222e-05
-9.93489e-05
0.00383765
-9.42201e-05
0.000192499
0.00388574
-0.000276292
2.85777e-05
0.00347383
-0.000274178
-3.29407e-05
0.0030036
-0.000287913
-6.71498e-05
0.00300869
-0.000299842
5.38554e-05
0.00276857
-0.000233115
2.50115e-05
0.00257704
-0.000204424
1.37607e-05
0.00257682
-0.000149204
2.12837e-05
0.0028726
-0.000128968
4.61771e-05
0.00254582
-0.000172219
3.46619e-05
0.00156371
-8.07634e-05
5.04443e-05
0.00117163
-6.88155e-05
5.42151e-05
0.00151671
-5.78813e-05
5.29027e-05
0.00201472
-5.80174e-05
2.02843e-05
0.0021874
-6.85123e-05
1.81e-05
0.00239902
-7.65997e-05
0.000340769
0.00604733
0.00142263
0.000236607
0.00607648
0.00101942
2.24482e-05
0.00583161
0.000999984
6.84918e-05
0.0059006
0.000514443
-9.54827e-05
0.0053155
0.000393392
-9.78461e-05
0.00506348
0.000296683
0.000220266
0.0052841
-0.000134112
-1.86653e-05
0.00445119
-9.26707e-05
-9.5316e-05
0.003874
-7.31922e-05
-0.000105405
0.00313172
-0.000113912
0.000125753
0.00382031
-0.000272773
1.62502e-05
0.0034866
-0.000280306
-3.36965e-05
0.00305604
-0.000279163
-3.62581e-05
0.00307675
-0.000298435
-3.84968e-05
0.0029203
-0.000327132
6.81427e-05
0.00274533
-0.00023743
3.10803e-05
0.00257218
-0.00020889
3.35326e-05
0.00254746
-0.000154377
1.71062e-05
0.00288659
-0.000127404
1.41185e-05
0.00258289
-0.000159868
0.000118949
0.00233943
-0.00022067
4.29423e-05
0.00152483
-8.17552e-05
5.6902e-05
0.00110386
-6.98944e-05
5.91109e-05
0.00144701
-5.82258e-05
5.16928e-05
0.00196307
-5.79248e-05
2.71566e-05
0.0021707
-6.84723e-05
2.35474e-05
0.00238331
-7.63526e-05
4.74322e-05
0.00227467
-7.96373e-05
8.91823e-05
0.00646494
0.00178996
0.000279527
0.00602702
0.00147117
0.000125044
0.00628564
0.00140887
7.99956e-05
0.00607574
0.00105211
-9.3631e-05
0.00582314
0.00102603
-5.15845e-05
0.00581952
0.000910894
4.15709e-05
0.00615439
0.000482785
-0.000153786
0.0055211
0.000443954
-0.000235023
0.00525184
0.000344738
-0.000171076
0.00503055
0.000234795
0.000207337
0.00520834
-0.000126991
-4.15819e-05
0.00443435
-5.94469e-05
-7.01898e-05
0.0038453
-2.74843e-05
-2.15439e-05
0.00313543
-9.16224e-05
-7.52643e-05
0.0039076
-0.000189678
0.000151434
0.00373226
-0.000275458
2.82476e-05
0.00348746
-0.0002708
-4.80037e-06
0.00310653
-0.00029246
-4.96988e-05
0.00315841
-0.000294014
-7.68764e-05
0.00303577
-0.000322906
0.000187691
0.00300461
-0.000304952
8.70012e-05
0.00270852
-0.000246188
5.52239e-05
0.00254956
-0.000213134
2.74114e-05
0.00252761
-0.00015734
2.39817e-05
0.00289961
-0.000139681
-4.53003e-06
0.0026419
-0.000154724
0.000137583
0.0022701
-0.00020458
0.000133666
0.00311185
-0.000258707
5.09891e-05
0.00147822
-8.2893e-05
6.09052e-05
0.00103205
-7.08495e-05
6.5501e-05
0.00137064
-5.90269e-05
6.08164e-05
0.00190174
-5.77129e-05
2.15207e-05
0.00216017
-6.89186e-05
2.60943e-05
0.00236556
-7.68147e-05
7.33951e-05
0.00220422
-7.92956e-05
0.000100466
0.00174808
-8.20053e-05
-3.89713e-05
0.0065808
0.00192521
9.57616e-05
0.00661021
0.00186921
-9.89487e-05
0.00672343
0.00181084
0.000122731
0.0060296
0.0015613
8.73121e-05
0.00615051
0.00142536
-0.00012573
0.00637309
0.00135781
-8.42847e-06
0.00614452
0.00105838
-0.000170902
0.00584877
0.0010436
-0.000144689
0.0058602
0.000895016
-4.8792e-05
0.00562294
0.000739695
0.000131208
0.00623024
0.000467833
-0.000174015
0.00569327
0.000443059
-0.000281394
0.00551579
0.000391206
-3.93783e-05
0.00515879
0.000234324
5.90735e-05
0.0052865
-8.23303e-06
0.000219863
0.00512595
-0.000112609
-1.24441e-05
0.00443113
-8.30778e-05
-4.10278e-05
0.00378659
3.54906e-05
-3.7966e-05
0.00313455
-3.8332e-05
-3.07299e-05
0.00387967
-0.000109838
0.000433206
0.00439915
-0.000189216
0.000164278
0.00364037
-0.000281266
3.88023e-05
0.00349607
-0.000267644
-3.8857e-05
0.00317942
-0.000277424
-2.19112e-05
0.00321223
-0.000300388
-0.000119454
0.00317529
-0.000318612
3.85001e-05
0.00310344
-0.000322663
8.63695e-05
0.00329404
-0.000243086
0.000105716
0.00265506
-0.000245861
6.83243e-05
0.00251386
-0.000217907
1.78953e-05
0.00252169
-0.000159606
2.44552e-05
0.00290443
-0.000125799
-2.62608e-05
0.00271464
-0.000164641
0.000145244
0.00219914
-0.000202906
0.000252879
0.00298354
-0.000255752
0.000222631
0.00345495
-0.000295367
5.58044e-05
0.00142691
-8.40359e-05
6.46479e-05
0.000956073
-7.15673e-05
6.96528e-05
0.00128921
-5.90702e-05
6.76648e-05
0.00183279
-5.77429e-05
4.4621e-05
0.00212692
-6.90817e-05
3.95931e-05
0.00233538
-7.83361e-05
9.01015e-05
0.00211697
-7.9666e-05
0.000110174
0.00164379
-8.51791e-05
0.000140416
0.00205755
-8.33314e-05
-4.18159e-05
0.00604623
0.002228
7.90074e-05
0.00657058
0.00192303
-6.27653e-05
0.00631489
0.00187308
3.5012e-05
0.00664575
0.001939
0.000104934
0.00673874
0.00183627
-2.48981e-05
0.00637922
0.00171601
0.000108534
0.00595798
0.00164507
0.00010235
0.0059793
0.00145925
2.97931e-05
0.006313
0.00131097
0.000196257
0.00630777
0.00115631
8.56028e-05
0.00616932
0.00102854
-0.000235487
0.0059244
0.00104422
-0.00028846
0.00593868
0.000972189
-4.8784e-05
0.0058166
0.000710758
0.000131702
0.00577873
0.000561815
0.000197043
0.0062857
0.000435439
-1.60657e-05
0.00571694
0.000447779
-0.000144607
0.00566587
0.000396557
2.05154e-05
0.00520712
0.000284399
0.000166364
0.00532873
-5.0047e-06
0.000580637
0.00583456
-4.65798e-05
0.000258138
0.00498338
-9.64996e-05
-2.38887e-05
0.00438311
-1.89553e-06
-0.000104858
0.00375287
1.66468e-05
5.98485e-05
0.00310042
-1.21396e-05
1.57677e-05
0.00378064
-7.45253e-05
0.000197126
0.00426702
-0.000136338
0.00019647
0.003475
-5.54672e-05
0.000148528
0.00357212
-0.000292713
6.85338e-05
0.0034924
-0.000277802
-4.81346e-06
0.00320747
-0.00027298
-5.79283e-05
0.00331011
-0.000292917
-0.00011838
0.00328162
-0.000314606
2.14382e-05
0.00322556
-0.000316926
0.000275624
0.00325076
-0.000302127
0.000259927
0.00368343
-0.000215131
0.000119066
0.0025942
-0.000249942
5.69757e-05
0.00249551
-0.000219843
5.15632e-05
0.00248112
-0.000159256
2.25428e-05
0.00292092
-0.000130974
4.15072e-05
0.00275427
-0.000162317
0.000146184
0.00213416
-0.000206253
0.000199568
0.00292616
-0.000254989
0.000173819
0.00343274
-0.000297196
0.000142927
0.00350779
-0.000287279
5.74536e-05
0.00137413
-8.5497e-05
7.03246e-05
0.000873917
-7.22049e-05
7.46763e-05
0.00120207
-5.91023e-05
8.18924e-05
0.00174911
-5.72876e-05
3.9267e-05
0.00209862
-6.87148e-05
3.08623e-05
0.00231426
-7.88169e-05
9.80126e-05
0.0020215
-8.0881e-05
0.00011545
0.00153596
-8.72859e-05
0.000145014
0.00191489
-8.75335e-05
0.000169432
0.00254564
-8.56557e-05
4.80082e-05
0.00569383
0.00239033
4.87485e-05
0.00614004
0.00215413
0.000129135
0.00588555
0.0021095
0.0001777
0.00639887
0.00188952
0.000255895
0.00622082
0.00186614
5.24771e-05
0.00619088
0.00173112
8.97669e-05
0.00663524
0.00192062
0.000192421
0.00672307
0.0018646
8.24469e-05
0.00642685
0.00173599
0.000342749
0.00612629
0.00148509
6.08817e-05
0.00602158
0.00162215
1.83614e-05
0.00585672
0.0015138
1.26288e-05
0.00614704
0.00132412
0.000137414
0.00632391
0.00110863
0.000298599
0.00605689
0.000988172
6.79878e-05
0.00632208
0.00105922
-2.7566e-05
0.0059243
0.00104014
-0.000121047
0.00605296
0.000906373
0.000147346
0.00586449
0.000797473
0.000239823
0.00584982
0.000566201
0.000431438
0.00612703
0.00050927
0.00022939
0.00622147
0.000411219
-0.000231211
0.0059074
0.000452308
-0.000101184
0.00567247
0.000437506
3.22005e-05
0.0052723
0.000359022
0.000242109
0.0051482
0.000238591
0.000570205
0.00536159
9.48837e-05
0.000480107
0.00489321
0.000232553
0.000165359
0.00487519
-5.34661e-05
-1.36123e-05
0.00432185
4.69044e-05
-3.65152e-06
0.0036594
9.04109e-05
-7.17733e-05
0.00313329
-2.38179e-06
-6.06918e-05
0.00376829
-5.74764e-05
-4.21165e-05
0.00436022
-0.000104169
0.000100631
0.00359223
-7.8572e-05
2.84939e-05
0.0039715
3.21681e-05
9.87623e-05
0.00355804
-0.000296215
1.13495e-05
0.00352561
-0.000280304
6.60279e-05
0.00320736
-0.000292158
-6.25248e-05
0.00342262
-0.00030042
-8.67374e-05
0.00343083
-0.000313875
-1.21966e-05
0.0033913
-0.00032196
0.000153252
0.00329894
-0.000318783
0.000147595
0.00365847
-0.000250944
4.00992e-05
0.00440248
-0.000202903
0.000123293
0.00253015
-0.000253598
0.000109923
0.00243
-0.000224028
7.30091e-05
0.00242991
-0.000166961
7.01604e-05
0.00291547
-0.000142078
7.43665e-05
0.00276004
-0.000171845
9.2696e-05
0.00213441
-0.0002244
0.000234658
0.00283894
-0.000255681
0.000194634
0.00339378
-0.000295211
0.000179605
0.00346657
-0.00029056
0.000249326
0.00414884
-0.000249484
6.15346e-05
0.00131776
-8.72685e-05
7.45373e-05
0.000787012
-7.31293e-05
8.09352e-05
0.0011079
-5.89719e-05
7.75861e-05
0.00166957
-5.71441e-05
3.76907e-05
0.00207181
-6.81627e-05
4.21367e-05
0.00228249
-7.90869e-05
0.000103453
0.00192118
-8.19504e-05
0.000124269
0.00141936
-8.85547e-05
0.000144384
0.00177426
-9.10396e-05
0.000176064
0.00237006
-8.80194e-05
0.00016818
0.00244386
-8.42667e-05
0.000268824
0.00547111
0.00258965
0.000159636
0.00565208
0.00235692
0.000264993
0.00582829
0.00227007
0.000293898
0.00603141
0.00216683
0.000478033
0.005783
0.00203454
0.000304807
0.00588328
0.00198805
1.82874e-05
0.00646431
0.00187854
5.05743e-05
0.0063766
0.00187558
0.000203974
0.00618075
0.00175473
0.00036096
0.00596968
0.00169642
5.10281e-05
0.00665276
0.00188602
0.000242208
0.00663777
0.00178208
3.40163e-05
0.00656035
0.00170971
0.000347336
0.00616802
0.00148433
0.000635328
0.00598746
0.00128781
-0.000108132
0.00623397
0.00160868
-0.00011375
0.00610909
0.00145595
0.000143552
0.00614084
0.00125539
0.000229206
0.00641702
0.00114916
0.000260968
0.00606745
0.00107693
0.000342061
0.00623477
0.000970386
1.19551e-05
0.00648019
0.00114019
-0.000411907
0.00612143
0.00104278
-0.000123199
0.006154
0.000961111
-0.000125508
0.00613038
0.000798189
0.000221721
0.00597097
0.000696718
0.000381783
0.00634488
0.000536774
0.000513085
0.00613756
0.000616376
0.000226643
0.00610212
0.00045507
0.000349036
0.00549711
0.000458861
3.64021e-06
0.00564774
0.000469746
4.09592e-06
0.00517493
0.000459006
0.000119112
0.00493556
0.000391857
0.000263803
0.00500468
0.000289575
0.000290856
0.00443828
0.000359589
0.000193293
0.00530277
0.000276082
2.84833e-05
0.00486861
-1.59834e-05
-9.6703e-05
0.00432826
4.81809e-05
2.93314e-05
0.00362565
0.00011735
-3.50361e-05
0.00320442
-8.20868e-06
-3.04613e-05
0.00380434
-9.47024e-05
-8.68912e-05
0.00447903
-0.000101594
3.11493e-05
0.00374179
-0.000131626
7.55913e-05
0.00395352
1.14167e-05
1.68689e-06
0.00465592
-5.70374e-05
0.000105481
0.00355187
-0.0003068
0.000105873
0.00352208
-0.000288631
4.47863e-05
0.00325063
-0.000295357
-2.5251e-05
0.00353985
-0.000313977
4.78823e-05
0.00348531
-0.00032842
-3.70329e-05
0.00352897
-0.000321814
0.000177449
0.00335654
-0.000322359
0.000105405
0.00369746
-0.000268539
4.59473e-05
0.0044875
-0.000202308
0.000113133
0.0047207
-0.000219814
0.000125079
0.00246514
-0.000257977
7.04588e-05
0.00240816
-0.000227679
9.31695e-05
0.00236326
-0.000169609
5.80389e-05
0.0029016
-0.000133541
-2.09727e-05
0.00285984
-0.000183207
9.19054e-05
0.00214968
-0.00023689
0.000252768
0.00272704
-0.000261816
0.000194407
0.00336345
-0.000295486
0.000150639
0.00345722
-0.000292122
0.000259865
0.00402243
-0.000247946
0.000287556
0.0045101
-0.000209268
6.99731e-05
0.00125359
-8.9075e-05
7.78615e-05
0.000696711
-7.48282e-05
8.88862e-05
0.00100461
-5.87237e-05
8.61711e-05
0.00158128
-5.68539e-05
5.52192e-05
0.00202737
-6.79317e-05
4.55e-05
0.00224792
-7.909e-05
0.000104701
0.00182146
-8.40736e-05
0.000132829
0.00129539
-9.08047e-05
0.000155561
0.00162392
-9.37826e-05
0.000185195
0.00218408
-9.02546e-05
0.000179512
0.0022625
-8.61671e-05
0.000156449
0.00238012
-8.01057e-05
0.000397001
0.00524046
0.00290607
0.000400455
0.00535528
0.00259876
0.000405666
0.00542369
0.00254325
0.000331411
0.0056581
0.00244032
0.00048666
0.00591394
0.00226265
0.000531391
0.00572698
0.00222708
0.000227405
0.00584641
0.00219143
0.00017125
0.00568149
0.00214766
0.000296139
0.00588831
0.00193735
0.000498723
0.00561906
0.00193668
2.22646e-05
0.00649786
0.00186288
0.000186751
0.00646222
0.00184837
1.74304e-05
0.00626975
0.00180317
0.000330545
0.00602134
0.00171986
0.000773605
0.00572094
0.00153447
2.04661e-05
0.00657997
0.00174442
9.10533e-05
0.00662094
0.00169805
0.000355723
0.0065679
0.00156235
0.000312225
0.00631054
0.00148418
0.000261798
0.00610215
0.00136881
0.000410468
0.00596821
0.00117867
-0.000230434
0.006566
0.00158281
-0.000125025
0.00600989
0.001421
-4.93532e-05
0.00632564
0.0011973
0.000171764
0.00634226
0.00103288
0.000253821
0.00632744
0.000857064
0.000556326
0.00607403
0.00106312
0.000832922
0.00592985
0.000995832
7.32351e-05
0.00659304
0.00122066
0.000307604
0.00619496
0.0011081
-2.08329e-06
0.0062163
0.000986205
8.69986e-05
0.00611778
0.000890803
0.000184606
0.00595832
0.000745347
0.000668275
0.00595973
0.00067739
0.000529276
0.00582016
0.000615753
0.000543817
0.00584113
0.00059505
3.54211e-05
0.00606519
0.000509428
-0.000215171
0.00556626
0.000504381
1.9848e-05
0.00561302
0.000503061
-2.65827e-05
0.0051845
0.000451726
0.000200534
0.00470552
0.000458053
0.000204721
0.00482215
0.000282777
0.000159035
0.00426021
0.00033976
0.000122725
0.00532257
0.00029266
0.000183337
0.00537054
0.000167353
3.19318e-05
0.00484896
-4.63239e-06
-6.76915e-05
0.00445552
3.03131e-05
-6.37603e-05
0.00370264
7.97417e-05
-4.00045e-05
0.00335624
-1.97165e-05
-5.77942e-05
0.0040435
-0.000141699
-0.000114454
0.00460459
-0.000142838
-3.74954e-05
0.0040208
-0.000165666
-7.89185e-05
0.00410161
-9.5398e-05
1.27809e-06
0.00474831
-3.62977e-05
-0.000144105
0.00476181
-6.82543e-05
6.79013e-05
0.00359361
-0.000306156
3.15968e-05
0.00355257
-0.000298427
4.26034e-05
0.00332683
-0.000314256
2.83853e-06
0.00362317
-0.000323477
-7.45165e-05
0.00355447
-0.000329592
-4.22085e-06
0.00365303
-0.000356352
0.000222209
0.0033922
-0.000326916
9.8055e-05
0.00373406
-0.000262614
-5.17006e-05
0.00464035
-0.000219049
0.000210168
0.0047994
-0.00023132
0.000339891
0.00467572
-0.000300271
0.000137895
0.00239839
-0.000263337
7.49337e-05
0.00238572
-0.000232609
0.000105111
0.00229287
-0.000173521
6.97148e-05
0.00288172
-0.000133269
4.01965e-05
0.00291322
-0.0001719
6.89659e-05
0.00219178
-0.000248766
0.000206616
0.00265298
-0.000264743
0.000202515
0.00332248
-0.000290528
0.00020577
0.00339964
-0.000288113
0.000281268
0.00388299
-0.000248764
0.000296909
0.00433857
-0.000193813
0.000258695
0.00372788
-0.000212357
7.92973e-05
0.00118071
-9.07759e-05
8.07099e-05
0.000604074
-7.71484e-05
9.6115e-05
0.000892959
-5.92917e-05
9.22167e-05
0.00148714
-5.6801e-05
6.74944e-05
0.00197106
-6.80305e-05
4.65117e-05
0.00221317
-7.96977e-05
0.000100429
0.00172851
-8.65651e-05
0.000143023
0.0011628
-9.45062e-05
0.000161412
0.00146982
-9.81073e-05
0.000198674
0.00198407
-9.24485e-05
0.000192195
0.00206705
-8.69989e-05
0.000173667
0.0021997
-7.94085e-05
0.000152912
0.00248
-7.91321e-05
0.000335137
0.00510336
0.00317046
0.000556069
0.00516158
0.00287789
0.000635388
0.00508697
0.00285978
0.000292835
0.00543056
0.00267573
0.000470045
0.005452
0.00258707
0.000486814
0.0055405
0.00251307
0.000320972
0.00574003
0.00232751
0.000377773
0.00583452
0.00231321
0.000385202
0.00570119
0.00219937
0.000614288
0.00558502
0.00219015
6.18992e-05
0.00583544
0.00222978
0.000309172
0.00564799
0.00210251
0.000263198
0.00573574
0.00205446
0.000358462
0.00561734
0.00191114
0.000675574
0.00573877
0.0018801
8.2761e-05
0.00651009
0.00181494
0.000198511
0.00641152
0.00180613
0.000282364
0.00643546
0.00175603
0.00055255
0.00589422
0.00168997
0.000298927
0.00586875
0.00153493
0.000608407
0.00579436
0.0014353
-0.000187748
0.00661461
0.00166602
5.74581e-05
0.00664479
0.00153808
0.000103886
0.00662053
0.00149218
0.000421193
0.00623226
0.0013912
0.00033398
0.00617256
0.00133362
0.000736323
0.00584934
0.00130769
0.000972355
0.00573148
0.0011222
-0.000187521
0.00689136
0.00161004
-0.000283739
0.00676735
0.0014167
3.38428e-05
0.0065221
0.00118862
0.000264705
0.00627161
0.00109025
0.000386207
0.00606913
0.0010896
0.000792606
0.00599002
0.000816744
0.000595054
0.00583379
0.00109341
0.000641212
0.0056461
0.000944772
-0.000117812
0.00678466
0.00131006
-0.000351661
0.00642888
0.00112323
6.59507e-05
0.00629788
0.000980425
6.95755e-05
0.0060968
0.000911031
0.00033206
0.00584449
0.000873106
0.000466397
0.00569355
0.000749856
0.000583521
0.00536097
0.000712091
0.00033818
0.0056372
0.000604229
0.000422741
0.00578561
0.00052124
-0.000218598
0.00624881
0.00055107
-0.000195411
0.00570176
0.000501646
-0.000110794
0.00562648
0.000537956
0.000147042
0.00502134
0.000479172
0.000108628
0.00455836
0.000432464
0.000234329
0.00465997
0.000271454
0.000118244
0.0042979
8.93517e-05
0.000142697
0.00522213
0.000218577
0.000147028
0.00539214
0.000125313
-0.000114195
0.00494915
0.000104354
-4.41242e-05
0.00491722
-9.38775e-05
-7.38248e-05
0.00459271
-3.63997e-05
-3.90564e-05
0.00379218
2.24351e-05
-4.27757e-05
0.00355337
-7.17705e-05
3.64949e-07
0.00414633
-0.000197425
-4.83888e-05
0.00471521
-0.000208156
3.63337e-05
0.00422742
-0.000163575
-1.40904e-05
0.00419005
-0.000141959
-0.000170118
0.00486149
-9.01673e-05
-3.58139e-06
0.00502235
-8.30926e-05
0.000213758
0.00516255
-7.59153e-05
7.78896e-05
0.00364515
-0.000312375
3.00833e-05
0.00358886
-0.000297598
6.20867e-05
0.00338033
-0.000308912
2.22183e-05
0.00369263
-0.000336217
-1.82802e-05
0.00362949
-0.000340018
1.47979e-05
0.00367255
-0.000294948
0.000158363
0.00347798
-0.000393875
0.000177763
0.00370391
-0.000272014
6.00374e-05
0.00473436
-0.000210892
0.000279447
0.00483052
-0.000248341
0.00036634
0.00470838
-0.000333415
0.00042959
0.00440661
-0.000365278
0.000150751
0.00232871
-0.000268253
8.90847e-05
0.00235364
-0.000239631
0.000119377
0.002216
-0.000178995
9.3965e-05
0.00284333
-0.000136879
7.0501e-05
0.00294843
-0.000171488
7.10558e-05
0.00224707
-0.00025174
0.000272171
0.00250529
-0.000272817
0.000224957
0.00326312
-0.000287324
0.000211257
0.00334039
-0.000281125
0.000299836
0.00374047
-0.00024675
0.000316391
0.00417033
-0.000204728
0.000315589
0.00359714
-0.000204993
0.000183131
0.00374679
-0.000183967
8.81723e-05
0.00109972
-9.24956e-05
8.67535e-05
0.00050542
-7.88751e-05
0.000105234
0.000770359
-5.97824e-05
9.41433e-05
0.00139081
-5.71079e-05
7.6682e-05
0.0019061
-6.85244e-05
5.11399e-05
0.00217473
-8.07309e-05
0.000103958
0.00163417
-8.93139e-05
0.000150992
0.0010242
-9.89618e-05
0.000162519
0.00131562
-0.000102826
0.000206814
0.0017761
-9.69481e-05
0.000204
0.00185797
-8.73709e-05
0.000170856
0.00202072
-7.88772e-05
0.00016854
0.00230876
-7.67102e-05
7.03125e-05
0.00284236
-7.1088e-05
0.000331817
0.00514596
0.00353111
0.000455147
0.00514273
0.00320132
0.000679394
0.00486514
0.00316855
0.000358886
0.00516659
0.00283254
0.000478906
0.00514183
0.00281417
0.000614252
0.00525925
0.00275082
0.000302537
0.00556515
0.00263838
0.000359775
0.0055721
0.00257362
0.000443361
0.00561552
0.00245389
0.000596602
0.00562414
0.00252408
0.000101975
0.00579859
0.00238538
0.000301741
0.00590086
0.00226861
0.000464993
0.0055574
0.00225521
0.000633631
0.00531144
0.00219778
0.000650026
0.00541596
0.00217115
4.59296e-05
0.0059912
0.00212352
5.98719e-05
0.00592172
0.00209469
0.000316289
0.00576215
0.00204218
0.000594386
0.00561392
0.00201605
0.000358435
0.00572827
0.00186213
0.000551534
0.00574163
0.00183419
1.95505e-06
0.00632921
0.00191094
0.000143016
0.00636187
0.00177903
0.000167602
0.0064679
0.00170996
0.000344594
0.00605917
0.00166768
0.000428365
0.00588467
0.00157967
0.000504752
0.00606068
0.00150018
0.000664399
0.00564808
0.00142917
-0.000235492
0.00674899
0.00162383
-9.02041e-05
0.00666588
0.0014514
0.000219625
0.00662847
0.00134436
0.000671882
0.00602817
0.00128909
0.000481048
0.00620519
0.00126373
0.000454234
0.00624675
0.00127458
0.000635059
0.00571205
0.00128711
0.00102913
0.00549228
0.000989663
-0.000206153
0.00708266
0.00162381
-0.000136426
0.00681209
0.00135006
8.77827e-05
0.00675346
0.0011635
0.00024581
0.00623389
0.0010501
0.000429329
0.00602632
0.00103579
0.000472789
0.00595824
0.00111499
0.000657738
0.0055072
0.00106911
0.000738452
0.00536018
0.000979055
0.000544826
0.00574841
0.000894731
-0.000357029
0.00698432
0.00128087
-0.000253439
0.00667934
0.00111763
-5.96205e-05
0.00635338
0.00101655
0.000282587
0.00604136
0.000900322
0.000358139
0.00565438
0.000851625
0.000576812
0.00544152
0.00078265
0.000483415
0.00510618
0.000639479
0.000581881
0.00529975
0.000610361
0.000310361
0.00571637
0.000510145
4.30451e-05
0.00520715
0.000350817
-0.000251717
0.00638296
0.000463002
-0.000248071
0.00590138
0.000525706
-3.81146e-05
0.00560364
0.000523541
2.60438e-05
0.00497216
0.000518319
0.000241023
0.00443519
0.000361679
0.000287811
0.00455228
0.000203955
0.000146341
0.00435555
0.000103797
0.000182023
0.00508034
3.50318e-05
-7.08658e-05
0.00540945
0.000102019
-1.35369e-05
0.00509549
-1.10712e-05
0.000296543
0.00486518
-8.10282e-05
2.50629e-06
0.00492425
2.12335e-05
-3.38602e-05
0.00451373
4.905e-05
-4.79558e-05
0.00395654
-9.0718e-05
1.24064e-05
0.00373805
-0.000152435
7.70806e-05
0.00426004
-0.00028084
3.09627e-05
0.00478497
-0.000283349
9.39461e-05
0.00429418
-0.000210504
0.000177351
0.00424601
-0.000219125
4.15725e-05
0.00495488
-0.000216879
5.05755e-05
0.00527545
-0.000114389
0.000384133
0.00521075
-0.000149087
0.000666995
0.00524378
-0.000216359
7.18699e-05
0.00371873
-0.000311073
4.34654e-05
0.00363075
-0.000308647
-1.55191e-05
0.0035242
-0.000306567
7.60034e-05
0.00373266
-0.000330984
3.18566e-05
0.00367765
-0.000345736
7.37109e-05
0.00367708
-0.000347207
0.000320593
0.00347031
-0.000335701
0.000203393
0.00364121
-0.000309613
5.19423e-05
0.00485198
-0.000230328
0.000267118
0.00489439
-0.000242043
0.000406138
0.00470032
-0.000330028
0.000450543
0.00431832
-0.00038008
0.000196935
0.00407992
-0.000324258
0.00016264
0.00225988
-0.000275185
0.000106767
0.00230967
-0.000244301
0.000142669
0.00212081
-0.000181881
0.000121998
0.00278435
-0.000147873
9.868e-05
0.00296391
-0.000174357
6.9831e-05
0.002309
-0.000252106
0.000226414
0.00240516
-0.000274071
0.000188453
0.00323816
-0.000285317
0.000204062
0.00329565
-0.000284125
0.000321198
0.00359307
-0.000248106
0.000344554
0.00399985
-0.000216823
0.000299325
0.00348647
-0.000222532
0.000208218
0.00369124
-0.000189124
1.63395e-05
0.00420478
-0.000156043
8.99001e-05
0.00101619
-9.30392e-05
9.17676e-05
0.000400388
-7.92319e-05
0.000115927
0.000635451
-5.98942e-05
0.000102093
0.00128554
-5.6598e-05
7.81224e-05
0.00183972
-6.88494e-05
5.12735e-05
0.00213657
-8.16313e-05
0.000111281
0.00153454
-9.23856e-05
0.000147855
0.000890753
-0.000103722
0.000161189
0.00116312
-0.000107649
0.000212156
0.0015631
-0.000101983
0.000211605
0.00163851
-8.9094e-05
0.000171056
0.00184063
-7.8344e-05
0.000178367
0.00213025
-7.87341e-05
8.89799e-05
0.00274738
-7.07135e-05
0.000113107
0.00265277
-6.55893e-05
0.000350024
0.00496426
0.00388594
0.000498223
0.00508341
0.00356252
0.000554218
0.00491377
0.0035453
0.000380821
0.00510414
0.00319127
0.000537005
0.00479868
0.00320969
0.000712585
0.00498506
0.00315086
0.000273518
0.0051876
0.00286368
0.000370865
0.00516023
0.00280305
0.000583903
0.00522901
0.00270387
0.000726543
0.00533315
0.00276923
0.000223496
0.00546154
0.00275266
0.000379735
0.00563276
0.00249973
0.000462236
0.00569045
0.00250145
0.000769422
0.00542587
0.00251637
0.00055208
0.00523582
0.00261305
4.59433e-05
0.00582184
0.00244492
0.00019993
0.00575792
0.00238827
0.000474832
0.00538233
0.00228513
0.000579727
0.00537088
0.00221043
0.000371707
0.00541904
0.00218143
0.000561441
0.00547606
0.00209772
-5.38939e-05
0.00609748
0.00219312
0.000179031
0.00596095
0.00204828
0.000224652
0.00578979
0.00201
0.0003263
0.00568189
0.0019925
0.00032752
0.00591068
0.00193449
0.000456471
0.00581588
0.00183616
0.000717973
0.00564555
0.00169347
-3.80031e-05
0.0061895
0.00187656
6.97105e-05
0.00629201
0.00182088
0.000286033
0.00647346
0.00170706
0.000604161
0.00617389
0.00166296
0.000373492
0.0060599
0.0016
0.000550885
0.00599996
0.00154373
0.000683345
0.00564498
0.00145499
0.00114327
0.00520416
0.00130232
-0.000120033
0.00674639
0.00165017
5.31119e-05
0.00666909
0.00143108
0.000150384
0.00662601
0.00139125
0.000239818
0.00606449
0.00131404
0.000568739
0.00613003
0.00122484
0.000447447
0.00629331
0.00124251
0.00058204
0.00588564
0.00117669
0.000923158
0.00550472
0.00108997
0.000712532
0.00563643
0.000965123
-0.000129625
0.00702487
0.00158652
-0.000136195
0.00697026
0.0013484
0.000171984
0.00674091
0.00113101
0.000424927
0.00619293
0.00106213
0.000696062
0.00583182
0.000906671
0.000589308
0.00601251
0.000969021
0.000508521
0.00559104
0.00100604
0.000572434
0.00542844
0.0010103
0.000554179
0.00558654
0.000897109
0.000285381
0.00505164
0.000624039
-0.000315587
0.00707092
0.00126116
-0.0003002
0.00690851
0.00110382
1.31745e-05
0.0064208
0.000998921
0.000312661
0.00590296
0.000868332
0.000532281
0.00542181
0.000841636
0.000647542
0.0051852
0.000748215
0.0004766
0.00503844
0.000520126
0.000454637
0.00525509
0.000411523
0.000249212
0.00560263
0.000404018
0.000213019
0.00520476
0.000285977
0.000435255
0.00494826
0.00010562
3.38319e-06
0.00635049
0.000429444
-0.000163724
0.0060691
0.000425138
-4.78884e-05
0.00560814
0.000521137
0.000129709
0.00490505
0.00047335
0.000378159
0.00429379
0.000358645
0.000255838
0.00465175
3.73248e-05
0.000177134
0.00457639
-0.000100078
0.000410517
0.00492587
2.50983e-05
0.000153359
0.00533239
3.01726e-07
-1.57755e-05
0.00528556
-2.17061e-05
0.00050969
0.0049633
-0.00023474
0.000910978
0.00500885
-0.000164476
7.05204e-05
0.00483596
-2.56164e-05
3.94212e-05
0.00450459
3.44171e-05
-9.3772e-05
0.00407802
5.81825e-06
8.49732e-05
0.00388169
-0.000243323
0.000153125
0.00432148
-0.000335146
0.00019701
0.00475303
-0.000372194
0.000236607
0.00442669
-0.000331867
0.000210345
0.00428387
-0.000255311
5.19823e-05
0.0049217
-0.000185982
0.000117431
0.00544888
-0.000240623
0.000497091
0.00519977
-0.000194363
0.000610729
0.00516713
-0.000232625
0.000324484
0.00473541
-0.000297439
6.52468e-05
0.00380267
-0.000311776
4.47265e-05
0.00369008
-0.000308366
8.46882e-05
0.00359183
-0.000318293
0.000135945
0.00375259
-0.000340444
0.000121481
0.00366522
-0.000341358
0.000112515
0.00363932
-0.000350653
0.000258242
0.00348499
-0.000393715
0.000208412
0.00362318
-0.000337624
0.000137211
0.00485388
-0.000244659
0.000376229
0.00484737
-0.000238341
0.000488935
0.00459888
-0.00028498
0.000471993
0.00416984
-0.00035421
0.000244634
0.00400144
-0.000338017
0.000132403
0.00370639
-0.000234692
0.000167586
0.00219453
-0.000282235
0.000111863
0.00226214
-0.000247749
0.000169111
0.00200667
-0.000183341
0.000143748
0.00271147
-0.000150657
9.80495e-05
0.00297836
-0.000182254
7.4213e-05
0.00236833
-0.000256631
0.0002455
0.00228891
-0.000270072
0.000233571
0.00316327
-0.000284893
0.000216167
0.00324587
-0.000290521
0.000342897
0.00343919
-0.000260989
0.000379439
0.0038103
-0.000226392
0.000313833
0.00336445
-0.000237574
0.000214678
0.00363049
-0.000198086
4.23989e-05
0.00422213
-0.000159888
0.000298337
0.00275725
-0.000186432
8.87291e-05
0.000931265
-9.22063e-05
9.75751e-05
0.000287451
-7.76769e-05
0.000123163
0.000492982
-5.99256e-05
0.000110219
0.00117121
-5.57881e-05
8.04993e-05
0.00177167
-6.9047e-05
5.66671e-05
0.00209379
-8.27348e-05
0.000112298
0.00143609
-9.54817e-05
0.000150102
0.000757106
-0.000108841
0.000163738
0.00100878
-0.000113129
0.000215715
0.0013452
-0.000105466
0.000211892
0.00141643
-9.17915e-05
0.000177236
0.00165371
-7.94067e-05
0.000189652
0.00194163
-7.93765e-05
8.52856e-05
0.00265684
-7.34743e-05
0.000126745
0.00252105
-6.57355e-05
0.000151046
0.00175834
-7.00593e-05
0.000450868
0.00450377
0.00422855
0.000688898
0.00484886
0.00380759
0.000580362
0.00478585
0.00385578
0.000440093
0.0050094
0.00359539
0.000632348
0.00483589
0.00354506
0.000714377
0.00484502
0.0035285
0.000191262
0.00510624
0.00321162
0.000383352
0.00479966
0.0031778
0.000775205
0.00485848
0.00314497
0.000778659
0.00484494
0.0031592
0.000202637
0.00523201
0.002861
0.000514982
0.00509963
0.00278904
0.00050249
0.00521123
0.00278057
0.000764385
0.00522296
0.0028191
0.000577873
0.00496756
0.00276761
0.000177143
0.00540699
0.00270724
0.000536428
0.00541581
0.00263311
0.00063608
0.00549054
0.00253839
0.000713535
0.00517746
0.00261605