/*--------------------------------*- C++ -*----------------------------------*\
  =========                 |
  \\      /  F ield         | OpenFOAM: The Open Source CFD Toolbox
   \\    /   O peration     | Website:  https://openfoam.org
    \\  /    A nd           | Version:  7
     \\/     M anipulation  |
\*---------------------------------------------------------------------------*/
FoamFile
{
    version     2.0;
    format      ascii;
    class       volVectorField;
    location    "7";
    object      U;
}
// * * * * * * * * * * * * * * * * * * * * * * * * * * * * * * * * * * * * * //

dimensions      [0 1 -1 0 0 0 0];

internalField   nonuniform List<vector> 
18870
(
(-0.234551 0.807127 -1.75558)
(-0.0264327 1.49108 -1.61096)
(-0.231342 0.810638 -1.77275)
(0.109403 0.732065 -1.68951)
(-0.117982 2.0714 -1.10915)
(0.0584025 1.52482 -1.59498)
(-0.205317 1.2917 -1.6507)
(-0.234691 0.807714 -1.79225)
(0.138411 0.736177 -1.69659)
(0.241203 0.897288 -1.31287)
(0.270134 2.60238 -0.383952)
(-0.281351 2.03858 -1.2982)
(-0.346193 1.70334 -1.23612)
(0.0157638 1.50951 -1.63112)
(-0.105494 1.34394 -1.69146)
(-0.2943 1.2776 -1.27)
(-0.229004 0.805386 -1.81187)
(0.165506 0.743631 -1.70846)
(0.222204 0.908536 -1.32328)
(0.370334 1.1484 -1.23372)
(0.122248 2.81053 0.577958)
(0.103708 2.63255 -0.470954)
(-0.109776 2.26596 -0.387837)
(-0.249985 2.04741 -1.28096)
(-0.411992 1.69109 -1.23817)
(-0.559115 1.41099 -1.2261)
(-0.0408851 1.4909 -1.65068)
(-0.171288 1.30535 -1.70745)
(-0.260907 1.27684 -1.29437)
(-0.122144 1.43527 -0.965678)
(-0.209857 0.803363 -1.83314)
(0.201647 0.758852 -1.71912)
(0.216956 0.913197 -1.34413)
(0.297811 1.14597 -1.26371)
(-0.00847261 1.116 -1.37465)
(-0.146212 3.07385 1.84638)
(-0.238058 2.80136 0.873752)
(-0.432138 2.52408 1.00808)
(-0.0535438 2.64981 -0.495414)
(-0.316853 2.20399 -0.367527)
(-0.276716 1.8968 -0.318048)
(-0.285634 1.98913 -1.22405)
(-0.345382 1.71711 -1.2109)
(-0.509816 1.44035 -1.26273)
(-0.403458 1.43371 -1.29515)
(-0.163806 1.44717 -1.69809)
(-0.239841 1.28234 -1.71769)
(-0.107001 1.32425 -1.29104)
(-0.0788647 1.45097 -0.947252)
(-0.0784128 1.27555 -1.05207)
(-0.182527 0.818494 -1.85023)
(0.244808 0.777927 -1.72688)
(0.253541 0.927216 -1.35367)
(0.272399 1.14516 -1.26503)
(-0.00427443 1.12015 -1.37405)
(-0.263381 1.1647 -1.74919)
(0.0647993 3.03293 2.40531)
(-0.461728 3.00768 1.94966)
(-0.664509 2.87036 1.96857)
(-0.468417 2.82758 1.19076)
(-0.598302 2.52114 1.13074)
(-0.793308 2.43345 0.77952)
(-0.180575 2.66835 -0.522853)
(-0.593447 2.13935 -0.294493)
(-0.399498 1.87413 -0.2655)
(-0.432878 1.49277 -0.291141)
(-0.696641 1.82184 -1.20271)
(-0.549112 1.65113 -1.21803)
(-0.585503 1.39952 -1.23433)
(-0.406204 1.4653 -1.33064)
(0.0679747 1.44212 -1.45924)
(-0.262952 1.47197 -1.70321)
(-0.274362 1.30662 -1.72258)
(-0.116523 1.3299 -1.31952)
(-0.11341 1.46388 -0.956763)
(-0.187536 1.2627 -1.00498)
(0.390962 1.2575 -1.59578)
(-0.15378 0.839812 -1.86317)
(0.275405 0.796338 -1.73795)
(0.295606 0.951262 -1.3682)
(0.230602 1.14747 -1.26753)
(-0.0155325 1.13126 -1.36808)
(-0.297067 1.15155 -1.75222)
(0.089096 1.16309 -1.73113)
(-0.217962 3.17656 2.54069)
(-0.112269 3.04912 2.484)
(-0.149361 3.16954 2.39692)
(-0.861095 2.90674 2.05819)
(-0.829691 2.75163 2.11867)
(-0.315801 2.87206 2.06476)
(-0.788524 2.96651 1.12032)
(-0.780913 2.55991 1.3271)
(-0.909324 2.4005 0.85518)
(-0.620326 2.39637 0.650526)
(-0.42358 2.6939 -0.486528)
(-0.664143 2.12947 -0.319199)
(-0.530368 1.86347 -0.293043)
(-0.438429 1.5051 -0.209467)
(-0.788162 1.80934 -0.460531)
(-0.69622 1.77704 -1.26703)
(-0.676997 1.62225 -1.19154)
(-0.561675 1.41664 -1.27021)
(-0.603263 1.44721 -1.27383)
(-0.285872 1.4847 -1.38952)
(0.174245 1.57438 -1.51075)
(-0.294971 1.41284 -1.77071)
(-0.329118 1.29665 -1.74945)
(-0.241287 1.28692 -1.36638)
(-0.270214 1.44307 -0.999487)
(-0.208093 1.29588 -0.95378)
(0.388234 1.25016 -1.44192)
(0.363733 1.62123 -1.74642)
(-0.129096 0.840796 -1.88394)
(0.286831 0.809002 -1.75657)
(0.325102 0.966653 -1.38999)
(0.213875 1.15558 -1.25518)
(-0.0422628 1.14318 -1.35225)
(-0.358186 1.11622 -1.74348)
(0.26018 1.20932 -1.70534)
(0.801248 1.05888 -1.90884)
(-0.546312 3.18397 2.44872)
(-0.553842 3.18207 2.70533)
(-0.551293 3.23284 2.65556)
(-0.483544 2.95039 2.70975)
(-0.619083 3.01381 2.46683)
(-0.677376 3.05288 2.41535)
(-1.06328 2.84583 2.06389)
(-1.17726 2.68384 2.13091)
(-1.02578 2.76542 2.01075)
(-0.700287 2.7328 1.67134)
(-0.976355 2.94248 1.07029)
(-1.15541 2.60386 1.26394)
(-0.967141 2.46108 0.912163)
(-0.514409 2.45662 0.789397)
(-0.16421 2.54766 0.493757)
(-0.560707 2.64215 -0.441272)
(-0.702698 2.09602 -0.306548)
(-0.585268 1.80319 -0.0644737)
(-0.500585 1.46613 0.102047)
(-0.86079 1.81487 -0.393163)
(0.307442 2.39084 -0.850079)
(-0.671978 1.76377 -1.29931)
(-0.607073 1.65933 -1.15233)
(-0.658231 1.43789 -1.20434)
(-0.542926 1.47788 -1.35384)
(-0.606947 1.40514 -1.37939)
(0.172067 1.55382 -1.50947)
(0.191629 1.91992 -1.19623)
(-0.322686 1.41166 -1.7831)
(-0.377408 1.2334 -1.80425)
(-0.307227 1.26513 -1.39151)
(-0.28087 1.46584 -0.991652)
(-0.485178 1.20519 -1.08399)
(0.361495 1.26517 -1.39588)
(0.401682 1.65796 -1.64621)
(0.388244 1.84988 -2.21735)
(-0.149613 0.829967 -1.90808)
(0.296028 0.81899 -1.77573)
(0.321374 0.98183 -1.40317)
(0.203271 1.15665 -1.2573)
(-0.0567228 1.14832 -1.34585)
(-0.331949 1.08912 -1.76078)
(0.347686 1.22965 -1.70297)
(0.767139 1.05188 -1.92067)
(1.23273 1.27272 -1.85119)
(-0.46504 2.92772 2.50321)
(-0.585495 3.18714 2.435)
(-0.601144 3.03903 2.48685)
(-0.918357 3.13984 2.82786)
(-0.528225 3.32564 2.71872)
(-0.580657 3.08334 2.66603)
(-0.923057 2.84083 2.83501)
(-0.804662 2.90985 2.53693)
(-0.599686 3.08345 2.3843)
(-0.309813 3.06928 2.15406)
(-0.990137 2.91186 1.98061)
(-1.2541 2.63838 2.14442)
(-1.45416 2.584 2.0793)
(-0.743821 2.72837 1.6339)
(-0.433597 2.73143 1.29961)
(-1.12845 2.91554 0.9418)
(-1.27642 2.54723 1.21949)
(-1.09532 2.56161 0.957189)
(-0.772959 2.4303 0.953257)
(-0.217989 2.67549 0.360058)
(0.776932 3.07702 -0.538215)
(-0.745894 2.50252 -0.488621)
(-0.982534 1.97427 -0.252505)
(-0.898741 1.6964 -0.22375)
(-0.590406 1.43233 0.274652)
(-0.915956 1.72969 -0.364325)
(-0.726009 2.00478 -0.373022)
(-0.312251 1.76693 -0.37015)
(-0.666426 1.72212 -1.35414)
(-0.589896 1.66775 -1.1647)
(-0.854291 1.37443 -1.20437)
(-0.763509 1.45754 -1.2749)
(-0.695651 1.47136 -1.35391)
(0.0675335 1.63451 -1.46916)
(1.0952 1.5499 -1.36704)
(0.942586 1.92498 -1.07142)
(-0.342564 1.41669 -1.79081)
(-0.479928 1.21874 -1.78996)
(-0.370245 1.25575 -1.39813)
(-0.326478 1.46347 -0.995005)
(-0.227887 1.43709 -0.876149)
(0.44123 1.29432 -1.41299)
(0.470197 1.63757 -1.63389)
(0.478657 1.8309 -2.26767)
(0.536245 1.86187 -2.23219)
(-0.188862 0.799084 -1.93842)
(0.309198 0.833857 -1.79048)
(0.315618 0.986604 -1.40093)
(0.208141 1.1767 -1.2421)
(-0.0532831 1.16083 -1.33731)
(-0.358954 1.09442 -1.7642)
(0.319953 1.21538 -1.74381)
(0.743251 1.05845 -1.91458)
(1.14752 1.28731 -1.96047)
(1.25992 1.52893 -1.89222)
(-0.464336 2.73615 2.53197)
(-0.590252 2.90378 2.52421)
(-0.414425 2.81519 2.57483)
(-0.735331 3.12843 2.39138)
(-0.607832 3.0108 2.47575)
(-0.40135 2.97147 2.31067)
(-0.89941 3.18376 2.81994)
(-0.629493 3.22286 2.79386)
(-0.65674 3.05157 2.66229)
(-0.115045 2.93996 2.33943)
(-1.11892 2.74959 2.80389)
(-1.24114 2.62242 2.68193)
(-0.868921 2.9679 2.39356)
(-0.655386 3.083 2.01887)
(-0.0815213 3.00655 1.77227)
(-0.989608 2.88769 2.11947)
(-0.981156 2.81136 2.10972)
(-1.25205 2.71273 2.0502)
(-0.59001 2.75052 1.83118)
(-0.400022 2.871 1.18965)
(0.178583 2.95486 0.900652)
(-1.11457 2.99906 0.813264)
(-1.33099 2.5418 1.20116)
(-1.30332 2.56933 1.00152)
(-0.516348 2.59725 0.920969)
(-0.195928 2.64546 0.423244)
(0.654958 3.0256 -0.426675)
(0.513287 2.69599 0.246147)
(-1.01114 2.29248 -0.332816)
(-1.06008 1.93677 -0.107491)
(-0.672273 1.6665 0.197539)
(-0.759788 1.37817 0.331893)
(-1.04993 1.59449 -0.365498)
(-0.982507 1.90469 -0.144768)
(-0.277936 1.67139 -0.498164)
(-0.228602 1.87827 -0.0202822)
(-0.735355 1.68728 -1.37689)
(-0.79456 1.57709 -1.2047)
(-0.690325 1.44851 -1.26205)
(-0.937404 1.40656 -1.2257)
(-0.719045 1.51327 -1.34876)
(-0.203589 1.66394 -1.46143)
(0.204492 1.91001 -1.3834)
(0.219901 1.96048 -1.37925)
(0.0102659 2.14434 -0.920161)
(-0.378555 1.38667 -1.81322)
(-0.495037 1.16526 -1.82979)
(-0.408074 1.21137 -1.43393)
(-0.214747 1.54934 -0.975176)
(-0.490514 1.28748 -0.925169)
(0.100206 1.2046 -1.57276)
(0.476669 1.69599 -1.63571)
(0.397603 1.86687 -2.25105)
(0.58497 1.87873 -2.20981)
(0.953929 2.23613 -2.11695)
(-0.205833 0.778352 -1.96571)
(0.321565 0.850628 -1.81173)
(0.314082 0.979426 -1.39922)
(0.210187 1.18467 -1.23421)
(-0.0679621 1.17364 -1.32516)
(-0.297271 1.12346 -1.74781)
(0.274773 1.20101 -1.76852)
(0.748572 1.06033 -1.90505)
(1.04114 1.26785 -2.0613)
(1.24089 1.53934 -1.94569)
(1.40769 1.49549 -1.97964)
(-0.282066 2.66943 2.4806)
(-0.537208 2.73032 2.46162)
(-0.230136 2.85171 2.34911)
(-0.641195 2.98566 2.37214)
(-0.206404 2.93724 2.3742)
(-0.413408 2.87622 2.2519)
(-1.02048 2.96204 2.36853)
(-0.674297 2.9903 2.43574)
(-0.452383 3.0073 2.28046)
(-0.0904266 2.91643 2.14015)
(-1.12022 3.03447 2.82322)
(-0.730809 3.2609 2.7249)
(-0.780389 3.07641 2.63735)
(-0.278425 2.9973 2.35418)
(-0.1131 2.99534 1.97411)
(-1.47522 2.60519 2.7898)
(-1.35605 2.63243 2.61258)
(-0.994762 2.82881 2.43267)
(-0.618183 3.02592 2.04595)
(-0.215037 2.99312 1.74461)
(0.109819 3.06449 1.57438)
(-1.41558 2.91733 2.05821)
(-1.95473 2.33646 2.08968)
(-1.27108 2.72142 2.04899)
(-1.22535 2.79019 1.5941)
(-0.478965 2.85202 1.33707)
(-0.0422219 3.14657 1.00645)
(0.309714 3.1198 1.11777)
(-1.39317 2.79744 0.920433)
(-1.48893 2.46916 1.18169)
(-1.38531 2.444 1.02608)
(-1.12013 2.3519 1.0738)
(-0.584664 2.43498 0.801594)
(-0.328595 2.52864 0.690242)
(-0.143926 2.30799 0.802977)
(-0.314501 2.59139 0.807951)
(-1.40033 1.99146 -0.100768)
(-1.31194 1.70076 -0.0122265)
(-0.713115 1.68557 0.361765)
(-0.783241 1.34693 0.359848)
(-1.10476 1.56634 -0.354791)
(-1.13964 1.92317 -0.0204701)
(-0.353347 1.73964 -0.502706)
(-0.238738 1.92684 -0.0386067)
(-0.472201 2.18867 0.240008)
(-0.842386 1.6329 -1.37625)
(-0.53503 1.80083 -1.19976)
(-0.654387 1.51189 -1.23043)
(-0.886413 1.447 -1.33574)
(-0.224812 1.75525 -1.45628)
(-0.470756 1.66719 -1.44776)
(0.329827 1.84921 -1.37204)
(0.216572 1.91132 -1.48193)
(-0.00715715 2.22843 -0.898861)
(0.448281 2.33214 -0.892233)
(-0.412239 1.3612 -1.83688)
(-0.557147 1.12918 -1.84859)
(-0.424596 1.20132 -1.44436)
(-0.52397 1.43381 -1.04132)
(-0.692857 1.17819 -1.09419)
(0.0239376 1.17359 -1.64482)
(0.454833 1.69776 -1.73097)
(0.361636 1.89794 -2.23458)
(0.484366 1.92147 -2.18028)
(0.83651 2.24392 -2.17916)
(0.705685 2.39799 -1.63713)
(-0.178898 0.793545 -1.9806)
(0.323944 0.859206 -1.84981)
(0.307105 0.985338 -1.40272)
(0.208665 1.20056 -1.21987)
(-0.110334 1.1791 -1.3149)
(-0.255139 1.15645 -1.71431)
(0.229854 1.16797 -1.7908)
(0.763918 1.07979 -1.92096)
(1.00286 1.25958 -2.10982)
(1.24627 1.53815 -2.00496)
(1.3393 1.51543 -2.03304)
(1.2214 1.42119 -1.83796)
(-0.132696 2.576 2.45418)
(-0.368178 2.61089 2.45116)
(-0.196108 2.63755 2.3518)
(-0.451006 2.72365 2.48857)
(-0.252374 2.87801 2.33813)
(0.0554546 2.82303 2.32665)
(-0.923316 2.75475 2.42287)
(-0.801778 2.62213 2.53523)
(-0.431147 2.83416 2.23738)
(-0.124806 2.75753 2.25474)
(-1.22977 2.93643 2.36012)
(-0.886799 3.02214 2.38829)
(-0.819505 2.91672 2.31761)
(-0.249893 2.9221 2.20186)
(0.544655 2.79974 2.15086)
(-1.51483 2.95447 2.58562)
(-1.26773 2.99172 2.61425)
(-0.727077 3.19401 2.46622)
(-0.520526 3.03824 2.30523)
(-0.406324 2.92291 2.00844)
(-0.216038 2.94047 1.81596)
(-1.72409 2.66786 2.74672)
(-1.62305 2.54309 2.57503)
(-1.36621 2.73773 2.26822)
(-1.13314 2.97644 1.78522)
(-0.533216 2.97031 1.82183)
(-0.210929 2.99764 1.8401)
(0.133576 3.07412 1.66821)
(-1.42197 2.94887 2.41989)
(-0.337986 3.1917 2.46346)
(-1.1686 2.81225 2.0479)
(-0.998544 2.81232 1.77519)
(-0.79047 2.84009 1.52467)
(-0.323093 3.08147 1.36973)
(0.0607315 3.06255 1.12244)
(0.20829 2.93372 1.32718)
(-1.73811 2.44794 1.20083)
(-1.66353 2.20883 1.27898)
(-1.43637 2.36972 1.07983)
(-1.15776 2.26528 1.20462)
(-0.614621 2.30948 1.11883)
(-0.637692 2.34904 1.08799)
(-0.567005 2.03778 0.675715)
(-0.396147 2.53719 0.92344)
(-0.246194 2.59316 0.543461)
(-1.48453 1.94262 -0.0938331)
(-1.38911 1.65469 -0.0114254)
(-1.09394 1.50227 0.291609)
(-0.882446 1.34188 0.382189)
(-1.13722 1.59243 -0.418126)
(-1.26143 1.90267 -0.248977)
(-0.63793 1.80033 -0.585548)
(-0.739569 1.85931 -0.361404)
(-0.685311 2.21229 0.135494)
(-0.67417 2.21304 -0.61272)
(-0.98099 1.55502 -1.34796)
(-0.964381 1.55246 -1.28796)
(-0.660448 1.52585 -1.28449)
(-0.918837 1.57727 -1.3928)
(-1.05137 1.4786 -1.4276)
(-0.591495 1.69088 -1.43762)
(0.328005 1.88007 -1.3656)
(-0.00896083 1.92955 -1.56196)
(-0.442633 2.18559 -0.963465)
(0.338088 2.48565 -0.87254)
(0.999415 2.33642 -1.13999)
(-0.442392 1.34588 -1.86431)
(-0.619883 1.10044 -1.86927)
(-0.38748 1.20804 -1.47026)
(-0.531735 1.41298 -1.05184)
(-0.551917 1.41419 -0.90551)
(-0.174745 1.16682 -1.6565)
(0.399904 1.6935 -1.82997)
(0.305629 1.92422 -2.21344)
(0.561411 1.92456 -2.18199)
(0.759539 2.23325 -2.22072)
(0.743547 2.37715 -1.54532)
(0.776498 1.98549 -1.56829)
(-0.160112 0.827507 -1.99011)
(0.312025 0.856676 -1.90108)
(0.306305 0.990456 -1.42213)
(0.197314 1.21299 -1.19579)
(-0.117273 1.18487 -1.30028)
(-0.300065 1.13789 -1.70114)
(0.196268 1.14621 -1.80828)
(0.766789 1.08839 -1.9733)
(0.981141 1.25979 -2.1723)
(1.26592 1.55221 -2.07164)
(1.35972 1.48568 -2.06519)
(1.18948 1.41702 -1.88793)
(1.22504 1.48255 -1.79962)
(-0.143148 2.45457 2.46843)
(-0.163583 2.53892 2.45043)
(-0.0449118 2.53286 2.45241)
(-0.514258 2.54832 2.46414)
(-0.183535 2.65376 2.37599)
(-0.0830581 2.64477 2.37643)
(-0.571558 2.715 2.5218)
(-0.421157 2.80658 2.42599)
(-0.290388 2.80889 2.28941)
(0.133288 2.75062 2.2325)
(-1.02259 2.58562 2.59066)
(-0.750312 2.67787 2.48587)
(-0.726303 2.72773 2.29718)
(-0.354001 2.75164 2.1742)
(0.0612901 2.75539 2.16312)
(-1.31113 2.95393 2.32405)
(-0.995387 3.04221 2.3607)
(-0.628742 3.03058 2.2812)
(-0.477646 2.89063 2.24659)
(-0.320781 2.86035 2.14543)
(0.173314 2.87306 1.81077)
(-1.92292 2.64306 2.45318)
(-1.38494 2.94362 2.41189)
(-1.1376 3.00255 2.32845)
(-0.534353 3.11015 2.0682)
(-0.483174 2.93625 2.02017)
(0.312964 2.91002 1.93357)
(0.940526 2.87006 1.60926)
(-2.00188 2.67533 2.77081)
(-1.87513 2.49681 2.56981)
(-1.57595 2.73422 2.16305)
(-1.13047 2.87435 1.76494)
(-0.745714 3.03802 1.63929)
(0.497759 3.31347 1.03521)
(0.136158 2.94343 1.7806)
(0.409964 2.84447 1.70682)
(-1.89491 2.71605 2.75242)
(-2.26525 2.44726 2.40907)
(-1.41517 2.79226 1.93593)
(-1.36631 2.71157 1.85889)
(-0.787888 2.8398 1.69258)
(-0.453465 2.95125 1.39017)
(-0.165906 2.80166 1.36239)
(-0.297277 2.81991 1.30331)
(0.0860235 2.89685 1.05098)
(-1.95986 2.36711 1.27952)
(-1.74245 2.12267 1.27869)
(-1.65264 2.27623 1.13885)
(-1.30351 2.18273 1.29438)
(-0.949205 2.14841 0.990053)
(-0.896686 2.1642 1.1159)
(-0.823239 1.91279 0.266152)
(-0.796329 2.5227 0.999197)
(-0.310349 2.60563 0.511151)
(-0.628094 2.33993 0.334847)
(-1.72088 1.73393 -0.407235)
(-1.5594 1.65045 0.078158)
(-1.25299 1.32807 0.194747)
(-1.03026 1.39125 0.22636)
(-1.18926 1.65481 -0.510332)
(-1.25048 1.93768 -0.477725)
(-0.663675 1.94885 -0.590329)
(-0.805398 1.8619 -0.507556)
(-1.07661 2.14116 -0.178579)
(-0.319036 2.39308 -0.346402)
(0.0257138 2.52935 0.160138)
(-1.05031 1.52933 -1.35003)
(-1.02589 1.48801 -1.30153)
(-0.823366 1.51337 -1.29059)
(-1.00974 1.52393 -1.49618)
(-1.0183 1.46113 -1.43967)
(-0.787182 1.65293 -1.45328)
(-0.226202 1.7514 -1.69818)
(-0.166674 1.97658 -1.57819)
(-0.355351 2.32728 -0.812126)
(0.314396 2.52893 -0.951198)
(0.694418 2.55693 -1.25919)
(0.690566 2.33929 -1.58357)
(-0.463564 1.34036 -1.89808)
(-0.651904 1.06845 -1.90157)
(-0.382889 1.22601 -1.5193)
(-0.561741 1.40409 -1.0701)
(-0.489545 1.42606 -0.889775)
(-0.247709 1.13818 -1.6607)
(0.205314 1.60142 -1.99812)
(0.306833 1.9598 -2.15477)
(0.473854 2.04811 -2.11023)
(0.753096 2.24929 -2.175)
(0.700334 2.36587 -1.4956)
(0.956197 2.0237 -1.40825)
(0.674255 1.96267 -1.66908)
(-0.109201 0.861111 -2.00703)
(0.304806 0.852272 -1.94892)
(0.314991 1.00399 -1.45776)
(0.157011 1.19615 -1.18802)
(-0.154242 1.16784 -1.30483)
(-0.333933 1.12685 -1.70013)
(0.162068 1.13483 -1.83229)
(0.744354 1.07944 -2.05033)
(0.933853 1.24759 -2.26168)
(1.2483 1.5558 -2.18452)
(1.35882 1.51932 -2.07616)
(1.18586 1.41221 -1.88594)
(1.29956 1.51965 -1.72876)
(0.727379 1.52577 -1.81721)
(-0.204587 2.45438 2.54995)
(-0.213111 2.49179 2.44309)
(0.127058 2.39096 2.50698)
(-0.458121 2.45191 2.39554)
(-0.248353 2.45348 2.42204)
(-0.0342382 2.52143 2.44093)
(-0.73176 2.57713 2.50232)
(-0.475746 2.59945 2.46709)
(-0.295543 2.70213 2.39367)
(-0.0541955 2.73896 2.28199)
(-1.04321 2.64349 2.46415)
(-0.630845 2.88694 2.21458)
(-0.341637 2.72359 2.30088)
(-0.212564 2.70241 2.19812)
(0.259044 2.61204 2.25051)
(-1.29262 2.65444 2.4537)
(-0.986301 2.60712 2.43533)
(-0.8054 2.69819 2.30162)
(-0.0714211 2.70709 2.35144)
(-0.318251 2.79771 2.13448)
(0.0793502 2.77017 2.12723)
(-1.54227 2.7624 2.35566)
(-1.30023 2.88164 2.25799)
(-1.11765 2.9868 2.16151)
(-0.610692 2.85487 2.18635)
(-0.449557 2.84681 2.07283)
(-0.0150045 2.89677 1.824)
(0.20886 2.68811 1.88854)
(-1.99035 2.60345 2.40188)
(-1.8904 2.68509 2.26761)
(-1.16825 3.05498 2.04485)
(-0.64038 2.95111 1.98881)
(-0.393211 3.04981 1.94761)
(-0.373753 2.98548 1.81865)
(0.0103764 2.90152 1.84834)
(0.209026 2.86297 1.61712)
(-2.34614 2.59146 2.82134)
(-2.1251 2.64516 2.53231)
(-1.56994 2.87297 2.08023)
(-1.12212 2.83745 1.82777)
(-0.654332 2.85813 1.82529)
(-0.208775 2.82036 2.02339)
(0.208993 2.89862 1.68298)
(5.98033e-05 2.75347 1.85486)
(0.205598 2.85601 1.4901)
(-2.76644 2.16044 2.66742)
(-2.3431 2.27153 2.4348)
(-1.8774 2.45793 2.0317)
(-0.970675 2.84946 1.89492)
(-0.996365 2.69123 1.71869)
(-0.261094 2.71033 1.75955)
(-0.266645 2.56319 1.57876)
(-0.125916 2.73931 1.42238)
(-0.317945 2.77087 1.12841)
(-0.456078 2.50191 1.08529)
(-2.27657 2.2154 1.26532)
(-1.96469 2.07987 1.39801)
(-1.60557 2.30175 1.12305)
(-1.42179 2.04954 1.44741)
(-0.885435 1.98862 0.999281)
(-0.908018 2.03875 1.13094)
(-0.832822 1.94715 0.213013)
(-0.736484 2.353 0.213521)
(-0.913461 2.50516 0.126894)
(-0.730817 2.27474 0.118485)
(0.0431984 2.48908 0.210955)
(-1.86476 1.64484 0.0497902)
(-1.72163 1.56243 -0.155412)
(-1.28549 1.45355 -0.305614)
(-1.09132 1.45364 -0.0318988)
(-1.20106 1.72077 -0.672664)
(-1.2266 2.01386 -0.714118)
(-0.645712 2.00234 -0.760959)
(-0.507038 2.01758 -0.485881)
(-0.901171 2.21089 -0.354507)
(-0.225691 2.48819 -0.327186)
(0.176793 2.63049 -0.170035)
(0.933256 2.64348 -0.667571)
(-1.15933 1.5127 -1.32549)
(-1.08384 1.47184 -1.33684)
(-0.938082 1.50233 -1.26988)
(-1.02134 1.5695 -1.43413)
(-1.05683 1.46784 -1.45105)
(-0.864161 1.61813 -1.52874)
(0.217564 2.14539 -1.1839)
(-0.154117 1.86587 -1.81589)
(-0.492037 2.31422 -0.847823)
(0.175303 2.56592 -1.02574)
(0.605563 2.54833 -1.31253)
(0.717018 2.27626 -1.76025)
(0.174398 2.03357 -1.69878)
(-0.498374 1.31536 -1.95034)
(-0.637585 1.08892 -1.92495)
(-0.355906 1.24974 -1.5838)
(-0.623088 1.37463 -1.09246)
(-0.466164 1.51845 -0.90599)
(-0.319281 1.15521 -1.66071)
(0.154838 1.57297 -2.02987)
(0.322174 2.02368 -2.0773)
(0.392943 2.02438 -2.10129)
(0.730492 2.26098 -2.11307)
(0.698587 2.35738 -1.50335)
(0.677495 1.99899 -1.59006)
(0.609622 1.97796 -1.69885)
(-0.358402 2.00219 -1.06924)
(-0.143734 0.864611 -2.03856)
(0.295853 0.858716 -1.98681)
(0.331035 1.01299 -1.47599)
(0.135726 1.18657 -1.16307)
(-0.190526 1.14573 -1.31298)
(-0.380229 1.11769 -1.70259)
(0.150957 1.12608 -1.86223)
(0.707247 1.06028 -2.13694)
(0.865952 1.22037 -2.3629)
(1.25916 1.56018 -2.29377)
(1.3216 1.50849 -2.13638)
(1.17822 1.41948 -1.86981)
(1.32494 1.50144 -1.70915)
(0.81637 1.56968 -1.7748)
(0.679347 1.41619 -1.43475)
(-0.164253 2.36819 2.62401)
(-0.311365 2.45675 2.54579)
(-0.0563994 2.34508 2.58459)
(-0.443616 2.44649 2.45956)
(-0.160977 2.32861 2.5477)
(0.0610217 2.43416 2.43309)
(-0.576279 2.46192 2.37813)
(-0.437439 2.46316 2.36968)
(-0.211035 2.56537 2.33295)
(0.0666997 2.66441 2.2229)
(-0.951977 2.52766 2.53809)
(-0.795538 2.68224 2.36107)
(-0.446471 2.72684 2.29393)
(0.014655 2.78266 2.17293)
(-0.0603631 2.49967 2.42659)
(-1.18592 2.57899 2.46715)
(-1.06625 2.58306 2.36858)
(-0.500146 2.63342 2.3386)
(-0.374017 2.53013 2.33259)
(-0.240286 2.61874 2.2551)
(0.0318309 2.64763 2.20217)
(-1.46669 2.55689 2.44745)
(-1.15433 2.71114 2.30076)
(-0.890328 2.6397 2.27789)
(-0.670531 2.71339 2.25909)
(-0.324338 2.80303 2.19132)
(-0.2983 2.80424 2.11238)
(0.134514 2.76425 2.01614)
(-1.89389 2.46838 2.38476)
(-1.35015 2.70195 2.41679)
(-1.23927 2.92196 2.1772)
(-0.330051 3.03282 2.17837)
(-0.596362 2.83578 2.04283)
(-0.35021 2.95995 1.9151)
(0.103656 2.77816 1.95282)
(1.07508 2.55598 1.70566)
(-2.12849 2.59563 2.35825)
(-1.8142 2.7782 2.17451)
(-1.50996 2.89406 1.92189)
(-1.03516 2.81752 1.84632)
(-0.719653 3.03575 1.71527)
(-0.662882 3.03332 1.69464)
(-0.196873 2.847 1.88929)
(0.59443 2.74097 1.86678)
(0.215222 2.87075 1.31123)
(-2.39974 2.57626 2.82033)
(-2.16139 2.68026 2.51405)
(-1.76077 2.86961 1.95192)
(-1.35721 2.78939 1.83257)
(-0.722312 2.91829 1.6104)
(-0.499362 3.0327 1.639)
(-0.185836 2.77918 1.74616)
(0.19776 2.68876 1.88297)
(-0.0279574 2.84443 1.46879)
(-0.176302 2.38177 1.57711)
(-2.97392 2.05219 2.54647)
(-2.662 2.12796 2.38868)
(-2.10727 2.42614 1.93165)
(-1.53078 2.58858 1.9131)
(-0.841881 2.63007 1.62735)
(-0.396007 2.74198 1.60773)
(-0.467336 2.49662 1.37809)
(-0.328322 2.60365 0.97352)
(-0.700873 2.67329 1.05358)
(-0.332148 2.51493 0.967149)
(0.189754 2.38576 0.338954)
(-2.29923 2.18039 1.15282)
(-2.09645 2.20469 0.972789)
(-1.88831 2.01758 1.16828)
(-1.40469 1.96755 1.394)
(-0.867903 1.98205 1.00156)
(-0.952205 2.06665 0.765067)
(-0.932746 1.97031 -0.0964918)
(-0.614691 2.42241 0.284794)
(-0.584711 2.53802 -0.00088528)
(-0.951747 2.32828 0.42218)
(0.312396 2.49104 -0.160378)
(0.943145 2.60252 -0.592598)
(-1.96939 1.4704 -0.263375)
(-1.75087 1.40968 0.0649874)
(-1.75439 1.07304 0.442582)
(-1.10206 1.52598 -0.256964)
(-1.16515 1.787 -0.910733)
(-1.0939 2.07498 -1.07376)
(-0.673395 2.048 -0.97831)
(-0.602276 2.12631 -0.581269)
(-1.10322 2.20789 -0.849928)
(-0.527779 2.53992 -1.01418)
(0.158075 2.67574 -0.367022)
(0.695961 2.79376 -0.798554)
(0.249075 2.34763 -0.714054)
(-1.25113 1.49727 -1.31847)
(-1.2017 1.44946 -1.334)
(-1.01106 1.49937 -1.33101)
(-0.968129 1.63762 -1.42855)
(-1.11362 1.47585 -1.45266)
(-0.998625 1.52652 -1.55428)
(-0.220058 1.91079 -1.51217)
(-0.783622 1.72728 -1.85602)
(-0.736991 2.32329 -0.906407)
(0.0827272 2.62436 -1.15158)
(0.539994 2.58157 -1.178)
(0.621578 2.34334 -1.69832)
(0.213347 2.04845 -1.66731)
(-0.0701858 1.85477 -1.15345)
(-0.548201 1.2618 -2.02264)
(-0.656937 1.08186 -1.95484)
(-0.296726 1.29419 -1.61779)
(-0.609477 1.38542 -1.06152)
(-0.587576 1.53231 -1.02985)
(-0.471141 1.16082 -1.65571)
(0.152921 1.58238 -2.00478)
(0.129551 2.02966 -2.05232)
(0.284925 1.99173 -2.12366)
(0.606501 2.23313 -2.13171)
(0.698416 2.37187 -1.55435)
(0.484744 1.9372 -1.73477)
(0.508827 1.99105 -1.76397)
(-0.374206 2.01315 -1.09014)
(0.820824 1.52399 -1.30881)
(-0.133186 0.844292 -2.06805)
(0.3116 0.856506 -1.96339)
(0.338328 1.00651 -1.44567)
(0.115275 1.18627 -1.13437)
(-0.21438 1.13584 -1.30703)
(-0.399802 1.09037 -1.70741)
(0.165029 1.13737 -1.88907)
(0.652364 1.02743 -2.2312)
(0.80412 1.18916 -2.47012)
(1.26033 1.57492 -2.39761)
(1.24441 1.46169 -2.23506)
(1.13589 1.41374 -1.85954)
(1.35424 1.54413 -1.6806)
(0.651216 1.56291 -1.84962)
(0.681979 1.41779 -1.43833)
(1.03892 1.07203 -1.55667)
(-0.168565 2.1633 2.68005)
(-0.166393 2.40371 2.56207)
(-0.0414995 2.2888 2.62847)
(-0.43412 2.40944 2.56358)
(-0.213328 2.35553 2.60053)
(0.051067 2.32527 2.53584)
(-0.737523 2.3648 2.4124)
(-0.41517 2.30563 2.49191)
(-0.10438 2.38925 2.45842)
(0.0901055 2.35234 2.50054)
(-0.765347 2.39014 2.38687)
(-0.45944 2.46205 2.41106)
(-0.363192 2.48283 2.36329)
(-0.0920263 2.56343 2.2771)
(0.0731375 2.3856 2.4868)
(-1.17418 2.40286 2.50631)
(-0.742651 2.54044 2.5007)
(-0.567443 2.69385 2.21309)
(-0.176154 2.57832 2.30805)
(-0.293867 2.49425 2.45223)
(0.0176806 2.43721 2.41257)
(-1.46776 2.41771 2.51582)
(-1.09897 2.55041 2.43736)
(-0.862293 2.4589 2.42994)
(-0.551511 2.53128 2.3103)
(-0.622337 2.62892 2.12903)
(-0.106855 2.65034 2.22119)
(0.224995 2.6847 2.07278)
(-1.48302 2.57999 2.47926)
(-1.48485 2.50499 2.42021)
(-0.929355 2.67784 2.28186)
(-0.848988 2.70222 2.22925)
(-0.664056 2.77974 2.20232)
(-0.195129 2.82166 2.17454)
(-0.00732137 2.75425 2.0559)
(0.245664 2.60821 1.8845)
(-1.84329 2.33224 2.5382)
(-1.63343 2.68568 2.24695)
(-1.38565 2.84789 2.15625)
(-1.22594 2.85569 2.11753)
(-0.544634 2.94734 2.00831)
(-0.443087 2.92622 1.98053)
(-0.201828 2.84227 2.01234)
(0.107488 2.76364 1.74798)
(0.418817 2.5272 1.68075)
(-2.27281 2.47578 2.3287)
(-2.08929 2.48577 2.27667)
(-1.54411 2.86571 1.9227)
(-0.772013 2.87196 2.04195)
(-0.365752 2.99931 1.87807)
(-0.527309 3.00994 1.77526)
(-0.528029 2.82859 1.89047)
(-0.329211 2.81247 1.51269)
(0.174641 2.78732 1.33254)
(0.102063 2.49964 1.51012)
(-2.47876 2.40457 2.78746)
(-2.31808 2.54574 2.4074)
(-1.7256 2.79056 1.91946)
(-0.998987 2.86297 1.80565)
(-0.702094 2.89955 1.63969)
(-0.478706 3.04124 1.43197)
(-0.33899 2.81646 1.64641)
(-0.278356 2.73142 1.59677)
(-0.0990254 2.69234 1.53065)
(-0.167544 2.42213 1.59486)
(0.239684 2.43494 0.531968)
(-2.60174 2.29902 2.70246)
(-2.82886 2.07371 2.3704)
(-2.08854 2.40966 1.93349)
(-1.44837 2.51716 1.95834)
(-0.651954 2.65945 1.46777)
(-0.699281 2.48964 1.64666)
(-0.560243 2.4203 1.41196)
(-0.0272829 2.64577 0.652462)
(-0.684255 2.61234 0.728871)
(-0.432432 2.48131 0.613386)
(0.238472 2.52887 0.202486)
(1.29953 2.48265 0.0706277)
(-2.22401 2.32699 0.880453)
(-1.98873 2.26443 0.931456)
(-1.79293 2.12075 1.08999)
(-1.42144 1.98282 1.30653)
(-0.919109 2.01302 0.852979)
(-0.754648 2.23379 0.791355)
(-0.704191 2.15962 -0.555355)
(-0.66835 2.34841 -0.35065)
(-0.634491 2.55844 -0.151685)
(-0.748992 2.51489 0.0206958)
(0.45589 2.55497 -0.516379)
(0.659294 2.67016 -1.01013)
(0.39473 2.30686 -0.132381)
(-2.07874 1.23333 -0.49254)
(-1.8274 1.29369 0.143275)
(-1.56395 1.43925 0.121435)
(-1.17041 1.60535 -0.420902)
(-0.933499 2.00773 -1.24863)
(-1.03862 2.2039 -1.15751)
(-0.756711 2.16835 -1.16926)
(-0.116069 2.14054 -1.12624)
(-0.730796 2.24069 -0.997435)
(-0.323584 2.86021 -0.299814)
(0.357812 2.7332 -0.492015)
(0.609431 2.7417 -0.885202)
(0.18829 2.35405 -0.66019)
(0.249418 1.78631 -1.16852)
(-1.36628 1.46555 -1.3445)
(-1.33089 1.3707 -1.32975)
(-1.14434 1.52757 -1.33187)
(-1.05385 1.64724 -1.45335)
(-1.18474 1.39448 -1.51124)
(-1.00883 1.50638 -1.49498)
(-0.299337 1.90846 -1.54397)
(-0.379494 1.75513 -1.97383)
(-0.805906 2.29075 -1.08142)
(0.11558 2.67528 -1.21598)
(0.549771 2.62535 -0.99058)
(0.7242 2.36171 -1.45312)
(0.149932 2.04045 -1.50124)
(-0.0833652 1.78047 -1.30558)
(1.10383 1.48946 -0.990518)
(-0.63886 1.15118 -2.11407)
(-0.668518 1.09399 -1.96903)
(-0.281737 1.329 -1.62317)
(-0.591928 1.40976 -1.03169)
(-0.699191 1.45594 -1.11378)
(-0.512563 1.14878 -1.6282)
(0.014915 1.48983 -2.06802)
(0.129324 2.0028 -2.0243)
(0.23759 2.04643 -2.12315)
(0.479115 2.16844 -2.1955)
(0.644304 2.34526 -1.70468)
(0.4652 1.92833 -1.8062)
(0.456559 2.01643 -1.82428)
(-0.353722 2.02317 -1.13735)
(0.880865 1.51547 -1.33985)
(1.15308 0.984101 -1.5294)
(-0.130723 0.849016 -2.08194)
(0.280394 0.817513 -1.88798)
(0.343363 1.00633 -1.39078)
(0.0931626 1.14392 -1.15537)
(-0.233328 1.13519 -1.28751)
(-0.41282 1.08274 -1.71302)
(0.179893 1.16148 -1.91939)
(0.598457 0.986439 -2.32871)
(0.756694 1.16135 -2.58542)
(1.20754 1.54483 -2.52218)
(1.19342 1.42857 -2.28746)
(1.06412 1.38647 -1.85818)
(1.33381 1.56727 -1.71483)
(0.579868 1.53305 -1.88815)
(0.641465 1.41774 -1.44893)
(1.03149 1.07541 -1.55405)
(1.11456 0.330592 -1.64803)
(-0.0458286 2.1035 2.49969)
(-0.106315 2.16206 2.62999)
(-0.0295593 2.11744 2.65781)
(-0.359401 2.26042 2.58278)
(-0.0745677 2.33403 2.5478)
(0.0343953 2.27534 2.55573)
(-0.636962 2.28707 2.57426)
(-0.404063 2.28674 2.61065)
(-0.0162125 2.38787 2.51497)
(0.113248 2.25577 2.58976)
(-0.897112 2.2826 2.44087)
(-0.482213 2.23314 2.52154)
(-0.321962 2.30849 2.44909)
(-0.00424268 2.35237 2.44508)
(-0.0392453 2.30918 2.45492)
(-0.913753 2.39263 2.37225)
(-0.538756 2.44555 2.38805)
(-0.344441 2.5231 2.30288)
(-0.221657 2.50635 2.33464)
(-0.0125588 2.42931 2.45453)
(0.191641 2.55694 2.22718)
(-1.01862 2.34225 2.59552)
(-1.098 2.40102 2.39902)
(-0.672729 2.53788 2.32747)
(-0.486202 2.39045 2.4224)
(-0.25701 2.33648 2.50803)
(-0.108941 2.46797 2.35959)
(0.226705 2.54079 2.15766)
(-1.40228 2.41963 2.57837)
(-1.23664 2.61142 2.34016)
(-0.983902 2.39639 2.42202)
(-0.637057 2.49385 2.32592)
(-0.181096 2.5648 2.34058)
(-0.344955 2.61705 2.24018)
(0.0699493 2.69045 2.09331)
(0.371637 2.60856 1.98146)
(-1.72941 2.36215 2.47473)
(-1.5991 2.42189 2.4087)
(-1.22016 2.55068 2.38108)
(-0.912688 2.70506 2.27377)
(-0.680919 2.7587 2.19783)
(-0.557604 2.7853 2.18817)
(-0.168845 2.76299 2.13937)
(0.00902438 2.72632 1.90597)
(0.142792 2.49919 1.86592)
(-2.04223 2.34641 2.44935)
(-1.80723 2.62215 2.18091)
(-1.54171 2.76946 2.09716)
(-1.32236 2.75015 2.1519)
(-0.893891 2.99651 1.85778)
(-0.454239 2.92574 1.93541)
(-0.352159 2.80018 2.00281)
(-0.166217 2.79349 1.62481)
(0.0563243 2.60799 1.61765)
(0.341602 2.51464 1.5026)
(-2.30571 2.36713 2.45049)
(-2.17178 2.53157 2.16163)
(-1.67131 2.83573 1.98896)
(-1.3962 2.86582 1.87406)
(-1.39585 2.94717 1.45367)
(-0.838346 3.0265 1.52269)
(-0.635782 2.89267 1.86811)
(-0.265273 2.80524 1.52011)
(-0.106828 2.73138 1.39636)
(0.0182126 2.50897 1.54658)
(0.534293 2.43656 0.853826)
(-2.41744 2.48978 2.68381)
(-2.079 2.79359 2.28587)
(-2.02277 2.66445 1.89719)
(-1.84331 2.54286 1.84751)
(-0.90789 2.82209 1.62867)
(-0.961733 2.74437 1.57787)
(-0.453486 2.82031 1.6871)
(-0.193646 2.90687 0.995539)
(-0.339327 2.75054 1.11249)
(-0.306612 2.5173 1.10194)
(0.558277 2.45416 0.993593)
(0.814439 2.41563 0.56426)