/*--------------------------------*- C++ -*----------------------------------*\
  =========                 |
  \\      /  F ield         | OpenFOAM: The Open Source CFD Toolbox
   \\    /   O peration     | Website:  https://openfoam.org
    \\  /    A nd           | Version:  7
     \\/     M anipulation  |
\*---------------------------------------------------------------------------*/
FoamFile
{
    version     2.0;
    format      ascii;
    class       volScalarField;
    location    "1.5";
    object      nut;
}
// * * * * * * * * * * * * * * * * * * * * * * * * * * * * * * * * * * * * * //

dimensions      [0 2 -1 0 0 0 0];

internalField   nonuniform List<scalar> 
18630
(
0.000101376
0.000118742
0.000167526
9.9328e-05
6.57127e-05
0.000109835
0.000117231
0.000150278
8.8052e-05
5.98972e-05
0.00017279
8.82546e-05
0.000171051
9.83193e-05
0.000213084
0.000138926
7.55419e-05
5.15093e-05
0.00010076
4.34767e-05
0.000270085
0.000227073
0.000142283
0.000101018
0.000130212
0.000184592
0.000186854
0.000180794
0.000136719
0.000120655
7.82813e-05
4.95869e-05
8.55789e-05
3.49979e-05
8.5392e-05
0.000248946
0.000313012
0.000296426
0.000155996
0.000160112
0.000146228
0.000174781
0.000148245
0.000141901
0.000180386
0.000227767
0.000147451
0.000137477
0.000143216
0.00010564
4.57071e-05
5.39336e-05
3.46241e-05
4.19948e-05
6.47937e-05
3.34954e-05
0.000646832
0.000328062
0.000432452
0.000305909
0.000337547
0.000253005
0.000147471
0.000167799
0.000100508
4.80268e-05
0.000194554
0.000150526
0.000141415
0.000140339
0.00012211
0.000170409
0.000173027
0.000135372
0.000116892
9.83938e-05
0.000153785
6.15841e-05
5.00827e-05
6.82096e-05
4.44174e-05
4.65269e-05
4.38693e-05
5.07629e-05
0.00122957
0.000847254
0.000313345
0.000104342
0.000470579
0.000448097
0.000329595
0.000365363
0.000227261
0.000227093
0.000167929
8.80879e-05
9.05796e-05
5.47236e-05
0.00014323
0.000173722
0.000151597
0.000134512
0.000108766
9.6089e-05
7.76696e-05
0.000264572
0.000164066
0.000157736
0.00011727
0.000117509
0.000153853
6.40425e-05
7.28626e-05
6.46461e-05
5.91819e-05
4.02248e-05
5.43711e-05
6.58189e-05
0.000101339
0.000169726
0.000499623
0.00121268
0.0013901
0.000832509
0.00048304
0.000393546
0.000296237
0.000279231
0.000348652
0.000329005
0.000402177
0.000221081
0.000226512
0.000184679
0.000147305
0.00013822
0.00010499
0.000110314
9.01944e-05
0.000113448
9.94199e-05
0.000177071
0.000146521
0.00011708
9.79201e-05
7.20631e-05
9.7239e-05
0.0001147
0.000243752
0.000171896
0.00016522
0.000125836
0.0001398
0.000106312
6.3518e-05
5.2114e-05
8.90868e-05
8.20714e-05
7.22264e-05
4.53947e-05
8.06938e-05
0.000116061
0.000165496
0.000181796
1.64176e-05
0.000475281
0.000607189
0.0012397
0.00160062
0.00128409
0.00108461
0.000670412
0.000482271
0.00034923
0.000262378
0.000243351
0.000318088
0.000275251
0.000323792
0.000341657
0.000287432
0.000307237
0.000163265
0.00020774
0.000255593
0.00022002
0.000104321
0.000145854
0.000127623
9.99849e-05
0.000146469
9.29721e-05
0.000145308
0.000140327
0.000131015
9.38065e-05
0.000124847
3.85891e-05
7.8008e-05
0.000144693
0.000127441
0.000214143
0.000182683
0.000158616
0.000145366
0.00013629
5.68097e-05
4.61406e-05
6.38773e-05
8.74003e-05
9.70794e-05
9.91469e-05
8.53596e-05
6.96287e-05
0.000140439
0.000181648
0.000192711
0.000129834
4.43508e-05
4.72336e-05
0.000747742
0.000716612
0.000476837
0.000759971
0.00126765
0.00161457
0.00150267
0.00128669
0.000892291
0.000885309
0.000607358
0.000312095
0.000205127
0.000322057
0.00026817
0.000201568
0.000206046
0.000216774
0.000318549
0.000350555
0.000290504
0.000199395
0.000256373
0.000202088
0.000168877
0.00019008
0.000239758
0.000266283
0.000114049
0.000144135
0.000120282
0.000142498
0.000217998
0.000189575
0.000146593
0.00015133
0.000134906
0.00013272
0.000111483
0.000145604
0.00013037
0.000188604
9.10724e-05
0.000129612
8.5804e-05
0.000226253
0.000201298
0.000162708
0.000130807
7.18181e-05
7.02783e-05
4.43697e-05
9.22756e-05
6.66775e-05
8.45985e-05
8.03835e-05
0.000119442
0.000125908
0.000117073
0.000199304
0.000212586
0.000210532
7.13258e-05
8.10925e-05
6.43816e-05
2.88964e-05
0.000344026
0.000365424
0.000165658
0.000237241
0.000685588
0.000857866
0.00133096
0.00163802
0.00155316
0.00144224
0.00138229
0.00105727
0.000830667
0.00071613
0.000577278
0.000464985
0.000501312
0.000132138
0.000131483
0.000233324
0.000353184
0.000196587
0.000176199
0.000117051
0.000207172
0.00031184
0.000451168
0.000223116
0.000180732
0.000175503
0.0001491
0.000237955
0.000131388
0.000346682
0.00026021
0.00035966
0.000123635
0.000149751
0.00015524
0.000206842
0.000165994
0.000198423
0.000271712
0.0002064
8.29338e-05
0.000129748
0.000138717
0.00018157
0.000174637
0.000225009
0.000291584
0.00016793
0.000100026
0.000154044
0.000100243
0.000224548
0.000193969
0.000122452
0.000108695
4.13257e-05
3.20825e-05
3.98509e-05
0.000102838
6.78426e-05
5.75015e-05
7.92931e-05
7.97984e-05
0.000133252
0.000199488
0.000176214
0.000223573
0.000216098
0.000142566
0.00012126
0.000116612
5.71827e-05
3.61805e-05
2.79779e-05
0.000431507
0.000458938
0.000566727
0.000606632
0.000491611
0.00060908
0.000735785
0.000447389
0.000532924
0.000293869
0.000530871
0.00123771
0.00135169
0.00161944
0.00190542
0.00162489
0.00120897
0.0012002
0.000924363
0.00073437
0.000787974
0.000488504
0.000541199
0.000362355
0.000293267
8.3788e-05
0.000211745
0.000135664
0.000252749
0.000236116
0.000227733
0.000187963
0.000214173
0.000319084
0.000432227
0.000303646
0.000228196
0.000215153
0.000231534
0.000116072
0.000142014
0.000136271
0.000220059
0.000310838
0.000266124
0.000435802
0.000119056
0.000223347
0.000240107
0.000219074
0.000210446
0.0001995
0.000186254
0.000269316
0.000114511
0.000111991
0.000145846
0.000119962
0.000145236
0.000165397
0.000313206
0.000132451
0.000195374
8.99679e-05
0.000166173
0.000113908
9.32736e-05
0.000217936
0.000139562
8.69862e-05
0.000133012
4.97755e-05
0.000122632
0.000110684
9.47501e-05
8.6505e-05
5.51916e-05
5.61985e-05
6.20214e-05
9.68685e-05
0.000175104
0.000255681
0.00021973
0.000207376
0.000138911
8.82191e-05
0.000140268
0.000125193
4.93703e-05
3.60806e-05
2.64293e-05
2.77583e-05
0.000240717
0.000413083
0.000374796
0.000518501
0.000391675
0.000602637
0.000434202
0.000396322
0.000218076
0.000351564
0.000281303
0.000275512
0.00041178
0.000658177
0.000933749
0.00116453
0.00129624
0.00105568
0.00152671
0.00156186
0.00149931
0.00147907
0.00132851
0.000936766
0.000916068
0.000904556
0.000286659
0.000295991
0.000574053
0.000467046
0.0005588
0.000456733
0.000249979
0.000308752
0.000270172
0.000111181
0.000164431
0.000379575
0.000286055
0.000213898
0.000160471
5.7952e-05
0.000290346
0.000284928
0.00030289
0.000247067
0.000360833
0.000251923
0.000102515
0.000138745
0.000231491
0.000254393
0.000207224
0.000325932
0.000182271
0.000377344
0.000329011
0.000159977
0.00019371
0.00023474
0.000247386
0.000157888
0.000136801
0.000317328
0.000264393
0.00014227
0.000162582
0.000112729
0.000145744
8.28387e-05
0.00011014
9.25548e-05
0.000245362
0.000144837
0.000159516
0.000107987
0.000145092
0.000136149
0.000140501
7.71806e-05
0.000207582
9.53015e-05
0.000138336
0.000147654
0.000124747
0.000146443
0.000132878
7.41339e-05
9.02029e-05
6.4674e-05
6.79146e-05
5.9125e-05
4.55441e-05
0.00017046
0.000248315
0.000278375
0.000222142
0.000101797
0.000101449
0.000140801
0.000129572
0.00010227
4.9038e-05
4.29218e-05
2.57424e-05
3.18527e-05
1.92114e-05
0.00032992
0.000297494
0.000265308
0.000286536
0.0003837
0.000369439
0.00031814
0.000401929
0.000464346
0.000394455
0.000498477
0.000434698
0.00037969
0.00045269
0.000293202
0.000234719
0.000439782
0.000625293
0.00032301
0.000431638
0.000552238
0.00112702
0.0013715
0.0015833
0.00125803
0.000891773
0.00144074
0.00166669
0.00107415
0.000909722
0.00123494
0.0013897
0.00102716
0.000893715
0.000406493
0.000648607
0.000457879
0.0003722
0.000440371
0.000407263
0.000650562
0.000480382
0.000579919
0.000305707
0.0003227
0.000362699
0.000122607
0.000268353
0.00039195
0.000427957
0.000209182
0.000147298
0.000209603
0.000216458
0.000260588
0.000399054
0.000253316
0.000366484
0.000332963
0.000154485
0.000119564
0.000196785
0.000229031
0.000215778
0.000292627
0.000258135
0.00018512
0.000364178
0.000228314
0.000197973
0.000187125
0.000168009
0.000216913
0.000256306
9.97864e-05
0.000101665
0.0001263
0.000229252
0.000135292
0.000154235
9.20728e-05
6.96916e-05
0.000147829
8.55737e-05
0.000145491
0.000182153
9.64552e-05
7.34561e-05
6.08617e-05
0.000129804
8.07919e-05
0.000136496
0.000100513
0.000106251
9.55641e-05
0.0001675
0.000111006
0.000197609
0.000183502
0.00019154
0.000162994
0.000154627
7.91982e-05
7.99079e-05
8.48494e-05
5.51063e-05
6.42903e-05
4.88231e-05
4.85771e-05
0.000251775
0.000293035
0.000287768
0.000142783
0.000136607
0.000155689
0.000149026
9.29915e-05
6.60796e-05
5.47331e-05
4.58414e-05
3.16247e-05
2.02054e-05
3.49162e-05
2.45602e-05
0.00054398
0.000518431
0.000902065
0.000271064
0.000466711
0.000270152
0.000223013
0.000391475
0.000486606
0.000394995
0.000271107
0.000588595
0.000559447
0.000409005
0.00036413
0.000371365
0.000590481
0.000504004
0.000365742
0.000121226
0.00032713
0.000492964
0.000224684
0.000437284
0.000636463
0.00055907
0.000568989
0.000299537
0.000766066
0.00124529
0.00133259
0.00134309
0.00174001
0.00182244
0.000993283
0.00120094
0.00102566
0.000996993
0.00102867
0.000840762
0.00071726
0.000918101
0.00118762
0.00148928
0.00149621
0.000742918
0.00067699
0.000605448
0.000401248
0.000587464
0.000851641
0.000773927
0.00049173
0.000462651
0.00032357
0.000238816
0.00030686
0.00023013
0.000313597
0.00041949
0.000299735
0.000415072
0.000275703
0.000213877
0.000239071
0.000312743
0.000231227
0.000182325
0.000301663
0.000278279
0.000376312
0.000281769
0.000136204
9.11787e-05
0.00013102
0.000213949
0.000307877
0.000287508
0.00048227
0.000221951
0.00042099
0.000254629
0.000238909
0.000126133
0.000169343
0.000157862
0.000194154
0.000220653
0.000238696
8.58813e-05
0.000204218
0.000172062
0.000141016
0.000125849
9.71477e-05
7.45397e-05
0.000103803
0.000151931
9.42557e-05
3.84394e-05
0.0001228
0.000174826
0.000126904
8.91756e-05
0.000113723
5.92711e-05
8.90646e-05
9.26625e-05
9.83771e-05
7.53846e-05
0.000101606
0.00012435
0.000150951
0.000212084
0.000184697
0.000194735
0.000181965
0.0001296
9.83452e-05
4.8944e-05
6.58656e-05
4.91381e-05
6.38168e-05
5.24065e-05
5.31591e-05
4.34331e-05
0.000316155
0.000295141
0.00018907
0.000165935
0.000194352
0.000164591
0.000120626
4.82518e-05
2.02203e-05
6.88989e-05
5.20031e-05
4.03424e-05
3.31302e-05
4.26303e-05
3.49438e-05
1.76728e-05
0.000405145
0.000428944
0.000309109
0.000425327
0.000477277
0.00034805
0.000166212
0.000384524
0.000404837
0.000368129
0.000281903
0.000324742
0.000159
0.000485822
0.000399027
0.000339502
0.000348159
0.000325402
0.00039612
0.000367205
0.000280268
0.000290907
0.00047476
0.00064268
0.000392822
0.000128432
0.000461077
0.000316508
0.000385967
0.000582179
0.000307527
0.000525043
0.000383709
0.000757031
0.000975078
0.0013818
0.00045521
0.000570997
0.0010983
0.00147394
0.0014972
0.00151551
0.00148811
0.00119922
0.00112167
0.00157189
0.00108909
0.000876103
0.000908304
0.00105915
0.000793776
0.000414676
0.000723532
0.00136386
0.000798731
0.00111118
0.000878371
0.000458202
0.000390555
0.0005315
0.000437663
0.000690205
0.000657185
0.000590404
0.000527742
0.000681556
0.00037915
0.000374029
0.000282437
0.000208215
0.00057072
0.000684224
0.000605324
0.000328636
0.000455317
0.000289975
0.000219479
0.000234892
0.000236744
0.0003985
0.000357863
0.000346188
0.000252768
0.000416744
0.000238871
0.000237633
0.000166426
7.43577e-05
0.000101748
0.000128555
0.000374543
0.000452966
0.000174184
0.000159865
0.000400253
0.000186978
0.000215795
0.000164716
0.00015278
0.000165824
0.000194639
0.000224853
0.000212757
0.000362824
0.00017334
0.000161134
0.000174793
0.000167751
0.00012013
8.42806e-05
0.000106771
0.00011207
9.86713e-05
0.00015847
8.29017e-05
6.68965e-05
6.46564e-05
5.53993e-05
4.46017e-05
9.10519e-05
0.000122612
0.000100915
0.000110383
6.75589e-05
7.29669e-05
6.09295e-05
7.68986e-05
8.40731e-05
9.2549e-05
0.000168002
0.000197658
0.000171999
0.000155358
0.000165665
0.000124371
9.35994e-05
6.99032e-05
7.08174e-05
6.32242e-05
5.81098e-05
5.03882e-05
5.12578e-05
4.62786e-05
4.07915e-05
0.000308331
0.000153956
0.000166169
0.000216396
0.000202267
0.000134228
9.04667e-05
1.47217e-05
3.36295e-05
6.65608e-05
3.92349e-05
5.11215e-05
5.72536e-05
2.43325e-05
2.06944e-05
3.10771e-05
1.87295e-05
0.000419343
0.00035062
0.000308534
0.000516809
0.000200987
0.000297237
0.000567396
0.000407685
0.000357241
0.000473635
0.000276969
0.000336172
0.000354587
0.000460495
0.000229628
0.00037167
0.000279836
0.000308581
0.000162444
0.000336251
0.000432737
0.000422691
0.000353317
0.000329226
0.000396041
0.00037498
0.000353182
0.000674605
0.000287427
0.000319128
0.000274981
0.000488497
0.000545362
0.000416697
0.000144738
0.000205999
0.000481293
0.000571357
0.000344927
0.00058711
0.000607723
0.000709252
0.000621122
0.00084507
0.0015458
0.00162852
0.000273664
0.000728714
0.00103685
0.00124162
0.00152916
0.00155186
0.000995345
0.000821319
0.000799317
0.000923621
0.00136883
0.00153898
0.000861606
0.000885658
0.00105007
0.000867498
0.00083403
0.000580132
0.000504805
0.00127793
0.000620266
0.000519001
0.000753406
0.000822914
0.000358586
0.000654113
0.000223881
0.000371752
0.000339104
0.000266919
0.000564297
0.000762377
0.000592844
0.000346072
0.00028964
0.000329671
0.000448891
0.000582361
0.000658007
0.000294938
0.000319645
0.000157114
0.000449854
0.00032324
0.000147276
0.00024711
0.000267612
0.000396177
0.000398252
0.000408052
0.000347626
0.000569502
0.000273157
0.000243903
0.000189002
0.000161711
9.71675e-05
8.39606e-05
0.000125768
0.000443484
0.000473041
0.000440714
0.000176533
0.000335274
0.000287796
0.000243251
0.000212784
0.000169156
0.000145211
0.000152658
0.00020593
0.000216807
0.000214625
0.000274712
0.000262953
0.00014953
0.000146816
0.000167865
0.00010749
0.000137413
0.000103154
0.000128425
9.13058e-05
9.65681e-05
0.000186176
0.000105072
0.000118677
7.56338e-05
6.81942e-05
3.42006e-05
8.71164e-05
9.92858e-05
0.00011451
0.000102943
9.66011e-05
5.89747e-05
8.018e-05
7.75928e-05
8.02414e-05
6.7824e-05
0.000122079
0.000137416
0.000175543
0.000153742
0.00012387
0.000132846
0.000126465
6.55102e-05
7.33978e-05
8.15934e-05
6.39372e-05
4.98622e-05
4.81223e-05
4.91171e-05
4.73748e-05
4.17023e-05
3.48086e-05
0.000175066
0.000207121
0.000242885
0.000225401
0.000165971
0.000105989
7.57422e-05
2.93633e-05
3.24226e-05
4.62945e-05
2.30623e-05
4.07656e-05
2.70592e-05
4.36749e-05
2.27243e-05
2.97873e-05
1.98396e-05
1.51185e-05
0.000508905
0.000398982
0.00042686
0.000348683
0.000334309
0.000348549
0.00049966
0.000344635
0.000305129
0.000241247
0.000538618
0.000513818
0.000673402
0.000282646
0.000209843
0.000243992
0.000376559
0.0004598
0.000483239
0.000414232
0.00022068
0.000298708
0.000331732
0.000320439
0.000348728
0.000350046
0.000414573
0.000460833
0.000623423
0.000319184
0.000539862
0.000243611
0.000248564
0.00039986
0.000728784
0.000635123
0.000595227
0.00057352
0.000439188
0.000647134
0.000487417
0.000815848
0.00039857
0.000321419
0.000335474
0.000573249
0.000683491
0.000957858
0.000215744
0.000575715
0.000579038
0.000866628
0.000950289
0.00116637
0.00146132
0.00149058
0.00142115
0.000520514
0.000746626
0.00119573
0.00124978
0.00124345
0.00121693
0.00110871
0.000980446
0.000345286
0.000377721
0.00091977
0.000984465
0.000781066
0.00113969
0.00146737
0.00146751
0.000915621
0.000727614
0.00122504
0.000701566
0.000248821
0.000677841
0.000522552
0.000649547
0.000766683
0.00131511
0.00097241
0.000612012
0.000459804
0.000222103
0.00038378
0.000345798
0.000286644
0.000793874
0.000896301
0.00094458
0.000664532
0.000756795
0.000195714
0.000320616
0.000663611
0.000777884
0.000193165
0.000282752
0.000210311
0.000180701
0.000454711
0.000306725
0.000171982
0.000256611
0.000250645
0.000283129
0.00044156
0.000540713
0.000372681
0.000400632
0.000276631
0.000202986
0.000243703
0.000183729
0.000166727
0.000118425
0.000125808
0.000222
0.000150985
0.000457948
0.000411365
0.000206582
0.000274225
0.000280398
0.000167635
0.000241319
0.000161443
0.000150311
0.000134818
0.000162415
0.000210867
0.000186955
0.000250284
0.000183335
0.000282765
0.000212757
0.000164753
0.000149638
0.000109906
0.000129859
0.000140185
0.000125158
0.000109812
8.70015e-05
0.000109757
0.000152877
0.0001259
0.000125562
8.57906e-05
7.86836e-05
3.5638e-05
6.83508e-05
7.91457e-05
9.6253e-05
9.72336e-05
8.62937e-05
9.21672e-05
8.37968e-05
7.17605e-05
7.67329e-05
7.50583e-05
6.05711e-05
0.000200354
0.000137099
0.000123957
0.000121069
0.00010714
9.31075e-05
0.000101937
4.58869e-05
4.63511e-05
3.78751e-05
3.41577e-05
5.50102e-05
5.52242e-05
4.97655e-05
4.61376e-05
4.34327e-05
3.56354e-05
3.39244e-05
0.000289361
0.000313711
0.000262889
0.000190632
0.000131867
7.03676e-05
5.67694e-05
4.98791e-05
3.64071e-05
1.59881e-05
2.79485e-05
2.36253e-05
4.02349e-05
5.67011e-05
4.85412e-05
1.50993e-05
2.08713e-05
1.55813e-05
1.28102e-05
0.000830245
0.000597232
0.000575407
0.000417094
0.000454337
0.000380662
0.00042184
0.000450839
0.000401544
0.000380425
0.000440659
0.000387443
0.000377644
0.000335485
0.00048266
0.000467546
0.000501839
0.000496584
0.00038496
0.000416114
0.000205968
0.000304077
0.000266761
0.000397819
0.000386686
0.000452407
0.000305425
0.000278223
0.00035819
0.000305908
0.000231476
0.000419634
0.000294944
0.000382467
0.000446202
0.000506257
0.000408514
0.000400194
0.000628001
0.000730912
0.000108591
0.000234405
0.000581727
0.000450804
0.000401229
0.000427678
0.000552558
0.000545386
0.000273344
0.000977871
0.000822965
0.000421958
0.000487881
0.000392956
0.000264485
0.000267669
0.000771594
0.00100661
0.00116613
0.000437335
0.000194415
0.000464041
0.000825768
0.000932552
0.0010999
0.00131489
0.00129452
0.000988371
0.000692599
0.000204076
0.000541862
0.00096401
0.00119019
0.00121726
0.00143079
0.00122018
0.000947704
0.000782372
0.000621304
0.000537242
0.00103082
0.00114135
0.00103258
0.000799686
0.00126998
0.00139377
0.00153929
0.000929599
0.000752029
0.000664185
0.000589208
0.000276638
0.000992426
0.00120727
0.0013061
0.00113073
0.000788122
0.0015237
0.00111554
0.000646923
0.000816245
0.000632773
0.000291324
0.000305474
0.000258268
0.00073163
0.000836585
0.000701457
0.000541587
0.000644953
0.000707396
0.000347875
0.000472196
0.000928361
0.000328918
0.000247751
0.000263799
0.000211374
0.000166615
0.00039777
0.000257584
0.000293654
0.000478348
0.000508127
0.000323103
0.000315937
0.000479734
0.000540904
0.00054487
0.000264259
0.00013082
0.000225529
0.000196409
0.000179081
0.000197888
0.000141559
0.000224861
0.000165662
0.000232194
0.00018461
0.000363317
0.000275798
0.000290417
0.000312055
0.000154126
0.000124301
0.000185853
0.000146915
0.000149805
0.000128459
0.000139941
0.000221087
0.000185372
0.00026753
0.000223442
0.000216162
0.000280073
0.000204553
0.000157894
0.000145281
0.000119187
0.000120198
9.68739e-05
0.000123198
9.53653e-05
9.02666e-05
0.000106739
0.000152973
0.000111976
0.000123799
0.000118915
5.90932e-05
5.3265e-05
7.14312e-05
7.17085e-05
0.000118385
0.00010085
8.55285e-05
9.24839e-05
9.28655e-05
6.64906e-05
6.59115e-05
7.50587e-05
6.39679e-05
5.6407e-05
0.000273199
0.000166281
7.363e-05
9.69285e-05
8.04057e-05
6.87993e-05
6.87352e-05
6.1198e-05
6.10878e-05
6.43091e-05
0.00010632
3.1261e-05
5.98142e-05
4.76722e-05
4.4352e-05
4.45237e-05
3.69207e-05
3.42899e-05
3.08521e-05
0.000400759
0.000348552
0.000219314
0.000121795
0.00011768
6.997e-05
2.68463e-05
2.75538e-05
1.72258e-05
3.2268e-05
4.74176e-05
2.81521e-05
5.84286e-05
3.88701e-06
1.80656e-05
3.70162e-05
1.79416e-05
1.50499e-05
1.31241e-05
1.13397e-05
0.00131158
0.000843192
0.000933941
0.000539709
0.000482686
0.000590602
0.000447198
0.000438956
0.000372469
0.000431438
0.000456278
0.000425113
0.000335487
0.000366167
0.000306473
0.000400318
0.000210566
0.000293271
0.000261954
0.000302599
0.000516355
0.000393207
0.000533283
0.000468066
0.000372568
0.000366125
0.000276517
0.000330459
0.000367675
0.000490483
0.000482002
0.000339711
0.000447977
0.000292357
0.000282163
0.000277483
0.000334048
0.000480826
0.000305419
0.000343926
0.000439901
0.000335175
0.000307662
0.000455413
0.000455019
0.000500679
0.000412796
0.000358274
0.000366513
0.00074108
0.000465788
0.000326867
0.000296094
0.00028332
0.000392527
0.00030129
0.000191509
0.000315042
0.000948717
0.000844101
0.00108233
0.000308727
0.000217677
0.0005295
0.000247234
0.000255721
0.00060509
0.000735201
0.00111592
0.00119013
0.00130249
0.000654566
0.000728322
0.000831891
0.000987002
0.00118053
0.00149038
0.00141247
0.00123651
0.00103815
0.000567889
0.000369801
0.000372115
0.000593901
0.000993081
0.00165464
0.00150953
0.00127166
0.00124331
0.000740195
0.000383588
0.000630471
0.000700447
0.000467144
0.00110199
0.00110667
0.00105775
0.000738655
0.000688292
0.00110434
0.00133915
0.00109769
0.000859189
0.000639122
0.000574015
0.000417111
0.000297501
0.000979754
0.000918618
0.00111498
0.000806507
0.00115822
0.000687174
0.000871919
0.000967235
0.000844896
0.000568007
0.000516265
0.0003562
0.000267075
0.000276809
0.000995492
0.000946127
0.000736482
0.000768278
0.000709537
0.000885821
0.000689597
0.00040406
0.000269094
0.000158533
0.000374116
0.000306061
0.000237152
0.000193564
0.000202795
0.000325025
0.000274858
0.000283494
0.000411786
0.000447353
0.000473637
0.000231392
0.000394479
0.000583934
0.000548872
0.000292405
0.000202226
0.000172641
0.000212358
0.000206909
0.00019195
0.000188839
0.000167872
0.000185459
0.00017265
0.000143951
0.000121294
0.000256616
0.000311481
0.000309287
0.000283269
0.000125994
0.000165704
0.000186152
0.000160974
0.000149482
0.000143492
0.000132473
0.000212386
0.000195202
0.000190601
0.000217125
0.00018098
0.000140564
0.000211737
0.000188866
0.00018075
0.000187989
0.000119681
0.000107178
0.000111872
9.62073e-05
0.000110806
0.000101932
0.000102448
9.61919e-05
0.000186737
0.000119118
0.000104377
0.00011264
9.62858e-05
7.19265e-05
7.13103e-05
7.55392e-05
0.000135868
9.77245e-05
0.000111387
6.2434e-05
4.88491e-05
7.56116e-05
7.50792e-05
7.28864e-05
6.75035e-05
5.89743e-05
5.25406e-05
0.000306809
0.000193869
8.24705e-05
6.9442e-05
6.26148e-05
5.33157e-05
5.67542e-05
6.92963e-05
3.86192e-05
8.62472e-05
6.0045e-05
7.67965e-05
2.15017e-05
4.28344e-05
4.32414e-05
4.27529e-05
3.82941e-05
3.43501e-05
3.12087e-05
2.72783e-05
0.000415633
0.000315227
0.000157637
6.98926e-05
9.14419e-05
0.000120906
4.62676e-05
2.61601e-05
4.92277e-05
2.793e-05
2.72535e-05
4.63289e-05
1.65918e-05
7.85158e-05
2.01902e-05
3.51077e-05
1.95167e-05
1.47147e-05
1.29998e-05
1.15248e-05
1.0183e-05
0.00123378
0.00121278
0.00122974
0.000724883
0.000680434
0.000899252
0.000529091
0.000555662
0.00053447
0.000584745
0.000444862
0.000496307
0.00038038
0.000446466
0.000433041
0.000306053
0.000356288
0.000348445
0.00048557
0.000391603
0.000300932
0.000412865
0.00031009
0.000322183
0.000406474
0.000481925
0.000336528
0.00050787
0.000355501
0.000484141
0.000542467
0.000622947
0.000311179
0.000260863
0.000257847
0.000201902
0.000333831
0.000399373
0.000397056
0.000382638
0.000350648
0.000303762
9.12777e-05
0.000278904
0.000374647
0.000419172
0.000309709
0.000399794
0.000329978
0.000483371
0.000617447
0.000437014
0.000397678
0.000381949
0.000390566
0.000522585
0.000581169
0.000394569
0.000953886
0.000587984
0.000294953
0.000451857
0.000814106
0.000338174
0.000377194
0.000463535
0.000323832
0.00016224
0.00044024
0.000472457
0.000835464
0.000810089
0.00124327
0.000553004
0.000695547
0.000257776
0.00031764
0.000356187
0.000620979
0.000896845
0.00119219
0.00124428
0.00112175
0.0010148
0.00047314
0.000342151
0.000470161
0.00109185
0.00107715
0.00145817
0.0016528
0.000952913
0.000655661
0.00057671
0.00019689
0.000258585
0.000526385
0.000790334
0.00111778
0.00111601
0.000969677
0.00118255
0.000624149
0.000864456
0.000662435
0.000405446
0.000429394
0.000510043
0.000282101
0.00087967
0.00108716
0.0011797
0.00107711
0.00110971
0.0011797
0.000703492
0.00061072
0.000738545
0.000443661
0.000447344
0.000440996
0.000436437
0.000283835
0.000848877
0.000533648
0.000641942
0.000832519
0.000818927
0.000941978
0.000445187
0.000894782
0.000529454
0.000729916
0.000460531
0.000333901
0.000301252
0.000300602
0.000263212
0.000992991
0.000910222
0.000831879
0.000550293
0.000740868
0.000715102
0.00085453
0.000578294
0.000454234
0.000293353
0.000381556
0.000338687
0.00026797
0.000234814
0.000215375
0.000225698
0.000281415
0.00026012
0.000332329
0.000392538
0.000419557
0.000614768
0.000436143
0.000322771
0.000415508
0.000485062
0.000377551
0.000283794
0.000184994
0.000191653
0.000179112
0.000200787
0.000182408
0.000163372
0.000172221
0.000144255
0.000454988
0.000299411
0.000213537
0.000275568
0.000305665
0.000348569
0.00018225
0.000155181
0.000193245
0.000150665
0.000153868
0.00015798
0.000136905
0.00013702
0.000125995
0.000263338
0.00022798
0.000200025
0.000146507
0.000174745
9.94787e-05
0.000174783
0.000185095
0.000193379
0.000217428
0.000134616
0.000163245
0.000104508
0.00014581
0.00011882
0.000107703
0.000101949
9.79543e-05
8.65881e-05
0.000198541
0.000114089
8.03992e-05
0.000104535
0.000106049
7.60503e-05
6.69784e-05
8.02017e-05
8.64509e-05
0.000155291
6.67788e-05
9.57516e-05
0.00012766
7.90098e-05
8.07151e-05
7.72475e-05
7.00278e-05
6.13984e-05
5.50747e-05
4.93552e-05
0.000273332
0.000216497
0.000110147
5.63273e-05
5.8941e-05
5.00113e-05
4.09818e-05
7.19735e-05
5.80423e-05
3.43336e-05
4.31736e-05
6.75777e-05
8.48866e-05
4.13526e-05
4.14388e-05
4.17302e-05
3.906e-05
3.44541e-05
3.14748e-05
2.76368e-05
2.50751e-05
0.000346434
0.000241139
0.000104453
3.48377e-05
2.9168e-05
0.000124533
6.63471e-05
4.10906e-05
5.69462e-05
1.34203e-05
1.79445e-05
4.99062e-05
2.74237e-05
4.70864e-05
6.45185e-05
1.43142e-05
1.9386e-05
1.51609e-05
1.37776e-05
1.17141e-05
1.0491e-05
1.12204e-05
0.000147995
0.00251233
0.00131872
0.00103409
0.00122333
0.00106048
0.00115739
0.000808547
0.000704463
0.000700116
0.000840593
0.000516672
0.000550052
0.000502782
0.000560813
0.000672746
0.000464735
0.000470272
0.000376224
0.00042006
0.000481696
0.000521789
0.000410532
0.000382506
0.000267532
0.000405192
0.000471008
0.000406043
0.000302595
0.000419391
0.000318136
0.000373065
0.000365568
0.000441852
0.000352426
0.000338231
0.000340851
0.000316836
0.000362584
0.000450967
0.000546396
0.000329078
0.000229755
0.000313914
0.000292775
0.000272471
0.000429009
0.000365562
0.000533463
0.000445971
0.00040719
0.000255591
0.000283987
7.42112e-05
0.000374446
0.000397079
0.000367371
0.000665963
0.000440805
0.000301537
0.00057495
0.000102833
0.000382117
0.000618625
0.00063465
0.000769226
0.000462184
0.000549022
0.000573855
0.000509915
0.000382495
0.000190694
0.00131637
0.000577521
0.000624776
0.00109034
0.000772826
0.000516766
0.000255558
0.000410973
0.000368958
0.000698193
0.000673872
0.000729918
0.000947478
0.000891165
0.00115202
0.000422493
0.000554919
0.000689044
0.000432671
0.000612261
0.000996991
0.00120572
0.00104023
0.00111223
0.0010177
0.00101172
0.000647176
0.000291218
0.000556536
0.000795869
0.000898505
0.00204247
0.00110249
0.00133298
0.000988271
0.0006694
0.0004021
0.000327679
0.000349741
0.000261067
0.000438583
0.000886259
0.00100691
0.00100334
0.000772316
0.000980214
0.00104111
0.00143872
0.00115258
0.000776764
0.00039062
0.000474067
0.000349763
0.00036548
0.00116015
0.000863468
0.000762503
0.000368484
0.00102493
0.00113531
0.000810457
0.000552061
0.00106699
0.000921652
0.000605084
0.000474618
0.000427184
0.000317704
0.00034925
0.000959434
0.000671576
0.000967072
0.00119299
0.00106301
0.00107318
0.000528595
0.000629447
0.00121992
0.000567062
0.000473035
0.000269397
0.00021675
0.000299254
0.000315958
0.000265949
0.000974058
0.00101646
0.000868736
0.000890387
0.000797738
0.000816502
0.000801272
0.000978829
0.000547636
0.000396386
0.000394503
0.000382513
0.000264019
0.000243571
0.000183681
0.000241214
0.000261892
0.000290143
0.000322223
0.000259049
0.000309029
0.000582734
0.000615034
0.00099013
0.000459977
0.00068265
0.000604338
0.000413193
0.000215522
0.000193485
0.000227188
0.000213918
0.000200658
0.000201467
0.000187242
0.00019322
0.000196519
0.000142676
0.000434067
0.00049856
0.000357612
0.000383631
0.000426822
0.000356464
0.000122927
0.000181443
0.000138365
0.000140958
0.000168009
0.000167757
0.000161106
0.000137015
0.000131181
0.00012189
0.000163813
0.000222721
0.000181888
0.000167293
0.000119201
9.36636e-05
0.000141729
0.000194324
0.00023064
0.000199192
0.000160845
0.000126468
8.72761e-05
9.29996e-05
9.8356e-05
0.000109029
0.00010152
9.84592e-05
8.81303e-05
7.76509e-05
0.000218812
0.000130474
6.86437e-05
8.7098e-05
7.2243e-05
7.63114e-05
7.08397e-05
8.48198e-05
9.2116e-05
0.000107575
0.000123888
9.78211e-05
7.12768e-05
9.09186e-05
7.14028e-05
7.81598e-05
7.30459e-05
6.63559e-05
5.57199e-05
5.04813e-05
4.22524e-05
0.000246524
0.000192234
0.000124797
6.20832e-05
6.07369e-05
4.82453e-05
5.38894e-05
9.09566e-05
6.89641e-05
8.00273e-05
7.50408e-05
1.77004e-05
4.48476e-05
5.20201e-05
4.2788e-05
4.19818e-05
3.91209e-05
3.50202e-05
3.23841e-05
2.80771e-05
2.60854e-05
2.2365e-05
0.000159812
0.000232118
0.000143501
5.33025e-05
2.71244e-05
2.98449e-05
6.33811e-05
5.33958e-05
3.99728e-05
5.80166e-05
4.44633e-05
4.51337e-05
1.64937e-05
6.48409e-05
5.82483e-05
2.39136e-05
3.57835e-05
1.67236e-05
1.51273e-05
1.33944e-05
1.21214e-05
1.06169e-05
1.10147e-05
1.29784e-05
0.000114282
0.00233725
0.00237734
0.0010172
0.0010309
0.000941177
0.00125431
0.00129748
0.00124682
0.0010374
0.000804868
0.000840956
0.000854046
0.000686233
0.000848269
0.000553615
0.000502606
0.000494499
0.000548677
0.000469376
0.000619444
0.000452195
0.000410496
0.000370435
0.000326529
0.000427192
0.000427096
0.000516749
0.000359924
0.000469276
0.000404421
0.000343691
0.000372133
0.000495026
0.000264716
0.00035888
0.000416326
0.00041249
0.000325163
0.000336151
0.000403297
0.000484857
0.000430187
0.000352854
0.000401831
0.000419913
0.000444206
0.000680313
0.000489
0.000279154
0.000306972
0.000418039
0.000253504
0.000468167
0.000343578
0.000425758
0.000470957
0.000715505
0.00040957
0.000530972
0.000332155
0.00047299
0.00105741
0.000333767
0.000419478
0.000417673
0.000469021
0.000432242
0.00034812