/*--------------------------------*- C++ -*----------------------------------*\
  =========                 |
  \\      /  F ield         | OpenFOAM: The Open Source CFD Toolbox
   \\    /   O peration     | Website:  https://openfoam.org
    \\  /    A nd           | Version:  7
     \\/     M anipulation  |
\*---------------------------------------------------------------------------*/
FoamFile
{
    version     2.0;
    format      ascii;
    class       volScalarField;
    location    "1.5";
    object      p;
}
// * * * * * * * * * * * * * * * * * * * * * * * * * * * * * * * * * * * * * //

dimensions      [0 2 -2 0 0 0 0];

internalField   nonuniform List<scalar> 
18630
(
-54.6139
-54.1027
-54.6455
-54.1182
-53.7702
-54.1189
-53.7084
-54.6642
-54.1414
-53.7218
-53.4757
-53.7878
-53.4252
-54.1453
-53.736
-53.3621
-54.6751
-54.1675
-53.7335
-53.3484
-53.3133
-53.4895
-53.1781
-53.8078
-53.4373
-53.1143
-54.1707
-53.7605
-53.3925
-53.0436
-54.6954
-54.1938
-53.7476
-53.3635
-52.9553
-53.0628
-53.3208
-52.9718
-53.4949
-53.195
-52.8943
-53.8297
-53.4539
-53.129
-52.8352
-54.1802
-53.7994
-53.4197
-53.0695
-52.7289
-54.7265
-54.2183
-53.7573
-53.3785
-52.9638
-52.5466
-53.244
-53.0379
-52.8607
-53.3329
-52.9785
-52.7006
-53.5104
-53.2048
-52.91
-52.6211
-53.8477
-53.474
-53.153
-52.8526
-52.5459
-54.2269
-53.833
-53.4418
-53.093
-52.749
-52.4161
-54.7506
-54.2477
-53.7688
-53.3909
-52.9706
-52.5529
-52.1986
-52.7352
-53.2093
-52.9182
-53.0144
-52.8338
-52.593
-53.34
-52.9833
-52.7016
-52.4698
-53.5218
-53.2207
-52.9277
-52.6478
-52.3901
-53.8661
-53.5032
-53.1789
-52.8725
-52.5644
-52.2772
-54.2629
-53.8533
-53.4753
-53.1209
-52.774
-52.4376
-52.1185
-54.7675
-54.2765
-53.7844
-53.3974
-52.978
-52.5622
-52.2075
-51.8884
-52.8011
-52.5896
-52.6364
-53.1654
-52.8035
-52.4306
-52.9871
-52.8115
-52.5819
-52.3252
-53.3363
-53.0018
-52.7082
-52.4838
-52.2275
-53.5314
-53.2345
-52.9479
-52.6741
-52.4091
-52.1451
-53.8941
-53.5318
-53.2063
-52.8968
-52.59
-52.3004
-52.0152
-54.2659
-53.8813
-53.5059
-53.1508
-52.7992
-52.4589
-52.1327
-51.8353
-54.785
-54.3002
-53.7983
-53.403
-52.9894
-52.5749
-52.2189
-51.8974
-51.5868
-51.3095
-52.6981
-52.7129
-52.4499
-52.3713
-52.1143
-53.1001
-52.6804
-52.3631
-52.1537
-52.9592
-52.7611
-52.5514
-52.3122
-52.0768
-53.3381
-53.0173
-52.7242
-52.4979
-52.2365
-51.9956
-53.5511
-53.2443
-52.9699
-52.7023
-52.437
-52.1682
-51.9047
-53.9187
-53.564
-53.2369
-52.9234
-52.6183
-52.3248
-52.0367
-51.7716
-54.3094
-53.9085
-53.5321
-53.1767
-52.8234
-52.4769
-52.1494
-51.8523
-51.5745
-54.8032
-54.3195
-53.8191
-53.4118
-53.004
-52.5882
-52.2313
-51.9059
-51.5928
-51.3152
-50.4149
-51.2272
-51.2604
-52.5865
-52.2697
-52.002
-52.3224
-52.1514
-52.0534
-52.1011
-52.9937
-52.6301
-52.28
-52.1017
-52.0219
-52.9271
-52.7468
-52.5298
-52.316
-52.064
-51.8359
-53.3382
-53.0315
-52.7399
-52.5197
-52.262
-52.0096
-51.7671
-53.5707
-53.2618
-52.9936
-52.732
-52.4677
-52.1977
-51.9331
-51.6853
-53.9426
-53.5986
-53.2737
-52.9551
-52.6477
-52.3545
-52.0614
-51.7958
-51.5472
-54.3542
-53.9434
-53.5592
-53.2027
-52.846
-52.4949
-52.1677
-51.8703
-51.5906
-51.3216
-54.8234
-54.3372
-53.8451
-53.4261
-53.0196
-52.6021
-52.2427
-51.9148
-51.5986
-51.3204
-51.0512
-49.6577
-50.6001
-50.7398
-51.184
-51.241
-51.2938
-52.4504
-51.9543
-51.8001
-51.7135
-52.3117
-52.246
-52.0243
-51.9825
-51.7785
-52.9521
-52.4707
-52.2381
-52.067
-52.0154
-51.7898
-52.9255
-52.7338
-52.5193
-52.3276
-52.0713
-51.8271
-51.6106
-53.3457
-53.0476
-52.7585
-52.5391
-52.2982
-52.0321
-51.803
-51.5527
-53.5931
-53.2831
-53.0229
-52.7624
-52.5013
-52.2336
-51.9644
-51.7126
-51.5142
-53.9775
-53.6377
-53.3138
-52.9914
-52.6825
-52.3853
-52.0869
-51.8221
-51.561
-51.3123
-54.3854
-53.9793
-53.5868
-53.2283
-52.8691
-52.5153
-52.188
-51.8893
-51.6074
-51.3355
-51.0795
-54.8576
-54.3575
-53.8681
-53.4452
-53.0359
-52.6159
-52.253
-51.9228
-51.6048
-51.3255
-51.0557
-50.799
-48.7149
-49.0848
-49.6375
-49.7891
-50.5458
-50.6587
-50.4885
-51.1034
-51.1203
-51.2779
-51.7476
-52.3159
-51.712
-51.5257
-51.4721
-51.386
-52.4042
-52.2829
-51.9299
-51.8398
-51.5639
-51.4493
-52.9321
-52.4649
-52.1311
-52.0868
-51.9792
-51.7916
-51.4458
-52.8979
-52.7136
-52.5051
-52.3332
-52.0764
-51.8496
-51.6214
-51.366
-53.3594
-53.066
-52.778
-52.577
-52.3369
-52.0691
-51.8329
-51.5945
-51.2966
-53.6249
-53.3066
-53.0564
-52.7955
-52.5396
-52.2703
-52.0129
-51.7448
-51.559
-51.311
-54.0132
-53.6792
-53.3573
-53.0334
-52.7208
-52.4208
-52.1135
-51.8499
-51.5797
-51.334
-51.0975
-54.4294
-54.0162
-53.6145
-53.2537
-52.8929
-52.5366
-52.2076
-51.9092
-51.625
-51.3497
-51.0922
-50.8481
-54.89
-54.3845
-53.8932
-53.4646
-53.0518
-52.6271
-52.2633
-51.9302
-51.6117
-51.33
-51.0599
-50.8022
-50.5535
-48.3228
-48.7153
-48.8673
-49.0686
-49.269
-49.5638
-49.6865
-49.9332
-50.421
-50.5186
-50.6133
-50.7965
-51.028
-51.065
-51.2477
-51.5363
-51.2796
-52.2333
-51.6312
-51.3788
-51.2672
-51.1852
-51.0978
-52.4101
-52.3068
-51.8958
-51.7993
-51.6082
-51.2462
-51.0185
-52.919
-52.4239
-52.1625
-52.0314
-51.9206
-51.7513
-51.4335
-51.118
-52.8806
-52.7066
-52.4881
-52.3409
-52.1045
-51.8826
-51.6406
-51.3989
-51.3089
-53.3663
-53.0959
-52.8087
-52.6363
-52.3627
-52.1026
-51.9123
-51.6578
-51.3495
-51.1777
-53.6644
-53.3475
-53.0949
-52.8302
-52.583
-52.3093
-52.0279
-51.7837
-51.6048
-51.3407
-51.0876
-54.0566
-53.7242
-53.4034
-53.0822
-52.7635
-52.4599
-52.1444
-51.8788
-51.5997
-51.3537
-51.117
-50.8768
-54.4764
-54.0509
-53.6443
-53.2811
-52.9181
-52.5598
-52.2285
-51.9297
-51.6435
-51.3644
-51.1046
-50.856
-50.6156
-54.9232
-54.4149
-53.9198
-53.4832
-53.0646
-52.6373
-52.2732
-51.938
-51.618
-51.3347
-51.064
-50.8054
-50.5557
-50.3157
-48.0325
-48.1673
-48.357
-48.5763
-48.6574
-48.8263
-48.9521
-49.0735
-49.2439
-49.3414
-49.6001
-49.7802
-49.9669
-50.0324
-50.4006
-50.4856
-50.591
-50.5511
-50.4283
-51.0605
-51.1058
-51.2323
-51.3543
-50.9443
-50.6713
-52.1536
-51.5841
-51.3477
-51.2371
-51.2137
-50.946
-50.6379
-52.4296
-52.1625
-51.9266
-51.6539
-51.469
-51.3199
-50.9663
-50.7778
-52.8347
-52.3232
-51.9522
-51.9823
-51.9657
-51.7334
-51.4375
-51.169
-50.7712
-52.8702
-52.7151
-52.4943
-52.351
-52.1732
-51.9414
-51.6549
-51.449
-51.413
-51.1333
-53.3821
-53.1272
-52.8465
-52.6816
-52.4073
-52.1274
-51.9754
-51.7359
-51.4079
-51.2412
-51.0132
-53.7134
-53.3965
-53.1374
-52.8677
-52.6275
-52.3462
-52.0629
-51.8282
-51.6517
-51.375
-51.1216
-50.8886
-54.1068
-53.7775
-53.4534
-53.1221
-52.8128
-52.5011
-52.183
-51.9095
-51.6328
-51.3752
-51.1374
-50.8961
-50.655
-54.5269
-54.086
-53.679
-53.3114
-52.945
-52.5849
-52.2505
-51.9505
-51.6621
-51.3777
-51.1174
-50.8641
-50.6227
-50.3825
-54.9631
-54.4463
-53.9458
-53.4994
-53.0766
-52.6483
-52.2826
-51.9456
-51.6242
-51.3393
-51.0682
-50.8083
-50.558
-50.3167
-50.0873
-47.7599
-47.8446
-47.9736
-48.0659
-48.2904
-48.3211
-48.527
-48.5863
-48.6699
-48.8187
-48.897
-49.0314
-49.0715
-49.1843
-49.3699
-49.3763
-49.5146
-49.7149
-49.8951
-50.0025
-49.8492
-50.378
-50.4068
-50.4373
-50.408
-50.3647
-50.2792
-51.1538
-51.0562
-51.2087
-51.0441
-50.81
-50.3656
-50.0059
-52.0664
-51.5281
-51.3123
-51.2048
-51.2326
-50.945
-50.6029
-50.3323
-52.4225
-52.1204
-51.6931
-51.5706
-51.3502
-51.1206
-50.9392
-50.7807
-50.6025
-52.7037
-52.3838
-52.1436
-51.9608
-52.0082
-51.8014
-51.4438
-51.2128
-50.8051
-50.8834
-52.8747
-52.7149
-52.5198
-52.3689
-52.2441
-52.0103
-51.7733
-51.5021
-51.5615
-51.1917
-50.9596
-53.4042
-53.1379
-52.9
-52.7504
-52.465
-52.1715
-51.9603
-51.8026
-51.4673
-51.2985
-51.0618
-50.8627
-53.7577
-53.4455
-53.1895
-52.9205
-52.6739
-52.3868
-52.1038
-51.8786
-51.6872
-51.4138
-51.159
-50.9219
-50.6853
-54.1646
-53.835
-53.5062
-53.1598
-52.8661
-52.5416
-52.2218
-51.9447
-51.6732
-51.4049
-51.1561
-50.9165
-50.6713
-50.4313
-54.5722
-54.1268
-53.7163
-53.3454
-52.974
-52.6109
-52.274
-51.9714
-51.677
-51.3932
-51.1291
-50.8721
-50.6298
-50.3876
-50.1553
-55.0028
-54.477
-53.9686
-53.5156
-53.0903
-52.6594
-52.2924
-51.9518
-51.6297
-51.3439
-51.0722
-50.8113
-50.5595
-50.3179
-50.0876
-49.8653
-47.5571
-47.7072
-47.7581
-47.8202
-47.9905
-47.9669
-48.1305
-48.2415
-48.2248
-48.2849
-48.4763
-48.5929
-48.5822
-48.6214
-48.7505
-48.8424
-48.9731
-49.0087
-49.0348
-49.212
-49.3028
-49.4074
-49.42
-49.4664
-49.7768
-49.9535
-49.8797
-49.9787
-49.7619
-50.2817
-50.3669
-50.332
-50.3949
-50.1928
-50.1057
-49.8235
-51.0933
-51.1423
-51.242
-50.8209
-50.6229
-50.3147
-50.0981
-49.7875
-51.8496
-51.2587
-51.3339
-51.2059
-51.1831
-50.8882
-50.5628
-50.3006
-50.1066
-52.4111
-52.2692
-51.6881
-51.5614
-51.3824
-51.1834
-50.8997
-50.8014
-50.6953
-50.5794
-52.6506
-52.4221
-52.095
-51.9837
-52.034
-51.8857
-51.4902
-51.2627
-50.8286
-50.9914
-50.776
-52.8798
-52.7342
-52.5431
-52.4074
-52.3521
-52.0883
-51.8898
-51.5856
-51.7164
-51.2551
-51.0198
-50.8126
-53.434
-53.177
-52.9534
-52.8254
-52.5249
-52.2309
-51.987
-51.8553
-51.5489
-51.3664
-51.1181
-50.9114
-50.6912
-53.8071
-53.5011
-53.2499
-52.9859
-52.7254
-52.4381
-52.1605
-51.9312
-51.7176
-51.4523
-51.2004
-50.9554
-50.7144
-50.4838
-54.234
-53.8988
-53.5601
-53.2059
-52.9125
-52.5819
-52.2571
-51.9799
-51.7061
-51.4337
-51.1814
-50.9367
-50.688
-50.4449
-50.211
-54.6152
-54.1706
-53.7584
-53.3819
-53.0054
-52.639
-52.2981
-51.9925
-51.6943
-51.4072
-51.1412
-50.8798
-50.6366
-50.3924
-50.1582
-49.9317
-55.0393
-54.5034
-53.9903
-53.5341
-53.1053
-52.6697
-52.2996
-51.959
-51.6343
-51.3485
-51.0762
-50.8142
-50.5615
-50.3191
-50.088
-49.8647
-49.6504
-47.5185
-47.5308
-47.6357
-47.6947
-47.839
-47.8578
-47.7777
-47.8813
-47.956
-48.0758
-48.0633
-48.1528
-48.2229
-48.2844
-48.2989
-48.5136
-48.5227
-48.6153
-48.7044
-48.6319
-48.6999
-48.7558
-48.9322
-48.987
-48.9437
-49.0298
-49.1359
-49.3317
-49.3802
-49.3472
-49.3818
-49.5436
-49.6541
-49.7526
-49.9356
-49.8283
-49.6556
-49.4585
-50.2183
-50.3514
-50.2232
-50.3372
-50.1925
-50.09
-49.6718
-49.4643
-51.0351
-51.1168
-51.0267
-50.7814
-50.6194
-50.1941
-50.1617
-49.8494
-49.8565
-51.7609
-51.2532
-51.1092
-51.154
-51.101
-50.7749
-50.4986
-50.2555
-50.2164
-50.2572
-52.3022
-52.3512
-52.0212
-51.5901
-51.2584
-51.2406
-50.9619
-50.8793
-50.8539
-50.6967
-50.6088
-52.655
-52.2957
-52.1626
-52.0502
-52.0695
-52.0328
-51.5869
-51.3452
-50.8717
-51.1718
-50.8767
-50.7211
-52.8974
-52.7684
-52.5809
-52.4486
-52.5103
-52.2089
-51.9643
-51.6939
-51.8359
-51.3634
-51.0812
-50.8885
-50.6741
-53.4742
-53.2294
-53.0191
-52.8999
-52.6164
-52.3014
-52.046
-51.9133
-51.6434
-51.4221
-51.1837
-50.9646
-50.7365
-50.5169
-53.8686
-53.5646
-53.3175
-53.0463
-52.7808
-52.4976
-52.2162
-51.9849
-51.7541
-51.4891
-51.2419
-50.9932
-50.7454
-50.5086
-50.2753
-54.311
-53.9641
-53.6156
-53.2571
-52.9583
-52.623
-52.2974
-52.0178
-51.7401
-51.4648
-51.2065
-50.9624
-50.7046
-50.4562
-50.2198
-49.9909
-54.6651
-54.2214
-53.8058
-53.4197
-53.0386
-52.6677
-52.3227
-52.0128
-51.7133
-51.4226
-51.1545
-50.8898
-50.6428
-50.3968
-50.1608
-49.9324
-49.7063
-55.0719
-54.529
-54.0126
-53.5528
-53.1191
-52.6796
-52.3085
-51.9664
-51.6391
-51.353
-51.0798
-50.8172
-50.5639
-50.3194
-50.0879
-49.8642
-49.6491
-49.4428
-47.3522
-47.5194
-47.5823
-47.4886
-47.6278
-47.7298
-47.6596
-47.7567
-47.8641
-47.9917
-47.7604
-47.8338
-47.8345
-48.056
-48.1742
-48.0633
-48.135
-48.1965
-48.2812
-48.3887
-48.3497
-48.4593
-48.4816
-48.5562
-48.6351
-48.6452
-48.5573
-48.6484
-48.6709
-48.9203
-48.9288
-49.061
-48.9546
-49.0369
-49.0481
-49.1984
-49.2864
-49.3353
-49.2117
-49.1507
-49.5638
-49.6759
-49.8253
-49.8714
-49.7623
-49.6781
-49.4895
-49.366
-50.3218
-50.2157
-50.1876
-50.1912
-50.1738
-50.0603
-49.6373
-49.4036
-49.4122
-50.9478
-51.0719
-51.0701
-50.7673
-50.6335
-50.1998
-50.0752
-49.9338
-50.118
-50.0675
-51.7768
-51.5261
-51.4436
-51.1772
-51.0582
-50.7142
-50.5051
-50.4568
-50.1513
-50.3835
-50.386
-52.3021
-52.2566
-51.9024
-51.7582
-51.4325
-51.2491
-51.0453
-50.944
-51.0266
-50.7996
-50.7186
-50.5688
-52.5524
-52.2401
-51.9688
-52.0767
-52.0603
-52.2194
-51.8022
-51.4949
-51.0943
-51.2972
-51.0123
-50.8165
-50.6384
-52.9402
-52.8218
-52.639
-52.519
-52.6466
-52.3615
-52.0453
-51.7821
-51.9633
-51.4357
-51.1578
-50.9739
-50.7384
-50.5339
-53.5252
-53.2853
-53.0971
-52.9643
-52.7399
-52.3898
-52.125
-51.9822
-51.7416
-51.499
-51.2624
-51.0222
-50.7859
-50.5571
-50.3286
-53.9402
-53.6361
-53.385
-53.1
-52.8387
-52.5595
-52.2766
-52.0401
-51.7946
-51.5308
-51.2831
-51.0298
-50.779
-50.5327
-50.2947
-50.0591
-54.3954
-54.0289
-53.6746
-53.3108
-53.0043
-52.6657
-52.3392
-52.058
-51.7746
-51.4954
-51.2327
-50.9798
-50.7222
-50.4692
-50.2281
-49.9955
-49.7697
-54.7185
-54.277
-53.8579
-53.4599
-53.0729
-52.6961
-52.3489
-52.0333
-51.732
-51.4385
-51.1669
-50.9014
-50.6482
-50.401
-50.163
-49.9327
-49.7053
-49.4929
-55.1053
-54.5568
-54.0351
-53.5713
-53.1336
-52.6896
-52.3168
-51.9729
-51.6453
-51.3573
-51.0825
-50.8194
-50.5648
-50.3206
-50.0877
-49.8634
-49.6477
-49.441
-49.2467
-47.3108
-47.2772
-47.3829
-47.4512
-47.5545
-47.6273
-47.498
-47.5787
-47.7255
-47.7574
-47.6143
-47.7595
-47.7985
-47.9245
-47.9341
-47.7419
-47.8269
-47.8714
-48.0458
-48.1096
-48.2149
-48.0366
-48.1237
-48.1922
-48.2615
-48.3468
-48.3754
-48.2357
-48.4081
-48.4571
-48.5274
-48.5519
-48.6496
-48.6484
-48.5312
-48.5875
-48.8404
-48.7794
-48.8205
-48.9786
-48.969
-48.9134
-49.0272
-49.09
-49.1783
-49.3021
-49.31
-49.1785
-49.2209
-49.0387
-49.447
-49.7798
-49.6994
-49.7666
-49.7452
-49.6943
-49.4891
-49.4875
-49.3852
-50.3954
-50.3113
-50.3163
-50.229
-50.3162
-50.0359
-49.7032
-49.3546
-49.533
-49.7693
-50.9776
-51.024
-51.0714
-50.5757
-50.5074
-50.2441
-50.2976
-50.0491
-50.2563
-50.1595
-50.2051
-51.785
-51.5444
-51.4452
-51.4457
-51.1478
-51.0158
-50.3746
-50.4941
-50.4514
-50.627
-50.5039
-50.4685
-52.2309
-52.1266
-51.8785
-51.6982
-51.9049
-51.3156
-51.2723
-51.137
-51.0541
-50.8801
-50.8561
-50.6981
-50.569
-52.5614
-52.3323
-52.2057
-52.2448
-52.0168
-52.2284
-51.9862
-51.7644
-51.4474
-51.3779
-51.1469
-50.9231
-50.7326
-50.5363
-53.0001
-52.8985
-52.708
-52.6033
-52.7077
-52.4569
-52.1512
-51.9001
-52.0711
-51.3958
-51.2639
-51.0642
-50.8117
-50.5958
-50.3748
-53.5868
-53.3557
-53.1799
-53.0365
-52.8462
-52.5056
-52.2105
-52.0565
-51.8238
-51.581
-51.3393
-51.0879
-50.8388
-50.6003
-50.363
-50.1293
-54.0203
-53.7164
-53.4509
-53.1567
-52.9002
-52.6299
-52.3419
-52.0959
-51.8387
-51.5778
-51.3268
-51.0704
-50.8151
-50.5592
-50.3144
-50.0736
-49.8412
-54.4824
-54.1005
-53.736
-53.3653
-53.0516
-52.7105
-52.3802
-52.0988
-51.8094
-51.526
-51.2555
-50.9989
-50.7401
-50.4822
-50.2363
-49.9998
-49.7708
-49.5455
-54.7763
-54.335
-53.9127
-53.501
-53.1083
-52.7256
-52.3744
-52.0538
-51.7493
-51.4531
-51.1757
-50.9114
-50.6551
-50.4048
-50.1648
-49.9327
-49.7039
-49.4898
-49.2853
-55.1417
-54.5869
-54.0614
-53.5891
-53.1465
-52.6984
-52.3248
-51.9786
-51.6526
-51.3604
-51.0851
-50.8211
-50.5662
-50.322
-50.0877
-49.8624
-49.6462
-49.4392
-49.2448
-49.0625
-47.101
-47.3139
-47.3254
-47.3087
-47.3635
-47.4068
-47.4403
-47.534
-47.627
-47.5901
-47.3836
-47.605
-47.6437
-47.7073
-47.7269
-47.6201
-47.7023
-47.8258
-47.8423
-47.9525
-47.9672
-47.7072
-47.794
-47.9091
-48.0158
-48.0864
-48.1739
-48.2035
-47.9909
-48.0769
-48.1671
-48.2382
-48.2819
-48.331
-48.4164
-48.1822
-48.2731
-48.4886
-48.5448
-48.4835
-48.6076
-48.608
-48.6808
-48.5152
-48.6052
-48.7405
-48.8191
-48.9029
-48.8726
-48.881
-48.9197
-48.9854
-48.9828
-49.2394
-49.124
-49.3058
-49.3056
-49.2385
-49.1287
-48.9681
-49.0452
-49.6152
-49.7071
-49.6825
-49.7337
-49.7435
-49.6368
-49.6003
-49.4993
-49.5626
-49.6812
-50.3612
-50.2037
-50.3857
-50.2125
-50.3154
-49.9369
-49.6899
-49.5319
-49.6302
-50.0037
-50.081
-50.9875
-51.1737
-51.0799
-50.6489
-50.6278
-50.3935
-50.4327
-50.2962
-50.3346
-50.4349
-50.312
-50.2631
-51.7836
-51.4827
-51.399
-51.5735
-51.4378
-51.397
-50.7396
-50.63
-50.714
-50.7562
-50.7369
-50.6306
-50.4864
-52.1871
-52.2077
-52.039
-51.9293
-52.0238
-51.9023
-51.7165
-51.4099
-51.3168
-51.0869
-51.0261
-50.8485
-50.6871
-50.5192
-52.5477
-52.3959
-52.3308
-52.343
-52.1605
-52.3151
-52.1145
-51.9669
-52.2106
-51.7036
-51.2847
-51.049
-50.8328
-50.6233
-50.4129
-53.0839
-52.9932
-52.8042
-52.7282
-52.7479
-52.4748
-52.2637
-52.0509
-52.0393
-51.4536
-51.3805
-51.1557
-50.8959
-50.6651
-50.4294
-50.1979
-53.6681
-53.4419
-53.2679
-53.0964
-52.8879
-52.6153
-52.309
-52.1417
-51.9119
-51.6672
-51.4256
-51.1548
-50.8956
-50.6451
-50.3994
-50.1587
-49.9212
-54.113
-53.7984
-53.5271
-53.2324
-52.9678
-52.704
-52.4098
-52.1539
-51.8841
-51.6267
-51.3703
-51.111
-50.8469
-50.5871
-50.3339
-50.0876
-49.8495
-49.6181
-54.5688
-54.1753
-53.8024
-53.4248
-53.0991
-52.7552
-52.4209
-52.1387
-51.843
-51.5562
-51.278
-51.0189
-50.757
-50.4941
-50.2432
-50.0036
-49.7711
-49.543
-49.3315
-54.8385
-54.3959
-53.9641
-53.5426
-53.1446
-52.7545
-52.398
-52.0746
-51.7667
-51.469
-51.1876
-50.9206
-50.6619
-50.408
-50.1661
-49.9321
-49.702
-49.4864
-49.2808
-49.0889
-55.1811
-54.6188
-54.0795
-53.6078
-53.1615
-52.7068
-52.3318
-51.9829
-51.6565
-51.3638
-51.0882
-50.8227
-50.5673
-50.3217
-50.087
-49.8613
-49.6445
-49.4374
-49.2428
-49.0604
-48.8899
-47.1584
-47.1041
-47.0872
-47.3053
-47.383
-47.3327
-47.2889
-47.383
-47.3943
-47.4291
-47.4749
-47.4695
-47.5814
-47.5953
-47.6319
-47.4406
-47.5386
-47.6643
-47.5957
-47.7202
-47.7499
-47.5854
-47.7169
-47.7836
-47.8741
-47.7976
-47.9572
-48.0055
-47.7307
-47.7746
-47.877
-47.9702
-48.0379
-48.1169
-48.1777
-48.2197
-47.9632
-48.0103
-48.084
-48.2087
-48.2599
-48.315
-48.3663
-48.4388
-48.1882
-48.25
-48.5039
-48.4921
-48.5083
-48.5131
-48.5452
-48.6876
-48.7444
-48.6202
-48.5972
-48.6983
-48.8208
-48.8794
-48.8271
-48.9167
-48.8735
-48.9658
-49.0431
-49.033
-49.1661
-49.0772
-49.24
-49.2377
-49.3654
-49.3007
-49.142
-49.272
-49.5346
-49.465
-49.7012
-49.8133
-49.7301
-49.7183
-49.6157
-49.645
-49.5707
-49.6486
-49.9031
-49.9837
-50.3199
-50.327
-50.3099
-50.3425
-50.3999
-50.0821
-49.7231
-49.9044
-49.9786
-50.197
-50.2828
-50.3108
-51.0649
-51.0943
-50.9816
-50.9385
-51.0322
-50.7906
-50.6345
-50.4291
-50.512
-50.7879
-50.5679
-50.361
-50.4372
-51.7108
-51.5201
-51.4002
-51.5495
-51.5767
-51.7024
-51.3651
-51.0481
-50.9046
-50.9457
-50.9411
-50.8123
-50.628
-50.4753
-52.2212
-52.352
-52.2487
-52.2847
-52.2766
-52.2611
-52.0923
-51.5998
-51.4258
-51.3878
-51.2386
-51.0327
-50.8238
-50.6329
-50.4218
-52.6161
-52.488
-52.4698
-52.5174
-52.3239
-52.4379
-52.2887
-52.1023
-52.6283
-51.6935
-51.4514
-51.183
-50.9463
-50.7207
-50.4932
-50.2658
-53.1917
-53.1024
-52.9305
-52.8689
-52.8955
-52.5354
-52.4209
-52.1876
-51.9913
-51.6224
-51.4956
-51.2455
-50.9811
-50.7449
-50.4915
-50.2486
-50.0115
-53.7659
-53.5376
-53.3546
-53.1302
-52.9214
-52.6914
-52.4116
-52.2347
-52.0172
-51.7952
-51.4947
-51.2239
-50.9552
-50.6935
-50.4369
-50.1878
-49.9422
-49.7072
-54.2152
-53.8906
-53.608
-53.3096
-53.0381
-52.7791
-52.4788
-52.2156
-51.9322
-51.678
-51.4167
-51.145
-50.8814
-50.6107
-50.3535
-50.1012
-49.8572
-49.6207
-49.3957
-54.668
-54.2549
-53.8715
-53.4856
-53.1481
-52.8003
-52.4637
-52.1764
-51.8763
-51.5843
-51.3032
-51.035
-50.7663
-50.5039
-50.25
-50.0065
-49.7707
-49.5396
-49.3259
-49.1247
-54.9128
-54.46
-54.0143
-53.5869
-53.1768
-52.784
-52.4221
-52.0946
-51.7819
-51.4833
-51.1968
-50.9293
-50.6636
-50.4105
-50.1667
-49.9311
-49.6995
-49.4825
-49.2758
-49.0832
-48.9018
-55.2182
-54.6431
-54.1012
-53.6236
-53.1743
-52.7174
-52.3393
-51.9875
-51.6587
-51.3666
-51.0885
-50.8244
-50.5679
-50.3221
-50.0869
-49.8599
-49.6427
-49.4354
-49.2407
-49.0583
-48.8877
-48.7258
-55.2895
-46.9424
-47.1013
-47.1512
-47.118
-47.1494
-47.1827
-47.2727
-47.2738
-47.3021
-47.3838
-47.2707
-47.3946
-47.432
-47.4219
-47.4289
-47.4414
-47.4804
-47.5014
-47.5958
-47.5438
-47.6525
-47.3972
-47.5132
-47.6212
-47.6008
-47.7069
-47.6809
-47.7917
-47.6039
-47.6693
-47.7176
-47.8217
-47.8249
-47.9029
-47.9465
-48.0968
-47.721
-47.8151
-47.8889
-47.9335
-48.0087
-48.0582
-48.1126
-48.2093
-48.2575
-47.906
-48.0203
-48.0527
-48.1676
-48.1889
-48.3163
-48.3522
-48.4115
-48.4503
-48.209
-48.2739
-48.1876
-48.5061
-48.5198
-48.4736
-48.6523
-48.8141
-48.7419
-48.7359
-48.3879
-48.5444
-48.6738
-48.7924
-48.8773
-48.8973
-48.9187
-48.7295
-48.9926
-49.3824
-49.3638
-49.0476
-49.2071
-49.2755
-49.2593
-49.2723
-49.167
-49.3021
-49.2873
-49.5543
-49.8701
-49.983
-49.5427
-49.6076
-49.7201
-49.6989
-49.7709
-49.5985
-49.5927
-49.7993
-49.8637
-50.1221
-50.1509
-50.1543
-50.2915
-50.4295
-50.4516
-50.512
-50.3795
-50.5535
-50.2535
-50.1342
-50.2579
-50.4355
-50.4973
-50.5206
-50.3694
-51.3069
-51.1239
-51.0804
-51.0701
-51.3706
-51.2353
-50.7823
-50.5769
-50.7422
-50.7619
-50.8267
-50.6066
-50.596
-50.4852
-51.6215
-51.8669
-51.7546
-51.9043
-51.8407
-51.8327
-51.673
-51.5313
-51.2767
-51.1661
-51.1424
-51.0076
-50.805
-50.6192
-50.4284
-52.1808
-52.5187
-52.3344
-52.276
-52.4462
-52.5893
-52.3835
-51.9722
-51.4077
-51.7804
-51.4941
-51.2655
-50.985
-50.7595
-50.5257
-50.3265
-52.7162
-52.6232
-52.6404
-52.7136
-52.5562
-52.5558
-52.4331
-52.2745
-52.7014
-51.78
-51.6437
-51.3338
-51.0726
-50.8278
-50.5873
-50.3427
-50.1037
-53.3192
-53.2206
-53.0948
-53.0669
-52.8595
-52.6207
-52.5565
-52.3442
-51.9524
-51.7756
-51.6178
-51.3567
-51.0798
-50.7942
-50.5519
-50.3013
-50.0536
-49.8082
-53.8747
-53.6441
-53.4579
-53.1954
-52.9871
-52.7814
-52.5101
-52.3189
-52.1368
-51.8718
-51.5789
-51.2941
-51.0167
-50.7403
-50.4755
-50.2161
-49.9626
-49.7191
-49.4817
-54.3175
-53.9929
-53.6954
-53.3883
-53.108
-52.8358
-52.5526
-52.2807
-51.9863
-51.7308
-51.4616
-51.1874
-50.9162
-50.638
-50.3722
-50.1136
-49.8636
-49.622
-49.3924
-49.1792
-54.7682
-54.3396
-53.9437
-53.5475
-53.1988
-52.8452
-52.5068
-52.212
-51.9089
-51.6119
-51.3224
-51.0524
-50.7803
-50.5134
-50.2561
-50.0087
-49.7693
-49.535
-49.3194
-49.1165
-48.929
-54.9966
-54.5273
-54.0719
-53.634
-53.2149
-52.8141
-52.446
-52.1134
-51.7959
-51.4921
-51.2074
-50.9357
-50.6675
-50.4123
-50.1666
-49.9295
-49.6966
-49.4782
-49.2704
-49.0772
-48.8953
-48.7268
-55.1727
-55.2559
-54.6722
-54.1205
-53.6354
-53.1803
-52.7287
-52.3461
-51.9936
-51.6629
-51.3685
-51.0888
-50.8258
-50.569
-50.322
-50.0869
-49.8585
-49.6409
-49.4335
-49.2386
-49.0561
-48.8854
-48.7236
-48.5736
-54.7203
-46.9009
-46.9889
-47.1151
-47.184
-47.1307
-47.0878
-47.1587
-47.1765
-47.2319
-47.3095
-47.2692
-47.3111
-47.3731
-47.3857
-47.1838
-47.2254
-47.367
-47.3906
-47.4425
-47.4989
-47.3883
-47.4669
-47.4967
-47.5485
-47.6124
-47.5967
-47.6794
-47.4109
-47.4855
-47.5883
-47.6055
-47.6611
-47.7234
-47.728
-47.7722
-47.6017
-47.6265
-47.7753
-47.7763
-47.8159
-47.8462
-47.9127
-48.0186
-48.0577
-47.6581
-47.8022
-47.7352
-47.9154
-48.0219
-48.0645
-48.0764
-48.1719
-48.2192
-48.3126
-47.8553
-47.9652
-48.0713
-48.195
-48.1953
-48.2061
-48.3093
-48.3566
-48.4486
-48.4916
-48.1554
-48.2254
-48.2736
-48.3711
-48.5004
-48.4164
-48.5594
-48.7287
-48.8118
-49.0725
-49.0015
-48.5926
-48.6593
-48.716
-48.6754
-48.9224
-48.9275
-49.0065
-48.9881
-48.9844
-49.2601
-49.5573
-49.8289
-49.023
-49.0666
-49.1668
-49.3089
-49.529
-49.2071
-49.0781
-49.3889
-49.8737
-50.1251
-50.2109
-50.3275
-49.6588
-49.7466
-49.9906
-49.8558
-49.8406
-49.9795
-50.1339
-50.0178
-50.1945
-50.424
-50.4339
-50.3752
-50.3077
-50.3066
-50.4886
-50.3462
-50.4633
-51.0398
-50.6238
-50.4679
-50.4376
-50.3937
-50.4828
-50.7315
-50.7195
-50.5785
-50.3933
-51.4723
-51.3956
-51.3105
-51.2507
-51.5131
-51.6305
-51.2388
-51.0617
-51.0068
-51.2557
-50.9745
-50.8658
-50.7539
-50.6561
-50.4372
-51.8262
-51.9325
-52.0096
-52.1137
-52.1963
-51.9824
-51.9578
-51.8271
-51.7285
-51.5748
-51.4111
-51.1937
-50.9981
-50.7801
-50.5637
-50.3586
-52.3077
-52.5467
-52.5919
-52.9209
-52.6931
-52.821
-52.7632
-52.3311
-51.8729
-52.0404
-51.8031
-51.4816
-51.1577
-50.9036
-50.6482
-50.4305
-50.1989
-52.8394
-52.765
-52.8626
-52.8693
-53.0075
-52.7563
-52.7771
-52.4685
-53.0086
-52.3996
-51.8547
-51.5058
-51.2094
-50.9443
-50.6816
-50.4411
-50.1812
-49.9293
-53.4653
-53.363
-53.2498
-53.2222
-52.8736
-52.8058
-52.7192
-52.4765
-52.0397
-51.9325
-51.7475
-51.4504
-51.1559
-50.8978
-50.6232
-50.3572
-50.0974
-49.841
-49.5918
-53.9984
-53.761
-53.573
-53.3007
-53.0899
-52.8806
-52.6081
-52.4084
-52.2316
-51.9516
-51.659
-51.3628
-51.0663
-50.7879
-50.5161
-50.2461
-49.9816
-49.7293
-49.4851
-49.2531
-54.4323
-54.0997
-53.7857
-53.4682
-53.1809
-52.9046
-52.6219
-52.3459
-52.0442
-51.7832
-51.5039
-51.2264
-50.9469
-50.6577
-50.3855
-50.1244
-49.8683
-49.6216
-49.3873
-49.1709
-48.9697
-54.8686
-54.43
-54.0175
-53.6114
-53.2494
-52.8911
-52.5489
-52.2464
-51.9398
-51.6374
-51.3426
-51.069
-50.791
-50.5225
-50.2603
-50.0098
-49.7666
-49.5297
-49.312
-49.1075
-48.9189
-48.7427
-55.068
-55.0846
-54.5989
-54.1336
-53.6802
-53.2534
-52.8452
-52.4697
-52.1323
-51.8097
-51.5038
-51.2185
-50.9385
-50.6696
-50.4139
-50.1659
-49.9272
-49.693
-49.4735
-49.2647
-49.0709
-48.8885
-48.7198
-48.5622
-54.7352
-54.6977
-54.132
-53.648
-53.1842
-52.7392
-52.3501
-52.0016
-51.6689
-51.3714
-51.0904
-50.8264
-50.5695
-50.3217
-50.0848
-49.8572
-49.639
-49.4315
-49.2365
-49.0539
-48.8832
-48.7212
-48.5712
-48.4247
-54.1658
-46.8823
-46.9227
-46.9399
-46.9901
-47.0061
-47.0862
-47.1885
-47.0171
-47.0376
-47.1558
-47.1772
-47.1724
-47.2789
-47.3047
-47.31
-47.269
-47.3208
-47.3558
-47.2108
-47.2292
-47.3715
-47.3696
-47.3594
-47.4598
-47.551
-47.3761
-47.3747
-47.4639
-47.4682
-47.5874
-47.4872
-47.606
-47.7322
-47.3465
-47.4774
-47.5615
-47.6016
-47.6511
-47.6785
-47.7313
-47.775
-47.8987
-47.5659
-47.5998
-47.6953
-47.7606
-47.8368
-47.8005
-47.8155
-47.9282
-48.0034
-48.1334
-47.6527
-47.7956
-48.0585
-47.8744
-47.9745
-48.0363
-48.0834
-48.1814
-48.2176
-48.2606
-48.3809
-47.8693
-47.9628
-48.0559
-48.135
-48.2192
-48.1809
-48.3137
-48.3437
-48.4993
-48.3978
-48.6209
-48.1731
-48.1808
-48.3714
-48.4172
-48.5275
-48.6206
-48.6027
-48.7159
-48.7286
-49.1173
-49.244
-49.3208
-48.5656
-48.5607
-48.6849
-48.8201
-48.961
-48.9605
-48.8363
-49.1466
-49.5105
-49.4669
-49.6546
-50.0501
-50.4347
-49.0359
-49.2164
-49.0844
-49.2835
-49.2002
-49.3318
-49.353
-49.6049
-49.7505
-50.4332
-50.3843
-50.4466
-50.5171
-49.5803
-49.8624
-50.0809
-50.2019
-50.2277
-50.2437
-50.4122
-50.3215
-50.2428
-50.5715
-50.6395
-50.6342
-50.462
-50.575
-50.6036
-50.6751
-50.4518
-50.587
-50.6017
-50.8971
-50.6291
-50.6148
-50.7288
-50.8482
-50.7501
-50.8399
-50.7288
-50.6155
-50.3862
-51.7139
-51.5646
-51.6429
-51.5755
-51.8251
-51.892
-51.7613
-51.5677
-51.5026
-51.4366
-51.2709
-51.1148
-50.9353
-50.7911
-50.5966
-50.38
-52.1985
-51.9726
-52.0929
-52.492
-52.3235
-52.2958
-52.3619
-52.2746
-52.2179
-52.0415
-51.8254
-51.4674
-51.1933
-50.9472
-50.7459
-50.5142
-50.2703
-52.5006
-52.7672
-52.875
-53.0448
-53.105
-52.872
-52.7643
-52.6791
-52.3947
-52.2622
-52.1571
-51.7651
-51.3521
-51.0604
-50.7887
-50.5555
-50.3118
-50.0646
-53.095
-52.9832
-53.0386
-53.0664
-53.1879
-53.0423
-52.9081
-52.7624
-53.2406
-52.5803
-52.1266
-51.6843
-51.3507
-51.0695
-50.8006
-50.5207
-50.2552
-49.9953
-49.7253
-53.6161
-53.5039
-53.4267
-53.3565
-53.0988
-52.9954
-52.8136
-52.6946
-52.3292
-52.0939
-51.8727
-51.5814
-51.2683
-50.9612
-50.6902
-50.4143
-50.1411
-49.8725
-49.6118
-49.3558
-54.136
-53.894
-53.6945
-53.4022
-53.1887
-52.974
-52.7117
-52.5015
-52.32
-52.0239
-51.7203
-51.4292
-51.1255
-50.8349
-50.5421
-50.2713
-49.9989
-49.7375
-49.4862
-49.2479
-49.0323
-54.5578
-54.213
-53.8791
-53.5506
-53.2543
-52.9715
-52.6836
-52.4112
-52.1014
-51.8346
-51.5428
-51.2587
-50.9764
-50.6787
-50.3991
-50.1327
-49.8708
-49.6187
-49.3805
-49.1609
-48.9572
-48.7704
-54.8256
-54.9711
-54.523
-54.0912
-53.6782
-53.301
-52.9381
-52.5902
-52.2792
-51.9687
-51.6609
-51.3586
-51.0795
-50.8017
-50.5286
-50.2632
-50.0094
-49.7627
-49.5234
-49.3038
-49.0976
-48.908
-48.731
-48.5683
-54.7057
-54.6683
-54.1904
-53.724
-53.2898
-52.8766
-52.4927
-52.1501
-51.8222
-51.518
-51.2263
-50.9443
-50.6719
-50.4145
-50.1643
-49.9244
-49.6889
-49.4681
-49.2586
-49.0643
-48.8815
-48.7127
-48.5547
-48.4089
-54.3031
-54.1461
-53.6698
-53.1911
-52.7466
-52.3551
-52.0091
-51.6739
-51.375
-51.0916
-50.8267
-50.5691
-50.3211
-50.083
-49.8554
-49.6371
-49.4294
-49.2343
-49.0517
-48.8809
-48.7187
-48.5689
-48.4223
-48.2879
-53.7134
-46.989
-46.9586
-46.992
-46.9708
-47.1331
-47.1327
-47.0642
-47.0494
-47.1434
-47.0704
-47.0833
-47.0055
-47.1246
-47.0981
-47.2035
-47.2505
-47.2191
-47.2414
-47.2961
-47.2344
-47.3095
-47.4409
-47.1996
-47.279
-47.3121
-47.3291
-47.2993
-47.4076
-47.4809
-47.4943
-47.3584
-47.4436
-47.4368
-47.5234
-47.576
-47.5487
-47.5015
-47.6045
-47.7179
-47.3648
-47.4172
-47.5062
-47.6144
-47.6011
-47.6583
-47.6773
-47.7575
-47.8315
-47.913
-47.5403
-47.6161
-47.656
-47.7166
-47.798
-47.7949
-47.8615
-47.8869
-47.9723
-48.0824
-48.0815
-47.6686
-47.7546
-47.8804
-47.9533
-48.0148
-47.9797
-48.0457
-48.1297
-48.1989
-48.2217
-48.3432
-48.467
-47.8989
-47.8785
-48.0181
-48.1887
-48.2093
-48.3527
-48.273
-48.3513
-48.4788
-48.7607
-48.7405
-48.8919
-48.1371
-48.3322
-48.3362
-48.4653
-48.3645
-48.6217
-48.7367
-48.8201
-48.7697
-49.0274
-49.252
-49.5033
-49.6708
-48.5373
-48.6116
-48.6343
-48.7912
-48.8633
-49.0798
-48.9451
-48.9781
-49.5242
-49.8512
-49.8879
-50.0434
-50.4361
-50.6839
-49.0241
-49.1803
-49.3743
-49.6493
-49.019
-49.5458
-49.8115
-49.9545
-50.0146
-50.4039
-50.5531
-50.6465
-50.6333
-50.5633
-49.8505
-50.088
-49.9902
-50.0007
-50.4016
-50.4747
-50.1476
-50.5703
-50.4954
-50.7604
-50.775
-50.7475
-50.6722
-50.7169
-50.3975
-50.6447
-50.6942
-50.7962
-50.9398
-50.8745
-50.8612
-51.1687
-51.0686
-51.0788
-51.0944
-51.3888
-51.0132
-50.9386
-50.6904
-50.5612
-50.3542
-51.5264
-51.6111
-51.6264
-51.8351
-52.2657
-52.1799
-52.2995
-51.9831
-51.8863
-51.6098
-51.6172
-51.382
-51.1042
-50.9274
-50.7243
-50.5552
-50.324
-52.1459
-52.156
-52.413
-52.7148
-52.7269
-52.6519
-52.7693
-52.688
-52.5251
-52.3487
-52.057
-51.7351
-51.4059
-51.1173
-50.9288
-50.6966
-50.4443
-50.2014
-52.8223
-52.9336
-52.8849
-53.2064
-53.2891
-53.2627
-53.0758
-53.0229
-52.6361
-52.5691
-52.3737
-52.0277
-51.5515
-51.2279
-50.9461
-50.6913
-50.4377
-50.1827
-49.8951