/*--------------------------------*- C++ -*----------------------------------*\
  =========                 |
  \\      /  F ield         | OpenFOAM: The Open Source CFD Toolbox
   \\    /   O peration     | Website:  https://openfoam.org
    \\  /    A nd           | Version:  7
     \\/     M anipulation  |
\*---------------------------------------------------------------------------*/
FoamFile
{
    version     2.0;
    format      ascii;
    class       surfaceScalarField;
    location    "1.5";
    object      phi_0;
}
// * * * * * * * * * * * * * * * * * * * * * * * * * * * * * * * * * * * * * //

dimensions      [0 3 -1 0 0 0 0];

internalField   nonuniform List<scalar> 
53739
(
5.63382e-05
0.00209424
8.96176e-06
8.82507e-05
0.0015454
4.05362e-05
6.07171e-05
0.00203398
8.55406e-06
5.8129e-05
0.00171046
7.95332e-06
0.000113185
0.00144779
5.8168e-05
9.09026e-05
0.00151736
3.34466e-05
8.10755e-05
0.00143719
3.28971e-05
6.73975e-05
0.00196719
8.12665e-06
6.11833e-05
0.00165009
7.73848e-06
5.8085e-05
0.00141441
5.97885e-06
9.01348e-05
0.00162261
8.9273e-05
0.00011246
0.00141667
5.85319e-05
9.18079e-05
0.00132608
5.9733e-05
0.000102483
0.00148144
3.54751e-05
7.9863e-05
0.00142539
2.65703e-05
7.50793e-05
0.00130983
2.65887e-05
7.08324e-05
0.00189687
7.96559e-06
6.57507e-05
0.00158507
7.39927e-06
6.36262e-05
0.00135251
6.01145e-06
6.04064e-05
0.00116299
5.33631e-06
2.76183e-05
0.00120475
7.64171e-05
8.50265e-05
0.00164958
8.89294e-05
9.81169e-05
0.00145156
8.89244e-05
0.000114347
0.00140135
5.25404e-05
8.94928e-05
0.00131779
5.71847e-05
7.12143e-05
0.0013697
4.56327e-05
0.000102105
0.00145702
3.39014e-05
8.7329e-05
0.00141461
2.46749e-05
8.2995e-05
0.00129388
2.31453e-05
8.00215e-05
0.00117563
2.47332e-05
7.74301e-05
0.00182003
7.68567e-06
7.35758e-05
0.00151232
7.13839e-06
6.61652e-05
0.00128818
5.56564e-06
6.45774e-05
0.00109945
4.97302e-06
6.85562e-05
0.000958293
6.14355e-06
-7.8564e-06
0.000601833
0.000365898
8.24594e-07
0.00127747
7.37852e-05
-4.01599e-06
0.0012427
0.000110325
0.000106222
0.00165089
9.53316e-05
9.69544e-05
0.00143718
9.58409e-05
9.64068e-05
0.00119865
9.99466e-05
0.000120639
0.00138509
4.78153e-05
9.02938e-05
0.00132129
4.60767e-05
7.54705e-05
0.00139222
4.21945e-05
7.90711e-05
0.00138339
3.47695e-05
9.73376e-05
0.00144328
3.07657e-05
0.000101515
0.001396
2.45703e-05
8.94477e-05
0.00127455
2.0727e-05
8.52984e-05
0.00115652
2.15367e-05
9.94736e-05
0.00110373
2.05538e-05
8.68876e-05
0.00173361
7.49849e-06
7.64133e-05
0.00143626
7.33156e-06
7.07874e-05
0.00121917
5.36025e-06
6.84303e-05
0.00103169
4.9007e-06
7.11247e-05
0.000886264
5.87765e-06
7.00886e-05
0.000800196
6.9808e-06
4.94302e-05
0.000912187
0.000238678
-9.07817e-05
0.000644003
0.000387141
4.04198e-07
0.000938791
0.000319077
-3.52674e-06
0.00136664
8.48923e-05
-1.97416e-05
0.00132674
0.000106449
1.32381e-05
0.00137962
0.000109756
0.00013608
0.00161928
0.000104877
9.12896e-05
0.00143041
0.000101108
9.75685e-05
0.00116901
0.000103389
0.000119272
0.00112159
9.2552e-05
0.000100059
0.00139014
4.5362e-05
9.45253e-05
0.00133472
4.1381e-05
7.86389e-05
0.0014148
3.43084e-05
8.85831e-05
0.00138953
3.27642e-05
0.000107477
0.00120683
3.2719e-05
0.000112346
0.0014218
3.40339e-05
0.000102548
0.00137842
2.2216e-05
9.90557e-05
0.00125091
1.99403e-05
9.62191e-05
0.00112828
2.11785e-05
0.000105185
0.00107123
1.99726e-05
0.000103965
0.000963279
1.70192e-05
9.0082e-05
0.00164364
7.52665e-06
8.16206e-05
0.00135487
7.2706e-06
7.48782e-05
0.00114605
5.5651e-06
7.13223e-05
0.00096091
4.81461e-06
7.30524e-05
0.000812239
5.87371e-06
7.08296e-05
0.000728312
6.93164e-06
6.46369e-05
0.000636642
6.19447e-06
0.000415715
0.00245811
0.00109177
-0.00017113
0.000978307
0.000296326
-5.29933e-05
0.000147736
0.0002704
-7.58394e-06
0.000641093
0.000379372
-3.14436e-05
0.00103664
0.000300991
-5.88501e-05
0.00127801
0.000178901
6.51468e-05
0.00144695
5.23688e-05
-5.66732e-05
0.00143991
0.000119682
1.89686e-05
0.00144608
0.000118586
3.90555e-05
0.00155148
0.000100573
0.000115064
0.00159917
0.000106375
0.000128109
0.00139503
0.000106674
0.000104397
0.00114546
9.88999e-05
0.000126871
0.00109773
8.89592e-05
0.00012521
0.00129296
6.43346e-05
0.000104216
0.00141077
4.39829e-05
0.00010505
0.00134353
3.40507e-05
9.10256e-05
0.00143085
3.3359e-05
9.99023e-05
0.00139096
2.91936e-05
0.000121999
0.00119157
3.12126e-05
0.000126685
0.0011024
2.73909e-05
0.00010331
0.00141099
2.79204e-05
0.000112874
0.00135977
2.14246e-05
0.000106384
0.00122337
1.82518e-05
0.000103498
0.00109549
2.05516e-05
0.000108302
0.00103839
1.8767e-05
0.000102803
0.000933518
1.77606e-05
9.73585e-05
0.000801527
1.57155e-05
9.62482e-05
0.0015473
7.25986e-06
8.47995e-05
0.00127
7.59663e-06
7.81699e-05
0.0010696
5.55331e-06
7.33515e-05
0.000888419
4.70452e-06
7.46023e-05
0.000736812
5.63886e-06
7.21751e-05
0.000655561
6.44954e-06
6.65464e-05
0.000571616
5.41132e-06
5.8222e-05
0.000434672
3.88105e-06
0.000705892
0.00556279
0.00205542
0.000322688
0.00245211
0.000991739
0.000155892
0.00163984
0.000546344
-2.54612e-05
0.000958925
0.000260148
-0.00013388
0.00022693
0.000319569
-0.000165032
0.000340451
0.000309553
5.07103e-05
0.000693472
0.000320686
2.87369e-05
0.00106073
0.000269871
4.23737e-05
0.00140488
0.000150715
-2.73854e-05
0.00147108
8.45141e-05
6.92616e-05
0.00147901
9.67466e-05
4.37147e-05
0.00148974
8.69369e-05
4.55359e-05
0.00149347
0.000131147
6.75415e-05
0.0016032
0.000126192
0.000105461
0.00133342
0.000119314
0.000109946
0.00159874
0.000106423
0.000133851
0.00137377
9.88348e-05
0.000134891
0.00111041
9.78584e-05
0.000138105
0.00108031
7.81145e-05
0.00014863
0.00128553
6.97571e-05
0.000143223
0.00114267
6.19855e-05
9.64249e-05
0.00143601
4.11072e-05
0.000118719
0.00135422
2.74417e-05
0.000115496
0.00142547
3.03165e-05
0.000113009
0.00138195
3.28646e-05
0.000133053
0.00116925
2.6755e-05
0.000136436
0.00107678
2.32057e-05
0.000145416
0.000991999
1.82525e-05
0.000112013
0.00140084
2.65698e-05
0.000116975
0.00133527
2.02472e-05
0.0001127
0.00119315
1.71098e-05
0.000111463
0.00105904
1.65928e-05
0.000109211
0.00100636
1.79759e-05
0.00010669
0.000899213
1.85567e-05
0.000106014
0.000762532
1.72884e-05
0.000109477
0.000599871
1.55635e-05
0.000100953
0.00144626
6.98891e-06
8.70621e-05
0.00118271
7.48764e-06
8.0646e-05
0.000990734
5.81884e-06
7.47711e-05
0.00081479
4.41145e-06
7.63169e-05
0.000660232
4.96774e-06
7.39587e-05
0.000581709
5.53271e-06
6.69295e-05
0.000507055
4.08155e-06
5.88507e-05
0.000377887
3.34566e-06
5.60273e-05
0.000260839
3.76236e-06
0.000813866
0.00635646
0.00254101
0.00049088
0.00556179
0.00203375
0.000353908
0.00462017
0.00195728
0.000185463
0.00271644
0.000844427
2.08933e-05
0.00199229
0.000484514
1.03767e-05
0.00133558
0.00035198
-0.000159337
0.00109018
0.000300541
-2.59054e-05
0.000250364
0.000291357
-8.54555e-06
0.000385898
0.000325042
-8.40656e-05
0.000715861
0.000265567
0.000136745
0.000704265
0.000217595
7.74644e-05
0.00112863
0.000219042
8.41371e-05
0.00147435
0.000161802
-7.83527e-07
0.00159977
9.03588e-05
-3.69178e-05
0.00155666
8.29245e-05
8.43879e-05
0.0014755
0.00013494
8.39913e-05
0.0015167
0.000119638
0.000101983
0.00148816
0.000125157
9.10823e-05
0.00162397
0.0001574
0.000158019
0.00133094
0.000119292
0.00013508
0.00128646
0.000124944
0.000116758
0.00159063
0.000103821
0.000137442
0.00136708
9.4391e-05
0.000160762
0.0010758
8.81798e-05
0.00016773
0.00105348
6.99664e-05
0.00018829
0.00124725
6.11584e-05
0.00019923
0.00107357
7.60642e-05
0.000173715
0.000801817
7.77167e-05
0.000107505
0.00145308
3.84873e-05
0.000130505
0.00135675
2.50506e-05
0.000136137
0.00140716
2.23191e-05
0.000135715
0.00135496
3.30471e-05
0.000148594
0.00113119
3.15435e-05
0.00015608
0.00103922
1.49219e-05
0.000162051
0.000946073
1.30953e-05
0.000162416
0.000771295
1.88949e-05
0.000120945
0.00138059
2.49174e-05
0.0001215
0.00130671
2.06953e-05
0.000117928
0.00115853
1.7589e-05
0.000117721
0.00101782
1.53753e-05
0.000114973
0.000966897
1.74011e-05
0.000115454
0.000858447
1.72472e-05
0.000116179
0.000712445
1.93937e-05
0.000120748
0.000538404
1.68577e-05
0.000121689
0.000393539
1.42106e-05
0.000104501
0.00134206
6.33933e-06
8.86619e-05
0.00109387
7.16615e-06
8.23887e-05
0.000910154
5.67875e-06
7.56128e-05
0.000741228
3.76774e-06
7.68729e-05
0.000583941
3.82921e-06
7.45491e-05
0.000508009
4.118e-06
6.78532e-05
0.000441587
3.14677e-06
6.04419e-05
0.00031895
2.57701e-06
5.86978e-05
0.000201715
3.77099e-06
5.53058e-05
8.25053e-05
5.48348e-06
0.000492637
0.00648304
0.00284171
0.000416404
0.00636441
0.00247331
0.000514108
0.00602658
0.00249265
0.000372689
0.00549838
0.00211595
0.000553287
0.00421392
0.00190761
0.000828989
0.00228384
0.00177948
0.000144697
0.00284874
0.000570824
2.0822e-05
0.00234259
0.000447399
0.000118647
0.00132981
0.000363095
-4.5253e-05
0.000896432
0.000243839
-7.04786e-05
0.00123785
0.000302899
-2.47503e-05
0.000360253
0.000292866
2.12996e-05
0.000409649
0.000330443
-5.49709e-05
0.000810759
0.000284331
-9.18109e-05
0.00119003
0.000182685
0.000142057
0.000731845
0.000181431
9.7618e-05
0.00117879
0.000153806
0.000105906
0.0015463
0.000143175
3.63188e-05
0.00171566
0.000100674
8.23902e-06
0.00168123
0.000115568
7.88698e-06
0.0014964
0.000113813
7.20595e-05
0.0014868
0.000149949
0.000104343
0.00153273
0.000152008
0.000142849
0.00149093
0.000134779
0.000158588
0.00159391
0.000164364
0.000228852
0.00128241
0.000165367
0.000200221
0.00130745
9.73096e-05
0.000152772
0.00147267
6.14397e-05
0.0001354
0.00157998
0.000101353
0.000145997
0.0013587
9.67033e-05
0.00017202
0.00104713
8.71754e-05
0.000192383
0.00102466
6.03362e-05
0.000227106
0.00119202
4.66908e-05
0.000214539
0.00100217
7.41007e-05
0.000224339
0.000732215
8.33778e-05
0.000193582
0.000765248
6.89382e-05
0.000118113
0.00146916
3.38333e-05
0.000141726
0.00135707
1.79437e-05
0.000155478
0.00137578
1.88766e-05
0.000162012
0.00131018
2.28115e-05
0.000174668
0.001086
1.85469e-05
0.000179377
0.000987069
1.97717e-05
0.000189392
0.000877754
1.00282e-05
0.000183037
0.000706567
1.55344e-05
0.000165966
0.000541473
2.48296e-05
0.000125562
0.00135985
2.17072e-05
0.000126538
0.00127312
2.06345e-05
0.000123522
0.00111928
1.88071e-05
0.00012286
0.000971035
1.71309e-05
0.00012532
0.000915938
1.78878e-05
0.000129516
0.000800232
2.06486e-05
0.000127664
0.000651806
1.80749e-05
0.000131787
0.000469336
1.71169e-05
0.000129017
0.000324735
1.53425e-05
0.000120849
0.000212977
1.50905e-05
0.000109385
0.0012333
5.8565e-06
9.00024e-05
0.0010039
6.31126e-06
8.27189e-05
0.000829563
5.03865e-06
7.61117e-05
0.000667962
2.83243e-06
7.63484e-05
0.000509008
2.35218e-06
7.41029e-05
0.000435519
2.21691e-06
6.76908e-05
0.000375633
2.38208e-06
6.34382e-05
0.000256165
2.49337e-06
6.13954e-05
0.000139068
3.8292e-06
5.73362e-05
2.35943e-05
5.34583e-06
5.30318e-05
-5.3957e-05
6.63321e-06
0.000403478
0.00615617
0.00310467
0.000547189
0.00642601
0.00275733
0.000604237
0.00633194
0.00287914
0.000368236
0.00632391
0.00245733
0.000710132
0.00581597
0.00252708
0.0010119
0.00518024
0.00254575
0.000505757
0.00536399
0.00199624
0.000582865
0.00403878
0.00172905
0.000676099
0.00213822
0.00149578
0.000384434
0.00197863
0.00119415
0.000266733
0.00291765
0.000390994
0.000164526
0.00235643
0.000367708
2.62459e-06
0.00138464
0.000411237
-9.77752e-05
0.000965035
0.000337296
-0.000200109
0.000555589
0.000215004
-2.89074e-05
0.00132047
0.000348036
-7.60931e-05
0.000545068
0.000291795
0.000111578
0.000423748
0.000273095
8.88382e-05
0.000804578
0.000284105
-4.03476e-05
0.00134389
0.000179062
-0.000106474
0.00158364
0.000117137
0.000119641
0.000767713
0.000159761
0.000166807
0.00117752
0.000120239
0.000173104
0.00155266
0.000117191
0.000123206
0.00179853
9.56872e-05
0.000125495
0.00180317
8.20897e-05
1.02974e-05
0.00164311
0.000158786
9.08646e-05
0.00133239
0.000197689
8.89333e-05
0.0015029
0.000143674
9.89796e-05
0.00155652
0.000173184
0.00016118
0.00145737
0.000196413
0.000222653
0.0015315
0.000166916
0.000249391
0.00122864
0.00019585
0.000269133
0.00131758
0.000100644
0.000228602
0.00153191
3.38015e-05
0.000182146
0.00141937
7.44282e-06
0.000147347
0.00157347
9.9531e-05
0.000160304
0.00135131
9.01692e-05
0.000198339
0.00100901
9.19565e-05
0.000216254
0.000983313
7.42793e-05
0.000257608
0.001126
4.34148e-05
0.000228148
0.00093849
6.1601e-05
0.000244971
0.000670969
7.97677e-05
0.00022992
0.000732071
6.96713e-05
0.000213621
0.00091243
3.6603e-05
0.000131539
0.00147854
3.05732e-05
0.000158995
0.00135168
6.76595e-06
0.00018543
0.00132706
4.75877e-06
0.000191203
0.00124853
1.21795e-05
0.000199747
0.00102442
9.96476e-06
0.000211734
0.000926496
-3.09742e-06
0.000213944
0.000795986
1.52599e-05
0.000207738
0.000625685
1.49582e-05
0.000182019
0.000481601
2.24054e-05
0.000165384
0.000409425
2.91193e-05
0.000135047
0.00133418
1.98559e-05
0.000126468
0.00123925
1.91084e-05
0.000128142
0.00107747
1.70217e-05
0.000129939
0.000918998
1.70169e-05
0.00013712
0.000855461
1.68364e-05
0.00014289
0.000728185
2.1147e-05
0.000140878
0.000581128
1.81399e-05
0.000142043
0.000393009
1.57969e-05
0.000137782
0.000249763
1.57024e-05
0.000127041
0.000142125
1.64897e-05
0.000114996
8.05479e-05
1.73298e-05
0.000112534
0.00112167
5.37683e-06
9.21607e-05
0.000912334
5.258e-06
8.33108e-05
0.000748625
3.93815e-06
7.65373e-05
0.000594947
1.51672e-06
7.52281e-05
0.00043607
5.43116e-07
7.40166e-05
0.00036275
1.10447e-06
6.90207e-05
0.000307289
1.54025e-06
6.7538e-05
0.000188244
2.76466e-06
6.4474e-05
7.29897e-05
4.0974e-06
5.91902e-05
-3.70794e-05
5.31266e-06
5.42246e-05
-0.000109484
6.6487e-06
4.90045e-05
-0.000159732
7.58271e-06
0.000204937
0.0054166
0.00366722
0.000350685
0.00570028
0.00338914
0.000533209
0.00611069
0.00311315
0.000440663
0.00612201
0.00321084
0.000417725
0.00642511
0.00278638
0.000571646
0.00635976
0.00286801
0.000638444
0.00613354
0.0030765
0.000391508
0.00639359
0.00244097
0.000591892
0.00579679
0.00246749
0.000719311
0.00506394
0.00260017
0.000621341
0.00441706
0.00247359
0.000656909
0.00518334
0.00193894
0.000780166
0.00383062
0.00158876
0.000514821
0.00243539
0.000919686
0.000247054
0.00234474
0.000784841
2.91301e-05
0.00221878
0.000632586
0.000319003
0.00297137
0.000403373
-1.45303e-05
0.00232898
0.000356877
-2.30686e-05
0.0014651
0.000421901
2.07053e-05
0.00109057
0.000353835
-2.92248e-05
0.000602711
0.000279051
-0.000265588
0.000629213
0.000208164
1.20215e-05
0.00134784
0.000351437
0.000111295
0.000625257
0.000323359
0.000155555
0.000478922
0.00025417
0.000197734
0.000772602
0.000230543
0.000220555
0.00139401
0.000138922
3.02765e-05
0.00162384
0.000118884
-2.21847e-05
0.00169347
9.5811e-05
0.000138325
0.000823641
0.000125709
0.000174355
0.00116546
9.64409e-05
0.000222314
0.00152191
8.98492e-05
0.0002054
0.00184728
8.56918e-05
0.000161833
0.0019201
6.6315e-05
0.000145933
0.00172851
0.000119891
0.000126957
0.00137397
0.000218854
0.000186719
0.00120702
0.000207167
9.60336e-05
0.00149511
0.00017413
0.000115761
0.00157669
0.000168046
0.000197577
0.00144286
0.000188452
0.00026686
0.00148508
0.000192221
0.000308724
0.00114213
0.000202306
0.000282194
0.00132457
0.000134823
0.000257289
0.00160034
1.98932e-05
0.000243325
0.001461
-2.12305e-05
0.000306037
0.000799999
4.13744e-05
0.000152599
0.001569
9.94238e-05
0.000164288
0.00136151
8.40414e-05
0.000231432
0.000968971
8.42091e-05
0.000259074
0.000919777
8.76222e-05
0.00028077
0.00106079
5.8462e-05
0.000242018
0.000885805
6.58158e-05
0.000309609
0.000569206
6.76995e-05
0.000264957
0.000693801
6.08192e-05
0.000255619
0.000874959
3.35416e-05
0.00023881
0.000728578
1.28634e-05
0.000151694
0.00147404
2.96956e-05
0.000175634
0.00133086
2.22189e-06
0.000211264
0.00125736
-6.65322e-06
0.000221105
0.00117025
-8.12281e-06
0.000225013
0.000936675
1.20273e-05
0.000239909
0.000843899
-4.45725e-06
0.000244778
0.000682788
6.20081e-06
0.000231199
0.00053537
1.6418e-05
0.00020674
0.000406217
2.13839e-05
0.000182435
0.000353186
2.32502e-05
0.000166267
0.000293178
2.73068e-05
0.000144368
0.00130128
1.73497e-05
0.000128046
0.00120568
1.75429e-05
0.000131241
0.0010341
1.455e-05
0.000136071
0.000863722
1.2764e-05
0.000150574
0.000782297
1.48344e-05
0.000153053
0.000647507
1.84791e-05
0.000153609
0.000501386
1.63e-05
0.000150051
0.000314849
1.37872e-05
0.000146525
0.000168189
1.53204e-05
0.000132406
6.82004e-05
1.64107e-05
0.000120589
1.26832e-05
1.79902e-05
0.000104388
-1.70915e-05
1.96383e-05
0.000115345
0.00100758
4.51779e-06
9.46486e-05
0.000819189
3.87299e-06
8.3933e-05
0.000667704
2.24661e-06
7.69399e-05
0.00052196
-1.5121e-08
7.49341e-05
0.00036329
-6.37569e-07
7.5106e-05
0.000287803
3.84184e-07
7.24143e-05
0.000234366
1.61263e-06
7.16582e-05
0.000114934
3.19245e-06
6.77362e-05
3.496e-06
4.52215e-06
6.067e-05
-9.92212e-05
5.56917e-06
5.53069e-05
-0.000166175
6.69629e-06
4.96835e-05
-0.000210383
7.61694e-06
4.25732e-05
-0.000251651
8.44647e-06
8.35822e-05
0.00523837
0.00394875
0.000240083
0.00541709
0.00367018
0.000376303
0.00538774
0.00367301
0.000369823
0.00575159
0.00342907
0.000539231
0.00572914
0.00334504
0.00047486
0.00603667
0.00311584
0.000474941
0.0061489
0.00318296
0.000469039
0.00612639
0.00330804
0.0003988
0.0064193
0.00279427
0.000507456
0.00636013
0.00287044
0.000619725
0.00615734
0.00294379
0.00062309
0.00585898
0.0030741
0.000536272
0.0064558
0.00242258
0.000645168
0.00594832
0.00242443
0.000727702
0.00487363
0.00244491
0.000364192
0.00442902
0.00247107
0.000634024
0.00365296
0.00228189
0.000725265
0.00508832
0.00169717
0.000580925
0.00381627
0.00135783
0.000515473
0.00261578
0.000869829
0.000279148
0.00261319
0.000392795
0.000282836
0.00232535
0.000366211
-0.000285824
0.00186043
0.000449628
0.000182709
0.00321274
0.000453793
0.000164895
0.00231032
0.000368437
0.000102482
0.00138999
0.000485054
9.08314e-05
0.00120939
0.00040998
0.000247599
0.000672643
0.00025686
8.39024e-05
0.000666335
0.000188304
-4.81592e-05
0.00118011
0.000259491
-9.93246e-05
0.0014224
0.000426086
3.01004e-05
0.000796307
0.000324642
0.000332771
0.000477597
0.000214226
0.000125994
0.000920014
0.000186165
0.000115289
0.00154217
0.000128932
0.00016299
0.00165502
9.06829e-05
0.000118514
0.00175654
6.42525e-05
6.75403e-05
0.00162903
7.20947e-05
0.000118459
0.000917254
0.000107305
0.000151879
0.00117561
7.94442e-05
0.000245621
0.00147556
9.47534e-05
0.000279768
0.00182993
9.42953e-05
0.000262151
0.00197101
8.13505e-05
0.00024118
0.0017575
7.83364e-05
0.000207449
0.00136744
0.000176265
0.000256619
0.00117134
0.000241241
0.000232902
0.00167723
0.000100514
0.000108141
0.00150307
0.000158308
0.00013671
0.00158491
0.000193486
0.000228111
0.0014405
0.000173733
0.000293293
0.00147591
0.000163405
0.000340225
0.00111804
0.000156859
0.000329958
0.00131306
0.000125874
0.000354949
0.00166637
2.34549e-05
0.000293999
0.00145917
-7.32303e-06
0.000342704
0.000663336
2.83485e-05
0.000332339
0.000502791
7.37864e-05
0.00016657
0.00158059
0.000106168
0.000210529
0.00134637
7.96616e-05
0.000269517
0.000926313
6.84458e-05
0.000298607
0.000834545
9.19388e-05
0.000303119
0.000991901
7.8408e-05
0.000276773
0.000842308
6.50951e-05
0.000228184
0.000584762
6.68541e-05
0.000306575
0.00063579
5.0335e-05
0.000293047
0.00082343
2.60418e-05
0.000272064
0.000659034
1.34565e-05
0.00021998
0.00047203
1.46129e-05
0.000177195
0.00145033
2.84044e-05
0.000194903
0.00128395
9.74953e-06
0.000222435
0.001172
-3.61845e-06
0.000242852
0.00106936
-1.254e-05
0.000251725
0.000822511
4.89066e-06
0.000251187
0.000756444
1.34798e-06
0.000260502
0.000565727
5.71168e-06
0.000252337
0.000422894
1.63921e-05
0.000230141
0.000317776
2.12428e-05
0.000204362
0.000281245
2.13693e-05
0.000181327
0.000231646
2.40442e-05
0.000156591
0.000151992
2.77503e-05
0.0001523
0.00126237
1.58725e-05
0.000136125
0.00116653
1.50232e-05
0.000136066
0.000988499
1.10127e-05
0.000140702
0.000805434
9.07573e-06
0.000160277
0.000697458
1.22602e-05
0.000161278
0.000561752
1.44165e-05
0.00016424
0.000413294
1.47454e-05
0.000156476
0.000234198
1.21322e-05
0.000151971
8.36689e-05
1.4072e-05
0.000138824
-1.08104e-05
1.61769e-05
0.000126211
-5.93448e-05
1.75341e-05
0.000108288
-7.74199e-05
1.97139e-05
9.13184e-05
-0.000101478
2.20496e-05
0.000116906
0.000892648
3.37801e-06
9.60167e-05
0.000725673
2.01759e-06
8.48623e-05
0.000586419
2.95644e-07
7.84798e-05
0.00044667
-9.43117e-07
7.75407e-05
0.000286964
-1.22994e-06
7.95318e-05
0.000207012
6.21468e-07
7.74699e-05
0.000155034
2.24667e-06
7.53886e-05
3.75424e-05
3.61554e-06
7.08398e-05
-6.90228e-05
4.8715e-06
6.19261e-05
-0.000162593
5.9677e-06
5.59662e-05
-0.000223484
6.9119e-06
5.00686e-05
-0.000261462
7.70652e-06
4.25783e-05
-0.000295079
8.46634e-06
3.5178e-05
-0.00031819
9.57133e-06
5.56844e-05
0.00534983
0.00390436
0.000152128
0.00531915
0.00376016
0.000181968
0.00521577
0.00391185
0.000522086
0.00519505
0.00382281
0.000248315
0.00543404
0.00369965
0.000485874
0.00542503
0.00368625
0.000416682
0.00534752
0.00363802
0.000463162
0.00569045
0.00341044
0.00053917
0.00572493
0.00336904
0.00048292
0.00582037
0.00330538
0.000409407
0.00594177
0.00316421
0.000473489
0.00611
0.0031887
0.000527496
0.00607657
0.00332501
0.000550262
0.0059819
0.00332742
0.000577552
0.00633955
0.00279147
0.000576961
0.00634177
0.00288085
0.00077768
0.00604208
0.00293572
0.000409238
0.00573274
0.00302499
0.000774398
0.00539976
0.00308658
0.000700336
0.00642838
0.00241357
0.000684427
0.00596125
0.00230614
0.000732569
0.00479969
0.00228128
0.000885761
0.00414056
0.00212676
0.000511621
0.00377527
0.00211997
0.000214778
0.00337533
0.00194898
0.000574368
0.00508559
0.00168802
0.000684846
0.0039024
0.00109109
0.000679401
0.00285166
0.000545038
0.000316187
0.00287276
0.000384904
0.000252583
0.00239411
0.000319054
4.09857e-05
0.00191668
0.000352879
-8.03738e-05
0.0019096
0.000511651
5.78864e-05
0.0035209
0.000491584
-0.000160769
0.00251209
0.000442889
0.000138092
0.00148582
0.00046729
-0.000105844
0.00140243
0.000523856
1.57566e-05
0.000791178
0.000390977
0.000165693
0.00074274
0.000177752
0.000262805
0.00104725
0.00017688
-2.86571e-05
0.00198962
0.000204344
-0.000164134
0.00156218
0.000470962
0.000172331
0.000811334
0.000390607
0.000129686
0.000708423
0.00020975
0.000279562
0.00102065
0.000113795
0.000255132
0.00166015
7.52011e-05
9.60653e-05
0.00184007
8.89912e-05
0.000224939
0.00169608
0.000133658
0.000220546
0.0017183
1.10559e-05
0.000214192
0.00133824
0.0001063
8.2862e-05
0.00107718
0.000100801
0.000281384
0.00107422
6.4017e-05
0.000273572
0.00140775
0.000101792
0.000350487
0.00175553
0.000111959
0.000307423
0.00197111
0.000126996
0.000345042
0.00169076
0.000133005
0.000320544
0.00132466
0.000155518
0.000338766
0.00108812
0.000214721
0.000298514
0.00184905
0.000113605
0.000271969
0.00175684
8.62758e-06
0.000124303
0.00152058
0.000163909
0.000209255
0.00157488
0.00016961
0.000265681
0.00147252
0.000165299
0.000323225
0.00147938
0.000145648
0.000393642
0.00105475
0.000136169
0.000380078
0.00125019
0.000116424
0.000280259
0.00172884
1.13308e-05
0.000353003
0.00143775
-1.55556e-06
0.000355782
0.000566161
2.71166e-05
0.000343338
0.000407645
5.22204e-05
0.000279629
0.000574966
6.31177e-05
0.000196922
0.0015765
0.000102574
0.000241879
0.00133028
7.52912e-05
0.000284934
0.000889596
5.38794e-05
0.000338217
0.00072838
7.92461e-05
0.000329781
0.00091883
8.69544e-05
0.000299341
0.00079595
7.66119e-05
0.00030362
0.000537547
6.91915e-05
0.000337509
0.00057383
4.36417e-05
0.000329022
0.000756864
1.80202e-05
0.000297721
0.000583576
8.1412e-06
0.000246388
0.000404482
1.59436e-05
0.00020741
0.000329791
2.30953e-05
0.000198203
0.00141359
2.6421e-05
0.000204485
0.00122848
1.55103e-05
0.000222838
0.00108419
1.07936e-05
0.000251928
0.000949405
5.10739e-06
0.000264515
0.000706724
-9.90328e-07
0.000260516
0.000644208
1.78893e-05
0.00027055
0.000460268
4.95862e-07
0.000265584
0.000305816
1.36819e-05
0.000246289
0.000223021
1.68289e-05
0.000225407
0.000194431
2.14734e-05
0.000195933
0.000164431
1.88622e-05
0.000161983
9.60505e-05
2.6291e-05
0.000142316
3.28509e-05
3.0486e-05
0.00015999
0.00121637
1.29995e-05
0.00015028
0.00111569
1.24404e-05
0.000147236
0.000933291
7.85742e-06
0.000150253
0.00073961
5.06347e-06
0.000167512
0.000606741
9.82192e-06
0.000173264
0.000468259
1.20214e-05
0.00017162
0.000321376
1.21852e-05
0.000161735
0.000151183
1.1415e-05
0.000154778
-3.20068e-07
1.21834e-05
0.000143028
-9.38986e-05
1.60579e-05
0.000129494
-0.00013339
1.66935e-05
0.00011322
-0.000142424
1.93869e-05
9.46111e-05
-0.000156012
2.22148e-05
7.80367e-05
-0.000178277
2.52536e-05
0.000117258
0.000778162
1.86406e-06
9.66432e-05
0.000632802
-3.94159e-07
8.65555e-05
0.000502951
-1.07064e-06
8.23524e-05
0.000366151
-1.53714e-06
8.38736e-05
0.000202803
-6.56067e-07
8.57866e-05
0.000118635
1.36022e-06
8.26188e-05
7.01239e-05
2.91254e-06
7.88199e-05
-4.29998e-05
3.96894e-06
7.3256e-05
-0.000143645
4.98212e-06
6.28935e-05
-0.000226727
6.11215e-06
5.62352e-05
-0.00028084
7.08834e-06
5.01841e-05
-0.000312506
7.77134e-06
4.23967e-05
-0.000338266
8.49685e-06
3.50405e-05
-0.000354417
9.65284e-06
2.75232e-05
-0.000342625
1.05911e-05
-5.78827e-05
0.00460638
0.0043325
0.000134043
0.00524147
0.00404181
6.64786e-05
0.00477082
0.00434271
0.000177162
0.00530847
0.00384432
0.000519017
0.00512236
0.0038056
0.00021092
0.00520808
0.00390513
0.000477203
0.00521774
0.00389784
0.00061449
0.00524606
0.00370448
0.000383325
0.00542457
0.00366064
0.000644932
0.00535973
0.00365918
0.000574871
0.00532652
0.0036153
0.000513118
0.00537642
0.00349066
0.000331837
0.00566863
0.0034482
0.000509765
0.00570992
0.00338918
0.000618597
0.00575395
0.00334437
0.000618026
0.0057092
0.00325839
0.000447239
0.00591865
0.00324557
0.000604572
0.00599189
0.00325471
0.00066479
0.00605991
0.00331826
0.000564686
0.00578346
0.00336801
0.00077532
0.0058448
0.00323549
0.000614348
0.00636647
0.00281537
0.000745845
0.00623446
0.00283736
0.000759622
0.00595242
0.00294346
0.00108791
0.00550244
0.00296388
0.000512081
0.00538485
0.00303945
0.00064917
0.00489732
0.00290279
0.000713154
0.00627197
0.00237399
0.000875109
0.0059734
0.00221116
0.000690766
0.00504344
0.00205102
0.00067053
0.0040834
0.0019841
0.000735653
0.00375495
0.00166401
0.000426836
0.00346821
0.00164124
0.000284338
0.0029942
0.00130032
0.000535794
0.00509132
0.00162468
0.000447546
0.0037529
0.00122921
0.000430206
0.00313446
0.000516168
0.000149207
0.00285795
0.000304798
0.000141193
0.00228514
0.000368442
3.21689e-05
0.00196982
0.00039944
0.000157755
0.00193401
0.000433519
-2.27076e-05
0.00223362
0.000466428
-1.3764e-05
0.00379265
0.000561204
0.000113446
0.00273814
0.000324415
-0.000241761
0.0017652
0.000534957
0.000249508
0.00138541
0.00051436
0.000412098
0.0006082
0.000549869
3.48685e-05
0.000874362
0.000320551
0.000222387
0.00108243
0.000145117
0.00024603
0.00208058
6.04368e-05
0.000313437
0.00190527
0.000108054
-0.000162325
0.0016586
0.00058296
0.000450683
0.000717052
0.000395946
0.000663501
0.000526759
0.000182342
0.000474703
0.00103744
6.87443e-05
0.000425153
0.00160893
4.72856e-05
0.000276986
0.00192033
6.30054e-05
0.000272738
0.00172459
0.000108285
0.000349815
0.00171539
0.000125522
0.000473436
0.00108378
9.05917e-05
0.000433247
0.000980959
0.000151027
0.000128185
0.00119428
9.25397e-05
0.000309357
0.00100734
6.75784e-05
0.000375732
0.00124969
0.000112019
0.000409645
0.0016573
0.000113605
0.000411148
0.00194669
0.000118872
0.000406396
0.00165948
0.000131965
0.000407936
0.00114065
0.000189337
0.000452209
0.000942276
0.000202153
0.00033671
0.00199107
9.17764e-05
0.000350328
0.00188089
-1.74314e-05
0.000311658
0.00127883
-1.39149e-05
0.000142294
0.00154739
0.000165546
0.000257383
0.00156017
0.000163119
0.000296949
0.00146958
0.000160535
0.000351006
0.00150341
0.000128476
0.00047735
0.00093093
0.000121897
0.00044542
0.00113992
0.000100355
0.000443696
0.00165351
5.16756e-05
0.000409169
0.00137252
4.90813e-06
0.000370505
0.000488035
3.5087e-05
0.000323977
0.000358862
4.96443e-05
0.000313941
0.000519911
3.97233e-05
0.000281245
0.000559044
3.92322e-05
0.000223004
0.00156555
9.82517e-05
0.000258183
0.00130585
7.33033e-05
0.000297129
0.000849234
4.13625e-05
0.000356722
0.000636094
4.1371e-05
0.000367253
0.000812229
8.31088e-05
0.000336561
0.000734165
7.26943e-05
0.000313086
0.00050225
6.93725e-05
0.00036164
0.00050018
4.67851e-05
0.000366653
0.000662556
1.75859e-05
0.000314667
0.000504649
7.68774e-06
0.000267044
0.000330326
1.1186e-05
0.000222561
0.000263348
2.18082e-05
0.000203017
0.000154279
2.88532e-05
0.000218451
0.00136193
2.58394e-05
0.000221665
0.00116871
1.48142e-05
0.000227343
0.0010018
1.77944e-05
0.000257176
0.000833108
2.01665e-05
0.000270197
0.00060072
8.42498e-06
0.00027283
0.00052958
1.40708e-05
0.000276918
0.000362767
1.00924e-05
0.000276773
0.000178784
1.24894e-05
0.000257352
0.000118873
1.52557e-05
0.000237304
9.97703e-05
1.72137e-05
0.00020583
9.06185e-05
1.89506e-05
0.000172171
3.29193e-05
2.30416e-05
0.000152426
-2.61339e-05
2.74609e-05
0.000130641
-6.23114e-05
3.40494e-05
0.000172184
0.00115965
1.06986e-05
0.000166267
0.00104913
9.9442e-06
0.000164724
0.000861085
6.47732e-06
0.000164685
0.000660848
4.2873e-06
0.00017662
0.000510767
8.29157e-06
0.000185202
0.000366578
1.20886e-05
0.000180049
0.000225328
1.06389e-05
0.000168809
6.26944e-05
1.06846e-05
0.000156356
-8.34889e-05
1.14837e-05
0.000144955
-0.000178563
1.47858e-05
0.000131066
-0.000208682
1.65196e-05
0.000115464
-0.000210007
1.89967e-05
9.60609e-05
-0.000212276
2.19864e-05
8.09168e-05
-0.000227223
2.52844e-05
6.39729e-05
-0.000239916
2.84969e-05
0.000116047
0.000666
-1.24074e-07
9.70021e-05
0.000539392
-1.7281e-06
9.01772e-05
0.000414779
-2.399e-06
8.93676e-05
0.000276954
-1.2411e-06
9.0829e-05
0.000110058
3.79462e-07
9.17914e-05
2.39575e-05
2.2302e-06
8.72836e-05
-1.91702e-05
3.37075e-06
8.19372e-05
-0.000126054
4.02948e-06
7.44315e-05
-0.000219108
5.00018e-06
6.37329e-05
-0.000291611
6.13304e-06
5.64295e-05
-0.000338192
7.03464e-06
5.01944e-05
-0.000363472
7.85984e-06
4.23539e-05
-0.000381343
8.49473e-06
3.46675e-05
-0.000390271
9.68307e-06
2.69695e-05
-0.000370627
1.06855e-05
1.75794e-05
-0.000336632
1.16093e-05
2.07907e-05
0.00442806
0.004203
5.9111e-05
0.0046585
0.00431275
-6.04236e-05
0.00465981
0.00429432
0.00019484
0.00513895
0.00407429
0.000234017
0.00483262
0.00426501
0.000362164
0.00471883
0.00443312
0.000256596
0.00522422
0.0038344