/*--------------------------------*- C++ -*----------------------------------*\
  =========                 |
  \\      /  F ield         | OpenFOAM: The Open Source CFD Toolbox
   \\    /   O peration     | Website:  https://openfoam.org
    \\  /    A nd           | Version:  7
     \\/     M anipulation  |
\*---------------------------------------------------------------------------*/
FoamFile
{
    version     2.0;
    format      ascii;
    class       volVectorField;
    location    "1.5";
    object      U;
}
// * * * * * * * * * * * * * * * * * * * * * * * * * * * * * * * * * * * * * //

dimensions      [0 1 -1 0 0 0 0];

internalField   nonuniform List<vector> 
18630
(
(-1.18564 0.298955 0.199592)
(-0.857824 0.228097 0.295526)
(-1.18503 0.278057 0.193952)
(-0.992207 0.3338 0.20292)
(-0.790762 0.153595 0.225376)
(-0.868264 0.189448 0.273554)
(-0.780884 0.283823 0.304804)
(-1.17263 0.250528 0.174319)
(-0.982915 0.320237 0.190944)
(-0.85251 0.376412 0.154499)
(-0.862664 0.147469 0.30625)
(-0.782236 0.114788 0.2353)
(-0.70455 0.071736 0.297913)
(-0.86188 0.227193 0.313471)
(-0.836871 0.213253 0.222295)
(-0.724483 0.2676 0.190775)
(-1.17466 0.230883 0.169768)
(-0.989311 0.310695 0.189692)
(-0.84147 0.373173 0.1563)
(-0.718456 0.410168 0.111916)
(-0.579621 -0.101896 0.132569)
(-0.886319 0.0795901 0.277406)
(-0.770689 0.132754 0.257319)
(-0.77632 0.0732616 0.246396)
(-0.698809 0.0355512 0.290391)
(-0.713709 0.0362039 0.230723)
(-0.894049 0.160136 0.281628)
(-0.831944 0.193699 0.211007)
(-0.755127 0.273222 0.180714)
(-0.668076 0.31268 0.205557)
(-1.18403 0.229025 0.158704)
(-0.999212 0.308444 0.18253)
(-0.842414 0.351892 0.141081)
(-0.718465 0.409952 0.110531)
(-0.633711 0.515142 0.130625)
(-0.310578 0.0176085 0.707905)
(-0.593354 -0.157391 0.152728)
(-0.601804 -0.0101303 0.247171)
(-0.886241 0.0326204 0.284753)
(-0.772074 0.06194 0.287431)
(-0.641713 0.0725108 0.30713)
(-0.774324 0.0299645 0.230885)
(-0.709754 0.0158928 0.224113)
(-0.718128 0.00764066 0.216622)
(-0.727722 0.0364644 0.174212)
(-0.895982 0.134288 0.256424)
(-0.837623 0.231341 0.215166)
(-0.782908 0.237153 0.152942)
(-0.704456 0.29525 0.164053)
(-0.652046 0.354626 0.165308)
(-1.17889 0.23006 0.152197)
(-0.994273 0.311658 0.179888)
(-0.846818 0.340584 0.133063)
(-0.725342 0.400575 0.1066)
(-0.636274 0.502874 0.113765)
(-0.555609 0.534429 0.150754)
(-0.354832 -0.196238 0.423516)
(-0.29507 -0.0857375 0.755741)
(-0.424338 -0.230246 0.73378)
(-0.641872 -0.129 0.150477)
(-0.657005 -0.043735 0.213089)
(-0.6912 0.0577393 0.290255)
(-0.893701 0.0107929 0.297894)
(-0.759258 -0.00493984 0.316137)
(-0.625078 0.0430929 0.321436)
(-0.606296 0.130991 0.32936)
(-0.741747 -0.0852724 0.247499)
(-0.722461 0.00757063 0.195833)
(-0.738787 -0.00342233 0.181146)
(-0.722204 0.013774 0.158792)
(-0.669522 0.189225 0.139404)
(-0.902733 0.199525 0.306149)
(-0.875103 0.129493 0.189396)
(-0.781032 0.23095 0.14912)
(-0.706094 0.294045 0.15442)
(-0.660577 0.337398 0.157599)
(-0.583127 0.384995 0.141654)
(-1.19875 0.228238 0.152605)
(-1.0054 0.303439 0.176332)
(-0.853366 0.352209 0.142459)
(-0.721301 0.396043 0.102603)
(-0.637087 0.490537 0.112403)
(-0.556806 0.528334 0.153065)
(-0.459134 0.516701 0.162113)
(-1.22754 0.00914648 2.09961)
(-0.450618 -0.417948 0.433273)
(-0.0514429 0.137899 0.384874)
(-0.280184 -0.206415 0.79398)
(-0.403696 -0.328803 0.766712)
(-0.524542 -0.291805 0.554354)
(-0.726644 -0.109407 0.111649)
(-0.681508 -0.0971969 0.270965)
(-0.737781 0.00327342 0.304158)
(-0.770932 0.0679555 0.239816)
(-0.869903 -0.0757513 0.309862)
(-0.740248 -0.0651578 0.358013)
(-0.610028 -0.0191436 0.32317)
(-0.603118 0.120341 0.330231)
(-0.682974 0.11232 0.255398)
(-0.733017 -0.120931 0.264099)
(-0.750553 -0.00127622 0.154161)
(-0.769553 -0.0171843 0.16535)
(-0.736829 0.021327 0.124339)
(-0.669707 0.179911 0.133037)
(-0.612721 0.226474 0.153085)
(-0.955657 0.0821539 0.218287)
(-0.866131 0.133163 0.191316)
(-0.787617 0.181639 0.139862)
(-0.717302 0.263982 0.144455)
(-0.667141 0.307693 0.158676)
(-0.586247 0.324974 0.140427)
(-0.489926 0.32537 0.112465)
(-1.20725 0.220385 0.145961)
(-1.00716 0.29867 0.176459)
(-0.87133 0.359161 0.141081)
(-0.725538 0.383887 0.100981)
(-0.635712 0.483839 0.111285)
(-0.555319 0.523089 0.151109)
(-0.461767 0.502541 0.156489)
(-0.33644 0.442418 0.115944)
(-2.851 -0.0539796 2.76617)
(-1.14436 -0.394106 2.04756)
(-0.653715 -0.405621 1.08758)
(-0.405079 -0.057869 0.368841)
(-0.149495 0.0853544 0.561973)
(-0.138137 -0.0159079 0.544589)
(-0.295568 -0.0711126 0.706543)
(-0.397411 -0.495128 0.692157)
(-0.612949 -0.335906 0.436422)
(-0.660736 -0.260951 0.171601)
(-0.72689 -0.209423 0.217967)
(-0.796059 -0.0111435 0.1474)
(-0.770059 0.00637814 0.311081)
(-0.821379 0.0149563 0.264524)
(-0.704698 0.121865 0.25963)
(-0.844638 -0.106938 0.35352)
(-0.725614 -0.0949732 0.352946)
(-0.596971 -0.0273781 0.3138)
(-0.608731 0.083794 0.296572)
(-0.690842 0.12135 0.231724)
(-0.639601 0.204278 0.155171)
(-0.725081 -0.222549 0.251844)
(-0.771809 -0.0232958 0.122242)
(-0.799504 -0.00707134 0.141391)
(-0.763289 0.02245 0.1306)
(-0.677727 0.160598 0.133424)
(-0.622755 0.208744 0.143546)
(-0.566321 0.258248 0.0909709)
(-0.947189 0.0786091 0.20598)
(-0.870555 0.0779375 0.186865)
(-0.781472 0.131227 0.123008)
(-0.719194 0.227652 0.127613)
(-0.667463 0.26018 0.159636)
(-0.585806 0.28262 0.12111)
(-0.493917 0.325906 0.123358)
(-0.399226 0.364838 0.120404)
(-1.20227 0.210948 0.141746)
(-1.0116 0.279263 0.170294)
(-0.878788 0.350998 0.154899)
(-0.725515 0.377582 0.101783)
(-0.633683 0.475804 0.106596)
(-0.556253 0.507954 0.139951)
(-0.457766 0.478112 0.136497)
(-0.333211 0.415582 0.0857975)
(-0.238746 0.404981 0.0591501)
(-3.28209 0.156141 2.76745)
(-2.82156 -0.0567775 2.71752)
(-2.39298 0.0745141 2.54608)
(-1.14554 -0.528008 1.73193)
(-0.75183 -0.65653 0.85186)
(-0.561372 -0.5297 0.546932)
(-0.528868 -0.149336 0.438467)
(-0.235823 0.368917 0.512532)
(-0.253043 0.228344 0.520718)
(-0.304395 -0.0139388 0.484867)
(-0.388055 -0.0663153 0.486904)
(-0.42468 -0.356357 0.550173)
(-0.63165 -0.359984 0.389906)
(-0.721063 -0.230657 0.171514)
(-0.736822 -0.081846 0.163264)
(-0.690421 -0.286477 0.306477)
(-0.8116 -0.0600298 0.248035)
(-0.823516 0.0435895 0.276017)
(-0.851094 0.0020882 0.317205)
(-0.727027 0.120438 0.360591)
(-0.669269 0.111601 0.327425)
(-0.857555 -0.168849 0.35984)
(-0.731915 -0.0910256 0.314301)
(-0.611448 0.00264107 0.265724)
(-0.599416 0.0655594 0.297041)
(-0.710445 0.114139 0.193769)
(-0.626831 0.203916 0.213122)
(-0.481934 0.328939 0.237302)
(-0.722636 -0.246824 0.232625)
(-0.785225 -0.0471484 0.104708)
(-0.818936 0.00027907 0.113464)
(-0.785122 0.0375589 0.127706)
(-0.684009 0.140594 0.157309)
(-0.632437 0.215323 0.101886)
(-0.58034 0.271431 0.0639664)
(-0.482181 0.356101 0.0703204)
(-0.959544 0.0624307 0.202733)
(-0.865755 0.0356823 0.1756)
(-0.767664 0.0830788 0.10879)
(-0.706508 0.177968 0.125836)
(-0.666829 0.225956 0.11736)
(-0.591466 0.272532 0.107432)
(-0.505719 0.311926 0.153577)
(-0.400605 0.374896 0.131716)
(-0.306322 0.418317 0.109323)
(-1.20519 0.19273 0.129071)
(-1.00824 0.263423 0.165414)
(-0.871701 0.351002 0.156291)
(-0.726404 0.372278 0.0989637)
(-0.630089 0.45563 0.0917565)
(-0.549886 0.483788 0.113864)
(-0.449792 0.447853 0.10634)
(-0.327732 0.399802 0.0454131)
(-0.238278 0.408105 0.0645537)
(-0.14689 0.406629 0.108185)
(-3.09296 -0.186719 2.83267)
(-3.05273 -0.587077 2.79468)
(-2.92746 -0.498263 2.997)
(-2.76864 -0.438571 2.80309)
(-2.25432 -0.12455 2.53105)
(-1.29201 0.162377 2.44254)
(-1.14281 -0.919049 1.08199)
(-0.848957 -0.828332 0.703001)
(-0.524787 -0.486797 0.553017)
(-0.388711 -0.362086 0.44023)
(-0.595136 -0.0380063 0.466699)
(-0.261799 0.298073 0.569911)
(-0.316722 0.296832 0.463469)
(-0.39913 -0.0832524 0.557626)
(-0.494278 -0.302967 0.393551)
(-0.392997 0.014308 0.434359)
(-0.490113 -0.288869 0.361663)
(-0.670538 -0.335423 0.324554)
(-0.759866 -0.265179 0.250507)
(-0.820667 -0.0178234 0.182613)
(-0.729089 0.0466905 0.17053)
(-0.67795 -0.304086 0.318057)
(-0.788156 -0.149716 0.336422)
(-0.83433 0.0184361 0.332026)
(-0.882363 0.0547405 0.321442)
(-0.73324 0.195846 0.455593)
(-0.732179 0.267838 0.226606)
(-0.750485 0.114349 0.279498)
(-0.85529 -0.187084 0.355758)
(-0.749353 -0.106409 0.29138)
(-0.620284 0.0225239 0.269368)
(-0.617582 0.0800685 0.282522)
(-0.715746 0.140651 0.141328)
(-0.621404 0.238404 0.194374)
(-0.493765 0.344676 0.266292)
(-0.460814 0.33576 0.257701)
(-0.733183 -0.274074 0.212974)
(-0.798736 -0.0744564 0.0978313)
(-0.835532 -0.000422376 0.109372)
(-0.803378 0.0594211 0.0838658)
(-0.69065 0.14795 0.161995)
(-0.643241 0.226879 0.119241)
(-0.581606 0.315691 0.0307431)
(-0.490472 0.395145 0.0490362)
(-0.391551 0.445665 0.0940294)
(-0.975768 -0.0127229 0.168992)
(-0.847712 -0.0155218 0.154246)
(-0.74377 0.0278784 0.126863)
(-0.682041 0.120273 0.144613)
(-0.661626 0.197304 0.098601)
(-0.592789 0.261628 0.140426)
(-0.503498 0.330842 0.145042)
(-0.403647 0.391966 0.13195)
(-0.308854 0.437005 0.116774)
(-0.221429 0.441894 0.102702)
(-1.19737 0.189438 0.120784)
(-1.00781 0.247527 0.14781)
(-0.877154 0.328642 0.14646)
(-0.723361 0.35849 0.0908992)
(-0.617022 0.425215 0.0651111)
(-0.538046 0.453348 0.077719)
(-0.441045 0.419904 0.0693201)
(-0.32768 0.402868 0.0327013)
(-0.238957 0.419753 0.0690621)
(-0.1452 0.415076 0.10242)
(-0.0729419 0.396749 0.137213)
(-2.98733 -0.355914 2.84394)
(-3.17845 -0.468549 2.79766)
(-3.21861 0.00686457 2.90634)
(-3.0316 -0.78973 2.81929)
(-2.94686 -0.228677 2.81645)
(-2.71364 0.56205 2.66533)
(-2.70152 -0.378534 2.79206)
(-2.04316 -0.11422 2.63277)
(-1.13008 0.290446 2.28162)
(-0.946572 0.00830815 2.10321)
(-1.10563 -0.978266 0.700153)
(-0.911407 -0.874016 0.540377)
(-0.508329 -0.562341 0.59434)
(-0.369446 -0.284858 0.468196)
(-0.244219 -0.0671872 0.289278)
(-0.64319 -0.200683 0.540998)
(-0.369262 0.181343 0.556205)
(-0.305994 0.258002 0.405972)
(-0.392428 -0.0280813 0.627193)
(-0.534165 -0.360009 0.378796)
(-0.667161 -0.342477 0.224802)
(-0.390008 -0.0942728 0.410541)
(-0.562438 -0.225059 0.263068)
(-0.708764 -0.288915 0.253021)
(-0.853638 -0.242184 0.234597)
(-0.909565 0.0320828 0.152896)
(-0.801939 -0.0157987 0.282578)
(-0.688655 0.0909934 0.284217)
(-0.68914 -0.321324 0.297167)
(-0.774074 -0.208974 0.393549)
(-0.818895 -0.049205 0.401966)
(-0.909918 0.0375328 0.307574)
(-0.777045 0.229224 0.472777)
(-0.760227 0.214139 0.360122)
(-0.800852 0.2229 0.243276)
(-0.743641 0.199432 0.0197927)
(-0.848606 -0.212914 0.340662)
(-0.758093 -0.124839 0.276814)
(-0.637418 0.0361336 0.301069)
(-0.643061 0.114738 0.270931)
(-0.734408 0.197459 0.0911683)
(-0.63735 0.281566 0.154148)
(-0.5006 0.398051 0.272462)
(-0.485973 0.356267 0.265894)
(-0.50908 0.252593 0.17447)
(-0.748425 -0.300012 0.198845)
(-0.821439 -0.084834 0.0753501)
(-0.860309 0.0135541 0.0557718)
(-0.822379 0.0855514 0.0576746)
(-0.712334 0.18754 0.1146)
(-0.670387 0.28835 -0.000563529)
(-0.602752 0.336976 0.0570793)
(-0.49922 0.426572 0.0533534)
(-0.392364 0.46538 0.0879965)
(-0.311471 0.454034 0.130538)
(-0.971628 -0.0363672 0.149253)
(-0.817595 -0.0748858 0.139862)
(-0.713883 -0.0220567 0.147265)
(-0.658644 0.0802612 0.143378)
(-0.650705 0.176933 0.104206)
(-0.586614 0.249891 0.164945)
(-0.508305 0.321751 0.160992)
(-0.405863 0.412728 0.119803)
(-0.308971 0.450102 0.119841)
(-0.21853 0.456896 0.111576)
(-0.152583 0.441871 0.121153)
(-1.20418 0.17836 0.120262)
(-1.00473 0.240693 0.132658)
(-0.865532 0.303236 0.125938)
(-0.712122 0.330101 0.0733135)
(-0.597772 0.390315 0.0314267)
(-0.523892 0.42287 0.0388411)
(-0.434094 0.40454 0.0200402)
(-0.336982 0.42446 0.0347558)
(-0.243871 0.43968 0.0766407)
(-0.146156 0.427853 0.100055)
(-0.0741436 0.40377 0.135861)
(-0.0160166 0.37341 0.161629)
(-2.6182 -0.187688 2.85975)
(-2.75487 -0.320071 2.85823)
(-2.99092 -0.368761 2.82785)
(-2.93653 -0.376139 2.91702)
(-3.07579 -0.711124 2.81233)
(-3.11941 -0.288563 2.84102)
(-2.93875 -0.0554611 3.04183)
(-2.96549 -0.934292 2.78774)
(-2.84199 -0.436614 2.74558)
(-2.55602 -0.0534385 2.84179)
(-2.24036 -0.00949467 2.99217)
(-2.74895 -0.332137 2.54481)
(-2.13018 0.0182654 2.33006)
(-1.19511 0.00394717 1.72941)
(-0.993482 -0.274144 1.53663)
(-0.97721 -0.603299 0.958683)
(-1.12752 -0.886399 0.747212)
(-0.819137 -1.00785 0.39323)
(-0.599379 -0.389214 0.54747)
(-0.508896 -0.0866582 0.581998)
(-0.329035 0.0325767 0.531126)
(-0.268417 -0.0978646 0.322184)
(-0.638618 -0.227616 0.576003)
(-0.406102 0.195027 0.62412)
(-0.419258 0.284029 0.39593)
(-0.440031 0.0614006 0.487046)
(-0.649051 -0.24395 0.305047)
(-0.706768 -0.39832 0.218814)
(-0.760176 -0.174446 0.177389)
(-0.409466 -0.116422 0.320706)
(-0.521845 -0.25365 0.203892)
(-0.75249 -0.258159 0.218455)
(-0.921948 -0.156994 0.202286)
(-0.985934 -0.0798249 0.152405)
(-0.901844 0.135908 0.171376)
(-0.714588 0.132 0.351568)
(-0.624712 0.099864 0.521168)
(-0.686043 -0.355057 0.297511)
(-0.797793 -0.260509 0.380973)
(-0.818155 -0.0471201 0.449281)
(-0.833561 0.0345304 0.528949)
(-0.759132 0.218671 0.491214)
(-0.757631 0.144267 0.493876)
(-0.903942 0.140238 0.121164)
(-0.787203 0.240076 -0.0787864)
(-0.526917 0.4459 0.0198475)
(-0.858993 -0.248431 0.330281)
(-0.771644 -0.132755 0.279174)
(-0.680275 0.0816999 0.271545)
(-0.675242 0.165921 0.270342)
(-0.74259 0.211005 0.184739)
(-0.651585 0.318486 0.179623)
(-0.515259 0.456101 0.232189)
(-0.510253 0.414543 0.234566)
(-0.529745 0.264838 0.16724)
(-0.441233 0.271269 0.0554114)
(-0.767592 -0.314616 0.185502)
(-0.832203 -0.120912 0.0594018)
(-0.876045 0.0245169 -0.0191019)
(-0.840028 0.113892 -0.0129241)
(-0.746311 0.232214 0.0474681)
(-0.704096 0.348607 -0.0296177)
(-0.603862 0.411292 -0.0262457)
(-0.500535 0.45517 0.0723207)
(-0.406271 0.498722 0.0792776)
(-0.329517 0.467308 0.111328)
(-0.248638 0.417937 0.125405)
(-0.963253 -0.0901399 0.11541)
(-0.787878 -0.124099 0.132729)
(-0.696616 -0.0508037 0.137197)
(-0.650008 0.0682399 0.0960509)
(-0.639049 0.162478 0.10489)
(-0.580753 0.255714 0.142909)
(-0.501307 0.335828 0.143923)
(-0.408115 0.428396 0.103744)
(-0.306837 0.462685 0.1116)
(-0.218308 0.463379 0.113481)
(-0.149066 0.451483 0.13204)
(-0.0960936 0.41788 0.137096)
(-1.21349 0.163611 0.114752)
(-0.999406 0.222094 0.111714)
(-0.841309 0.267077 0.0939761)
(-0.690681 0.296498 0.0461504)
(-0.578159 0.356489 -0.00834232)
(-0.512957 0.400865 -0.00785976)
(-0.437916 0.413094 0.00831205)
(-0.348678 0.451213 0.0454711)
(-0.249915 0.464635 0.0856684)
(-0.149726 0.438854 0.103929)
(-0.0744735 0.411418 0.135725)
(-0.0148075 0.377585 0.162401)
(0.0405208 0.33067 0.179419)
(-2.49861 -0.342152 2.83032)
(-2.58249 -0.387965 2.86027)
(-2.58298 -0.121547 2.88775)
(-2.73 -0.493758 2.87041)
(-2.77896 -0.254231 2.87011)
(-2.88339 -0.652302 2.85853)
(-2.9378 -0.481924 2.90245)
(-2.93578 -0.241867 3.00077)
(-2.99972 -0.897562 2.82523)
(-3.04204 -0.601941 2.83662)
(-3.05128 -0.259116 2.95738)
(-2.85926 0.0144842 3.17647)
(-2.96748 -1.09194 2.67847)
(-2.83193 -0.577229 2.68587)
(-2.49774 -0.33082 2.75382)
(-2.20064 -0.180608 2.99538)
(-1.94501 0.0381346 2.71928)
(-2.61035 -0.506278 2.36663)
(-1.86984 -0.305806 2.41411)
(-1.1665 -0.386909 1.66136)
(-1.15053 -0.440269 0.603328)
(-0.994368 -0.476874 0.461692)
(-0.808654 -0.713855 0.652813)
(-1.21398 -0.951384 0.790217)
(-0.876765 -0.676859 0.403362)
(-0.622814 -0.438552 0.654794)
(-0.557396 0.000726512 0.63269)
(-0.396515 0.455779 0.430508)
(-0.407157 0.180116 0.270644)
(-0.594078 -0.169772 0.297003)
(-0.635526 -0.236105 0.601833)
(-0.537789 0.139586 0.595143)
(-0.392042 0.315701 0.433806)
(-0.476905 0.0835791 0.436895)
(-0.665759 -0.167098 0.27269)
(-0.748083 -0.330451 0.164297)
(-0.83228 -0.236863 0.190063)
(-0.765904 0.114715 0.13631)
(-0.424025 -0.156578 0.283298)
(-0.531741 -0.264694 0.157727)
(-0.72104 -0.229565 0.180026)
(-0.987657 -0.100799 0.126107)
(-1.05148 0.0203385 0.142471)
(-1.00698 0.104224 0.102593)
(-0.778857 0.16968 0.311422)
(-0.643092 0.18136 0.538935)
(-0.83426 0.222807 0.286333)
(-0.654775 -0.407846 0.330914)
(-0.734961 -0.323869 0.521801)
(-0.842282 -0.0799244 0.434348)
(-0.902616 0.0205352 0.439218)
(-0.77004 0.230509 0.396135)
(-0.772979 0.0761545 0.505447)
(-0.896876 0.286604 0.147472)
(-0.84044 0.226187 -0.0278295)
(-0.518716 0.560636 -0.0231101)
(-0.392483 0.57259 0.175103)
(-0.873371 -0.259057 0.387253)
(-0.80708 -0.135988 0.286196)
(-0.715355 0.115128 0.227595)
(-0.713104 0.214697 0.251806)
(-0.75712 0.223912 0.265729)
(-0.68108 0.32627 0.179368)
(-0.550303 0.495826 0.237469)
(-0.552451 0.462928 0.195919)
(-0.547174 0.312202 0.140595)
(-0.43888 0.312546 0.0466562)
(-0.329467 0.362654 0.0277163)
(-0.798166 -0.308363 0.171222)
(-0.829118 -0.137503 0.0636603)
(-0.863192 0.0094824 -0.0442068)
(-0.836809 0.110645 -0.0390587)
(-0.769963 0.301693 -0.0605659)
(-0.720854 0.367756 0.056227)
(-0.625489 0.457846 -0.0106711)
(-0.504302 0.47457 0.0767212)
(-0.415999 0.536611 0.0736734)
(-0.337341 0.485969 0.108715)
(-0.26074 0.441615 0.0923632)
(-0.174078 0.386343 0.120113)
(-0.938126 -0.138471 0.101969)
(-0.78014 -0.146777 0.129475)
(-0.701198 -0.0523855 0.120194)
(-0.65561 0.072182 0.0700758)
(-0.635732 0.170095 0.0889387)
(-0.582161 0.271732 0.112448)
(-0.507305 0.350459 0.125603)
(-0.410024 0.440996 0.0926671)
(-0.304505 0.477428 0.0969752)
(-0.211317 0.472057 0.11538)
(-0.150207 0.461623 0.127787)
(-0.0972823 0.429885 0.13528)
(-0.0442629 0.375022 0.155318)
(-1.20258 0.153546 0.103736)
(-0.976643 0.191166 0.0795343)
(-0.807123 0.227751 0.0542376)
(-0.667327 0.264588 0.00574369)
(-0.567042 0.339882 -0.0491063)
(-0.517648 0.410337 -0.0209804)
(-0.452974 0.434746 0.0219737)
(-0.360393 0.476383 0.0589545)
(-0.260726 0.48847 0.0935658)
(-0.151043 0.446856 0.113229)
(-0.074402 0.416878 0.142525)
(-0.0139561 0.38081 0.163812)
(0.0413056 0.334096 0.17891)
(0.0861285 0.282332 0.203346)
(-2.62115 -0.169715 2.28494)
(-2.55029 -0.347356 2.46064)
(-2.48589 -0.411393 2.81196)
(-2.4901 -0.216826 2.86687)
(-2.5781 -0.513431 2.88266)
(-2.62742 -0.198699 2.87125)
(-2.55131 -0.196834 2.87228)
(-2.73202 -0.625791 2.85264)
(-2.74628 -0.448674 2.90016)
(-2.79636 -0.321756 2.80242)
(-2.8312 -0.86681 2.82619)
(-2.95163 -0.654903 2.85409)
(-2.97248 -0.470422 2.96522)
(-2.84582 -0.311386 3.1275)
(-3.04067 -0.928226 2.79417)
(-3.06357 -0.75468 2.82136)
(-3.04407 -0.294798 2.94411)
(-2.87869 -0.578025 3.06848)
(-2.60882 0.103363 3.14598)
(-3.01427 -1.12153 2.67361)
(-2.84716 -0.870183 2.72462)
(-2.44275 -0.14865 2.72504)
(-2.11222 -0.192201 2.71794)
(-1.79392 0.220019 2.66648)
(-1.73341 -0.329895 2.50005)
(-2.34572 -0.945901 2.35815)
(-1.91489 -0.473428 1.9638)
(-1.35457 -0.26538 0.998965)
(-1.17921 -0.513403 0.524076)
(-1.03156 -0.44602 0.374227)
(-0.774656 -0.370422 0.474008)
(-0.858117 -0.260383 0.520313)
(-1.07767 -1.31982 0.9596)
(-0.825573 -0.983017 0.504235)
(-0.604778 -0.0433151 0.65708)
(-0.634231 -0.30947 0.718422)
(-0.501311 -0.0122722 0.566822)
(-0.392985 0.362913 0.307768)
(-0.568137 0.149394 0.283414)
(-0.877383 -0.319786 0.441109)
(-0.686789 -0.402221 0.668815)
(-0.539451 -0.0109539 0.809998)
(-0.53555 0.22697 0.484263)
(-0.6118 0.0619698 0.285229)
(-0.803258 -0.194375 0.169892)
(-0.791189 -0.198172 0.158687)
(-0.831332 -0.171992 0.147424)
(-0.889739 0.0901674 0.0129159)
(-0.735461 0.11415 0.120936)
(-0.492578 -0.187992 0.258655)
(-0.575983 -0.198132 0.119245)
(-0.750735 -0.197989 0.157462)
(-0.991844 -0.130807 0.184761)
(-1.10753 -0.0484698 0.24397)
(-1.02632 0.222166 0.171364)
(-0.838667 0.252925 0.21375)
(-0.684912 0.260176 0.406197)
(-0.911428 0.122326 0.395137)
(-0.885098 0.208704 0.113129)
(-0.625335 -0.449247 0.372205)
(-0.823342 -0.311598 0.409817)
(-0.871947 -0.0731885 0.417192)
(-0.926785 0.0201141 0.382454)
(-0.790558 0.225255 0.353729)
(-0.799037 0.122262 0.372516)
(-0.939513 -0.242967 0.0936959)
(-0.868393 0.251015 -0.0347385)
(-0.532013 0.616618 -0.00711495)
(-0.397457 0.626595 0.153805)
(-0.391965 0.403034 0.192514)
(-0.91533 -0.297626 0.34245)
(-0.847151 -0.133947 0.268506)
(-0.737341 0.109553 0.192493)
(-0.740052 0.272841 0.196322)
(-0.768756 0.230833 0.311926)
(-0.689824 0.302549 0.224525)
(-0.581907 0.447723 0.228833)
(-0.577437 0.515024 0.17548)
(-0.570116 0.349749 0.111561)
(-0.447066 0.378294 0.0272196)
(-0.328145 0.392324 0.0391588)
(-0.257603 0.3739 0.0612186)
(-0.826934 -0.306626 0.15829)
(-0.830928 -0.14335 0.0655754)
(-0.824042 -0.0144341 0.0132977)
(-0.801548 0.091327 0.00883007)
(-0.773176 0.321763 -0.0754535)
(-0.718901 0.372206 0.101863)
(-0.61149 0.500832 -0.0471513)
(-0.489307 0.501137 0.0568371)
(-0.414186 0.549352 0.0682296)
(-0.340974 0.520704 0.111489)
(-0.260417 0.470719 0.077191)
(-0.173157 0.399049 0.12263)
(-0.107555 0.347287 0.127243)
(-0.907347 -0.190615 0.0840127)
(-0.788718 -0.155996 0.12065)
(-0.730944 -0.0391136 0.0846398)
(-0.684207 0.0953745 0.0351789)
(-0.652965 0.202816 0.0612124)
(-0.597791 0.301328 0.0890171)
(-0.514218 0.382126 0.0957566)
(-0.413596 0.452768 0.0874901)
(-0.304933 0.491144 0.0830573)
(-0.212903 0.485606 0.110892)
(-0.144826 0.473468 0.121112)
(-0.097719 0.441523 0.132274)
(-0.043103 0.381327 0.156944)
(0.00731448 0.318899 0.176942)
(-1.17073 0.119766 0.0821004)
(-0.935039 0.154341 0.0408353)
(-0.771677 0.190236 0.00708571)
(-0.655145 0.250197 -0.0415304)
(-0.579489 0.354596 -0.0488308)
(-0.53733 0.431642 -0.00814737)
(-0.467396 0.457135 0.0440935)
(-0.371544 0.496118 0.0724754)
(-0.273308 0.506641 0.0983658)
(-0.15429 0.455634 0.120095)
(-0.074305 0.423673 0.149922)
(-0.0120263 0.383701 0.16546)
(0.0448957 0.336667 0.180009)
(0.0855917 0.28572 0.203347)
(0.112168 0.224282 0.22713)
(-2.13753 -0.208569 2.56061)
(-2.49965 -0.253324 2.4325)
(-2.18601 -0.136249 2.7101)
(-2.48057 -0.453865 2.5411)
(-2.49046 0.0315621 2.56119)
(-2.42717 -0.583294 2.79609)
(-2.47562 -0.330786 2.83063)
(-2.56868 -0.0956437 2.69789)
(-2.57484 -0.59386 2.841)
(-2.60566 -0.331445 2.86404)
(-2.57269 -0.205541 2.87083)
(-2.57035 -0.169669 2.79054)
(-2.62377 -0.82336 2.86849)
(-2.7053 -0.631838 2.87686)
(-2.79532 -0.390976 2.79313)
(-2.76067 -0.10506 2.80593)
(-2.7103 -0.91316 2.9119)
(-2.83543 -0.758405 2.93847)
(-2.89508 -0.54912 2.98798)
(-2.84356 -0.417688 3.13778)
(-2.8363 -0.127056 3.06402)
(-2.94527 -1.00038 2.7997)
(-3.04737 -0.757348 2.83668)
(-2.83144 -0.709594 2.97471)
(-2.74257 0.105524 3.03729)
(-2.61056 -0.570302 3.04283)
(-2.42897 -0.211147 3.1108)
(-2.94053 -1.22391 2.61122)
(-2.86408 -0.85772 2.70062)
(-2.48004 -0.298408 2.40721)
(-2.09335 -0.24667 2.41409)
(-1.99155 -0.110528 2.14533)
(-1.53638 -0.182956 2.18828)
(-1.33096 -0.353832 1.96127)
(-2.34901 -1.06936 2.37652)
(-1.66068 -0.986583 1.93197)
(-1.2683 -0.682295 0.737754)
(-1.26892 -0.867847 0.36904)
(-1.05574 -0.623046 0.422665)
(-0.867218 -0.478551 0.444337)
(-0.917272 -0.043975 0.433796)
(-1.09839 -0.167478 0.768247)
(-1.04221 -1.57425 1.14016)
(-1.00979 -0.716326 0.438538)
(-0.702696 -0.73408 0.786819)
(-0.693526 -0.0699728 0.678677)
(-0.456518 0.269955 0.779306)
(-0.526332 -0.0941705 0.545979)
(-0.623004 0.243308 0.220495)
(-1.01801 -0.0917655 0.219251)
(-0.896733 -0.000441363 0.162954)
(-0.568904 -0.56119 0.900053)
(-0.594102 0.196034 0.831866)
(-0.530251 0.163873 0.444424)
(-0.705324 0.155863 0.186843)
(-0.845586 -0.163088 0.0765387)
(-0.95756 -0.220639 0.0782618)
(-0.8592 -0.0722359 0.146962)
(-0.924094 0.118414 0.281881)
(-0.676725 0.316417 0.0297302)
(-0.65942 0.229057 0.218362)
(-0.577724 -0.244064 0.24019)
(-0.603086 -0.107617 0.117393)
(-0.718818 -0.190805 0.135461)
(-0.953519 -0.123743 0.246023)
(-1.14796 -0.00983368 0.243612)
(-1.07811 0.200547 0.25982)
(-0.836586 0.380155 0.352739)
(-0.682976 0.349268 0.415368)
(-0.98549 -0.0113478 0.415454)
(-0.925809 0.106544 0.0698174)
(-0.691464 0.263007 -0.0772187)
(-0.64853 -0.458037 0.369625)
(-0.820373 -0.30644 0.397826)
(-0.895856 -0.136037 0.40917)
(-0.956091 0.0113469 0.352418)
(-0.809808 0.252676 0.322073)
(-0.815839 0.162329 0.310415)
(-0.936632 0.0911949 0.193055)
(-0.89494 0.234764 -0.0473557)
(-0.55755 0.671094 0.0266277)
(-0.415075 0.618959 0.130848)
(-0.390569 0.449146 0.108062)
(-0.37846 0.347089 0.114243)
(-0.916679 -0.323347 0.316023)
(-0.840487 -0.179054 0.290556)
(-0.733483 0.0844246 0.181565)
(-0.753005 0.303132 0.137778)
(-0.765671 0.227799 0.291026)
(-0.694108 0.296035 0.231413)
(-0.588699 0.435678 0.254227)
(-0.603063 0.519574 0.196136)
(-0.583333 0.392136 0.0903886)
(-0.472535 0.423793 0.00516103)
(-0.339623 0.417677 0.0237705)
(-0.256336 0.373247 0.0580415)
(-0.169168 0.368428 0.0858486)
(-0.856411 -0.298437 0.139773)
(-0.857329 -0.133903 0.060099)
(-0.805258 -0.0258556 0.0621412)
(-0.759913 0.0957587 0.0787471)
(-0.742261 0.298574 0.0256477)
(-0.718262 0.397518 0.0627048)
(-0.629135 0.480755 0.0536885)
(-0.483468 0.515525 0.0476193)
(-0.409451 0.542094 0.0611744)
(-0.337277 0.528216 0.0769118)
(-0.279169 0.481878 0.0757169)
(-0.180209 0.422248 0.090028)
(-0.10286 0.37074 0.111416)
(-0.0533517 0.316834 0.14454)
(-0.898395 -0.211164 0.0685664)
(-0.812523 -0.151806 0.0972375)
(-0.775601 -0.0122811 0.054469)
(-0.72588 0.127506 0.0237015)
(-0.688816 0.247231 0.0368493)
(-0.624322 0.342827 0.079883)
(-0.534355 0.4138 0.0827906)
(-0.420344 0.471361 0.0784812)
(-0.303934 0.50271 0.0764435)
(-0.205939 0.4998 0.0959602)
(-0.146683 0.478047 0.122596)
(-0.0970919 0.453675 0.126104)
(-0.0414021 0.391126 0.153644)
(0.00875869 0.328354 0.176375)
(0.0502888 0.26681 0.200525)
(-1.11624 0.0810374 0.0535609)
(-0.885765 0.115305 -0.00173961)
(-0.747204 0.171642 -0.0586537)
(-0.672873 0.266183 -0.0532949)
(-0.60496 0.377855 -0.0294851)
(-0.553857 0.454568 0.0157578)
(-0.480761 0.477515 0.0630546)
(-0.382622 0.508704 0.0793429)
(-0.278119 0.515109 0.09957)
(-0.159145 0.468947 0.119418)
(-0.0781832 0.434698 0.147731)
(-0.0115187 0.389331 0.164544)
(0.0411579 0.340954 0.17944)
(0.0896484 0.290637 0.201801)
(0.114487 0.227043 0.228741)
(0.129767 0.145229 0.253194)
(-2.1006 -0.223375 2.35281)
(-2.19238 -0.336626 2.53412)
(-2.14162 -0.193993 2.55853)
(-2.4391 -0.41111 2.49282)
(-2.30728 -0.211214 2.6454)
(-2.24915 -0.0976146 2.74472)
(-2.46669 -0.559228 2.53654)
(-2.46658 -0.209189 2.5819)
(-2.44088 0.0232377 2.60567)
(-2.42275 -0.668615 2.79627)
(-2.49188 -0.325293 2.81464)
(-2.4766 -0.213234 2.79171)
(-2.57357 -0.00739893 2.64483)
(-2.46627 -0.837856 2.84063)
(-2.54242 -0.499344 2.82111)
(-2.55918 -0.287374 2.82557)
(-2.58786 -0.254996 2.77501)
(-2.53148 0.0480792 2.70998)
(-2.56048 -1.02731 2.87169)
(-2.68371 -0.676744 2.88786)
(-2.74428 -0.460803 2.83139)
(-2.7445 -0.331456 2.83293)
(-2.79034 0.0064027 2.69335)
(-2.7087 -1.14901 2.83716)
(-2.77835 -0.903692 2.95634)
(-2.91425 -0.495713 2.98652)
(-2.81117 -0.39635 3.12373)
(-2.78685 -0.179013 3.10929)
(-2.80089 0.079648 2.92218)
(-2.94969 -1.25248 2.60529)
(-2.96492 -0.802609 2.85267)
(-2.77772 -0.983529 2.86348)
(-2.69486 -0.541434 2.91261)
(-2.62141 -0.190993 2.9519)
(-2.32378 -0.208809 3.12185)
(-2.05685 0.0681525 2.86354)
(-2.7198 -1.4666 2.63524)
(-2.8108 -1.00881 2.63776)
(-2.54018 -0.643505 2.1737)
(-1.95272 -0.39407 2.24956)
(-1.8106 -0.262432 2.06717)
(-1.72164 -0.337676 1.65727)
(-1.38188 -0.296523 1.49729)
(-1.48573 -0.440709 0.998418)
(-2.26785 -1.24229 2.44336)
(-1.60376 -0.927358 1.73294)
(-1.18241 -1.08816 1.08069)
(-1.17976 -0.449421 0.546707)
(-1.04473 -0.146675 0.372545)
(-0.838375 -0.424437 0.525013)
(-0.939146 -0.337546 0.575255)
(-1.06256 0.0231499 0.666059)
(-1.05004 0.25231 0.435991)
(-1.10957 -1.61189 1.10848)
(-1.33565 -0.567214 0.410851)
(-1.15638 0.441628 0.491096)
(-0.896214 0.0675757 0.689056)
(-0.597105 0.518253 0.783852)
(-0.447791 0.274067 0.788452)
(-0.650172 0.14386 0.379447)
(-1.08262 0.0425229 0.185062)
(-1.03732 0.273079 -0.0472891)
(-0.762621 0.465412 0.147351)
(-0.581332 -0.561923 1.01178)
(-0.611252 0.0909259 0.94075)
(-0.63164 0.411544 0.484526)
(-0.779389 0.205748 0.165701)
(-0.883036 -0.0644858 0.0326774)
(-0.971386 -0.178212 0.0781124)
(-0.913739 -0.0675229 0.139371)
(-1.0005 0.229589 0.198985)
(-0.685857 0.459147 0.160695)
(-0.518768 0.495441 0.256155)
(-0.597699 0.329936 0.304945)
(-0.595707 -0.331181 0.243859)
(-0.650226 -0.0695057 0.104063)
(-0.710843 -0.0919058 0.149373)
(-0.935346 -0.128997 0.311297)
(-1.22164 0.0908408 0.181405)
(-1.11173 0.261224 0.231668)
(-0.889521 0.466366 0.254729)
(-0.695171 0.463722 0.417581)
(-1.02497 -0.139427 0.350765)
(-1.01238 -0.0517489 -0.0293686)
(-0.707512 0.26675 -0.13868)
(-0.46933 0.386396 0.018705)
(-0.681421 -0.475863 0.383594)
(-0.83307 -0.310468 0.404948)
(-0.904656 -0.155893 0.38189)
(-0.98726 -0.0645755 0.33405)
(-0.858364 0.344548 0.27075)
(-0.846361 0.254381 0.272218)
(-0.996632 0.0276098 0.170194)
(-0.897703 0.259464 0.0417095)
(-0.590251 0.726445 0.0703622)
(-0.411337 0.593594 0.133366)
(-0.423237 0.462425 0.116803)
(-0.359874 0.387818 0.0821511)
(-0.284142 0.367686 0.0791163)
(-0.909305 -0.353725 0.330062)
(-0.832743 -0.204765 0.286701)
(-0.733453 0.0515032 0.145317)
(-0.76328 0.290232 0.0712203)
(-0.766436 0.25938 0.116413)
(-0.700478 0.293346 0.226403)
(-0.606078 0.420982 0.22013)
(-0.616092 0.533876 0.168207)
(-0.595681 0.441449 0.0903743)
(-0.476219 0.47112 0.022617)
(-0.327936 0.437859 0.0417139)
(-0.254949 0.392689 0.0433332)
(-0.171546 0.392476 0.0795285)
(-0.12409 0.355452 0.0945389)
(-0.883809 -0.29772 0.117636)
(-0.883613 -0.133991 0.0726656)
(-0.818543 -0.017642 0.0634767)
(-0.756136 0.102266 0.0927065)
(-0.713583 0.273841 0.0858923)
(-0.720591 0.405468 0.0456011)
(-0.61881 0.496474 0.0596304)
(-0.479705 0.547125 0.0295697)
(-0.394614 0.54304 0.05878)
(-0.33842 0.531487 0.0717533)
(-0.257696 0.496214 0.0738667)
(-0.181622 0.43204 0.09045)
(-0.104987 0.375687 0.114888)
(-0.0450699 0.339807 0.131919)
(0.00309815 0.273021 0.159495)
(-0.902159 -0.227738 0.0578374)
(-0.845651 -0.136064 0.077376)
(-0.826201 0.0172963 0.0405748)
(-0.769923 0.159342 0.0333013)
(-0.725454 0.284244 0.0359153)
(-0.654026 0.386262 0.0805212)
(-0.553317 0.447023 0.0922282)
(-0.434741 0.497112 0.068299)
(-0.309747 0.508833 0.0746935)
(-0.20848 0.504122 0.0923389)
(-0.136097 0.483233 0.117946)
(-0.0968737 0.464316 0.121367)
(-0.0416564 0.40001 0.152552)
(0.0118667 0.337751 0.174887)
(0.0529918 0.273954 0.200169)
(0.0888289 0.197794 0.225898)
(-1.05578 0.0444104 0.00603239)