/*--------------------------------*- C++ -*----------------------------------*\
  =========                 |
  \\      /  F ield         | OpenFOAM: The Open Source CFD Toolbox
   \\    /   O peration     | Website:  https://openfoam.org
    \\  /    A nd           | Version:  7
     \\/     M anipulation  |
\*---------------------------------------------------------------------------*/
FoamFile
{
    version     2.0;
    format      ascii;
    class       volScalarField;
    location    "9";
    object      nut;
}
// * * * * * * * * * * * * * * * * * * * * * * * * * * * * * * * * * * * * * //

dimensions      [0 2 -1 0 0 0 0];

internalField   nonuniform List<scalar> 
18870
(
9.95282e-05
0.000317388
0.000100484
5.9538e-05
0.000351963
0.000155475
0.000108707
0.000114466
7.55074e-05
0.00011345
0.000743858
0.000391195
0.000709666
0.00019907
0.000171762
0.000294243
0.000134272
4.78095e-05
0.000172515
0.00013507
0.00142743
0.00126222
0.00129674
0.000347213
0.000902419
0.000524398
0.000370354
0.000213516
0.000300465
0.000240963
0.000131584
0.000150622
0.000180008
0.0002352
0.000160923
0.000861692
0.00076073
0.00158957
0.00115085
0.0015293
0.000620974
0.00020651
0.000259873
0.000419181
0.000538721
0.000323734
0.000155274
0.000359743
0.000230201
0.000365213
0.00012914
5.86849e-05
0.000102215
4.92647e-05
0.000164415
9.39899e-05
0.00125626
0.00134997
0.000632767
0.000983667
0.00153882
0.00108785
0.000732364
0.000714599
0.0015771
0.00222096
0.00034005
0.000319212
0.000245079
0.000584737
0.000502861
0.000232922
0.000297132
0.000321536
0.000215459
0.000320344
0.000296718
0.00014233
5.87916e-05
0.000115094
0.000180404
0.000166928
0.000104049
0.000278368
0.000689106
0.00108236
0.0011626
0.000604349
0.000631066
0.000556243
0.00139445
0.000697089
0.00112765
0.00145778
0.000480231
0.00073052
0.00173856
0.00144382
0.00124105
0.000423973
0.00116259
0.000383509
0.000559313
0.000481198
0.000282608
0.000273958
0.000348739
0.000272829
0.000234892
0.000294751
0.000188669
0.000176449
0.000143022
0.000137904
0.00010486
6.86211e-05
0.000143555
0.00010842
0.000208143
0.000158308
0.000528252
0.000618948
0.000844014
0.000997881
0.00106946
0.00093178
0.000513372
0.000904843
0.000789563
0.000552994
0.000295981
0.000532929
0.00146138
0.00103352
0.00115218
0.000523863
0.000750381
0.00093862
0.000856237
0.00103073
0.000625362
0.00045766
0.000679068
0.000357548
0.000597003
0.000429866
0.000164659
0.000191196
0.000330733
0.000356776
0.000222265
0.000247436
0.000262668
0.000166392
0.00037916
0.000576419
0.000143219
0.000104225
0.000125716
7.51929e-05
0.000122099
8.90856e-05
0.000307979
0.000173237
8.00117e-05
0.00084889
0.000727395
0.000604083
0.00133798
0.00128443
0.000801868
0.00148227
0.00109238
0.000708489
0.000770536
0.000357196
0.000944874
0.000249793
0.000538968
0.000816162
0.000626411
0.000323989
0.00176446
0.00117996
0.00121489
0.00203264
0.000586394
0.000811746
0.000477063
0.000837932
0.000933421
0.000570329
0.000838771
0.000425763
0.00116587
0.0004287
0.000610287
0.000410634
0.000174257
0.000485815
0.000450596
0.00033804
0.000347074
0.000312308
0.000249291
0.000226352
0.000202057
0.000317074
0.000289557
0.000134489
0.000142096
0.000151063
0.000108611
0.000112741
9.00988e-05
8.39389e-05
0.000236779
8.93785e-05
7.07975e-05
0.000117618
0.000497601
0.000652951
0.000716188
0.000353604
0.000450244
0.00056207
0.000652313
0.000983332
0.000758862
0.000890931
0.00102048
0.000957518
0.000758627
0.000996185
0.000961721
0.000535657
0.000367065
0.000596119
0.000314519
0.000730748
0.00196112
0.000364121
0.000464195
0.0013453
0.00135544
0.00121113
0.00140815
0.0019008
0.000696937
0.000325714
0.000916615
0.000632134
0.000919986
0.000664461
0.000811122
0.00115968
0.000578163
0.000359322
0.000621251
0.000647454
0.000439729
0.000144942
0.000361365
0.000426344
0.000380516
0.000363913
0.000365547
0.000381093
0.000245297
0.000265538
0.000310991
0.000228511
0.000491103
0.000207976
0.000272325
0.000145456
0.00016731
0.000102617
6.93851e-05
0.0001565
0.000228613
0.000287462
9.80571e-05
9.56688e-05
9.11188e-05
0.000131146
0.000596875
0.000695405
0.000578677
0.000407291
0.00052598
0.000694533
0.000377342
0.00088754
0.000606483
0.000743941
0.000597017
0.00124479
0.0007415
0.000915541
0.00068281
0.000937909
0.000933235
0.000885122
0.000750884
0.000843395
0.00137032
0.000602217
0.00050339
0.00170416
0.000307835
0.00071549
0.00151449
0.00112218
0.000112044
0.000588908
0.00060451
0.00117694
0.00106469
0.000830427
0.0017097
0.00117628
0.000781132
0.00148358
0.000629832
0.000568692
0.000901611
0.000657238
0.000175613
0.000286311
0.00070744
0.000604872
0.00058568
0.000729917
0.000615679
0.000586142
0.000344976
0.000372288
0.000266462
0.0006264
0.00051149
0.000371483
0.000426777
0.000347845
0.000292752
0.00020411
0.000253667
0.000210268
0.000522796
0.00023996
0.000230441
0.000321993
0.000144996
0.000201595
6.78399e-05
6.15718e-05
0.000200301
0.000147691
0.000337709
0.000123639
7.85615e-05
7.61635e-05
0.000195736
0.000165991
0.000434651
0.000551292
0.000532648
0.000480587
0.000613104
0.000517412
0.000457579
0.000398896
0.000590376
0.000761085
0.00046766
0.000417221
0.000633244
0.000398329
0.000731318
0.000452002
0.000616608
0.00104419
0.000473817
0.000781964
0.00102795
0.000781148
0.000667225
0.00149551
0.00095097
0.000903914
0.00133096
0.0010415
0.000580977
0.000463943
0.00115275
0.0010672
0.00190791
0.00122018
0.00111457
0.0010401
0.000725233
0.00058523
0.000620164
0.00137032
0.000742171
0.000983928
0.000943284
0.00106179
0.000534405
0.00091747
0.000608937
0.000639993
0.000631918
0.00085151
0.000583352
0.000324334
0.000368663
0.000642944
0.000742839
0.000507983
0.000549334
0.000752497
0.000639084
0.00041687
0.000278489
0.000305795
0.000326445
0.000453551
0.000577871
0.00065588
0.000353047
0.000352591
0.000271532
0.000262707
0.000314302
0.000358519
0.000227397
0.000281705
0.000268457
0.000302346
0.00029291
0.000463809
0.000136998
0.000238301
5.59751e-05
9.67292e-05
0.000199381
0.000241506
0.00010253
8.63805e-05
9.44853e-05
0.000110553
0.000234441
0.000131569
0.000162559
0.000269821
0.000344548
0.000378635
0.000475099
0.000480603
0.000632714
0.000345608
0.000527542
0.000916755
0.000545699
0.00034897
0.000461227
0.000404366
0.000453487
0.000459423
0.000263714
0.000471629
0.000506727
0.000514066
0.000578995
0.000858388
0.000484586
0.000577246
0.00108284
0.000522323
0.0007548
0.000453749
0.000666819
0.000676281
0.000540392
0.00115832
0.000959825
0.00136928
0.000596844
0.000833702
0.00132915
0.000784577
0.000423788
0.000537389
0.00146229
0.00130817
0.00125286
0.000871255
0.000966476
0.00131711
0.000916022
0.000651839
0.000569043
0.00105641
0.000374517
0.000889948
0.000600479
0.000394269
0.000416448
0.00113994
0.000850163
0.000816894
0.000375869
0.000491396
0.000852823
0.000478129
0.000449149
0.000709939
0.000702144
0.00126981
0.00140823
0.000589267
0.000680241
0.000655387
0.000572112
0.000298553
0.000184169
0.000303396
0.000302879
0.000646246
0.000493651
0.00058447
0.000708266
0.000344646
0.000316449
0.000260011
0.000192315
0.000374657
0.000247949
0.000180111
0.000527946
0.000361275
0.000302614
0.000338182
0.000437012
0.000522526
0.000119688
0.000256372
0.000130948
9.50678e-05
0.000261346
0.00027613
8.74329e-05
0.000212279
0.000126672
0.000131759
0.000247389
0.000210989
0.000120012
0.000200461
0.000299003
0.000312295
0.000307211
0.000483506
0.000590994
0.00052059
0.000423224
0.000502212
0.000428654
0.000460316
0.000333305
0.00039041
0.000515383
0.000441216
0.000649565
0.000522316
0.00053254
0.000484676
0.000519888
0.000523354
0.000562899
0.000785573
0.000483677
0.000409119
0.000470599
0.000610448
0.000581099
0.000475411
0.000935344
0.000405548
0.000128763
0.000686836
0.000740206
0.000840468
0.000983377
0.000814749
0.000557912
0.000584274
0.000708715
0.00085712
0.00116321
0.0011238
0.000798416
0.000839561
0.00116838
0.000937114
0.000784947
0.000579773
0.000386924
0.000689786
0.00143892
0.000998102
0.000881589
0.00101779
0.00227718
0.000497209
0.000747385
0.00070858
0.000602506
0.000610474
0.000694825
0.000663997
0.000640324
0.000596023
0.000823317
0.000978764
0.00061491
0.00136602
0.000432864
0.000522018
0.000895785
0.000509147
0.000646114
0.000541898
0.000862561
0.0013304
0.00146824
0.00052183
0.000483842
0.00049835
0.000636205
0.000510392
0.000429299
0.000263147
0.000334703
0.000493738
0.000523047
0.000389412
0.000443827
0.00059877
0.000363376
0.0003733
0.000399207
0.000195815
0.000185574
0.000238176
0.000225752
0.000170068
0.000295642
0.000254822
0.000284129
0.000484019
0.000550622
0.000456391
0.000258999
9.72661e-05
0.000149733
0.000142154
0.000106074
0.000319879
0.000312288
9.14596e-05
9.79393e-05
6.72169e-05
0.000165416
0.000259527
0.000324997
9.34185e-05
0.0001079
2.59382e-05
0.000318658
0.000428162
0.000364517
0.000431568
0.00045982
0.000277564
0.000389787
0.00050235
0.000447658
0.000466359
0.000413582
0.000304933
0.000419722
0.000470756
0.000451518
0.000536058
0.000241803
0.000250059
0.000634375
0.000453762
0.000379988
0.000771171
0.000457213
0.000355877
0.000339094
0.000588016
0.000384793
0.000424081
0.00087818
0.000725941
0.000396518
0.000408179
0.000706849
0.000679719
0.000531935
0.000523496
0.000828554
0.000549612
0.000714382
0.00144129
0.000314876
0.000745751
0.000580471
0.000825536
0.000803428
0.000445479
0.000538988
0.000645531
0.00127906
0.000983997
0.0011171
0.000922839
0.0016301
0.00131041
0.00104328
0.000422684
0.000656261
0.00055762
0.000677355
0.001129
0.000741937
0.00137086
0.00116434
0.00101895
0.0022986
0.0027283
0.000657924
0.000585896
0.000725854
0.000824614
0.000799411
0.000739823
0.00053076
0.000692896
0.000676553
0.00123622
0.00102656
0.000951006
0.000373526
0.000636075
0.000341864
0.000426221
0.000773588
0.000670584
0.000379811
0.000491891
0.00092789
0.000969868
0.00124656
0.000573009
0.000917923
0.00043955
0.000413186
0.000569761
0.000557586
0.000546759
0.000407305
0.00034423
0.000378868
0.000305189
0.000406392
0.000408478
0.000469593
0.000345378
0.000290283
0.000399757
0.000328498
0.000180547
0.000182753
0.000226847
0.000268097
0.000190571
0.000363447
0.000161401
0.000393062
0.000495998
0.000695538
0.00033819
0.000259537
0.000231717
9.17862e-05
0.000142713
0.000120277
0.000158124
0.000192868
0.000186142
0.000150324
8.44128e-05
6.53905e-05
0.000173192
0.00023851
0.000353579
9.10553e-05
4.33601e-05
7.99758e-05
0.000155093
0.000251805
0.000298967
0.000328533
0.000424575
0.000393035
0.000348632
0.000422418
0.000183598
0.000408549
0.000377636
0.000467173
0.000307933
0.000507779
0.000391233
0.000320863
0.000508596
0.000372499
0.000419012
0.000364071
0.000462308
0.000414688
0.0004171
0.000385667
0.000305535
0.000349664
0.000296611
0.000274328
0.000320681
0.000565686
0.000614341
0.000526555
0.000445395
0.000443784
0.000545489
0.000316988
0.000419009
0.000777445
0.000723316
0.00107535
0.000541852
0.000446842
0.000513527
0.000600138
0.000799495
0.000807133
0.000635297
0.000843304
0.000508318
0.000488281
0.000614119
0.000793245
0.00109175
0.00097828
0.00105329
0.00100535
0.000502401
0.000375417
0.00036978
0.000771807
0.000887296
0.00143342
0.00138122
0.00162447
0.00139561
0.0016578
0.00150395
0.000336325
0.000526303
0.000671252
0.000756222
0.00110562
0.000957277
0.00119599
0.00098725
0.00163327
0.00201173
0.00170065
0.00107869
0.000486808
0.000802985
0.000784242
0.000982051
0.00131308
0.00137732
0.000816081
0.000851427
0.00112144
0.00142575
0.00105462
0.000964805
0.000642968
0.000415799
0.000410903
0.000393146
0.000400526
0.000916598
0.000644554
0.000573962
0.00066261
0.000863123
0.000561331
0.000956573
0.000677209
0.00040728
0.000576347
0.000615585
0.000614456
0.000561901
0.000492207
0.000695277
0.000433087
0.000368328
0.000324942
0.000236058
0.000522915
0.000654477
0.000236802
0.000531468
0.000373795
0.00036032
0.000400129
0.000418157
0.000191564
0.000207104
0.000418453
0.000330878
0.000194014
0.000218123
0.000153323
0.000507404
0.000417529
0.000225931
0.000242352
0.00025605
0.000166309
0.000281986
9.46337e-05
0.000154026
0.000101719
0.000160717
0.000283111
0.000152075
7.7607e-05
0.000118414
9.24493e-05
9.84913e-05
0.000161236
0.000316455
0.000103502
1.82868e-05
0.000119057
0.000160182
0.000207614
0.000356585
0.000245583
0.000131987
0.000329288
0.000278454
0.000252112
0.000364934
0.000357342
0.000498216
0.00045139
0.000359582
0.000407366
0.00041121
0.000383537
0.000378977
0.000263794
0.000523784
0.000306719
0.000444082
0.000317135
0.000459609
0.000324487
0.000393037
0.000287011
0.000202003
0.000498145
0.00039422
0.00032276
0.000535114
0.000612979
0.000361922
0.000430934
0.000626533
0.000305571
0.000332235
0.000534872
0.000624458
0.000672517
0.000526013
0.000883786
0.000474169
0.000586315
0.000436675
0.000549734
0.00045695
0.00071671
0.000744383
0.000666661
0.000748444
0.000484633
0.00052007
0.000720892
0.000393862
0.000601192
0.000411446
0.00051717
0.000720907
0.000390771
0.000554196
0.000818446
0.000988377
0.0012122
0.000827292
0.00138853
0.00110012
0.00129287
0.000366228
0.000314397
0.000432832
0.000627171
0.00135411
0.00147481
0.00119413
0.00150285
0.00177275
0.00125589
0.00225205
0.00144045
0.000485626
0.000400019
0.000714575
0.000620829
0.000759924
0.00120145
0.0011087
0.00109539
0.00121384
0.00200143
0.0011234
0.00150014
0.000703199
0.000517146
0.000791066
0.000643768
0.000870813
0.00116077
0.0013602
0.0012049
0.00116941
0.00145657
0.00165082
0.00137284
0.000460332
0.000818516
0.000409638
0.000643601
0.000556691
0.000408362
0.000389111
0.000924945
0.00101412
0.000336561
0.000517908
0.000610082
0.00058237
0.0007265
0.00108047
0.000446944
0.000495614
0.000462913
0.000511045
0.000532947
0.000519159
0.00041286
0.000802818
0.000507314
0.000717373
0.000246416
0.000460863
0.000714808
0.000463613
0.000101523
0.000552955
0.000578863
0.000367191
0.000264083
0.000354801
0.0004072
0.000170322
0.000213733
0.000476612
0.000345363
0.000342807
0.000247274
0.000194875
0.000545526
0.000470651
0.000761108
0.000182042
0.000323294
0.000198762
0.00020773
0.00018507
0.000124034
0.00015823
0.000127003
0.000191386
0.000237231
9.82499e-05
4.8119e-05
0.000133336
9.28827e-05
0.000192724
0.000147687
0.000238297
0.000128878
6.04417e-05
0.000113324
0.000129417
0.000213557
9.50474e-05
0.000260192
0.00035619
0.000356017
0.000391612
0.000296854
0.000260649
0.000402123
0.000385504
0.000419722
0.000328954
0.000334492
0.000568444
0.000330375
0.000488563
0.000430575
0.000281867
0.000516492
0.000347489
0.000292708
0.000444122
0.000274987
0.00029989
0.000345585
0.000391791
0.000256429
0.000313012
0.000273092
0.000410538
0.000457109
0.000398914
0.000223855
0.000384264
0.00039059
0.00045274
0.00040599
0.000593539
0.000706822
0.000571128
0.000407955
0.000551917
0.000410861
0.000322635
0.000566384
0.00048172
0.000208938
0.000502589
0.000553143
0.000680351
0.000651313
0.000476168
0.000661192
0.000543099
0.000353144
0.000580556
0.00045971
0.000463685
0.000742467
0.000758356
0.000699255
0.000682137
0.000467382
0.000434452
0.000633785
0.000453642
0.000767395
0.000390978
0.000637891
0.000491239
0.000756389
0.000404846
0.000562715
0.000717925
0.000909675
0.00100203
0.00118644
0.00154121
0.00154461
0.00128603
0.000238326
0.00019347
0.000377397
0.000646353
0.000726265
0.000935882
0.00173053
0.00157111
0.00171984
0.00189771
0.00172234
0.00165746
0.000340843
0.000451722
0.000573082
0.000682188
0.00075635
0.000853295
0.00102454
0.00117022
0.00118048
0.00114941
0.000963924
0.0010559
0.00201344
0.000682742
0.000457836
0.000588032
0.000808041
0.000685877
0.000956802
0.000942538
0.000697365
0.00110526
0.00149694
0.00167308
0.00139039
0.00145235
0.000510251
0.000924778
0.000454805
0.000453223
0.000408598
0.000406866
0.000553525
0.000541754
0.000897174
0.000773456
0.000452671
0.00044856
0.000459022
0.000647398
0.000595005
0.00106568
0.000559177
0.000495587
0.000519451
0.000573136
0.000497458
0.000350076
0.000524705
0.000452421
0.000561119
0.000595332
0.000788685
0.00039746
0.000672777
0.000548673
0.000404567
0.000165363
0.000338609
0.000388599
0.000381285
0.000239446
0.000139229
0.000369253
0.000428996
0.000191543
0.000450186
0.000175302
0.000347333
0.000130091
0.000308093
0.000280447
0.000554794
0.000416704
0.00083379
0.000149095
0.000226773
0.000160573
0.000215001
0.000186244
0.000177669
0.000166217
0.000153191
0.000110621
0.000237369
0.000130758
0.000215209
0.000122784
0.000185211
9.17068e-05
0.00013861
0.000130913
0.000214688
0.00011392
6.1333e-05
0.000102183
0.000102567
0.000129824
8.90857e-05
0.000164306
0.000260513
0.000271047
0.000383445
0.000297688
0.000417433
0.000428866
0.000333366
0.000371424
0.000339868
0.000262403
0.000369782
0.00039677
0.000388283
0.000254997
0.000317254
0.000276797
0.000330114
0.000439446
0.000337189
0.000285119
0.000191487
0.000293802
0.000204702
0.000478161
0.000392407
0.000455728
0.000410874
0.000560611
0.000627564
0.000389695
0.000525769
0.000394847
0.000495916
0.000471766
0.000505195
0.000445622
0.000521086
0.000326349
0.00043529
0.000326456
0.000344131
0.000412477
0.000292044
0.000254865
0.000375328
0.000400845
0.000421119
0.000659118
0.000447892
0.000358321
0.000313784
0.000374744
0.000353483
0.000795537
0.000382927
0.000416533
0.00070185
0.000771312
0.000597813
0.000656152
0.000579815
0.000386849
0.00069617
0.000424368
0.000384618
0.000171757
0.000654142
0.000598011
0.000332978
0.000536391
0.000612489
0.000348683
0.000848905
0.000679252
0.00050347
0.000614991
0.000400644
0.000922792
0.000747557
0.000440127
0.000390775
0.000381197
0.00086271
0.000880642
0.000623976
0.00121122
0.00121333
0.00128628
0.00206778
0.00146065
0.00125958
0.000126448
0.00020624
0.000420658
0.000522636
0.000798925
0.00120345
0.00110749
0.00180138
0.00224508
0.00342473
0.00105185
0.000544906
0.00106537
0.00117596
0.000410831
0.000419652
0.000658521
0.00105853
0.000980646
0.000884831
0.0012403
0.00123174
0.00101272
0.00110029
0.00106825
0.000834354
0.000544104
0.000605661
0.000450843
0.000565005
0.000811379
0.000721913
0.00103247
0.00105983
0.00071918
0.00103737
0.00123669
0.0013447
0.00206997
0.00116532
0.000833885
0.000653975
0.000631959
0.00040414
0.00070976
0.000365504
0.000440885
0.000578715
0.000455842
0.000976168
0.000784217
0.000350984
0.000556127
0.000964542
0.000944994
0.000545003
0.000570815
0.00045684
0.000272427
0.000670155
0.000545672
0.000419611
0.000610043
0.00036591
0.000594155
0.000433728
0.000583033
0.000615488
0.000281676
0.000684294
0.000482948
0.000562094
0.000406751
0.000425138
0.000348404
0.000658466
0.000345839
0.00032517
0.000141978
0.000284036
0.000401674
0.000371251
0.00023279
0.000315078
0.000377921
0.000195675
0.000347569
0.000282407
0.000252786
0.00051103
0.000266016
0.000676241
0.000134003
0.000162665
0.00018165
0.000367639
0.000339499
0.000170173
0.000497508
0.000173699
0.000120405
0.000120325
0.00017542
0.000120705
0.000268359
0.000116394
0.000168255
8.62388e-05
9.93593e-05
0.000184862
0.000255018
0.000105338
7.51522e-05
9.73216e-05
0.000104132
0.000105914
0.000168129
0.000302115
0.000169134
0.000457616
0.000382422
0.000254614
0.000338369
0.000470177
0.000480238
0.000278968
0.000288141
0.000254453
0.000206962
0.000369325
0.000407088
0.000219126
0.000399598
0.000285096
0.000290792
0.000421912
0.000271388
0.000435228
0.00023659
0.00027764
0.000333087
0.000254373
0.000500873
0.000482356
0.000320419
0.000466794
0.000352406
0.000422799
0.000208102
0.000255431
0.000437192
0.000272349
0.000581891
0.0004117
0.000303186
0.000496864
0.000477693
0.000396629
0.000393415
0.000336998
0.000526622
0.000492866
0.000279027
0.000404601
0.000369233
0.000476547
0.000546677
0.000428433
0.000343727
0.000399987
0.000457867
0.0008927
0.000800837
0.000267758
0.000398679
0.000657804
0.000453475
0.000483372
0.000476838
0.000548683
0.000366849
0.000751626
0.000378664
0.000586342
0.000470672
0.000555934
0.000563036
0.000490902
0.00058797
0.000707443
0.000654581
0.000500536
0.000710588
0.00022445
0.000510802
0.000262068
0.000324754
0.000496212
0.00036936
0.000583979
0.000513423
0.000833532
0.000587445
0.000207533
0.00021173
0.000867394
0.00100135
0.000965541
0.000871569
0.00180128
0.000675532
0.000511082
0.000495001
0.00080448
0.000521626
0.000861572
0.00135387
0.00166438
0.0016023
0.00100114
0.0010602
0.00119191
0.000612591
0.000480407
0.000306684
0.000244576
0.000329745
0.000624354
0.000796001
0.00081916
0.00132265
0.00190679
0.00225314
0.00198057
0.00106384
0.00124698
0.00121328
0.000915508
0.00053756
0.000348424
0.000537357
0.000698172
0.000709875
0.000995576
0.000911483
0.00169871
0.00141905
0.00131222
0.000819851
0.000763274
0.000571752
0.000826765
0.000651361
0.000554434
0.000452357
0.000737556
0.00104215
0.000673203
0.00102814
0.000749076
0.000712268
0.00121577
0.000808201
0.000903618
0.0013681
0.000994923
0.000915543
0.000386027
0.000533587
0.000431299
0.000485817
0.00065382
0.00065705
0.000444128
0.000434739
0.000495411
0.0014815
0.000824228
0.00036535
0.000813909
0.00113439
0.000464498
0.000367419
0.00057553
0.000730551
0.00032149
0.000592853
0.000544622
0.000221849
0.00058812
0.000535736
0.000786616
0.000647344
0.000328816
0.000631736
0.00054745
0.00036845
0.000495626
0.000579601
0.000699958
0.000293842
0.000305
0.000379974
0.000429857
0.000369919
0.000257399
0.000165342
0.000307516
0.000349193
0.000420014
0.000338297
0.000233379
0.000205824
0.000437932
0.000182954
0.000328529
0.000273834
0.000277884
0.000351329
0.000129413
0.000542312
0.000266436
0.000187643
0.000224975
0.000276026
0.000198351
0.000299986
0.000413915
0.000416547
0.000256982
0.00014021
0.000150484
0.000223734
3.48027e-05
0.000136328
7.41363e-05
0.000111177
0.000101192
0.000108945
0.000240803
0.000251588
0.000103891
7.64043e-05
5.24059e-05
0.00011424
0.000120382
0.000234613
0.000143398
0.000270945
0.000262098
0.000824888
0.000444771
0.000384191
0.00029655
0.000354644
0.000246964
0.000280186
0.000454301
0.000353656
0.000515371
0.000328721
0.000305911
0.000287251
0.000377415
0.000288308
0.000442466
0.000279751
0.000372013
0.00015468
0.000320047
0.000346374
0.000504371
0.00027581
0.000741775
0.000260019
0.000332735
0.000408157
0.000467299
0.000533938
0.000234943
0.000449137
0.000352204
0.000324289
0.000279983
0.000348057
0.000268687
0.000462826
0.000412302
0.000279793
0.00046842
0.000216316
0.000218483
0.000474876
0.000552426
0.000545635
0.000577094
0.000451676
0.000396653
0.000296259
0.000251139
0.000356052
0.000504308
0.000515951
0.000281962
0.000354174
0.000603524
0.000372127
0.000378983
0.000369799
0.000422547
0.000482661
0.00046582
0.000173519
0.000540679
0.000747134
0.00084618
0.000499745
0.00040851
0.000783426
0.000937696
0.000580882
0.000603225
0.0003213
0.000576026
0.000793877
0.000311816
0.000487573
0.000417871
0.000424306
0.000313524
0.000797107
0.000761527
0.000436974
0.000385847
0.000300015
0.000863014
0.00129818
0.000285513
0.000277236
0.000550621
0.000704893
0.00049792
0.000378739
0.000543877
0.000360266
0.000552292
0.00058935
0.000919756
0.000422883
0.000555247
0.000782382
0.00160318
0.000746325
0.00157793
0.00153899
0.000379059
0.000341445
0.000425848
0.000552452
0.000419089
0.000873996
0.00101925
0.00187908
0.00191209
0.00200213
0.000920013
0.0018212
0.000394548
0.000634018
0.000657597
0.000196275
0.000129959
0.000504042
0.000794185
0.000683516
0.000985326
0.00125279
0.00165826
0.0015261
0.000971562
0.0018814
0.00117688
0.00119209
0.000966704
0.000442519
0.000421202
0.000586527
0.000460637
0.000725804
0.000769975
0.00106283
0.00115075
0.00175359
0.00180182
0.00118617
0.00126955
0.000559544
0.000743267
0.000649873
0.00068538
0.000435879
0.000251257
0.000478353
0.000759237
0.00116355
0.00095124
0.00128174
0.000884246
0.000875469
0.00105531
0.000820367
0.000684894
0.000753248
0.00101933
0.000688047
0.000673785
0.000299898
0.000463276
0.00047671
0.000350441
0.0002855
0.00069863
0.000588589
0.000563242
0.00092455
0.00188886
0.000750718
0.000498783
0.00121832
0.000821654
0.000613704
0.000325056
0.000577721
0.000473769
0.000614399
0.000542281
0.000459937
0.000319028
0.000601539
0.000598249
0.0003015
0.00060765
0.000500734
0.000483777
0.000681074
0.000751343
0.000641304
0.000529864
0.000484839
0.000734574
0.000202524
0.000336838
0.000242127
0.000308344
0.000298096
0.000363578
0.000228336
0.000253557
0.000395504
0.000550113
0.000470015
0.000310719
0.000267328
0.00019555
0.000401058
0.000429684
0.000252345
0.000207654
0.000296011
0.000305581
0.000158753
0.000434108
0.000394154
0.000224268
0.000136178
0.000219095
0.000207578
0.000234344
0.000350689
0.000441983
0.000340638
0.000278964
0.000130727
0.00015321
0.000196466
0.000155462
0.000243345
7.55337e-05
0.000163353
0.00012827
0.000183515
0.000137842
0.000264804
0.000116798
9.20042e-05
6.66405e-05
0.000194261
8.51919e-05
8.91054e-05
0.000134085
0.000224489
0.000276519
0.00018274
0.00137017
0.000718513
0.000575952
0.000464902
0.00041667
0.000317848
0.000316209
0.000270263
0.00032143
0.000364022
0.000329029
0.000368815
0.000441736
0.000432722
0.000364372
0.000302355
0.000327337
0.000501082
0.000217253
0.000282656
0.000398941
0.000512821
0.000321793
0.000523242
0.000273578
0.000138018
0.000408242
0.000434209
0.000325858
0.00032787
0.000239906
0.00059799
0.000439071
0.000542294
0.000467146
0.000427104
0.000539545
0.000457984
0.000187722
0.000499657
0.000651558
0.000457834
0.000302639
0.000328899
0.000773541
0.000465464
0.000695766
0.000449521
0.000322638
0.000293403
0.00018926
0.000587095
0.000356942
0.000587045
0.000542712
0.000317641
0.000530007
0.000390331
0.000382868
0.000590055
0.000324834
0.000514126
0.000461852
0.000641382
0.000394989
0.000804001
0.00030633
0.000400031
0.00044323
0.000474279
0.000435689
0.000329272
0.000214298
0.000451085
0.000771915
0.000209554
0.000536444
0.000969074
0.000424159
0.000555819
0.000158433
0.000745582
0.00054228
0.0004409
0.000416154
0.000407457
0.000500809
0.000628246
0.000468948
0.000568086
0.000588961
0.000474828
0.000379572
0.000225694
0.000711476
0.000503081
0.000380994
0.000481344
0.000542903
0.000766721
0.000812999
0.000694791
0.000869208
0.000667226
0.00130356
0.000454294
0.000362143
0.000478124
0.000582523
0.0004687
0.000647091
0.000825815
0.00100026
0.00150598
0.00153323
0.00107895
0.00084082
0.000719711
0.0013224
0.000579732
7.8836e-05
0.000223529
0.000512899
0.000555753
0.000791876
0.000788806
0.00111076
0.00175255
0.00191133
0.00161991
0.00104845
0.000894559
0.000483103
0.000426111
0.000413058
0.000625634
0.000312212
0.00042092
0.000663214
0.000703293
0.000797785
0.00104745
0.00126558
0.00142016
0.00109939
0.00162717
0.00197592
0.000808062
0.000955935
0.000589831
0.000717548
0.00056268
0.000651187
0.000714368
0.000617981
0.00062771
0.000702753
0.00118245
0.00142315
0.00182799
0.00171645
0.00116295
0.00209631
0.000976951
0.000586973
0.000725848
0.000676308
0.000359588
0.00062294
0.000617692
0.000392737
0.000648443
0.000649943
0.000851039
0.00145328
0.00103007
0.00106929
0.00100241
0.000736646
0.000621222
0.000580068
0.000979203
0.000593575
0.000423998
0.000246803
0.000418128
0.000423863
0.000363287
0.000596189
0.000891415
0.000896693
0.000763847
0.000603836
0.00088835
0.00135924
0.000440274
0.000828033
0.000715283
0.000983795
0.000870735
0.000521992
0.000331021
0.000306349
0.000334122
0.000550723
0.000424407
0.00016938
0.00057004
0.00052265
0.00053569
0.000429896
0.000425173
0.000495376
0.000386842
0.000490773
0.000513232
0.000830166
0.000665672
0.000447531
0.000602417
0.000158338
0.000266225
0.000183435
0.00040364
0.000353232
0.000419495
0.000252352
0.000252275
0.00042401
0.000670298
0.000388171
0.000609617
0.00036374
0.000285583
0.000200339
0.000344178
0.000388321
0.000328398
0.000307098
0.000336335
0.00027971
0.000357333
0.00033076
9.97161e-05
0.00024639
0.000154012
0.000341107
0.000326551
0.000220063
0.000301174
0.00050666
0.000311656
0.00034102
0.000249211
0.000142935
0.000198026
0.000106966
9.29125e-05
0.000335003
0.000104363
8.70741e-05
0.00013099
0.00013441
0.000154419
0.00013778
9.40449e-05
6.44116e-05
8.10147e-05
9.47095e-05
8.26859e-05
9.73309e-05
0.000411646
0.000120706
0.000122083
0.000238035
0.000378161
0.00126068
0.00148932
0.00123167
0.000833476
0.000860127
0.000638388
0.000627731
0.000452852
0.000456127
0.000510595
0.000297565
0.000389198
0.000312384
0.000442747
0.000395543
0.000324107
0.000293319
0.000297695
0.000377057
0.000487041
0.000258618
0.000314997
0.000346212
0.000331954
0.000608674
0.000268117
0.00032354
0.000191617
0.000451821
0.000501776
0.000261091
0.000613427
0.000395162
0.000301691
0.000290062
0.000246968
0.000400184
0.000571612
0.000358591
0.000498533
0.000536258
0.000269088
0.000299831
0.000123562
0.000285244
0.000352505
0.000360673
0.000402088
0.000266066
0.000475328
8.32778e-05
0.000410958
0.000380149
0.000352919
0.000565961
0.000316506
0.000450139
0.000385113
0.000328011
0.000452379
0.000631762
0.000174002
0.000284166
0.000767983
0.00114136
0.000725487
0.000418471
0.000590479
0.000374044
0.000380089
0.000430272
0.000559459
8.36964e-05
0.000522251
0.000411799
0.000962204
0.000737438
0.000640511
0.0003431
0.000444134
0.000317706
0.0004949
0.000434799
0.000387978
0.00028588
0.00124198
0.000814458
0.000848411
0.000210078
0.000312218
0.000245331
0.000299768
0.000450057
0.000403081
0.00058658
0.000633345
0.000407916
0.00041631
0.00051594
0.000551311
0.000834141
0.000311594
0.000406051
0.000162937
0.000596095
0.000370453
0.00047284
0.0005226
0.000392925
0.000497478
0.000500092
0.000708075
0.000368224
0.000947359
0.000542001
0.000430804
0.000992901
0.000603556
0.000936427
0.000653007
0.000547381
0.000420835
0.000435219
0.000404635
0.000266779
0.000525508
0.000567815
0.000901511
0.0014926
0.00123339
0.000776497
0.00139162
0.000471733
0.000802488
0.00065839
0.000361923
0.000531289
0.000332577
0.000639807
0.0007744
0.000647855
0.000778161
0.00109856
0.00156885
0.00142254
0.00133687
0.00105124
0.00068532
0.000554231
0.000647982
0.000582706
0.000636375
0.000566043
0.000386466
0.00036678
0.000793594
0.000722817
0.000977926
0.0016174
0.00200729
0.0013937
0.00121712
0.000900746
0.000543392
0.000685368
0.000681706
0.000800474
0.000671318
0.000422647
0.000404499
0.000703612
0.000761504
0.000627416
0.000653665
0.000745657
0.00127112
0.00173817
0.0015965
0.00145256
0.0011651
0.00128299
0.000801425
0.000685608
0.000373117
0.00067033
0.000375492
0.000563029
0.000568308
0.00015191
0.000515893
0.000642647