/*--------------------------------*- C++ -*----------------------------------*\
  =========                 |
  \\      /  F ield         | OpenFOAM: The Open Source CFD Toolbox
   \\    /   O peration     | Website:  https://openfoam.org
    \\  /    A nd           | Version:  7
     \\/     M anipulation  |
\*---------------------------------------------------------------------------*/
FoamFile
{
    version     2.0;
    format      ascii;
    class       volScalarField;
    location    "9";
    object      p;
}
// * * * * * * * * * * * * * * * * * * * * * * * * * * * * * * * * * * * * * //

dimensions      [0 2 -2 0 0 0 0];

internalField   nonuniform List<scalar> 
18870
(
-67.7039
-68.0159
-67.7067
-67.4999
-67.7417
-68.0408
-68.404
-67.7071
-67.4966
-66.4046
-64.6528
-67.8404
-68.9702
-68.0616
-68.4314
-67.2422
-67.7054
-67.4879
-66.3716
-64.8695
-62.8577
-64.6654
-65.6352
-67.883
-68.9635
-68.4044
-68.078
-68.4263
-67.2107
-65.4497
-67.7044
-67.4708
-66.3418
-64.844
-63.3766
-61.2172
-62.6552
-63.2954
-64.5887
-65.6033
-67.0322
-67.8889
-68.875
-68.2278
-67.1639
-68.1035
-68.4284
-67.1689
-65.4048
-63.6342
-67.7026
-67.4552
-66.3147
-64.8201
-63.3603
-62.2177
-58.8609
-61.3187
-61.4288
-62.8179
-63.2565
-62.9896
-64.6127
-65.6016
-66.8546
-67.2133
-67.9458
-68.7528
-67.9192
-66.7571
-64.1755
-68.1462
-68.4018
-67.1118
-65.3442
-63.5628
-62.1461
-67.6977
-67.4355
-66.2853
-64.7891
-63.3438
-62.2015
-61.6565
-57.9903
-59.032
-59.2212
-61.22
-61.446
-61.4998
-63.013
-63.1967
-62.8601
-63.0576
-64.5896
-65.4964
-66.667
-66.8493
-64.9852
-67.9883
-68.6076
-67.5554
-66.3878
-63.9963
-62.4852
-68.1791
-68.4043
-67.0401
-65.2673
-63.4835
-62.13
-61.4955
-67.6914
-67.4085
-66.2513
-64.7613
-63.327
-62.1858
-61.6459
-61.0539
-56.7626
-57.7765
-58.1318
-59.164
-59.28
-59.089
-60.8905
-61.4212
-61.4784
-61.0412
-62.9971
-63.2526
-62.735
-62.8623
-63.927
-64.5991
-65.3781
-66.3598
-66.4383
-64.7087
-62.3317
-68.0215
-68.5033
-67.1744
-66.0248
-63.7789
-62.3391
-61.3963
-68.2003
-68.354
-66.9595
-65.1773
-63.3968
-62.0929
-61.4352
-60.7822
-67.684
-67.3798
-66.2107
-64.7289
-63.3087
-62.1712
-61.6389
-61.0481
-60.5303
-55.7136
-56.6774
-56.7402
-57.5927
-57.7889
-57.9637
-59.1188
-59.2466
-59.1447
-58.9385
-60.9504
-61.3981
-61.4778
-61.0447
-61.2141
-62.9507
-63.2031
-62.5049
-62.7493
-63.8498
-63.4502
-64.6287
-65.1061
-65.9087
-65.919
-64.369
-61.9859
-61.2481
-68.0247
-68.3709
-66.8041
-65.6596
-63.5279
-62.169
-61.3018
-60.7218
-68.2137
-68.3023
-66.8652
-65.0707
-63.2964
-62.0315
-61.3713
-60.7485
-60.243
-67.6742
-67.3411
-66.1641
-64.6966
-63.2877
-62.1575
-61.6332
-61.0457
-60.5206
-60.0592
-55.0302
-55.6611
-55.7754
-56.6384
-56.5917
-56.6874
-57.6518
-57.7423
-57.9616
-57.5686
-59.205
-59.3087
-59.0564
-58.8386
-58.5129
-61.0603
-61.4349
-61.7006
-60.9888
-61.2845
-61.2539
-62.8771
-63.1199
-62.2941
-62.4992
-63.6508
-62.7901
-61.0138
-64.5677
-65.1289
-65.417
-65.4532
-64.0777
-61.7099
-61.0401
-60.6223
-67.9934
-68.1472
-66.4632
-65.2978
-63.2713
-61.9895
-61.1953
-60.632
-60.1671
-68.2059
-68.2446
-66.7639
-64.9513
-63.1884
-61.9544
-61.3275
-60.718
-60.215
-59.7043
-67.6619
-67.2971
-66.1178
-64.6627
-63.2747
-62.1426
-61.6246
-61.0367
-60.5163
-60.0515
-59.7317
-54.3757
-54.9276
-54.9862
-55.7115
-55.7691
-55.7591
-56.5626
-56.4989
-56.5914
-56.3692
-57.7143
-57.8231
-57.9195
-57.6778
-57.285
-59.3658
-59.3093
-59.1235
-58.7177
-58.5799
-58.1344
-61.0707
-61.3921
-61.7284
-60.929
-61.191
-61.1456
-60.803
-62.84
-63.0134
-62.0868
-62.2459
-63.253
-62.2826
-60.8315
-60.6658
-64.5387
-64.9262
-65.0124
-65.1544
-63.7829
-61.4716
-60.8595
-60.4265
-59.8275
-67.953
-67.8869
-66.149
-64.9719
-63.0571
-61.8128
-61.0737
-60.5682
-60.0947
-59.3636
-68.1923
-68.1877
-66.6599
-64.8241
-63.0922
-61.8802
-61.3077
-60.6859
-60.1834
-59.6815
-59.4211
-67.6469
-67.2492
-66.0727
-64.6242
-63.2486
-62.1255
-61.6192
-61.0205
-60.5162
-60.0389
-59.7334
-59.583
-54.0204
-54.3053
-54.4125
-54.9351
-55.0103
-55.0373
-55.6253
-55.6549
-55.6655
-55.6648
-56.5076
-56.5119
-56.6355
-56.3744
-56.172
-57.5661
-57.7399
-57.8945
-57.6857
-57.2995
-56.9592
-59.3821
-59.3949
-59.1277
-58.8087
-58.4561
-58.2566
-58.3019
-61.1293
-61.3173
-61.5339
-60.9643
-60.8641
-60.7523
-60.5091
-59.6606
-62.8166
-62.7778
-61.948
-61.7376
-62.5905
-61.7026
-60.5879
-60.2344
-60.0585
-64.6239
-64.7383
-64.635
-64.6732
-63.4301
-61.2816
-60.6755
-60.2666
-59.6217
-58.8879
-67.8864
-67.7997
-65.7914
-64.6876
-62.9366
-61.6591
-60.97
-60.508
-60.077
-59.3718
-58.9818
-68.1629
-68.1426
-66.5512
-64.6962
-62.9989
-61.7986
-61.2858
-60.6713
-60.1634
-59.6591
-59.4281
-59.3907
-67.6305
-67.1913
-66.0217
-64.5825
-63.2215
-62.1093
-61.6185
-61.0135
-60.516
-60.0283
-59.743
-59.5955
-59.7047
-53.7584
-54.02
-54.0451
-54.3658
-54.3457
-54.4229
-54.9256
-55.0167
-55.0007
-54.8906
-55.5621
-55.6439
-55.5994
-55.6469
-55.4015
-56.4627
-56.4853
-56.5616
-56.3396
-56.1507
-55.9353
-57.6045
-57.6934
-57.7596
-57.722
-57.2534
-57.0807
-56.9411
-59.358
-59.4588
-59.0543
-58.6848
-58.4237
-58.1931
-58.0289
-58.0262
-61.1655
-61.2914
-61.2694
-60.7393
-60.5525
-60.3331
-60.1379
-59.3003
-58.1443
-62.6561
-62.6877
-61.7349
-61.3536
-62.1179
-61.0672
-60.3489
-59.9585
-59.6371
-58.4178
-64.586
-64.6388
-64.2978
-64.1671
-62.9821
-61.0786
-60.4774
-60.1284
-59.508
-58.75
-58.4833
-67.85
-67.5942
-65.5033
-64.4319
-62.8277
-61.5207
-60.8753
-60.4534
-60.0595
-59.3678
-59.0231
-59.3327
-68.1472
-68.0944
-66.4347
-64.5627
-62.9034
-61.7372
-61.2923
-60.6518
-60.1336
-59.6403
-59.4395
-59.4342
-59.5295
-67.6142
-67.1471
-65.973
-64.5433
-63.1922
-62.0916
-61.6161
-61.0094
-60.5137
-60.019
-59.7546
-59.6126
-59.7305
-60.0502
-53.4264
-53.722
-53.6918
-53.9289
-54.0107
-54.0726
-54.342
-54.3854
-54.3841
-54.4183
-54.9168
-54.9003
-54.9754
-54.9724
-54.8715
-55.541
-55.6002
-55.636
-55.6324
-55.3698
-55.2965
-56.3945
-56.4656
-56.4509
-56.3334
-56.1307
-56.0169
-55.8921
-57.5709
-57.6896
-57.907
-57.7028
-57.1663
-57.0959
-56.6858
-56.4031
-59.2646
-59.406
-59.0226
-58.5662
-58.4134
-57.7382
-57.8579
-57.7591
-57.1012
-61.0843
-61.2218
-61.0455
-60.7365
-60.2384
-59.6606
-59.67
-58.8728
-57.7784
-57.5328
-62.5958
-62.1587
-61.5262
-61.2168
-61.6597
-60.3712
-60.0493
-59.6364
-59.2293
-58.2028
-58.094
-64.4719
-64.5242
-63.9252
-63.7324
-62.4664
-60.7389
-60.2815
-59.9961
-59.406
-58.6485
-58.5575
-59.0426
-67.8223
-67.3404
-65.2316
-64.1834
-62.6117
-61.3506
-60.7656
-60.3836
-59.9781
-59.3382
-59.1483
-59.4689
-59.9505
-68.1357
-68.0367
-66.3156
-64.4308
-62.7985
-61.6919
-61.2866
-60.6119
-60.1125
-59.6285
-59.4546
-59.4786
-59.6122
-60.066
-67.5974
-67.0947
-65.9221
-64.5043
-63.1655
-62.0762
-61.6049
-61.0072
-60.5105
-60.0164
-59.7666
-59.6358
-59.7556
-60.0751
-60.163
-53.2364
-53.4035
-53.4395
-53.5916
-53.6778
-53.7673
-53.8852
-53.9511
-54.0384
-54.046
-54.3898
-54.4178
-54.5015
-54.4894
-54.392
-54.7688
-54.9308
-54.9505
-54.9809
-54.8212
-54.7904
-55.462
-55.517
-55.6708
-55.497
-55.4112
-55.3171
-55.4545
-56.3276
-56.407
-56.4644
-56.3627
-56.02
-56.0487
-55.9
-55.9475
-57.4749
-57.6033
-57.9034
-57.395
-57.1638
-56.8724
-56.6199
-56.4757
-56.3929
-59.3566
-59.3228
-58.9394
-58.3859
-58.3371
-57.6186
-57.421
-57.2545
-56.7178
-56.4902
-60.9656
-61.0725
-60.8731
-60.4094
-59.8269
-59.2129
-59.1367
-58.4204
-57.5921
-57.2226
-57.4203
-62.4821
-61.9659
-61.2427
-60.8682
-61.079
-59.8415
-59.75
-59.3381
-58.8568
-58.0457
-58.1989
-58.9045
-64.5736
-64.3122
-63.6656
-63.3145
-62.0751
-60.3226
-60.132
-59.8576
-59.3701
-58.7009
-58.6694
-59.1588
-60.2547
-67.7997
-67.1649
-64.9673
-63.9364
-62.3254
-61.1694
-60.6609
-60.3294
-59.9549
-59.3226
-59.2837
-59.5698
-60.0753
-60.9721
-68.1096
-67.9821
-66.1904
-64.3017
-62.6921
-61.6415
-61.2313
-60.5845
-60.0966
-59.6247
-59.4736
-59.5205
-59.6925
-60.1235
-60.7456
-67.58
-67.0632
-65.875
-64.4707
-63.1416
-62.0635
-61.5737
-61.0051
-60.5081
-60.0133
-59.7791
-59.6607
-59.7782
-60.0939
-60.1797
-60.4332
-53.078
-53.1899
-53.2635
-53.346
-53.3998
-53.4714
-53.6464
-53.6404
-53.7559
-53.7875
-53.8275
-53.978
-53.9725
-54.0235
-54.065
-54.3594
-54.4051
-54.4358
-54.4174
-54.4481
-54.475
-54.7916
-54.8349
-54.9805
-54.9253
-54.8489
-54.8176
-54.8617
-55.4318
-55.498
-55.5406
-55.5344
-55.4411
-55.3875
-55.3687
-55.3845
-56.4394
-56.3795
-56.3554
-56.367
-56.0499
-56.1661
-55.7606
-55.7447
-55.9901
-57.512
-57.5578
-57.6608
-57.3641
-57.0772
-56.6966
-56.8135
-56.2679
-56.2216
-56.3066
-59.2488
-59.224
-58.8748
-58.2629
-58.1912
-57.5474
-56.9595
-56.6341
-56.4433
-56.482
-56.9156
-60.8088
-60.8617
-60.7102
-59.9718
-59.3308
-59.0079
-58.5275
-57.8863
-57.3973
-57.187
-57.5017
-58.2429
-62.2358
-61.8279
-60.9494
-60.527
-60.5165
-59.3873
-59.4119
-59.0486
-58.5863
-57.9922
-58.2995
-59.1337
-60.6566
-64.6196
-64.1501
-63.4182
-62.8831
-61.8121
-60.013
-60.0177
-59.7492
-59.3995
-58.8029
-58.7465
-59.3341
-60.5462
-61.8063
-67.7825
-66.9809
-64.7289
-63.6954
-62.0679
-61.0004
-60.562
-60.2865
-59.9179
-59.3346
-59.3907
-59.6731
-60.2005
-61.035
-61.557
-68.077
-67.9016
-66.0571
-64.1792
-62.5863
-61.595
-61.1963
-60.5734
-60.0786
-59.63
-59.501
-59.5476
-59.7669
-60.1778
-60.8028
-61.2476
-67.561
-67.0304
-65.8283
-64.4368
-63.122
-62.0387
-61.5493
-61.0066
-60.5055
-60.0097
-59.793
-59.6807
-59.7977
-60.1052
-60.1932
-60.4374
-60.8521
-53.0086
-53.05
-53.1316
-53.1813
-53.2808
-53.3457
-53.3261
-53.3901
-53.4197
-53.4775
-53.5953
-53.6486
-53.727
-53.7079
-53.7421
-53.9245
-53.934
-54.0183
-53.9843
-54.1005
-54.038
-54.2659
-54.429
-54.4579
-54.4685
-54.3794
-54.5078
-54.3356
-54.8115
-54.8715
-54.9153
-54.8847
-54.8527
-54.8238
-54.905
-54.8743
-55.4675
-55.3543
-55.4417
-55.415
-55.4075
-55.3207
-55.348
-55.3831
-55.5904
-56.2469
-56.3573
-56.394
-56.332
-56.0566
-56.0173
-55.7664
-55.8346
-56.0811
-56.2259
-57.4971
-57.5509
-57.5768
-57.301
-56.9744
-56.5075
-56.1394
-56.1809
-56.0382
-56.3777
-56.6377
-59.1756
-59.1383
-58.7547
-58.2662
-57.8625
-57.1588
-56.8309
-56.2304
-56.3507
-56.5902
-57.0718
-58.2031
-60.7234
-60.7023
-60.4851
-59.7583
-58.8948
-58.609
-57.8943
-57.5554
-57.3457
-57.374
-57.8047
-58.75
-60.3804
-62.0042
-61.511
-60.6878
-60.2466
-60.1244
-59.1824
-59.0178
-58.7792
-58.3946
-58.005
-58.4808
-59.408
-60.9245
-62.2949
-64.4206
-64.0343
-63.183
-62.5334
-61.5563
-59.7386
-59.8847
-59.682
-59.4763
-58.8538
-58.9399
-59.531
-60.735
-61.9231
-62.476
-67.7546
-66.7829
-64.5012
-63.4649
-61.8375
-60.8386
-60.479
-60.2447
-59.8523
-59.3715
-59.4945
-59.7676
-60.3294
-61.0993
-61.6191
-62.1587
-68.0482
-67.7726
-65.9204
-64.0642
-62.483
-61.5415
-61.1831
-60.5614
-60.0769
-59.6453
-59.5312
-59.5645
-59.8386
-60.2299
-60.8557
-61.2529
-62.0215
-67.5404
-66.9728
-65.7751
-64.4081
-63.1042
-62.0222
-61.5304
-60.9928
-60.5022
-60.0101
-59.8079
-59.6982
-59.8162
-60.1171
-60.2097
-60.4331
-60.8653
-61.493
-52.8693
-52.9235
-53.0503
-52.9585
-53.1029
-53.0724
-53.1405
-53.1764
-53.2829
-53.3059
-53.3339
-53.3748
-53.4184
-53.4044
-53.4576
-53.5785
-53.6451
-53.7114
-53.7042
-53.7628
-53.6308
-53.9448
-53.9476
-53.9633
-54.0198
-54.0055
-54.1044
-54.0316
-54.3326
-54.3254
-54.463
-54.4106
-54.309
-54.4493
-54.3581
-54.5151
-54.7296
-54.8455
-54.8891
-54.8396
-54.8282
-54.8688
-54.9551
-54.922
-55.0276
-55.3958
-55.4032
-55.4971
-55.3381
-55.3716
-55.4138
-55.3123
-55.59
-55.5114
-55.8309
-56.3638
-56.3367
-56.3853
-56.3573
-56.0283
-55.901
-55.8784
-55.7429
-56.0593
-56.3459
-56.7367
-57.4815
-57.471
-57.3405
-57.2512
-56.8811
-56.4621
-56.3608
-55.9797
-56.0397
-56.5794
-56.9918
-57.7897
-59.1434
-59.059
-58.6696
-58.1501
-57.6815
-56.9357
-56.4121
-56.0866
-56.2222
-56.7378
-57.5489
-58.6766
-60.4141
-60.5994
-60.5492
-60.3113
-59.5552
-58.6755
-58.2036
-57.4333
-57.3874
-57.3274
-57.7849
-58.2838
-59.3461
-60.8856
-61.9691
-61.9392
-61.3515
-60.4433
-60.0307
-59.8801
-59.0635
-58.7593
-58.5523
-58.285
-58.1633
-58.7374
-59.6786
-61.2309
-62.4165
-62.8021
-64.4103
-63.7893
-62.9481
-62.2611
-61.2616
-59.5715
-59.7566
-59.603
-59.5546
-58.9639
-59.173
-59.7324
-60.9266
-62.0163
-62.5341
-63.4291
-67.7271
-66.602
-64.2654
-63.2495
-61.6392
-60.7011
-60.4166
-60.2113
-59.8124
-59.4452
-59.5672
-59.8464
-60.4576
-61.1792
-61.661
-62.2342
-63.4632
-68.0212
-67.6718
-65.7805
-63.9547
-62.3875
-61.4804
-61.1491
-60.5585
-60.0741
-59.6646
-59.5664
-59.6151
-59.9068
-60.2845
-60.9011
-61.2709
-61.9653
-62.4871
-67.5169
-66.9152
-65.7232
-64.3798
-63.0677
-62.0143
-61.5122
-60.9731
-60.4988
-60.0104
-59.8238
-59.7155
-59.8362
-60.1453
-60.2342
-60.4436
-60.8721
-61.4535
-61.5656
-52.8809
-52.8194
-52.9097
-52.9038
-52.9576
-52.939
-52.9793
-53.0602
-53.0765
-53.1058
-53.1225
-53.1722
-53.1635
-53.2825
-53.2741
-53.3226
-53.3289
-53.405
-53.4151
-53.4076
-53.4351
-53.6235
-53.6094
-53.6935
-53.7191
-53.7443
-53.7459
-53.6034
-53.8935
-53.9984
-53.9764
-54.0133
-53.9844
-54.0648
-54.017
-54.0595
-54.25
-54.3955
-54.4253
-54.448
-54.3746
-54.3031
-54.4332
-54.5643
-54.6153
-54.8096
-54.715
-54.6876
-54.8053
-54.7811
-54.8796
-54.9948
-55.1097
-55.0745
-55.3944
-55.4683
-55.4526
-55.3671
-55.4344
-55.4317
-55.3882
-55.37
-55.3574
-55.581
-55.9072
-56.2914
-56.3351
-56.3742
-56.4149
-56.3048
-56.0977
-56.0381
-55.694
-55.7217
-56.1114
-56.538
-56.9999
-57.3566
-57.4537
-57.4767
-57.317
-57.1049
-56.8698
-56.4832
-56.3708
-55.9333
-56.2407
-56.8035
-57.4088
-58.4776
-59.4664
-59.0658
-59.0035
-58.5777
-58.0001
-57.5476
-56.7159
-56.2658
-56.0256
-56.2794
-56.9854
-58.13
-59.5391
-60.9275
-61.9295
-60.4758
-60.3729
-60.0987
-59.211
-58.4286
-57.9092
-57.1721
-57.2303
-57.398
-58.1783
-58.9489
-60.0672
-61.3877
-62.2712
-62.5382
-61.8793
-61.303
-60.2157
-59.7684
-59.6029
-58.9448
-58.5728
-58.4279
-58.2951
-58.3727
-59.0181
-59.9712
-61.5439
-62.5256
-62.9234
-63.6482
-64.454
-63.6627
-62.7615
-61.9595
-60.9344
-59.467
-59.6152
-59.5769
-59.4464
-59.0974
-59.3975
-59.9704
-61.1408
-62.1296
-62.5687
-63.4421
-64.6945
-67.6505
-66.4414
-64.0622
-63.05
-61.4869
-60.5853
-60.3467
-60.1994
-59.8134
-59.5248
-59.6266
-59.9369
-60.5569
-61.1973
-61.6975
-62.2843
-63.452
-64.0156
-67.975
-67.561
-65.6399
-63.8434
-62.3003
-61.426
-61.1142
-60.5627
-60.0765
-59.6825
-59.5999
-59.6966
-59.9749
-60.3268
-60.9286
-61.3021
-61.9112
-62.4219
-62.7875
-67.4903
-66.8564
-65.6718
-64.3586
-63.0242
-62.0151
-61.4936
-60.9477
-60.4947
-60.0154
-59.8399
-59.733
-59.8572
-60.1836
-60.2651
-60.4505
-60.8661
-61.3935
-61.5895
-61.3307
-52.7845
-52.8155
-52.8747
-52.8281
-52.8472
-52.8516
-52.8721
-52.9345
-52.8875
-52.93
-52.9625
-52.9729
-53.0536
-53.0683
-53.0799
-53.0659
-53.1428
-53.2967
-53.2017
-53.2418
-53.2312
-53.3301
-53.3488
-53.3863
-53.4172
-53.4301
-53.3333
-53.4677
-53.5127
-53.6369
-53.6679
-53.744
-53.6884
-53.7383
-53.6843
-53.8002
-53.9455
-53.9588
-53.9234
-54.008
-54.0888
-54.0655
-54.0527
-54.088
-54.2526
-54.3187
-54.3778
-54.4572
-54.4769
-54.4082
-54.3997
-54.4312
-54.3485
-54.6643
-54.8869
-54.8145
-54.7264
-54.699
-54.7597
-54.8371
-54.8362
-54.9411
-55.2175
-55.1482
-55.4483
-55.8047
-55.5024
-55.5449
-55.4123
-55.3905
-55.3612
-55.2524
-55.3758
-55.4472
-55.7266
-56.0862
-56.5453
-56.8021
-56.3316
-56.3543
-56.1964
-56.2352
-55.9654
-56.0149
-55.9496
-55.8156
-56.2405
-56.7662
-57.2436
-57.7202
-59.1182
-57.427
-57.3519
-57.3076
-57.016
-56.6773
-56.2331
-56.068
-55.9573
-56.3233
-57.1688
-57.7793
-59.3386
-60.3876
-61.1843
-59.1203
-58.8695
-58.4361
-57.9413
-57.4824
-56.5963
-56.2328
-56.2078
-56.8017
-57.6158
-58.8823
-60.1741
-61.5542
-62.439
-62.5892
-60.394
-60.3026
-59.8818
-58.9472
-58.2183
-57.7077
-56.9615
-57.1394
-57.5913
-58.7323
-59.784
-60.6177
-61.9023
-62.6246
-62.758
-63.6826
-61.8108
-61.2074
-59.9976
-59.5478
-59.4025
-58.7789
-58.495
-58.3898
-58.5051
-58.7661
-59.3288
-60.3452
-61.8634
-62.6299
-63.0132
-63.7793
-65.0683
-64.4328
-63.5113
-62.5643
-61.6708
-60.6292
-59.3316
-59.4977
-59.5605
-59.3822
-59.3125
-59.6015
-60.1832
-61.311
-62.1789
-62.6218
-63.4231
-64.6188
-64.7578
-67.5388
-66.2662
-63.8678
-62.8467
-61.3502
-60.4983
-60.2723
-60.1602
-59.8285
-59.5669
-59.7065
-60.0318
-60.6233
-61.2671
-61.735
-62.3201
-63.4092
-63.9196
-63.7952
-67.9216
-67.466
-65.4923
-63.7282
-62.2227
-61.3936
-61.0779
-60.5617
-60.088
-59.7094
-59.6494
-59.7634
-60.0361
-60.3532
-60.9632
-61.2895
-61.8592
-62.3196
-62.6285
-63.2574
-67.4577
-66.8014
-65.6221
-64.3131
-62.9787
-62.0304
-61.4751
-60.9318
-60.4889
-60.0301
-59.8563
-59.7514
-59.8763
-60.2076
-60.2909
-60.445
-60.8728
-61.3534
-61.5801
-61.2784
-61.148
-52.7061
-52.7328
-52.806
-52.7945
-52.8278
-52.8231
-52.7794
-52.8073
-52.8184
-52.8026
-52.8483
-52.8539
-52.9256
-52.8438
-52.8893
-52.8801
-52.9704
-52.9899
-53.0664
-53.0384
-53.0417
-53.0369
-53.123
-53.0596
-53.3338
-53.1815
-53.2297
-53.2086
-53.2504
-53.3289
-53.43
-53.4605
-53.3878
-53.4998
-53.4064
-53.376
-53.4982
-53.5905
-53.6681
-53.7195
-53.7671
-53.8093
-53.6658
-53.6663
-53.9312
-53.8077
-53.878
-54.0252
-54.0901
-54.1178
-54.001
-54.0809
-54.1399
-54.1587
-54.3907
-54.2957
-54.3821
-54.3704
-54.3971
-54.363
-54.4576
-54.5113
-54.754
-54.6846
-55.0516
-55.0765
-54.8444
-54.8533
-54.7171
-54.63
-54.8692
-54.9064
-54.9692
-55.0691
-55.2926
-55.612
-55.8924
-56.154
-55.5206
-55.583
-55.4826
-55.4877
-55.2395
-55.3461
-55.4668
-55.5367
-55.6872
-56.3951
-56.9385
-57.1243
-57.7691
-56.3639
-56.3526
-56.208
-56.1631
-56.0718
-55.8783
-55.8794
-55.9826
-56.395
-56.9721
-57.5884
-58.5396
-58.7841
-59.6491
-57.4133
-57.3634
-57.2775
-57.0318
-56.5934
-56.1906
-56.0115
-55.9926
-56.6285
-57.5461
-58.4302
-60.027
-61.3535
-61.8739
-62.4372
-59.1291
-58.8055
-58.3067
-57.7035
-57.2899
-56.4604
-56.2333
-56.4755
-57.3911
-58.5222
-59.5025
-60.8625
-62.2463
-62.9259
-62.9295
-63.7154
-60.345
-60.2298
-59.6864
-58.7012
-58.0135
-57.4705
-56.8387
-57.1564
-57.9492
-59.2077
-60.3044
-61.228
-62.3422
-62.9464
-62.9416
-63.7834
-64.9514
-61.9247
-61.1318
-59.8428
-59.3424
-59.2348
-58.6863
-58.5241
-58.4434
-58.8273
-59.1464
-59.7706
-60.7353
-62.1359
-62.6951
-63.0689
-63.7816
-65.2244
-65.3478
-64.4194
-63.4632
-62.3472
-61.3675
-60.3698
-59.3299
-59.4087
-59.5218
-59.4247
-59.502
-59.7734
-60.37
-61.4289
-62.2107
-62.6882
-63.394
-64.4653
-64.5808
-64.4156
-67.3825
-66.05
-63.7142
-62.6298
-61.2082
-60.4281
-60.2671
-60.1592
-59.8045
-59.6029
-59.777
-60.1226
-60.7058
-61.2903
-61.7541
-62.3138
-63.3413
-63.7983
-63.6205
-63.1173
-67.8609
-67.3531
-65.3394
-63.6199
-62.1513
-61.3605
-61.034
-60.5624
-60.1139
-59.7409
-59.7209
-59.8133
-60.107
-60.3757
-60.9859
-61.2705
-61.7833
-62.2999
-62.4652
-63.1229
-62.5175
-67.433
-66.754
-65.5763
-64.2507
-62.9501
-62.0323
-61.4632
-60.9247
-60.4826
-60.0464
-59.8718
-59.7721
-59.8937
-60.2132
-60.3086
-60.4504
-60.8803
-61.2964
-61.5194
-61.1845
-61.0722
-61.3776
-52.6694
-52.7267
-52.7857
-52.7354
-52.7877
-52.7617
-52.7732
-52.7924
-52.771
-52.7344
-52.7356
-52.7647
-52.7775
-52.7581
-52.6878
-52.8294
-52.8969
-52.7776
-52.9481
-52.8565
-52.8313
-52.8587
-52.924
-52.9946
-53.0453
-53.0472
-52.992
-52.9693
-53.0736
-53.1233
-53.0992
-53.0844
-53.1735
-53.2122
-53.2166
-53.1748
-53.1712
-53.2984
-53.4747
-53.4445
-53.3552
-53.4822
-53.5011
-53.4249
-53.3946
-53.5599
-53.5903
-53.6187
-53.7245
-53.8612
-53.8928
-53.6284
-53.7614
-54.0046
-53.9815
-53.83
-53.9217
-54.0053
-54.0378
-53.9965
-54.0823
-54.0491
-54.3075
-54.2061
-54.4545
-54.9298
-54.3017
-54.3173
-54.3796
-54.3987
-54.4317
-54.484
-54.6708
-54.7529
-54.9538
-55.2549
-55.1843
-55.202
-54.8906
-54.9103
-55.0257
-54.8125
-54.8594
-55.0019
-55.0067
-55.2805
-55.5524
-55.5976
-56.1755
-56.364
-56.581
-55.5888
-55.5892
-55.657
-55.4015
-55.4993
-55.5098
-55.4853
-55.6552
-55.972
-56.4187
-57.2402
-57.4764
-57.9839
-58.1569
-56.3295
-56.3837
-56.2574
-55.9823
-55.9231
-55.7758
-55.8068
-55.9699
-56.3343
-57.1422
-58.1485
-59.3176
-59.6836
-60.0198
-60.3632
-57.5067
-57.3426
-57.2161
-57.0864
-56.5104
-56.2385
-56.19
-56.2263
-57.0315
-57.8981
-59.1084
-61.1469
-62.2267
-62.5886
-62.8589
-62.7763
-59.0184
-58.7015
-58.3226
-57.4778
-56.9354
-56.2743
-56.3467
-56.7325
-57.9595
-59.2454
-60.2485
-61.687
-62.9803
-63.4177
-63.1803
-63.8979
-63.8352
-60.2451
-60.0853
-59.4935
-58.4657
-57.8225
-57.2515
-56.7925
-57.3429
-58.3337
-59.4066
-60.3658
-61.8445
-62.6828
-63.1084
-63.1277
-63.7583
-65.0723
-64.4363
-62.0321
-61.1444
-59.6285
-59.1292
-59.0597
-58.609
-58.5879
-58.7045
-59.1589
-59.4523
-60.1639
-61.0649
-62.3318
-62.7003
-63.1246
-63.8241
-65.1475
-65.2073
-64.7162
-64.3729
-63.2464
-62.1383
-61.1486
-60.1919
-59.3633
-59.3127
-59.5263
-59.5158
-59.6446
-59.8709
-60.5449
-61.5663
-62.2465
-62.7319
-63.3578
-64.3149
-64.3151
-64.233
-64.1588
-67.2139
-65.8868
-63.5422
-62.4262
-61.1145
-60.3739
-60.3093
-60.1631
-59.7913
-59.6761
-59.8484
-60.1946
-60.7638
-61.3008
-61.7728
-62.3064
-63.2467
-63.6517
-63.4417
-62.9438
-62.7859
-67.8036
-67.2261
-65.1956
-63.5186
-62.087
-61.3267
-60.9949
-60.5685
-60.1435
-59.7906
-59.7874
-59.8563
-60.2058
-60.3787
-60.9884
-61.2906
-61.7436
-62.2256
-62.3086
-62.9699
-62.3716
-62.2726
-67.4141
-66.6995
-65.5315
-64.189
-62.9459
-62.0391
-61.458
-60.9254
-60.4773
-60.0683
-59.8854
-59.793
-59.9135
-60.2211
-60.3185
-60.4478
-60.8586
-61.2114
-61.4057
-61.0682
-61.0048
-61.3439
-61.2941
-52.537
-52.6499
-52.7293
-52.7142
-52.6491
-52.6905
-52.6218
-52.7737
-52.7193
-52.5995
-52.7061
-52.7575
-52.7367
-52.6239
-52.592
-52.7759
-52.7077
-52.7389
-52.7413
-52.6936
-52.6685
-52.8333
-52.8708
-52.9509
-52.6932
-52.8202
-52.7928
-52.7908
-52.8464
-52.9136
-52.9396
-52.9983
-53.0438
-53.0122
-53.0358
-53.0418
-53.0204
-53.1213
-53.1593
-53.069
-53.0869
-53.224
-53.247
-53.1416
-53.2141
-53.3179
-53.3597
-53.3294
-53.5184
-53.4635
-53.6038
-53.4528
-53.4776
-53.6928
-53.5905
-53.5422
-53.6169
-53.5795
-53.6458
-53.7473
-53.7898
-53.9118
-53.8631
-53.7689
-53.8914
-54.1135
-53.8772
-53.9565
-54.1878
-54.0704
-54.0628
-54.0759
-54.2986
-54.3177
-54.35
-54.4236
-54.5247
-54.9077
-54.3307
-54.3575
-54.3903
-54.4159
-54.4788
-54.541
-54.6413
-54.5967
-55.0861
-55.2705
-55.4681
-55.6552
-55.668
-54.897
-54.8707
-55.0003
-54.8512
-54.9109
-55.0179
-55.1249
-55.4331
-55.7407
-55.8244
-56.467
-56.7298
-56.7463
-57.0825
-55.6174
-55.613
-55.5278
-55.4601
-55.6063
-55.4266
-55.4507
-55.8031
-56.1028
-56.8095
-57.6871
-58.2641
-58.3365
-58.2255
-58.7969
-56.3424
-56.3656
-56.2249
-56.069
-55.8796
-55.8648
-55.8972
-56.0856
-56.6452
-57.6379
-58.8811
-59.8119
-60.526
-60.682
-60.7971
-60.5227
-57.4261
-57.2557
-57.1715
-56.933
-56.496
-56.2847
-56.2605
-56.538
-57.5467
-58.4431
-59.959
-62.2617
-63.3242
-63.0749
-63.3068
-63.0836
-62.2376
-58.9464
-58.5903
-58.2335
-57.3911
-56.7629
-56.1562
-56.3901
-57.0959
-58.3244
-59.9151
-61.3385
-62.3961
-63.2835
-63.7191
-63.4062
-64.0413
-63.7885
-63.1299
-60.2711
-59.9644
-59.2817
-58.4052
-57.6703
-57.146
-56.8274
-57.6236
-58.7757
-59.7644
-60.9101
-62.3471
-62.9681
-63.2174
-63.2716
-63.6594
-64.8642
-64.1726
-63.3009
-61.9512
-61.1312
-59.5088
-59.0666
-58.9499
-58.5766
-58.6825
-59.0917
-59.396
-59.822
-60.5448
-61.3513
-62.4862
-62.7225
-63.1564
-63.8122
-65.0887
-65.064
-64.2696
-63.5468
-64.2638
-63.082
-61.9696
-60.9454
-60.0804
-59.3652
-59.2794
-59.5788
-59.6471
-59.711
-59.9111
-60.6935
-61.6555
-62.214
-62.7536
-63.2937
-64.1316
-64.2345
-64.0745
-64.0607
-63.316
-67.0456
-65.6743
-63.3998
-62.2725
-61.0423
-60.2938
-60.3681
-60.1791
-59.8349
-59.7468
-59.9164
-60.2394
-60.8052
-61.3354
-61.7814
-62.2733
-63.1236
-63.4917
-63.2655
-62.7818
-62.6339
-62.9155
-67.7325
-67.0899
-65.0614
-63.4217
-62.0319
-61.3064
-60.9321
-60.5797
-60.17
-59.8693
-59.8298
-59.8911
-60.2489
-60.3721
-60.9941
-61.2795
-61.6971
-62.1674
-62.1763
-62.8055
-62.2238
-62.1577
-62.1764
-67.3856
-66.6304
-65.4927
-64.1028
-62.9416
-62.0289
-61.4565
-60.9291
-60.4741
-60.0868
-59.9007
-59.8149
-59.9333
-60.2271
-60.3249
-60.4286
-60.8198
-61.095
-61.3119
-60.948
-60.9889
-61.3333
-61.2061
-60.9588
-52.3709
-52.541
-52.5527
-52.5714
-52.6751
-52.5738
-52.6262
-52.6687
-52.5985
-52.4265
-52.6576
-52.7206
-52.6595
-52.5614
-52.4871
-52.7148
-52.676
-52.6102
-52.6369
-52.5002
-52.5095
-52.6878
-52.7517
-52.765
-52.691
-52.6845
-52.6056
-52.5652
-52.7387
-52.8138
-52.8562
-53.0093
-52.742
-52.8052
-52.7791
-52.7704
-52.8265
-52.9325
-52.8163
-52.9672
-53.0718
-52.9893
-52.9969
-52.975
-52.92
-53.047
-53.0687
-53.1521
-53.0961
-53.1701
-53.2264
-53.1696
-53.2017
-53.2899
-53.1298
-53.2637
-53.2904
-53.3349
-53.3558
-53.5132
-53.5333
-53.6167
-53.4983
-53.3948
-53.6858
-53.6176
-53.5211
-53.6441
-53.7295
-53.6677
-53.707
-53.8401
-54.0024
-53.9007
-53.8983
-54.4607
-54.1451
-54.3457
-53.8478
-53.9418
-53.8127
-54.1437
-54.1518
-54.0556
-54.2696
-54.2557
-54.5539
-55.0282
-54.7487
-54.8176
-54.8345
-54.3734
-54.409
-54.4018
-54.4944
-54.5653
-54.6116
-54.7374
-54.8845
-55.4398
-55.3495
-55.5215
-56.0223
-55.7639
-55.8152
-54.9105
-54.9135
-54.9605
-54.8513
-55.0447
-55.0547
-55.258
-55.421
-55.5535
-56.0074
-56.5388
-57.0597
-56.9934
-57.2632
-57.1449
-55.5837
-55.5046
-55.528
-55.568
-55.5876
-55.5017
-55.5343
-55.9944
-56.3932
-57.2468
-58.0343
-58.701
-58.9384
-58.735
-58.7429
-58.4115
-56.3978
-56.3757
-56.2225
-56.1251
-56.0995
-55.971
-56.0678
-56.3206
-57.1297
-58.2502
-59.7636
-60.9139
-61.2671
-61.3603
-61.1992
-60.8412
-59.738
-57.4744
-57.2665
-57.0533
-56.8222
-56.4489
-56.2427
-56.4799
-57.0176
-58.1555
-59.4582
-61.2661
-63.1589
-63.6713
-63.3453
-63.5708
-63.2606
-62.4548
-61.055
-58.9857
-58.5585
-58.1175
-57.2789
-56.7876
-56.147
-56.6057
-57.451
-58.7788
-60.6747
-62.0595
-62.854
-63.5566
-63.9916
-63.613
-63.8859
-63.7739
-63.0467
-61.9094
-60.2097
-59.9692
-59.1282
-58.3899
-57.6796
-57.0641
-56.9701
-58.0439
-59.2013
-60.1767
-61.3701
-62.8506
-63.1761
-63.4287
-63.3896
-63.6865
-64.5941
-63.8366
-63.1005
-62.2863
-62.0345
-60.9354
-59.3843
-59.0782
-58.9579
-58.5683
-58.8507
-59.3899
-59.6679
-60.1568
-60.8022
-61.5818
-62.6232
-62.7183
-63.1637
-63.7442
-64.8814
-64.895
-64.0809
-63.3886
-62.3669
-64.2742
-63.0022
-61.8231
-60.7304
-59.9228
-59.3217
-59.3184
-59.6594
-59.7132
-59.6777
-60.0855
-60.8085
-61.6905
-62.2063
-62.7474
-63.2283
-63.9117
-64.0475
-63.9014
-63.8902
-63.0586
-63.4567
-66.8395
-65.5244
-63.2498
-62.1271
-60.9693
-60.287
-60.4588
-60.2308
-59.8707
-59.8073
-59.9769
-60.28
-60.8313
-61.3413
-61.7667
-62.1998
-62.9893
-63.3136
-63.0929
-62.6438
-62.4524
-62.7888
-62.5435
-67.6428
-66.94
-64.9316
-63.3371
-61.9852
-61.2736
-60.8868
-60.5879
-60.189
-59.948
-59.8486
-59.9238
-60.2434
-60.4003
-61.0009
-61.2491
-61.6172
-62.1179
-62.04
-62.627
-62.078
-62.0288
-61.9895
-61.3964
-67.3579
-66.5904
-65.4541
-64.0219
-62.9335
-62.0149
-61.4532
-60.93
-60.473
-60.0975
-59.9193
-59.8359
-59.9496
-60.2228
-60.3359
-60.3967
-60.7674
-60.9776
-61.1968
-60.8569
-60.9391
-61.2645
-61.1248
-60.8948
-61.2087
-52.3102
-52.3587
-52.5337
-52.4971
-52.4336
-52.5715
-52.6486
-52.542
-52.3328
-52.6196
-52.6287
-52.5876
-52.5142
-52.3546
-52.6095
-52.6899
-52.5939
-52.566
-52.3985
-52.4566
-52.6198
-52.5973
-52.6298
-52.6116
-52.5347
-52.4502
-52.3757
-52.6402
-52.6995
-52.6779
-52.7253
-52.6542
-52.6207
-52.5084
-52.4819
-52.7978
-52.7685
-52.7467
-52.8782
-52.8871
-52.7516
-52.7471
-52.7184
-52.6439
-52.7994
-52.8705
-52.9872
-52.8616
-53.0178
-53.0238
-52.9555
-52.9103
-52.9494
-52.9004
-53.0482
-53.0375
-53.0867
-53.1462
-53.2329
-53.107
-53.2861
-53.1956
-53.1215
-53.5284
-53.2546
-53.2636
-53.2923
-53.2455
-53.3083
-53.4275
-53.5524
-53.5356
-53.5913
-53.682
-53.7508
-53.8193
-53.7381
-53.5858
-53.6106
-53.7685
-53.7198
-53.7574
-53.7691
-53.8534
-53.9229
-54.0186
-53.8696
-54.0417
-54.3497
-54.0581
-53.8668
-53.9845
-53.9781
-54.0649
-54.1235
-54.2546
-54.3754
-54.4439
-54.3745
-54.914
-54.9486
-54.9819
-55.0716
-54.9377
-54.3594
-54.3406
-54.4288
-54.688
-54.6648
-54.6753
-54.8327
-54.9571
-55.5979
-55.8233
-55.7439
-55.8178
-56.2669
-55.8405
-55.73
-54.8915
-54.971
-54.9393
-54.838
-55.1976
-55.019
-55.3482
-55.5666
-55.9908
-56.1874
-56.8493
-57.6539
-57.6444
-57.5421
-57.347
-56.7178
-55.5219
-55.5764
-55.6395
-55.5862
-55.6602
-55.5948
-55.6948
-56.3415
-56.8357
-57.6947
-58.8048
-59.046
-59.124
-59.3574
-58.9552
-58.5331
-57.7524
-56.4262
-56.3105
-56.2037
-56.0941
-56.1182
-56.1996
-56.2463
-56.6612
-57.6415
-59.0601
-60.6773
-62.0199
-62.047
-61.8177
-61.7232
-61.065
-60.0458
-59.0159
-57.5226
-57.2923
-57.095
-56.8966
-56.4992
-56.627
-56.8589
-57.659
-59.067
-60.6324
-62.2544
-63.5536
-63.8553
-63.7395
-63.919
-63.3241
-62.3377
-61.1611
-59.8522
-58.9447
-58.5443
-57.9058
-57.3584
-56.8044
-56.1076
-57.2209
-57.9597
-59.4264
-61.1853
-62.5649
-63.0541
-63.5814
-64.2244
-63.6892
-63.7646
-63.4569
-62.8545
-61.6795
-60.5368
-60.0326
-59.8482
-59.0151
-58.3419
-57.7107
-57.0205
-57.3188
-58.744
-59.573
-60.5534
-61.9126
-63.1235
-63.3301
-63.5888
-63.4609
-63.564
-64.305
-63.4535
-62.6883
-62.0276
-60.8331
-62.1189
-61.0155
-59.3247
-59.0808
-58.9163
-58.704
-59.14
-59.6256
-59.8905
-60.4168
-61.0876
-61.7575
-62.6833
-62.66
-63.153
-63.6621
-64.6041
-64.5905
-63.8988
-63.1115
-61.9836
-61.5438
-64.2907
-62.905
-61.7178
-60.5171
-59.8483
-59.3484
-59.3872
-59.7603
-59.7591
-59.7412
-60.3243
-60.8979
-61.7079
-62.1927
-62.6829
-63.1315
-63.7216
-63.8692
-63.7532
-63.5635
-62.7853
-63.2272
-62.935
-66.6921
-65.3862
-63.1315
-62.0265
-60.9136
-60.3522
-60.53
-60.2834
-59.9253
-59.8602
-60.0379
-60.3232
-60.8421
-61.3421
-61.7401
-62.1325
-62.8441
-63.1113
-62.9155
-62.483
-62.2393
-62.6375
-62.3144
-61.808
-67.5151
-66.7738
-64.8074
-63.2624
-61.9474
-61.2312
-60.8918
-60.5906
-60.2171
-60.0076
-59.8685
-59.953
-60.2605
-60.4498
-60.9875
-61.201
-61.533
-62.0015
-61.9001
-62.4215
-61.9221
-61.8825
-61.7876
-61.2455
-61.1248
-67.3319
-66.5775
-65.426
-63.9603
-62.936
-62.0075
-61.4551
-60.9282
-60.474
-60.0909
-59.943
-59.857
-59.9642
-60.2175
-60.3425
-60.4164
-60.6895
-60.8917
-61.049
-60.7946
-60.8718
-61.1458
-61.0403
-60.8272
-61.1279
-61.4099
-52.2366
-52.2906
-52.2445
-52.3657
-52.4775
-52.3963
-52.3352
-52.4514
-52.5729
-52.5122
-52.3551
-52.1605
-52.5405
-52.6692
-52.5341
-52.449
-52.3115
-52.2619
-52.4852
-52.4873
-52.555
-52.5289
-52.4087