/*--------------------------------*- C++ -*----------------------------------*\
  =========                 |
  \\      /  F ield         | OpenFOAM: The Open Source CFD Toolbox
   \\    /   O peration     | Website:  https://openfoam.org
    \\  /    A nd           | Version:  7
     \\/     M anipulation  |
\*---------------------------------------------------------------------------*/
FoamFile
{
    version     2.0;
    format      ascii;
    class       surfaceScalarField;
    location    "9";
    object      phi;
}
// * * * * * * * * * * * * * * * * * * * * * * * * * * * * * * * * * * * * * //

dimensions      [0 3 -1 0 0 0 0];

internalField   nonuniform List<scalar> 
54451
(
-2.07877e-05
6.26526e-05
-6.2328e-05
-2.97924e-05
0.00200672
-0.000116283
-2.04452e-05
8.42443e-05
-6.24919e-05
-2.85939e-05
-0.000850556
-7.17689e-05
-6.24574e-05
0.0053155
-0.000178369
-2.03122e-05
0.00202274
-0.000112816
1.39604e-05
0.000936179
-0.00013517
-2.39456e-05
0.000108828
-6.24341e-05
-3.58949e-05
-0.000805366
-7.17871e-05
-9.90154e-05
-0.00154793
-8.33765e-05
0.000108391
0.00609111
-0.000360312
-6.62709e-05
0.00535491
-7.99208e-05
4.96522e-05
0.00360713
-0.000124334
-2.35539e-05
0.00203773
-0.000109831
-3.42415e-05
0.000951709
-0.00013
-0.000136441
0.000236141
-0.00014995
-2.31835e-05
0.000132218
-6.26608e-05
-4.3558e-05
-0.000752261
-7.19814e-05
-0.000107252
-0.00142903
-8.34377e-05
-0.000118631
-0.00176262
-7.69495e-05
0.000478855
0.00611086
-8.6907e-05
8.66698e-05
0.00607836
-0.000165921
0.000161686
0.00556493
-0.00037913
-8.33118e-05
0.00541304
-2.88987e-05
-8.47606e-05
0.00361001
-3.22832e-05
-0.000113546
0.000497079
-7.63973e-05
-1.40463e-05
0.00204376
-0.000109613
-5.76538e-05
0.000982326
-0.000126353
-0.000155212
0.000299621
-0.000145519
-0.000213253
-0.000995619
-0.000150549
-2.1201e-05
0.000153498
-6.33065e-05
-5.05183e-05
-0.000692327
-7.20768e-05
-0.000116326
-0.00130086
-8.38256e-05
-0.000127795
-0.00164145
-7.68102e-05
-0.000185825
-0.000980473
-5.8041e-05
0.000467633
0.00675689
0.000325096
0.00018461
0.00622337
0.000197184
0.000281917
0.00572153
-8.3839e-05
0.000128685
0.0060208
-1.21391e-05
-5.19056e-05
0.00559193
-0.00022578
-0.000101801
0.00512121
-9.6958e-05
-4.94102e-05
0.00543947
8.18955e-06
-9.67774e-05
0.00362014
9.26372e-08
-0.000184251
0.000551836
-5.80018e-05
-0.000374136
-0.00103937
-0.000137411
-2.93358e-06
0.00203879
-0.000110384
-5.49812e-05
0.00099616
-0.000118984
-0.000183551
0.000382352
-0.000141859
-0.00023848
-0.00088342
-0.000147035
-0.000327822
-0.000599869
-0.000122688
-2.19966e-05
0.000175062
-6.36225e-05
-5.4015e-05
-0.000628753
-7.2865e-05
-0.000126664
-0.00116186
-8.44125e-05
-0.000139514
-0.0015091
-7.66586e-05
-0.000195433
-0.000803154
-5.86961e-05
-0.000191727
0.000120129
-5.69291e-05
0.00019802
0.00629032
0.000868767
2.77572e-05
0.00696195
0.000335177
0.000232886
0.00758868
0.000301757
0.000326887
0.00615345
0.000246446
0.000202431
0.00556154
0.000102831
-4.48207e-05
0.00664417
0.000102421
4.1113e-05
0.00601709
8.75591e-05
-6.05035e-05
0.00554894
-5.41864e-06
-0.000120736
0.00481129
2.06227e-05
-0.000174155
0.00391586
0.00023737
-7.10491e-06
0.00543865
2.5695e-05
-0.000100483
0.00363878
3.50548e-05
-0.000304989
0.000719862
-4.64956e-05
-0.00040977
-0.00080613
-0.00011995
-0.000482383
-0.000509726
-0.000119674
2.33409e-05
0.00200704
-0.000112565
-0.000121646
0.00106873
-0.000115324
-0.00020943
0.000483222
-0.000137087
-0.00026299
-0.000756846
-0.000144956
-0.000356513
-0.000461323
-0.000124501
-0.000345532
3.76119e-05
-0.000111711
-2.42258e-05
0.000199057
-6.4842e-05
-6.45822e-05
-0.000555233
-7.25605e-05
-0.00013302
-0.00101609
-8.5613e-05
-0.000145202
-0.00137094
-7.73708e-05
-0.000204534
-0.000616426
-5.88525e-05
-0.000194169
0.000315094
-5.94921e-05
-0.000150207
0.00106319
-5.91002e-05
0.000218395
0.00647883
0.0017046
0.00013174
0.00657857
0.000731593
0.000229425
0.00674581
0.000727152
0.000383589
0.00694449
0.000227889
0.000611139
0.00732144
0.00019371
0.000244845
0.00750498
0.000178999
0.000268534
0.00599763
0.000486422
0.000236745
0.0053059
0.000204837
0.000138596
0.00631174
0.000175928
0.000410963
0.00667283
1.23904e-05
7.48377e-05
0.00598864
0.0001865
-9.44786e-05
0.00552988
0.000100612
-0.000200521
0.00448892
0.000212482
-0.000246942
0.00342434
0.000349311
-0.000122797
0.00109481
6.67707e-05
6.12181e-05
0.00537241
5.02207e-05
-0.000191065
0.00369889
3.50008e-05
-0.000366558
0.000939371
-2.73255e-05
-0.000430157
-0.000577061
-0.000108398
-0.000520337
-0.000335404
-0.000130448
-0.000491171
0.000365286
-0.000120656
1.54213e-05
0.00197836
-0.000111896
7.96275e-06
0.000994785
-0.000111164
-0.000233755
0.000605829
-0.000137196
-0.000283738
-0.000609973
-0.000145425
-0.000380603
-0.000305629
-0.00012458
-0.000356885
0.000200096
-0.000124268
-0.000315605
0.00101945
-0.000112981
-2.40355e-05
0.000222751
-6.59118e-05
-7.02928e-05
-0.000476132
-7.36503e-05
-0.000140848
-0.000862255
-8.55468e-05
-0.000151343
-0.00122712
-7.80985e-05
-0.000213313
-0.000421159
-5.93247e-05
-0.000197067
0.000513158
-5.98495e-05
-0.000142697
0.0012072
-6.08084e-05
-0.000124866
0.00118445
-5.27357e-05
0.000333556
0.00692218
0.00207273
0.000194886
0.00665652
0.00162271
0.000188887
0.00643305
0.00160594
0.000437949
0.00685355
0.00073838
0.000640446
0.00702826
0.000419837
0.00032636
0.00707594
0.00062945
0.000386621
0.00690178
0.000324224
0.000598056
0.00702276
0.000165252
0.000445656
0.00723912
0.000152505
0.000376107
0.00733735
0.000139107
0.000193535
0.00591225
0.000553769
8.20641e-05
0.00526044
0.000355345
0.000417905
0.00564646
0.000251693
0.00031504
0.00622789
5.88836e-05
0.000445548
0.00551836
-0.000335094
0.000129429
0.00596318
0.000260858
-5.89883e-05
0.00533635
0.000247954
-0.000315126
0.00426868
0.000269421
-0.00030524
0.00313972
0.000372185
-0.00030715
0.00118388
4.70537e-05
-0.000543127
0.000667106
-9.2438e-05
8.42194e-05
0.00525783
8.15272e-05
3.61501e-05
0.00362723
9.36905e-05
-0.000338686
0.00110714
-2.78362e-05
-0.000469998
-0.000314433
-0.000103693
-0.000554001
-0.00013963
-0.000130773
-0.000514711
0.000552855
-0.00016019
-0.000466773
0.00118956
-9.49419e-05
1.21904e-05
0.00195351
-0.000116256
-0.000107963
0.00103297
-0.000112412
-0.000244327
0.000732837
-0.000134693
-0.0003039
-0.000447146
-0.000147467
-0.000403619
-0.000133253
-0.000127495
-0.000366652
0.000383745
-0.000138644
-0.000310202
0.00117281
-0.00011013
-0.000297213
0.0012733
-0.000113075
-2.53528e-05
0.000247786
-6.71858e-05
-7.73027e-05
-0.000390329
-7.44115e-05
-0.000145833
-0.000703291
-8.67814e-05
-0.000160717
-0.00107349
-7.846e-05
-0.000222403
-0.000216944
-5.99107e-05
-0.00019852
0.000711327
-5.89737e-05
-0.000140507
0.00134834
-6.04831e-05
-0.000127147
0.0013035
-5.27084e-05
-8.21671e-05
0.00148486
-5.29757e-05
0.00034945
0.00646141
0.00222614
0.000112059
0.00704538
0.00198432
0.000222532
0.00679766
0.00206932
8.70174e-05
0.00724849
0.00158902
0.000327184
0.00690568
0.00146334
0.000189016
0.00676444
0.00152614
0.000276551
0.00727345
0.000890133
0.000766412
0.00708186
0.000516418
0.000602271
0.00685007
0.000489093
0.000461268
0.0071605
0.00061391
0.000273393
0.00667549
0.000376847
0.000347093
0.00687828
0.000203677
0.000644109
0.00695132
0.000226851
0.000360571
0.00729531
0.000149014
0.00025391
0.00820965
0.000293556
0.000214101
0.00584894
0.00056588
0.000102097
0.00522633
0.000426794
0.000353274
0.00491731
0.000416099
0.000268072
0.00578572
0.000120551
0.000338855
0.00534336
-0.000412121
2.07061e-05
0.00431704
-0.000226796
8.66675e-05
0.00599906
0.000365271
-6.78396e-05
0.00542481
0.000276392
-0.000393763
0.00419524
0.000376468
-0.000394564
0.0029516
0.000382103
-0.000383137
0.00133532
4.98744e-05
-0.000481265
0.000857173
-0.00017646
-0.000693197
0.00109585
2.58827e-06
7.32293e-05
0.00514685
0.000125201
-0.000145902
0.00363606
0.000110646
-0.000380608
0.00134106
-3.94967e-06
-0.000492662
-4.7433e-05
-0.000106074
-0.000574708
7.21758e-05
-0.00014441
-0.000530336
0.000770786
-0.000185021
-0.000410089
0.00123629
-0.000107035
-0.00045562
0.00132166
-0.000137596
1.3711e-05
0.00192209
-0.000122763
-0.000140943
0.00110176
-0.000121404
-0.000259036
0.000874248
-0.00014062
-0.000320277
-0.000267744
-0.000154535
-0.000426141
4.64977e-05
-0.000123479
-0.000367988
0.000573217
-0.000147499
-0.000305287
0.00133547
-0.000136518
-0.000307037
0.00145213
-0.000109075
-0.000179046
0.00174989
-0.000121986
-2.76456e-05
0.00027533
-6.87163e-05
-8.39396e-05
-0.000298146
-7.54293e-05
-0.000150845
-0.000539229
-8.76283e-05
-0.000166219
-0.000914305
-7.97424e-05
-0.000230574
-4.62407e-06
-6.02061e-05
-0.000200298
0.000911708
-5.99932e-05
-0.000145241
0.00149431
-5.96994e-05
-0.000117278
0.00141323
-5.29361e-05
-7.78829e-05
0.00156363
-5.36004e-05
-5.73058e-05
0.00147391
-6.06037e-05
0.000474377
0.00619171
0.00240572
0.000148774
0.00641491
0.00216937
0.000365509
0.00641911
0.00221655
5.58728e-05
0.00707553
0.00195089
0.000194272
0.00690172
0.00201318
0.00024082
0.00663896
0.00207656
0.000198652
0.00747227
0.00169961
0.000633922
0.00727487
0.00135232
0.00039098
0.00692434
0.00151473
0.000332859
0.00687382
0.00154482
0.00032298
0.00744763
0.00102437
0.000510355
0.0071788
0.000629935
0.000693603
0.00678857
0.000528422
0.000394597
0.00705361
0.000561959
0.000369172
0.00772108
0.000574539
0.000315655
0.00657965
0.000426632
0.000336627
0.00676436
0.000256234
0.000617993
0.00675563
0.000134645
0.000359215
0.00728596
0.000145065
0.000440364
0.00788915
0.000368003
0.000710564
0.00720356
8.9984e-05
0.00011502
0.00583002
0.000603857
0.000195276
0.00509532
0.000433767
1.13877e-05
0.00452524
0.000413713
0.000240711
0.00535373
0.000212816
0.000336691
0.00499087
-0.00024679
-0.000322868
0.00403936
-0.000292834
-0.000170467
0.00193192
-8.52545e-05
0.000152677
0.00589876
0.000426279
-0.0001059
0.00530971
0.000440362
-0.000516236
0.0042571
0.000350164
-0.000532513
0.00297986
0.000388063
-0.000448179
0.00155417
3.67235e-05
-0.00050656
0.00108209
-0.000198821
-0.00055653
0.00117678
-0.000110945
-0.000477117
0.00122777
-0.000100525
7.87646e-05
0.00501635
0.000141203
-0.000141914
0.00366524
9.69842e-05
-0.000262208
0.00146906
-1.41861e-05
-0.000499315
0.000253935
-0.00012628
-0.000576525
0.000255316
-0.00013883
-0.00052957
0.00097626
-0.000188303
-0.000392915
0.00125336
-0.00011446
-0.000445679
0.00148941
-0.000136138
-0.000307841
0.00177298
-0.00021047
-1.32805e-05
0.00191744
-0.000133147
-0.00016419
0.00119193
-0.000132683
-0.00027339
0.00102591
-0.00015052
-0.000336956
-7.63377e-05
-0.00016129
-0.000450991
0.000236425
-0.000124044
-0.000382931
0.000777772
-0.000145401
-0.000321527
0.00150776
-0.0001435
-0.000292623
0.00161677
-0.000125812
-0.000164085
0.00185743
-0.000130413
-8.03966e-05
0.00197967
-0.000150926
-2.99715e-05
0.000305417
-7.02634e-05
-8.80661e-05
-0.000202306
-7.64906e-05
-0.000154311
-0.000371723
-8.86251e-05
-0.000172782
-0.000747748
-8.14033e-05
-0.000236544
0.00021179
-5.96123e-05
-0.000200419
0.00111036
-5.8439e-05
-0.000142671
0.00163731
-6.0321e-05
-0.000106508
0.0015138
-5.37687e-05
-7.14142e-05
0.00163685
-5.4737e-05
-5.1528e-05
0.00153342
-6.15769e-05
-1.11935e-05
0.000985678
-6.85384e-05
0.000462851
0.00597028
0.00268019
0.000317375
0.00602325
0.00241543
0.000475455
0.00633555
0.0023149
7.7123e-05
0.00635045
0.00215697
0.000242123
0.00633757
0.00220306
0.00060279
0.00633053
0.00215959
0.000322798
0.0069934
0.00191413
0.000254629
0.00718297
0.00204893
0.000238612
0.0067412
0.00206331
0.000238169
0.00664998
0.00202748
0.000343988
0.00759394
0.00172183
0.0003948
0.00760503
0.001485
0.000430419
0.0071093
0.00143054
0.00019205
0.00705029
0.00154081
0.000431832
0.00693714
0.001567
0.00038239
0.00754524
0.00116758
0.000476036
0.00722229
0.000841469
0.000656442
0.00683315
0.000546902
0.00039342
0.00696327
0.000584552
0.000375984
0.00761134
0.000736076
0.000482812
0.00813187
0.000687998
0.000258972
0.00651269
0.000575571
0.000303342
0.00660679
0.000476138
0.000450965
0.00645114
0.000121154
0.000451289
0.00704213
0.000167898
0.000564518
0.00745078
0.000355608
-2.37718e-05
0.00680668
0.000465787
0.000439851
0.00496576
-5.5723e-05
0.000212605
0.00575872
0.000622573
7.88517e-05
0.00505007
0.00046436
-0.000258195
0.0043971
0.000303866
0.000140991
0.00493836
0.000155586
0.000111733
0.00478774
-0.000143967
-0.00032307
0.00384858
-0.000239499
-0.000308545
0.0014676
-7.64939e-05
-9.4194e-05
0.00210118
-7.15088e-05
0.000162341
0.00582212
0.000476359
-6.44224e-05
0.00520558
0.000452923
-0.000301946
0.00428253
0.000454664
-0.000456551
0.00292953
0.000357731
-0.00046151
0.00178124
4.59813e-05
-0.000503928
0.00128756
-0.000194385
-0.000488072
0.00119263
-0.000119518
-0.000536117
0.00136883
-0.000161568
-0.000392421
0.0018464
-0.000246181
5.60475e-05
0.00490169
0.000173184
-0.000375611
0.00392372
9.41491e-05
-0.000336438
0.00166719
-3.80981e-05
-0.000507591
0.000556388
-0.000146004
-0.000596257
0.000422033
-0.000147732
-0.000551861
0.00119259
-0.000186228
-0.00042003
0.00129851
-0.000134956
-0.000499196
0.00168529
-0.00010377
-0.000286358
0.00199482
-0.000235698
-0.000132316
0.00227255
-0.000309883
-2.42464e-05
0.00191841
-0.000139556
-0.00015676
0.00127243
-0.000144953
-0.000281155
0.00118452
-0.000164453
-0.000351055
0.000120416
-0.000169001
-0.000469214
0.000433101
-0.000125297
-0.000391064
0.000986515
-0.000142142
-0.000325073
0.00167719
-0.000132437
-0.000274981
0.0017715
-0.000129752
-0.000197407
0.00199412
-0.000136515
-6.42401e-05
0.00202093
-0.000158955
5.31791e-05
0.00145201
-0.000201828
-3.21281e-05
0.00033812
-7.20711e-05
-9.60915e-05
-9.90123e-05
-7.74656e-05
-0.000157308
-0.000201484
-8.94217e-05
-0.000178719
-0.000574325
-8.3329e-05
-0.000239608
0.000431514
-6.15197e-05
-0.000203885
0.00131214
-5.75061e-05
-0.00014785
0.00178573
-5.90127e-05
-0.00011133
0.00161898
-5.41614e-05
-6.54267e-05
0.00170407
-5.55677e-05
-4.61234e-05
0.00158743
-6.26259e-05
-5.00423e-06
0.000998599
-6.94939e-05
4.12998e-05
0.000718709
-8.0232e-05
0.000316838
0.00550334
0.0031067
0.000442179
0.00587311
0.00270277
0.000521557
0.00600247
0.00261218
0.0002202
0.0059193
0.00237938
0.000461229
0.0061708
0.00236107
0.000802589
0.00620562
0.00230462
0.000275052
0.00637545
0.00212934
0.000182659
0.00636354
0.00220297
0.000364084
0.0062272
0.00218092
0.000348183
0.0064292
0.00207077
0.00035648
0.00697076
0.00198418
0.000349173
0.00717097
0.00197175
0.000185337
0.00698373
0.00205147
0.000173491
0.00676962
0.00196223
0.000446728
0.00694876
0.00191173
0.000449655
0.00762097
0.00177866
0.000494702
0.00762384
0.00168435
0.000537233
0.00719191
0.0015216
0.000314973
0.00708897
0.00147031
0.000349208
0.00693633
0.00156839
0.00043356
0.007334
0.00151714
0.000374211
0.00757076
0.00130897
0.000417839
0.0071492
0.00112618
0.000490947
0.00689598
0.000738659
0.00055283
0.00678486
0.000623771
0.000464295
0.00747972
0.0008164
0.000167922
0.00790548
0.000770773
0.000320171
0.00750969
0.000946318
0.000278403
0.00658891
0.000660843
0.000268811
0.0064081
0.000584309
-1.59769e-06
0.00623635
0.000434329
0.000455823
0.00653647
0.000311974
0.00040824
0.00696807
0.000354095
2.14482e-05
0.00627299
0.000544777
0.000255187
0.00466361
0.000204204
0.000235022
0.00433884
0.000158591
0.000233927
0.00573288
0.000690783
0.000115802
0.00502967
0.000462751
-0.00020216
0.00447956
0.000282117
-1.19375e-05
0.00474964
4.79647e-05
-0.000213207
0.0049074
-0.000212374
-0.000319942
0.00362631
-0.000105688
-0.000322439
0.00123049
-0.000168022
-0.000367126
0.00187096
-1.5272e-05
-0.00041836
0.00226062
2.3281e-05
6.31639e-05
0.00574171
0.000568942
-0.000419016
0.00530754
0.000417806
-0.000372031
0.00436917
0.00040188
-0.000596818
0.00313337
0.000340045
-0.000508392
0.00200171
4.93984e-05
-0.000525737
0.00149644
-0.000189029
-0.000517131
0.00126878
-0.000173433
-0.000590871
0.00148692
-0.000145933
-0.00038625
0.00207388
-0.00028915
-0.000288213
0.00172378
-0.000208774
-6.26959e-05
0.00490277
0.000174153
7.76758e-06
0.00386295
6.94294e-05
-0.000357565
0.00190541
-6.76582e-05
-0.000511774
0.000827302
-0.000148293
-0.000612011
0.000584578
-0.000165751
-0.000572047
0.00139999
-0.000174154
-0.000417558
0.00135242
-0.000147656
-0.000472132
0.00189485
-0.000147359
-0.000350075
0.00228033
-0.000236618
-5.51185e-05
0.00236086
-0.00033313
0.000220214
0.000921866
-0.000388792
-4.31835e-06
0.00189994
-0.000150583
-0.000168714
0.00135812
-0.000152625
-0.000284413
0.00133895
-0.000172275
-0.000364024
0.000327899
-0.00018663
-0.000475437
0.000627171
-0.000127242
-0.000397449
0.00119712
-0.000142342
-0.000326337
0.00185928
-0.000145741
-0.000289536
0.00193771
-0.000120446
-0.000146396
0.00208819
-0.000142847
-1.82842e-05
0.0020241
-0.000167529
7.27452e-05
0.0014282
-0.000212896
0.000193663
0.00114223
-0.000269764
-3.25315e-05
0.000371618
-7.37294e-05
-9.44874e-05
2.01155e-06
-7.86075e-05
-0.000159676
-2.91475e-05
-9.01255e-05
-0.000184028
-0.000394625
-8.50936e-05
-0.000240244
0.000653161
-6.47314e-05
-0.000203532
0.00151303
-5.8877e-05
-0.000142307
0.00192934
-5.88093e-05
-9.33795e-05
0.0017086
-5.5255e-05
-5.55369e-05
0.00176201
-5.6563e-05
-3.67548e-05
0.00163218
-6.35583e-05
3.37417e-06
0.00100342
-7.08167e-05
5.08701e-05
0.000678964
-8.06188e-05
6.25075e-05
-0.000507814
-8.70738e-05
0.000289562
0.00532015
0.00326719
0.000473996
0.00547333
0.0031075
0.000561477
0.00545527
0.00306992
0.000392559
0.00570415
0.00273665
0.000610632
0.0058901
0.00266574
0.000684826
0.00596054
0.0026675
0.000254686
0.00592564
0.00242468
0.000305709
0.00603667
0.00239046
0.00062974
0.00594813
0.0023529
0.000507165
0.00593356
0.002358
0.000314018
0.00639337
0.00213765
0.000285489
0.00635358
0.00220299
0.00026614
0.0062254
0.00212396
0.000428811
0.00632067
0.00203412
0.000425201
0.0063256
0.00207083
0.000554657
0.00688004
0.00188696
0.00047799
0.00713503
0.00203683
0.000424252
0.00706357
0.0020049
0.000347095
0.00688996
0.00189902
0.000510463
0.00685682
0.00189292
0.000510878
0.00698978
0.00181746
0.000634801
0.00740394
0.00183658
0.000535085
0.00753312
0.00175214
0.000346852
0.0074818
0.00153856
0.000473618
0.00714666
0.00154312
0.000361621
0.00702997
0.00147934
0.000243673
0.00729057
0.00153607
0.000557959
0.006872
0.0016024
0.000395836
0.00758404
0.00141256
0.000402197
0.00707232
0.00125246
0.000332097
0.00668776
0.0010007
0.000515325
0.00658836
0.000875662
0.000547593
0.00725629
0.000707843
0.000419852
0.00743023
0.000893252
0.000427952
0.00737003
0.000737662
0.000163557
0.0072946
0.000933226
0.000272466
0.00665272
0.000813379
0.000277563
0.00625756
0.000649613
2.20487e-05
0.00609719
0.000499256
0.000126944
0.0064244
0.000407523
-0.000157013
0.00670234
0.000521515
0.000132931
0.00562049
0.000553718
0.000179568
0.00445452
0.000251863
5.5539e-05
0.0039308
0.000189578
-2.50671e-05
0.00453346
0.000487749
-4.39467e-06
0.00591719
0.000767416
3.9698e-05
0.0047798
0.000481933
-0.000121027
0.00441851
0.000272798
-0.000229063
0.00456734
9.66639e-05
-0.000272568
0.00484521
-0.000125665
-0.000359491
0.00342311
-0.000175417
-0.000468096
0.00120136
-0.000125603
-0.00053309
0.00168252
-3.73593e-05
-0.000471753
0.00234297
-1.21255e-05
-0.000367664
0.00273087
-0.000151479
-0.000105455
0.00579721
0.000565761
7.38233e-05
0.00532709
0.000483337
-0.00040424
0.00445955
0.000374096
-0.000595576
0.00334461
0.000274449
-0.000529329
0.00219517
6.39033e-05
-0.000567812
0.00168077
-0.000139167
-0.000522879
0.00139229
-0.000207218
-0.000619829
0.00170139
-0.000240209
-0.000392016
0.00232042
-0.00035054
-0.000178044
0.0018897
-0.000332147
0.000304836
0.00200523
-0.000205641
2.04471e-05
0.00485306
0.000160661
-0.000133651
0.00394054
6.14981e-05
-0.000330444
0.00210394
-8.30655e-05
-0.000502009
0.00106844
-0.000170816
-0.000645772
0.000769543
-0.000162923
-0.000577143
0.0015835
-0.000169561
-0.000431579
0.00145731
-0.000173801
-0.00041785
0.00203734
-0.000161833
-0.000248024
0.00248646
-0.000251855
8.4767e-05
0.0023563
-0.000335108
0.000292959
0.000784942
-0.000416421
0.000431372
0.000394766
-0.000393737
-2.86534e-06
0.00187344
-0.000150506
-0.000161306
0.00143804
-0.000163682
-0.000283721
0.00148941
-0.000179039
-0.000382597
0.000551432
-0.00019724
-0.000478722
0.000823472
-0.000144452
-0.000406945
0.00140866
-0.000135368
-0.000323773
0.00204986
-0.000151453
-0.000235419
0.00207269
-0.000138681
-0.000104207
0.00216614
-0.000149726
-1.6025e-06
0.00202109
-0.000174987
0.000104005
0.00137972
-0.000219675
0.000202501
0.00105448
-0.000276775
0.000194306
1.71753e-05
-0.000290298
-3.18465e-05
0.000404756
-7.52e-05
-9.94472e-05
0.000107384
-7.96543e-05
-0.000162071
0.000144373
-9.00564e-05
-0.00018532
-0.00021227
-8.71599e-05
-0.00024249
0.000874658
-6.41014e-05
-0.000196541
0.00170562
-6.07822e-05
-0.000136283
0.00206556
-5.88113e-05
-8.79449e-05
0.0017927
-5.4967e-05
-4.27797e-05
0.00180739
-5.78569e-05
-3.06548e-05
0.0016711
-6.48284e-05
1.59108e-05
0.000996317
-7.237e-05
6.02574e-05
0.000629193
-8.13031e-05
5.68107e-05
-0.00055765
-8.75933e-05
3.00745e-05
-0.00187641
-8.37369e-05
0.0002233
0.0050526
0.00348662
0.00044162
0.0053245
0.00327759
0.00053749
0.00520882
0.00334147
0.000434261
0.00545896
0.00306435
0.000603343
0.00550911
0.00306095
0.000679802
0.00549244
0.00301677
0.000309265
0.0056407
0.002787
0.000416327
0.00579648
0.00271965
0.000660268
0.00589452
0.00270123
0.000577777
0.00570578
0.00271736
0.000379308
0.00583853
0.00244225
0.000384392
0.00591455
0.00244789
0.00045685
0.00578173
0.00236614
0.000606502
0.00578513
0.00232364
0.000563607
0.00573462
0.00233853
0.000550853
0.00636519
0.0021149
0.000392279
0.00639866
0.00217828
0.000346909
0.00628916
0.00221657
0.000417422
0.00628738
0.00208692
0.000589411
0.00624761
0.00203316
0.00043419
0.00619473
0.00212256
0.000643372
0.00680419
0.0019733
0.000595428
0.00698604
0.0019756
0.000446749
0.00703632
0.00196419
0.000418854
0.00701372
0.0019359
0.000441264
0.00684402
0.00183217
0.000530411
0.00681141
0.00178454
0.000704302
0.00663955
0.00181199
0.000446728
0.0073509
0.00186578
0.000544914
0.00740303
0.00182395
0.000528257
0.00739006
0.00164772
0.000696705
0.0070601
0.00144374
0.000418209
0.00724004
0.00146243
0.000637091
0.00708196
0.00147072
0.000672767
0.00680936
0.0013539
0.000466615
0.00642318
0.00152167
0.0002937
0.00765184
0.00150745
0.000451768
0.00698005
0.00133062
0.000403201
0.00642196
0.00113711
0.000256554
0.00648679
0.00097266
0.000219814
0.00695243
0.000802693
0.000250346
0.00729304
0.000727613
0.000503319
0.00720037
0.000739164
0.000578454
0.00663164
0.00087771
0.00039758
0.00537335
0.00103496
0.000133531
0.00663947
0.00104808
0.000222939
0.00612047
0.000767229
7.56544e-05
0.00601383
0.000536291
3.81907e-05
0.00620759
0.000448814
-0.000103897
0.00635937
0.000581819
6.82816e-05
0.00528007
0.000434165
-4.05009e-05
0.00422497
0.000355669
-0.000141031
0.00354042
0.000250191
-0.000122139
0.00422789
0.000145536
-4.76076e-06
0.00345127
0.000350783
-6.21996e-05
0.0059904
0.000857974
-1.83139e-05
0.00511835
0.000521009
-8.91546e-05
0.00430865
0.000276704
-0.000260612
0.00442871
7.64684e-05
-0.000295325
0.00468348
2.43823e-05
-0.000462245
0.00330588
-0.000114001
-0.000507028
0.00118496
-0.000174863
-0.000579416
0.00160721
-9.07059e-05
-0.00048393
0.00246316
-6.56318e-05
-0.000162533
0.00278658
-8.33439e-05
0.000362086
0.00279898
-0.000272444
-9.58239e-05
0.00590297
0.000549098
-0.000103905
0.00539712
0.000465983
-0.000356889
0.00461052
0.00035882
-0.00059552
0.00356065
0.000251568
-0.000567019
0.00237841
1.24516e-05
-0.000569749
0.00184876
-0.000111475
-0.000552919
0.00158788
-0.000213419
-0.000528849
0.00191167
-0.000306498
-0.0003539
0.00260651
-0.000420418
-5.5648e-06
0.00208111
-0.000451612
0.000485681
0.00176953
-0.000289164
0.000777865
0.00146802
-0.00031246
-4.49654e-06
0.0048098
0.000159889
-0.000143815
0.00403208
5.1622e-05
-0.000306529
0.00228661
-9.83716e-05
-0.000500819
0.00128971
-0.000186107
-0.000681467
0.000992389
-0.000190918
-0.000573272
0.0017687
-0.000181795
-0.000450564
0.00160134
-0.000186802
-0.000348606
0.00217066
-0.000193938
-0.000161643
0.00264258
-0.000260522
0.000154315
0.00227366
-0.000325135
0.000341988
0.000631692
-0.00041984
0.000432441
0.000163416
-0.000415011
0.000377722
-0.000383426
-0.000359101
-4.59283e-06
0.00184164
-0.000149012
-0.000180638
0.00153152
-0.000162794
-0.000286041
0.00163317
-0.000183475
-0.000382633
0.000771414
-0.000201709
-0.000482821
0.00102473
-0.000158169
-0.000392265
0.00160964
-0.000149708
-0.000310773
0.00223919
-0.000150206
-0.000209032
0.00218481
-0.000142482
-6.63574e-05
0.00220775
-0.000156719
1.87008e-05
0.00200236
-0.000180353
0.000138385
0.00129977
-0.000217517
0.00021938
0.000955291
-0.00027961
0.000169251
-8.06806e-05
-0.000291359
0.000128047
-0.000999166
-0.000267501
-3.17313e-05
0.000437108
-7.55759e-05
-0.000101609
0.000214465
-8.06726e-05
-0.000164647
0.000318947
-8.95813e-05
-0.000185097
-2.81351e-05
-8.90949e-05
-0.000243217
0.00109776
-6.70479e-05
-0.000202044
0.00190161
-5.80482e-05
-0.000125915
0.00218872
-5.80285e-05
-8.11125e-05
0.00186989
-5.48847e-05
-3.348e-05
0.00184491
-5.90057e-05
-2.20698e-05
0.00170107
-6.57611e-05
3.12576e-05
0.000974174
-7.39431e-05
7.1061e-05
0.000568042
-8.22798e-05
5.12768e-05
-0.000602553
-8.76766e-05
2.23958e-05
-0.00190237
-8.40337e-05
3.8012e-05
-0.0023793
-7.99253e-05
5.79219e-05
0.00497042
0.00376176
0.000334179
0.00516749
0.00347702
0.000470738
0.00503966
0.00348226
0.000275877
0.00544868
0.00330188
0.000485428
0.00525171
0.00335261
0.000678494
0.00526007
0.00329494
0.000342968
0.00544352
0.00306998
0.000417976
0.00557321
0.0029986
0.000703047
0.00548647
0.00302415
0.000635836
0.00531857
0.00297315
0.000312561
0.00569662
0.00281527
0.000505658
0.00571566
0.00274656
0.000607902
0.00577596
0.00268716
0.000600196
0.00567125
0.00274207
0.000673155
0.00549571
0.00270305
0.000375377
0.00597991
0.00245145
0.000519886
0.00579889
0.00243031
0.000420132
0.00576506
0.00239134
0.000504137
0.00577833
0.00228623
0.000572906
0.00577611
0.00229866
0.000590677
0.00574926
0.00225088
0.000494798
0.00647507
0.00211824
0.00059437
0.00638603
0.00212859
0.000494847
0.00633018
0.00208916
0.000453682
0.00628223
0.0021869
0.000571384
0.00616018
0.00204423
0.000728017
0.00600769
0.0020226
0.00078467
0.00584246
0.00204871
0.000385168
0.00679063
0.0019441
0.000675503
0.00685682
0.00197193
0.000704619
0.00690952
0.00192603
0.000722758
0.00712817
0.00182368
0.000530889
0.00692329
0.00174395
0.000693726
0.00691955
0.00166739
0.000944314
0.00648494
0.0016676
0.00079371
0.00591041
0.00180475
0.000265474
0.0073146
0.00191556
0.000592839
0.00721147
0.00191626
0.000715794
0.00704975
0.00185166
0.000571657
0.00677399
0.00161873
0.000373628
0.00710001
0.00142996
0.000389047
0.00683306
0.00157263
0.000767955
0.00666923
0.00134621
0.000950764
0.00613835
0.00126642
0.000748287
0.00610766
0.00142503
0.000262246
0.00759025
0.00155675
0.000321481
0.00699272
0.00139624
0.00015919
0.00644847
0.00122058
0.000192653
0.00660188
0.000867554
0.000401873
0.00681508
0.000604244
0.000643027
0.00676936
0.000751626
0.00066108
0.00656512
0.000661285
0.000484926
0.00586902
0.000875827
0.000381292
0.00472453
0.0010231
0.000562341
0.00446269
0.000954849
6.83335e-05
0.00660619
0.00118367
0.000160257
0.00605772
0.000932263
0.000176755
0.00587228
0.000642869
-1.53449e-05
0.00604037
0.000458241
0.000133172
0.00577394
0.000605752
1.03883e-05
0.00497207
0.000417188
-2.96561e-05
0.00397894
0.000202823
-0.000186189
0.00335816
0.000144697
-0.00014431
0.00399766
0.000140803
0.000230071
0.00349396
-0.000289753
0.000564163
0.00286763
0.00012501
-2.87963e-05
0.00610563
0.000849491
4.1305e-05
0.00530404
0.000527074
-7.03196e-05
0.00428616
0.00025693
-0.000254026
0.00432732
3.65982e-05
-0.000336132
0.00454038
-1.13167e-05
-0.000406246
0.00321024
-4.34831e-05
-0.000471279
0.00123135
-0.000242034
-0.000548665
0.00161334
-0.000161174
-0.000398223
0.00255562
-0.000138839
3.72664e-05
0.00277867
-0.000100563
0.000658681
0.00275357
-0.000210939
0.00105552
0.00138892
-9.63097e-05
-0.000163881
0.00605441
0.000577467
-0.000224067
0.00557598
0.000450488
-0.000287327
0.00470712
0.000350176
-0.000574008
0.00367776
0.000314893
-0.000558782
0.00253681
-2.95168e-05
-0.000569769
0.00202368
-0.000165972
-0.000605812
0.00183839
-0.000206737
-0.000444848
0.00217563
-0.000381136
-0.000243503
0.00285421
-0.00047234
0.000170652
0.00220676
-0.000562405
0.000611029
0.00141048
-0.000361605
0.000778885
0.00112459
-0.000292178
0.000683388
-0.00032562
-0.000205862
5.25872e-05
0.00471196
0.000153848
-0.000162109
0.00412026
5.31793e-05
-0.000311253
0.00246975
-0.000106304
-0.000484761
0.00148761
-0.000194143
-0.00066271
0.00119969
-0.000213524
-0.00051729
0.00191924
-0.000216431
-0.000403087
0.00172586
-0.000213999
-0.00029239
0.00228426
-0.000217042
-7.72029e-05
0.0027247
-0.000265206
0.00022509
0.00215545
-0.000348702
0.000340416
0.000524326
-0.0004198
0.000426808
-3.56757e-05
-0.000428176
0.000330138
-0.000602449
-0.000356875
0.000199489
-0.00185362
-0.00037716
1.24312e-05
0.00178798
-0.000151246
-0.000189612
0.00163024
-0.000159733
-0.000287763
0.00177252
-0.000179024
-0.000373245
0.000978022
-0.000201935
-0.000486387
0.00123288
-0.000166685
-0.00037936
0.00177389
-0.000145106
-0.000276893
0.00240299
-0.00016253
-0.000177449
0.00227812
-0.00014718
-3.94633e-05
0.00223515
-0.000163895
4.34505e-05
0.00196935
-0.000189225
0.000149212
0.00121476
-0.000213299
0.000248214
0.000834062
-0.00027344
0.000142725
-0.000159117
-0.000292622
9.98319e-05
-0.00109924
-0.000268724
5.50012e-05
-0.002041
-0.000268158
-3.37409e-05
0.00047092
-7.58903e-05
-0.00010296
0.000322531
-8.06822e-05
-0.00016604
0.000493877
-8.95622e-05
-0.000186865
0.000158035
-8.88862e-05
-0.00023789
0.00131698
-7.04257e-05
-0.000192667
0.00208615
-5.89201e-05
-0.000123777
0.00231263
-5.81865e-05
-6.75408e-05
0.00193451
-5.51114e-05
-2.67875e-05
0.00187724
-6.04207e-05
-7.71051e-06
0.00171677
-6.69979e-05
4.52654e-05
0.000938544
-7.53964e-05
8.02399e-05
0.000497307
-8.34484e-05
4.69073e-05
-0.000644031
-8.77093e-05
1.52852e-05
-0.00192104
-8.42878e-05
2.93507e-05
-0.00241196
-8.07232e-05
5.4749e-05
-0.0031796
-8.28887e-05
5.7942e-05
0.0048617
0.00381434
0.000178704
0.00506012
0.00378994
0.000282387
0.00490025
0.00381571
0.00020791
0.00526484
0.00344534
0.000410628