/*--------------------------------*- C++ -*----------------------------------*\
  =========                 |
  \\      /  F ield         | OpenFOAM: The Open Source CFD Toolbox
   \\    /   O peration     | Website:  https://openfoam.org
    \\  /    A nd           | Version:  7
     \\/     M anipulation  |
\*---------------------------------------------------------------------------*/
FoamFile
{
    version     2.0;
    format      ascii;
    class       surfaceScalarField;
    location    "9";
    object      phi_0;
}
// * * * * * * * * * * * * * * * * * * * * * * * * * * * * * * * * * * * * * //

dimensions      [0 3 -1 0 0 0 0];

internalField   nonuniform List<scalar> 
54451
(
-2.10725e-05
6.14394e-05
-6.22418e-05
-3.01829e-05
0.00200491
-0.000116127
-2.0963e-05
8.35069e-05
-6.24303e-05
-2.92429e-05
-0.000848022
-7.16249e-05
-6.18195e-05
0.00531978
-0.000171855
-2.11153e-05
0.00202105
-0.00011252
1.09026e-05
0.000937803
-0.000134475
-2.45518e-05
0.000108617
-6.2348e-05
-3.63579e-05
-0.000802502
-7.15916e-05
-9.95296e-05
-0.00154389
-8.32193e-05
0.000111943
0.00609501
-0.000351562
-6.83633e-05
0.00535646
-7.06841e-05
4.65791e-05
0.00360692
-0.000119164
-2.38451e-05
0.00203562
-0.000109578
-3.81869e-05
0.000956641
-0.000129529
-0.000137709
0.000241958
-0.000149503
-2.34043e-05
0.000132086
-6.25198e-05
-4.40522e-05
-0.000748923
-7.18752e-05
-0.00010781
-0.00142424
-8.34338e-05
-0.000119101
-0.00175845
-7.68634e-05
0.000470786
0.00612899
-7.001e-05
8.62364e-05
0.006079
-0.000150571
0.000153132
0.00556099
-0.000372263
-8.34897e-05
0.0054179
-2.6822e-05
-9.23615e-05
0.00361484
-2.44249e-05
-0.000116974
0.000507144
-7.49873e-05
-1.44024e-05
0.00204162
-0.000109583
-5.81193e-05
0.000987055
-0.000125925
-0.000156303
0.000306202
-0.000145279
-0.000213989
-0.000987053
-0.000150392
-2.15318e-05
0.000153633
-6.32439e-05
-5.11918e-05
-0.00068827
-7.19806e-05
-0.000116768
-0.00129558
-8.37655e-05
-0.000127399
-0.00163756
-7.69242e-05
-0.000185701
-0.000983371
-5.80893e-05
0.000457455
0.00676991
0.000338454
0.000186748
0.00623259
0.000209457
0.000272056
0.00571273
-6.73822e-05
0.000129867
0.00601237
4.41921e-06
-5.87362e-05
0.00558786
-0.000211069
-0.000112829
0.00510168
-9.1191e-05
-4.75207e-05
0.00543937
1.32666e-05
-9.53927e-05
0.00362427
1.01885e-06
-0.000188207
0.000571134
-5.65118e-05
-0.000373726
-0.00102495
-0.000135714
-2.2861e-06
0.0020356
-0.000110447
-5.5826e-05
0.00100064
-0.000118532
-0.000184667
0.000389849
-0.000141673
-0.000239045
-0.000873735
-0.000146952
-0.000328546
-0.00059242
-0.000122552
-2.26134e-05
0.000175751
-6.35683e-05
-5.4385e-05
-0.000624405
-7.27241e-05
-0.000127032
-0.00115624
-8.42951e-05
-0.00013932
-0.00150531
-7.67025e-05
-0.000195293
-0.000806252
-5.87498e-05
-0.000192008
0.000120926
-5.69887e-05
0.000204552
0.00630889
0.000855934
3.35118e-05
0.0069747
0.000326099
0.000245522
0.00759096
0.000303921
0.00033841
0.00614437
0.000252406
0.00020432
0.00554579
0.000113343
-4.77302e-05
0.00662504
0.000111199
3.27049e-05
0.00601348
9.51479e-05
-5.9966e-05
0.00554481
1.20424e-05
-0.000117875
0.00478887
3.14092e-05
-0.000161239
0.00387041
0.000244536
-2.53597e-06
0.00543376
2.82073e-05
-0.000102274
0.0036458
3.81814e-05
-0.000308386
0.000741147
-4.52741e-05
-0.000408781
-0.000792824
-0.000118899
-0.000483253
-0.000496977
-0.000117908
2.36259e-05
0.00200268
-0.000112375
-0.000116821
0.00106775
-0.000115121
-0.000210378
0.000491666
-0.000137003
-0.000263515
-0.000746273
-0.00014494
-0.000357194
-0.000453111
-0.000124359
-0.000346535
3.9512e-05
-0.000111775
-2.48298e-05
0.000200268
-6.47824e-05
-6.4933e-05
-0.000550592
-7.2448e-05
-0.000133464
-0.00100996
-8.55372e-05
-0.000145441
-0.00136681
-7.735e-05
-0.000204404
-0.000619664
-5.88871e-05
-0.000194482
0.000316266
-5.96085e-05
-0.000150113
0.00106322
-5.90919e-05
0.00021775
0.00649635
0.0016934
0.000138573
0.00660354
0.000723915
0.000250687
0.00676294
0.000707442
0.000399477
0.00695669
0.000230292
0.000631605
0.00730487
0.000184906
0.00025945
0.00748864
0.000180571
0.000254868
0.00599193
0.00050395
0.000230539
0.00529104
0.000216653
0.00016221
0.00627541
0.000182889
0.000424613
0.00663661
2.11501e-05
7.83222e-05
0.00598395
0.00019478
-9.38464e-05
0.00552026
0.000111277
-0.000201821
0.00446974
0.000224614
-0.000250746
0.00338889
0.000354894
-0.000136804
0.00108021
6.91335e-05
6.57761e-05
0.00536096
5.24157e-05
-0.000180827
0.00370005
3.79652e-05
-0.00036863
0.000963861
-2.62807e-05
-0.000430466
-0.000563391
-0.000107757
-0.000522049
-0.000322001
-0.00012902
-0.000492963
0.000374021
-0.000119947
1.24572e-05
0.00197628
-0.000111981
5.90608e-06
0.000995523
-0.000110989
-0.000234635
0.000614923
-0.000137206
-0.000284056
-0.000599198
-0.000145462
-0.000381185
-0.000296812
-0.000124459
-0.00035767
0.000203003
-0.000124662
-0.000315896
0.00102343
-0.000112881
-2.43918e-05
0.00022424
-6.58652e-05
-7.06973e-05
-0.000471159
-7.3519e-05
-0.000141101
-0.000855804
-8.5501e-05
-0.00015108
-0.00122313
-7.81399e-05
-0.000213172
-0.000424472
-5.93692e-05
-0.000197413
0.000514375
-5.95825e-05
-0.000142286
0.00120679
-6.08929e-05
-0.00012493
0.00118729
-5.26219e-05
0.000321753
0.0069271
0.00206593
0.000186942
0.00668702
0.00162092
0.000191213
0.00645877
0.00159232
0.000446014
0.00688259
0.00074268
0.000660454
0.00704799
0.000410016
0.000345559
0.00707185
0.000619761
0.00038348
0.0068952
0.000327932
0.000588955
0.00701091
0.000165837
0.000462292
0.00722076
0.000152702
0.000375689
0.00734986
0.000143716
0.000190334
0.00591114
0.000557157
8.05887e-05
0.00525817
0.000362384
0.00042787
0.00560038
0.000261991
0.000307313
0.00619603
6.54093e-05
0.000427444
0.00551069
-0.00033209
0.000129375
0.00596188
0.000269075
-5.75428e-05
0.00533297
0.000258781
-0.000326425
0.00426275
0.000276054
-0.000309403
0.00311677
0.000375666
-0.00031694
0.00118041
4.95822e-05
-0.000540831
0.000680457
-9.07338e-05
8.23959e-05
0.00524486
8.57938e-05
3.13446e-05
0.00362911
9.79175e-05
-0.00033473
0.00112915
-2.72335e-05
-0.000470419
-0.000299804
-0.000103504
-0.000555338
-0.000125833
-0.000129773
-0.000516084
0.000563657
-0.000160242
-0.000465994
0.00119655
-9.45042e-05
1.00167e-05
0.00195292
-0.000116479
-0.000112614
0.00103797
-0.000112515
-0.000244652
0.000742425
-0.000134941
-0.000303943
-0.000436018
-0.000147524
-0.000404156
-0.000124061
-0.000127228
-0.00036723
0.000387367
-0.000139006
-0.000310219
0.00117724
-0.00011054
-0.00029733
0.00127908
-0.000112875
-2.59145e-05
0.000249762
-6.71431e-05
-7.76296e-05
-0.000385105
-7.42894e-05
-0.000146105
-0.000696524
-8.66931e-05
-0.000160407
-0.00106972
-7.85047e-05
-0.000222291
-0.000220355
-5.99664e-05
-0.000198944
0.000712823
-5.88733e-05
-0.000141622
0.00134908
-6.02534e-05
-0.000127254
0.00130633
-5.26748e-05
-8.23607e-05
0.00148641
-5.29408e-05
0.000338622
0.00646052
0.00222437
9.96401e-05
0.00705022
0.00198226
0.000209883
0.00680169
0.00206552
9.14957e-05
0.00727786
0.00159012
0.000338192
0.00693843
0.00146353
0.000197235
0.00677862
0.00152242
0.000272696
0.00729796
0.000899705
0.000763095
0.00709154
0.000524987
0.000610792
0.00684449
0.000488881
0.000463297
0.00716105
0.000613477
0.000268442
0.00666495
0.000381422
0.000338521
0.00687488
0.000206023
0.000650433
0.00693723
0.000226801
0.000356088
0.00730634
0.000147451
0.000258874
0.00820593
0.000304408
0.000210469
0.00585085
0.000566821
0.000104317
0.00522275
0.000430721
0.000338165
0.00487493
0.00042325
0.000262371
0.00575829
0.000127957
0.000338043
0.00532804
-0.000406927
-4.01563e-06
0.00429923
-0.000218852
8.6629e-05
0.00599492
0.000374831
-7.04056e-05
0.00541807
0.000285724
-0.000395811
0.00419968
0.000382939
-0.000400374
0.00293907
0.000383714
-0.000389138
0.0013379
5.19785e-05
-0.000481131
0.00087071
-0.000175624
-0.000690553
0.00110937
1.24205e-06
6.87879e-05
0.00513541
0.000129056
-0.000150049
0.00364079
0.000111548
-0.000376509
0.00136207
-3.14112e-06
-0.00049173
-3.30773e-05
-0.000106174
-0.000574973
8.51468e-05
-0.000143666
-0.000531181
0.00078256
-0.000184725
-0.00040882
0.00124167
-0.00010676
-0.000456016
0.00133156
-0.000137593
1.06894e-05
0.00192359
-0.000123101
-0.000143624
0.00110922
-0.000121733
-0.000259587
0.000884472
-0.00014108
-0.00031995
-0.000256816
-0.000154601
-0.000426756
5.59862e-05
-0.000123106
-0.000368691
0.00057721
-0.000147324
-0.000305822
0.00133997
-0.000137536
-0.000307603
0.0014579
-0.000109011
-0.000178952
0.00175479
-0.000122142
-2.81945e-05
0.000277776
-6.86702e-05
-8.41785e-05
-0.000292769
-7.53e-05
-0.000151021
-0.000532244
-8.75488e-05
-0.000165988
-0.000910644
-7.97777e-05
-0.000230428
-8.24886e-06
-6.01831e-05
-0.000200643
0.000913392
-5.9892e-05
-0.000145702
0.00149557
-5.96567e-05
-0.000116569
0.00141561
-5.29737e-05
-7.78988e-05
0.00156528
-5.36478e-05
-5.71289e-05
0.00147914
-6.06056e-05
0.000468777
0.00618832
0.0024038
0.00014132
0.00641017
0.00216705
0.000356448
0.00641339
0.00221408
6.338e-05
0.00707738
0.00194983
0.000194277
0.0069137
0.00201417
0.000233837
0.00664408
0.00207649
0.000205271
0.00748672
0.00170219
0.000633989
0.00730264
0.00135501
0.000394394
0.00694043
0.00151811
0.000333239
0.00688286
0.00154568
0.000325242
0.00745786
0.0010356
0.000496905
0.00718867
0.000644196
0.000694364
0.00679202
0.000533521
0.000386849
0.00705483
0.00056434
0.000371461
0.00771493
0.000586799
0.000314785
0.00657528
0.000434643
0.000331086
0.00675781
0.000271722
0.000611214
0.00673818
0.000132023
0.000360781
0.00728771
0.000147011
0.000453156
0.00786899
0.000369278
0.000669338
0.00717343
0.000105799
0.000114714
0.00583078
0.000606043
0.000193624
0.00508992
0.000435621
-1.2044e-05
0.00451214
0.000409745
0.000237341
0.00532882
0.00021501
0.000328049
0.00497541
-0.000236592
-0.000338066
0.00403871
-0.00028947
-0.000177381
0.00190887
-7.90759e-05
0.000152552
0.0058886
0.000435122
-0.000104801
0.00529921
0.000448446
-0.000509115
0.00426385
0.000354153
-0.000534403
0.00297582
0.000388856
-0.000455108
0.00156331
3.84425e-05
-0.000508983
0.0010973
-0.00019681
-0.000552538
0.00118972
-0.000112258
-0.000476475
0.00124093
-0.000102163
7.72662e-05
0.00500499
0.00014311
-0.000150808
0.00368006
9.69709e-05
-0.000259212
0.00148769
-1.44424e-05
-0.000497028
0.000266987
-0.000126127
-0.00057644
0.000266577
-0.00013792
-0.000530159
0.000988101
-0.00018774
-0.000393286
0.00126009
-0.000115676
-0.000446539
0.00149836
-0.000134623
-0.000307375
0.00178182
-0.000210598
-1.51487e-05
0.00191986
-0.000133456
-0.000164159
0.00119917
-0.000133064
-0.000273551
0.00103638
-0.000151108
-0.000336343
-6.6213e-05
-0.000161329
-0.000451419
0.000246043
-0.000123665
-0.000383531
0.000782051
-0.000145059
-0.00032244
0.00151274
-0.00014336
-0.000291629
0.00162179
-0.000126371
-0.000165152
0.00186357
-0.000130535
-7.98177e-05
0.0019836
-0.00015109
-3.0473e-05
0.000308284
-7.02145e-05
-8.82767e-05
-0.000196805
-7.63579e-05
-0.000154421
-0.000364596
-8.8527e-05
-0.000172436
-0.00074429
-8.1467e-05
-0.000236305
0.000207919
-5.96407e-05
-0.000200941
0.00111228
-5.81327e-05
-0.000143191
0.0016391
-6.02354e-05
-0.000106207
0.00151594
-5.37782e-05
-7.12194e-05
0.0016383
-5.47748e-05
-5.1423e-05
0.0015385
-6.15915e-05
-1.09032e-05
0.000987424
-6.84761e-05
0.000461924
0.00596979
0.00268014
0.000312256
0.00601923
0.00241385
0.000473916
0.00633391
0.00231142
7.85105e-05
0.00635014
0.00215702
0.000235958
0.00633581
0.00220294
0.000596212
0.00632309
0.00215785
0.00033031
0.00699301
0.00191436
0.000256729
0.0071929
0.00204789
0.000236955
0.00675163
0.00206406
0.000233259
0.0066599
0.00202421
0.000349333
0.00760203
0.00172361
0.000385526
0.00761951
0.0014967
0.000429296
0.00712534
0.00143517
0.000188152
0.00705869
0.00154098
0.000427369
0.00693873
0.00156817
0.000383234
0.00755024
0.00117823
0.000471427
0.00722096
0.000862964
0.000646771
0.00684232
0.000558341
0.000396448
0.00696012
0.000592562
0.000371504
0.00761468
0.000746239
0.000460506
0.00813338
0.00070011
0.000257152
0.00651579
0.00058253
0.000299425
0.00660123
0.000485429
0.000417801
0.00644137
0.000138685
0.00045545
0.0070205
0.000181131
0.000562938
0.00742525
0.000355864
-5.48695e-05
0.00677736
0.000482153
0.000435475
0.00495173
-5.06411e-05
0.000216492
0.00575558
0.000626809
7.68019e-05
0.00504849
0.000465872
-0.000260519
0.00439909
0.00030007
0.000129275
0.00492361
0.000151269
7.75694e-05
0.00479897
-0.000141235
-0.000324176
0.0038484
-0.000231094
-0.000318425
0.00146278
-7.74998e-05
-8.98292e-05
0.00210342
-6.83424e-05
0.000157749
0.00581071
0.000482661
-7.92654e-05
0.00521065
0.000452135
-0.000295468
0.00429075
0.000457807
-0.000456908
0.00293393
0.000355926
-0.000461853
0.00178959
4.79906e-05
-0.000505672
0.00130366
-0.000192401
-0.000487011
0.0012057
-0.00011907
-0.000537002
0.00138058
-0.000161448
-0.000391728
0.00186153
-0.000246834
4.72536e-05
0.00489801
0.00017621
-0.000357004
0.00392321
9.28018e-05
-0.000339677
0.00168977
-3.89854e-05
-0.000506459
0.000567692
-0.000145032
-0.000597216
0.000432802
-0.000146556
-0.00055226
0.00120444
-0.000185528
-0.00042032
0.00130503
-0.000134807
-0.000499165
0.00169454
-0.000104318
-0.000288634
0.00200601
-0.000235336
-0.000130637
0.00228672
-0.000309785
-2.54406e-05
0.00192098
-0.000139639
-0.000156665
0.00127929
-0.00014519
-0.000280744
0.00119471
-0.000165075
-0.00035032
0.000129825
-0.000169262
-0.000469314
0.000442512
-0.000124789
-0.000391495
0.00099086
-0.000141921
-0.000325648
0.00168289
-0.000132745
-0.000275153
0.00177692
-0.000129536
-0.000197245
0.00199988
-0.000136659
-6.30364e-05
0.00202374
-0.00015906
5.37841e-05
0.00145284
-0.000201727
-3.26127e-05
0.000341388
-7.20118e-05
-9.62005e-05
-9.3491e-05
-7.7328e-05
-0.00015736
-0.000194269
-8.93255e-05
-0.000178333
-0.0005711
-8.33844e-05
-0.000239317
0.000427596
-6.18277e-05
-0.000204411
0.00131453
-5.74779e-05
-0.000148725
0.00178842
-5.87255e-05
-0.000110921
0.00162083
-5.41972e-05
-6.54331e-05
0.00170554
-5.55758e-05
-4.58701e-05
0.00159224
-6.26452e-05
-4.85093e-06
0.00100012
-6.9433e-05
4.15639e-05
0.000723865
-8.01858e-05
0.000318756
0.00550489
0.00310612
0.000442725
0.00586708
0.00270273
0.00052179
0.00600238
0.00261324
0.000216534
0.00591929
0.00237958
0.000458256
0.00616338
0.00236208
0.000801103
0.00619505
0.00230488
0.000280108
0.00637776
0.00212908
0.000183618
0.00636295
0.00220299
0.00035687
0.00622665
0.00217946
0.000334366
0.00642742
0.00206963
0.000358453
0.00697175
0.00198492
0.000350302
0.00716951
0.00197297
0.000187014
0.00699303
0.00204877
0.000175207
0.00677797
0.00195893
0.000446465
0.00695553
0.00191011
0.000456188
0.00761915
0.00178142
0.000498163
0.00762366
0.00169272
0.000530332
0.0072103
0.00152818
0.000318941
0.00709616
0.00147521
0.000342231
0.00694163
0.00156736
0.000418831
0.00733663
0.00151489
0.000374514
0.00757246
0.00131758
0.000414143
0.00714129
0.00114318
0.000476326
0.00688915
0.000757612
0.000553285
0.00678447
0.000636154
0.000468067
0.00747703
0.000825086
0.000160472
0.00788647
0.0007778
0.00032593
0.00750976
0.000942428
0.000277987
0.00659562
0.000670421
0.00026818
0.00640164
0.00059074
-1.69246e-05
0.00623761
0.0004456
0.000444551
0.0065232
0.000320706
0.000372211
0.00694507
0.000366675
2.41592e-05
0.0062383
0.00054659
0.000244586
0.00465426
0.000216612
0.000242721
0.0043202
0.00016253
0.000222462
0.00574451
0.000694992
0.000109097
0.00502193
0.000464997
-0.000197378
0.00448548
0.00028139
-2.47021e-05
0.00474598
4.54956e-05
-0.000222018
0.00491992
-0.000209517
-0.000323369
0.00362956
-0.000104702
-0.00032424
0.00123569
-0.000166772
-0.000377766
0.00188041
-1.37265e-05
-0.000418744
0.00227765
2.18469e-05
4.59977e-05
0.00574083
0.000571792
-0.000396158
0.00531033
0.000422138
-0.000376323
0.00437996
0.000399568
-0.00059689
0.00314291
0.000339256
-0.000511517
0.00200921
5.06008e-05
-0.00052692
0.00151279
-0.000186483
-0.00051586
0.00128285
-0.000174004
-0.000591744
0.00150048
-0.000146393
-0.000385967
0.00208696
-0.00028954
-0.000284465
0.0017357
-0.000209829
-6.62526e-05
0.00490339
0.000172854
1.02441e-05
0.00386331
6.92016e-05
-0.000354748
0.00192542
-6.88501e-05
-0.000510373
0.000836443
-0.000147683
-0.000612697
0.000595215
-0.000164063
-0.0005718
0.00141153
-0.000173347
-0.000417304
0.00135883
-0.000147664
-0.000469944
0.00190102
-0.000146502
-0.000350056
0.00229058
-0.000236074
-5.16175e-05
0.00237309
-0.000333129
0.000223001
0.000924567
-0.000389113
-3.59639e-06
0.00190096
-0.000150568
-0.000169183
0.00136519
-0.00015256
-0.000283727
0.00134863
-0.000172744
-0.000363307
0.000336995
-0.000187272
-0.000475212
0.000636403
-0.000127258
-0.000398126
0.00120151
-0.000141723
-0.000326808
0.00186499
-0.000145943
-0.000288721
0.00194281
-0.000120841
-0.000145991
0.00209386
-0.000142954
-1.67656e-05
0.00202558
-0.000167598
7.28403e-05
0.00142881
-0.000212724
0.00019387
0.00114282
-0.000269765
-3.25956e-05
0.000374917
-7.37041e-05
-9.43911e-05
7.36473e-06
-7.84764e-05
-0.000159718
-2.18531e-05
-9.00256e-05
-0.000183563
-0.000391703
-8.51592e-05
-0.000239993
0.00064894
-6.47349e-05
-0.000203241
0.001515
-5.90546e-05
-0.000142135
0.0019317
-5.86276e-05
-9.30826e-05
0.0017104
-5.52119e-05
-5.49207e-05
0.0017629
-5.6636e-05
-3.64823e-05
0.00163673
-6.35811e-05
3.73334e-06
0.00100451
-7.07699e-05
5.11923e-05
0.000683828
-8.05874e-05
6.27618e-05
-0.000502473
-8.71176e-05
0.000290478
0.00532015
0.00326724
0.000477795
0.00547245
0.00310648
0.000562754
0.00545621
0.0030688
0.000384932
0.00570132
0.00273772
0.000610096
0.00588644
0.00266683
0.000682292
0.00595985
0.00266966
0.000260108
0.00592498
0.00242534
0.000300427
0.00603367
0.00239248
0.000621035
0.00593855
0.00235442
0.000499222
0.00592153
0.00235859
0.000317477
0.00639363
0.00213775
0.000286729
0.00635438
0.00220122
0.000266774
0.00622764
0.00212224
0.000430326
0.00631843
0.00203333
0.000422568
0.0063237
0.0020701
0.000562238
0.00687755
0.00188586
0.000484307
0.00713026
0.00203803
0.000425436
0.0070662
0.0020047
0.000353726
0.00689681
0.00189515
0.000510316
0.00685666
0.00188972
0.00050464
0.00698347
0.00181436
0.000637993
0.00739705
0.00183766
0.000533517
0.00753127
0.00175444
0.000343027
0.00749147
0.00154485
0.000479201
0.00715359
0.00154483
0.000365361
0.00704099
0.00147855
0.000242254
0.00728613
0.00153608
0.000565792
0.00686035
0.00159587
0.000388435
0.00758792
0.00141995
0.000402482
0.00706636
0.00125822
0.000321662
0.00667538
0.00101836
0.000509407
0.00658633
0.000890906
0.00053689
0.00724045
0.000708053
0.000422228
0.0074165
0.00089699
0.000436261
0.0073625
0.000733391
0.000178166
0.00728605
0.000928227
0.000264605
0.00665459
0.000828215
0.000274409
0.00625042
0.000656328
2.72407e-05
0.00609738
0.000506345
0.000110845
0.006419
0.000414253
-0.000176486
0.00669026
0.000529985
0.000134123
0.00559645
0.000551031
0.000175705
0.00444614
0.000254758
4.56537e-05
0.00391959
0.000193808
-2.53721e-05
0.004511
0.000487242
-1.74575e-05
0.00592936
0.000773078
3.77638e-05
0.0047995
0.000483502
-0.000117464
0.00441913
0.000272497
-0.000236059
0.00456507
0.000101468
-0.000274783
0.00484679
-0.000118109
-0.00036878
0.00343634
-0.000174431
-0.000471522
0.00121196
-0.000125309
-0.000533901
0.00169309
-3.72884e-05
-0.00046944
0.00236003
-1.26341e-05
-0.000360243
0.00274586
-0.000153543
-0.000112302
0.00580405
0.000564528
7.62085e-05
0.00533272
0.000483441
-0.000400519
0.00447409
0.000373776
-0.000595004
0.00335574
0.000271374
-0.000533898
0.0022066
6.30651e-05
-0.000568433
0.00169633
-0.000136302
-0.000521764
0.00140719
-0.000206368
-0.000616508
0.00171514
-0.000242101
-0.000391694
0.00233449
-0.000352291
-0.000173553
0.00190298
-0.000334888
0.000311419
0.00200731
-0.000206331
2.37556e-05
0.00485107
0.000159114
-0.000143291
0.00394936
6.09117e-05
-0.00032774
0.00212265
-8.4007e-05
-0.000499903
0.00107651
-0.000172325
-0.000647094
0.000781317
-0.000161904
-0.000577617
0.00159629
-0.000169324
-0.000431532
0.00146495
-0.000174742
-0.000416568
0.00204268
-0.000161475
-0.000247903
0.00249682
-0.000250826
8.82656e-05
0.00236597
-0.000333989
0.000294167
0.000786413
-0.000416302
0.000432164
0.000388573
-0.00039437
-2.82359e-06
0.00187363
-0.000149845
-0.000161363
0.001445
-0.000163409
-0.000282964
0.00149867
-0.000179356
-0.000381834
0.000560347
-0.000197825
-0.000478596
0.000832871
-0.000145137
-0.000406999
0.0014133
-0.000135294
-0.000323935
0.0020563
-0.000151225
-0.000234266
0.00207686
-0.000138811
-0.000102324
0.00217022
-0.000149801
-1.09434e-06
0.00202219
-0.000174953
0.000105062
0.00137917
-0.000219284
0.000203487
0.00105458
-0.000276774
0.000194496
1.3961e-05
-0.000290699
-3.20254e-05
0.000408185
-7.51446e-05
-9.92827e-05
0.000112522
-7.95784e-05
-0.000162137
0.000151718
-8.99103e-05
-0.000184701
-0.000209747
-8.728e-05
-0.00024226
0.000869977
-6.39362e-05
-0.000197097
0.00170796
-6.06027e-05
-0.00013629
0.00206755
-5.86073e-05
-8.83914e-05
0.0017949
-5.4745e-05
-4.22802e-05
0.00180788
-5.79164e-05
-3.05376e-05
0.00167549
-6.48543e-05
1.65181e-05
0.000996739
-7.23305e-05
6.06576e-05
0.000633678
-8.12775e-05
5.70134e-05
-0.000552387
-8.76865e-05
3.00944e-05
-0.00187172
-8.38195e-05
0.000223514
0.00505378
0.00348661
0.000441221
0.00532783
0.00327811
0.00053918
0.00520858
0.00334138
0.000426027
0.00545958
0.00306244
0.000601741
0.00551175
0.0030593
0.000678215
0.00549318
0.00301567
0.000313056
0.00564037
0.00278719
0.00041036
0.00579398
0.00272025
0.000657195
0.00588878
0.00270174
0.0005753
0.00569968
0.00271873
0.000378301
0.00584153
0.0024428
0.000388485
0.00590993
0.00244732
0.000453854
0.00577821
0.00236574
0.000602314
0.00578115
0.0023228
0.000558641
0.00573174
0.00233867
0.000556518
0.00636681
0.00211431
0.000399334
0.00640003
0.00217708
0.000348408
0.00628948
0.0022164
0.000419479
0.006286
0.00208892
0.000593655
0.00624164
0.00203206
0.000438569
0.00618701
0.00211734
0.000640505
0.0068053
0.00197514
0.000596244
0.00698011
0.00197328
0.000453431
0.00703444
0.00195938
0.000425455
0.00702045
0.0019348
0.000440314
0.00685006
0.0018268
0.000531957
0.00680352
0.00177996
0.00072025
0.00662486
0.00180629
0.000430984
0.0073493
0.00186794
0.000545284
0.007396
0.00183013
0.000536702
0.00737547
0.00165539
0.000702165
0.0070571
0.00144858
0.00041138
0.00724778
0.00146355
0.000643305
0.00707521
0.00146839
0.000682317
0.00680542
0.00134495
0.000475274
0.00640946
0.00151584
0.00029118
0.00764663
0.00151196
0.0004481
0.00697562
0.00133699
0.00040241
0.00641683
0.0011416
0.000244484
0.00649523
0.000975821
0.00020574
0.00694522
0.000803915
0.000254993
0.00728008
0.0007236
0.000502772
0.00719146
0.000740957
0.000589761
0.00659559
0.00087975
0.000402509
0.00534499
0.00103567
0.000125455
0.00663603
0.00106197
0.000218036
0.00611957
0.000778794
7.95066e-05
0.00601463
0.000542116
3.07225e-05
0.00620402
0.000454543
-9.39644e-05
0.00633963
0.000584062
6.02242e-05
0.00526642
0.000431009
-4.78121e-05
0.00421847
0.00035499
-0.000144358
0.00353299
0.000251817
-0.000121693
0.00421935
0.000137709
2.0944e-06
0.00345036
0.000336413
-6.5197e-05
0.00600127
0.000860424
-1.95276e-05
0.00514585
0.000522465
-8.76962e-05
0.00431282
0.000276987
-0.000262686
0.00443126
7.39889e-05
-0.000300744
0.00468491
3.0199e-05
-0.000460315
0.00331857
-0.000108462
-0.000505341
0.00119682
-0.000175715
-0.000577604
0.00161853
-8.96589e-05
-0.000481209
0.00247924
-6.69873e-05
-0.000154869
0.0027964
-8.18579e-05
0.000374054
0.0028034
-0.000274311
-9.84345e-05
0.00591614
0.000548277
-0.000123436
0.00541375
0.000463635
-0.000353268
0.00462433
0.00035873
-0.000593459
0.0035697
0.000253366
-0.00056819
0.00238979
9.28152e-06
-0.000569696
0.00186324
-0.000111772
-0.000552342
0.0016044
-0.000212704
-0.00052461
0.00192419
-0.000307369
-0.00035173
0.002618
-0.000421786
4.29858e-07
0.00209368
-0.000455151
0.000491007
0.00176613
-0.000290543
0.000778925
0.00146312
-0.000311498
-3.11847e-06
0.00480613
0.000159136
-0.000144981
0.00404059
5.15083e-05
-0.000304975
0.00230473
-9.91615e-05
-0.000499011
0.00129781
-0.000188121
-0.000681255
0.00100329
-0.000191641
-0.000572122
0.00178188
-0.000182372
-0.00044934
0.00160879
-0.000187764
-0.000346105
0.00217423
-0.000194455
-0.000158863
0.00265193
-0.000260052
0.000156512
0.00228182
-0.000324276
0.000343567
0.000632852
-0.000418933
0.000434336
0.000157039
-0.000415617
0.000378826
-0.000383271
-0.000359435
-4.73958e-06
0.00184094
-0.000148415
-0.000182355
0.00154023
-0.000161997
-0.000285414
0.00164208
-0.000183542
-0.000381099
0.000779564
-0.000202174
-0.000482943
0.00103455
-0.000158825
-0.000391746
0.00161297
-0.000150153
-0.000310603
0.00224554
-0.000150225
-0.000207973
0.00218778
-0.000142562
-6.53525e-05
0.00221125
-0.000156769
1.9493e-05
0.00200275
-0.000180391
0.000139142
0.00129856
-0.000216966
0.000220954
0.00095448
-0.000279482
0.000169522
-8.35294e-05
-0.000291792
0.000127846
-0.00100251
-0.000267959
-3.20217e-05
0.000440639
-7.53684e-05
-0.000101165
0.000219128
-8.05857e-05
-0.000164706
0.000326277
-8.94311e-05
-0.000184531
-2.60007e-05
-8.91261e-05
-0.000242673
0.00109284
-6.74676e-05
-0.00020316
0.00190479
-5.76048e-05
-0.000125961
0.00219081
-5.79049e-05
-8.08653e-05
0.00187189
-5.47318e-05
-3.34783e-05
0.00184566
-5.90487e-05
-2.12735e-05
0.00170463
-6.57856e-05
3.19357e-05
0.000973854
-7.39055e-05
7.15068e-05
0.0005721
-8.22599e-05
5.1558e-05
-0.000597422
-8.78005e-05
2.23612e-05
-0.00189766
-8.41144e-05
3.76692e-05
-0.00238397
-8.00044e-05
5.68403e-05
0.00497272
0.00376193
0.000331728
0.00517101
0.00347631
0.000471987
0.00504205
0.00348117
0.000271071
0.00544894
0.00330107
0.000484032
0.00525254
0.00335185
0.000677466
0.00526217
0.00329339
0.000344898
0.00544617
0.00306786
0.00041434
0.00557339
0.00299682
0.000700549
0.00548584
0.00302328
0.000633496
0.00531673
0.00297205
0.000308611
0.00570028
0.00281438
0.000507583
0.00571566
0.00274641
0.000603109
0.00577244
0.00268733
0.000594269
0.00566711
0.00274236
0.000673511
0.00548851
0.00270234
0.000378445
0.00598484
0.00245237
0.000524429
0.00579863
0.002429
0.000421415
0.00576271
0.00238982
0.000503041
0.00577857
0.00228476
0.000574242
0.00577695
0.00229701
0.000592926
0.00574641
0.00225007
0.000489711
0.00647905
0.00211861
0.000596818
0.0063864
0.00212736
0.000503259
0.0063304
0.00208633
0.00046074
0.00627897
0.00218815
0.000572436
0.00615381
0.00204462
0.000736414
0.00599474
0.00201986
0.000795358
0.00583754
0.00204463
0.000374638
0.00678819
0.00194126
0.000673475
0.00685483
0.00197222
0.000713356
0.00690629
0.00192479
0.000735048
0.0071278
0.00181915
0.000533237
0.00692338
0.00173963
0.00070312
0.00690702
0.00166348
0.000954632
0.00647151
0.001661
0.000797575
0.00589797
0.001796
0.000262733
0.00731251
0.00191504
0.000589646
0.00720603
0.00191636
0.0007074
0.00704034
0.00186028
0.000563902
0.00676669
0.00162638
0.000376202
0.00709575
0.00143015
0.000399306
0.00682169
0.00157276
0.000773544
0.00665747
0.00134557
0.00096403
0.0061195
0.00126065
0.000763577
0.00607922
0.00142692
0.000258177
0.00757848
0.00155863
0.000312102
0.00699415
0.00139938
0.00015395
0.00645364
0.00122574
0.000188166
0.00661055
0.000868836
0.00041653
0.00680549
0.000605048
0.000659732
0.00673746
0.000747035
0.000667715
0.00653411
0.000665431
0.000486112
0.00583082
0.000875256
0.000383893
0.00469895
0.0010202
0.000566849
0.00444892
0.000951545
6.37642e-05
0.00660028
0.00118974
0.000154188
0.00606517
0.000942645
0.000179988
0.00587319
0.000652546
-1.76788e-05
0.00603846
0.000462671
0.000134959
0.00575086
0.000607606
1.04942e-05
0.00496379
0.000415885
-3.1211e-05
0.00397698
0.000198368
-0.000183807
0.00335655
0.00013763
-0.000138802
0.00399214
0.000136622
0.000240786
0.00349953
-0.00030712
0.000579522
0.00286877
0.000114803
-3.15742e-05
0.00611926
0.000848002
3.50662e-05
0.0053233
0.000524472
-6.89467e-05
0.00429537
0.000255594
-0.000253206
0.00433266
3.53358e-05
-0.000336868
0.0045466
-1.90248e-05
-0.000400666
0.00322331
-4.35674e-05
-0.000469033
0.00124642
-0.000241373
-0.000544315
0.00162518
-0.000162658
-0.000391448
0.00256863
-0.000139329
4.82667e-05
0.00278305
-0.000101472
0.000670758
0.00275169
-0.000209893
0.00106095
0.0013788
-9.85761e-05
-0.00015764
0.00606397
0.000573822
-0.000226599
0.00559378
0.000449866
-0.000287202
0.00471964
0.000350551
-0.000570232
0.00368216
0.000317488
-0.000558174
0.00254751
-2.74302e-05
-0.000569703
0.00203657
-0.000166463
-0.000603548
0.00185393
-0.000207092
-0.000440986
0.0021889
-0.000382535
-0.000238067
0.00286327
-0.000473429
0.000178523
0.00221526
-0.000565379
0.000615564
0.00140285
-0.000363869
0.000781001
0.00111755
-0.000291643
0.000683653
-0.000330663
-0.000205925
5.45033e-05
0.00470656
0.000153366
-0.000163344
0.00412815
5.25625e-05
-0.000308464
0.00248608
-0.000106796
-0.000482491
0.00149555
-0.00019551
-0.000661286
0.00120876
-0.000215242
-0.000515123
0.00193056
-0.00021695
-0.000401346
0.00173201
-0.000214849
-0.000289951
0.00228606
-0.000217611
-7.45477e-05
0.00273119
-0.000264519
0.000227087
0.00216219
-0.000348016
0.000340915
0.000526341
-0.000419539
0.000428343
-4.05594e-05
-0.000428723
0.000330998
-0.000603001
-0.000357363
0.000199158
-0.0018613
-0.000377107
1.34258e-05
0.00178552
-0.000150875
-0.000187763
0.0016374
-0.000158988
-0.000287262
0.00178154
-0.000178896
-0.000371713
0.00098544
-0.000202236
-0.000486186
0.00124326
-0.000167362
-0.000378853
0.00177461
-0.000144771
-0.000276502
0.00240854
-0.000162616
-0.000175825
0.00227986
-0.000147338
-3.93859e-05
0.00223855
-0.000163952
4.50186e-05
0.00196918
-0.000189499
0.000149789
0.0012134
-0.000213082
0.000249978
0.000832227
-0.000273185
0.000143058
-0.000161407
-0.000293105
9.96268e-05
-0.00110233
-0.000269238
5.46965e-05
-0.00202993
-0.000268005
-3.41256e-05
0.000474753
-7.57844e-05
-0.000102961
0.000327187
-8.0467e-05
-0.000166121
0.00050122
-8.94073e-05
-0.000186255
0.000159545
-8.87219e-05
-0.000237478
0.00131187
-7.06769e-05
-0.000191967
0.00208832
-5.90305e-05
-0.000124259
0.00231547
-5.80009e-05
-6.69509e-05
0.00193602
-5.50813e-05
-2.67493e-05
0.00187815
-6.04718e-05
-6.98162e-06
0.00171961
-6.70464e-05
4.58742e-05
0.000937559
-7.53643e-05
8.05568e-05
0.000501056
-8.34179e-05
4.71632e-05
-0.000638955
-8.78905e-05
1.49718e-05
-0.00191606
-8.43691e-05
2.84196e-05
-0.00241587
-8.06376e-05
5.48697e-05
-0.00317562
-8.28926e-05
5.86552e-05
0.00486271
0.00381361
0.000179073
0.0050608
0.00378955
0.000286812
0.00490058
0.00381484
0.000205236
0.00526655