/*--------------------------------*- C++ -*----------------------------------*\
  =========                 |
  \\      /  F ield         | OpenFOAM: The Open Source CFD Toolbox
   \\    /   O peration     | Website:  https://openfoam.org
    \\  /    A nd           | Version:  7
     \\/     M anipulation  |
\*---------------------------------------------------------------------------*/
FoamFile
{
    version     2.0;
    format      ascii;
    class       volVectorField;
    location    "9";
    object      U;
}
// * * * * * * * * * * * * * * * * * * * * * * * * * * * * * * * * * * * * * //

dimensions      [0 1 -1 0 0 0 0];

internalField   nonuniform List<vector> 
18870
(
(-0.24484 -0.0108889 -1.26961)
(-0.244336 0.980005 -0.748295)
(-0.249688 -0.016607 -1.26703)
(-0.301699 -0.49853 -1.61894)
(-0.593365 2.58375 -0.735507)
(-0.293933 0.988404 -0.712334)
(-0.14027 0.464705 -1.08051)
(-0.254978 -0.0211389 -1.26799)
(-0.314434 -0.505274 -1.61322)
(-0.899904 -0.96931 -1.63809)
(-0.538832 2.9704 -0.990459)
(-0.689987 2.61269 -0.522664)
(-0.096607 1.83978 -0.930382)
(-0.425954 0.951266 -0.669362)
(-0.261089 0.428151 -1.06606)
(-0.537632 0.0205384 -0.919168)
(-0.257501 -0.0262221 -1.27532)
(-0.338272 -0.518129 -1.60422)
(-0.904535 -0.979953 -1.62975)
(-0.914468 -1.06399 -2.13412)
(0.0641521 3.15263 -0.00635135)
(-0.819458 2.97608 -0.707075)
(-0.274071 2.82023 -1.28972)
(-0.79512 2.59857 -0.269978)
(-0.554389 1.7442 -0.235619)
(-0.746108 0.150181 -0.154667)
(-0.461811 0.935078 -0.659929)
(-0.373644 0.402582 -1.06239)
(-0.639039 -0.00328794 -0.846712)
(-0.785645 -0.653819 -1.30496)
(-0.256661 -0.03156 -1.28555)
(-0.349168 -0.51918 -1.60159)
(-0.918286 -1.00289 -1.61619)
(-0.9198 -1.11616 -2.12179)
(-1.54183 -0.790291 -1.37485)
(0.530695 3.40488 0.737046)
(-0.101442 3.09616 0.396171)
(0.0754069 2.92545 -0.425933)
(-1.14121 2.82932 -0.0695898)
(-0.794853 2.67541 -0.338309)
(-0.288052 2.61208 -1.21116)
(-0.891504 2.58112 -0.136652)
(-0.768469 1.66758 -0.0147851)
(-0.797918 0.0805636 -0.0397592)
(-0.923111 -0.722917 -0.564682)
(-0.475699 0.917296 -0.679277)
(-0.497016 0.346212 -1.05362)
(-0.763058 -0.0397592 -0.784474)
(-0.850926 -0.670421 -1.30428)
(-1.33304 -0.538443 -0.963971)
(-0.259158 -0.037607 -1.29505)
(-0.325551 -0.524063 -1.61254)
(-0.941594 -1.02003 -1.59573)
(-0.968596 -1.11618 -2.11785)
(-1.56289 -0.802693 -1.36851)
(-1.57923 -0.230745 -1.2479)
(-0.126128 3.02297 1.58589)
(-0.709546 3.39475 0.89544)
(-0.181623 3.79236 0.534918)
(0.0175646 3.27778 0.300427)
(-0.59559 2.75284 0.511138)
(-0.965002 3.24195 0.0179599)
(-1.20763 2.78785 0.214506)
(-0.905532 2.65559 -0.00559809)
(-0.785596 2.42004 -1.14021)
(-1.50053 1.95 0.572326)
(-0.991616 2.55892 -0.00976487)
(-0.723327 1.67953 0.186637)
(-0.911771 0.0636517 0.0185185)
(-0.987783 -0.690113 -0.501979)
(-1.22377 -0.482005 -0.593556)
(-0.548473 0.876173 -0.684123)
(-0.611425 0.32613 -1.03226)
(-0.893232 -0.0828422 -0.673249)
(-0.917956 -0.689398 -1.3044)
(-1.41392 -0.578993 -0.898672)
(-1.50917 -0.254427 -0.86021)
(-0.260599 -0.0439171 -1.30968)
(-0.386536 -0.538577 -1.60292)
(-0.930064 -1.01205 -1.61347)
(-0.947781 -1.12665 -2.14202)
(-1.58637 -0.82733 -1.35353)
(-1.58535 -0.235607 -1.2728)
(-1.19048 0.310973 -1.37778)
(-0.384447 3.12391 2.55805)
(-0.568608 3.0781 1.7395)
(-0.196828 3.30079 1.29448)
(-0.773791 3.42319 0.705685)
(-0.130183 3.81268 0.417371)
(-0.262602 3.80556 0.670609)
(-0.599977 2.97965 1.22157)
(-0.829587 2.58399 0.839895)
(-0.825577 3.13647 0.0439472)
(0.142298 3.46102 0.49335)
(-1.23916 2.72198 0.502992)
(-1.23676 2.49939 0.328585)
(-1.43682 1.95317 -0.0473782)
(-1.61632 1.42509 1.25333)
(-1.57702 0.338328 1.02246)
(-0.925031 2.57715 -0.102924)
(-1.31768 1.44763 0.206606)
(-1.00447 0.118519 0.161229)
(-1.05241 -0.65854 -0.453926)
(-1.32589 -0.500847 -0.509766)
(-1.38382 -0.0649754 -0.515008)
(-0.634168 0.795615 -0.68382)
(-0.709133 0.224153 -1.06092)
(-0.995134 -0.123813 -0.632776)
(-0.962901 -0.701023 -1.33825)
(-1.48586 -0.615815 -0.855809)
(-1.54198 -0.271724 -0.94995)
(-1.45346 0.26207 -0.872645)
(-0.263895 -0.0506973 -1.32852)
(-0.370041 -0.534298 -1.62415)
(-0.945916 -1.02513 -1.60521)
(-0.934301 -1.12618 -2.16896)
(-1.60866 -0.842369 -1.35177)
(-1.60054 -0.241885 -1.28217)
(-1.11153 0.325029 -1.46383)
(-0.959552 0.413042 -1.32123)
(-0.120045 3.40286 2.70727)
(-0.466745 3.16648 2.57)
(-0.258886 3.1315 2.40748)
(-0.00474433 3.50846 1.41208)
(0.340793 3.56844 0.671409)
(-0.0921822 3.53474 1.19927)
(-0.631171 3.39348 0.658782)
(-0.0691197 3.66195 0.183416)
(-0.220651 3.69482 0.352202)
(0.0701939 3.63372 0.0881708)
(-0.782048 2.89939 1.38958)
(-0.892778 2.4605 1.08779)
(-0.627805 2.93252 0.231142)
(-0.204167 3.20825 0.81547)
(0.67662 2.92422 -0.458017)
(-1.24153 2.73838 0.634257)
(-1.29739 2.44156 0.649647)
(-1.81941 1.69189 0.275416)
(-1.68399 1.23475 1.37579)
(-1.65588 0.206434 1.02591)
(-1.23671 0.086743 -0.552943)
(-1.07021 2.49566 -0.047591)
(-0.162506 1.92094 0.502375)
(-1.08523 0.0732202 0.143324)
(-1.11702 -0.622762 -0.422309)
(-1.40145 -0.511417 -0.458527)
(-1.43802 -0.0834294 -0.680784)
(-1.26849 0.372595 -0.573285)
(-0.671063 0.749445 -0.698754)
(-0.819773 0.119948 -1.03942)
(-1.07701 -0.161368 -0.534359)
(-1.01729 -0.716208 -1.37238)
(-1.56189 -0.663177 -0.820253)
(-1.57497 -0.290874 -0.988624)
(-1.48131 0.234447 -0.963883)
(-1.27718 0.406507 -0.836638)
(-0.267883 -0.0587335 -1.34929)
(-0.390433 -0.536975 -1.63851)
(-0.945984 -1.01544 -1.63144)
(-0.967933 -1.14636 -2.16544)
(-1.63392 -0.864655 -1.3474)
(-1.61581 -0.24683 -1.29059)
(-1.14865 0.331544 -1.45876)
(-0.965167 0.399866 -1.30234)
(-0.714995 0.611322 -1.09526)
(-0.2502 3.16977 2.51062)
(-0.539593 3.40516 2.54938)
(-0.300437 3.29242 2.62886)
(-0.818247 3.31792 2.56395)
(-0.259017 3.19761 2.13435)
(-0.225675 3.30003 2.24281)
(-0.602727 3.50621 1.60867)
(-0.201178 3.56713 1.00634)
(0.0202393 3.54373 0.769045)
(-0.0799776 3.62557 0.941698)
(-1.05189 3.22686 0.74672)
(-0.824056 3.32148 0.613338)
(0.150699 3.59643 0.451385)
(-0.275881 3.65635 0.292085)
(-0.208542 4.08407 0.442274)
(-0.928331 2.82968 1.41396)
(-0.978531 2.40517 1.25237)
(-0.803309 2.51433 0.726001)
(-0.574986 2.94675 0.983041)
(-0.193066 2.72872 -0.576353)
(-1.51021 2.13589 -1.1616)
(-1.27689 2.70307 1.02102)
(-1.62933 2.13881 0.973032)
(-1.64794 1.56927 0.893673)
(-1.84605 0.941208 1.41073)
(-1.76953 0.149655 1.01605)
(-1.33589 0.0874836 -0.688282)
(-1.40584 0.299167 -0.0733247)
(-1.20721 2.33554 0.315791)
(-1.14735 1.4727 0.7086)
(-1.11734 0.14274 0.397793)
(-1.16715 -0.587634 -0.410856)
(-1.46412 -0.522543 -0.447973)
(-1.49214 -0.0739502 -0.717623)
(-1.23729 0.363991 -0.766132)
(-1.34845 0.408322 -0.304772)
(-0.730538 0.677988 -0.742891)
(-0.913187 0.0352231 -1.07911)
(-1.13757 -0.187953 -0.569217)
(-1.06903 -0.727004 -1.42755)
(-1.64169 -0.699675 -0.807049)
(-1.58971 -0.291928 -1.05854)
(-1.45932 0.23166 -1.13475)
(-1.38357 0.376262 -0.697594)
(-0.83835 0.732349 -0.887659)
(-0.27273 -0.0668699 -1.37139)
(-0.401839 -0.536325 -1.65901)
(-0.956422 -1.02594 -1.64029)
(-0.953392 -1.14872 -2.18967)
(-1.65774 -0.876222 -1.35445)
(-1.61946 -0.252539 -1.30948)
(-1.2419 0.315594 -1.39734)
(-0.981976 0.4078 -1.27901)
(-0.738136 0.593212 -1.10233)
(-0.537261 0.623951 -1.30654)
(-0.128835 3.09822 2.48708)
(-0.63971 3.09983 2.46933)
(-0.280481 3.17013 2.57427)
(-0.872283 3.35711 2.51038)
(-0.454892 3.30416 2.51845)
(-0.343709 3.20371 2.62654)
(-1.13548 3.50018 2.59254)
(0.049626 3.65041 1.97148)
(-0.120959 3.37308 2.08301)
(0.0634291 3.42644 2.23756)
(-0.946269 3.55792 1.7496)
(-0.503286 3.56713 1.30058)
(-0.170478 3.39359 0.763266)
(-0.190484 3.52751 0.902288)
(-0.228514 3.82764 1.15505)
(-1.18926 3.12842 0.862425)
(-1.02811 3.26129 0.717068)
(-0.15474 3.59701 0.163598)
(-0.391355 3.60345 0.502574)
(-0.0423847 4.05578 0.274172)
(0.781854 3.77974 0.757746)
(-1.35646 2.55821 1.49603)
(-0.907397 2.44802 1.27784)
(-1.37251 1.9205 0.913351)
(-0.85862 2.58949 1.27356)
(-0.519877 2.5411 -0.461351)
(-1.17093 1.69436 -1.37022)
(-1.69264 0.846801 0.118876)
(-1.50322 2.66678 1.07161)
(-1.71212 2.13284 1.20957)
(-2.01541 1.39598 0.77271)
(-1.94244 0.743506 1.43797)
(-1.83057 0.0892617 1.01759)
(-1.41352 0.111105 -0.660158)
(-1.16046 0.316643 -0.494232)
(-1.28367 0.384415 0.0880934)
(-1.2885 2.25403 0.339106)
(-1.37798 1.30059 0.723125)
(-1.20378 0.11293 0.336583)
(-1.20999 -0.535823 -0.441067)
(-1.54108 -0.538199 -0.479157)
(-1.51187 -0.0665878 -0.836849)
(-1.25471 0.272788 -0.959297)
(-1.38766 0.418587 -0.21593)
(-0.907525 0.692694 -0.957713)
(-0.800136 0.590786 -0.80091)
(-1.02256 -0.0507558 -1.12928)
(-1.193 -0.218259 -0.653451)
(-1.1275 -0.742561 -1.47338)
(-1.70568 -0.758877 -0.846397)
(-1.64117 -0.335593 -1.006)
(-1.50722 0.215331 -1.19463)
(-1.2457 0.444493 -0.911715)
(-0.81811 0.739801 -0.957147)
(-0.61508 0.867415 -0.929345)
(-0.277478 -0.0737884 -1.39454)
(-0.406756 -0.531454 -1.68891)
(-0.9635 -1.02833 -1.65435)
(-0.954154 -1.15093 -2.20747)
(-1.67255 -0.892696 -1.37297)
(-1.63627 -0.25066 -1.30904)
(-1.23953 0.319622 -1.41642)
(-0.945444 0.437245 -1.29463)
(-0.711222 0.618783 -1.12496)
(-0.531495 0.636179 -1.31367)
(-0.181299 0.45905 -1.46153)
(-0.0360427 2.91809 2.50335)
(-0.411795 2.96843 2.4736)
(-0.0507429 3.12925 2.46077)
(-0.787412 3.02266 2.40326)
(-0.558626 3.06283 2.47335)
(-0.189537 3.19614 2.4628)
(-0.833295 3.41712 2.41432)
(-0.653524 3.41086 2.46536)
(-0.450805 3.2446 2.59701)
(-0.342175 3.11986 2.72816)
(-1.17301 3.57284 2.58169)
(-0.754332 3.7028 2.25808)
(-0.140722 3.53297 1.96247)
(-0.401389 3.38078 2.34085)
(-0.0507153 3.45709 2.31617)
(-1.16028 3.59876 1.96011)
(-0.761488 3.55376 1.6147)
(-0.38375 3.40145 0.843115)
(-0.481656 3.40377 1.01629)
(-0.334746 3.7658 0.993294)
(0.0810761 4.02389 0.781154)
(-1.32122 2.94349 1.09664)
(-1.1547 3.14991 0.777233)
(-0.727613 3.30369 0.269902)
(-0.491879 3.60545 0.411822)
(-0.0540086 3.93111 0.0353556)
(-0.919718 3.37246 1.23248)
(0.631745 2.64973 -0.380323)
(-1.27786 2.63853 1.5567)
(-1.22709 2.18487 1.37309)
(-1.61289 1.6569 0.913921)
(-1.39412 2.17403 1.05988)
(-0.801993 2.26272 -0.311042)
(-1.33134 1.65899 -0.683386)
(-1.40031 0.50562 -0.0403472)
(-0.95674 1.13108 -0.578771)
(-1.56944 2.40659 1.52371)
(-1.65217 2.12317 1.53516)
(-1.39049 1.53731 1.59532)
(-2.01538 0.639661 1.36411)
(-1.8177 0.143567 1.0372)
(-1.452 0.114316 -0.752046)
(-1.07658 0.301044 -0.664377)
(-1.26285 0.390485 -0.242145)
(-0.950493 0.760914 -0.723834)
(-1.50137 1.9655 0.729052)
(-1.52929 1.17983 0.824568)
(-1.3094 0.0890245 0.188266)
(-1.28842 -0.504823 -0.478826)
(-1.65356 -0.619209 -0.626874)
(-1.59509 -0.082094 -0.746235)
(-1.38418 0.200445 -0.870896)
(-1.53029 0.368232 -0.0899105)
(-0.925135 0.765948 -1.02596)
(-0.321836 1.01386 -0.906505)
(-0.874629 0.507237 -0.853847)
(-1.10245 -0.112525 -1.22159)
(-1.24189 -0.248392 -0.757729)
(-1.18978 -0.763377 -1.52486)
(-1.75242 -0.815004 -0.892438)
(-1.68047 -0.334562 -0.969132)
(-1.56848 0.196446 -1.21122)
(-1.22921 0.469206 -0.939109)
(-0.849786 0.726884 -0.985055)
(-0.627297 0.871081 -0.977945)
(-0.153462 0.69495 -1.3664)
(-0.28152 -0.0788108 -1.41972)
(-0.417718 -0.525763 -1.7182)
(-0.968384 -1.03523 -1.66115)
(-0.953492 -1.1502 -2.22467)
(-1.67391 -0.915209 -1.4133)
(-1.68419 -0.282553 -1.25769)
(-1.34255 0.281084 -1.33836)
(-0.955718 0.430614 -1.29101)
(-0.728375 0.603008 -1.14306)
(-0.550754 0.62777 -1.32529)
(-0.160488 0.468011 -1.48818)
(0.153578 0.398211 -1.65958)
(-0.191576 2.63053 2.65497)
(-0.340638 2.88312 2.51939)
(-0.132787 2.90534 2.46842)
(-0.706877 2.79899 2.47615)
(-0.342375 3.02639 2.44372)
(0.218837 3.19338 2.26259)
(-0.761842 3.0127 2.39093)
(-0.666655 2.99737 2.47197)
(-0.450514 2.98159 2.52939)
(-0.182173 3.11208 2.43756)
(-0.927647 3.26314 2.54649)
(-0.852239 3.46127 2.4275)
(-0.808419 3.2299 2.69698)
(-0.594324 3.24213 2.67297)
(-0.0702996 3.39074 2.46291)
(-1.29505 3.53389 2.59723)
(-1.02205 3.65774 2.33254)
(-0.480896 3.60374 2.03467)
(-0.541575 3.47847 2.18553)
(-0.351905 3.37551 2.19425)
(-0.151789 3.54673 2.25583)
(-1.5174 3.46266 2.2401)
(-1.10626 3.41385 1.87331)
(-0.6583 3.44367 1.22578)
(-0.568597 3.42283 1.0043)
(-0.412264 3.72916 0.943575)
(-0.652863 3.91209 1.47627)
(-0.298544 3.64616 1.54889)
(-1.5102 2.868 1.32106)
(-1.37587 2.89176 1.12344)
(-1.53482 2.67847 1.0777)
(-0.462 3.4903 0.243698)
(-0.793646 3.5442 0.227061)
(-0.999883 3.06489 1.43288)
(-0.247415 2.29416 0.617987)
(0.194171 2.27104 0.162612)
(-1.37526 2.58191 1.75918)
(-1.39405 2.09719 1.40196)
(-1.66402 1.57477 0.940183)
(-1.17221 2.18473 0.553791)
(-1.01717 2.12946 -0.354665)
(-1.3683 1.52522 -0.33309)
(-1.21338 0.306496 -0.472758)
(-1.20905 0.626227 -0.352522)
(-1.02973 0.929433 0.203889)
(-1.70643 2.37131 1.65717)
(-2.6705 1.19477 1.38815)
(-1.87387 1.39046 1.3285)
(-2.04407 0.576682 1.18012)
(-1.83285 0.161597 0.932345)
(-1.56176 0.0716959 -0.710279)
(-1.13207 0.253872 -0.535948)
(-1.44671 0.314732 -0.120727)
(-0.93962 0.772745 -0.782758)
(-0.670209 0.726957 -0.809597)
(-1.65315 1.83997 0.751304)
(-1.54979 1.26655 0.700884)
(-1.37655 0.0715187 0.0636501)
(-1.35916 -0.475854 -0.549601)
(-1.7395 -0.732493 -0.769135)
(-1.66454 -0.102318 -0.663306)
(-1.38062 0.115055 -0.935603)
(-1.50464 0.409121 -0.35915)
(-1.30081 0.670111 -0.864706)
(-0.317305 1.09997 -1.05668)
(0.465619 0.554146 -1.85107)
(-0.932039 0.407095 -0.916082)
(-1.20548 -0.283372 -1.26171)
(-1.29559 -0.274653 -0.831759)
(-1.24523 -0.801272 -1.61199)
(-1.77976 -0.848134 -0.945839)
(-1.72685 -0.354327 -0.932092)
(-1.62054 0.182252 -1.19317)
(-1.41902 0.368938 -0.738875)
(-0.832174 0.780229 -1.0132)
(-0.606071 0.867334 -1.03684)
(-0.148081 0.684603 -1.43273)
(0.472902 0.658084 -1.69392)
(-0.28647 -0.0836619 -1.44353)
(-0.421457 -0.497608 -1.76049)
(-0.982734 -1.03195 -1.66376)
(-0.952306 -1.14855 -2.23367)
(-1.68265 -0.930418 -1.46439)
(-1.68009 -0.268157 -1.29404)
(-1.35101 0.273344 -1.34213)
(-0.939804 0.455501 -1.29729)
(-0.743467 0.611618 -1.14977)
(-0.541568 0.655681 -1.3316)
(-0.126976 0.480913 -1.51701)
(0.179862 0.401412 -1.66599)
(0.463888 -0.156971 -1.99817)
(-0.199409 2.57554 2.55666)
(-0.243487 2.68041 2.64016)
(-0.0114357 2.67185 2.62144)
(-0.510698 2.78511 2.53621)
(-0.209715 2.90601 2.48387)
(0.0825342 2.91351 2.40361)
(-0.776265 2.7946 2.4571)
(-0.683185 2.92176 2.35688)
(-0.220083 2.94489 2.39545)
(-0.139015 2.92048 2.4487)
(-0.970862 2.99888 2.37922)
(-0.747976 3.05204 2.39619)
(-0.579476 2.99 2.49644)
(-0.448345 3.06685 2.39091)
(-0.0972623 3.05085 2.32155)
(-1.08779 3.34898 2.3136)
(-0.836763 3.43681 2.46108)
(-0.754931 3.42299 2.55134)
(-0.64375 3.30645 2.55172)
(-0.354509 3.36995 2.3566)
(-0.000614677 3.4263 2.42942)
(-1.40524 3.51066 2.63461)
(-1.1913 3.5556 2.48306)
(-1.01972 3.40614 2.49952)
(-0.494826 3.41153 2.35008)
(-0.511747 3.37153 2.11747)
(-0.571918 3.52311 2.32633)
(-0.0623842 3.49323 2.16232)
(-1.68011 3.39818 2.39118)
(-1.27479 3.31372 2.0383)
(-1.26075 3.10198 1.88776)
(-0.906118 3.1708 1.27502)
(-0.478347 3.68707 1.05622)
(-0.782378 3.67918 1.81314)
(-0.239545 3.68907 1.13235)
(-0.391443 3.45294 1.63423)
(-1.76536 2.85781 1.58772)
(-1.4105 2.85176 1.22764)
(-1.54582 2.64069 1.16631)
(-1.34495 2.81845 0.662046)
(-1.76151 2.83059 0.988289)
(-1.1345 2.71999 1.23365)
(-0.591553 2.20474 0.708198)
(-0.503725 1.95364 0.228748)
(-0.709375 2.28236 0.518045)
(-1.84618 2.18749 1.9988)
(-1.62197 1.86311 1.51203)
(-1.68718 1.54532 0.886804)
(-1.72357 1.5701 0.426274)
(-1.39359 2.02138 -0.355984)
(-1.35696 1.2822 -0.613765)
(-1.29945 0.191275 -0.19318)
(-1.32431 0.557229 -0.376762)
(-1.11803 0.890611 0.268081)
(-0.839943 1.15539 -0.0673171)
(-2.29867 1.828 1.73342)
(-1.34657 2.3293 1.80249)
(-2.04705 1.24055 1.24051)
(-2.08414 0.530297 1.12487)
(-1.83042 0.183024 0.989246)
(-1.68898 0.0409749 -0.586306)
(-1.16977 0.215579 -0.535586)
(-1.41326 0.31134 -0.592033)
(-0.996009 0.823697 -0.799484)
(-0.390506 0.825914 -1.01729)
(0.51623 1.1232 -0.501386)
(-1.57385 1.90875 0.676796)
(-1.54708 1.26198 0.704413)
(-1.43977 0.0854348 -0.0362493)
(-1.41463 -0.478188 -0.692426)
(-1.77625 -0.756875 -0.721079)
(-1.71697 -0.144328 -0.659165)
(-1.39952 0.080976 -0.905745)
(-1.50288 0.43676 -0.398399)
(-1.07191 0.912271 -0.982737)
(-0.079539 1.20748 -1.20778)
(0.553002 0.552852 -1.89294)
(0.974814 0.3727 -1.70306)
(-0.955896 0.333075 -0.936886)
(-1.23943 -0.287614 -1.35576)
(-1.33341 -0.309675 -0.888198)
(-1.32106 -0.836069 -1.63892)
(-1.76579 -0.885041 -1.11005)
(-1.79856 -0.423007 -0.897023)
(-1.61481 0.153017 -1.23214)
(-1.2461 0.50483 -0.94603)
(-0.757817 0.825486 -1.06981)
(-0.568713 0.852472 -1.09303)
(-0.117471 0.689218 -1.49327)
(0.561055 0.668599 -1.78205)
(0.64763 0.135177 -2.36931)
(-0.290461 -0.0880689 -1.46516)
(-0.418589 -0.485201 -1.80139)
(-0.990454 -1.04545 -1.65745)
(-0.940127 -1.1408 -2.24441)
(-1.68724 -0.945367 -1.52312)
(-1.6449 -0.24207 -1.37242)
(-1.34968 0.279892 -1.3523)
(-0.965818 0.43473 -1.26972)
(-0.709242 0.622014 -1.18104)
(-0.548275 0.633098 -1.35707)
(-0.0849245 0.499002 -1.5444)
(0.173157 0.39279 -1.68549)
(0.490405 -0.149631 -1.99416)
(0.319723 -0.842081 -1.99775)
(-0.202198 2.41571 2.50393)
(-0.279071 2.55613 2.54467)
(-0.0660215 2.55054 2.56964)
(-0.431414 2.62988 2.58747)
(-0.138657 2.66427 2.62838)
(-0.00505211 2.65953 2.59777)
(-0.714905 2.65377 2.58237)
(-0.44299 2.81431 2.51317)
(-0.0731272 2.91085 2.45601)
(0.0245146 2.79471 2.53986)
(-0.870047 2.74785 2.45216)
(-0.776539 2.78838 2.4533)
(-0.577462 2.7505 2.48827)
(-0.0907291 2.86541 2.39021)
(-0.0827081 2.78046 2.42005)
(-0.91285 3.03419 2.35536)
(-0.912097 2.9934 2.41817)
(-0.664829 2.96307 2.55028)
(-0.507208 3.07136 2.31968)
(-0.0940896 3.10677 2.26097)
(-0.0640893 3.03793 2.38662)
(-0.959548 3.24412 2.41461)
(-1.01178 3.39294 2.43473)
(-0.973935 3.30246 2.67022)
(-0.745626 3.26202 2.53103)
(-0.565799 3.30112 2.28742)
(-0.379515 3.3423 2.445)
(0.179659 3.32129 2.2466)
(-1.56614 3.31362 2.64)
(-1.45943 3.42972 2.59246)
(-1.18781 3.55353 2.47968)
(-0.686125 3.64262 1.95676)
(-0.697309 3.42382 2.14048)
(-0.267097 3.57141 2.14139)
(-0.270151 3.28079 2.1829)
(-0.17438 3.04701 2.56519)
(-1.87946 3.29047 2.50419)
(-1.57889 3.1464 2.20994)
(-1.49179 2.88326 2.12929)
(-1.08143 3.01742 1.47987)
(-1.16193 3.2513 1.5998)
(-0.586911 3.60319 1.36301)
(-0.425104 3.54251 1.16427)
(-0.475478 3.44407 1.33312)
(-0.118546 2.80373 1.61033)
(-2.17432 2.51255 2.0769)
(-1.58383 2.64958 1.53913)
(-1.51403 2.58307 1.3039)
(-1.61223 2.67867 0.790158)
(-1.86649 2.71313 0.951702)
(-1.33117 2.30829 1.13859)
(-1.01237 1.89149 0.940742)
(-1.02027 1.61226 0.337174)
(-0.924788 1.88046 0.578871)
(-0.739678 1.59727 1.44599)
(-2.11873 2.13156 2.1213)
(-1.7078 1.72729 1.64678)
(-1.78456 1.38783 0.864194)
(-1.8749 1.44845 0.416762)
(-1.64534 1.82613 -0.00950126)
(-1.40586 1.1351 -0.199125)
(-1.29888 0.0852746 -0.268923)
(-1.51533 0.312836 -0.435636)
(-1.21285 0.892805 0.181613)
(-0.82844 1.22171 -0.312244)
(0.313189 1.33259 -0.704482)
(-2.3253 1.81894 1.67704)
(-2.17615 1.67302 1.70795)
(-2.01808 1.21164 1.24134)
(-2.12866 0.576605 1.03337)
(-1.97657 0.0571515 0.626136)
(-1.73596 0.0243867 -0.5542)
(-1.29756 0.163459 -0.331458)
(-1.27068 0.456744 -0.796968)
(-0.93109 0.95818 -0.923323)
(-0.0251879 0.95845 -1.37534)
(0.761389 1.07073 -1.09071)
(1.22056 1.0109 -0.838219)
(-1.66632 1.82268 0.615416)
(-1.56003 1.20651 0.665512)
(-1.48887 0.0965756 -0.118924)
(-1.51019 -0.507674 -0.731775)
(-1.80327 -0.783828 -0.766184)
(-1.76879 -0.163878 -0.667541)
(-1.43767 0.0509147 -0.868152)
(-1.39086 0.467991 -0.649726)
(-0.94316 0.964844 -1.05914)
(-0.0953492 1.18333 -1.21189)
(0.707901 0.520287 -1.7726)
(0.87877 0.346498 -1.90284)
(0.894626 0.0155632 -1.83193)
(-0.958367 0.27194 -0.951671)
(-1.3048 -0.460664 -1.32132)
(-1.36646 -0.350673 -0.937141)
(-1.34361 -0.84497 -1.67478)
(-1.80408 -0.919117 -1.22452)
(-1.81894 -0.424357 -0.977672)
(-1.6736 0.203715 -1.15439)
(-1.21852 0.52477 -0.981916)
(-0.702623 0.848433 -1.1124)
(-0.553513 0.840782 -1.13082)
(-0.0039351 0.698372 -1.53751)
(0.69974 0.704507 -1.80944)
(0.502515 0.0934248 -2.3733)
(0.432095 -0.389692 -2.05283)
(-0.297101 -0.0968698 -1.48246)
(-0.415371 -0.467668 -1.83412)
(-0.99168 -1.06952 -1.64459)
(-0.941566 -1.12398 -2.23667)
(-1.66685 -0.947203 -1.59889)
(-1.7312 -0.330866 -1.26009)
(-1.38331 0.287999 -1.33383)
(-0.975902 0.416818 -1.24618)
(-0.714979 0.620607 -1.19191)
(-0.550147 0.652193 -1.37113)
(-0.0391543 0.521183 -1.56826)
(0.133983 0.367747 -1.71565)
(0.500346 -0.141323 -1.99171)
(0.308465 -0.867514 -2.00194)
(0.515565 -1.05681 -1.81536)
(-0.27795 2.33101 2.50161)
(-0.249437 2.43581 2.52309)
(-0.0445273 2.39926 2.53783)
(-0.456026 2.55141 2.53572)
(-0.197409 2.5169 2.59638)
(0.0762981 2.50314 2.64487)
(-0.626883 2.55875 2.60299)
(-0.486857 2.64404 2.56552)
(-0.203043 2.66942 2.55619)
(-0.0363359 2.57874 2.54685)
(-0.777107 2.64601 2.60137)
(-0.553577 2.75747 2.53298)
(-0.296101 2.84827 2.49455)
(-0.206623 2.76891 2.55254)
(0.0825123 2.70854 2.52701)
(-0.916072 2.73144 2.44445)
(-0.799597 2.74899 2.47397)
(-0.712551 2.71963 2.49527)
(-0.418922 2.77913 2.34269)
(-0.177787 2.75571 2.38937)
(-0.0965971 2.74826 2.34619)
(-1.21367 2.9143 2.32151)
(-0.939493 3.02467 2.35991)
(-0.803479 3.02831 2.43888)
(-0.630604 2.93427 2.47214)
(-0.388553 3.01258 2.38958)
(-0.00351767 3.02253 2.35329)
(0.131311 2.83098 2.44407)
(-1.51986 3.01795 2.34458)
(-1.08725 3.26518 2.50645)
(-0.950117 3.35819 2.53654)
(-0.718198 3.48344 2.26748)
(-0.69181 3.25525 2.40791)
(-0.322366 3.31532 2.32166)
(0.242136 3.26484 2.14126)
(0.173616 2.97591 2.41897)
(-1.96257 3.03553 2.62461)
(-1.40405 3.3877 2.6275)
(-1.08716 3.47837 2.57001)
(-1.31143 3.1449 2.31902)
(-1.08151 3.41792 2.17417)
(-1.22713 3.22251 2.12237)
(-0.322205 3.34195 2.12279)
(0.423111 3.26758 1.75471)
(0.13676 3.10342 1.904)
(-2.15383 3.16226 2.55366)
(-1.80421 2.94054 2.41842)
(-1.64246 2.67955 2.22055)
(-1.39233 2.88526 1.67465)
(-1.25899 3.12187 1.70085)
(-0.76636 3.36233 1.12689)
(-0.865701 3.37869 1.02339)
(-0.601267 3.02791 1.36503)
(-0.309364 2.40569 1.72774)
(0.185198 2.20373 1.87875)
(-2.40311 2.25683 2.3834)
(-1.84654 2.36233 1.93825)
(-1.51995 2.53485 1.42548)
(-1.77747 2.51311 0.809369)
(-1.82189 2.44138 1.01891)
(-1.73921 1.84838 1.35032)
(-1.17727 1.68736 0.556339)
(-0.987707 1.42453 0.520039)
(-1.06006 1.7959 0.702561)
(-0.255977 1.57269 -0.00251103)
(0.490144 1.49462 -0.0302855)
(-2.36098 1.91904 2.26223)
(-1.72261 1.86533 1.90035)
(-1.79024 1.24517 0.890248)
(-1.99191 1.23319 0.451347)
(-1.67652 1.56983 -0.0819195)
(-1.4443 1.07358 0.161346)
(-1.30865 -0.00106309 -0.387428)
(-1.38466 0.269092 -0.585676)
(-1.26991 0.846332 -0.0190805)
(-0.632879 1.23295 -0.470809)
(0.626952 1.57275 -0.117099)
(1.61472 1.02912 -0.646374)
(-2.53478 1.49143 1.86214)
(-2.40586 1.45265 1.66633)
(-2.0885 1.21437 1.20695)
(-2.14076 0.553131 0.926754)
(-2.15261 -0.108205 0.570809)
(-1.73354 0.0277292 -0.535681)
(-1.4617 0.118021 -0.185301)
(-1.14536 0.501027 -1.01771)
(-0.821599 1.09378 -1.14486)
(0.17375 1.16687 -1.68736)
(0.80151 1.09205 -1.48443)
(1.30642 0.915325 -0.770726)
(1.17841 0.0870533 -1.18984)
(-1.75978 1.66346 0.648635)
(-1.68979 1.14506 0.70887)
(-1.54416 0.0559301 -0.172872)
(-1.53702 -0.523303 -0.783402)
(-1.79181 -0.815417 -0.847126)
(-1.70812 -0.135997 -0.862984)
(-1.40508 0.0606435 -0.968273)
(-1.33571 0.505397 -0.801587)
(-0.852073 1.04312 -1.08798)
(-0.0557372 1.13153 -1.20776)
(0.778341 0.579471 -1.7023)
(0.827431 0.245764 -2.02726)
(0.879688 -0.0781278 -1.79986)
(0.765351 -0.779708 -1.47144)
(-0.955721 0.201864 -0.982499)
(-1.36585 -0.552829 -1.26374)
(-1.41031 -0.398211 -0.946845)
(-1.35135 -0.828749 -1.68389)
(-1.83595 -0.994694 -1.24018)
(-1.81481 -0.44303 -1.05541)
(-1.58117 0.246633 -1.26991)
(-1.1799 0.538619 -1.03191)
(-0.667716 0.882904 -1.12299)
(-0.519994 0.833261 -1.1837)
(0.155932 0.728542 -1.56943)
(0.928585 0.777107 -1.71852)
(0.393157 0.0491866 -2.37531)
(0.403441 -0.431432 -2.04296)
(0.369334 -0.933305 -1.99846)
(-0.304582 -0.108584 -1.49798)
(-0.442971 -0.475179 -1.8226)
(-0.993492 -1.08459 -1.63829)
(-0.940632 -1.12155 -2.21703)
(-1.63533 -0.916844 -1.67973)
(-1.72501 -0.306342 -1.29993)
(-1.39109 0.278826 -1.32356)
(-0.986017 0.431521 -1.22615)
(-0.722979 0.611984 -1.20881)
(-0.50328 0.676431 -1.39824)
(0.0118687 0.54172 -1.58917)
(0.0825414 0.327307 -1.74944)
(0.503708 -0.133417 -1.99135)
(0.318891 -0.863035 -1.9994)
(0.516079 -1.04767 -1.81181)
(0.646304 -1.43001 -1.80732)
(-0.360502 2.28598 2.43363)
(-0.414812 2.36768 2.52772)
(-0.150212 2.29323 2.56765)
(-0.601055 2.45455 2.48469)
(-0.291285 2.45422 2.49539)
(-0.00613637 2.4207 2.51654)
(-0.71388 2.58702 2.47707)
(-0.411858 2.51288 2.59391)
(-0.0426068 2.5946 2.5842)
(0.0419639 2.57546 2.51964)
(-0.897291 2.52161 2.54516)
(-0.58101 2.63343 2.53841)
(-0.358262 2.65335 2.51614)
(-0.104248 2.56408 2.56358)
(0.0505565 2.54269 2.49411)
(-1.09278 2.57809 2.55565)
(-0.652242 2.71648 2.54595)
(-0.534598 2.74665 2.51955)
(-0.34764 2.72618 2.48211)
(-0.130353 2.6591 2.53111)
(0.143472 2.63387 2.48232)
(-1.10731 2.74713 2.49515)
(-0.81858 2.72823 2.48725)
(-0.725084 2.73592 2.42358)
(-0.557539 2.74625 2.35256)
(-0.287567 2.83231 2.3107)
(-0.049964 2.81215 2.28914)
(0.300631 2.75251 2.26613)
(-1.47395 2.8293 2.30872)
(-1.06517 2.96284 2.3843)
(-0.792979 3.0436 2.38314)
(-0.6153 3.09933 2.27968)
(-0.474993 2.96209 2.43597)
(-0.10829 2.94419 2.25486)
(0.144713 2.91544 2.23241)
(0.392549 2.85005 2.23639)
(-1.79945 2.85851 2.30122)
(-1.41297 3.05658 2.50219)
(-1.04408 3.27955 2.4589)
(-0.658186 3.48719 2.26266)
(-0.869331 3.31418 2.36605)
(-0.25466 3.41619 1.92885)
(0.115454 3.27912 1.983)
(0.188747 2.93002 2.15175)
(0.442307 2.90638 2.19053)
(-2.16034 2.89673 2.65338)
(-1.71816 3.06275 2.75686)
(-1.62758 2.95996 2.79459)
(-1.38498 2.81841 2.76125)
(-0.893302 3.3299 2.25931)
(-0.424431 3.27497 1.96862)
(0.133994 3.23507 2.3424)
(0.051161 3.04567 1.80869)
(0.0640816 2.85547 1.98149)
(0.362089 2.57216 2.26835)
(-2.33364 2.94581 2.60745)
(-1.97252 2.85947 2.52211)
(-1.71442 2.66841 2.19456)
(-1.7029 2.78466 1.80207)
(-0.97013 3.28203 1.14314)
(-0.691681 3.31494 0.371025)
(-0.780934 2.95275 1.39452)
(-0.816611 2.46903 1.26447)
(-0.391293 2.09965 1.63554)
(0.127629 2.17266 1.67877)
(0.502569 2.13467 1.34194)
(-2.3539 2.28064 2.41739)
(-2.07095 2.237 2.15438)
(-1.61155 2.39849 1.65601)
(-1.71883 2.31019 1.11401)
(-1.87852 1.98559 1.04781)
(-1.74923 1.82547 1.32821)
(-1.0667 1.60081 0.32244)
(-1.08083 1.25227 0.290056)
(-0.879081 1.7099 0.0786112)
(-0.067809 1.83837 -0.141852)
(0.894543 1.51212 -1.17944)
(1.42567 1.79619 0.539416)
(-2.53717 1.76168 2.22219)
(-2.2554 1.6655 1.69554)
(-1.75161 1.30068 0.695105)
(-2.02251 1.06116 0.335927)
(-1.58315 1.60683 -0.295776)
(-1.49197 0.840278 0.0534123)
(-1.38438 -0.0477532 -0.397054)
(-1.24787 0.270017 -0.777566)
(-1.0992 0.924251 -0.19003)
(-0.291302 1.29878 -0.620195)
(0.972506 1.59852 -0.046154)
(1.46875 0.92779 -0.916748)
(1.43697 0.643158 0.13786)
(-2.58301 1.78655 1.56563)
(-2.58025 1.25566 1.65065)
(-2.22396 1.10339 1.12086)
(-2.12474 0.516461 0.905124)
(-2.12594 -0.0963219 1.05506)
(-1.60295 0.102116 -0.729867)
(-1.4037 0.245867 -0.555405)
(-1.13809 0.706254 -1.09405)
(-0.715012 1.24587 -1.40314)
(0.343795 1.32904 -1.78396)
(0.706587 0.828733 -1.85346)
(1.32248 0.835722 -0.833763)
(0.946157 -0.0340582 -1.13372)
(0.425012 -0.232762 -0.181975)
(-1.73936 1.62996 0.560389)
(-1.8112 1.08474 0.621307)
(-1.61453 0.0365788 -0.20348)
(-1.5322 -0.515633 -0.795054)
(-1.7856 -0.80387 -0.85274)
(-1.67387 -0.115562 -0.98024)
(-1.36803 0.082229 -1.0715)
(-1.25689 0.539629 -0.940663)
(-0.84025 1.08092 -1.13287)
(-0.0106247 1.13922 -1.20857)
(0.624723 0.511788 -1.92224)
(0.758935 0.211179 -2.06625)
(0.806804 -0.10704 -1.78823)
(0.643916 -0.748399 -1.46387)
(0.329955 -0.883032 -1.8848)
(-0.952531 0.0850421 -1.02244)
(-1.35113 -0.606044 -1.24817)
(-1.44142 -0.45773 -0.960317)
(-1.37363 -0.86956 -1.60164)
(-1.82847 -1.01824 -1.22262)
(-1.79071 -0.455618 -1.16483)
(-1.68987 0.19534 -1.11999)
(-1.09267 0.611729 -1.09306)
(-0.673455 0.885086 -1.13181)
(-0.449757 0.838736 -1.27235)
(0.274984 0.766943 -1.64007)
(1.14418 0.893965 -1.60765)
(0.32518 0.0195247 -2.36201)
(0.365005 -0.474746 -2.03838)
(0.338592 -0.924237 -2.0184)
(0.674266 -1.73494 -2.0606)
(-0.312198 -0.12054 -1.51356)
(-0.467649 -0.499828 -1.80907)
(-0.988687 -1.09715 -1.63321)
(-0.926324 -1.11621 -2.20778)
(-1.63619 -0.955007 -1.6736)
(-1.7052 -0.254215 -1.3583)
(-1.40133 0.267989 -1.30757)
(-0.958636 0.461324 -1.23643)
(-0.723694 0.617632 -1.22276)
(-0.510067 0.681053 -1.42108)
(0.0456861 0.559009 -1.61171)
(0.0445262 0.285242 -1.77952)
(0.501407 -0.123763 -1.99463)
(0.321022 -0.853879 -1.9962)
(0.538461 -1.04988 -1.81114)
(0.609021 -1.43396 -1.82462)
(0.659836 -2.02329 -1.97813)
(-0.274088 2.25281 2.31873)
(-0.394661 2.28166 2.41015)
(-0.255779 2.30657 2.36419)
(-0.519763 2.38027 2.49974)
(-0.296421 2.36431 2.54511)
(-0.0343523 2.33022 2.55287)
(-0.710739 2.45022 2.43581)
(-0.41966 2.41877 2.4852)
(-0.0660044 2.42848 2.50342)
(0.10259 2.38992 2.52321)
(-0.906412 2.48387 2.45488)
(-0.292076 2.54979 2.56136)
(-0.407739 2.53652 2.5099)
(-0.111474 2.51749 2.52202)
(0.0872942 2.41448 2.46956)
(-1.04455 2.49197 2.51781)
(-0.69381 2.54813 2.52869)
(-0.484087 2.60289 2.53319)
(-0.367112 2.54139 2.56439)
(0.042922 2.55773 2.47346)
(0.200616 2.48704 2.45449)
(-1.23083 2.58291 2.56883)
(-0.874137 2.66683 2.54583)
(-0.635217 2.6687 2.52863)
(-0.334027 2.68728 2.44006)
(-0.258954 2.56926 2.52787)
(0.0700719 2.61541 2.44208)
(0.209295 2.65279 2.37723)
(-1.30808 2.69241 2.533)
(-0.975191 2.69457 2.54528)
(-0.754876 2.71398 2.41973)
(-0.567124 2.73257 2.36006)
(-0.244814 2.84477 2.28494)
(-0.0855073 2.83848 2.2879)
(0.258211 2.78161 2.28523)
(0.550737 2.69524 2.14368)
(-1.67455 2.65054 2.34508)
(-1.32536 2.86733 2.39255)
(-1.03391 2.9563 2.41153)
(-0.749239 3.0001 2.35146)
(-0.552694 2.90272 2.46778)
(-0.14031 2.89368 2.26497)
(0.272334 2.92613 2.27027)
(0.379458 2.79496 2.33671)
(0.557423 2.73269 2.16048)
(-2.02279 2.58745 2.30545)
(-1.65014 3.0082 2.32462)
(-1.59873 2.89128 2.54717)
(-1.06937 3.19607 2.43136)
(-0.689655 3.24428 2.45418)
(-0.162826 3.29909 1.9607)
(0.100489 3.05557 2.23957)