/*--------------------------------*- C++ -*----------------------------------*\
  =========                 |
  \\      /  F ield         | OpenFOAM: The Open Source CFD Toolbox
   \\    /   O peration     | Website:  https://openfoam.org
    \\  /    A nd           | Version:  7
     \\/     M anipulation  |
\*---------------------------------------------------------------------------*/
FoamFile
{
    version     2.0;
    format      ascii;
    class       volScalarField;
    location    "9";
    object      nut;
}
// * * * * * * * * * * * * * * * * * * * * * * * * * * * * * * * * * * * * * //

dimensions      [0 2 -1 0 0 0 0];

internalField   nonuniform List<scalar> 
18750
(
0.000855677
0.0011723
0.000697028
0.000955728
0.00213308
0.00245993
0.00105404
0.000293786
0.000608941
0.000927578
0.00220859
0.00104783
0.00157528
0.00107228
0.00250918
0.00104993
0.000193684
0.000153634
0.00061047
0.000734095
0.00217019
0.00107692
0.00218609
0.00087678
0.00249097
0.00139964
0.000364128
0.000862322
0.00170615
0.00108811
0.000246524
0.000191536
0.000227349
0.000663803
0.000436357
0.00232372
0.00127026
0.00211291
0.000557292
0.0017313
0.00212241
0.000646247
0.000401825
0.000892384
0.0014006
0.000500365
0.000398097
0.000743863
0.00173481
0.00110584
0.000243615
0.000231304
0.000189652
0.000111136
0.000698775
0.000604206
0.00270066
0.000532406
0.0023423
0.000341869
0.00115093
0.00231716
0.000377147
0.000873273
0.00203149
0.00192082
0.000510649
0.000674949
0.00131032
0.00352616
0.0013997
0.000747798
0.000473451
0.000523963
0.000692136
0.00112206
0.0011923
0.000428225
0.000204538
0.000183801
0.000198935
0.000131505
0.000651214
0.000813231
0.00266661
0.000805232
0.00294614
0.00112396
0.00132414
0.00222331
0.000839395
0.000831965
0.000519122
0.00266499
0.000581661
0.000767937
0.000826952
0.000798654
0.00207952
0.000795799
0.000699601
0.000704038
0.00137446
0.00136585
0.00124801
0.00128575
0.00080805
0.000509793
0.000567165
0.000649144
0.000324217
0.00120516
0.000361073
0.000451533
0.0001818
0.000138704
0.000179642
0.000105196
0.000542186
0.000885017
0.00255849
0.000895865
0.00269237
0.000785844
0.00101298
0.00284394
0.000661216
0.000910978
0.00136956
0.00257906
0.000489198
0.000446766
0.000740582
0.00104195
0.00270006
0.000474392
0.00103893
0.000923856
0.000710768
0.00119962
0.0019715
0.000659216
0.000801332
0.00101776
0.00102823
0.00132682
0.0018208
0.00106965
0.000536117
0.00124598
0.000715765
0.000332302
0.000574888
0.000711408
0.000891131
0.00102136
0.00015515
0.00036421
0.000476242
0.000160098
0.000120608
0.000162591
0.000208808
0.000416133
0.000874909
0.00266051
0.00086554
0.00242738
0.000869915
0.000961819
0.00254505
0.000349713
0.00066714
0.000681745
0.00291298
0.00088299
0.00122237
0.000758033
0.00190313
0.00239506
0.000436751
0.00100009
0.000846742
0.00187798
0.00141465
0.0033047
0.000507013
0.000390623
0.000767981
0.000861397
0.000550727
0.000662702
0.00189079
0.000423323
0.000338714
0.000648892
0.000701395
0.000934684
0.000941898
0.00162562
0.000845754
0.00109556
0.000506166
0.000897783
0.000741403
0.000565119
0.000593437
0.00069801
0.000922716
0.000845224
0.000179665
0.000188907
0.000366697
0.000486332
0.000169309
9.73159e-05
0.000178391
0.000363391
0.00025367
0.00080543
0.00272
0.000708304
0.00248621
0.000555748
0.00106181
0.00248062
0.000732065
0.00101414
0.000863877
0.00252221
0.00116439
0.00066085
0.000787651
0.000867129
0.00267629
0.000622262
0.000761798
0.000398481
0.000811273
0.00140924
0.00230776
0.000759519
0.00102115
0.000897203
0.00123401
0.00201325
0.0023493
0.00417381
0.000214815
0.00077612
0.000351783
0.00131884
0.000478767
0.000301952
0.00119066
0.00178096
0.000849325
0.000487266
0.000494576
0.000376547
0.00197221
0.00132301
0.000732951
0.00148468
0.000827297
0.000651446
0.00091706
0.000512625
0.000506097
0.000587071
0.000392871
0.000556371
0.000704227
0.000765345
0.000651881
4.10379e-05
0.000189904
0.000232877
0.000360037
0.000482729
0.000193067
9.06813e-05
0.000121909
0.000281075
0.000223894
0.000706473
0.000504623
0.00269527
0.000455006
0.000887365
0.00255414
0.000592777
0.000864702
0.000988362
0.00230516
0.000346413
0.000793104
0.000511706
0.000950859
0.0025238
0.00127381
0.000622171
0.000544741
0.00117667
0.00130287
0.00281967
0.000977546
0.000546568
0.000856414
0.00110792
0.00115265
0.00110764
0.0022585
0.00060522
0.000689358
0.000605201
0.000530549
0.00144709
0.000861155
0.00251861
0.00352652
0.000777532
0.000676338
0.000272498
0.00053314
0.000302841
0.000574985
0.000602997
0.000958961
0.00190754
0.000515476
0.000649774
0.000504422
0.000376791
0.000495683
0.00115434
0.00075021
0.000583519
0.00156567
0.00069985
0.000743829
0.000878662
0.000783566
0.000579765
0.000644425
0.000434198
0.000191684
0.000530001
0.000717903
0.000734581
0.000552855
0.000311912
0.000122634
0.000189259
0.000240476
0.000343061
0.000467018
0.000219986
0.000135841
0.000113627
0.000251395
0.000309672
0.000605065
0.00245455
0.000529406
0.000823886
0.0025945
0.000804975
0.000644694
0.000642391
0.00255887
0.000630939
0.00104955
0.000610563
0.0010716
0.00250371
0.000965383
0.000674343
0.000755198
0.000582459
0.000882987
0.00226017
0.00166722
0.000225291
0.000391496
0.000585489
0.000935947
0.000988975
0.00272728
0.000568917
0.000346107
0.00063915
0.000443941
0.000814468
0.000920586
0.000718921
0.00245897
0.000520912
0.00041215
0.000650249
0.00078639
0.000763525
0.00111681
0.000589845
0.00168564
0.00276337
0.000709768
0.000433378
0.00025619
0.000814962
0.000664343
0.000726794
0.000550106
0.000585699
0.00082741
0.00308413
0.000874888
0.000499871
0.000358728
0.000411261
0.000388115
0.000496405
0.00195522
0.000573798
0.000401386
0.00132019
0.000949541
0.000741779
0.000803868
0.00081397
0.00089473
0.000695435
0.000832982
0.000551444
0.00032783
0.000546381
0.000668359
0.00070981
0.000383832
0.000377421
0.000315913
0.000143733
0.000204123
0.000276474
0.00032532
0.000450463
0.000242422
0.000175131
0.000123822
0.000252102
0.0002343
0.000512723
0.00235296
0.00086134
0.00233477
0.000498849
0.000501421
0.000902458
0.00248801
0.00050264
0.000358382
0.000686769
0.000488809
0.00242332
0.00084131
0.000630203
0.000834017
0.000682182
0.000896099
0.0025062
0.000544419
0.000335073
0.000586252
0.000738107
0.000709043
0.00116605
0.002317
0.000376854
0.000455594
0.000863956
0.000336586
0.00073357
0.000339448
0.000961405
0.00261751
0.000284976
0.00131526
0.00116208
0.000886868
0.000737963
0.000656722
0.00127743
0.00063163
0.00260158
0.00108291
0.00081307
0.000255143
0.00108902
0.00062424
0.00121824
0.000399498
0.000464127
0.00138407
0.00278802
0.000574738
0.000425324
0.000694682
0.000273375
0.000371671
0.000530632
0.000571813
0.000252335
0.000573105
0.00179384
0.00239566
0.00107029
0.00124751
0.000538726
0.000426006
0.000315409
0.00029666
0.000562845
0.000718951
0.000728967
0.000400977
0.00160542
0.00175844
0.00146436
0.00120292
0.00107726
0.000720116
0.000973008
0.000674207
0.000734362
0.000728638
0.000234428
0.000520401
0.000573288
0.000594825
0.000203928
0.000282112
0.000402093
0.000141123
0.00042682
0.000211058
0.000301424
0.000302909
0.000427745
0.000261062
0.000170221
0.000106679
0.000273544
0.000207203
0.000397143
0.00227968
0.000874558
0.00233333
0.00056976
0.000853774
0.00233822
0.000532455
0.000502852
0.000626195
0.000915593
0.00237328
0.000297042
0.000389097
0.00071327
0.000658949
0.000855995
0.0025186
0.000635696
0.000717965
0.00079441
0.000498741
0.000773743
0.000757146
0.0026273
0.00111284
0.00163363
0.00068844
0.000400626
0.000377413
0.000618654
0.000985738
0.00219258
0.00056806
0.00130463
0.00110456
0.00013833
0.000400185
0.000596459
0.000643359
0.00114593
0.00284951
0.000345217
0.00132184
0.000379053
0.00112326
0.00077838
0.000537593
0.00113948
0.0011847
0.000575733
0.00306177
0.00100458
0.000401531
0.000505383
0.000379379
0.000289774
0.00111744
0.00066402
0.00103786
0.000870373
0.0016905
0.00311289
0.0007203
0.000484857
0.000518576
0.000259533
0.000441772
0.000624123
0.000548053
0.000384458
0.000773732
0.000634944
0.0017899
0.00266012
0.000827084
0.000860286
0.000941559
0.000585614
0.000481383
0.000273247
0.000279129
0.000499487
0.000908223
0.000717945
0.000540916
0.00170251
0.00186529
0.000611624
0.00160739
0.00154002
0.00121863
0.000994239
0.000737749
0.000572451
0.000539381
0.000621612
0.00026202
0.000429985
0.000502707
0.000549444
0.00037228
6.47966e-05
0.000323552
0.000418216
7.69758e-05
0.000438082
0.000237501
0.00027782
0.000284912
0.000407927
0.000274634
0.000193649
0.000118076
0.000328714
0.000200518
0.000236748
0.000628051
0.00219235
0.000679246
0.00094948
0.00230177
0.00047404
0.000387016
0.000792016
0.00224979
0.000646048
0.000336897
0.00044588
0.000679539
0.000984025
0.00257785
0.000553333
0.00064993
0.000691884
0.00070096
0.000533201
0.000830461
0.00242355
0.000529938
0.000800743
0.000570035
0.000529601
0.000584909
0.000576951
0.000877547
0.0027566
0.000941705
0.000100046
0.000293429
0.0004304
0.000521294
0.00051435
0.000589758
0.000962569
0.00217402
0.000315814
0.000627755
0.000697681
0.000718082
0.000706062
0.000873347
0.000760467
0.000967144
0.000963361
0.00277103
0.000748181
0.00130391
0.000381142
0.00106545
0.00127987
0.000366829
0.000681787
0.00142103
0.000765163
0.00094363
0.00296583
0.000591694
0.000400854
0.000632723
0.000451219
0.000929914
0.000748453
0.000839877
0.000779163
0.000648127
0.00104099
0.00203652
0.00375796
0.00111219
0.000547765
0.000616041
0.000333936
0.000299471
0.000324508
0.000390437
0.000269021
0.000486773
0.000276764
0.00094768
0.000626723
0.00250437
0.00111652
0.00150637
0.000874446
0.00057319
0.000476252
0.000387461
0.000350264
0.000404153
0.000401087
0.00108185
0.000623188
0.000435762
0.00168321
0.0013566
0.000535332
0.00051781
0.00172089
0.00140359
0.00115467
0.000958684
0.000700897
0.000560237
0.000441005
0.000429765
0.000383917
0.000388646
0.000479868
0.000353102
0.000560773
0.000172227
0.000154412
0.000330521
0.000395173
0.000282803
0.000215491
0.000261398
0.000292871
0.00027726
0.000388706
0.000272848
0.000203123
0.000107141
0.000283829
0.000211054
0.000187629
0.00222964
0.000494131
0.000825326
0.00209571
0.000644365
0.000639097
0.000702959
0.00223228
0.000762311
0.000429186
0.000431606
0.000868479
0.002155
0.000808723
0.000595535
0.000393175
0.000493755
0.00055777
0.000725418
0.00240277
0.000507983
0.000451147
0.000619485
0.000714357
0.000805428
0.000352516
0.000650709
0.00266942
0.000505167
0.000621795
0.000741402
0.000638098
0.000650563
0.000462715
0.000570021
0.000818017
0.00267325
0.00121887
0.000364412
0.00110862
0.000648018
0.000541456
0.00045111
0.000724168
0.000620713
0.000649272
0.00220172
0.000306532
0.000663128
0.000749065
0.000957694
0.000538808
0.000462308
0.000581128
0.000620671
0.000752102
0.000747409
0.00287572
0.000643861
0.000552718
0.000194618
0.000734902
0.000427035
0.000425201
0.000907249
0.0014151
0.00104973
0.00074473
0.00172222
0.00328836
0.000622016
0.000765073
0.000706697
0.000262366
0.000743242
0.000323599
0.000382443
0.000620736
0.000782823
0.000697473
0.000577613
0.0018867
0.00324964
0.00114478
0.000663559
0.000676043
0.000616259
0.000431914
0.000405323
0.000247533
0.00027578
0.000590992
0.000532582
0.000293038
0.00100407
0.00133418
0.00224351
0.000966859
0.00193553
0.00100144
0.000959299
0.000598516
0.000338761
0.000365348
0.000359818
0.000163388
0.00056128
0.000754484
0.000727686
0.000565009
0.00169612
0.000761451
0.000925964
0.000490577
0.000221051
0.00102397
0.00167282
0.00111858
0.000288447
0.000625019
0.000430547
0.000334232
0.000313658
0.000300541
0.000323698
0.000500538
0.000203984
0.000644375
9.15631e-05
0.000120326
9.0523e-05
0.000174056
0.000379148
0.000498282
0.000229234
0.000264503
0.000296182
0.000268434
0.000370808
0.000268262
0.00022609
0.000129762
0.00023582
0.000209834
0.000133036
0.0021339
0.000421729
0.00221985
0.000415302
0.000673819
0.000574946
0.00201439
0.000389899
0.00060931
0.000734899
0.000868531
0.00215435
0.000443758
0.000597503
0.000359349
0.000279
0.000648864
0.00210308
0.00067216
0.000517389
0.00065537
0.000733309
0.000721896
0.000274583
0.000793205
0.0022719
0.000512611
0.000502073
0.000735391
0.000687821
0.000646321
0.000527871
0.00033464
0.00042874
0.00242322
0.000728277
0.000595189
0.000506374
0.000292222
0.000595531
0.000633702
0.000406738
0.000698685
0.000928841
0.00257149
0.000789715
0.000256555
0.000989807
0.000591796
0.000557786
0.000469462
0.000608433
0.000487716
0.000616833
0.000574203
0.00244866
0.000995677
0.000985876
0.00103261
0.000497687
0.000819284
0.000357868
0.000293343
0.000502781
0.000817491
0.0006928
0.00117983
0.00247333
0.00057508
0.000344615
0.000316145
0.000494932
0.000682145
0.001034
0.000769534
0.00117764
0.0017525
0.000674879
0.000675905
0.00103387
0.00293766
0.000850961
0.000716981
0.000772819
0.000583428
0.000237999
0.000443054
0.0006528
0.000332469
0.00103123
0.00103231
0.00105351
0.000987664
0.0016524
0.0033937
0.000990242
0.000612532
0.000613218
0.000793406
0.000550647
0.000305126
0.000381643
0.000174228
0.000475332
0.000518447
0.000317226
0.000246626
0.000714414
0.00117009
0.00225753
0.000315072
0.00065924
0.00132271
0.000892849
0.000633444
0.000684994
0.000415164
0.000393638
0.000475668
0.000452386
0.000580702
0.000912151
0.000690691
0.000647169
0.00144317
0.000964366
0.000733834
0.000840748
0.000369551
0.000333091
0.000634267
0.00169481
0.00106863
0.000260088
0.000510296
0.000316994
0.000395455
0.00031883
0.00043342
0.000261981
0.000493498
0.000189976
0.00066914
0.000135619
0.000195006
0.000160493
0.000165246
0.000215983
0.000367335
0.000655195
0.000287966
0.000277532
0.000283638
0.000259741
0.000361402
0.00026491
0.000234345
0.000134194
0.000200299
0.000221014
0.000123137
0.00218428
0.000357144
0.0021268
0.000662706
0.000574349
0.00210588
0.000483743
0.000513163
0.000611864
0.000558791
0.00201597
0.000705342
0.000621096
0.000516333
0.000515236
0.000552789
0.00212624
0.000474576
0.000554259
0.000455541
0.000568345
0.000342539
0.000575426
0.00207901
0.000496891
0.000600287
0.000662579
0.000827439
0.000743614
0.000569906
0.000218275
0.000655799
0.00238257
0.000469561
0.00058202
0.000525806
0.000768421
0.000610104
0.000409612
0.000473034
0.000361824
0.000604108
0.00230313
0.000779897
0.000645617
0.000545635
0.000441215
0.000352416
0.000524422
0.000474713
0.00050401
0.00092067
0.000723891
0.00253694
0.000646466
0.000538376
0.00100634
0.00031856
0.000422263
0.000609783
0.000608201
0.000690556
0.000467198
0.00042638
0.000646376
0.00249641
0.000984601
0.000620277
0.000702935
0.000506909
0.000696945
0.000662733
0.00028242
0.000251744
0.000622372
0.000503409
0.000804355
0.000960001
0.00249252
0.00133602
0.000775726
0.000728085
0.000654303
0.000426274
0.000952929
0.000707123
0.000544869
0.00123284
0.000769089
0.000557016
0.000585933
0.000942618
0.00240041
0.000629802
0.000950847
0.000843826
0.000531016
0.000638844
0.00056619
0.000251848
0.000442362
0.000960254
0.000774624
0.000884476
0.000991702
0.00146757
0.00164265
0.00330263
0.000941083
0.000898694
0.000682
0.00081353
0.000744106
0.000475925
0.000445918
0.000357246
0.000438061
0.000352887
0.000666701
0.000643178
0.000507504
0.0010955
0.000991689
0.00236305
0.000399774
0.000272446
0.000405814
0.000853744
0.000734181
0.000445638
0.000481628
0.000404784
0.000429102
0.000195324
0.00040949
0.000509536
0.000763302
0.000599025
0.000581227
0.00145392
0.00122098
0.000195277
0.000764852
0.000510865
0.000365022
0.000286604
0.000533415
0.00149213
0.0010556
0.000393911
0.00037885
0.000362517
0.000552004
0.000322009
0.000436317
0.000203555
0.000413088
0.000299644
0.000701738
0.000233946
6.49452e-05
0.000159717
0.000123912
0.000211123
0.000181213
0.000272638
0.000692724
0.000233765
0.000283354
0.000283821
0.000284636
0.000341672
0.000255374
0.000248018
0.000132931
0.000172092
0.000230637
0.000169595
0.00211512
0.000317297
0.00211087
0.000408507
0.000320936
0.00212484
0.000277342
0.000781225
0.000299302
0.00208568
0.000406649
0.000527658
0.000493591
0.000657957
0.00044071
0.00210268
0.000510646
0.000397831
0.000624864
0.000631028
0.000406931
0.000679048
0.0020076
0.000604188
0.000592188
0.00114969
0.000596033
0.000671531
0.000370761
0.000427688
0.00212885
0.000260418
0.000469028
0.000616382
0.000635036
0.000637577
0.000601089
0.000470464
0.000437446
0.000609322
0.00234605
0.000546654
0.000533347
0.000679228
0.000538873
0.000603353
0.000428166
0.000555171
0.000512536
0.000635304
0.000782483
0.00230101
0.000830984
0.000520081
0.000596106
0.000422065
0.000439988
0.000564711
0.000498835
0.000522078
0.000537934
0.000726262
0.000720359
0.00253219
0.000467242
0.000801987
0.00077017
0.000702689
0.00050932
0.000157162
0.000322923
0.000494342
0.000438291
0.000535825
0.000378144
0.000753827
0.00246067
0.000606701
0.00076148
0.000607506
0.000494527
0.000466621
0.000593132
0.000572284
0.000605309
0.00110127
0.000930706
0.000510018
0.000835041
0.000692491
0.00240122
0.00058253
0.00076796
0.000743189
0.000514676
0.000286581
0.00029267
0.000281916
0.000671606
0.000668896
0.00149936
0.000539726
0.00103822
0.000941295
0.00132899
0.00230574
0.000795536
0.00158184
0.000923799
0.00106175
0.000474014
0.000436283
0.000676562
0.000349251
0.000518613
0.00103939
0.00103931
0.000954822
0.000532209
0.00155106
0.00211096
0.00296186
0.000304392
0.000986953
0.000583457
0.000515487
0.000999996
0.000834485
0.000625361
0.000404388
0.000215861
0.000410308
0.000336606
0.000412535
0.000485614
0.000401811
0.00123315
0.000977064
0.00262419
0.000441786
0.000351741
0.000330693
0.000431837
0.000994747
0.000589979
0.000796914
0.000569008
0.000318429
0.000392761
0.000233074
0.000593981
0.00056538
0.000671165
0.000439622
0.000539414
0.000861799
0.00127411
0.000203795
0.00022244
0.00071839
0.000276314
0.00031985
0.000339988
0.000343894
0.0013394
0.00104931
0.000276729
0.0003447
0.000333444
0.000304613
0.000244944
0.000424558
0.000173123
0.000349063
0.000419132
0.000944337
0.000118539
0.000161074
8.20239e-05
0.00014777
8.02751e-05
0.000161803
0.000170116
0.000391215
0.000512024
0.000506942
0.000298251
0.000275193
0.000291412
0.00026999
0.000246757
0.00026693
0.000132816
0.000186219
0.000216172
0.000190821
0.00219241
0.0003401
0.00214823
0.000398011
0.000453277
0.00212816
0.00043209
0.000403756
0.000344138
0.00210775
0.000424554
0.000289064
0.000563594
0.000488467
0.00206208
0.000530472
0.000715827
0.000396802
0.000491281
0.000328674
0.000242089
0.00215361
0.000519254
0.000353234
0.000177745
0.000710823
0.000607795
0.000424011
0.000592309
0.00214543
0.000394669
0.000519706
0.000943627
0.000790615
0.000573261
0.000583079
0.000538016
0.0004544
0.00208681
0.000462372
0.000311998
0.00051624
0.000456618
0.000573307
0.000360125
0.000489324
0.000640266
0.00053468
0.000765244
0.00235089
0.000764441
0.000387641
0.0006798
0.000376512
0.000477872
0.000503017
0.00044264
0.000493022
0.000397449
0.000809651
0.000706286
0.00222628
0.000643438
0.000728717
0.000762528
0.000481012
0.000583455
0.000531226
0.000601714
0.000523786
0.000657518
0.000498517
0.000592495
0.000615388
0.00242173
0.000744104
0.00133509
0.000571517
0.000517482
0.000567233
0.000376803
0.000616319
0.000196674
0.00060834
0.000216899
0.000417032
0.000478065
0.000512717
0.00261625
0.0021614
0.000266982
0.000754548
0.000825748
0.000352813
0.000422427
0.000677634
0.000315251
0.000649973
0.000641738
0.000582378
0.000576319
0.00052244
0.000832995
0.00244464
0.00109863
0.00183884
0.000807494
0.000513285
0.000438052
0.000762142
0.000116323
0.000498149
0.00061259
0.000642981
0.000675685
0.000480839
0.00103411
0.00129173
0.00111769
0.00225661
0.000897993
0.00113968
0.000853661
0.000933689
0.000463129
0.000552416
0.000640116
0.000523131
0.000480661
0.000771078
0.000479164
0.000788873
0.00086633
0.000961996
0.00144825
0.00213158
0.00278439
0.000602501
0.00043178
0.000715573
0.000381497
0.00100184
0.000926267
0.000526341
0.000483032
0.000387921
0.000284981
0.000280205
0.000413142
0.000408074
0.000301988
0.00025203
0.00140947
0.00106134
0.0028067
0.000598362
0.000383438
0.000331688
0.00042401
0.000637286
0.000498159
0.000287487
0.000465521
0.000557409
0.00017953
0.00013254
0.000407938
0.000682248
0.000515474
0.000604883
0.000372889
0.000701239
0.000542985
0.0011738
0.000244718
0.000210225
0.000237021
0.000561234
0.000344701
0.000264575
0.000323714
0.000641859
0.000896778
0.00143154
0.000616964
0.00031167
0.000413953
0.000262249
0.000404165
0.000566366
0.000146314
0.00028023
0.000417455
0.000933539
0.000128513
0.000116779
0.000210442
2.58532e-05
0.000207036
0.000119227
0.000152102
0.000188238
0.000394789
0.000342946
0.000581693
0.000304725
0.000270496
0.000250035
0.000186225
0.000218943
0.000326634
0.000170141
0.000207102
0.000234968
0.000140026
0.00218624
0.000470414
0.00217538
0.000390859
0.000405381
0.00214327
0.000331961
0.00022793
0.000369746
0.00214242
0.000380487
0.00030886
0.000483077
0.000299626
0.00211615
0.000332725
0.000415508
0.000410061
0.000406931
0.000510899
0.00207688
0.000465813
0.000440154
0.000560375
0.000496086
0.000685747
0.000465871
0.000594579
0.0020938
0.00039386
0.000586438
0.000538055
0.000743531
0.000630714
0.00060503
0.000405307
0.000482962
0.0022178
0.000430686
0.000414413
0.000423184
0.000625695
0.000449884
0.000493916
0.000649393
0.000596785
0.000531999
0.00219256
0.000375036
0.000468326
0.000393352
0.000716164
0.000489389
0.00047834
0.000455125
0.00054334
0.00061374
0.000631023
0.000852585
0.00225647
0.000500111
0.000761654
0.000565636
0.00057045
0.000429712
0.000416151
0.000385822
0.000619926
0.000374619
0.000433185
0.000783181
0.000630281
0.00220396
0.000540459
0.000645077
0.000563025
0.000730785
0.000660083
0.000595124
0.000432136
0.00054453
0.000581741
0.000651527
0.000362292
0.000591639
0.000676607
0.00244648
0.000914752
0.000418125
0.000957129
0.00129678
0.000702231
0.000429771
0.000618555
0.00087266
0.000698698
0.000732302
0.000397121
0.000407679
0.000571564
0.000494803
0.00265483
0.000195072
0.000627709
0.000946229
0.000381356
0.000147005
0.000579324
0.000457208
0.000169439
0.000547979
0.000360105
0.000542388
0.000447467
0.000569915
0.000449819
0.000908532
0.00240517
0.000958428
0.00196979
0.000998591
0.00109555
0.000624142
0.000320633
0.000267755
0.000640245
0.000621559
0.000554793
0.000998962
0.000334195
0.000895854
0.00102535
0.00136127
0.00115802
0.00250284
0.000369567
0.000378567
0.00170649
0.00053769
0.000731536
0.000649031
0.000629041
0.000500365
0.000546988
0.000584656
0.00038209
0.000620539
0.000659495
0.0010836
0.000790695
0.00127654
0.00217267
0.00239817
0.000471669
0.000541155
0.000757104
0.00057931
0.0003202
0.000649955
0.00057878
0.000502749
0.000542316
0.000344384
0.000560078
0.000192551
0.00045689
0.000419291
0.000580851
0.000734673
0.00115277
0.00106619
0.00287112
0.000528244
0.000468586
0.000364841
0.000287926
0.000729483
0.000730147
0.000667744
0.000259371
0.000294606
0.000639441
0.000307389
0.000106125
0.000266674
0.000288032
0.000375615
0.000563068
0.000510073
0.000614719
0.00117385
0.00107816
0.000282479
0.00024635
0.000167253
0.00022611
0.000351199
0.000417001
0.000210127
0.000283052
0.000413849
0.000683931
0.00101643
0.000464777
0.000213801
0.000318275
0.00033011
0.000279336
0.000699106
0.000330331
0.000336601
0.000432169
0.00114644
0.000185659
0.00012572
0.000144218
0.000247751
0.000132979
0.000159578
0.0001114
9.68842e-05
0.000170118
0.000461537
0.00033744
0.000459533
0.000296852
0.000260293
0.000247038
0.000174179
0.000218411
0.000357125
0.000189554
0.000189838
0.000220843
0.000188434
0.00228774
0.00042125
0.00217523
0.000539789
0.000535226
0.00219889
0.000599917
0.00040647
0.000433947
0.00218897
0.000304611
0.000286032
0.000242583
0.000209464
0.00215982
0.000369206
0.000388834
0.000247888
0.000381318
0.000462026
0.00207848
0.000360048
0.000225657
0.000336818
0.000593742
0.000278742
0.000257585
0.00209248
0.000580451
0.00034814
0.000586833
0.000443994
0.000564698
0.00053941
0.000360568
0.000350681
0.00204143
0.000577102
0.000418725
0.00014246
0.000583395
0.000627695
0.000503572
0.000673622
0.000776829
0.000622858
0.00208423
0.000604471
0.000435968
0.000443346
0.00072302
0.000279957
0.000243429
0.000446263
0.000580909
0.000571429
0.000460328
0.00211584
0.000638249
0.000883355
0.000458532
0.000357215
0.000469531
0.000464614
0.000405642
0.000638148
0.000523981
0.000445779
0.000810969
0.000976335
0.00224936
0.000760958
0.000434915
0.000575747
0.000641985
0.000761291
0.000561038
0.000497929
0.000559815
0.000471963
0.000432831
0.000522354
0.000575627
0.000570346
0.00223632
0.000750711
0.000988096
0.000894025
0.000749284
0.000482408
0.000437623
0.000467982
0.000440634
0.0004977
0.00073921
0.0004074
0.000315397
0.000682768
0.000724759
0.00240844
0.00033309
0.000516723
0.000460014
0.000445068
0.000431123
0.000841707
0.00076045
0.000493693
0.000462321
0.000372594
0.000584779
0.000564097
0.000523032
0.000562724
0.000631007
0.00263626
0.00100224
0.00113701
0.00083108
0.000610603
0.000861991
0.00058873
0.000600571
0.000698155
0.000662306
0.000757929
0.000749671
0.000786481
0.00073521
0.00108472
0.000801206
0.000752243
0.00277419
0.000297986
0.000581358
0.00101762
0.000767585
0.000398658
0.000385514
0.00038014
0.000605577
0.000779833
0.000402838
0.000753204
0.00140738
0.000544274
0.000878283
0.00103718
0.000746746
0.00140998
0.00246757
0.00044299
0.000452205
0.000414998
0.00128544
0.000700452
0.000901791
0.000621118
0.000611026
0.000436758
0.000503648
0.000557605
0.000316007
0.000777512
0.000815825
0.000866365
0.000987425
0.00172246
0.00202023
0.00256773
0.00033561
0.000479956
0.000485297
0.000818957
0.000686137
0.00041815
0.000523911
0.000548838
0.00045245
0.000403529
0.000423349
0.000608834
0.000451765
0.000506637
0.000358378
0.000687388
0.0007279
0.00148275
0.000356602
0.00256854
0.000565908
0.000664859
0.000442599
0.000350585
0.000267128
0.000598522
0.000497529
0.000574976
0.000257484
0.0003297
0.000555558
0.000290701
0.000464092
0.000248871
0.000354785
0.00049649
0.000551458
0.000602553
0.000471674
0.00147925
0.00173028
0.000216155
0.000278212
0.000181523
0.000177858
0.000248983
0.000289429
0.000452031
0.000264429
0.000241623
0.000257185
0.000532174
0.000494181
0.000332005
0.000268731
0.000288026
0.000502238
0.000445907
0.000546125
0.000319856
0.000441699
0.000544239
0.00132919
0.000165117
0.000156224
0.000120828
0.000105118
0.000233991
0.00020053
8.7887e-05
9.11661e-05
3.69409e-05
0.000154187
0.000459941
0.000339742
0.000423293
0.000294172
0.000255433
0.000213498
0.00013778
0.000186008
0.000356564
0.000151125
0.000171806
0.000227454
0.000258944
0.00215909
0.000512153
0.00223654
0.000236895
0.000468079
0.0022423
0.000441306
0.000481832
0.000632414
0.00217789
0.000273433
0.00043928
0.000482717
0.000431778
0.00224028
0.000357209
0.000303958
0.000286775
0.000213859
0.000236767
0.00211199
0.00034492
0.000348991
0.000291118
0.000262904
0.000333942
0.000478148
0.00210083
0.000282293
0.000308109
0.000209658
0.00031684
0.000418866
0.000195458
0.000370365
0.00209483
0.000570671
0.000220512
0.000494686
0.000590214
0.000315739
0.000608579
0.000688962
0.000586528
0.00037769
0.00205144
0.00047344
0.000321279
0.000494332
0.000309805
0.00048686
0.000542408
0.000468039
0.00063117
0.000477991
0.000545031
0.00215556
0.000335648
0.000456275
0.000367798
0.000462091
0.000551553
0.000221212
0.000671212
0.000533792
0.000525729
0.000798783
0.000748103
0.00206503
0.000760292
0.000440735
0.00051844
0.000353514
0.000661369
0.000462645
0.000333234
0.000590107
0.00056831
0.000474271
0.000357775
0.000684687
0.000711846
0.00228163
0.000641509
0.000584954
0.000828255
0.000797213
0.000648577
0.000562047
0.00052846
0.00052389
0.000461511
0.000341397
0.000561408
0.00054329
0.000700743
0.000802257
0.00219509
0.00143172
0.00069775
0.000356521
0.000975396
0.000930969
0.000423088
0.000636957
0.000581391
0.000774645
0.0006429
0.000518958
0.000313004
0.00059874
0.000772957
0.000935406
0.00238819
0.000960241
0.00061146
0.000644422
0.000936751
0.000509776
0.000377136
0.000933991
0.000684673
0.000314206
0.000533121
0.000416516
0.000630877
0.000362371
0.000411366
0.000591695
0.000515115
0.00254625
0.00039201
0.00206897
0.000478555
0.000587424
0.000869481
0.00098744
0.000463245
0.000394036
0.000567966
0.0004858
0.000566959
0.00104343
0.000737664
0.00100182
0.00131545
0.00099622
0.000847793
0.00258903
0.000546454
0.000427346
0.000624794
0.000873615
0.000522058
0.000356442
0.000475997
0.00032869
0.0004746
0.000686933
0.000943247
0.00143382
0.000886436
0.00112825
0.000699385
0.00124607
0.000851001
0.00173788
0.00224824
0.000344687
0.000522397
0.000492764
0.000644728
0.000993131
0.000480545
0.000602414
0.000560229
0.00050621
0.000632307
0.00105579
0.00102728
0.000699189
0.000518572
0.0006516
0.00150254
0.00135782
0.00182545
0.00178969
0.00278142
0.000724699
0.000489303
0.000405909
0.000369457
0.000501855
0.00072308
0.000454323
0.000606872
0.000758387
0.000537037
0.000432898
0.000344035
0.00043219
0.000472143
0.000516544
0.00036241
0.000382445
0.000515068
0.000504388
0.000909998
0.0025177
0.000468236
0.000518772
0.000394484
0.000434548
0.000361891
0.000336655
0.000375594
0.00038084
0.000770143
0.000556254
0.000311809
0.00056089
0.000171255
0.000507456
0.000333397
0.000452551
0.000368999
0.000672761
0.00069714
0.000592342
0.00156495
0.00168637
0.000297794
0.000305488
0.000243904
0.000183587
0.0001574
0.00032496
0.000588764
0.000281127
0.000250489
0.000345466
0.000394362
0.000581067
0.000496023
0.000256038
0.000263191
0.000381337
0.00049662
0.000278394
0.000458649
0.000240676
0.000411461
0.000675785
0.000885224
0.000156755
0.000147405
0.000207214
0.000123122
0.000105417
0.000215391
0.000151573
0.000255175
0.00010243
0.000100353
0.000124226
0.000312062
0.000326973
0.000396114
0.000287372
0.000263741
0.000194958
0.000151241
0.000182394
0.000348496
0.000162416
0.000154267
0.000171201
0.000197749
0.00230405
0.000386748
0.00218472
0.000536105
0.000739478
0.00221086
0.000483355
0.000128125
0.000360854
0.00229251
0.000496943
0.000313652
0.000293331
0.000401281
0.00221712
0.000537723
0.000448078
0.000374508
0.00050065
0.000443195
0.00222002
0.000209
0.000478401
0.00017457
0.000235539
0.000256335
0.000481798
0.00217439
0.000739728
0.000423626
0.000234029
0.00037197
0.000501666
0.000361729
0.000262412
0.00215454
0.000499301
0.000252826
0.000471289
0.000341999
0.000440131