/*--------------------------------*- C++ -*----------------------------------*\
  =========                 |
  \\      /  F ield         | OpenFOAM: The Open Source CFD Toolbox
   \\    /   O peration     | Website:  https://openfoam.org
    \\  /    A nd           | Version:  7
     \\/     M anipulation  |
\*---------------------------------------------------------------------------*/
FoamFile
{
    version     2.0;
    format      ascii;
    class       surfaceScalarField;
    location    "9";
    object      phi;
}
// * * * * * * * * * * * * * * * * * * * * * * * * * * * * * * * * * * * * * //

dimensions      [0 3 -1 0 0 0 0];

internalField   nonuniform List<scalar> 
54095
(
0.000199555
-4.21357e-05
0.00053127
0.000283698
-7.00605e-05
-0.000954575
0.000207342
-5.03883e-05
-0.000585097
0.000209659
-3.80886e-05
0.0003597
8.20416e-06
8.0919e-06
-0.00358654
0.00029335
5.70366e-05
-0.000823197
0.00021707
-3.73379e-05
-0.000924648
5.06117e-05
-3.82812e-05
-0.00102476
0.000165246
-4.48619e-05
-0.000743569
0.000221118
-3.60226e-05
0.000174604
-0.00050895
0.000344198
-0.00738533
0.000261554
0.000386422
-0.00353221
-9.66457e-05
-1.21352e-05
-0.00326069
5.11933e-05
0.000124797
-0.00177412
0.000127384
7.89176e-05
-0.000901591
0.000169115
2.10298e-06
-0.000874748
2.86165e-05
-4.6917e-05
-0.000552202
3.3587e-05
-3.76699e-05
-0.00106554
0.00011518
-4.17689e-05
-0.000853003
0.0002278
-3.59824e-05
-1.72138e-05
-0.00069493
0.000228029
-0.00603472
-9.91712e-05
0.000508966
-0.00640633
-0.000552706
0.000333542
-0.00726281
-0.000210549
0.000543215
-0.00239475
0.000219251
0.000473983
0.00211235
-0.000160812
9.5539e-05
-0.0030263
3.72442e-05
4.8478e-05
-0.00286282
7.16712e-06
0.000116821
-0.0017856
5.06974e-05
0.000101699
-0.000936704
0.000122106
2.70233e-05
-0.000796077
-4.30222e-06
-3.91668e-05
7.58028e-05
2.42511e-05
-4.6395e-05
-0.000567728
2.7013e-05
-3.81122e-05
-0.00109621
7.4563e-05
-4.16166e-05
-0.000921932
0.000228003
-3.68578e-05
-0.000208359
-0.00080294
0.000278139
-0.0051207
-0.000785658
0.000488059
-0.00609542
-0.000692261
0.000251096
-0.00614626
-0.00026101
0.000508718
-0.00647199
-8.78262e-05
0.000504849
-0.00627056
-0.000588863
0.00031165
-0.00714641
-5.73722e-06
0.000507012
-0.00401306
-0.00024137
0.000582519
-0.00225475
-6.89985e-05
0.000483065
0.00184452
-0.00021368
0.000126259
-0.00281677
-1.08041e-05
7.03049e-05
-0.00200631
1.84917e-05
4.2777e-05
-0.00278301
-5.05161e-06
0.000104252
-0.00175609
-5.04434e-05
0.000114265
-0.000898939
6.24683e-05
5.44539e-05
-0.000684997
-4.54104e-05
-1.6231e-05
-6.24554e-06
-5.78065e-06
-3.7691e-05
7.28795e-05
1.93173e-05
-4.61324e-05
-0.000579025
1.96625e-05
-4.00379e-05
-0.00111745
2.68154e-05
-4.10762e-05
-0.000944529
0.000214814
-3.74173e-05
-0.000385755
-0.00107812
0.000332172
-0.00571082
-0.000758773
0.000347915
-0.00549415
-0.000759994
0.000333982
-0.00538695
-0.000278478
0.000498421
-0.00650806
-0.000608836
0.000421513
-0.00574482
-0.00070919
0.000222399
-0.00624834
-1.93959e-05
0.000458774
-0.00624379
-0.000371041
0.000435532
-0.006273
-0.000537783
0.000460903
-0.00595103
-0.00058648
0.000307255
-0.00708086
0.000112045
0.000319994
-0.0044938
-5.8089e-05
0.000517406
-0.00387137
-0.000258845
0.000583095
-0.00210098
-5.36043e-05
0.000482491
0.00149145
-0.000302727
0.000164428
-0.00261601
-4.09983e-05
0.000102449
-0.00111228
-1.77846e-05
4.0867e-05
-0.00199239
-7.97435e-06
1.71535e-05
-0.00266862
-3.36976e-05
9.544e-05
-0.0016839
-0.000175787
0.000130627
-0.000772509
1.77545e-05
6.44918e-05
-0.000552429
-1.29573e-05
-2.63894e-05
-0.000456079
-4.8269e-05
-1.88088e-05
2.31412e-05
-4.20416e-06
-3.70398e-05
6.79911e-05
1.33471e-05
-4.62683e-05
-0.000586142
1.28963e-05
-4.09647e-05
-0.00113046
3.07353e-06
-4.04005e-05
-0.000944619
0.000191058
-3.7344e-05
-0.000539469
-0.00117885
0.000118223
-0.00470386
-0.000540655
0.000369182
-0.00607441
-0.00104526
0.000312798
-0.00573835
-0.000331381
0.000575165
-0.00589319
-0.000471404
0.00047698
-0.00577458
-0.000781252
0.000332677
-0.00564757
-0.000236906
0.000456096
-0.00656973
-0.000282859
0.000452048
-0.00662678
-0.000637226
0.000329724
-0.00575271
-0.000627059
0.000266447
-0.00647421
0.000157206
0.000344378
-0.00619868
-0.000190364
0.000374633
-0.00605062
-0.000462164
0.000337646
-0.00594643
-0.000436995
0.000451741
-0.00571213
-0.000694589
0.000311596
-0.0070006
0.000237426
6.84416e-05
-0.00367691
0.000143019
0.000302289
-0.00443948
-0.000133824
0.000490927
-0.00365335
-0.000303865
0.000531954
-0.00188028
-0.000162892
0.000425878
0.0012171
-0.000360802
0.000180805
-0.00241826
0.000141405
4.44049e-07
-0.00131012
-5.71872e-05
5.15892e-05
-0.00111409
-2.09581e-05
6.63106e-07
-0.00195915
-2.23163e-05
-4.50407e-08
-0.00253748
-5.13591e-05
8.55444e-05
-0.00157456
-0.000236069
0.000133888
-0.000602763
-2.41105e-05
6.05663e-05
-0.000397827
3.89903e-05
-6.52992e-05
-0.000107813
-7.90189e-06
-3.043e-05
-0.000436556
-4.27452e-05
-2.20909e-05
5.09375e-05
-3.7022e-06
-3.68826e-05
6.23076e-05
6.90101e-06
-4.69286e-05
-0.000587079
9.97359e-06
-4.0677e-05
-0.00114016
-2.22536e-06
-4.10389e-05
-0.000938699
0.000167415
-3.70174e-05
-0.000669866
-0.00139287
0.00011622
-0.00395803
-0.000779673
0.000422129
-0.00595684
-0.00131177
0.000111709
-0.00454905
-0.000546445
0.000397042
-0.00614075
-0.0003619
0.000370823
-0.00624194
-0.000998613
0.000289345
-0.00581033
-0.000389303
0.000797218
-0.00575347
-0.000174347
0.000583265
-0.00610799
-0.000331008
0.000420742
-0.00616887
-0.000722828
0.000214877
-0.00576667
0.000489731
0.00045542
-0.00732573
-7.35561e-05
0.000483304
-0.0067178
-0.000299996
0.000402785
-0.00686201
-0.000381533
0.000347914
-0.00588964
-0.000777244
0.000355834
-0.00674739
0.00028751
0.000276902
-0.00563154
0.000178917
0.000284354
-0.0061443
-0.00024071
0.000188217
-0.0057943
-0.000491086
0.000257489
-0.00556495
-0.000547762
0.000489954
-0.00550562
-0.000727287
0.000282182
-0.00691629
0.00043952
-1.46255e-05
-0.00402841
0.000251477
4.31046e-05
-0.00372639
0.000195241
0.00023902
-0.00440378
-0.000175187
0.000415798
-0.00338432
-0.000305494
0.000442787
-0.00164305
-0.000235729
0.000411231
0.000986338
-0.000394202
0.000198548
-0.00224671
0.00022877
-0.000166352
-0.00124136
0.000156781
-1.82038e-05
-0.00140501
-4.80321e-05
-7.59898e-06
-0.00110054
-1.00095e-05
-2.9675e-05
-0.00192321
-4.13782e-05
-1.56864e-05
-0.00238797
-6.90353e-05
7.65473e-05
-0.00143822
-0.000236608
0.000120057
-0.000427872
-3.98196e-05
5.89075e-05
-0.0002495
5.38372e-06
-8.26642e-05
-0.000607437
3.46548e-05
-6.61159e-05
-0.000106782
1.63017e-06
-3.46567e-05
-0.00042562
-3.33022e-05
-2.55697e-05
7.29268e-05
-1.58705e-06
-3.6982e-05
5.39482e-05
2.01233e-06
-4.70974e-05
-0.000582671
9.70691e-06
-4.04038e-05
-0.0011505
-1.71307e-06
-4.36274e-05
-0.000930376
0.000145582
-3.63904e-05
-0.000779058
-0.00151016
0.000123532
-0.00387805
-0.00101959
0.000348437
-0.0050421
-0.00148035
0.000106405
-0.00389586
-0.0006884
0.000475049
-0.00549249
-0.000658726
0.000334547
-0.00588285
-0.00120058
0.000119468
-0.00446655
-0.000374797
0.000555893
-0.00593752
-0.000199955
0.000404343
-0.00614867
-0.000242644
0.00039885
-0.00643981
-0.00106982
0.000260109
-0.00572345
0.000463279
0.000896365
-0.00580423
1.36957e-05
0.000619306
-0.00587677
-0.000136703
0.000528944
-0.00637948
-3.72233e-05
0.000156473
-0.00645477
-0.000809615
0.00032457
-0.00605887
0.000598581
0.000583249
-0.00736914
6.65811e-05
0.000479966
-0.00721005
-0.000188884
0.000407643
-0.00677448
-0.000303641
0.000434339
-0.00713588
-0.000242023
0.000610497
-0.00645004
-0.000773474
0.000387661
-0.00708886
0.000533077
0.000254132
-0.00515672
0.000255747
0.000247998
-0.00559945
0.000344545
0.000114441
-0.00621983
-0.0002923
0.000142187
-0.00556189
-0.000242871
0.000225237
-0.00536286
-0.000541987
0.00051953
-0.00543671
-0.000672603
0.000312141
-0.00695003
0.000424044
-2.45576e-05
-0.0040589
0.000309715
3.87495e-06
-0.00414211
0.000222976
4.77925e-05
-0.00380617
4.28725e-05
0.000182563
-0.00422342
-0.000187176
0.000398234
-0.00319397
-0.000292223
0.000385596
-0.00139423
-0.000236742
0.000392134
0.000792886
-0.000331935
0.000166567
-0.00212116
0.000207786
-0.000227188
-0.00144126
0.000219518
-0.000126607
-0.00131782
0.000175291
-5.06462e-05
-0.00153562
-2.19402e-05
-3.39959e-05
-0.00110758
-3.13968e-07
-5.56377e-05
-0.00188453
-4.88911e-05
-4.52454e-05
-0.00221527
-7.16127e-05
6.74438e-05
-0.00130428
-0.000218968
0.000113591
-0.0002653
-3.99562e-05
6.02389e-05
-0.0001242
-1.3563e-05
-8.09226e-05
-0.000641461
6.54206e-06
-8.2211e-05
-0.000597884
2.93641e-05
-6.70928e-05
-0.00010371
-1.31111e-06
-3.89813e-05
-0.000410897
-2.49553e-05
-2.88364e-05
8.97365e-05
4.71514e-06
-3.70868e-05
3.92224e-05
-7.04047e-07
-4.68205e-05
-0.00057555
1.19903e-05
-4.18625e-05
-0.00116426
2.495e-07
-4.54045e-05
-0.000921611
0.000127174
-3.53897e-05
-0.000870843
-4.58617e-05
-0.00354922
-0.00104872
0.000171353
-0.00459641
-0.001586
0.000111108
-0.0038835
-0.000683105
0.000480658
-0.00544565
-0.000851989
0.000309633
-0.00505206
-0.00138447
0.000151537
-0.00386352
-0.000495389
0.000455762
-0.00558225
-0.000269221
0.000346101
-0.00543478
-0.000574992
0.000380484
-0.00581152
-0.00125267
0.000106415
-0.00439012
-9.44813e-05
0.000735705
-0.00553779
-0.000312593
0.000604615
-0.00581151
-0.000253778
0.000421912
-0.00605465
-0.000308034
0.000429161
-0.00633805
-0.00109293
0.000224143
-0.00566428
0.000634245
0.00093771
-0.00591643
8.03757e-05
0.000713464
-0.00591218
-0.000162931
0.000621532
-0.00599531
-0.000207575
0.00026505
-0.00658412
0.000235476
0.000337202
-0.0069449
-0.00085783
0.000213078
-0.00618759
0.000372257
0.000685934
-0.00670497
-4.00819e-06
0.000562504
-0.00719192
0.000272904
0.000425058
-0.00715583
-0.000159205
0.000452801
-0.00692604
0.000134207
0.000656821
-0.00755928
-0.000201937
0.000788704
-0.00719113
-0.000658035
0.000437771
-0.0075412
0.000563137
0.000251657
-0.00537091
0.000340173
0.000250535
-0.00518971
0.000336101
0.000189125
-0.00578726
8.67867e-07
0.000122081
-0.00615772
-0.000218507
8.47797e-05
-0.0053901
-0.000220272
0.000382283
-0.00529756
-0.000296055
0.000532328
-0.00559758
-0.000590682
0.000332667
-0.00702395
0.000365048
2.11387e-05
-0.00406036
0.00033687
5.74344e-05
-0.00422981
0.000311001
1.56772e-05
-0.00424571
0.000198941
5.21519e-05
-0.00389664
4.96495e-05
0.000187537
-0.00406269
-0.000155487
0.000141561
-0.00284334
-0.000260171
0.000360419
-0.00117396
-7.0724e-05
0.00036927
0.000441939
-0.000291173
0.000162039
-0.00203199
0.000124686
-0.000232988
-0.00259098
0.00020194
-0.000172103
-0.00159116
0.000197809
-9.31932e-05
-0.00144371
0.000164378
-4.19685e-05
-0.00169334
1.51587e-05
-4.14112e-05
-0.00116192
4.95156e-05
-8.52391e-05
-0.00188934
-4.8375e-05
-5.48719e-05
-0.00204528
-7.77962e-05
6.26338e-05
-0.00116354
-0.000202203
0.00011105
-0.000113658
-1.46086e-05
6.00801e-05
-4.24976e-05
-3.60958e-05
-6.66938e-05
-0.00123766
-1.66183e-05
-8.0675e-05
-0.000626379
8.36667e-06
-8.19082e-05
-0.000591435
2.54608e-05
-6.81132e-05
-0.000100039
-8.35054e-06
-4.32213e-05
-0.000388162
-1.94867e-05
-3.21213e-05
0.000104258
7.0419e-06
-3.76369e-05
2.29969e-05
-4.15429e-06
-4.67798e-05
-0.000566479
1.39641e-05
-4.31337e-05
-0.00118049
3.87791e-06
-4.57849e-05
-0.000915094
0.000112693
-3.37947e-05
-0.000949741
0.000147108
-0.00446555
-0.00167658
-1.3428e-06
-0.0034573
-0.000597826
0.000177836
-0.00494085
-0.000881398
0.000173555
-0.00462944
-0.00151858
0.00014926
-0.00389865
-0.000442339
0.000508817
-0.00527673
-0.000563925
0.000465556
-0.00530687
-0.000666035
0.000271
-0.00508048
-0.00126935
0.000111726
-0.00395856
-0.000244328
0.000499746
-0.00585282
-0.000452763
0.000421233
-0.00551721
-0.000295016
0.000422005
-0.00543506
-0.000617423
0.000379307
-0.00577502
-0.0012727
0.000112518
-0.00432287
5.33102e-05
0.000943803
-0.00540274
-3.95423e-05
0.000765677
-0.00557894
-0.000289271
0.000541241
-0.0058045
-0.000193431
0.000419273
-0.00605891
-0.000140735
0.000451382
-0.00618908
-0.00116217
0.000204625
-0.00556456
0.00020622
0.00111035
-0.00599253
-0.000120004
0.000902673
-0.00598964
0.000217883
0.000747754
-0.00598338
-0.000128252
0.000447832
-0.00620904
0.000178244
0.000281197
-0.00657215
0.000298572
0.000148189
-0.00738052
-0.000861226
0.000232184
-0.00621659
0.000502824
0.000754014
-0.00617207
0.000245001
0.000665915
-0.00671321
0.000314833
0.00050177
-0.00724737
7.64003e-05
0.000392149
-0.00717071
5.40157e-05
0.000531713
-0.00707346
4.37715e-05
0.000939322
-0.00797394
2.64479e-05
0.00102751
-0.00810337
-0.000606885
0.000507075
-0.00803207
0.000391698
0.000174533
-0.00544309
0.000454108
0.000290368
-0.00552799
0.000430465
0.000262382
-0.00538243
0.000220776
0.000179504
-0.00586652
-5.09843e-05
0.000134621
-0.00610692
-0.000143872
0.000224604
-0.00524404
-0.000178849
0.000287572
-0.00513413
7.47211e-05
0.000492642
-0.005903
-0.000601171
0.000334062
-0.00704802
0.000377002
-3.70786e-05
-0.00372166
0.000395443
6.44389e-05
-0.00426087
0.000279554
7.09208e-05
-0.0043668
0.000241542
4.07506e-05
-0.00431147
0.0001804
4.72733e-05
-0.00392161
0.000163815
-3.47157e-05
-0.00400071
-0.000174207
0.000233911
-0.002591
-0.000214076
0.000369132
-0.00103754
-0.000125681
0.000351226
0.00017623
2.69678e-06
0.000140934
-0.00219023
4.03035e-05
-0.000240043
-0.00181227
0.000119532
-0.000217436
-0.0026818
0.000213418
-0.000124725
-0.00176468
0.000180084
-5.75268e-05
-0.00158278
0.000139626
-2.34499e-05
-0.00185928
2.47606e-05
-3.3399e-05
-0.00125801
-1.41885e-05
-8.38187e-05
-0.00183916
-5.43285e-05
-5.5773e-05
-0.0018767
-6.86715e-05
5.97653e-05
-0.00102962
-0.000177269
0.000107657
1.99124e-05
2.96101e-06
5.66609e-05
1.05731e-05
1.03826e-05
-6.15313e-05
-0.00143147
-4.68194e-05
-6.52904e-05
-0.00120623
-1.85923e-05
-8.03854e-05
-0.000609309
8.76798e-06
-8.18539e-05
-0.000586462
1.99835e-05
-6.90561e-05
-9.41872e-05
-1.42005e-05
-4.72341e-05
-0.000358849
-1.60413e-05
-3.54533e-05
0.000118115
9.6366e-06
-3.86298e-05
5.21029e-06
-6.53752e-06
-4.7175e-05
-0.0005559
1.68616e-05
-4.36224e-05
-0.00119952
1.27651e-05
-4.52585e-05
-0.000916395
0.000101852
-3.1939e-05
-0.00101965
-0.00157677
-0.00019091
-0.00321953
0.000119318
-0.0044598
-0.00117008
0.00020457
-0.00438279
-0.00162922
-1.15425e-05
-0.00333513
-0.00040764
0.000267238
-0.00502808
-0.000604867
0.000190265
-0.00491662
-0.000684392
0.000139258
-0.00460108
-0.00141328
0.000143626
-0.00389834
-0.000267129
0.000493404
-0.00530731
-0.000428466
0.000479152
-0.00531463
-0.000442774
0.000399064
-0.00528717
-0.00070643
0.000228147
-0.0051079
-0.00133794
5.8489e-05
-0.0039518
-0.000375223
0.000685646
-0.00580402
-0.000253117
0.000547445
-0.00576546
-7.8517e-05
0.000460132
-0.00576609
-0.000225133
0.000472606
-0.00549666
-0.000500471
0.000373382
-0.00567615
-0.00124586
0.000115971
-0.00435515
-0.000137309
0.00102043
-0.00539963
-0.000108984
0.000989829
-0.00563791
0.000105773
0.000667983
-0.00559357
-0.000154854
0.00048165
-0.00584027
7.99481e-05
0.00046593
-0.00597516
-6.05173e-05
0.000399022
-0.00602438
-0.00114091
0.000138076
-0.00542296
0.000619762
0.00120792
-0.00637982
0.000626888
0.000969529
-0.00644128
0.000178157
0.000853765
-0.00595898
-2.7898e-05
0.000583133
-0.00601438
8.91397e-05
0.000389475
-0.00635244
-1.81546e-05
0.000248734
-0.00661077
0.000185944
0.00015903
-0.00746687
-0.000879745
0.000209239
-0.00615297
0.000372354
0.000801062
-0.00591026
0.000493784
0.000707588
-0.00625342
0.000248724
0.000640512
-0.00667021
-6.45398e-06
0.000437494
-0.00706548
5.35974e-05
0.000425239
-0.00716882
-1.61337e-05
0.000742637
-0.00700451
2.46698e-05
0.00106272
-0.00821267
-3.71342e-05
0.00113188
-0.00861632
-0.000580941
0.000464568
-0.00851687
0.000350514
0.000126997
-0.00547204
0.000453691
0.000270879
-0.00548185
0.000370028
0.00021566
-0.00557174
0.000306162
0.000282427
-0.00554998
0.000154649
0.000239299
-0.00594544
3.73314e-05
0.000191915
-0.00594775
-0.000172906
0.000115771
-0.00507354
-9.94736e-05
0.000280658
-0.00503675
-4.25382e-06
0.000426517
-0.00611688
-0.000146724
0.000391457
-0.00729005
0.000266172
-0.00026783
-0.0027941
0.000362825
3.54318e-06
-0.00390406
0.000280878
9.61469e-05
-0.00435356
0.000245999
7.40307e-05
-0.004466
0.000171272
5.5101e-05
-0.00435094
0.000128196
3.63788e-05
-0.00409614
-6.88703e-05
9.61894e-05
-0.00380831
-0.000125407
0.000266816
-0.00241761
-0.000157849
0.000367594
-0.000964731
-8.22938e-05
0.000336186
-0.000113997
0.000261736
0.000146091
-0.00259509
0.000181337
-0.000185778
-0.000832004
2.374e-05
-0.00024379
-0.00185648
0.000132248
-0.000190871
-0.00276649
0.000209225
-8.35439e-05
-0.00193912
0.000156242
-1.30974e-05
-0.00172939
0.000111477
7.69584e-06
-0.00202605
1.70372e-05
-5.30475e-06
-0.0013696
-7.50499e-05
-6.25177e-05
-0.00174773
-7.5164e-05
-5.64895e-05
-0.00169182
-5.13772e-05
5.62166e-05
-0.000909939
-0.000142369
0.000104217
0.00012749
6.73858e-05
5.13343e-05
-6.29515e-06
1.42698e-05
-5.17886e-05
-0.00195097
-5.03565e-06
-5.74162e-05
-0.00143431
-5.92149e-05
-6.3938e-05
-0.00116346
-1.58916e-05
-8.0589e-05
-0.000594683
9.77147e-06
-8.18074e-05
-0.000583482
1.29798e-05
-6.96732e-05
-8.47279e-05
-2.05425e-05
-5.08876e-05
-0.000322872
-1.46375e-05
-3.87508e-05
0.000132874
8.35054e-06
-4.01458e-05
-1.01695e-05
-1.06813e-05
-4.76389e-05
-0.000541202
1.88465e-05
-4.41156e-05
-0.00121951
1.97314e-05
-4.37685e-05
-0.000924297
9.3331e-05
-3.0145e-05
-0.00108284
-0.00167513
2.47125e-05
-0.00277273
-0.00133365
-3.05616e-05
-0.00400553
-0.0015945
-0.000111464
-0.00314278
0.000111322
-0.00454932
-0.000488954
0.000139386
-0.00451053
-0.000956605
0.000203939
-0.00432605
-0.00159678
-4.42651e-05
-0.00310737
-0.00019377
0.000267152
-0.00505907
-0.000389077
0.000259052
-0.00513625
-0.000480997
0.000119806
-0.00485894
-0.000713445
0.000114234
-0.00456468
-0.00155328
0.000120314
-0.00380331
-0.000503827
0.000540475
-0.00526824
-0.00029611
0.000496074
-0.00528124
-0.000104427
0.00044868
-0.00533833
-0.00041428
0.00040811
-0.00527799
-0.000623119
0.000183962
-0.00511072
-0.00129378
0.000111499
-0.00401538
-0.00031281
0.000825739
-0.00594192
-0.000198762
0.000687579
-0.00585438
-4.92016e-05
0.00055116
-0.00570151
-7.42e-05
0.000482567
-0.00585671
-0.000156962
0.000503712
-0.00539008
-0.000589662
0.000393306
-0.00542434
-0.00134719
8.48282e-05
-0.0042337
0.000521717
0.00113544
-0.00584001
0.000555017
0.00106478
-0.00540271
-7.76273e-05
0.000714459
-0.0054286
-8.26818e-05
0.000618825
-0.00567596
-9.81497e-05
0.000509802
-0.00569685
-7.33164e-05
0.000410348
-0.00593133
-0.000237137
0.000330868
-0.00579409
-0.00129708
0.0001872
-0.00519282
0.000498234
0.00123347
-0.00635296
7.17244e-05
0.00117218
-0.0061604
-0.000164388
0.000913024
-0.00608743
-0.000243566
0.000727695
-0.00586643
-0.000199675
0.00051173
-0.00588337
-7.76398e-05
0.00033404
-0.00637624
-2.56444e-05
0.000278824
-0.00668025
8.13722e-05
0.000123562
-0.0074997
-0.000880713
0.000302873
-0.00615607
0.000371481
0.000705282
-0.00555468
0.000370173
0.000753378
-0.00587253
0.00039577
0.00070017
-0.00633882
-5.62006e-05
0.000615245
-0.0064856
0.000181705
0.000499202
-0.0071665
1.40418e-05
0.000508359
-0.00691125
2.06392e-05
0.000916923
-0.00705226
3.49698e-05
0.0009642
-0.00817943
-0.000226329
0.00111644
-0.00904612
-0.000450798
0.000502071
-0.00871487
0.000378671
0.0001364
-0.00503872
0.000513062
0.000147836
-0.00549924
0.000323128
0.000181048
-0.00548949
0.00031466
0.000267771
-0.00562574
0.000225048
0.000344778
-0.00570923
0.000110046
0.000268665
-0.00600404
-0.000115824
0.000164217
-0.00594924
-0.00015998
0.000220162
-0.00497847
-4.05982e-05
0.000177575
-0.00490506
0.000100781
0.000312439
-0.00622094
0.000190825
0.000343214
-0.00756236
0.000292921
-0.000385413
-0.00295259
0.000286163
-0.000153027
-0.00289995
0.000372934
8.16956e-05
-0.0041303
0.000292808
0.000130609
-0.00449372
0.000200051
8.2845e-05
-0.00453755
0.000144706
6.82349e-05
-0.00441603
8.56338e-05
5.59321e-05
-0.00412448
-0.000133685
0.000122102
-0.00360496
-0.000166235
0.000237807
-0.00219675
-0.000136332
0.000347906
-0.000891497
0.000206421
0.000320048
-0.000636744
0.00033365
0.00012902
-0.00299038
0.00018911
-3.54306e-05
-0.00174319
0.000135393
-0.000143028
-0.0010732
4.52038e-05
-0.000218395
-0.00193337
0.000134689
-0.000147549
-0.00285307
0.00019565
-3.59155e-05
-0.00210218
0.000137131
3.05973e-05
-0.00187644
9.19261e-05
3.5476e-05
-0.0021793
1.33286e-05
2.01189e-05
-0.0014802
-2.98111e-05
-4.63854e-05
-0.00171967
-8.64309e-05
-5.45805e-05
-0.00150527
-3.352e-05
5.39969e-05
-0.000807352
-0.000105926
9.95173e-05
0.000204965
0.000170069
4.5455e-05
-0.000128489
6.25305e-05
-3.47503e-05
-0.00218902
4.39643e-06
-4.82596e-05
-0.00196452
-2.59193e-05
-5.35161e-05
-0.00141881
-7.01981e-05
-6.3992e-05
-0.00110986
-1.62353e-05
-8.22663e-05
-0.000577988
7.8323e-06
-8.14991e-05
-0.000579489
5.88866e-06
-7.00116e-05
-7.14926e-05
-2.47478e-05
-5.41662e-05
-0.000282709
-1.75104e-05
-4.20215e-05
0.00015226
5.73117e-06
-4.18733e-05
-2.16662e-05
-1.30512e-05
-4.833e-05
-0.000523937
1.89019e-05
-4.40652e-05
-0.00123811
2.44278e-05
-4.12761e-05
-0.000937594
8.58993e-05
-2.77949e-05
-0.00114094
1.06761e-05
-0.00232897
-0.00141248
4.32471e-05
-0.00340738
-0.00174844
8.10133e-05
-0.0026998
-0.000505221
-3.7469e-05
-0.00427616
-0.00110026
-3.29027e-05
-0.00394043
-0.00147639
-0.000146366
-0.0031168
0.000218419
-0.0044371
-0.00044656
0.000159644
-0.00451209
-0.000444838
0.000158294
-0.00450105
-0.000868629
0.000127082
-0.00434222
-0.00157368
-2.1414e-05
-0.00306555
-0.000485149
0.000310473
-0.00492746
-0.000423469
0.000293817
-0.00496648
-0.000508051
0.000274856
-0.00488768
-0.000361832
0.000115818
-0.00491298
-0.00065088
0.000128093
-0.00454469
-0.00157098
0.000147561
-0.00367367
-0.000367828
0.000667311
-0.00539166
-0.00038222
0.000601927
-0.00519064
-0.000263559
0.000514942
-0.00513314
-0.000252623
0.000494465
-0.00524626
-0.000272874
0.000449919
-0.00542803
-0.000687226
0.000195256
-0.00509692
-0.0013791
1.08568e-05
-0.00399433
3.72644e-05
0.000968139
-0.00556273
-0.000182569
0.000890336
-0.00540709
-0.000364172
0.000680849
-0.00569752
-0.000161496
0.00052985
-0.00566998
-0.000107835
0.00047807
-0.00582138
-4.31578e-05
0.0004814
-0.00550833
-0.000587521
0.000363993
-0.00535312
-0.00138389
1.40644e-05
-0.00416095
0.000469139
0.00117134
-0.00580376
-0.000140908
0.000990636
-0.00555323
-0.000367267
0.000920733
-0.00540611
-0.000274861
0.000774113
-0.0055526
-0.000402502
0.000590423
-0.00555376
-0.00013347
0.000496018
-0.00572669
-7.42759e-06
0.000392128
-0.0060108
-0.000171199
0.000334115
-0.00568844
-0.00137515
0.000225108
-0.00492349
0.000702336
0.00110875
-0.00609916
0.000142735
0.00115398
-0.00610733
0.000596888
0.000937915
-0.00638641
-0.000149628
0.000837113
-0.00610342
7.78161e-05
0.000612727
-0.00586354
-0.000123443
0.000473853
-0.0058857
2.86826e-05
0.000324355
-0.00642982
5.70129e-05
0.000321293
-0.00690003
-0.000128659
0.00013905
-0.00743354
-0.000869926
0.000367899
-0.00610484
0.000352276
0.000600728
-0.00517592
0.000654001
0.000750035
-0.00569228
0.000518289
0.000635286
-0.00600281
0.000313349
0.000628048
-0.00635031
0.000315836
0.000656034
-0.00673322
-3.69422e-05
0.000498155
-0.00700931
1.53238e-05
0.000663442
-0.00678891
1.37296e-05
0.000829844
-0.00709162
-3.12847e-05
0.00100027
-0.00807257
-0.000296961
0.000814369
-0.00896067
-0.000357649
0.000481275
-0.00864767
0.000510085
0.000133196
-0.00445499
0.000449038
9.48105e-05
-0.00514857
0.000309782
0.000172191
-0.00542723
0.000371289
0.000211811
-0.00551201
0.000262876
0.000253588
-0.00559738
0.000203159
0.000291199
-0.00579022
0.000182145
0.000178267
-0.00611461
-0.000180756
0.000180287
-0.0058623
-0.000358277
0.000152881
-0.00476173
6.38271e-05
0.000117053
-0.00490983
0.000647116
0.000128816
-0.00644724
0.00030487
0.000332214
-0.00786579
0.000362705
-0.000501007
-0.00317077
0.00029075
-0.000230303
-0.00303067
0.000361064
-6.75073e-05
-0.00306661
0.000337607
0.00010049
-0.0043031
0.00021602
0.000144822
-0.00457607
0.000187244
0.000103574
-0.004623
0.000147602
7.78561e-05
-0.00449363
6.38605e-05
4.85443e-05
-0.00410146
-9.0959e-05
8.37048e-05
-0.00338971
-0.000172735
0.000218113
-0.00198065
-6.30138e-05
0.000323087
-0.000865042
0.0003248
0.000302564
-0.00124101
0.000455563
9.4023e-05
-0.00336989
0.000225021
4.50162e-05
-0.00332396
0.000151046
-6.16396e-06
-0.0020267
8.7257e-05
-6.427e-05
-0.0013405
3.05581e-05
-0.000171787
-0.00200989
0.000119234
-0.000110918
-0.00291354
0.000177165
2.15889e-05
-0.0022625
0.000109227
5.02068e-05
-0.00199451
6.20759e-05
3.69599e-05
-0.00228296
8.85052e-07
4.93324e-05
-0.00159432
-4.32443e-05
-4.5091e-05
-0.00168019
-6.49392e-05
-4.85588e-05
-0.00135083
-1.79695e-05
5.13394e-05
-0.000722303
-7.17886e-05
9.18257e-05
0.00025481
0.000254219
4.14574e-05
-0.000338266
6.24556e-05
-2.89267e-05
-0.0025971
5.39641e-05
-3.23147e-05
-0.00225893
-4.96555e-07
-4.38638e-05
-0.00197368
-4.60734e-05
-5.09804e-05
-0.00138575
-6.78119e-05
-6.62366e-05
-0.00105808
-4.44542e-06
-8.30853e-05
-0.000571957
-4.59456e-07
-8.11077e-05
-0.000567933
-9.4496e-07
-7.04126e-05
-5.43013e-05
-2.88438e-05
-5.71953e-05
-0.000238691
-2.35031e-05
-4.52095e-05
0.000179099
4.22988e-06
-4.37604e-05
-3.04657e-05
-1.61781e-05
-4.91468e-05
-0.000502677
2.03045e-05
-4.2645e-05
-0.00125705
2.87253e-05
-3.87693e-05
-0.000955345
7.95379e-05
-2.56966e-05
-0.00119479
0.000126905
-0.00304006
-0.00174632
-3.90145e-05
-0.00229207
-0.000761171
0.000257221
-0.00394634
-0.00120229
0.000113003
-0.00333734
-0.00160834
7.17262e-05
-0.00263958
-0.000674218
0.000193124
-0.00425414
-0.00044264
4.98899e-06
-0.00431624
-0.000998411
-4.21581e-05
-0.00391486
-0.00141574
-0.000134192
-0.00314055
0.000435616
-0.0044715
-0.000577913
0.00029195
-0.00441496
-0.000528411
0.000173148
-0.00450659
-0.000349477
0.00012038
-0.0045067
-0.000708459
3.7183e-05
-0.00434323
-0.00156802
3.54261e-05
-0.00310394
-0.000531441
0.000531634
-0.0050351
-0.000669988
0.000430886
-0.00477676
-0.000573862
0.000356571
-0.00473789
-0.000497391
0.000297158
-0.00482425
-0.000191091
0.000143725
-0.00501039
-0.000531213
0.00015574
-0.00470889
-0.00143631
0.000154379
-0.00377084
-0.000121395
0.000844208
-0.00528347
-0.000458187
0.000682113
-0.00519623
-0.000511507
0.000591253
-0.00511961
-0.00025831
0.000568718
-0.00511058
-0.000122932
0.0004966
-0.00527785
-0.000199379
0.000437208
-0.00551376
-0.000689944
0.000146943
-0.00513058
-0.00134934
4.18752e-05
-0.00407075
9.55535e-05
0.00111668
-0.00534035
-9.9615e-06
0.000878463
-0.0056818
-0.000234298
0.000830273
-0.00568948
-0.000316851
0.000686052
-0.00581173
-0.000235249
0.000505726
-0.00586489
-0.000140177
0.000467015
-0.00580029
-6.41283e-05
0.000484064
-0.0055717
-0.000499739
0.000258261
-0.00526878
-0.00137811
2.33588e-05
-0.00418135
0.000750548
0.00124766
-0.00587693
-4.29752e-06
0.00107916
-0.00574525
0.000444777
0.00116855
-0.00564894
8.23942e-05
0.000753275
-0.00561729
-0.000201329
0.000709873
-0.0053929
-0.000208678
0.000583854
-0.00555636
-6.96984e-06
0.000512851
-0.00581176
-7.20474e-06
0.000401589
-0.00601406
-0.000239513
0.000372615
-0.00572509
-0.00142015
0.000244028
-0.0046173
0.00049923
0.000903278
-0.00569074
0.000288553
0.00108591
-0.00566564
0.000669389
0.000970058
-0.00629057
-3.84373e-05
0.000915864
-0.00611338
0.000139627
0.000723732
-0.00603821
-0.000232662
0.000624841
-0.0058188
-0.000115912
0.000445613
-0.00587572
0.000168397
0.000305166
-0.00656836
9.40543e-05
0.000262235
-0.00714855
-0.00038595
0.000241677
-0.00721833
-0.000756166
0.00039051
-0.00609683
0.000535747
0.000543316
-0.00476365
0.000620548
0.000662754
-0.00526015
0.000392182
0.000627514
-0.0057669
0.000400357
0.000565567
-0.0059694
0.000321811
0.000650082
-0.00640329
0.000119809
0.000522244
-0.00667396
0.000113822
0.00053293
-0.00681047
-0.000146958
0.000609229
-0.0066021
-0.000164185
0.000881229
-0.00716667
6.85579e-05
0.000815634
-0.00807857
-6.46729e-05
0.000704629
-0.00847224
-0.000393279
0.000506246
-0.00845576
0.000451315
7.56606e-05
-0.0043895
0.000484556
9.49747e-05
-0.00464897
0.000373735
0.000167806
-0.00515685
0.000347281
0.000194085
-0.00541918
0.000281906
0.000188363
-0.00551267
0.000401614
0.000234435
-0.00575498
0.000200148
0.000209931
-0.00587443
0.000109976
0.000177391
-0.00615783
-0.000297981
0.000188186
-0.00569058
-0.000291431
0.000160263
-0.00468624
0.000139179
5.65586e-05
-0.00503977
0.000764338
0.000135406
-0.00668997
0.000345256
0.000286804
-0.00804229
0.000423463
-0.000315202
-0.00253101
0.000358703
-0.000302194
-0.00330653
0.000275872
-0.000142489
-0.0031443
0.000366797
-2.62509e-05
-0.00327611
0.000300713
9.76198e-05
-0.00443737
0.000172787
0.00015538
-0.00462349
0.000159479
0.000107597
-0.004703
8.40866e-05
5.8948e-05
-0.00452604
2.51325e-05
9.29551e-05
-0.00413496
-0.000111101
6.90361e-05
-0.00317278
-0.000103759
0.000235187
-0.00185393
8.42822e-05
0.000291999
-0.000956729
0.000293555
0.000295328
-0.00180766
0.000542849
4.56584e-05
-0.00370418
0.000213754
2.60418e-05
-0.00292851
0.000213357
2.61124e-05
-0.00351563
0.000135688
4.51541e-05
-0.00227231
9.44806e-05
5.85168e-06
-0.00165869
1.79452e-05
-0.000124554
-0.00208201
0.00013864
-5.09573e-05
-0.00298408
0.000139446
4.84923e-05
-0.0024007
7.6882e-05
5.77878e-05
-0.00209317
4.3791e-05
5.35762e-05
-0.00235984
-2.54053e-05
4.9446e-05
-0.00168695
-0.000106121
-3.92115e-05
-0.00157918
-5.72177e-05
-4.87133e-05
-0.00120974
-1.20576e-05
4.76657e-05
-0.000645781
-1.56811e-05
8.12162e-05
0.000259458
0.000312849
4.28041e-05
-0.000614381
5.97431e-05
-3.01116e-05
-0.00179071
5.87698e-05
-2.65911e-05
-0.00266159
5.04028e-05
-3.02311e-05
-0.00232296
-3.06675e-06
-3.99955e-05
-0.0019816
-5.90445e-05
-4.97963e-05
-0.00134314
-7.03168e-05
-6.9776e-05
-0.00100107
-4.45986e-06
-8.32737e-05
-0.000565331
-8.06108e-06
-8.07035e-05
-0.000549581
-6.82728e-06
-7.09757e-05
-3.36935e-05
-3.14693e-05
-5.99644e-05
-0.000192467
-2.29999e-05
-4.82358e-05
0.000206575
1.52344e-06
-4.57293e-05
-3.54066e-05
-1.8874e-05
-4.99134e-05
-0.000476535
2.14073e-05
-4.22836e-05
-0.00127494
2.94133e-05
-3.65288e-05
-0.000973926
7.61273e-05
-2.35853e-05
-0.00124733
-0.00162272
-9.17025e-05
-0.00241155
0.000294923
-0.00356519
-0.00144157
0.000113151
-0.00295294
-0.00166512
2.18461e-05
-0.00225713
-0.00096046
0.000497564
-0.00383579
-0.000648282