/*--------------------------------*- C++ -*----------------------------------*\
  =========                 |
  \\      /  F ield         | OpenFOAM: The Open Source CFD Toolbox
   \\    /   O peration     | Website:  https://openfoam.org
    \\  /    A nd           | Version:  7
     \\/     M anipulation  |
\*---------------------------------------------------------------------------*/
FoamFile
{
    version     2.0;
    format      ascii;
    class       volVectorField;
    location    "9";
    object      U_0;
}
// * * * * * * * * * * * * * * * * * * * * * * * * * * * * * * * * * * * * * //

dimensions      [0 1 -1 0 0 0 0];

internalField   nonuniform List<vector> 
18750
(
(1.81418 -0.45042 -0.431635)
(2.47139 0.584822 -0.464925)
(1.84411 0.277476 -1.32226)
(2.10725 -0.498396 -0.445391)
(0.602264 2.51936 0.00830819)
(2.61934 0.381819 -0.45704)
(2.26713 0.444558 -0.426544)
(0.193844 0.681484 -0.803275)
(1.74912 0.298268 -1.14701)
(2.40323 -0.569607 -0.481832)
(-0.311276 5.08386 0.802039)
(0.67734 3.24909 0.0973392)
(0.269538 2.34316 -0.168974)
(1.21172 1.14793 1.22016)
(1.56246 0.432122 -0.0547607)
(2.09972 0.260443 -0.368251)
(0.24502 0.379958 -0.816989)
(0.196401 0.702283 -0.75385)
(1.60158 0.289167 -1.03202)
(2.64407 -0.668717 -0.531776)
(-1.8747 4.12317 0.157876)
(1.2503 4.53451 1.32052)
(-0.304089 5.04175 0.710641)
(-0.825834 1.79553 2.7247)
(0.0631169 0.308219 0.171068)
(0.0427752 2.18808 0.304822)
(0.440202 1.97569 0.468012)
(0.919948 1.16211 1.11558)
(0.64745 0.548624 0.398534)
(1.88629 0.168805 -0.271688)
(0.139429 -0.0544639 -1.10829)
(0.240825 0.376499 -0.84955)
(0.260243 0.699386 -0.742014)
(1.41964 0.291734 -0.988623)
(2.77102 -0.76224 -0.587169)
(-0.879861 3.35904 0.703171)
(-1.40607 4.21801 0.869092)
(-1.53207 4.33221 0.415342)
(-0.330246 4.40002 1.52651)
(1.65667 4.21745 1.34637)
(-0.103489 4.98882 0.576828)
(0.0442461 2.70658 1.99822)
(-0.740519 1.63957 3.13409)
(-0.229463 -2.20906 0.686134)
(-0.138575 2.13338 0.281557)
(-0.329309 1.3655 0.213678)
(0.501003 1.88933 0.481122)
(0.753839 1.09407 0.997363)
(-0.0610489 0.682335 0.662548)
(1.67167 0.036368 -0.234536)
(-0.0731102 0.0118979 -0.538358)
(0.149236 -0.063972 -1.06096)
(0.235491 0.372623 -0.886475)
(0.355853 0.683449 -0.781445)
(1.23105 0.287744 -0.978239)
(2.68592 -0.800056 -0.612237)
(-1.66127 3.82502 0.201198)
(-1.65312 3.58234 0.29328)
(-0.684727 3.64838 0.553214)
(-0.611619 4.32654 1.28662)
(-1.19536 4.11896 0.766167)
(-1.27186 4.36754 0.499841)
(0.18446 4.22677 1.49192)
(-0.255684 4.39728 1.4965)
(-0.0409375 4.20755 1.31013)
(0.132961 4.96612 0.485919)
(0.433046 3.06875 2.13147)
(0.0945565 2.71629 2.09789)
(-0.492763 1.59569 2.86757)
(-0.328407 -0.738678 0.990695)
(-0.503645 2.0982 0.372839)
(-1.0914 0.755089 0.852431)
(-0.30795 1.38046 0.106333)
(0.544997 1.80052 0.435785)
(0.554719 1.08568 0.941973)
(-0.922656 0.86821 0.990984)
(1.44147 -0.0874722 -0.214687)
(-0.342471 0.329894 -0.110058)
(-0.101798 0.0036824 -0.530346)
(0.15899 -0.0713784 -1.01927)
(0.232043 0.365647 -0.929769)
(0.348391 0.685328 -0.783186)
(1.05062 0.285287 -0.986706)
(2.49505 -0.788907 -0.594056)
(-1.20903 3.23934 -0.079281)
(-0.703489 4.01548 0.791468)
(-1.14423 3.98238 0.134398)
(-0.351171 3.88744 0.939934)
(-0.730584 3.88373 0.656018)
(-0.503083 3.83734 0.590958)
(0.0860158 4.39014 1.07767)
(-0.675746 4.48679 1.07354)
(-1.12839 4.11152 0.537994)
(-0.85152 4.60049 0.595679)
(0.586395 4.1723 1.28428)
(0.234247 4.19411 1.20466)
(-0.274538 4.29473 1.31035)
(0.575655 3.91756 1.37043)
(0.284671 4.91089 0.419401)
(0.979092 2.43116 0.607063)
(0.611476 2.91677 2.09744)
(0.0544342 2.55738 2.31025)
(-0.447813 1.52363 2.62805)
(-0.703691 -0.77467 1.21022)
(-0.738985 2.10018 0.337992)
(0.259247 0.856278 0.606372)
(-1.09147 0.880504 0.541896)
(-0.1983 1.39729 -0.191948)
(0.545446 1.69907 0.367352)
(0.512807 1.01751 0.888508)
(-1.15833 0.931827 1.10272)
(1.11984 -0.13312 -0.123715)
(0.0993873 0.0699275 -0.967277)
(-0.367491 0.337297 -0.227617)
(-0.0996579 -0.0089343 -0.552045)
(0.191668 -0.0865967 -0.992128)
(0.223517 0.366038 -0.975211)
(0.363668 0.690649 -0.750884)
(0.891903 0.288234 -1.01221)
(2.26006 -0.748448 -0.560102)
(-1.66237 2.75879 0.0625951)
(-0.573708 3.99505 0.377716)
(-1.18678 3.20043 -0.101829)
(-0.588435 4.15937 0.385148)
(-0.192937 4.11608 0.794259)
(-0.877035 4.07516 0.0454955)
(-0.783832 3.76322 1.19367)
(0.315592 3.97866 1.05941)
(-0.319503 4.07391 0.624217)
(-0.0162948 3.90701 0.576438)
(0.534088 4.87367 0.931049)
(-0.244267 4.54425 1.11658)
(-0.543168 4.71509 0.884545)
(-0.861251 4.19258 0.577563)
(-0.856205 4.97602 0.46199)
(0.84963 3.77187 0.799168)
(1.1035 4.15544 1.11866)
(0.136424 3.99149 0.874787)
(-0.427749 4.06701 1.19327)
(0.265094 3.87122 1.45335)
(0.483893 4.88973 0.118277)
(1.34889 2.6466 -0.0696018)
(1.01322 2.38451 0.534084)
(0.735539 2.93559 1.67381)
(0.141332 2.50445 2.20314)
(-0.507703 1.39711 2.06678)
(-1.08682 -0.403257 1.31948)
(-0.8139 2.11421 0.479992)
(0.919458 0.79512 -0.567217)
(0.538395 0.856948 0.226946)
(-0.917219 0.90917 0.26174)
(-0.150926 1.378 -0.364336)
(0.526819 1.60415 0.282246)
(0.519466 0.904925 0.85481)
(-0.997393 0.81281 0.96097)
(0.865418 -0.200849 -0.072485)
(-0.284277 0.41503 -1.73031)
(0.0405298 0.0691123 -1.02294)
(-0.397231 0.359996 -0.346646)
(-0.0904899 -0.0225855 -0.581129)
(0.213117 -0.103511 -0.98499)
(0.210138 0.354244 -1.00289)
(0.38103 0.673845 -0.751769)
(0.765164 0.299377 -1.04241)
(2.01412 -0.683301 -0.519896)
(-1.35189 2.63474 0.0971681)
(-1.17939 3.38765 0.231622)
(-1.68079 2.7508 0.0552291)
(-0.750131 3.63865 0.762539)
(-0.070748 3.97663 0.401269)
(-0.86255 3.23252 -0.10976)
(-0.272671 3.96866 0.781672)
(-0.124173 4.14321 0.41166)
(0.544391 4.26919 0.811822)
(-0.656766 4.16507 -0.034005)
(1.75043 3.52432 1.72379)
(0.805639 3.83596 1.15157)
(0.726837 4.09276 0.929597)
(0.903992 4.089 0.196524)
(0.098082 4.08885 0.329172)
(0.987073 4.73523 1.1509)
(0.690416 4.82234 1.07402)
(0.165417 4.5309 1.05439)
(-0.0192319 4.71022 0.871466)
(-0.494519 4.42367 1.10499)
(-0.565547 5.1204 0.313285)
(1.92394 3.21991 0.855581)
(1.36605 3.60024 0.676471)
(1.92376 3.79024 0.287837)
(0.0673007 3.90911 0.482933)
(-0.19961 3.89349 1.31128)
(0.350355 3.82848 1.53556)
(0.660662 4.82662 0.176523)
(1.51024 2.57407 -0.0509386)
(1.43295 2.57436 -0.200266)
(1.10401 2.38266 0.466326)
(1.10756 2.78895 1.21942)
(0.146109 2.26669 1.95558)
(-0.64918 1.36606 1.90147)
(-1.30092 -0.041257 1.30494)
(-0.695953 2.09825 0.308626)
(0.664744 0.900916 -1.75096)
(0.967923 0.755612 -0.456449)
(0.958021 0.834684 -0.327941)
(-0.63742 0.906445 -0.00795868)
(-0.0732666 1.359 -0.482283)
(0.513041 1.49155 0.192808)
(0.569933 0.780499 0.817108)
(-0.72196 0.665495 0.890042)
(0.684419 -0.273007 -0.0543091)
(-0.0817538 0.42967 -1.78672)
(-0.290545 0.426747 -1.72224)
(-0.0130594 0.0742907 -1.08577)
(-0.421628 0.387298 -0.469331)
(-0.101705 -0.0244428 -0.600296)
(0.237535 -0.121296 -0.974901)
(0.196648 0.352064 -0.997158)
(0.438134 0.62888 -0.828618)
(0.675887 0.313704 -1.06459)
(1.78337 -0.601193 -0.478132)
(-1.56737 2.46351 -0.215509)
(-0.966948 3.03624 0.161454)
(-1.2067 2.715 0.05475)
(-0.851149 3.60217 0.554026)
(-0.959947 3.45251 0.214282)
(-1.33108 2.85651 0.196577)
(-0.516827 3.71777 0.514093)
(0.29743 3.63125 0.498233)
(0.125047 3.90064 0.446705)
(-0.843612 3.19843 -0.107385)
(0.0253737 3.74188 0.988659)
(-0.0184847 3.88967 0.793823)
(0.163732 4.08793 0.49287)
(0.712047 4.23157 0.835098)
(-0.522343 4.1598 -0.133154)
(1.83797 3.64633 1.71003)
(0.450074 3.85001 1.19023)
(0.476113 3.89426 1.12682)
(0.705925 4.27035 0.395383)
(1.94131 4.07023 0.831071)
(0.453186 4.29587 0.592463)
(1.02108 4.40493 1.55141)
(0.788691 4.87051 1.14599)
(1.44563 4.56784 0.800849)
(0.434867 4.51956 1.13171)
(1.61794 4.67836 1.48924)
(-0.0549955 4.7691 1.3423)
(0.128905 5.24442 -0.258129)
(1.67492 3.39824 0.729163)
(1.36337 3.33266 0.798814)
(1.47577 3.60151 0.489025)
(0.79504 4.05879 0.390813)
(0.230138 3.8345 0.0677609)
(0.240365 3.78237 1.43709)
(0.812195 3.69868 1.63)
(1.41007 4.71073 0.00347464)
(1.56493 2.5791 -0.199235)
(1.60346 2.59341 0.228883)
(1.40557 2.59428 -0.0927517)
(1.29249 2.37124 0.356484)
(1.31148 2.42813 1.35014)
(0.232906 2.09068 1.59342)
(-0.692948 1.28663 1.82501)
(-1.44747 0.262369 1.182)
(-0.523554 1.98736 0.359428)
(-0.131781 1.65538 -1.47364)
(0.808073 0.936632 -1.33181)
(0.986428 0.767388 -0.378066)
(1.03995 0.861196 -0.42924)
(-0.34007 0.889136 -0.232067)
(0.128283 1.3129 -0.837872)
(0.54195 1.35592 0.105573)
(0.590116 0.645655 0.799148)
(-0.508651 0.475332 0.89456)
(0.591893 -0.354201 -0.0644684)
(-0.410768 0.828095 -1.53088)
(-0.103355 0.437534 -1.78503)
(-0.305578 0.445843 -1.7155)
(-0.0616486 0.0847703 -1.15042)
(-0.434611 0.41249 -0.594624)
(-0.124356 -0.0214408 -0.622212)
(0.260278 -0.13501 -0.977358)
(0.200611 0.353571 -0.982414)
(0.50396 0.62124 -0.90218)
(0.636309 0.298886 -1.0703)
(1.58049 -0.511172 -0.437285)
(-0.995379 2.99522 0.125521)
(-1.56362 2.47286 -0.187939)
(-0.467415 3.25952 0.194548)
(-0.411341 3.12508 0.183472)
(-0.986617 2.73689 0.0681016)
(-0.556262 3.48018 0.603237)
(-0.35093 3.60642 0.489684)
(-0.468453 3.50407 0.18402)
(-1.13342 2.93676 0.193031)
(-0.0593587 3.86744 0.686198)
(-0.114255 3.69214 0.437431)
(0.345512 3.58249 0.560749)
(0.256579 3.93356 0.411887)
(-0.620438 3.2746 -0.103786)
(0.457063 3.65693 1.31343)
(0.549564 3.63194 1.15418)
(0.224465 3.8325 0.77498)
(0.437472 4.05936 0.535797)
(1.30002 3.97018 0.834824)
(-0.432778 4.15776 -0.205467)
(0.853475 3.9453 1.8933)
(0.116687 4.0567 1.49871)
(1.10081 3.84064 1.22635)
(0.747136 3.97646 0.696827)
(1.53103 4.15529 0.475823)
(2.45216 4.29601 0.174751)
(0.790622 4.24128 0.763129)
(1.48228 4.00044 1.57853)
(1.20537 4.43219 1.4512)
(1.64477 4.56721 1.12333)
(1.36096 4.53652 0.907743)
(1.24287 4.63176 1.4339)
(1.96407 4.86623 2.11149)
(1.4206 5.02828 2.15647)
(0.777428 5.65816 -0.889362)
(1.18237 3.68285 0.699948)
(1.39852 3.49368 0.689356)
(1.82128 3.23247 0.691782)
(1.57474 3.62957 0.339974)
(0.92159 4.07714 0.398331)
(0.617788 3.5547 0.941815)
(0.681141 3.53292 1.50262)
(2.59115 3.08474 1.89509)
(1.86888 4.49361 0.26091)
(1.6282 2.27818 0.339844)
(1.60918 2.65667 0.207243)
(1.62325 2.65077 0.196548)
(1.48627 2.59027 0.105185)
(1.57266 2.23563 0.253839)
(1.94082 2.29892 -0.321371)
(0.312496 1.89301 1.40733)
(-0.783317 1.25058 1.82072)
(-1.44965 0.651646 1.1009)
(-0.0884931 1.86742 0.223621)
(-0.131835 1.15795 -1.70383)
(-0.0271531 1.76024 -1.16064)
(1.00362 0.963312 -0.963242)
(1.04809 0.802168 -0.186067)
(1.00252 0.939243 -0.315069)
(-0.0805098 0.8851 -0.316942)
(0.225541 1.27799 -0.916958)
(0.533894 1.24122 0.0522762)
(0.61418 0.495702 0.769788)
(-0.370837 0.291012 0.909452)
(0.566428 -0.453445 -0.0906221)
(-0.404633 0.929119 -1.28612)
(-0.349813 0.822699 -1.53959)
(-0.12295 0.435173 -1.79496)
(-0.31532 0.47193 -1.70898)
(-0.102955 0.0995441 -1.21113)
(-0.439561 0.433596 -0.718923)
(-0.152318 -0.0122382 -0.650591)
(0.268757 -0.159117 -0.993506)
(0.209317 0.324864 -0.977093)
(0.549371 0.584647 -0.934474)
(0.667526 0.238019 -1.04495)
(1.40902 -0.417866 -0.397717)
(-1.13099 2.27106 -0.317256)
(-0.54868 2.95127 0.162577)
(-0.820175 2.98588 0.190549)
(-1.3619 2.54281 -0.21851)
(-0.265432 3.26614 0.180657)
(-0.275446 3.30319 0.187824)
(-0.0191197 3.11268 0.238002)
(-0.514216 2.83978 0.0868643)
(-0.293819 3.52714 0.593344)
(-0.425834 3.53154 0.630991)
(0.0161733 3.54184 0.429224)
(-0.219126 3.50338 0.101165)
(-0.972039 3.00851 0.273913)
(-0.0798838 3.88792 0.674267)
(0.0415903 3.89135 0.665076)
(0.165372 3.72716 0.556698)
(0.738843 3.57881 0.597038)
(0.574223 3.86472 0.413357)
(-0.542761 3.29811 -0.100704)
(0.0345891 3.8882 1.53195)
(0.281547 3.63122 1.19599)
(0.864665 3.60394 0.962018)
(0.532051 3.9091 0.721836)
(1.45965 3.74505 0.614326)
(1.67424 3.81966 0.8242)
(-0.246572 4.20277 -0.315433)
(0.812108 4.07193 2.16229)
(0.673067 4.09658 1.7762)
(1.07614 3.80826 1.57295)
(0.948663 3.93789 1.00547)
(1.55581 3.91667 0.581554)
(1.59991 4.1406 0.430429)
(2.85817 4.16333 0.0974419)
(1.30716 4.03036 1.06357)
(1.0864 3.78375 1.91079)
(1.74987 3.96237 1.58777)
(1.6747 4.17635 1.28842)
(1.58585 4.45905 0.86148)
(1.49418 4.61752 0.961394)
(1.6948 4.43702 2.15957)
(2.24329 4.8995 2.48956)
(2.17336 5.17962 3.11262)
(0.969618 5.79822 -1.09)
(1.13645 3.61872 0.350437)
(1.78536 3.26838 1.03377)
(1.40934 3.50973 0.838484)
(1.72413 3.33892 0.730709)
(1.53522 3.62812 0.412271)
(1.48061 3.71922 0.410101)
(0.648163 3.55647 0.370919)
(1.28401 3.26744 1.08423)
(2.72609 3.1424 1.72216)
(3.29088 3.65179 0.78078)
(0.694837 1.79194 -0.666049)
(1.76531 2.36991 0.322874)
(1.78046 2.59041 0.384573)
(1.63992 2.64758 0.212147)
(1.56466 2.54675 0.184365)
(1.65969 2.249 0.146761)
(1.32833 2.25795 0.479391)
(0.36698 1.7831 1.47344)
(-0.687725 1.24678 1.78259)
(-1.32534 0.926461 1.06316)
(0.276859 1.77597 0.253779)
(1.07613 0.421649 -1.62737)
(-0.334132 1.2393 -1.83765)
(0.091233 1.80682 -0.876972)
(1.17739 0.986966 -0.651646)
(1.06307 0.836211 -0.0567021)
(0.989796 0.996326 -0.153966)
(0.134174 0.895277 -0.255414)
(0.317962 1.19505 -0.888795)
(0.499246 1.12542 0.0410189)
(0.661773 0.345459 0.714067)
(-0.218517 0.108307 0.896882)
(0.594794 -0.561616 -0.125058)
(-0.174282 1.25818 -1.34965)
(-0.387686 0.96907 -1.23574)
(-0.333728 0.839163 -1.537)
(-0.141282 0.442551 -1.80265)
(-0.316587 0.49661 -1.70294)
(-0.137557 0.115816 -1.26524)
(-0.438182 0.449072 -0.839787)
(-0.182521 0.00229658 -0.684432)
(0.256213 -0.153357 -1.02356)
(0.205268 0.330763 -0.972197)
(0.60616 0.546714 -0.957377)
(0.698279 0.205688 -1.00401)
(1.26817 -0.322916 -0.358377)
(-1.11017 1.98154 0.0642555)
(-0.809153 2.72417 0.00842779)
(-0.940734 2.28693 -0.184516)
(-0.377158 2.99955 0.0631504)
(-0.364334 2.9847 0.178527)
(-0.399712 2.97845 0.201572)
(-1.28306 2.47955 -0.24757)
(-0.101653 3.3384 0.355228)
(0.0616981 3.39153 0.202078)
(0.0942238 3.23489 0.0714331)
(0.0437578 3.08397 0.21487)
(-0.528533 2.82384 0.0265242)
(-0.615207 3.49525 0.566977)
(0.0601942 3.51757 0.503479)
(0.824264 3.48649 0.534942)
(0.290971 3.51942 0.419622)
(0.276889 3.49568 -0.119989)
(-0.514771 3.12191 0.35978)
(-0.140298 3.91181 1.08216)
(0.172987 3.83148 0.778326)
(0.668804 3.73275 0.66081)
(0.809328 3.79948 0.657694)
(0.944163 3.46979 0.618171)
(0.882271 3.60192 0.439857)
(-0.263265 3.29327 -0.110867)
(1.50664 3.54778 1.67147)
(2.13776 2.98591 1.90866)
(0.709072 3.55554 1.15966)
(0.787156 3.65976 0.828954)
(1.02368 3.67454 0.810391)
(1.27468 3.73838 0.485501)
(1.35004 3.71298 0.706609)
(-0.369555 4.27464 -0.231687)
(0.643098 4.09787 2.3908)
(1.13336 3.99271 1.95785)
(0.740367 3.99155 1.64789)
(0.318798 3.91879 1.28011)
(1.26651 3.68708 0.873302)
(1.39214 4.03155 0.514465)
(1.87249 3.98564 0.519154)
(2.76474 4.19973 -0.304679)
(1.81061 3.79758 1.36772)
(0.882742 3.81334 1.70642)
(1.25252 3.75225 1.7122)
(1.80766 3.8935 1.63757)
(1.7396 4.06204 1.19745)
(1.78783 4.40744 0.933624)
(1.84844 4.41949 1.19416)
(2.02697 4.17814 2.51115)
(2.6091 4.96752 2.14369)
(2.57122 5.47471 3.04407)
(1.98408 5.88183 -0.310107)
(1.36857 3.25651 0.397755)
(1.29284 3.51913 0.581)
(1.25723 3.51473 0.474464)
(1.57943 3.42603 0.896852)
(1.52485 3.43949 1.01055)
(1.5471 3.6365 0.73263)
(0.936557 3.93914 0.367171)
(1.17651 3.22642 0.772629)
(1.76463 2.85286 0.914188)
(3.04407 2.9896 1.45569)
(5.36835 2.24976 1.51179)
(0.707315 1.86417 -1.54062)
(0.93922 1.78747 -0.351816)
(2.0952 2.35015 0.405438)
(1.87013 2.5531 0.40142)
(1.64746 2.62556 0.254313)
(1.57744 2.53716 0.189616)
(1.59984 2.30777 0.262981)
(0.778141 2.4283 0.739746)
(0.2271 1.68741 1.5073)
(-0.566611 1.14179 1.7252)
(-1.06252 1.09678 1.08452)
(0.979139 1.6364 0.154882)
(0.833438 0.995072 -0.996309)
(0.784992 0.522514 -1.60275)
(-0.523476 1.32956 -1.76881)
(0.358599 1.82835 -0.597131)
(1.33256 0.994321 -0.235646)
(1.03843 0.904309 0.218188)
(0.974329 1.12495 0.175272)
(0.295883 0.903203 -0.011752)
(0.375208 1.15176 -0.896523)
(0.446347 1.0217 0.0471969)
(0.655533 0.224412 0.679446)
(-0.10209 -0.0682324 0.860978)
(0.661056 -0.660937 -0.137444)
(0.425858 1.35925 -0.814849)
(-0.163464 1.28222 -1.24927)
(-0.379777 1.0043 -1.17967)
(-0.295871 0.830145 -1.55038)
(-0.150811 0.452281 -1.81315)
(-0.314408 0.52637 -1.69122)
(-0.166801 0.132238 -1.3092)
(-0.43228 0.459873 -0.954435)
(-0.212831 0.0198855 -0.725161)
(0.245961 -0.167844 -1.05615)
(0.198036 0.31201 -0.971706)
(0.648253 0.523983 -0.9508)
(0.686287 0.182142 -0.968493)
(1.1585 -0.229405 -0.317649)
(-1.2228 1.67373 0.000210417)
(-0.936586 2.31463 -0.0189854)
(-1.07763 1.97304 0.0560832)
(0.024092 2.81542 -0.067327)
(-0.493746 2.74523 0.00610072)
(-0.738853 2.26823 -0.22596)
(-0.0458618 2.90915 0.139885)
(-0.198183 2.98792 0.0969345)
(-0.0954423 3.01256 0.18243)
(-0.143411 2.95445 0.161876)
(-1.21766 2.44219 -0.131514)
(-0.327298 3.21544 0.222406)
(-0.104289 3.34893 0.325206)
(0.051293 3.34107 0.174212)
(0.337759 3.19727 0.0322093)
(0.180067 3.08384 0.236907)
(-0.506879 2.82446 0.00610929)
(-0.385908 3.53024 0.681435)
(0.0562383 3.46024 0.675727)
(0.375365 3.38009 0.539426)
(0.664488 3.38178 0.573074)
(0.66773 3.4685 0.5203)
(0.127324 3.52852 -0.0786842)
(-0.668196 3.1583 0.22141)
(0.315469 3.6864 1.17659)
(0.164248 3.58782 1.165)
(0.295189 3.76218 0.854639)
(0.729401 3.58069 0.65958)
(0.925146 3.77058 0.718047)
(1.16322 3.41339 0.617147)
(1.12054 3.44371 0.367044)
(-0.190454 3.24823 -0.119618)
(1.31976 3.54365 1.89811)
(-0.239128 3.98543 1.46517)
(-0.0829694 3.70785 1.07393)
(0.509106 3.61597 1.11547)
(0.222217 3.78341 0.821508)
(1.14563 3.5731 0.787098)
(1.46827 3.72738 0.393902)
(1.6063 3.46214 0.754554)
(-0.452771 4.27171 -0.25539)
(0.874681 3.98121 2.18819)
(1.01454 3.94933 2.32497)
(1.20179 4.02649 1.74123)
(-0.060066 4.15071 1.46793)
(1.47705 3.6043 1.12626)
(1.21762 3.70174 0.737673)
(1.75668 3.88252 0.534463)
(2.27429 3.86992 0.73117)
(2.56358 4.39503 -0.246389)
(2.1396 3.54528 1.34629)
(0.796909 3.51776 1.56556)
(1.97256 3.3063 1.72401)
(1.67372 3.72758 1.58239)
(1.85237 3.84809 1.61408)
(2.01269 3.93228 1.38082)
(2.11889 4.32331 1.02137)
(2.16052 3.96976 1.80039)
(2.00879 4.21345 2.37911)
(2.64403 4.71764 2.3819)
(3.04668 5.40126 2.56327)
(2.16527 5.84017 0.00158673)
(1.49887 2.80608 0.459589)
(1.54224 3.19613 0.266434)
(1.41992 3.33573 0.645331)
(1.60108 3.35196 0.678678)
(1.66568 3.36285 1.01429)
(1.73331 3.39912 0.912952)
(1.7485 3.69038 0.612171)
(1.39267 3.77154 0.601095)
(1.24603 3.08802 0.332287)
(1.96513 2.66682 0.562827)
(5.05557 1.60797 0.498071)
(5.52795 1.94704 1.25257)
(1.10737 1.96738 -1.82585)
(0.77235 1.90277 -0.958409)
(1.63442 1.7108 0.235069)
(2.16795 2.33581 0.689775)
(1.84445 2.58878 0.433635)
(1.76751 2.5753 0.353835)
(1.70585 2.49 0.250683)
(1.60847 2.24805 0.251331)
(1.27934 2.03202 0.516878)
(0.186524 1.60166 1.40641)
(-0.358828 1.043 1.60436)
(-0.547255 1.34245 1.05751)
(2.00817 1.04578 -0.0836599)
(1.14033 2.03359 0.411665)
(0.758562 1.15164 -0.426111)
(0.411118 0.710636 -1.35312)
(-0.723133 1.49544 -1.47296)
(0.542608 1.82627 -0.397359)
(1.45398 1.00034 0.17323)
(1.0041 0.961948 0.299787)
(0.987099 1.17842 0.25808)
(0.385068 0.973392 0.246228)
(0.37451 1.13262 -0.884331)
(0.408789 0.925428 0.0530939)
(0.644541 0.120525 0.656924)
(-0.0147751 -0.231991 0.790047)
(0.773384 -0.723327 -0.120863)
(0.668385 1.65344 -0.610185)
(0.358268 1.40716 -0.799098)
(-0.138107 1.31084 -1.13911)
(-0.368954 1.0104 -1.16338)
(-0.114345 0.770662 -1.62216)
(-0.152084 0.461996 -1.82504)
(-0.302449 0.554181 -1.67581)
(-0.191893 0.148427 -1.34459)
(-0.425751 0.467302 -1.06208)
(-0.243366 0.0347795 -0.773281)
(0.239736 -0.171342 -1.09571)
(0.191888 0.311051 -0.978275)
(0.705015 0.472323 -0.899889)
(0.685263 0.161458 -0.908763)
(1.07492 -0.155085 -0.277074)
(-0.910698 2.06061 0.0206783)
(-1.16936 1.71281 -0.0279101)
(-0.336893 2.63312 0.0780012)
(-0.538255 2.35346 0.0806663)
(-0.816849 2.00728 0.0536244)
(-0.0763585 2.77856 0.00625628)
(0.20413 2.81335 -0.0711674)
(-0.221004 2.70007 -0.0122347)
(-0.500195 2.33641 -0.237772)
(-0.420086 2.96555 0.264356)
(-0.0976089 2.89999 0.191637)
(-0.0620956 2.99569 0.123396)
(0.299873 2.97682 0.0903834)
(0.211538 2.94955 0.0879915)
(-0.961284 2.54356 -0.0321121)
(-0.23878 3.31563 0.417815)
(-0.289255 3.19199 0.314458)
(0.0566299 3.15597 0.39289)
(0.263096 3.16676 0.206153)
(0.714243 3.23047 0.0372388)
(0.599262 3.0483 0.287184)
(-0.1984 2.80763 0.0228735)
(0.00706009 3.43463 0.906366)
(0.0106854 3.46153 0.742521)
(-0.0334345 3.38188 0.664304)
(0.472675 3.30969 0.614666)
(0.952815 3.3377 0.584678)
(1.25554 3.42865 0.525589)
(0.332875 3.61832 -0.189225)
(-0.436651 3.26854 0.169144)
(0.35638 3.45647 1.40395)
(0.519505 3.70425 1.10372)
(0.238715 3.71302 0.958606)
(0.419136 3.77447 0.789643)
(0.827369 3.73464 0.607355)
(1.15567 3.65861 0.678129)
(1.67968 3.31771 0.617625)
(1.42803 3.2497 0.169049)
(0.0360952 3.2803 -0.0972432)
(1.79663 3.54202 1.81385)
(0.159537 3.95518 1.58686)
(2.11889 3.19972 1.80999)
(1.39606 3.39562 1.30751)
(0.926403 3.47175 1.04793)
(0.997087 3.5652 0.807259)
(1.6424 3.49182 0.821337)
(1.8246 3.5543 0.376296)
(1.71872 3.45636 0.880992)
(-0.375364 4.23757 -0.328738)
(0.787094 3.86619 1.93557)
(1.35788 3.58022 2.02412)
(1.7114 3.96092 1.80066)
(1.29218 3.93222 1.61392)
(1.65481 3.79351 1.1546)
(0.768506 3.83812 1.09323)
(1.35973 3.67967 0.693291)
(2.30117 3.61627 0.518237)
(2.53084 3.99845 0.738524)
(2.31288 4.36711 0.0545916)
(2.84813 3.01235 1.30129)
(1.24757 3.05525 1.1185)
(1.35536 3.20211 1.76819)
(1.32614 3.60178 1.39083)
(1.94237 3.59633 1.28231)
(1.9842 3.83131 1.60685)
(2.20753 3.89648 1.33323)
(2.73279 3.8338 1.14844)
(1.85397 4.06028 1.5832)
(1.49501 4.72378 2.28875)
(3.44605 4.28746 1.61393)
(4.02774 4.47314 2.11598)
(3.09434 5.07625 0.119154)
(1.52861 2.77396 0.297205)
(1.74606 2.82388 0.329123)
(1.69557 3.10485 0.370384)
(1.53307 3.31284 0.584942)
(1.55673 3.33617 0.501429)
(1.86197 3.32565 0.85486)
(2.08577 3.33356 0.544506)
(1.99558 3.58634 0.435882)
(1.37548 3.74699 0.65801)
(1.34445 2.93488 0.264023)
(2.34015 2.4278 0.367711)
(5.70839 0.699997 0.737842)
(5.68213 1.93396 0.985027)
(1.24192 1.40217 -2.24472)
(1.04788 1.99674 -1.09335)
(0.898327 1.88552 -0.79201)
(1.99333 1.64567 0.129153)
(2.15894 2.35122 0.776861)
(1.84248 2.55686 0.512325)
(1.8583 2.58315 0.384776)
(1.72113 2.52009 0.176707)
(1.67128 2.20467 0.194641)
(1.27666 1.83475 0.429937)
(0.459509 1.32108 1.31081)
(-0.132907 0.980288 1.49161)
(-0.110262 1.44998 1.03018)
(2.82261 0.388243 -0.427672)
(0.755427 1.8237 0.266534)
(1.29015 2.10897 0.307077)
(0.798582 1.28148 0.318012)
(0.0681639 0.985869 -1.037)
(-0.787159 1.63096 -1.15877)
(0.986804 1.71599 0.0402712)
(1.409 1.0616 0.381115)
(0.989554 1.0261 0.238588)
(0.994966 1.22431 0.467634)
(0.370368 1.08261 0.247375)
(0.401763 1.09973 -0.793559)
(0.360944 0.85217 0.0390766)
(0.616515 0.0311161 0.624428)
(0.0848569 -0.351729 0.701498)
(0.915433 -0.746473 -0.0745378)
(0.525436 1.12004 -0.585095)
(0.708671 1.65399 -0.557304)
(0.428037 1.43962 -0.733964)
(-0.0959496 1.3338 -1.04612)
(-0.359854 1.01766 -1.18711)
(-0.064948 0.743046 -1.67301)
(-0.147727 0.478977 -1.83109)
(-0.29856 0.572324 -1.67059)
(-0.213069 0.163984 -1.37655)
(-0.421151 0.473671 -1.16046)
(-0.27165 0.0494993 -0.823515)
(0.226181 -0.178611 -1.13855)
(0.183273 0.301232 -0.978714)
(0.750445 0.429531 -0.863872)
(0.65428 0.18206 -0.859455)
(1.03311 -0.122913 -0.240949)
(-0.835544 1.72304 -0.00883279)
(-0.391822 2.36688 0.153095)
(-0.688408 2.09424 -0.0205701)
(-0.991341 1.75835 -0.00310774)
(-0.537001 2.55879 0.332841)
(-0.0535068 2.60142 0.0836824)
(-0.337279 2.31163 0.0666552)
(-0.682872 1.98321 -0.0154411)
(-0.438536 2.70152 0.319662)
(0.0243731 2.80879 0.0815507)
(0.365336 2.8026 -0.06593)
(0.0713643 2.63139 0.0244575)
(-0.446633 2.35126 -0.229734)
(-0.608465 2.9415 0.550321)
(-0.446873 2.92043 0.369695)
(-0.214573 2.95463 0.192562)
(0.125188 3.0009 0.141821)
(0.696284 2.87983 -0.010741)
(0.449839 2.89279 0.100529)
(-0.646442 2.61655 -0.154066)
(-0.0846014 3.27505 0.679493)
(-0.411531 3.2866 0.560486)
(-0.103046 3.19583 0.360572)
(0.38434 3.03808 0.424203)
(0.675831 3.11068 0.25519)
(0.780283 3.23193 0.0595533)
(0.89026 3.04763 0.289285)
(0.0614823 2.77243 -0.0532542)
(0.0995628 3.45888 1.06951)
(0.176559 3.39319 0.86024)
(0.337365 3.35648 0.738569)
(0.416696 3.36153 0.720974)
(0.68925 3.32574 0.606169)
(1.07635 3.3183 0.550952)
(1.17532 3.46652 0.51986)
(0.604225 3.5328 -0.0730995)
(-0.17645 3.35392 0.0221323)
(0.614809 3.49591 1.59013)
(0.51239 3.59478 1.32391)
(0.368826 3.47187 1.29115)
(0.52938 3.67557 1.06244)
(0.664328 3.80603 0.757714)
(1.08892 3.77004 0.619169)
(1.47106 3.51598 0.725565)
(1.74795 3.2491 0.535535)
(1.60169 3.11473 0.167304)
(0.188949 3.29679 -0.0883728)
(1.16511 3.61513 2.02556)
(0.246433 3.87821 1.77446)
(1.86689 3.31307 1.97326)
(0.361712 3.70562 1.10385)
(0.972866 3.49004 1.2175)
(1.08201 3.39007 1.03018)
(1.37584 3.39889 0.836772)
(1.93233 3.37761 0.869067)
(2.32139 3.30325 0.39624)
(1.50256 3.64159 1.0101)
(-0.527102 4.17755 -0.169665)
(1.08974 3.48206 1.41365)
(1.73979 3.27562 1.98426)
(1.4597 3.62637 1.8774)
(1.4785 3.72463 1.82673)
(1.72579 3.65155 1.54955)
(1.15313 3.66496 1.22484)
(1.06654 3.7641 1.0296)
(1.49684 3.6154 0.632172)
(2.93997 3.46289 0.295381)
(2.7354 3.94735 0.762212)
(2.43389 4.06813 0.278304)
(2.19095 3.44489 0.744519)
(0.903271 2.90328 1.36682)
(1.30252 2.95344 1.23432)
(1.27014 3.19342 1.50302)
(1.88783 3.49547 1.34251)
(2.0512 3.33937 1.4343)
(2.92658 3.36122 1.08232)
(2.36389 3.82913 1.35763)
(2.68708 3.56305 1.19312)
(1.80697 4.06941 1.96086)
(2.02704 4.52311 2.20332)
(3.72695 3.98638 1.37285)
(4.08268 3.7841 2.11833)
(3.73246 4.39735 0.0860931)
(1.57912 2.55729 0.107251)
(1.8986 2.75106 0.234129)
(1.84536 2.78864 0.65627)
(1.69778 3.07032 0.553358)
(1.71965 3.23386 0.634128)
(1.65091 3.24483 0.592688)
(2.04361 3.26539 0.713521)
(2.0815 3.34439 0.688175)
(2.04001 3.49443 0.425723)
(1.45957 3.52739 0.813172)
(1.66445 2.69413 0.0859048)
(3.31639 1.6485 0.143955)
(5.69168 0.736041 0.667372)
(5.65274 1.84159 1.12007)
(1.44871 0.497497 -0.401421)
(1.2935 1.64865 -1.46002)
(1.10214 2.06907 -0.47205)
(1.63749 1.79548 -0.328594)
(2.23244 1.6638 0.0187692)
(2.13991 2.36493 0.799118)
(1.83626 2.53585 0.545415)
(1.86103 2.57861 0.305211)
(1.81367 2.4048 0.628496)
(1.71213 2.17848 0.136014)
(0.71931 2.03144 0.688457)
(0.583477 1.09845 1.15847)
(-0.00888664 0.94201 1.44739)
(0.655133 1.40216 0.92046)
(3.411 -0.175824 -0.353195)
(0.876507 1.05812 0.0576542)
(0.889457 1.84733 0.142516)
(1.3978 2.1318 0.175491)
(0.934298 1.38101 1.04458)
(-0.0817652 1.21483 -0.699381)
(-0.757972 1.76654 -0.806057)
(1.20467 1.64419 0.236641)
(1.36468 1.13194 0.558462)
(0.971898 1.08722 0.277489)
(1.0262 1.22261 0.491517)
(0.501878 1.0699 0.240544)
(0.387045 1.06292 -0.779143)
(0.322211 0.794368 0.0201522)
(0.581858 -0.0641929 0.566549)
(0.134505 -0.479899 0.656659)
(1.07892 -0.751941 5.66651e-05)
(0.400807 0.905766 -0.66127)
(0.532704 1.1324 -0.5542)
(0.712244 1.65586 -0.535115)
(0.477529 1.45536 -0.666004)
(-0.0513504 1.35623 -0.968085)
(-0.307194 1.00506 -1.29534)
(-0.0682095 0.728618 -1.69813)
(-0.147283 0.496104 -1.8325)
(-0.300009 0.601761 -1.67392)
(-0.229177 0.178162 -1.40796)
(-0.412089 0.479147 -1.25028)
(-0.295575 0.065134 -0.875343)
(0.204548 -0.177798 -1.17909)
(0.162442 0.275834 -1.00437)
(0.785157 0.386913 -0.822718)
(0.642433 0.209739 -0.802348)
(1.05318 -0.094109 -0.219769)
(-0.860287 1.54847 0.029536)
(-0.802344 1.96235 -0.110112)
(-0.677539 1.76138 -0.0510639)
(-0.505772 2.26264 0.2826)
(-0.186974 2.34691 0.175765)
(-0.360245 2.06218 0.0383403)
(-0.80515 1.78879 0.0331877)
(-0.501715 2.53853 0.443687)
(-0.352353 2.57446 0.341944)
(0.114186 2.54717 0.04456)
(-0.296844 2.29278 0.0610901)
(-0.60735 1.99283 -0.0205832)
(-0.829262 2.70911 0.504524)
(-0.0438573 2.79195 0.238213)
(0.127977 2.82518 0.0662904)
(0.505236 2.74286 -0.0302662)
(0.270644 2.52478 0.026497)
(-0.214053 2.32773 -0.134087)
(-0.340913 2.9532 0.776242)
(-0.483154 2.96597 0.570317)
(-0.157782 2.90713 0.388413)
(0.215597 2.94892 0.225507)
(0.450491 2.93188 0.168619)
(0.837858 2.81856 0.0460273)
(0.264412 2.87587 0.107234)
(-0.692374 2.53118 -0.017065)
(-0.243503 3.24883 0.906773)
(0.0153443 3.28083 0.674605)
(-0.125252 3.19882 0.681442)
(0.410619 3.095 0.386462)
(0.826216 3.01659 0.523089)
(0.96814 3.09815 0.318097)
(0.734577 3.20921 0.0886449)
(0.884119 3.09014 0.276793)
(0.459853 2.79116 -0.136605)
(-0.00648286 3.47444 1.30554)
(0.305834 3.36675 1.11605)
(0.482115 3.40032 0.84401)
(0.752755 3.29137 0.74739)
(0.54764 3.39469 0.664912)
(0.980846 3.33811 0.536212)
(1.22123 3.27174 0.578142)
(1.04651 3.46566 0.553101)
(0.909979 3.30388 0.00439611)
(0.0888113 3.39231 -0.0392286)
(0.553766 3.56836 1.91507)
(0.46446 3.54307 1.60717)
(0.77771 3.40586 1.35306)
(0.85578 3.40675 1.18728)
(0.831189 3.52882 0.993677)
(0.922962 3.69665 0.769319)
(1.26642 3.67851 0.636732)
(1.72252 3.36704 0.676232)
(1.95872 3.06635 0.462926)
(1.49547 3.27992 0.201092)
(0.479379 3.26222 -0.102286)
(0.682622 3.73689 2.06595)
(0.700045 3.47785 1.99635)
(1.87032 3.35369 1.89525)
(0.66604 3.65729 1.44708)
(1.00409 3.519 1.31816)
(1.14896 3.41327 1.12378)
(1.59897 3.31935 1.02562)
(1.71908 3.30964 0.858104)
(2.20307 3.08399 0.698582)
(2.25286 3.30867 0.431264)
(1.59748 3.58363 1.04356)
(-0.297967 4.0656 -0.135486)
(0.67422 3.30985 1.55898)
(1.3903 3.27729 1.57491)
(1.06845 3.39373 1.78925)
(1.60544 3.56639 1.85809)
(1.29451 3.70748 1.86589)
(1.38109 3.63618 1.39869)
(1.51083 3.57775 1.26229)
(1.43072 3.42128 0.951854)
(2.71573 3.12912 0.438406)
(3.05835 3.6453 0.28512)
(2.82296 3.77119 0.81899)
(2.73706 3.74134 0.571034)
(2.11208 3.39118 0.316059)
(0.900112 3.03072 1.03894)
(1.11685 2.81392 1.36182)
(1.46176 2.81536 1.76287)
(1.48327 3.27044 1.32448)
(1.63198 3.53908 1.21213)
(2.25841 3.39602 1.67763)
(2.18421 3.67502 1.38258)
(2.40037 3.68744 1.32238)
(2.05136 3.93929 1.10074)
(1.78612 4.20221 1.9678)
(2.55977 4.18653 2.07293)
(4.02944 3.57996 1.32024)
(4.20205 3.09683 2.24379)
(3.67516 4.18855 -0.0244623)
(1.64238 1.48168 -0.451375)
(1.87597 2.27632 0.405817)
(1.99921 2.73487 -0.0305014)
(2.0236 2.73893 0.558796)
(1.97343 2.87764 0.583705)