/*--------------------------------*- C++ -*----------------------------------*\
  =========                 |
  \\      /  F ield         | OpenFOAM: The Open Source CFD Toolbox
   \\    /   O peration     | Website:  https://openfoam.org
    \\  /    A nd           | Version:  7
     \\/     M anipulation  |
\*---------------------------------------------------------------------------*/
FoamFile
{
    version     2.0;
    format      ascii;
    class       volScalarField;
    location    "4";
    object      p;
}
// * * * * * * * * * * * * * * * * * * * * * * * * * * * * * * * * * * * * * //

dimensions      [0 2 -2 0 0 0 0];

internalField   nonuniform List<scalar> 
18720
(
-72.7793
-72.2516
-72.6756
-72.8909
-71.1346
-70.9611
-72.1849
-72.3743
-70.6007
-71.0554
-72.9951
-71.2218
-70.1017
-68.653
-70.7971
-71.1432
-69.5545
-70.4861
-72.5082
-70.699
-69.4676
-69.974
-73.0744
-71.3248
-70.2184
-68.4648
-67.0636
-68.3891
-68.9442
-67.273
-69.4447
-71.3663
-69.8237
-68.3173
-69.3185
-72.6412
-70.8068
-69.602
-67.8211
-68.4365
-73.1726
-71.4341
-70.3329
-68.5051
-67.82
-64.8196
-66.525
-67.2415
-65.7135
-67.1426
-69.3081
-67.5104
-66.1447
-67.975
-71.5899
-69.9976
-68.5072
-66.9928
-67.7263
-72.7924
-70.9462
-69.749
-67.9626
-66.6509
-67.7335
-73.261
-71.5399
-70.4197
-68.5979
-67.9074
-66.9256
-63.209
-64.5691
-65.1404
-63.9749
-65.495
-67.4217
-65.784
-64.6048
-65.9889
-69.6163
-67.8063
-66.3323
-65.2507
-66.7775
-71.8404
-70.1608
-68.7843
-67.2017
-65.7065
-66.5664
-72.9384
-71.0846
-69.8886
-68.0997
-66.7321
-65.359
-66.8333
-73.3475
-71.6476
-70.492
-68.6731
-68.0176
-66.9484
-65.6571
-61.9883
-63.1657
-63.4704
-62.8473
-63.8245
-65.4425
-64.3201
-63.311
-64.4725
-67.6341
-66.0878
-64.8425
-63.7513
-65.1367
-69.945
-68.035
-66.5567
-65.3911
-64.1237
-65.5779
-72.0731
-70.3664
-68.9904
-67.481
-65.8981
-64.5889
-65.3026
-73.0918
-71.2397
-70.0359
-68.2359
-66.8436
-65.4494
-64.1329
-65.5612
-73.4128
-71.7543
-70.5678
-68.698
-68.1387
-66.953
-65.7054
-64.1798
-61.0579
-61.8738
-62.0814
-61.5617
-62.6406
-63.7041
-62.9185
-62.0944
-63.2128
-65.8167
-64.5102
-63.2484
-61.8764
-63.6922
-67.8912
-66.3898
-65.0524
-63.8543
-62.9094
-64.001
-70.2923
-68.2612
-66.7826
-65.5905
-64.3399
-63.2892
-64.4558
-72.409
-70.6032
-69.2372
-67.7542
-66.1403
-64.7321
-63.2059
-64.0444
-73.2613
-71.4167
-70.1808
-68.3626
-66.9903
-65.5422
-64.2384
-63.7732
-64.1313
-73.4535
-71.8692
-70.6408
-68.7097
-68.2356
-66.9964
-65.7689
-64.2429
-63.278
-60.3052
-60.9293
-61.1701
-60.6807
-61.4251
-62.188
-61.6853
-61.1228
-61.8317
-64.044
-63.1469
-62.2006
-61.6973
-62.6753
-65.9632
-64.8066
-63.518
-62.3618
-61.8465
-62.8789
-68.2693
-66.6614
-65.3123
-64.1665
-63.0139
-62.2197
-63.1365
-70.6189
-68.5369
-67.0158
-65.7725
-64.6432
-63.4323
-62.196
-63.1313
-72.708
-70.8481
-69.4836
-67.9631
-66.239
-64.8912
-63.3026
-62.3963
-63.7852
-73.4513
-71.5872
-70.3104
-68.4943
-67.1097
-65.6601
-64.3554
-63.8323
-62.6506
-63.2665
-73.4972
-71.9783
-70.722
-68.7323
-68.258
-67.0589
-65.8205
-64.2745
-63.3037
-62.4389
-59.5399
-60.1803
-60.2561
-59.9338
-60.6712
-61.2208
-60.7554
-60.3568
-61.0562
-62.4303
-61.6852
-61.3293
-60.7649
-61.7413
-64.1955
-63.394
-62.438
-61.7704
-61.2343
-61.6958
-66.3133
-64.9747
-63.9704
-63.2008
-62.2377
-61.3734
-62.0433
-68.6511
-67.0695
-65.567
-64.3486
-63.1887
-62.2898
-61.4071
-62.0904
-71.0041
-68.824
-67.2965
-65.9981
-64.7622
-63.6218
-62.2726
-61.6336
-62.307
-72.9717
-71.1202
-69.6545
-68.1701
-66.3081
-65.0397
-63.4164
-62.4721
-61.6986
-62.5999
-73.6534
-71.7373
-70.4492
-68.6311
-67.253
-65.7887
-64.4882
-63.9285
-62.7072
-61.9221
-62.4377
-73.5391
-72.082
-70.8078
-68.7607
-68.2506
-67.1099
-65.801
-64.2747
-63.3561
-62.4228
-62.1922
-58.9777
-59.513
-59.516
-59.4604
-59.9546
-60.2213
-60.0568
-59.7129
-60.3457
-61.3587
-60.8741
-60.4846
-60.2317
-60.6641
-62.6371
-61.8297
-61.4828
-60.8914
-60.4964
-61.0101
-64.3469
-63.5436
-62.8109
-61.8622
-61.3266
-60.7156
-61.2039
-66.6804
-65.2479
-64.2565
-63.3384
-62.1513
-61.4681
-60.8488
-61.3652
-69.0297
-67.3328
-65.755
-64.5365
-63.6279
-62.4597
-61.5352
-60.8018
-61.5576
-71.3996
-69.1565
-67.5745
-66.2317
-64.8995
-63.8588
-62.3971
-61.6923
-60.9139
-61.6548
-73.2646
-71.4299
-69.8928
-68.3919
-66.4942
-65.1905
-63.5107
-62.5343
-61.7843
-61.1263
-61.8901
-73.8799
-71.9051
-70.5953
-68.7778
-67.4207
-65.9057
-64.6021
-63.9798
-62.8073
-61.9499
-61.3042
-62.1495
-73.5405
-72.1675
-70.8789
-68.8108
-68.2499
-67.1437
-65.8083
-64.2979
-63.4485
-62.4568
-62.2422
-61.7507
-58.7115
-59.0681
-59.0027
-59.0989
-59.4221
-59.5074
-59.5693
-59.3424
-59.6573
-60.5479
-60.1788
-59.7905
-59.6092
-60.126
-61.6281
-60.8648
-60.584
-60.0679
-59.722
-60.4007
-62.6544
-62.0634
-61.6784
-61.1232
-60.5872
-60.0744
-60.6212
-64.6622
-63.467
-62.9022
-62.1229
-61.4205
-60.6892
-60.3798
-60.5939
-66.9872
-65.633
-64.4353
-63.5437
-62.342
-61.4326
-60.9475
-60.3731
-60.7123
-69.4377
-67.6255
-66.1179
-64.7873
-63.8181
-62.6944
-61.6665
-60.8111
-60.3099
-60.91
-71.8211
-69.5234
-67.8448
-66.5117
-65.22
-64.0535
-62.5103
-61.7123
-60.7913
-60.3404
-61.118
-73.5347
-71.8191
-70.108
-68.5932
-66.5793
-65.377
-63.6207
-62.5969
-61.866
-61.1619
-60.5529
-61.2982
-74.1445
-72.0988
-70.7405
-68.9219
-67.5756
-66.0639
-64.71
-64.1324
-62.8945
-61.9814
-61.3259
-61.0584
-61.7483
-73.5411
-72.2437
-70.948
-68.9174
-68.2619
-67.1486
-65.8635
-64.3295
-63.5369
-62.5189
-62.2833
-61.765
-61.4288
-58.4226
-58.6189
-58.7561
-58.7371
-58.8753
-59.0485
-59.1688
-59.0082
-59.2178
-59.5743
-59.6316
-59.3388
-59.1045
-59.5223
-60.7454
-60.2672
-59.8479
-59.6491
-59.3747
-59.7075
-61.7531
-61.0528
-60.6222
-60.298
-59.7829
-59.7088
-60.0199
-63.2381
-62.2529
-61.8203
-61.1632
-60.6028
-60.0514
-59.5618
-60.391
-64.8745
-64.0655
-63.0327
-62.2471
-61.3105
-60.7565
-60.3875
-59.8727
-60.3896
-67.3194
-65.7639
-64.8087
-63.8335
-62.7319
-61.6787
-60.9988
-60.2411
-59.9174
-60.3163
-69.9177
-67.9216
-66.4235
-65.1308
-64.0065
-62.8528
-61.7519
-60.9148
-60.3596
-60.0035
-60.2907
-72.2999
-69.8716
-68.1553
-66.7705
-65.5534
-64.2711
-62.667
-61.8052
-60.9666
-60.3758
-59.8858
-60.5463
-73.7811
-72.1644
-70.3255
-68.8205
-66.7523
-65.6656
-63.7522
-62.6949
-61.8853
-61.2232
-60.5858
-60.211
-61.0428
-74.4124
-72.2972
-70.9
-69.0351
-67.7934
-66.2175
-64.8165
-64.268
-62.9847
-62.0151
-61.3495
-61.0719
-60.7717
-61.4252
-73.5343
-72.3045
-71.0086
-69.0362
-68.2958
-67.1393
-65.9221
-64.3268
-63.624
-62.5663
-62.3093
-61.7819
-61.4331
-61.1579
-58.137
-58.3188
-58.5184
-58.3864
-58.6529
-58.8361
-58.6679
-58.5786
-59.0069
-59.1033
-59.2505
-58.8791
-58.7803
-59.1115
-59.654
-59.6182
-59.3761
-59.0991
-58.9592
-59.302
-60.7728
-60.1374
-59.9546
-59.7751
-59.4638
-59.141
-59.5713
-61.7548
-61.4374
-60.7283
-60.3985
-59.8354
-59.5763
-59.2772
-59.5501
-63.591
-62.3275
-61.7955
-61.3513
-60.6411
-60.2666
-59.6174
-59.5721
-59.8954
-65.2703
-64.1221
-63.3137
-62.4307
-61.5128
-60.8525
-60.4058
-60.0315
-59.5676
-59.8132
-67.6939
-66.1817
-65.1026
-63.9109
-62.8753
-61.9219
-61.1972
-60.2694
-60.0846
-59.6648
-59.9692
-70.4355
-68.2778
-66.6973
-65.4316
-64.1773
-63.0558
-61.8729
-61.0264
-60.3997
-60.0744
-59.5605
-59.9175
-72.7875
-70.1494
-68.4412
-67.0135
-65.9422
-64.5103
-62.8887
-61.9741
-61.1681
-60.4605
-59.8271
-59.6826
-60.2322
-74.0656
-72.4633
-70.5708
-69.0589
-66.9749
-65.9018
-63.8942
-62.8209
-62.0045
-61.2633
-60.6232
-60.208
-59.8011
-60.7953
-74.6795
-72.5175
-71.0634
-69.133
-68.0083
-66.3608
-64.9157
-64.38
-63.0291
-62.0566
-61.3658
-61.0881
-60.7604
-60.7286
-61.1728
-73.5205
-72.3659
-71.0461
-69.1443
-68.3516
-67.1557
-65.9608
-64.3591
-63.72
-62.6377
-62.3202
-61.7787
-61.4282
-61.1368
-61.408
-58.037
-58.1597
-58.2819
-58.1725
-58.3641
-58.489
-58.3965
-58.3708
-58.6043
-58.8532
-58.6225
-58.6453
-58.5245
-58.8594
-59.3778
-59.4298
-59.0182
-58.8343
-58.65
-58.9754
-59.8786
-59.7082
-59.5045
-59.1589
-58.9746
-58.8162
-59.0926
-60.6192
-60.2796
-60.0762
-59.818
-59.6014
-59.1868
-58.9794
-59.4044
-62.1233
-61.4581
-60.98
-60.3647
-59.863
-59.6493
-59.2647
-59.0009
-59.4009
-63.7181
-62.8412
-61.9467
-61.5602
-60.772
-60.3981
-59.707
-59.6103
-59.2451
-59.5618
-65.8756
-64.4197
-63.5339
-62.6638
-61.6983
-61.0425
-60.453
-60.1197
-59.5235
-59.3244
-59.6137
-67.9662
-66.4194
-65.4401
-64.0818
-63.0895
-62.0763
-61.211
-60.4518
-60.0577
-59.6628
-59.4262
-59.5792
-71.0507
-68.6595
-67.0374
-65.7226
-64.4368
-63.2944
-62.0868
-61.1618
-60.6016
-60.1107
-59.5769
-59.3677
-59.6841
-73.2902
-70.5868
-68.7185
-67.283
-66.267
-64.8459
-63.0676
-62.0951
-61.2338
-60.5123
-59.8076
-59.6534
-58.8688
-59.863
-74.3507
-72.7528
-70.8333
-69.2503
-67.1028
-66.1972
-64.0645
-62.9515
-62.0896
-61.3191
-60.6493
-60.2041
-59.7691
-60.0815
-60.7716
-74.942
-72.7402
-71.2334
-69.2424
-68.165
-66.5223
-65.0098
-64.5153
-63.1036
-62.1015
-61.4012
-61.107
-60.7556
-60.6885
-61.2469
-61.4474
-73.5449
-72.4317
-71.0787
-69.2652
-68.4011
-67.1995
-66.0459
-64.4389
-63.7833
-62.7657
-62.3348
-61.7978
-61.4063
-61.1178
-61.3645
-61.6445
-57.8067
-58.0197
-58.0942
-58.0427
-58.2107
-58.2033
-58.305
-58.1248
-58.3873
-58.6368
-58.4489
-58.4211
-58.314
-58.4857
-58.9378
-58.869
-58.6688
-58.5885
-58.5021
-58.6449
-59.4861
-59.2429
-59.2523
-58.9025
-58.6612
-58.5485
-58.8001
-59.947
-59.7023
-59.5662
-59.2881
-58.9917
-58.8766
-58.6366
-58.9356
-60.7924
-60.4734
-60.1819
-59.8122
-59.3889
-59.1521
-59.0889
-58.7708
-58.9741
-62.385
-61.5782
-61.0658
-60.5378
-60.1931
-59.7374
-59.3403
-59.0856
-59.0514
-59.2174
-64.006
-62.9239
-62.3327
-61.7304
-60.8843
-60.4268
-59.8922
-59.6276
-59.2914
-59.0174
-59.3376
-66.1667
-64.9572
-63.8711
-62.9212
-61.8956
-61.2113
-60.6222
-60.2365
-59.6061
-59.3141
-59.1746
-59.4434
-68.6865
-67.1706
-65.6885
-64.4504
-63.2779
-62.2806
-61.3279
-60.5876
-60.1553
-59.717
-59.4487
-59.3052
-59.421
-71.6144
-69.0464
-67.326
-66.0217
-64.8564
-63.4932
-62.2561
-61.342
-60.6588
-60.1718
-59.6048
-59.3099
-58.8517
-58.896
-73.7684
-71.044
-69.0437
-67.5646
-66.7372
-65.1961
-63.2693
-62.2111
-61.3287
-60.5625
-59.9813
-59.6404
-58.8498
-59.0257
-60.1766
-74.6675
-73.0684
-71.1
-69.3788
-67.2646
-66.4863
-64.2351
-63.1035
-62.1189
-61.4167
-60.6577
-60.2147
-59.7614
-59.9854
-60.8823
-61.334
-75.178
-72.9841
-71.3997
-69.3527
-68.3079
-66.6673
-65.0704
-64.5131
-63.2188
-62.1515
-61.4368
-61.1226
-60.7532
-60.6556
-61.1366
-61.6565
-61.6895
-73.5734
-72.4763
-71.1157
-69.3881
-68.4131
-67.2436
-66.1373
-64.5051
-63.8373
-62.8791
-62.3733
-61.82
-61.3915
-61.0996
-61.3075
-61.5567
-61.9023
-57.787
-57.8662
-57.8067
-57.8772
-58.0674
-58.1105
-58.021
-58.055
-58.1624
-58.2789
-58.3191
-58.205
-58.1988
-58.2742
-58.5439
-58.547
-58.4258
-58.3282
-58.2513
-58.4796
-59.0367
-58.8388
-58.7679
-58.5841
-58.4538
-58.318
-58.5845
-59.5116
-59.2394
-59.2269
-58.9357
-58.7638
-58.6166
-58.4372
-58.6041
-59.9994
-59.8883
-59.5404
-59.2767
-59.103
-58.9245
-58.6408
-58.5805
-58.6978
-61.1029
-60.5973
-60.3698
-59.9127
-59.4908
-59.1169
-59.0791
-58.8204
-58.7635
-58.9858
-62.4595
-61.9905
-61.1991
-60.8236
-60.2807
-59.7985
-59.4719
-59.1254
-58.9772
-58.8669
-59.0339
-64.4134
-63.3361
-62.4637
-61.808
-61.0751
-60.6077
-60.0427
-59.583
-59.4143
-59.047
-58.9834
-59.172
-66.4406
-65.2712
-64.1276
-63.1587
-62.2707
-61.356
-60.7769
-60.2725
-59.6402
-59.3674
-59.15
-59.0024
-59.3695
-69.1969
-67.4789
-66.0585
-64.7918
-63.4023
-62.4762
-61.5582
-60.6825
-60.1017
-59.7729
-59.397
-59.2104
-59.2316
-58.9179
-72.0689
-69.3987
-67.624
-66.3078
-65.206
-63.5936
-62.4603
-61.4754
-60.6566
-60.2023
-59.6369
-59.2661
-58.8287
-59.3035
-59.4256
-74.1934
-71.5166
-69.2974
-67.8469
-67.0515
-65.5205
-63.475
-62.4206
-61.4361
-60.6285
-60.0037
-59.6333
-58.8619
-58.6916
-59.948
-61.2267
-74.9586
-73.3124
-71.318
-69.537
-67.4949
-66.5365
-64.3606
-63.3021
-62.2792
-61.4428
-60.679
-60.2289
-59.772
-59.8999
-60.6456
-62.0851
-61.6161
-75.3616
-73.2248
-71.5839
-69.4725
-68.4757
-66.8721
-65.2269
-64.5761
-63.3258
-62.2272
-61.4834
-61.1488
-60.762
-60.6372
-61.0139
-61.6619
-61.5042
-61.9521
-73.5912
-72.513
-71.1414
-69.5136
-68.3891
-67.2737
-66.215
-64.5532
-63.9008
-62.9227
-62.3998
-61.8391
-61.4106
-61.0852
-61.2461
-61.4867
-61.8438
-61.8791
-57.7649
-57.806
-57.7894
-57.9117
-57.8355
-57.8133
-57.8555
-57.8935
-58.0109
-58.0347
-58.1178
-58.0346
-57.9735
-58.1127
-58.3757
-58.2876
-58.3168
-58.187
-58.0052
-58.2266
-58.5854
-58.5784
-58.4261
-58.4104
-58.2398
-58.1744
-58.289
-59.1066
-58.9247
-58.6866
-58.5345
-58.5116
-58.3296
-58.2483
-58.4078
-59.61
-59.4835
-59.1893
-58.9908
-58.7912
-58.6135
-58.485
-58.3388
-58.5286
-60.3071
-60.0751
-59.7913
-59.3591
-59.0485
-58.9664
-58.7095
-58.4989
-58.3306
-58.7528
-61.3548
-60.7317
-60.4879
-60.033
-59.7788
-59.2575
-58.9674
-58.9001
-58.6629
-58.5569
-58.9387
-62.7461
-62.3882
-61.4987
-60.9031
-60.4112
-59.9318
-59.6761
-59.1633
-59.0803
-58.8212
-58.7977
-59.0903
-64.521
-63.6682
-62.9008
-62.0626
-61.2473
-60.7589
-60.2135
-59.7194
-59.4528
-59.0242
-58.9813
-58.9704
-59.1762
-66.9821
-65.5265
-64.2961
-63.3899
-62.346
-61.5979
-60.8931
-60.0907
-59.6853
-59.3379
-59.1394
-59.0319
-59.0266
-59.2985
-70.0157
-67.5965
-66.3524
-65.1388
-63.5969
-62.5937
-61.6995
-60.8511
-60.138
-59.8353
-59.3889
-59.1433
-59.095
-59.1417
-59.6857
-72.73
-69.8884
-67.9572
-66.6469
-65.671
-63.8104
-62.675
-61.6332
-60.8024
-60.2843
-59.7044
-59.2992
-58.8392
-59.0777
-60.7901
-60.4346
-74.6215
-72.0154
-69.3634
-68.1698
-67.2886
-65.8619
-63.6713
-62.589
-61.5542
-60.7
-59.9266
-59.5785
-58.8965
-58.5458
-59.4611
-61.8351
-62.4129
-75.2898
-73.5283
-71.5716
-69.7132
-67.7883
-66.6296
-64.5442
-63.4611
-62.4431
-61.5864
-60.7193
-60.2272
-59.8002
-59.8202
-60.4976
-61.6292
-62.6477
-61.5805
-75.6294
-73.4141
-71.7576
-69.6101
-68.6465
-67.0778
-65.4077
-64.7588
-63.3836
-62.3188
-61.5335
-61.1861
-60.7739
-60.6089
-60.9232
-61.5722
-61.4212
-61.9377
-61.9255
-73.7071
-72.5528
-71.1639
-69.6408
-68.4352
-67.3234
-66.2851
-64.6236
-63.9727
-62.9523
-62.397
-61.8761
-61.4532
-61.0785
-61.1812
-61.4359
-61.778
-61.8307
-61.873
-57.7922
-57.7596
-57.6933
-57.8092
-57.8894
-57.8152
-57.8353
-57.8415
-57.9138
-57.8985
-57.9598
-57.9428
-57.8868
-57.9523
-58.1201
-58.0744
-58.0679
-58.0192
-57.9056
-57.982
-58.3516
-58.3818
-58.1911
-58.1962
-58.1147
-57.9946
-58.102
-58.6248
-58.647
-58.5632
-58.4055
-58.2756
-58.1817
-58.0484
-58.2116
-59.1826
-59.002
-58.7678
-58.7506
-58.4829
-58.3717
-58.2895
-58.1806
-58.289
-59.7335
-59.6002
-59.3073
-59.1152
-58.9234
-58.6622
-58.5264
-58.3517
-58.2004
-58.3455
-60.484
-60.2796
-59.9142
-59.6359
-59.145
-58.9114
-58.7187
-58.5191
-58.3101
-58.3844
-58.6312
-61.4333
-61.0567
-60.5881
-60.2854
-59.8178
-59.334
-59.0585
-58.944
-58.5866
-58.5771
-58.6465
-58.8441
-62.9961
-62.4423
-61.7747
-61.1834
-60.5693
-60.128
-59.6206
-59.275
-58.9833
-58.8776
-58.8633
-58.8654
-58.9879
-64.8814
-64.0282
-63.2243
-62.2734
-61.3675
-60.9854
-60.4791
-59.7254
-59.411
-59.0395
-58.9843
-58.9773
-58.9749
-59.1389
-67.6499
-65.8486
-64.6356
-63.5838
-62.4967
-61.7584
-61.0389
-60.2169
-59.8459
-59.4046
-59.2351
-59.0483
-58.9888
-59.2621
-59.2702
-71.0435
-68.2658
-66.819
-65.4529
-63.88
-62.8738
-61.8682
-60.9788
-60.2512
-59.89
-59.478
-59.0941
-58.9929
-59.0452
-60.1517
-61.2284
-73.3568
-70.4508
-68.3692
-67.0026
-66.0747
-64.0485
-62.8995
-61.812
-60.9611
-60.3656
-59.745
-59.2518
-58.9034
-58.9088
-60.3461
-62.0103
-62.2073
-75.014
-72.5564
-69.8581
-68.4952
-67.3869
-66.1535
-63.8956
-62.7704
-61.6621
-60.8118
-60.0413
-59.5539
-58.9587
-58.5351
-58.9281
-61.483
-63.3304
-62.8135
-75.5827
-73.8343
-71.8828
-69.8786
-68.1709
-66.7029
-64.8038
-63.6635
-62.535
-61.7096
-60.8021
-60.2461
-59.815
-59.7338
-60.3288
-61.2755
-62.4641
-62.9657
-61.9784
-75.7519
-73.6176
-71.924
-69.7665
-68.7572
-67.3088
-65.5759
-64.8483
-63.468
-62.4038
-61.5879
-61.213
-60.7728
-60.6034
-60.8451
-61.4359
-61.3246
-61.8903
-61.8592
-61.9411
-73.8948
-72.5943
-71.201
-69.7377
-68.5643
-67.3944
-66.3563
-64.7108
-64.0209
-63.0267
-62.402
-61.9192
-61.4505
-61.0892
-61.124
-61.3792
-61.7049
-61.8059
-61.7969
-61.8323
-57.8366
-57.8298
-57.787
-57.8149
-57.8024
-57.8935
-57.7371
-57.7409
-57.7989
-57.8334
-57.918
-57.844
-57.8464
-57.9058
-57.9252
-57.9724
-57.9611
-57.8853
-57.8412
-57.8693
-58.259
-58.1959
-58.1019
-58.023
-57.9424
-57.883
-57.9585
-58.3807
-58.3536
-58.3292
-58.2588
-58.1388
-58.0147
-57.9486
-58.0409
-58.7408
-58.7098
-58.6357
-58.471
-58.3594
-58.1686
-58.1178
-58.0662
-58.162
-59.2139
-59.0906
-58.8337
-58.796
-58.5277
-58.4288
-58.3065
-58.1602
-58.0172
-58.2332
-59.8702
-59.6863
-59.4308
-59.2292
-58.9845
-58.7227
-58.5472
-58.3426
-58.1705
-58.2596
-58.33
-60.632
-60.2674
-59.9891
-59.6722
-59.4216
-58.9392
-58.8021
-58.5489
-58.4188
-58.3766
-58.4377
-58.5618
-61.5547
-61.1974
-60.7262
-60.4989
-59.8744
-59.3514
-59.0787
-59.0079
-58.6693
-58.5941
-58.5631
-58.6272
-58.9183
-63.1112
-62.6711
-61.9168
-61.4448
-60.6936
-60.2835
-59.596
-59.4268
-58.8793
-58.8721
-58.8312
-58.8105
-58.9163
-59.0348
-65.4743
-64.2254
-63.4338
-62.3734
-61.6452
-61.1004
-60.4816
-59.7829
-59.4088
-59.1497
-59.0179
-58.9086
-58.9744
-59.1786
-59.2941
-68.2661
-66.1943
-65.0405
-64.0575
-62.8882
-61.9878
-61.1794
-60.4167
-59.9461
-59.4171
-59.3175
-59.0292
-58.9213
-59.0535
-59.7788
-60.5006
-71.9246
-68.7829
-67.1587
-65.8406
-64.1389
-63.2556
-62.107
-61.0239
-60.4004
-59.8727
-59.5605
-59.0406
-58.9623
-58.9402
-59.8243
-62.1761
-62.7035
-73.9196
-71.0395
-68.6989
-67.2565
-66.4217
-64.4022
-63.1822
-61.9905
-61.0455
-60.3806
-59.7851
-59.1884
-58.9834
-58.7767
-59.9468
-61.5528
-64.9189
-63.5137
-75.4493
-73.0986
-70.7003
-68.8845
-67.4791
-66.3709
-64.1104
-62.9489
-61.8348
-60.8609
-60.1272
-59.6375
-59.0466
-58.519
-58.8415
-61.1077
-63.0841
-65.0252
-63.0447
-75.8553
-74.1556
-72.1724
-70.0206
-68.5417
-66.8236
-65.1134
-63.8513
-62.6241
-61.6292
-60.8668
-60.27
-59.8477
-59.6494
-60.1651
-60.9905
-62.2427
-62.8622
-62.8755
-61.8589
-75.7776
-73.8277
-72.0993
-69.9337
-68.8204
-67.6245
-65.7936
-64.8644
-63.5639
-62.5051
-61.6494
-61.2413
-60.7918
-60.6076
-60.7745
-61.2943
-61.2262
-61.8309
-61.8474
-62.039
-61.8684
-74.0394
-72.6319
-71.2973
-69.8425
-68.6642
-67.4392
-66.4099
-64.7761
-64.071
-63.1298
-62.4197
-61.9442
-61.4313
-61.1029
-61.1081
-61.3274
-61.6284
-61.742
-61.7113
-61.7979
-62.2015
-57.8407
-57.7772
-57.8371
-57.9059
-57.7975
-57.8536
-57.8373
-57.7244
-57.7642
-57.8362
-57.8688
-57.7307
-57.7361
-57.7862
-57.9413
-57.9747
-57.9037
-57.7692
-57.7543
-57.7932
-57.9766
-58.0412
-57.9748
-57.9436
-57.8231
-57.7809
-57.8487
-58.2206
-58.2632
-58.1395
-58.0499
-57.9898
-57.8522
-57.7515
-57.8904
-58.4802
-58.3939
-58.4155
-58.1993
-58.1416
-57.9496
-58.0034
-57.9316
-58.0755
-58.7954
-58.7697
-58.7311
-58.5578
-58.356
-58.236
-58.1617
-58.0636
-57.9497
-58.0328
-59.3605
-59.1914
-58.9349
-58.8221
-58.6077
-58.4478
-58.3308
-58.1831
-58.1023
-58.0665
-58.2534
-59.8919
-59.7369
-59.3997
-59.3656
-59.0511
-58.7894
-58.5499
-58.3895
-58.2448
-58.2642
-58.2468
-58.425
-60.8821
-60.4875
-60.2615
-59.769
-59.546
-58.9196
-58.9171
-58.5744
-58.4752
-58.3587
-58.3316
-58.4481
-58.695
-61.7996
-61.2674
-60.9195
-60.5973
-59.8798
-59.411
-59.2038
-59.0357
-58.7417
-58.5645
-58.4821
-58.5644
-58.6681
-59.0332
-63.5568
-62.9818
-62.2417
-61.4682
-60.8345
-60.4259
-59.7938
-59.4666
-59.0369
-58.8482
-58.7604
-58.8113
-58.8919
-59.1182
-59.3321
-65.8791
-64.4852
-63.6803
-62.7618
-61.9544
-61.2615
-60.5387
-59.8659
-59.4646
-59.2712
-59.0157
-58.9689
-58.9041
-59.0715
-59.6278
-60.3754
-68.9512
-66.7487
-65.3687
-64.1244
-63.2958
-62.297
-61.3235
-60.4435
-60.0014
-59.4526
-59.33
-58.9824
-58.8814
-58.8021
-59.6333
-61.742
-62.6108
-72.5739
-69.2544
-67.6765
-66.2746
-64.4577
-63.5184
-62.3153
-61.2191
-60.4852
-59.8925
-59.7087
-59.0034
-58.8478
-58.8426
-59.5572
-61.5512
-65.0635
-65.3295
-74.4927
-71.5954
-69.1099
-67.4973
-66.7282
-64.7656
-63.5203
-62.1715
-61.14
-60.503
-59.9159
-59.2382
-59.0196
-58.7006
-59.507
-61.0082
-64.4752
-67.6301
-65.1705
-75.9123
-73.674
-71.2829
-69.2815
-67.8032
-66.4934
-64.3147
-63.0789
-62.0252
-60.9838
-60.1072
-59.6382
-59.1447
-58.5319
-58.7269
-60.7953
-62.7038
-64.8267
-64.7822
-62.8985
-76.1105
-74.4568
-72.4621
-70.1454
-68.8065
-66.9376
-65.4083
-63.9749
-62.8512
-61.7932
-60.9521
-60.307
-59.8818
-59.5879
-59.9757
-60.6785
-61.946
-62.7487
-62.821
-62.6096
-62.0473
-75.8751
-74.0409
-72.2572
-70.0974
-68.9087
-67.9553
-66.011
-64.9776
-63.6317
-62.6259
-61.7237
-61.2697
-60.831
-60.6073
-60.7191
-61.2114
-61.1409
-61.7771
-61.81
-62.0258
-62.7836
-62.235
-74.152
-72.7456
-71.4471
-69.953
-68.7705
-67.5089
-66.4347
-64.8438
-64.1335
-63.1932
-62.4221
-61.9858
-61.4129
-61.0901
-61.116
-61.2777
-61.5566
-61.6778
-61.6234
-61.7615
-62.1561
-62.0667
-57.7382
-57.7755
-57.8884
-57.8187
-57.832
-57.959
-57.8443
-57.7829
-57.7214
-57.9477
-57.8489
-57.7669
-57.7021
-57.6707
-57.9357
-57.8779
-57.8413
-57.7437
-57.6835
-57.7357
-57.9145
-58.0085
-57.9268
-57.8572
-57.7625
-57.6893
-57.7326
-57.9819
-58.0834
-57.9987
-57.9741
-57.8789
-57.8001
-57.6538
-57.7214
-58.31
-58.2958
-58.2225
-58.1106
-57.9928
-57.9281
-57.7998
-57.7573
-57.9008
-58.5392
-58.4536
-58.274
-58.3391
-58.1708
-58.0555
-57.9627
-57.8763
-57.8245
-57.8703
-58.9156
-58.8507
-58.7711
-58.5802
-58.4046
-58.2771
-58.1585
-58.1019
-58.0183
-57.89
-58.0933
-59.3216
-59.2435
-59.0799
-58.9289
-58.5941
-58.5159
-58.3177
-58.2514
-58.1441
-58.0654
-58.079
-58.0318
-60.0431
-59.8683
-59.5194
-59.3912
-59.1514
-58.7632
-58.6155
-58.449
-58.2818
-58.2301
-58.114
-58.2896
-58.4919
-60.9308
-60.79
-60.3592
-59.9323
-59.547
-59.1521
-59.0963
-58.6686
-58.5122
-58.3812
-58.3423
-58.3969
-58.4474
-58.7765
-62.1213
-61.5093
-61.1408
-60.7773
-60.0724
-59.655
-59.452
-59.0544
-58.7616
-58.5021
-58.4499
-58.5748
-58.4675
-58.9703
-59.1769
-63.9751
-63.135
-62.6437
-61.6803
-60.9003
-60.4165
-60.0095
-59.4935
-59.0169
-58.8579
-58.7123
-58.8646
-58.8319
-58.9757
-59.4602
-59.7944
-66.0137
-64.8173
-63.9447
-63.0926
-62.15
-61.4453
-60.8059
-59.9891
-59.4743
-59.3379
-59.0243
-58.9458
-58.8147
-58.9833
-59.5199
-60.5597
-62.2999
-69.918
-67.3682
-65.8268
-64.3531
-63.2472
-62.474
-61.4541
-60.6158
-60.0042
-59.5115
-59.291
-58.9387
-58.8382
-58.8414
-59.4304
-60.9585
-63.435
-65.637
-73.3962
-69.9596
-68.0909
-66.5681
-64.9802
-63.9309
-62.5029
-61.4414
-60.5511
-60.0725
-59.7712
-58.9894
-58.7736
-58.7124
-59.4298
-61.0822
-64.2958
-67.3306
-67.6462
-74.9233
-72.1698
-69.7213
-67.9347
-67.002
-65.0273
-63.8371
-62.4419
-61.334
-60.6657
-60.0549
-59.4757
-59.0552
-58.6481
-59.2557
-60.2902
-63.9134
-67.5567
-67.6374
-64.5435
-76.3437
-74.2725
-71.7076
-69.6791
-68.153
-66.5766
-64.6251
-63.3886
-62.193
-61.1276
-60.2526
-59.6489
-59.2153
-58.5962
-58.6231
-60.3996
-62.2971
-64.5385
-64.9681
-63.5494
-62.616
-76.4099
-74.7394
-72.746
-70.2913
-68.9874
-66.9399
-65.615
-64.2025
-63.0422
-61.9805
-61.0733
-60.3571
-59.899
-59.5601
-59.8201
-60.3926
-61.6143
-62.6192
-62.8132
-62.6105
-62.6071
-62.8249
-75.9418
-74.1931
-72.4032
-70.2621
-68.9727
-68.1237
-66.229
-65.091
-63.7648
-62.7517
-61.8017
-61.2956
-60.8485
-60.6112
-60.6768
-61.1143
-61.0708
-61.72
-61.772
-62.0064
-62.7366
-61.689
-62.1222
-74.2138
-72.9457
-71.5631
-70.05
-68.8469
-67.5847
-66.4515
-64.9152
-64.1828
-63.2414
-62.4386
-62.0361
-61.4219
-61.0942
-61.1045
-61.23
-61.4897
-61.6214
-61.5338
-61.7237
-62.1089
-62.0037
-61.5192
-57.6557
-57.7267
-57.8428
-57.7629
-57.758
-57.8837
-57.8202
-57.7041
-57.6786
-57.983
-57.89
-57.7397
-57.6446
-57.6859
-57.9315
-57.9115
-57.7839
-57.7376
-57.6126
-57.6183
-57.9228
-57.9299
-57.8912
-57.7936
-57.704
-57.5874
-57.6625
-57.9797
-58.0507
-57.9648
-57.8644
-57.7902
-57.7367
-57.5466
-57.6737
-58.0566
-58.1029
-58.0515
-57.9873
-57.9024
-57.7855
-57.6972
-57.6889
-57.7492
-58.3207
-58.3465
-58.29
-58.1802
-58.0443
-57.9183
-57.7693
-57.8562
-57.7208
-57.8649
-58.586
-58.5331
-58.437
-58.3358
-58.2294
-58.1962
-57.944
-57.8778
-57.8439
-57.7986
-57.9207
-58.951
-58.9234
-58.7968
-58.6494
-58.4513
-58.3227
-58.1476
-58.1001
-57.941
-57.8574
-57.7625
-58.0984
-59.2727
-59.3172
-59.118
-58.9051
-58.6968
-58.5188
-58.3814
-58.2848
-58.1535
-58.033
-57.9908
-58.091
-58.298
-60.2028
-59.9359
-59.643
-59.5771
-59.2825
-58.8349
-58.6354
-58.5539
-58.3037
-58.2028
-58.1255
-58.2569
-58.2101
-58.5143
-61.0649
-60.8784
-60.5971
-60.1289
-59.765
-59.2136
-59.0893
-58.7434
-58.5107
-58.3932
-58.2863
-58.3791
-58.3769
-58.5801
-59.0438
-62.3912
-61.8011
-61.379
-60.8867
-60.2769
-59.7357
-59.5638
-59.1626
-58.8781
-58.6419
-58.456
-58.533
-58.6742
-58.9143
-59.1332
-59.5547
-64.0085
-63.4339
-62.8442
-62.0316
-61.1177
-60.636
-60.0783
-59.46
-59.0834
-58.8652
-58.7522
-58.7844
-58.6908
-58.9427
-59.3377
-59.8411
-61.2183
-66.8355
-65.2695
-64.1693
-63.3284
-62.4286
-61.6783
-60.9612
-60.1332
-59.6123
-59.3773
-59.0116
-58.9196
-58.7858
-58.8832
-59.3967
-60.2528
-61.7809
-63.8732
-70.4927
-68.0208
-66.385
-64.6949
-63.6037
-62.8293
-61.7483
-60.883
-60.1089
-59.5828
-59.3422
-58.9523
-58.7815
-58.7336
-59.3006
-60.5724
-62.8151
-64.4696
-67.6899
-74.2706
-70.6073
-68.3949
-66.9192
-65.4871
-64.4038
-62.7681
-61.552
-60.7557
-60.1036
-59.8072
-59.0316
-58.737
-58.6139
-59.2943
-60.5566
-63.5224
-66.9602
-66.9366
-67.2344
-75.373
-72.8567
-70.3914
-68.4352
-67.1643
-65.2655
-64.098
-62.6998
-61.4827
-60.7484
-60.1585
-59.6217
-59.0584
-58.6023
-59.1061
-60.0223
-63.1098
-66.9826
-68.2258
-65.5728
-63.5098
-76.7473
-74.8266
-72.0347
-69.9714
-68.6095
-66.7723
-64.8478
-63.748
-62.3345
-61.251
-60.4368
-59.8257
-59.2903
-58.6649
-58.5995
-59.9069
-61.9271
-64.0221
-65.0378
-63.6089
-62.6306
-62.7106
-76.7536
-75.0037
-73.0184
-70.4958
-69.2236
-67.1925
-65.876
-64.4178
-63.1871
-62.072
-61.1871
-60.4155
-59.9402
-59.5611
-59.7168
-60.213
-61.2578
-62.479
-62.7585
-62.582
-62.6035
-62.3854
-61.7794
-75.9252
-74.2474
-72.5658
-70.407
-69.0938
-68.091
-66.4416
-65.2066
-63.924
-62.8954
-61.8799
-61.3389
-60.8794
-60.6146
-60.6358
-61.0206
-61.0102
-61.6495
-61.7392
-61.9822
-62.6573
-61.5784
-61.1599
-61.5535
-74.215
-73.1074
-71.6945
-70.0997
-68.919
-67.6004
-66.4768
-64.9902
-64.2151
-63.3021
-62.5096
-62.0724
-61.4353
-61.1109
-61.0726
-61.1874
-61.4274
-61.5609
-61.4339
-61.6859
-62.0604
-61.9381
-61.4841
-61.3914
-57.5116
-57.6246
-57.678
-57.678
-57.798
-57.8519
-57.8129
-57.6521
-57.6477
-57.9541
-57.8608
-57.7247
-57.5867
-57.6121
-57.9165
-57.9368
-57.7693
-57.631
-57.5285
-57.6127
-58.0052
-57.9502
-57.8293
-57.7229
-57.647
-57.5171
-57.5727
-57.9057
-58.0785
-57.9257
-57.8392
-57.7154
-57.6223
-57.5335
-57.5766
-57.9957
-58.1123
-58.0328
-57.9084
-57.8318
-57.7269
-57.6012
-57.5845
-57.6632
-58.1194
-58.0988
-58.0796
-58.0069
-57.9193
-57.8445
-57.7422
-57.6948
-57.6195
-57.7467
-58.2278
-58.3619
-58.3458
-58.2065
-58.1425
-57.9784
-57.8827
-57.8396
-57.7135
-57.7264
-57.8443
-58.5945
-58.5622
-58.5233
-58.4289
-58.2602
-58.1758
-57.9623
-57.9426
-57.8565
-57.8321
-57.7759
-58.0292
-59.0549
-58.9378
-58.8072
-58.7672
-58.5507
-58.3428
-58.1559
-58.1139
-57.9742
-57.889
-57.8141
-57.9296
-58.1314
-59.5259
-59.4214
-59.2044
-58.9811
-58.7674
-58.5565
-58.4032
-58.2918
-58.17
-58.0271
-58.064
-58.0942
-58.0611
-58.4307
-60.1768
-60.0657
-59.8103
-59.7453
-59.281
-58.9267
-58.7248
-58.5988
-58.3122
-58.2726
-58.1039
-58.2069
-58.2898
-58.4468
-58.6842
-61.327
-61.0144
-60.7119
-60.1388
-60.0054
-59.2657
-59.0853
-58.7795
-58.5747
-58.4304
-58.2564
-58.3231
-58.3617
-58.5118
-58.7006
-59.221
-62.6386
-62.1762
-61.6948
-60.8199
-60.2642
-59.7133
-59.6585
-59.1574
-58.9739
-58.6487
-58.5012
-58.4724
-58.6047
-58.821
-58.9905
-59.3768
-60.2074
-64.7468
-63.9575
-63.0349
-62.0611
-61.5091
-60.9568
-60.2272
-59.4592
-59.16
-58.8186
-58.7523
-58.6861
-58.6232
-58.8926
-59.1435
-59.7045
-60.5944
-62.1109
-67.3656
-65.7526
-64.4109
-63.7308
-62.7455
-61.9785
-61.0522
-60.3225
-59.7103
-59.3421
-59.0004
-58.8759
-58.7412
-58.8278
-59.2538
-59.9646
-61.339
-62.6759
-64.6937
-71.1991
-68.6782
-66.8679
-65.0059
-64.0163
-63.0251
-61.9473
-60.93
-60.2377
-59.7069
-59.3962
-58.9871
-58.7885
-58.6672
-59.1497
-60.2613
-62.3813
-64.1055
-63.8318
-66.4033
-74.8245
-71.2954
-68.9815
-67.3998
-65.9027
-64.8287
-63.1074
-61.7886
-60.8962
-60.089
-59.7506
-59.1046
-58.7865
-58.6355
-59.1784
-59.9536
-62.7009
-66.3726
-67.512
-64.5475
-64.8237
-75.9148
-73.5039
-70.9949
-68.9931
-67.3655
-65.5785
-64.385
-62.9381
-61.6784
-60.873
-60.2493
-59.5656
-58.963
-58.5734
-58.9235
-59.7553
-62.1325
-66.8054
-68.3491
-66.0456
-63.6827
-62.6487
-77.0726
-75.3805
-72.5577
-70.373
-69.1119
-66.9577
-65.0866
-63.6822
-62.519
-61.4523
-60.5681
-59.8497
-59.3522
-58.7377
-58.6003
-59.4864
-61.4918
-63.4186
-64.8949
-63.7282
-62.6509
-62.0078
-62.5264
-77.1683
-75.3176
-73.2989
-70.7397
-69.5144
-67.7507
-66.0853
-64.5958
-63.345
-62.2064
-61.303
-60.5136
-60.0402
-59.5769
-59.6021
-60.0811
-60.9267
-62.3278
-62.6469
-62.5448
-62.5143
-62.1959
-61.4689
-61.2405
-76.0167
-74.3472
-72.7356
-70.5377
-69.29
-68.1354
-66.6769
-65.3459
-64.0509
-63.0511
-61.9618
-61.3972
-60.9306
-60.6208
-60.6038
-60.9716
-60.9443
-61.5797
-61.6947
-61.9553
-62.5273
-61.4725
-61.0845
-61.303
-61.4289
-74.2342
-73.2063
-71.8684
-70.1357
-68.9714
-67.649
-66.5033
-65.0635
-64.2632
-63.3633
-62.6056
-62.1261
-61.4665
-61.1265
-61.0657
-61.1528
-61.3711
-61.491
-61.3324
-61.6472
-62.0126
-61.8757
-61.4423
-61.3519
-61.2185
-57.5186
-57.5352
-57.5474
-57.6511
-57.6931
-57.7027
-57.5098
-57.6654
-57.8638
-57.8191
-57.699
-57.498
-57.5391
-57.9848
-57.9661
-57.73
-57.5869
-57.521
-57.5362
-57.9515
-57.9666
-57.8335
-57.6942
-57.5622
-57.4585
-57.5199
-58.0282
-58.0011
-57.8983
-57.7767
-57.6461
-57.5595
-57.4531
-57.4965
-57.9706
-58.0505
-58.0011
-57.8964
-57.7663
-57.6508
-57.5158
-57.4869
-57.5547
-58.0175
-58.1072
-58.0918
-57.9773
-57.8724
-57.7584
-57.65
-57.5183
-57.5534
-57.6081
-58.1041
-58.1771
-58.1082
-58.1141
-57.9658
-57.9083
-57.8018
-57.6835
-57.652
-57.582
-57.7449
-58.3297
-58.3176
-58.355
-58.2886
-58.172
-58.022
-57.9363
-57.86
-57.7495