/*--------------------------------*- C++ -*----------------------------------*\
  =========                 |
  \\      /  F ield         | OpenFOAM: The Open Source CFD Toolbox
   \\    /   O peration     | Website:  https://openfoam.org
    \\  /    A nd           | Version:  7
     \\/     M anipulation  |
\*---------------------------------------------------------------------------*/
FoamFile
{
    version     2.0;
    format      ascii;
    class       volVectorField;
    location    "4";
    object      U_0;
}
// * * * * * * * * * * * * * * * * * * * * * * * * * * * * * * * * * * * * * //

dimensions      [0 1 -1 0 0 0 0];

internalField   nonuniform List<vector> 
18720
(
(-2.07687 0.271496 0.353689)
(-1.90642 1.82183 0.786071)
(-2.05932 0.254258 0.344372)
(-2.08645 0.269065 0.367916)
(-1.84079 0.530368 0.22659)
(-1.43681 2.78142 0.584972)
(-1.90361 1.8234 0.80022)
(-1.75812 1.87419 0.778329)
(-1.60919 1.70944 1.18801)
(-1.81647 0.518147 0.238369)
(-2.08626 0.293498 0.378195)
(-1.86654 0.54058 0.238451)
(-1.82927 1.10673 0.537023)
(-1.79919 3.02848 2.10504)
(-1.42374 2.85195 0.582908)
(-1.33242 2.81589 0.287463)
(-1.62435 2.92776 1.03896)
(-1.64369 1.68026 1.12846)
(-1.61771 1.92674 0.707402)
(-1.54387 1.73563 1.2186)
(-1.90442 1.86026 1.32655)
(-1.82961 1.11131 0.520593)
(-2.09893 0.301624 0.36654)
(-1.8939 0.566254 0.258661)
(-1.82178 1.10136 0.548764)
(-1.51651 1.59053 0.208828)
(-1.78073 3.64866 2.78337)
(-1.8614 3.00043 2.06214)
(-1.55828 2.88632 2.17815)
(-2.00988 3.03596 2.0609)
(-1.3085 3.24422 0.532534)
(-1.2511 2.85061 0.17568)
(-1.27181 3.06474 0.735603)
(-1.82814 2.85504 1.31526)
(-1.92706 1.8478 1.29602)
(-1.61068 1.93063 0.561871)
(-1.44869 1.81874 1.27582)
(-1.81202 1.88371 1.38273)
(-1.45254 1.82721 1.51023)
(-1.49867 1.60027 0.282073)
(-2.11483 0.301743 0.356311)
(-1.93539 0.578769 0.247225)
(-1.82027 1.1049 0.55826)
(-1.50946 1.59461 0.220263)
(-1.59892 2.03344 0.049767)
(-1.64306 3.31501 3.12308)
(-1.88703 3.45852 2.80002)
(-1.738 3.45788 2.99083)
(-1.79846 3.32577 2.97067)
(-2.09781 3.00856 2.18135)
(-1.40562 3.0185 1.8082)
(-1.84974 2.90222 2.09364)
(-1.85149 3.11142 2.25886)
(-1.66206 3.01339 1.33947)
(-1.27044 2.84211 0.107263)
(-1.35103 3.06701 0.703164)
(-1.61231 2.9779 1.28663)
(-1.92533 2.60028 1.26831)
(-1.64359 1.7882 1.49371)
(-1.54381 1.97624 0.501889)
(-1.55195 1.84769 1.13807)
(-1.71988 1.90111 1.41909)
(-1.42043 1.81041 1.46259)
(-1.23562 2.08802 1.56055)
(-1.59587 2.04834 0.0340849)
(-2.13724 0.289559 0.355158)
(-1.96267 0.596437 0.23544)
(-1.83176 1.09003 0.542842)
(-1.5146 1.57934 0.158804)
(-1.60993 2.03927 0.0837838)
(-1.73067 2.24643 -0.0328133)
(-1.51953 2.98653 2.89793)
(-1.78119 3.18652 3.08681)
(-1.47597 3.49957 3.15419)
(-1.17061 3.17258 3.15447)
(-1.87286 3.12516 3.08864)
(-1.50168 3.4482 2.89591)
(-1.71352 3.36255 2.84997)
(-1.70476 3.14739 2.93595)
(-1.82457 3.14517 2.40224)
(-1.35931 2.95717 1.78181)
(-1.35957 3.0276 2.14782)
(-1.47928 3.2031 2.17125)
(-1.5954 3.08249 2.37862)
(-1.96515 2.62562 1.36402)
(-1.06013 2.85992 0.0216572)
(-1.32093 3.10207 0.628735)
(-1.42044 3.09861 1.17806)
(-1.75359 2.60932 1.28946)
(-1.34738 2.62715 1.80053)
(-1.46633 2.09154 1.45369)
(-1.5044 1.97999 0.50785)
(-1.50694 1.87858 1.14398)
(-1.73591 1.88916 1.32956)
(-1.34447 1.82734 1.4227)
(-1.27248 2.09247 1.41326)
(-1.54978 2.41735 1.29351)
(-1.72041 2.25043 -0.028787)
(-2.14681 0.311476 0.340921)
(-1.98402 0.624823 0.216627)
(-1.82335 1.09564 0.548699)
(-1.50596 1.57578 0.17105)
(-1.60229 2.06375 0.0745176)
(-1.72966 2.22397 -0.0523453)
(-1.41306 2.2884 -0.227111)
(-1.01551 3.1036 2.48601)
(-1.55282 2.95883 2.92224)
(-0.900263 3.12436 3.06485)
(-0.824743 2.75016 3.21009)
(-1.41261 3.16322 3.07393)
(-1.5517 3.4987 3.09407)
(-1.68804 3.53842 2.69859)
(-1.20008 3.21525 2.65846)
(-1.53019 3.21591 2.94941)
(-1.22154 3.40512 2.87162)
(-1.55414 3.28287 2.81754)
(-1.24044 3.25896 2.93733)
(-1.45996 3.14247 2.77836)
(-1.58825 3.135 2.31591)
(-1.10545 3.05662 1.52869)
(-1.44938 2.95254 2.06249)
(-1.29976 3.26564 2.09385)
(-1.32225 3.15978 2.30686)
(-1.55426 3.15948 2.04312)
(-1.61744 2.64877 1.66577)
(-0.973377 2.82624 0.0836688)
(-1.3045 3.09999 0.522278)
(-1.6506 2.95943 0.919371)
(-1.53818 2.6884 1.33638)
(-1.22418 2.6214 1.78308)
(-1.4083 2.74808 1.62869)
(-1.61475 2.41418 1.30267)
(-1.43512 1.98144 0.556155)
(-1.53777 1.9558 1.00718)
(-1.64931 1.90277 1.30173)
(-1.27065 1.79033 1.37473)
(-1.1985 2.11497 1.35186)
(-1.53126 2.41343 1.26346)
(-1.62562 2.56868 0.740189)
(-1.42919 2.26832 -0.200093)
(-2.16886 0.300025 0.364517)
(-2.00741 0.633819 0.207322)
(-1.82334 1.09425 0.551561)
(-1.4968 1.58242 0.20772)
(-1.59635 2.04774 0.0701859)
(-1.71126 2.21203 -0.0757164)
(-1.38168 2.27968 -0.25002)
(-0.836425 1.95453 0.238825)
(-1.02089 2.88398 2.58073)
(-1.18885 2.95299 2.47135)
(-1.15375 3.08586 2.51759)
(-0.813426 3.06755 2.29815)
(-1.1206 2.92027 2.82833)
(-0.961778 3.35 2.90825)
(-0.741073 2.86295 3.17022)
(-0.418574 3.1399 2.43159)
(-1.52842 3.19006 2.47451)
(-1.03597 3.56034 3.23064)
(-1.59415 3.48031 2.90555)
(-1.02424 3.18247 2.79911)
(-1.16408 2.8769 2.43111)
(-1.41649 3.18398 2.76031)
(-1.0741 3.3605 2.74569)
(-1.226 3.34435 2.79617)
(-1.12239 3.27024 2.87217)
(-1.18287 3.14318 2.82668)
(-1.29471 3.26663 2.46036)
(-1.47917 3.22175 2.05638)
(-0.99047 3.05457 1.41541)
(-1.27424 2.98336 1.98058)
(-1.19029 3.32472 1.93848)
(-1.22021 3.21516 2.14706)
(-1.41083 3.18453 1.9942)
(-1.31373 3.11787 1.89836)
(-1.47024 2.72254 1.60847)
(-0.893579 2.85387 0.0826601)
(-1.27668 3.16348 0.399495)
(-1.26542 3.07816 0.813032)
(-1.32502 2.70131 1.39214)
(-1.03148 2.64781 1.8826)
(-1.31511 2.75271 1.67782)
(-0.837037 2.7636 1.81057)
(-1.63479 2.53981 0.932741)
(-1.38167 1.98061 0.554356)
(-1.51229 1.94942 1.07863)
(-1.53636 1.89674 1.35843)
(-1.16653 1.79363 1.28526)
(-1.17409 2.15189 1.23365)
(-1.58164 2.40666 1.14874)
(-1.55264 2.56553 0.703691)
(-1.01971 2.61281 0.45459)
(-0.826155 1.94166 0.241065)
(-2.17014 0.320295 0.345012)
(-2.03701 0.62956 0.200317)
(-1.82337 1.09892 0.546292)
(-1.49411 1.56744 0.299025)
(-1.59676 2.05538 0.031966)
(-1.69501 2.21797 -0.15401)
(-1.36251 2.22878 -0.270372)
(-0.847553 1.94013 0.239821)
(-0.559441 2.46683 0.484902)
(-0.668587 2.87155 2.59365)
(-1.02788 2.88337 2.57817)
(-0.961995 2.96213 2.62439)
(-0.742724 2.74668 2.58684)
(-0.962625 2.97748 2.22514)
(-0.988241 2.94792 2.61783)
(-0.783369 3.05123 2.47952)
(-0.328057 3.20109 2.24996)
(-1.1091 2.92774 2.21637)
(-1.04187 3.41608 2.82813)
(-0.877079 3.01331 3.08189)
(-0.483051 3.02337 2.71087)
(-1.16082 2.97065 2.26514)
(-1.7258 2.81952 2.57418)
(-1.24277 3.45503 3.27562)
(-1.11507 3.57935 2.91087)
(-0.637198 3.45841 2.80208)
(-0.974433 3.66392 1.38904)
(-1.27312 3.06704 2.03994)
(-1.04352 3.40293 2.29868)
(-0.823191 3.33865 2.6093)
(-1.19858 3.17651 2.81986)
(-0.997519 3.39117 2.72852)
(-0.893219 3.08106 3.04783)
(-1.07395 3.22485 2.42191)
(-1.09356 3.24172 2.03324)
(-1.37297 3.01056 1.97628)
(-0.796792 3.12892 1.30567)
(-1.1707 3.07971 1.8444)
(-1.10363 3.30348 1.79484)
(-1.25233 3.24293 1.94591)
(-1.31741 3.26334 1.97065)
(-1.19517 2.99857 2.1581)
(-1.07815 2.87379 1.83881)
(-0.874464 2.73594 1.82106)
(-0.810265 2.88819 0.0661238)
(-1.24384 3.14961 0.535689)
(-1.09039 3.10281 0.733033)
(-1.13999 2.65567 1.34497)
(-0.488557 2.43932 2.3138)
(-1.24422 2.7666 1.72339)
(-0.893589 2.75541 1.80523)
(-0.580465 2.95324 1.09334)
(-1.01774 2.61286 0.457907)
(-1.32197 1.98218 0.523499)
(-1.46669 2.00488 1.06647)
(-1.46397 1.85373 1.35749)
(-1.12847 1.78359 1.14166)
(-1.21501 2.19315 1.02983)
(-1.59245 2.4146 1.04078)
(-1.5203 2.57575 0.534911)
(-0.978517 2.62788 0.397095)
(-0.587657 2.1983 1.08701)
(-0.554067 2.48711 0.469879)
(-2.16142 0.339072 0.334448)
(-2.06383 0.636274 0.200837)
(-1.81999 1.11427 0.524004)
(-1.47522 1.55178 0.424502)
(-1.59067 2.04165 0.00623303)
(-1.68048 2.20927 -0.164617)
(-1.33382 2.25661 -0.286372)
(-0.867015 1.95151 0.240227)
(-0.589962 2.46258 0.463448)
(-0.332277 2.35862 -0.0704546)
(-0.833075 2.63835 2.57966)
(-0.840574 2.75257 2.49815)
(-0.496197 2.82006 2.6678)
(-0.62934 2.51184 2.66203)
(-0.915449 2.80005 2.55372)
(-0.851995 3.04695 2.63506)
(-0.652399 2.77436 2.48587)
(-0.470025 2.85541 2.45627)
(-0.97037 2.98618 2.27219)
(-0.789134 3.03323 2.5879)
(-0.80197 3.0065 2.52846)
(-0.657957 3.11201 2.40481)
(-0.82854 2.83728 2.31119)
(-1.05201 3.00959 2.22012)
(-0.902077 3.42448 2.79518)
(-0.869054 3.2362 2.91012)
(-0.451255 2.96337 2.93278)
(-1.00732 2.87498 2.42159)
(-0.893149 2.89549 2.05791)
(-0.825478 2.91486 2.41786)
(-0.619254 3.37473 3.46412)
(-1.25149 3.47331 2.91298)
(-1.26042 3.3959 2.8631)
(-1.46972 2.77007 2.99159)
(-1.13259 3.17866 2.0639)
(-0.818306 2.85165 2.30297)
(-1.0191 3.18622 1.88595)
(-0.858197 3.39347 2.2891)
(-0.741183 3.20823 2.80824)
(-1.13102 3.37607 2.63449)
(-1.15343 2.95781 2.99254)
(-1.08152 3.1705 2.46003)
(-1.15464 3.21143 2.11079)
(-0.536321 2.82587 2.03226)
(-1.02767 2.89065 1.79553)
(-0.684351 3.14061 1.28929)
(-1.11253 3.14108 1.71327)
(-0.98395 3.30512 1.61434)
(-1.05993 3.2945 1.76027)
(-1.65131 3.1784 1.84193)
(-1.14944 3.12882 2.06088)
(-1.01908 2.8441 1.94821)
(-0.314227 3.06538 1.3635)
(-0.612124 2.97383 0.960596)
(-0.622034 2.89699 0.0128101)
(-1.17219 3.12866 0.481078)
(-1.03718 3.00244 0.683437)
(-1.02412 2.68718 1.14274)
(-0.689409 2.46966 2.11983)
(-1.21796 2.77882 1.74174)
(-0.743326 2.7569 1.79817)
(-0.518158 2.96201 1.09043)
(-0.306277 2.89942 0.521485)
(-0.613409 2.16804 1.17796)
(-1.25479 1.9798 0.523285)
(-1.46409 1.97694 1.09177)
(-1.41045 1.85335 1.23553)
(-1.10903 1.77595 0.946067)
(-1.17013 2.21315 0.942751)
(-1.63633 2.43111 0.844144)
(-1.46515 2.60137 0.254203)
(-0.866272 2.67396 0.336871)
(-0.547811 2.21345 1.07162)
(-0.352113 2.2486 0.734841)
(-0.269372 2.37795 0.136995)
(-2.16958 0.322078 0.317938)
(-2.08527 0.649667 0.193163)
(-1.82449 1.11583 0.50985)
(-1.49236 1.57225 0.236782)
(-1.58435 2.02923 -0.00550132)
(-1.68791 2.18042 -0.212261)
(-1.31561 2.27399 -0.300208)
(-0.886336 1.95594 0.237441)
(-0.57874 2.46166 0.48637)
(-0.34155 2.35522 -0.0420242)
(-0.0404201 1.99871 -0.0946105)
(-0.605089 2.15942 2.83857)
(-0.908114 2.54432 2.60771)
(-0.54505 2.68625 2.58956)
(-0.644512 2.43737 2.67953)
(-0.682001 2.64851 2.57691)
(-0.246844 2.88211 2.5553)
(-0.580049 2.58666 2.59827)
(-0.503416 2.72342 2.46926)
(-0.673081 2.8456 2.49002)
(-0.479467 3.07184 2.72076)
(-0.54044 2.84935 2.50155)
(-0.375482 2.85905 2.44515)
(-0.535316 2.8724 2.44912)
(-0.963045 2.73332 2.37815)
(-0.508764 3.23512 2.68703)
(-0.534206 3.15314 2.45194)
(-0.627073 3.06876 2.4847)
(-0.5936 3.07852 2.19624)
(-0.662677 2.87619 2.23392)
(-0.821428 2.85672 1.93545)
(-0.502967 3.38357 3.0767)
(-0.467111 3.25036 2.87386)
(-0.587823 3.1025 2.99382)
(-0.659652 2.97653 2.41259)
(-0.811859 3.01045 2.12499)
(-0.689901 2.79432 2.13071)
(-0.472117 2.82625 2.28233)
(-0.659482 3.30947 3.34858)
(-0.580186 3.52857 3.0444)
(-1.24001 3.70498 2.5608)
(-1.10359 3.16592 2.59428)
(-1.23064 3.08205 2.18525)
(-0.791107 2.9558 2.31408)
(-0.482375 2.89663 1.82456)
(-0.780996 2.85447 1.84919)
(-0.663798 3.45351 2.05894)
(-0.73779 3.20772 2.72154)
(-0.86779 3.1893 2.82527)
(-0.872628 2.99065 2.97156)
(-1.07393 3.19643 2.54833)
(-0.882847 3.22914 2.21165)
(-0.447006 2.87535 2.00572)
(-0.263967 3.00192 1.35267)
(-0.512785 3.05751 1.29048)
(-0.547614 3.14828 1.30282)
(-1.04288 3.20363 1.5669)
(-0.842745 3.29648 1.43219)
(-0.870562 3.21685 1.75583)
(-1.37994 3.19722 1.91116)
(-1.14742 3.1472 2.08389)
(-0.819374 2.95004 1.94508)
(-0.19006 3.07431 1.60408)
(-0.0789659 2.84607 1.57787)
(-0.364438 2.89139 0.574358)
(-0.528372 2.88286 -0.044464)
(-1.21877 3.10916 0.373661)
(-0.912183 3.01882 0.256459)
(-0.829114 2.73166 0.994627)
(-0.553267 2.44967 2.2002)
(-1.16348 2.73552 1.68886)
(-0.392239 2.7218 1.85454)
(-0.365334 2.90714 1.18033)
(-0.113476 3.0011 0.418532)
(-0.0631386 2.40368 1.14574)
(-0.354654 2.24844 0.733392)
(-1.21391 1.97439 0.522501)
(-1.41417 1.98515 1.04149)
(-1.35842 1.81221 1.22553)
(-1.09805 1.78073 0.778873)
(-1.12602 2.27202 0.810062)
(-1.65262 2.41116 0.742494)
(-1.33031 2.60932 0.0587012)
(-0.863426 2.66473 0.325463)
(-0.458884 2.25669 1.08238)
(-0.31004 2.25133 0.823125)
(0.0743253 2.21587 0.757973)
(-0.0589788 2.00099 -0.105782)
(-2.17124 0.322687 0.303008)
(-2.11025 0.648829 0.167186)
(-1.82112 1.13156 0.493338)
(-1.47459 1.57605 0.279689)
(-1.56428 2.03023 -0.120678)
(-1.67889 2.16398 -0.234647)
(-1.2928 2.2446 -0.33441)
(-0.913866 1.95106 0.248692)
(-0.583005 2.46336 0.480712)
(-0.347325 2.3469 -0.0665553)
(-0.0320334 1.99489 -0.0912442)
(0.299337 1.62911 -0.238037)
(-0.732904 2.28892 2.53666)
(-0.72244 2.19048 2.75276)
(-0.599858 2.17058 2.82047)
(-0.607943 2.73693 2.13954)
(-0.885568 2.43502 2.63224)
(-0.454491 2.68245 2.61289)
(-0.49339 2.45834 2.70854)
(-0.338722 2.47379 2.61385)
(-0.48568 2.77335 2.42091)
(0.0171641 3.37944 2.11508)
(-0.42902 2.77559 2.58787)
(-0.451926 2.68604 2.47568)
(-0.304353 2.75464 2.44373)
(-0.929431 2.70117 2.44995)
(0.0121407 3.13693 2.98488)
(-0.438235 2.83548 2.60523)
(-0.3477 2.85886 2.49604)
(-0.27257 2.85142 2.43385)
(-0.744584 2.50451 2.61035)
(-0.754834 2.90682 2.13269)
(-0.336551 3.15994 2.83502)
(-0.516473 3.31231 2.37423)
(-0.142425 2.96504 2.71966)
(-0.0563007 3.21137 2.22692)
(-0.429727 2.98237 2.254)
(-0.707623 2.59383 2.36663)
(-0.650779 2.82942 2.06048)
(0.0216496 3.38506 3.45033)
(-0.239997 3.23473 2.86691)
(-0.556465 3.21433 2.96161)
(-0.0813984 3.09685 2.63179)
(-0.543107 3.16835 2.11753)
(-0.703994 2.81815 2.19381)
(-0.224482 2.96378 1.91964)
(-0.754734 2.69418 1.94023)
(-0.309813 3.38419 3.20694)
(-0.627676 3.37873 3.11771)
(-1.3004 3.59653 2.63145)
(-1.03609 3.01926 2.97405)
(-0.557698 3.37586 2.11138)
(-0.694399 2.94797 2.35531)
(-0.417549 2.83823 1.99905)
(0.213794 2.291 2.35921)
(-0.187088 2.98477 1.35318)
(-0.660841 3.47045 2.00618)
(-0.5141 3.28869 2.55797)
(-0.773693 3.22838 2.72027)
(-0.577256 2.93831 3.04579)
(-0.87411 3.16803 2.71701)
(-0.767813 3.18705 2.47979)
(-0.457815 2.8856 2.03867)
(-0.209455 2.9634 1.4145)
(0.0613265 2.8481 1.66289)
(-0.043269 2.82118 1.46501)
(-0.425886 3.14787 1.33706)
(-0.941127 3.26288 1.56235)
(-0.724631 3.19992 1.36278)
(-0.657693 3.30265 1.49483)
(-1.42726 3.2047 1.89711)
(-1.04295 3.16461 2.0556)
(-0.860147 2.89923 2.06699)
(-0.327257 3.06237 1.72453)
(-0.0441142 2.7554 1.63996)
(-0.175031 2.45286 1.7072)
(-0.14981 2.43722 1.02823)
(-0.478544 2.91303 -0.143089)
(-1.21852 3.15705 0.179625)
(-0.774576 2.95491 0.275908)
(-0.633033 2.69211 0.930363)
(-0.0602693 2.20618 2.41473)
(-1.14487 2.67071 1.66694)
(-0.44174 2.68221 1.69109)
(-0.276283 2.85302 1.1742)
(-0.147477 3.03468 0.48564)
(-0.0769517 2.45581 1.12243)
(0.460761 2.29159 0.608932)
(0.123272 2.21256 0.673461)
(-1.19479 1.97511 0.508468)
(-1.36849 1.95787 1.07212)
(-1.33283 1.77588 1.18625)
(-1.10357 1.808 0.612118)
(-1.07076 2.30918 0.736268)
(-1.61644 2.44507 0.686071)
(-1.16205 2.59385 0.221457)
(-0.673155 2.7433 0.232864)
(-0.457805 2.28377 1.18979)
(-0.276058 2.25065 0.952296)
(0.0887051 2.23883 0.712958)
(0.306629 1.90234 0.493584)
(0.301718 1.63952 -0.219935)
(-2.1605 0.323143 0.297918)
(-2.11901 0.673449 0.157064)
(-1.82394 1.14136 0.470685)
(-1.44988 1.58044 0.315751)
(-1.54047 2.03132 -0.0233008)
(-1.67058 2.15413 -0.328426)
(-1.29565 2.23585 -0.279075)
(-0.900728 1.98321 0.265492)
(-0.581138 2.45329 0.496004)
(-0.352205 2.34402 -0.03738)
(-0.0309292 1.99997 -0.0901925)
(0.278169 1.63888 -0.227887)
(0.560536 1.46781 -0.150303)
(-0.54878 2.31367 2.36293)
(-0.861864 2.21573 2.51845)
(-0.558939 2.3323 2.56966)
(-0.401713 2.36638 2.49464)
(-0.723845 2.54851 2.28112)
(-0.438946 2.19977 2.87183)
(-0.396789 2.70172 2.28832)
(-0.230113 2.2202 2.69558)
(-0.428394 2.37103 2.67333)
(-0.172939 2.6945 2.66643)
(-0.336935 2.59566 2.70089)
(-0.306404 2.50167 2.57516)
(-0.406084 2.40143 2.61557)
(-0.377724 2.76358 2.37088)
(0.433401 2.73918 2.96295)
(0.0181738 2.63798 2.92726)
(-0.186143 2.79897 2.45978)
(-0.166679 2.67882 2.50738)
(-0.472279 2.46603 2.45905)
(-0.694295 2.48314 2.58505)
(-0.164393 3.35757 2.84)
(-0.024003 2.9733 2.61685)
(-0.305836 2.86964 2.48416)
(0.183908 3.267 2.01677)
(-0.596303 2.56389 2.58373)
(-0.288579 2.75673 2.25051)
(-0.603845 2.54835 2.40146)
(-0.00794441 3.13421 2.94526)
(-0.349718 3.33126 2.45532)
(-0.792887 3.22444 2.45873)
(0.101305 3.17488 2.25862)
(-0.312947 2.95152 2.37)
(-0.562888 2.5823 2.40189)
(-0.223342 2.8197 2.03052)
(-0.524276 2.96821 1.77737)
(-0.0129694 3.19808 3.74319)
(0.567856 3.34607 3.03624)
(-0.402037 3.26453 2.93217)
(-0.0374822 3.1958 2.65055)
(-0.283629 3.12869 2.2681)
(-0.55115 2.81585 2.24857)
(0.0088674 2.98268 1.9702)
(-0.49478 2.58976 1.96037)
(-0.34076 2.60195 2.04061)
(-0.080058 3.36608 3.24233)
(-0.459372 3.50178 2.89947)
(-0.81538 3.77603 2.51371)
(-0.411865 3.18236 3.03164)
(-0.580157 3.22736 2.55356)
(-0.588456 3.05394 2.25317)
(-0.356757 2.87363 1.94605)
(-0.164617 2.51679 1.90073)
(-0.248581 2.58033 2.02993)
(-0.0959332 2.89626 1.59066)
(-0.50069 3.69789 1.86967)
(-0.38834 3.27791 2.50053)
(-0.486526 3.14117 2.76615)
(-0.53548 3.05059 2.84255)
(-0.778537 3.25194 2.71066)
(-0.777571 3.27063 2.48137)
(-0.448794 2.79894 2.20716)
(-0.138284 2.99111 1.59179)
(-0.419633 2.83847 1.6425)
(0.226152 2.55234 1.61183)
(-0.185818 2.43682 1.67983)
(-0.165825 3.11907 1.44996)
(-0.815724 3.33205 1.50595)
(-0.429349 3.16331 1.24425)
(-0.57587 3.25378 1.40121)
(-1.33396 3.20203 1.81488)
(-1.00178 3.22619 2.00773)
(-0.755634 2.90742 2.11372)
(-0.31615 3.01406 1.80803)
(0.229301 2.9357 1.35217)
(0.0359845 2.39572 1.82558)
(0.838365 2.43546 0.93883)
(0.446244 2.28148 0.597094)
(-0.448544 2.90664 -0.143031)
(-1.2317 3.14553 0.129466)
(-0.644495 2.90751 0.282835)
(-0.390119 2.66278 0.863989)
(-0.120093 2.06409 2.34493)
(-1.15633 2.71767 1.64814)
(-0.301327 2.70028 1.42574)
(-0.271306 2.83858 1.04106)
(-0.0764314 3.01131 0.450128)
(-0.00409716 2.49965 1.13757)
(0.40923 2.33167 0.567569)
(0.693379 1.8948 0.421976)
(0.265249 1.89879 0.535426)
(-1.17161 2.00247 0.423105)
(-1.36732 1.91184 1.06398)
(-1.31166 1.76654 1.11645)
(-1.12229 1.81625 0.483105)
(-1.02604 2.34502 0.6541)
(-1.62618 2.43328 0.615019)
(-1.04037 2.59429 0.0912649)
(-0.620948 2.77696 0.272042)
(-0.335379 2.36194 1.30991)
(-0.235938 2.25482 1.07904)
(0.0912993 2.25065 0.683274)
(0.345559 1.90031 0.460052)
(0.50099 1.66588 0.168335)
(0.551064 1.45863 -0.14674)
(-2.1552 0.30476 0.271979)
(-2.14597 0.659232 0.110505)
(-1.83337 1.13039 0.468953)
(-1.50202 1.56778 0.266655)
(-1.52552 2.02004 0.131541)
(-1.66505 2.15831 -0.321344)
(-1.25637 2.28294 -0.264875)
(-0.916723 1.97551 0.296876)
(-0.573858 2.46191 0.5304)
(-0.354886 2.34096 -0.0783503)
(-0.0393895 1.99863 -0.0927288)
(0.2903 1.63715 -0.225699)
(0.58353 1.46144 -0.1108)
(0.698786 1.39724 0.117767)
(-0.55446 2.14098 2.38172)
(-0.657501 2.1821 2.43349)
(-0.31358 2.42277 2.41323)
(-0.447445 2.1255 2.51863)
(-0.601019 2.32322 2.39238)
(-0.254569 2.46395 2.546)
(-0.189248 2.3735 2.57606)
(-0.500457 2.14668 2.59048)
(-0.312673 2.28548 2.63548)
(-0.161958 2.25193 2.91272)
(0.0468799 2.62936 2.51709)
(-0.193711 2.32668 2.54762)
(-0.371048 2.27053 2.51883)
(-0.539095 2.47839 2.53021)
(0.0332433 2.73169 2.6377)
(-0.272035 2.66624 2.70308)
(-0.196582 2.48373 2.57957)
(-0.218018 2.40588 2.62057)
(-0.198964 2.53541 2.51456)
(-0.541844 2.36672 2.48885)
(0.599477 3.20884 2.51491)
(0.119604 2.83182 2.72352)
(-0.268811 2.61895 2.79917)
(0.0698671 2.78713 2.44113)
(-0.281648 2.58597 2.44013)
(-0.120524 2.56688 2.17937)
(-0.400142 2.64973 2.26999)
(0.622297 3.1367 3.02835)
(0.21618 3.04662 2.81059)
(-0.298351 2.86887 2.46363)
(-0.0769909 3.1434 2.36331)
(-0.582918 2.58036 2.54651)
(-0.287945 2.70941 2.26364)
(-0.353753 2.10197 2.62222)
(-0.260845 2.85867 2.01821)
(0.338897 3.34259 3.16417)
(-0.299467 3.26903 2.54381)
(-0.595469 3.1862 2.58992)
(0.106781 3.13989 2.27361)
(-0.393936 2.89589 2.39857)
(-0.430355 2.90526 2.14722)
(-0.077977 2.72713 2.08299)
(-0.0649856 2.70784 1.96723)
(-0.667793 2.51023 2.02938)
(0.516022 3.26782 3.77209)
(0.0217314 3.12544 3.5218)
(-0.217823 3.39492 2.96891)
(0.162825 3.12682 2.85475)
(-0.22548 3.18844 2.32252)
(-0.459521 2.81924 2.29553)
(0.0396161 3.03263 1.80607)
(-0.349873 2.51114 2.05982)
(0.121144 2.49357 1.94255)
(-0.356143 2.60706 1.9579)
(0.00999054 3.48153 3.20547)
(-0.270002 3.50759 2.8986)
(-0.473149 3.48449 2.8493)
(-0.298751 3.05136 3.16895)
(-0.582229 3.34348 2.5681)
(-0.630503 3.00571 2.4233)
(0.0419424 3.00207 1.85703)
(0.0884667 2.39457 2.01323)
(-0.0136143 2.5428 2.06672)
(0.385153 2.71349 1.40652)
(0.188083 2.53164 1.61027)
(-0.609839 3.62741 2.0939)
(-0.127899 3.39558 2.2908)
(-0.233651 2.99207 2.68342)
(-0.594707 3.13384 2.60652)
(-0.75936 3.25776 2.72451)
(-0.781315 3.28042 2.49454)
(-0.41743 2.92411 2.21261)
(-0.0982394 3.04836 1.66435)
(0.308803 2.94916 1.57114)
(0.110573 2.59795 1.69993)
(1.03866 2.21656 1.09162)
(0.897704 2.43121 0.942028)
(-0.108059 3.0928 1.46677)
(-0.52136 3.21151 1.47416)
(-0.290933 3.11871 1.14972)
(-0.429503 3.18182 1.32139)
(-1.34649 3.04425 1.73394)
(-0.917003 3.25429 1.92132)
(-0.649119 2.89522 2.21035)
(-0.14907 2.95195 1.92751)
(0.0958928 2.89611 1.58694)
(0.157205 2.40081 1.87174)
(0.740983 2.41225 1.00878)
(0.674955 2.26393 0.750471)
(0.636399 1.9067 0.418928)
(-0.424375 2.85638 -0.124389)
(-1.27201 3.0762 -0.0284676)
(-0.526289 2.89396 0.167533)
(-0.245372 2.66317 0.789592)
(-0.697435 2.55305 1.68901)
(-1.17581 2.60624 1.60523)
(-0.432687 2.67835 1.10691)
(-0.269414 2.7862 1.07462)
(0.158316 3.07878 0.340124)
(0.0842285 2.50044 1.07357)
(0.485856 2.3312 0.580708)
(0.65108 1.91939 0.535255)
(0.457672 1.50373 0.227954)
(0.4569 1.67421 0.12349)
(-1.19033 1.91737 0.524362)
(-1.33355 1.93255 0.951992)
(-1.27944 1.68948 1.17574)
(-1.10304 1.82786 0.484351)
(-1.01009 2.34976 0.577148)
(-1.61507 2.41485 0.349388)
(-0.898885 2.5793 0.0633046)
(-0.631929 2.71809 0.644728)
(-0.367643 2.39968 1.32845)
(-0.231809 2.2585 1.17181)
(0.0954733 2.24761 0.667426)
(0.366329 1.89747 0.457078)
(0.536812 1.6601 0.190249)
(0.438258 1.4466 0.500756)
(0.68732 1.39621 0.106356)
(-2.12734 0.264745 0.246325)
(-2.14832 0.68971 0.0963982)
(-1.84499 1.13293 0.420118)
(-1.50328 1.60024 0.303273)
(-1.49554 2.03279 0.187372)
(-1.6688 2.1441 -0.318714)
(-1.25184 2.27905 -0.299093)
(-0.92516 1.99427 0.288057)
(-0.574411 2.46763 0.521312)
(-0.355927 2.33762 -0.0718563)
(-0.0432439 1.99938 -0.0990455)
(0.302026 1.61661 -0.210344)
(0.596725 1.45132 -0.0457004)
(0.708981 1.39623 0.137276)
(0.584043 1.2316 0.0780651)
(-0.570938 2.16255 2.24056)
(-0.614069 2.16272 2.34993)
(-0.277561 2.25044 2.46764)
(-0.581175 2.16042 2.32073)
(-0.602095 2.17652 2.39847)
(-0.171111 2.50496 2.4156)
(-0.320731 2.16927 2.6061)
(-0.131977 2.21715 2.46177)
(-0.400829 2.16309 2.54711)
(-0.0899976 2.48048 2.59318)
(0.0848753 2.34176 2.60117)
(-0.332085 2.22639 2.63057)
(-0.214365 2.36318 2.30048)
(-0.313115 2.31336 2.45347)
(-0.0477076 2.35932 2.83621)
(0.186329 2.6823 2.55089)
(-0.212676 2.31758 2.52908)
(-0.27347 2.30417 2.52751)
(-0.188479 2.39526 2.28181)
(-0.275996 2.53568 2.49166)
(0.14272 2.69268 2.79455)
(0.146506 2.56659 2.81141)
(-0.102308 2.55703 2.58207)
(-0.0300049 2.40833 2.59448)
(-0.149268 2.48819 2.55434)
(0.194485 2.47556 2.34286)
(-0.222299 2.55953 2.16363)
(0.607016 2.87706 2.95131)
(0.508705 2.77097 2.87372)
(-0.0865066 2.8395 2.62539)
(0.154705 2.63033 2.65733)
(-0.178661 2.56544 2.50717)
(0.0838965 2.71777 2.0422)
(0.014047 2.5624 2.05157)
(-0.303518 2.32515 2.46157)
(1.11448 3.05884 3.08026)
(0.454103 3.12464 2.76489)
(0.0503515 3.01175 2.47314)
(0.0798662 3.1812 2.23485)
(-0.409953 2.60099 2.63086)
(0.297305 3.02081 1.88232)
(-0.160722 2.51434 2.20854)
(-0.0297476 2.63963 2.10026)
(-0.192748 2.63736 1.94027)
(0.327182 3.19388 3.45908)
(0.37965 3.27058 2.94598)
(-0.225537 3.18869 2.64939)
(0.360943 3.06847 2.50575)
(-0.479968 2.97109 2.33046)
(-0.101111 2.83009 2.40485)
(-0.0691827 2.65549 2.1639)
(-0.0444362 2.76739 1.92076)
(0.0828302 2.28319 1.90732)
(0.117111 2.49384 1.92852)
(0.0414651 3.39455 3.77617)
(0.679 3.1186 3.44605)
(-0.0927384 3.48486 3.0251)
(0.141567 3.44993 2.73603)
(-0.41272 3.28905 2.36331)
(-0.45399 2.94629 2.3233)
(0.0418737 2.95538 1.6604)
(-0.262627 2.52412 2.03354)
(0.131218 2.48688 1.8575)
(0.735222 2.38897 1.7697)
(0.409563 2.69667 1.31969)
(-0.0380329 3.48006 3.24474)
(0.180151 3.51348 2.84355)
(-0.18863 3.47 2.74288)
(0.0174575 3.07476 3.09922)
(-0.72898 3.32656 2.67179)
(-0.508667 2.9722 2.68097)
(-0.0970837 2.88436 2.07187)
(0.156935 2.44811 1.955)
(0.218119 2.47898 2.07834)
(0.380566 2.72039 1.41588)
(0.994984 2.21107 1.3749)
(1.11684 2.26654 0.967353)
(-0.475683 3.63559 2.09923)
(-0.107766 3.43982 2.09837)
(-0.0208473 2.94584 2.47999)
(-0.498026 3.12215 2.42981)
(-0.642969 3.25874 2.5984)
(-0.755083 3.28505 2.48124)
(-0.437497 2.95842 2.44936)
(-0.0824881 2.97459 1.82432)
(0.00910763 2.95121 1.69142)
(0.391303 2.54323 1.76728)
(0.99401 2.20419 1.14)
(1.08879 2.15104 0.989592)
(0.683719 2.17197 0.737602)
(0.0123954 3.12373 1.39795)
(-0.309963 3.06056 1.39702)
(-0.264901 3.0878 1.07208)
(-0.240539 3.12147 1.30981)
(-1.24135 3.01431 1.67216)
(-0.692726 3.10435 1.76638)
(-0.684015 2.88213 2.1645)
(-0.361068 2.92972 1.92625)
(0.226198 2.88999 1.49467)
(0.0920077 2.47674 1.85018)
(0.674819 2.38742 1.09112)
(0.949735 2.24325 0.743634)
(0.945539 1.65882 0.723786)
(0.407173 1.52789 0.192939)
(-0.396409 2.85249 -0.0664935)
(-1.00801 3.09113 -0.432412)
(-0.463082 2.86245 0.0962667)
(-0.0723845 2.65442 0.827228)
(-0.275431 2.12825 2.09028)
(-1.17849 2.48646 1.45297)
(-0.3206 2.6487 0.774435)
(-0.237634 2.75462 1.09881)
(-0.00650321 3.11226 0.457814)
(0.0968923 2.5048 1.01582)
(0.384207 2.34736 0.673928)
(0.698953 1.96986 0.554885)
(0.529436 1.50591 0.352118)
(0.421332 1.17384 -0.574595)
(0.45182 1.40366 0.516776)
(-1.16169 1.9442 0.465602)
(-1.36629 1.89525 1.01523)
(-1.24433 1.68218 1.11521)
(-1.11794 1.85139 0.443371)
(-1.0146 2.38299 0.437232)
(-1.61083 2.45719 -0.0663662)
(-0.845152 2.53518 -0.0442695)
(-0.378624 2.86486 0.234262)
(-0.315325 2.38217 1.3731)
(-0.243852 2.25762 1.22499)
(0.0984662 2.2572 0.6484)
(0.444684 1.88794 0.447856)
(0.551132 1.66893 0.158356)
(0.448636 1.47904 0.549178)
(0.623771 1.51788 0.885105)
(0.582773 1.24406 0.0549705)
(-2.13697 0.249302 0.242224)
(-2.17064 0.679513 0.0802284)
(-1.82952 1.15171 0.406459)
(-1.52617 1.61315 0.283595)
(-1.53115 2.01924 -0.0314107)
(-1.65964 2.1461 -0.228463)
(-1.24809 2.21444 -0.343431)
(-0.938857 2.03198 0.329582)
(-0.578075 2.44153 0.531881)
(-0.365427 2.33462 -0.094437)
(-0.0452867 1.99903 -0.102976)
(0.306683 1.63087 -0.133982)
(0.604471 1.43588 -0.146903)
(0.718567 1.38999 0.141324)
(0.591788 1.20988 0.0598374)
(0.524669 1.06049 -0.621154)
(-0.431102 2.03753 2.30473)
(-0.611736 2.08221 2.31969)
(-0.115364 2.10373 2.41842)
(-0.312391 2.26554 2.20608)
(-0.689139 2.10119 2.32968)
(-0.202652 2.29902 2.48609)
(-0.20426 2.18623 2.46747)
(-0.220889 2.13049 2.36229)
(-0.473806 2.20006 2.38954)
(0.216774 2.51146 2.58323)
(-0.195138 2.16535 2.67389)
(0.0352163 2.2975 2.46264)
(-0.389563 2.10923 2.42855)
(-0.301455 2.35051 2.31255)
(0.309223 2.52086 2.57431)
(0.183864 2.40446 2.60164)
(-0.170723 2.21206 2.67419)
(0.0871986 2.32322 2.41206)
(-0.168834 2.11043 2.53127)
(-0.202774 2.49866 2.20599)
(0.071722 2.35266 2.87565)
(0.319591 2.59336 2.6153)
(-0.0531498 2.52834 2.50327)
(-0.00561802 2.29052 2.55323)
(-0.200867 2.34555 2.29764)
(0.154481 2.30701 2.33295)
(0.075642 2.4548 2.30149)
(0.318546 2.6912 2.81552)
(0.379369 2.54202 2.88756)
(0.0529618 2.4817 2.66708)
(0.0234146 2.44686 2.57217)
(-0.0389184 2.447 2.58782)
(0.124567 2.50533 2.35892)
(0.132676 2.40386 2.27108)
(0.111572 2.44844 2.15742)
(0.673382 2.76231 2.96127)
(0.578333 3.02044 2.77751)
(0.110727 2.60983 2.91007)
(0.27507 2.65731 2.67272)
(0.0601415 2.49529 2.57672)
(0.177652 2.6485 2.16117)
(0.403593 2.59224 2.16378)
(-0.222836 2.62317 1.8466)
(-0.0471928 2.65203 2.04379)
(0.69625 3.26829 3.13892)
(0.782606 2.99446 2.71742)
(0.0286126 3.09676 2.62715)
(0.251511 3.20617 2.12725)
(0.0535478 2.91029 2.50439)
(-0.0061957 2.90242 2.13697)
(-0.0797293 2.41825 2.31083)
(0.0945972 2.45969 2.24588)
(0.300799 2.32827 2.19934)
(0.0425123 2.26677 1.94877)
(0.882581 3.004 3.69627)
(0.695414 3.203 3.27679)
(0.131172 3.23244 2.90051)
(0.339693 3.11478 2.64678)
(-0.0991456 3.00956 2.4018)
(-0.0975034 2.84257 2.37646)
(0.0495293 2.62556 2.22794)
(0.180219 2.77389 1.88029)
(-0.0149401 2.34704 1.95297)
(0.363691 2.28124 1.85356)
(0.640976 2.458 1.71005)
(0.356176 3.57429 3.58209)
(0.73562 3.00705 3.44696)
(-0.111752 3.52707 3.03174)
(0.0842233 3.32005 3.11595)
(-0.0949026 3.25619 2.58864)
(-0.45717 2.92129 2.50816)
(0.179029 2.97629 1.59907)
(0.23029 2.56258 2.0147)
(0.00220689 2.46221 1.92933)
(0.854551 2.30932 1.74308)
(0.839745 2.28684 1.80863)
(0.976053 2.26361 1.32611)
(0.307362 3.43825 3.32961)
(-0.22256 3.6548 2.54515)
(-0.216451 3.36761 2.71209)
(0.0828756 3.1542 2.88244)
(-0.35822 3.41142 2.69223)
(-0.468553 3.02581 2.84263)
(-0.00480367 2.91569 2.16056)
(0.355368 2.63373 1.84473)
(0.151691 2.39212 2.13382)
(0.222643 2.76299 1.43586)
(1.17754 2.16762 1.38337)
(1.1751 2.0277 1.29474)
(1.10558 2.09161 0.978254)
(-0.391244 3.65453 2.11269)
(-0.0216559 3.41537 2.03674)
(-0.0648536 2.9451 2.27348)
(-0.243758 3.07005 2.35796)
(-0.434616 3.28127 2.41318)
(-0.562671 3.35622 2.46583)
(-0.360817 2.92218 2.66487)
(-0.0295182 3.06959 1.75053)
(0.233294 2.99413 1.60788)
(0.689281 2.40902 1.93041)
(0.667802 2.25115 1.5311)
(1.12611 2.15152 1.04307)
(1.34172 1.8952 1.0875)
(0.898906 1.6691 0.577327)
(0.0321451 3.0577 1.40665)
(-0.0148725 3.05792 1.23435)
(-0.115521 3.10617 0.98521)
(-0.232536 3.09569 1.27427)
(-1.08863 3.13379 1.40477)
(-0.0588645 2.9228 1.77903)
(-0.60687 2.81279 1.99402)
(-0.237135 2.84201 2.02746)
(0.257596 2.89158 1.50649)
(0.215193 2.48896 1.8215)
(0.523707 2.37755 1.26551)
(1.24935 2.23783 0.536214)
(1.1265 1.64102 0.572191)
(1.48257 0.839272 -0.902919)
(0.369062 1.20528 -0.864167)
(-0.443135 2.76327 0.0155942)
(-1.091 2.95665 0.266993)
(-0.290848 2.8301 -0.195631)
(-0.0474571 2.67135 0.777096)