/*--------------------------------*- C++ -*----------------------------------*\
  =========                 |
  \\      /  F ield         | OpenFOAM: The Open Source CFD Toolbox
   \\    /   O peration     | Website:  https://openfoam.org
    \\  /    A nd           | Version:  7
     \\/     M anipulation  |
\*---------------------------------------------------------------------------*/
FoamFile
{
    version     2.0;
    format      ascii;
    class       surfaceScalarField;
    location    "2.5";
    object      phi;
}
// * * * * * * * * * * * * * * * * * * * * * * * * * * * * * * * * * * * * * //

dimensions      [0 3 -1 0 0 0 0];

internalField   nonuniform List<scalar> 
54184
(
-2.23153e-05
0.00156823
-0.000109012
-6.17648e-05
0.00236053
-0.000234829
-1.41644e-05
0.00158835
-0.000119831
-7.52997e-05
0.00156369
-0.000109072
-0.00014018
0.00256425
-0.000253749
-3.12732e-05
0.0023856
-0.000259919
-0.000157336
0.00195517
-0.000277724
-5.87955e-06
0.00160002
-0.000119392
-7.78106e-05
0.00164111
-0.000119447
-0.000119693
0.000156408
-0.000105146
-0.000227784
0.000998713
-0.000250246
-0.000109004
0.00265954
-0.000276464
-0.000211778
0.00237279
-0.000325213
-2.34751e-05
0.00241027
-0.000262099
-0.000160546
0.00208272
-0.000304733
-0.000278941
0.00116435
-0.000267598
2.07763e-06
0.00160297
-0.000118628
-6.75834e-05
0.00170798
-0.000118675
-0.00013173
0.000284407
-0.000115716
-0.000209917
-0.000331249
-7.87788e-05
-0.000294313
0.000100801
3.11366e-05
-0.000224844
0.00121501
-0.000277848
-0.000269776
0.00127673
-0.000311938
-0.000108659
0.00277694
-0.00029321
-0.00020227
0.00249848
-0.000360432
-0.000543423
0.00191629
-0.000301052
-7.43214e-06
0.00242732
-0.000265384
-0.000122239
0.00217979
-0.000304516
-0.00029213
0.00130854
-0.000288526
-0.000534579
-1.82273e-05
-0.000201074
6.8126e-06
0.00159983
-0.00011763
-6.05023e-05
0.00176786
-0.000118012
-0.000130969
0.000411345
-0.000114644
-0.000233723
-0.000126322
-8.69198e-05
-0.000229888
-0.00240441
-5.22743e-05
-0.000360309
-0.0016597
0.000875784
-0.000323991
0.000232429
0.000100038
-0.000539281
-0.000117934
0.000236958
-0.000197361
0.00141159
-0.000275455
-0.000276226
0.00141426
-0.000341423
-0.000842778
0.00100038
-0.000261605
-8.97663e-05
0.00287802
-0.000273237
-0.000152369
0.00261388
-0.000378484
-0.00056278
0.00216409
-0.000337585
-0.00085313
-0.000404629
-0.00020506
6.57024e-05
0.00237454
-0.000268456
-0.000113115
0.00227521
-0.000308196
-0.000282526
0.0014458
-0.000290215
-0.000597741
0.000272849
-0.000215584
-0.000498091
-0.00194868
-0.000127922
1.176e-05
0.00159002
-0.000116808
-5.90563e-05
0.00182684
-0.000117552
-0.00012975
0.000537038
-0.000113956
-0.000234276
7.78754e-05
-8.4565e-05
-0.000264903
-0.00216922
-5.7212e-05
-0.000127594
-0.00189346
-4.76302e-05
-0.000274274
-0.00511987
0.00121598
-0.000399686
-0.00177888
0.000924462
-0.000626279
-0.00115603
0.0009822
-0.000327169
0.000365
0.000134924
-0.000599177
-4.13491e-05
0.000346404
-0.00117504
-8.94088e-06
0.000250064
-0.000159874
0.00159501
-0.000268917
-0.00025928
0.00161026
-0.000364536
-0.00087044
0.001233
-0.000266382
-0.00119257
-0.000878067
-0.000116735
3.20718e-05
0.00292666
-0.000301094
-0.000150072
0.00276081
-0.000383206
-0.000533621
0.00236689
-0.000330186
-0.000946738
-0.000168791
-0.000224428
-0.000822786
-0.00211396
-0.000104978
5.48077e-05
0.00233645
-0.000272187
-0.000117805
0.00237249
-0.000306984
-0.000272856
0.00158163
-0.000300924
-0.00060424
0.000561101
-0.000208503
-0.000579833
-0.00170409
-0.000145245
-0.000312085
-0.00220219
-0.000105516
1.88729e-05
0.00157212
-0.000116377
-5.02699e-05
0.0018776
-0.000117294
-0.000130867
0.000664448
-0.000114095
-0.000228628
0.000275641
-8.3093e-05
-0.000277939
-0.00191932
-5.65218e-05
-0.000148299
-0.00175002
-5.23575e-05
-0.00010832
-0.00195981
-4.6227e-05
-0.000249643
-0.00585439
0.0019112
-0.000348436
-0.00525571
0.00124021
-0.000619323
-0.00391066
0.00128461
-0.000508728
-0.0018176
0.000902147
-0.000715978
-0.00119957
0.00108481
-0.00129789
-0.000541119
0.00097267
-0.000284377
0.000477086
0.000157526
-0.000609451
7.11903e-05
0.000372554
-0.00120027
0.000290773
0.000376517
-0.00122139
-0.00192707
4.2132e-05
-9.95642e-05
0.00183123
-0.000253558
-0.000246797
0.00185284
-0.00041478
-0.000850774
0.00147709
-0.000291472
-0.00132854
-0.00064493
-0.00011772
-0.00107655
-0.00264582
4.23228e-05
5.67611e-06
0.00299025
-0.000287872
-0.000142177
0.00287066
-0.000386578
-0.000492829
0.00255
-0.000346346
-0.000982416
7.63887e-05
-0.000197189
-0.000955373
-0.00183479
-0.000128054
-0.000594779
-0.00314243
-5.61403e-05
7.14409e-05
0.00228833
-0.000278096
-8.85617e-05
0.00244945
-0.000310858
-0.000271647
0.00172132
-0.000305893
-0.000590021
0.000824916
-0.000203347
-0.000610873
-0.00143999
-0.000139673
-0.000351196
-0.00202307
-0.000121465
-0.000197249
-0.00181992
-0.000112042
2.74731e-05
0.00154454
-0.000116026
-3.93063e-05
0.00191722
-0.000116697
-0.000127607
0.00078882
-0.00011406
-0.000220912
0.000465192
-8.27337e-05
-0.000289272
-0.00165655
-5.65927e-05
-0.000151901
-0.00160159
-5.30485e-05
-0.000124464
-0.00183658
-5.11268e-05
-9.65443e-06
-0.00293779
-4.49864e-05
-0.000328024
-0.00607441
0.00257749
-0.000458298
-0.00564838
0.00220475
-0.000356015
-0.00597818
0.00173778
-0.000652321
-0.00511888
0.0012264
-0.000628121
-0.0041863
0.00142799
-0.0010308
-0.00482514
0.000941151
-0.000491873
-0.00191355
0.000844843
-0.000819733
-0.00114585
0.00105871
-0.00129183
-0.000432589
0.00106784
-0.00118816
-0.00268593
0.000759342
-0.000182272
0.000558935
0.000139196
-0.000541547
0.000239655
0.000283811
-0.00122375
0.00062644
0.000409864
-0.00136967
-0.00159161
8.21958e-05
-0.0011841
-0.00386746
0.000192396
-4.89204e-05
0.00195123
-0.000208406
-0.000220037
0.00204939
-0.000372245
-0.000786239
0.00173187
-0.000376158
-0.00135798
-0.00043645
-0.000124391
-0.00124786
-0.00246033
-1.0722e-05
-0.000843548
-0.00328204
-2.39456e-05
4.67609e-05
0.0030303
-0.000291768
-0.000100355
0.00298259
-0.000388005
-0.000479573
0.00271699
-0.000345641
-0.00098613
0.000326561
-0.000200409
-0.000961843
-0.00155691
-0.000124104
-0.000655323
-0.00287882
-8.75315e-05
-0.000258223
-0.00295861
-9.75195e-05
0.000100589
0.00221889
-0.000278882
-3.754e-05
0.00248205
-0.00031246
-0.000254391
0.00186105
-0.0003238
-0.000571519
0.00106865
-0.000199015
-0.000631629
-0.00116967
-0.000131311
-0.000352389
-0.00183711
-0.000125146
-0.000215867
-0.00172116
-0.000128815
-4.17397e-05
-0.00285681
-9.45756e-05
2.82368e-05
0.00151559
-0.000115565
-3.52322e-05
0.00195241
-0.000115976
-0.000123798
0.000909613
-0.000113692
-0.000209606
0.000644053
-8.33156e-05
-0.000299664
-0.00138497
-5.46466e-05
-0.000154423
-0.00144937
-5.43868e-05
-0.000128389
-0.00171018
-5.10602e-05
-2.13827e-05
-0.00291715
-5.03841e-05
6.01721e-05
-0.0027819
-4.20721e-05
-0.000522632
-0.00551508
0.00331194
-0.000439725
-0.00569916
0.00279687
-0.000537622
-0.00589019
0.00277355
-0.000154706
-0.00605043
0.00242231
-0.00082289
-0.00540363
0.00225256
-0.000524883
-0.0058821
0.00200544
-0.000762974
-0.00565321
0.00141525
-0.000738179
-0.004863
0.00116793
-0.000818631
-0.00438889
0.0014279
-0.000991831
-0.00475071
0.00105355
-0.0012175
-0.00459905
0.000876009
-0.000444751
-0.00199063
0.000741776
-0.000691914
-0.00121343
0.00106279
-0.00125407
-0.000414797
0.00107123
-0.00137988
-0.00236902
0.000761144
-0.00072396
-0.00420814
0.000245756
-0.000148069
0.000696053
9.18331e-05
-0.000477614
0.000352523
0.000283905
-0.0012099
0.000980654
0.000353255
-0.00144266
-0.00120808
0.00011102
-0.00135831
-0.00380871
0.000133885
-0.000721756
-0.00415656
0.000218272
-4.74888e-07
0.00212602
-0.000299284
-0.000194684
0.00218599
-0.000250674
-0.00074627
0.00195596
-0.000329636
-0.00134027
-0.000272779
-0.000185687
-0.00122297
-0.00227186
-5.17431e-05
-0.0008422
-0.00297712
-0.000128762
-0.000389868
-0.00369236
-8.91118e-05
8.5147e-05
0.00306056
-0.000293479
4.92573e-07
0.00302043
-0.000367638
-0.000460032
0.00285819
-0.000323564
-0.000973503
0.00058632
-0.000203417
-0.000934736
-0.00131027
-0.000143943
-0.0006458
-0.00261012
-9.93984e-05
-0.000278158
-0.00284682
-0.000137023
-0.000107348
-0.00261067
-7.85992e-05
9.74418e-05
0.0021496
-0.000284092
-1.78014e-05
0.0024942
-0.000308462
-0.000256454
0.00200361
-0.000322372
-0.000549607
0.00129757
-0.000212728
-0.000646795
-0.000896535
-0.000125017
-0.00034918
-0.0016404
-0.000133268
-0.000236762
-0.00160606
-0.000131877
-6.55396e-05
-0.00283078
-0.000110689
9.28637e-05
-0.00351174
-6.45383e-05
4.02725e-05
0.00147379
-0.000115184
-2.86314e-05
0.00198046
-0.000114992
-0.000121563
0.00102731
-0.000112108
-0.000205882
0.000819426
-8.31825e-05
-0.000301287
-0.00111147
-5.55264e-05
-0.000159012
-0.00129128
-5.37252e-05
-0.000131678
-0.00158149
-5.13934e-05
-4.16188e-05
-0.00287678
-4.98157e-05
4.9988e-05
-0.00283585
-4.64223e-05
9.06001e-05
-0.00213331
-3.59813e-05
-0.000458793
-0.00576587
0.00333785
-0.000536689
-0.00541753
0.00329809
-0.000486978
-0.00557464
0.00322134
-0.000566548
-0.00557787
0.00308973
-0.000402029
-0.00558639
0.00285317
-0.000949707
-0.00568908
0.00275204
-0.000451983
-0.00598195
0.00263217
-0.000637218
-0.0060525
0.0021843
-0.000866303
-0.00526553
0.00230828
-0.000793995
-0.00571266
0.00205849
-0.00079043
-0.00546579
0.00161661
-0.00086553
-0.00624474
0.00112922
-0.000712877
-0.0045832
0.00131469
-0.000617097
-0.0046865
0.00139073
-0.00100446
-0.00461417
0.00104175
-0.00131102
-0.00457873
0.000964367
-0.000796036
-0.00532793
0.000833473
-0.000417084
-0.00202842
0.000671396
-0.000671487
-0.00130449
0.00102671
-0.00121709
-0.000420276
0.00107547
-0.00147073
-0.00203059
0.000760878
-0.000866038
-0.00415721
0.000217947
-0.000377293
-0.00592188
0.000121988
-0.000176122
0.00091099
6.37089e-05
-0.000401955
0.000541326
0.000110301
-0.00114725
0.00125629
0.000409248
-0.00147633
-0.000834767
0.000115998
-0.00126728
-0.00373966
8.62913e-05
-0.000664686
-0.00433251
0.00013232
-0.000350273
-0.00475874
9.49763e-05
3.71445e-05
0.00222426
-0.000247936
-0.000108925
0.0022862
-0.000290081
-0.000703205
0.00219255
-0.000244091
-0.00129108
-7.04876e-05
-0.000214353
-0.00115185
-0.00209932
-0.000141111
-0.000764055
-0.00271243
-0.000198181
-0.000460037
-0.00346522
-0.000174029
-0.000124012
-0.00376219
-9.57778e-05
0.000106948
0.00306174
-0.000295602
1.08666e-05
0.00306004
-0.000361759
-0.000483868
0.00302892
-0.000310955
-0.000997667
0.000911639
-0.000200822
-0.000938985
-0.00107456
-0.000146932
-0.000621442
-0.00234756
-0.000134237
-0.000322169
-0.00271266
-0.000148152
-0.000103872
-0.00259071
-0.000118656
8.91679e-05
-0.00402966
-4.87957e-06
0.000152784
0.0020332
-0.000279458
7.39858e-06
0.00247783
-0.000303754
-0.000251527
0.00212428
-0.00029916
-0.000531226
0.00152017
-0.000219618
-0.000654873
-0.000630667
-0.000125011
-0.000346909
-0.00144182
-0.000135694
-0.000240326
-0.00149139
-0.000139292
-8.48416e-05
-0.00280472
-0.000114712
8.71808e-05
-0.00358329
-7.63254e-05
0.000168576
-0.00374809
-4.04781e-05
3.54051e-05
0.00143678
-0.000114782
-2.36762e-05
0.00200323
-0.000114272
-0.000121685
0.00114323
-0.000109228
-0.000211975
0.00100156
-8.22703e-05
-0.000295272
-0.000843026
-5.63576e-05
-0.000163316
-0.0011296
-5.38898e-05
-0.000136863
-0.00144725
-5.11033e-05
-5.01234e-05
-0.00282879
-4.92553e-05
3.59257e-05
-0.00287541
-4.61831e-05
8.90786e-05
-0.00222907
-3.97461e-05
0.000192136
-0.00196381
-3.65622e-05
-0.000505595
-0.00585001
0.00330118
-0.000532182
-0.00574296
0.00340458
-0.000265824
-0.00596827
0.00315323
-0.000735927
-0.00526641
0.00363362
-0.000353352
-0.00553821
0.00321298
-0.000678964
-0.00559395
0.0029422
-0.000848865
-0.0056184
0.00312141
-0.00048377
-0.00559552
0.00313065
-0.000922041
-0.00569557
0.00280035
-0.000860564
-0.00567639
0.00280046
-0.000719459
-0.00593118
0.00262673
-0.00067545
-0.0059524
0.0024171
-0.00104368
-0.00555404
0.0022231
-0.000866865
-0.00506088
0.00231878
-0.000492525
-0.00570518
0.00217623
-0.000707595
-0.00537197
0.00166781
-0.000923507
-0.00628325
0.00126762
-0.00112137
-0.00605477
0.00116761
-0.000742291
-0.0042698
0.00159988
-0.000762163
-0.00474366
0.00146252
-0.000969769
-0.00454433
0.00107356
-0.00120087
-0.00470764
0.000900794
-0.000987169
-0.00520007
0.000957636
-0.000687746
-0.00555064
0.00077425
-0.000549543
-0.0019176
0.000630875
-0.000532669
-0.00143649
0.000934112
-0.00121773
-0.000424887
0.00110179
-0.00150269
-0.0016208
0.000692042
-0.000869841
-0.0041212
0.000327423
-0.000503901
-0.00599967
0.000134958
-0.000181954
-0.00585385
0.000193019
-0.000161416
0.00108631
0.000106901
-0.000438824
0.000906729
2.82036e-05
-0.00104006
0.00142553
0.000277914
-0.00146007
-0.000425875
0.000169351
-0.00112184
-0.00363218
-2.14923e-05
-0.000622991
-0.00439382
6.54255e-06
-0.000465413
-0.00459351
-2.75355e-05
-0.000130723
-0.00520905
5.60372e-05
5.16377e-05
0.00232276
-0.000273202
-0.000100838
0.00241104
-0.000261065
-0.000721463
0.00233512
-0.000195055
-0.00128235
0.000189701
-0.000219596
-0.0011135
-0.00195867
-0.000180486
-0.00070088
-0.00249385
-0.000280254
-0.000538703
-0.00323133
-0.00021553
-0.000114962
-0.00381479
-0.000110335
0.000127023
-0.00477153
-2.15671e-05
0.000170431
0.00305423
-0.000303823
5.10381e-05
0.00307984
-0.000359039
-0.000454807
0.00320696
-0.000336517
-0.000984464
0.00128159
-0.00022767
-0.0009226
-0.000850909
-0.000156749
-0.000589816
-0.00211284
-0.000138743
-0.000308462
-0.002604
-0.00017476
-0.000110925
-0.00258154
-0.000131234
7.13749e-05
-0.00410164
-3.08706e-05
0.000234251
-0.00493532
3.8663e-05
0.000154012
0.00190442
-0.000284442
1.07371e-05
0.00246583
-0.000301869
-0.000238547
0.00222083
-0.000283449
-0.000522891
0.00173402
-0.000202101
-0.000634652
-0.000374493
-0.000136411
-0.000352406
-0.00123876
-0.000138988
-0.000253689
-0.00136775
-0.000142502
-9.83319e-05
-0.0027781
-0.000117702
7.0106e-05
-0.00365351
-7.86814e-05
0.000159784
-0.00384731
-4.78198e-05
0.000369017
-0.00316367
-3.79137e-05
3.40328e-05
0.00140019
-0.000114448
-1.25468e-05
0.00201444
-0.000113444
-0.00011796
0.00125574
-0.000108828
-0.000218621
0.0011914
-8.04424e-05
-0.000290086
-0.000578405
-5.6805e-05
-0.000164432
-0.000967328
-5.42023e-05
-0.000142306
-0.00130761
-5.12307e-05
-6.01507e-05
-0.00277028
-4.94646e-05
1.86672e-05
-0.00289678
-4.65508e-05
7.64914e-05
-0.00231182
-3.99246e-05
0.000195112
-0.0021588
-3.98728e-05
0.000245155
-0.000916796
-3.28085e-05
-0.000220127
-0.00524781
0.00369478
-0.000403143
-0.00569237
0.00342838
-0.000617349
-0.00572584
0.00336786
-0.000340936
-0.00582149
0.00327854
-0.000767394
-0.00565788
0.00372335
-0.000202098
-0.00594264
0.00322769
-0.000496129
-0.00560554
0.00292583
-0.000641593
-0.00543089
0.00357262
-0.000427917
-0.00548664
0.0035262
-0.000788102
-0.00550997
0.00299506
-0.000100783
-0.0061505
0.00266452
-0.000753925
-0.00568864
0.00309577
-0.000601241
-0.00569165
0.00309931
-0.000950797
-0.00545635
0.00316678
-0.000743042
-0.00585925
0.00252207
-0.000917775
-0.00567453
0.00276481
-0.000523089
-0.00580597
0.00270582
-0.000464304
-0.00594252
0.00237356
-0.00092432
-0.00559457
0.00245844
-0.00107038
-0.00545958
0.00212047
-0.000797649
-0.00511813
0.00248691
-0.000714326
-0.00563617
0.00220193
-0.000758642
-0.00516176
0.00175489
-0.000874621
-0.00623105
0.00128936
-0.00134338
-0.00569084
0.0012599
-0.000976716
-0.00595435
0.00126797
-0.00081135
-0.00404133
0.00167958
-0.000708211
-0.00463061
0.00166237
-0.001084
-0.00439197
0.00117643
-0.00124596
-0.00474784
0.000857032
-0.00121699
-0.00490349
0.000951366
-0.000852618
-0.00522417
0.000979888
-0.000311155
-0.00591749
0.000810604
-0.000578437
-0.00175984
0.000666274
-0.00071578
-0.00143905
0.000910384
-0.00106366
-0.000599278
0.0011321
-0.00144617
-0.00122766
0.000694749
-0.000935147
-0.00385998
0.000244124
-0.000655228
-0.00588239
0.000242374
-0.000673706
-0.0057338
0.000223205
-0.000280362
-0.00612075
0.000249287
-0.000142681
0.00119284
0.000103565
-0.000354844
0.00120112
6.65168e-05
-0.00102853
0.00156639
0.000194399
-0.00141475
-0.000188551
0.000172992
-0.00107053
-0.00341889
-8.69056e-05
-0.000623209
-0.00442114
-7.18435e-05
-0.000620775
-0.00439535
-0.000109544
-0.000204371
-0.00513899
-8.1904e-06
0.000152637
-0.0049882
0.000125015
9.29428e-05
0.00240404
-0.00026341
-4.5978e-05
0.00250793
-0.000273075
-0.000678655
0.00252698
-0.000229072
-0.00128455
0.000540646
-0.000245913
-0.0010997
-0.00187047
-0.000130699
-0.00063757
-0.00237831
-0.000248273
-0.000441314
-0.00310571
-0.000273022
-0.000159005
-0.00389762
-8.46163e-05
5.61649e-05
-0.00480883
-5.78204e-05
0.000230852
-0.00565397
0.000131234
0.000234243
0.0029845
-0.00030337
8.42392e-05
0.00305692
-0.000354409
-0.000397481
0.00335274
-0.000345883
-0.000929999
0.00160457
-0.000252386
-0.000896515
-0.000632654
-0.000184063
-0.000593077
-0.0018733
-0.000155621
-0.000352871
-0.00244961
-0.000193955
-0.000125464
-0.00257963
-0.000149538
3.14896e-05
-0.00415753
-3.67221e-05
0.000229982
-0.00505319
1.68028e-05
0.000396057
-0.00462115
4.28266e-05
0.000153647
0.00176887
-0.000284931
1.71283e-05
0.00245062
-0.000298909
-0.000228883
0.00231547
-0.000285582
-0.000520512
0.00194601
-0.000193546
-0.000619913
-0.000102474
-0.000144293
-0.00034385
-0.0010499
-0.000145848
-0.00026517
-0.00123856
-0.000145312
-0.000113104
-0.00274472
-0.000122931
4.70978e-05
-0.00372153
-7.81043e-05
0.000126666
-0.00392089
-5.52729e-05
0.000372861
-0.00334988
-3.93649e-05
0.000505045
-0.00272522
-5.44663e-05
3.43805e-05
0.00136264
-0.000114161
-2.69825e-06
0.00201532
-0.000112633
-0.000111666
0.00136182
-0.000107852
-0.000208169
0.00137103
-8.02942e-05
-0.00028578
-0.000314807
-5.82612e-05
-0.000162311
-0.000807419
-5.44023e-05
-0.000146652
-0.00116421
-5.09439e-05
-6.82951e-05
-0.00270424
-4.89781e-05
2.57844e-06
-0.00290197
-4.68561e-05
6.14546e-05
-0.00237984
-3.99827e-05
0.000182395
-0.00234119
-3.99249e-05
0.000266478
-0.00119075
-3.23988e-05
0.000245094
-0.000378328
-2.80645e-05
-7.17535e-05
-0.00488471
0.00383976
-0.00024354
-0.00530674
0.00368947
-0.00040693
-0.00500941
0.00363877
-0.000622406
-0.00562407
0.0034744
-0.000368598
-0.00544579
0.00350494
-0.000815587
-0.00559975
0.00374027
-0.000235106
-0.00576074
0.00334011
-0.000407566
-0.00578726
0.00325398
-0.000643896
-0.00557347
0.00371368
-0.000366766
-0.00590377
0.00362333
-0.000435198
-0.00574871
0.00301796
-0.000332251
-0.00582599
0.00293002
-0.00049051
-0.0056095
0.00348203
-0.000455016
-0.00556611
0.00350588
-0.000827864
-0.00539387
0.00328717
-0.000440737
-0.0062165
0.00275876
-0.000692216
-0.00559102
0.00251574
-0.000803905
-0.00577662
0.003107
-0.000444365
-0.00577957
0.00310496
-0.000794129
-0.00522828
0.00320107
-0.000760357
-0.00574274
0.0028863
-0.000891429
-0.0059458
0.00226216
-0.000549591
-0.00594151
0.00279432
-0.00056635
-0.00588495
0.00269582
-0.000400714
-0.00596678
0.00237214
-0.00104609
-0.00552939
0.00247984
-0.00140164
-0.00530791
0.00236503
-0.000767311
-0.00576453
0.00197434
-0.00081975
-0.00516702
0.00235544
-0.000957778
-0.00529396
0.00239427
-0.000658851
-0.00537256
0.00198758
-0.000903615
-0.00610307
0.00128456
-0.00139998
-0.00555878
0.00134029
-0.00114431
-0.00585165
0.00144889
-0.000772847
-0.0057923
0.0013074
-0.000808726
-0.00393802
0.00176654
-0.000978505
-0.00442134
0.00173304
-0.00093631
-0.00432117
0.00146422
-0.000938879
-0.00509904
0.00102034
-0.00112165
-0.00486642
0.00100646
-0.00102016
-0.0048615
0.000953616
-0.000940295
-0.00573393
0.00106291
-0.000445798
-0.0060626
0.000857957
-0.000569456
-0.00158696
0.000706044
-0.000692197
-0.0013775
0.000942079
-0.0011028
-0.000742251
0.00112763
-0.00121975
-0.00108042
0.00078986
-0.00102765
-0.0034941
0.000285991
-0.00080712
-0.00563691
0.000182559
-0.000719203
-0.00564101
0.000248008
-0.000455444
-0.00597466
0.000328188
7.27112e-05
-0.00618201
0.000318079
-0.000117419
0.00131048
6.85073e-05
-0.000281582
0.00143553
0.000104754
-0.000942519
0.00164295
0.00025382
-0.00142264
2.64965e-05
0.000117438
-0.00111834
-0.00308452
-0.000142738
-0.000679526
-0.00432419
-0.000141901
-0.000517716
-0.00424528
-0.000145509
-0.000306581
-0.00504602
-5.49307e-05
9.83098e-06
-0.00516235
0.000212289
0.000220346
-0.00584433
0.000222188
0.000175179
0.00244914
-0.000256742
1.85595e-05
0.00255934
-0.00024914
-0.000625532
0.00265801
-0.000176055
-0.00123825
0.000867564
-0.000247744
-0.00110184
-0.00172169
-0.000189363
-0.000650029
-0.00221477
-0.000237288
-0.000513777
-0.00291968
-0.000273396
-0.000177764
-0.0040337
-8.46515e-05
-7.44422e-05
-0.00476248
-2.50419e-05
0.000181815
-0.00575859
9.49733e-05
0.000484184
-0.0057232
0.000195974
0.000252441
0.00289952
-0.000355205
6.35445e-05
0.00307659
-0.000369453
-0.000373195
0.00348029
-0.000337644
-0.000885122
0.00188026
-0.000256969
-0.000907513
-0.000401553
-0.000195887
-0.000561
-0.00164772
-0.000192496
-0.000372568
-0.00228214
-0.000215687
-0.000154725
-0.00258143
-0.000150535
9.47632e-06
-0.00422089
-4.85569e-05
0.000160184
-0.00509627
-2.71539e-05
0.000406881
-0.00465329
1.49288e-05
0.000514021
-0.0047498
5.07174e-05
0.000182669
0.00159846
-0.000285502
4.55325e-05
0.00241374
-0.000296283
-0.000192573
0.00238778
-0.000290315
-0.000488499
0.0021367
-0.000195937
-0.000622051
0.000182408
-0.000142158
-0.000327149
-0.000875642
-0.000153716
-0.000259684
-0.00112261
-0.000148766
-0.000124182
-0.00271168
-0.000122466
-8.73446e-06
-0.00375095
-8.22056e-05
9.28178e-05
-0.00397371
-5.66503e-05
0.000387545
-0.00355547
-5.48358e-05
0.000512021
-0.00296705
-4.3081e-05
0.000541307
-0.002544
-4.87764e-05
3.97712e-05
0.00131974
-0.00011369
1.25805e-05
0.00200054
-0.000111966
-0.000102718
0.00145931
-0.000107409
-0.00019661
0.00153986
-8.00654e-05
-0.000283545
-5.40403e-05
-5.75159e-05
-0.000161244
-0.000649286
-5.51512e-05
-0.000150285
-0.00101746
-5.08709e-05
-7.86254e-05
-0.00262695
-4.96085e-05
-9.11399e-06
-0.00289584
-4.59939e-05
4.75503e-05
-0.002434
-4.02479e-05
0.000173964
-0.002515
-4.01384e-05
0.000263254
-0.00146403
-2.98928e-05
0.000265171
-0.00065234
-2.35576e-05
0.000232121
-0.000438501
-2.08862e-05
5.46453e-05
-0.00478523
0.00405494
-0.000176131
-0.0048495
0.00383635
-0.000494052
-0.00472541
0.00381527
-0.000477237
-0.0053449
0.0036693
-0.000323237
-0.00504205
0.00367676
-0.000406001
-0.0049529
0.00353869
-0.000801618
-0.00557184
0.00386005
-0.0001868
-0.00554729
0.0035276
-0.000442904
-0.00526233
0.00339986
-0.000701759
-0.00546566
0.00380401
-0.00043364
-0.00567505
0.00372145
-0.000545565
-0.00561744
0.00328066
-0.000365759
-0.0053741
0.00313782
-0.000571469
-0.00542652
0.00374415
-0.000484772
-0.00574511
0.00358477
-0.000584911
-0.00577296
0.00340463
-0.000565838
-0.00567401
0.00299108
-0.000427562
-0.00571464
0.0028527
-0.000507428
-0.00581978
0.00346826
-0.000333483
-0.00564613
0.00345116
-0.000863798
-0.00518105
0.00336273
-0.0006448
-0.00603759
0.00299269
-0.000680219
-0.00566432
0.00262085
-0.000405882
-0.00564525
0.00239614
-0.000581081
-0.0057791
0.00312496
-0.000422681
-0.00588883
0.00307259
-0.00032679
-0.00527213
0.0030749
-0.000741996
-0.00576263
0.00291687
-0.00129517
-0.00574494
0.00257897
-0.00072688
-0.00611655
0.00220768
-0.000791515
-0.00597021
0.00278144
-0.000980201
-0.00582488
0.00275666
-0.0004662
-0.005893
0.00242939
-0.000889681
-0.00557707
0.00240589
-0.00113606
-0.00547006
0.00237806
-0.00100477
-0.00569948
0.00216044
-0.000515909
-0.005817
0.00180487
-0.000760333
-0.00524211
0.00225465
-0.0010784
-0.00534953
0.00251091
-0.000907645
-0.00521948
0.00221252
-0.000630341
-0.00590733
0.00148331
-0.00107856
-0.00560629
0.00128898
-0.00120861
-0.005775
0.00145209
-0.000964783
-0.00582055
0.00150162
-0.0004146
-0.00609583
0.00130145
-0.000804484
-0.00382719
0.00175596
-0.00096842
-0.00415684
0.00177826
-0.00101337
-0.00435502
0.00167746
-0.000855216
-0.00527643
0.00127708
-0.00117201
-0.0048159
0.00111418
-0.00102237
-0.00472879
0.00108901
-0.000917918
-0.00559132
0.00100973
-0.00063829
-0.00586899
0.00105215
-0.000156543
-0.00630758
0.000886508
-0.000573654
-0.00136623
0.00073621
-0.000637524
-0.00128712
0.000971607
-0.00108316
-0.000753871
0.00109434
-0.00117038
-0.00119759
0.000992545
-0.000961028
-0.00327133
0.000409782
-0.000926212
-0.0053282
0.000223962
-0.000710486
-0.00547097
0.000205291
-0.000558534
-0.00580854
0.000333838
-0.000137252
-0.0060312
0.00032446
0.00020674
-0.00644747
0.000410433
-6.95218e-05
0.00140846
9.41088e-05
-0.000204705
0.00166371
6.35912e-05
-0.000837822
0.00182708
0.000132924
-0.00145638
0.000404713
9.3742e-05
-0.00102587
-0.00289299
-0.000150061
-0.000760518
-0.00410204
-0.000254398
-0.000577359
-0.0042133
-0.000110306
-0.000313054
-0.00503842
-1.78192e-05
-0.00017947
-0.00525628
0.000144025
9.47344e-05
-0.00584285
0.000297889
0.000554289
-0.00601298
0.000408934
0.000209825
0.00245769
-0.000267015
2.94371e-05
0.00260144
-0.000264738
-0.000581557
0.00278225
-0.00016502
-0.001156
0.00116301
-0.000200623
-0.00120923
-0.00146403
-0.000203694
-0.00063418
-0.0020666
-0.000264351
-0.000521782
-0.00272862
-0.000279143
-0.000260127
-0.00409382
-0.000107869
-9.56264e-05
-0.00475779
1.57686e-05
0.000153773
-0.00586611
8.88867e-05
0.000367205
-0.00578723
0.000198685
0.000677559
-0.00556905
0.000137043
0.000344248
0.00276574
-0.000327485
0.000130467
0.00302074
-0.000384297
-0.000271109
0.00352138
-0.000332015
-0.000826235
0.00213795
-0.000257588
-0.000925058
-0.000173445
-0.00018207
-0.000536405
-0.00140864
-0.000225712
-0.000371813
-0.00211869
-0.000243818
-6.01633e-05
-0.00270277
-0.000158363
-8.30293e-05
-0.00424684
-5.02878e-05
5.64442e-05
-0.00509947
-8.98589e-06
0.000437398
-0.00472665
-3.65407e-06
0.000508187
-0.00475454
2.3502e-05
0.000514716
-0.00519718
6.09711e-05
0.000176747
0.00143574
-0.00028113
6.5264e-05
0.00236505
-0.000289493
-0.00015645
0.00243599
-0.000290753
-0.000469831
0.00232016
-0.000200562
-0.000607386
0.000448688
-0.000138375
-0.000331529
-0.000700178
-0.000147336
-0.000265235
-0.00101027
-0.000151107
-0.000139315
-0.00267646
-0.000123296
-5.52809e-05
-0.00374185
-8.53951e-05
5.01189e-05
-0.00399911
-5.93654e-05
0.000253411
-0.00364603
-4.55352e-05
0.000489754
-0.00322703
-2.13508e-05
0.000521766
-0.00280716
-3.65134e-05
0.000392392
-0.00258845
-2.47084e-05
3.46689e-05
0.00128224
-0.000113402
1.81424e-05
0.00197984
-0.000111126
-9.0736e-05
0.00154497
-0.000106892
-0.000187987
0.00169956
-7.91209e-05
-0.000280663
0.000203316
-5.67587e-05
-0.000162288
-0.00048919
-5.53229e-05
-0.000155492
-0.000866276
-5.0842e-05
-8.70052e-05
-0.00254067
-5.01413e-05
-2.38004e-05
-0.00287472
-4.69238e-05
3.33907e-05
-0.00247333
-4.00526e-05
0.000163538
-0.00267938
-3.94019e-05
0.000243638
-0.00171913
-2.86813e-05
0.000258132
-0.000923195
-1.71705e-05
0.000258196
-0.000703892
-1.63624e-05
0.000240407
-0.000838891
-1.65559e-05
5.29242e-05
-0.00448336
0.00424443
-0.00016238
-0.00465425
0.0040667
-0.000356009
-0.00475248
0.00386992
-0.000341832
-0.00486333
0.00380568
-0.000386441
-0.00468841
0.00386256
-0.000412877
-0.00470339
0.00372679
-0.000698841
-0.00532875
0.00408933
-0.000305337
-0.00496821
0.00371399
-0.000352931
-0.00494094
0.00357483
-6.4687e-06
-0.00520141
0.00345871
-0.00077767
-0.00539633
0.00390312
-0.000552574
-0.0055375
0.00396919
-0.000480075
-0.00519741
0.00339719
-0.000102423
-0.00554038
0.00324146
-0.000622981
-0.00541559
0.00390199
-0.000511017
-0.00556856
0.00372377
-0.000674046
-0.0054705
0.00366365
-0.000325903
-0.00547481
0.00314145
-0.000238047
-0.00548136
0.00290831
-0.00045622
-0.00539798
0.00377357
-0.000530575
-0.00541109
0.00360722
-0.000681881
-0.0058277
0.0034576
-0.000635828
-0.00556962
0.00329126
-0.000519973
-0.00579233
0.00290852
-0.000217979
-0.0055613
0.00262177
-0.000526308
-0.00578552
0.00343289
-0.00043325
-0.00554942
0.00338212
-0.000393636
-0.00513106
0.00346802
-0.000634231
-0.00587105
0.00308843
-0.000685147
-0.00614215
0.0028605
-0.000708892
-0.00543358
0.00239119
-0.000194341
-0.0057221
0.00217207
-0.000776616
-0.00579891
0.00310143
-0.000846938
-0.00591331
0.00301617
-0.000419384
-0.00532365
0.00307729
-0.000696156
-0.0057412
0.00285995
-0.000949442
-0.00567715
0.00266245
-0.00107955
-0.00593562
0.00247282
-1.91318e-05
-0.00584471
0.00206009
-0.000710575
-0.00602855
0.00274356
-0.00095397
-0.00592118
0.00275331
-0.00103633
-0.00557882
0.00257118
-0.000746308
-0.00541378
0.00238208
-0.00100081
-0.00548442
0.0023425
-0.000954604
-0.00572762
0.0021522
-0.000714776
-0.00588174
0.00197518
-0.000251212
-0.00606567
0.0016621
-0.000646708
-0.00536366
0.00216864
-0.000961471
-0.00548958
0.00238775
-0.00106899
-0.00512312
0.00247017
-0.000784538
-0.00569291
0.00192742
-0.000803439
-0.00585221
0.00136066
-0.00100755
-0.00590284
0.00140199
-0.000979106
-0.00580449
0.00149722
-0.00069546
-0.00601135
0.00147431
-0.000258905
-0.00570664
0.00139567
-0.00086734
-0.0036565
0.00176368
-0.000869167
-0.00401336
0.00184412
-0.0012274
-0.00415686
0.00172435
-0.0009843
-0.00527938
0.00149433
-0.000650239
-0.00503013
0.00118052
-0.00114353
-0.00459911
0.00120183
-0.000900921
-0.00535296
0.00104109
-0.000711386
-0.00578607
0.00107966
-0.000362223
-0.00602517
0.000994709
4.02096e-05
-0.00611293
0.000738461
-0.00050021
-0.00109717
0.000675214
-0.000642157
-0.00109259
0.000979129
-0.00100713
-0.000741965
0.00112901
-0.00132391
-0.00141861
0.00118288
-0.000782716
-0.00320919
0.000687243
-0.000961961
-0.00511762
0.000400642
-0.000803658
-0.0053173
0.000296588
-0.000579657
-0.00563513
0.000298483
-0.00028267
-0.00594302
0.000348862
0.000112318
-0.00648884
0.000348244
0.000449357
-0.00584142
0.000540113
-3.9152e-05
0.0015075
5.78875e-05
-0.000135772
0.00185184
7.119e-05
-0.000756308
0.00196095
0.000104465
-0.00139199
0.000805513
-3.18858e-05
-0.000998451
-0.00279953
-0.000210495
-0.000752891
-0.00388233
-0.000251065
-0.00063072
-0.00419598
-0.000162776
-0.000438943
-0.00491754
-5.23755e-05
-0.000243607
-0.00542008
0.000293962
5.53464e-05
-0.00589967
0.000299266
0.000446284
-0.00619426
0.00040009
0.000667003
-0.00562553
0.000422953
0.000288907
0.00249237
-0.000272724
0.000119803
0.0025796
-0.000234509
-0.000469224
0.00290893
-0.000193303
-0.00105998
0.00142813
-0.000196402
-0.00118101
-0.00120112
-0.000207581
-0.000629808
-0.0018956
-0.000281287
-0.00054488
-0.0024777
-0.000342202
-0.000162543
-0.0041989
-7.16873e-05
-0.000178863
-0.00477029
4.58163e-07