/*--------------------------------*- C++ -*----------------------------------*\
  =========                 |
  \\      /  F ield         | OpenFOAM: The Open Source CFD Toolbox
   \\    /   O peration     | Website:  https://openfoam.org
    \\  /    A nd           | Version:  7
     \\/     M anipulation  |
\*---------------------------------------------------------------------------*/
FoamFile
{
    version     2.0;
    format      ascii;
    class       surfaceScalarField;
    location    "2.5";
    object      phi_0;
}
// * * * * * * * * * * * * * * * * * * * * * * * * * * * * * * * * * * * * * //

dimensions      [0 3 -1 0 0 0 0];

internalField   nonuniform List<scalar> 
54184
(
-2.13371e-05
0.0015485
-0.000109061
-6.04749e-05
0.00234561
-0.000234851
-1.32889e-05
0.00156775
-0.000119876
-7.55689e-05
0.00155764
-0.000109036
-0.000139665
0.00255641
-0.00025346
-3.07912e-05
0.00237087
-0.000260004
-0.000157827
0.00194607
-0.000277726
-5.35689e-06
0.00157886
-0.000119426
-7.80479e-05
0.00163521
-0.00011939
-0.000118406
0.000153447
-0.000105155
-0.000228457
0.000994294
-0.000251794
-0.000109622
0.00265331
-0.000277073
-0.000212493
0.00236265
-0.000326443
-2.43545e-05
0.0023969
-0.000262315
-0.000159985
0.00207269
-0.000304685
-0.000275098
0.00115135
-0.000268301
2.26553e-06
0.0015815
-0.000118634
-6.75551e-05
0.00170196
-0.000118625
-0.000130564
0.000280298
-0.000115677
-0.000208643
-0.000338115
-7.89934e-05
-0.000294357
9.66311e-05
2.79264e-05
-0.000225345
0.00121122
-0.000279577
-0.000268618
0.00127328
-0.000315667
-0.000110964
0.00277259
-0.000293265
-0.000201339
0.00248877
-0.000361834
-0.000538305
0.00191956
-0.00030241
-6.05975e-06
0.00241269
-0.000265644
-0.000121839
0.0021693
-0.000304641
-0.00028901
0.00129443
-0.000289312
-0.00053215
-2.83956e-05
-0.000202156
6.64121e-06
0.00157834
-0.000117625
-6.12851e-05
0.0017625
-0.000117888
-0.000129881
0.000406219
-0.000114664
-0.000232443
-0.00013413
-8.72189e-05
-0.000228904
-0.00240209
-5.23484e-05
-0.000359786
-0.00163091
0.000875388
-0.000323273
0.000228602
9.73682e-05
-0.000538892
-0.000123336
0.000233596
-0.000197832
0.00140685
-0.000277087
-0.000275364
0.00141358
-0.000345851
-0.000840201
0.000996656
-0.000263905
-8.72375e-05
0.0028722
-0.000273476
-0.000152274
0.00260598
-0.000380044
-0.000558448
0.00216648
-0.000339323
-0.000850327
-0.000396853
-0.000205463
6.46802e-05
0.00236068
-0.00026874
-0.000114873
0.00226545
-0.000308213
-0.00027967
0.00143074
-0.000291163
-0.000594649
0.000261493
-0.000216995
-0.000495722
-0.00195843
-0.000128202
1.13042e-05
0.00156882
-0.000116831
-5.95399e-05
0.00182185
-0.000117431
-0.000128973
0.000531257
-0.000113953
-0.000232858
6.90597e-05
-8.49964e-05
-0.000263677
-0.00216817
-5.74548e-05
-0.000127794
-0.00190769
-4.75757e-05
-0.000272465
-0.00508524
0.00121992
-0.000395526
-0.00174994
0.000924455
-0.000627188
-0.00113784
0.000982916
-0.000326356
0.000361406
0.000132319
-0.000597549
-4.69756e-05
0.000343193
-0.00117456
-3.34403e-05
0.000246805
-0.00016009
0.00159378
-0.000270193
-0.000258632
0.00161332
-0.000370472
-0.000868348
0.00123027
-0.000269568
-0.00118983
-0.000874965
-0.000119262
3.05332e-05
0.0029221
-0.000300985
-0.000151925
0.00275344
-0.000383879
-0.000528581
0.00236702
-0.000331668
-0.000943117
-0.00016131
-0.000226398
-0.000819688
-0.00211651
-0.000104957
5.43063e-05
0.00232267
-0.000272677
-0.000118587
0.00236267
-0.00030691
-0.00027114
0.00156614
-0.000301449
-0.000601113
0.000549181
-0.000210596
-0.000577363
-0.00171601
-0.000145727
-0.000312111
-0.0022181
-0.000105701
1.87634e-05
0.00155084
-0.000116434
-4.97854e-05
0.00187199
-0.000117194
-0.000130075
0.000658111
-0.00011421
-0.000227359
0.000265991
-8.35262e-05
-0.000276388
-0.00191996
-5.6821e-05
-0.000148832
-0.00176401
-5.23026e-05
-0.000108299
-0.00196786
-4.61086e-05
-0.000241326
-0.00586877
0.00190369
-0.000332923
-0.00524056
0.00124546
-0.000631254
-0.00386644
0.00128447
-0.000503345
-0.00178984
0.000902809
-0.000716256
-0.00118092
0.00108625
-0.00130389
-0.000515171
0.000971984
-0.000284007
0.000474884
0.000154861
-0.000606991
6.43966e-05
0.000369306
-0.00119943
0.000268903
0.000371931
-0.00122366
-0.00193346
4.40227e-05
-9.96882e-05
0.00182871
-0.000253889
-0.000246439
0.00185342
-0.000415784
-0.000847745
0.0014742
-0.00029523
-0.00132697
-0.000643079
-0.000117598
-0.00107683
-0.00263023
4.1462e-05
5.49956e-06
0.00298619
-0.000288421
-0.000141882
0.00286336
-0.000387612
-0.000488652
0.00254812
-0.00034747
-0.000979615
8.47563e-05
-0.000199232
-0.000954359
-0.00183764
-0.000128272
-0.000595436
-0.00315943
-5.41141e-05
7.07756e-05
0.00227521
-0.00027845
-8.62337e-05
0.0024371
-0.000310662
-0.000269583
0.00170465
-0.000305909
-0.000587032
0.000812132
-0.000204726
-0.000608996
-0.00145353
-0.000140466
-0.000351881
-0.00203973
-0.000121046
-0.000198031
-0.00183011
-0.000111797
2.69537e-05
0.00152362
-0.000116066
-3.90487e-05
0.00191121
-0.000116597
-0.00012687
0.000781859
-0.000114072
-0.000219352
0.000454438
-8.33049e-05
-0.000287869
-0.00165864
-5.69742e-05
-0.000152346
-0.00161552
-5.29594e-05
-0.00012457
-0.00184455
-5.10392e-05
-9.78486e-06
-0.00294288
-4.48119e-05
-0.000309575
-0.00609084
0.00257968
-0.000435652
-0.0056699
0.00219538
-0.000365459
-0.00596233
0.0017302
-0.000638557
-0.00511786
0.00122529
-0.000625896
-0.00414161
0.00143027
-0.00103836
-0.00479827
0.000944738
-0.000487717
-0.00188531
0.0008464
-0.000816648
-0.00112856
0.0010601
-0.00129681
-0.000401026
0.00106949
-0.00118791
-0.00269523
0.00075927
-0.000181023
0.000557304
0.000136932
-0.000539824
0.000238346
0.000274297
-0.00122414
0.000611201
0.000403401
-0.00137082
-0.00159728
7.96004e-05
-0.00118961
-0.00384832
0.000199661
-4.84853e-05
0.00194884
-0.000209713
-0.00022018
0.00204684
-0.000369004
-0.000781916
0.00172523
-0.000373551
-0.00135717
-0.000439405
-0.000121349
-0.00125262
-0.00244205
-7.51824e-06
-0.000849604
-0.00330538
-1.98e-05
4.56287e-05
0.00302698
-0.000291643
-9.77964e-05
0.00297459
-0.000388086
-0.000476834
0.00271445
-0.00034669
-0.00098346
0.000335422
-0.000201708
-0.000964791
-0.00155658
-0.000124496
-0.000657786
-0.00289643
-8.53607e-05
-0.000260292
-0.00296941
-9.48323e-05
9.85387e-05
0.00220723
-0.000279263
-3.68199e-05
0.00246851
-0.000312082
-0.000253189
0.00184398
-0.000323679
-0.000569103
0.00105599
-0.000200021
-0.000630823
-0.00118336
-0.000131942
-0.000353679
-0.0018547
-0.000124165
-0.000216264
-0.00173155
-0.000127907
-4.12981e-05
-0.00286077
-9.38461e-05
2.77575e-05
0.00149503
-0.000115611
-3.51646e-05
0.00194616
-0.000115859
-0.000122979
0.000901881
-0.00011364
-0.000208706
0.000632593
-8.35207e-05
-0.000298617
-0.00138831
-5.50183e-05
-0.000154717
-0.00146345
-5.43242e-05
-0.000128409
-0.00171802
-5.10859e-05
-1.9524e-05
-0.00292414
-5.02545e-05
6.0707e-05
-0.00278183
-4.19479e-05
-0.000522508
-0.00552153
0.00331557
-0.000428549
-0.00570596
0.00279816
-0.000516351
-0.00590274
0.00277461
-0.000145895
-0.00605564
0.00241997
-0.000809885
-0.00542207
0.0022464
-0.00051075
-0.00587851
0.00199641
-0.000777068
-0.00565617
0.00141347
-0.000726515
-0.00487486
0.00116533
-0.000807873
-0.00435579
0.00143069
-0.000999153
-0.00472262
0.00105697
-0.00122035
-0.0045775
0.000881297
-0.000441156
-0.00196382
0.000742842
-0.00069444
-0.00119156
0.00106401
-0.00125167
-0.000387632
0.00107425
-0.00137883
-0.00237755
0.000759812
-0.000724486
-0.00422227
0.000252669
-0.000144514
0.000693244
8.9769e-05
-0.000476066
0.000355733
0.000275432
-0.00120736
0.000973589
0.000337356
-0.0014428
-0.00121642
0.000108174
-0.00136813
-0.00379219
0.000138985
-0.000736899
-0.00412628
0.000223156
-2.97961e-07
0.00212231
-0.00029983
-0.000193717
0.00218451
-0.000251466
-0.000745264
0.00195101
-0.000326354
-0.00134092
-0.000274639
-0.000180858
-0.00123328
-0.00224894
-4.59668e-05
-0.000854498
-0.00299573
-0.000120456
-0.000389715
-0.00371142
-8.45024e-05
8.37482e-05
0.00305684
-0.000293445
1.87338e-07
0.00301354
-0.000367602
-0.00045818
0.00285589
-0.000324532
-0.00097085
0.000594248
-0.000203767
-0.000938808
-0.00130664
-0.000143662
-0.000648602
-0.00262903
-9.69798e-05
-0.00027995
-0.00285647
-0.000134611
-0.000105989
-0.0026219
-7.69356e-05
9.73115e-05
0.00213754
-0.00028407
-1.80525e-05
0.00247998
-0.000307851
-0.000255801
0.00198574
-0.000321022
-0.000546655
0.00128342
-0.000213161
-0.000647156
-0.000909213
-0.00012563
-0.000350536
-0.00165797
-0.000132857
-0.000236912
-0.0016164
-0.000130812
-6.49798e-05
-0.00283355
-0.000109676
9.29266e-05
-0.00351052
-6.39233e-05
3.94364e-05
0.00145396
-0.000115196
-2.85278e-05
0.00197398
-0.000114899
-0.000121097
0.00101895
-0.000111835
-0.000205657
0.000807984
-8.33734e-05
-0.000300734
-0.00111544
-5.56634e-05
-0.000159291
-0.00130541
-5.37683e-05
-0.000131896
-0.0015891
-5.13437e-05
-4.08545e-05
-0.00288435
-5.00204e-05
5.22892e-05
-0.00283805
-4.63208e-05
9.10568e-05
-0.0021353
-3.58559e-05
-0.000456468
-0.00576472
0.00333301
-0.000529125
-0.00542035
0.00329938
-0.000491394
-0.00558222
0.00321913
-0.000551886
-0.0055787
0.00308894
-0.000403662
-0.00559291
0.00285747
-0.000942238
-0.00569249
0.00274965
-0.000432708
-0.00599094
0.00263187
-0.000660644
-0.00605141
0.00218348
-0.000853546
-0.00528004
0.00230021
-0.000781336
-0.00571007
0.00205143
-0.000801209
-0.0054664
0.0016087
-0.000871548
-0.00624166
0.00112958
-0.000708823
-0.00459925
0.00129586
-0.00062594
-0.00465101
0.00139206
-0.000999007
-0.00458927
0.00104467
-0.00132616
-0.00454335
0.000970142
-0.000789621
-0.00533302
0.000832379
-0.0004083
-0.00200777
0.000669226
-0.000673975
-0.00127879
0.00102799
-0.00121888
-0.000390032
0.00107793
-0.00147443
-0.00203484
0.000763164
-0.000867165
-0.00416938
0.000205955
-0.000382042
-0.00590614
0.000125881
-0.000173277
0.000907149
6.20737e-05
-0.000399029
0.000545563
0.000105249
-0.00114545
0.00125047
0.00039874
-0.00147867
-0.000849934
0.000108629
-0.00128179
-0.00372787
9.23592e-05
-0.000678625
-0.00430747
0.000144311
-0.000349558
-0.00476448
9.92583e-05
3.70261e-05
0.00221948
-0.00024912
-0.00010886
0.00228473
-0.000291001
-0.000701938
0.00218756
-0.000244257
-0.00129185
-6.81236e-05
-0.000211871
-0.00116042
-0.0020723
-0.000135887
-0.000774978
-0.00272528
-0.000190033
-0.000459504
-0.00348541
-0.000166916
-0.000121708
-0.00376548
-9.38624e-05
0.000106565
0.00305852
-0.000295949
1.07369e-05
0.00305356
-0.000362253
-0.000482762
0.00302845
-0.000313201
-0.000995219
0.000919619
-0.00020134
-0.000942475
-0.00106959
-0.000145502
-0.00062563
-0.00236595
-0.000131648
-0.00032512
-0.00271943
-0.000145819
-0.000107223
-0.00259782
-0.000116444
8.93835e-05
-0.00402551
-4.75574e-06
0.000152389
0.00202039
-0.000279523
6.25281e-06
0.00246457
-0.000303437
-0.000250891
0.00210551
-0.000297823
-0.000529464
0.00150518
-0.00021897
-0.000655665
-0.000642495
-0.000124948
-0.00034809
-0.00145973
-0.000135073
-0.000240906
-0.00150154
-0.000138706
-8.49113e-05
-0.00280625
-0.000114058
8.6425e-05
-0.00357881
-7.55182e-05
0.000169281
-0.00375001
-4.02678e-05
3.40636e-05
0.00141829
-0.000114835
-2.27944e-05
0.00199577
-0.000114192
-0.000121158
0.00113423
-0.00010902
-0.000212278
0.000990734
-8.23073e-05
-0.000294921
-0.000847422
-5.64669e-05
-0.000163803
-0.0011434
-5.38767e-05
-0.000136831
-0.00145498
-5.10535e-05
-5.04445e-05
-0.00283591
-4.934e-05
3.74473e-05
-0.00287928
-4.62415e-05
8.95721e-05
-0.00223132
-3.98741e-05
0.000193486
-0.00195763
-3.65018e-05
-0.000503892
-0.00585499
0.0033006
-0.000519581
-0.00574476
0.0034046
-0.00026654
-0.00597058
0.00314665
-0.000730131
-0.00526029
0.00363578
-0.000356295
-0.00554452
0.00321431
-0.000671662
-0.00560748
0.00293592
-0.000844621
-0.00561466
0.0031215
-0.000476199
-0.00559614
0.00313566
-0.000929572
-0.00571344
0.00279613
-0.00085637
-0.00566869
0.00280242
-0.000710757
-0.0059354
0.00262352
-0.000687906
-0.00595116
0.00241832
-0.00105613
-0.00555128
0.00222283
-0.000866832
-0.00506486
0.00230783
-0.000493973
-0.00570619
0.00216437
-0.00070267
-0.00537043
0.00165911
-0.000937227
-0.00628485
0.00126296
-0.00111909
-0.0060727
0.00116803
-0.000733905
-0.00428428
0.00158514
-0.000756534
-0.00472648
0.00145389
-0.000971311
-0.00452105
0.00107627
-0.00121194
-0.00466708
0.000905909
-0.000979371
-0.00521054
0.000959868
-0.000684181
-0.00558168
0.000767805
-0.000541786
-0.00190152
0.00062456
-0.000530649
-0.00141034
0.000932389
-0.00121743
-0.00039209
0.00110202
-0.00150438
-0.00162457
0.000693365
-0.000871724
-0.00414258
0.000326298
-0.000498976
-0.00600479
0.000124954
-0.000181907
-0.00584451
0.000191369
-0.000159023
0.00108155
0.000105232
-0.000435472
0.000908503
2.5746e-05
-0.00103874
0.00141969
0.000272828
-0.00146419
-0.000441997
0.000163147
-0.00113187
-0.00363034
-1.74564e-05
-0.000631606
-0.00437365
1.51655e-05
-0.000461538
-0.00460333
-1.48016e-05
-0.000128352
-0.00521239
5.9612e-05
5.15957e-05
0.00231749
-0.000273985
-0.000100827
0.0024107
-0.00026353
-0.000721242
0.00232999
-0.000194956
-0.00128272
0.000193187
-0.000218068
-0.00111877
-0.00192936
-0.000178509
-0.000710359
-0.00249802
-0.000278427
-0.000545762
-0.00324572
-0.000209079
-0.000120063
-0.00380919
-0.000110362
0.00012937
-0.0047681
-1.62653e-05
0.000171483
0.00305011
-0.000303915
5.07377e-05
0.00307267
-0.000359546
-0.000451512
0.00320447
-0.000337655
-0.000980695
0.00128683
-0.000229178
-0.000926226
-0.000846046
-0.000154323
-0.000593448
-0.00212941
-0.000136685
-0.000307423
-0.00261285
-0.000171707
-0.000113271
-0.00258569
-0.000129586
7.08842e-05
-0.00409739
-2.90196e-05
0.000232132
-0.00493068
4.03996e-05
0.000151999
0.00189195
-0.000284488
8.95161e-06
0.00245484
-0.000301539
-0.000237816
0.00220196
-0.000283226
-0.000522509
0.00171911
-0.000201522
-0.000635411
-0.000384592
-0.000136384
-0.000353932
-0.00125639
-0.000138154
-0.000253776
-0.00137795
-0.000141721
-9.87315e-05
-0.00277979
-0.000116876
7.00944e-05
-0.003647
-7.85135e-05
0.000160172
-0.00384966
-4.64701e-05
0.000371408
-0.00316366
-3.73704e-05
3.29979e-05
0.00138265
-0.000114526
-1.121e-05
0.00200549
-0.000113345
-0.000117352
0.00124609
-0.000108699
-0.000218534
0.00118077
-8.05202e-05
-0.000289873
-0.00058297
-5.68861e-05
-0.000165048
-0.000980681
-5.41365e-05
-0.000142428
-0.0013152
-5.12293e-05
-6.08662e-05
-0.00277663
-4.94617e-05
1.94596e-05
-0.00290159
-4.6487e-05
7.75957e-05
-0.00231521
-3.99381e-05
0.000196486
-0.00215418
-3.9803e-05
0.000244912
-0.000902147
-3.30276e-05
-0.00021993
-0.0052466
0.00369406
-0.000400815
-0.00569279
0.00342949
-0.000607618
-0.00572909
0.00336731
-0.00033684
-0.00582822
0.00327791
-0.000762631
-0.00566162
0.00372538
-0.000201252
-0.0059454
0.00322437
-0.000500892
-0.00560267
0.00292224
-0.000646232
-0.00541845
0.00357668
-0.000422969
-0.00548832
0.00352635
-0.000790997
-0.00552485
0.00299311
-0.000100505
-0.00614919
0.00265953
-0.000752022
-0.00568446
0.0030982
-0.000601974
-0.00568693
0.00310351
-0.000958601
-0.0054727
0.00316561
-0.000745276
-0.00586207
0.00251463
-0.00092106
-0.00566206
0.00276554
-0.000509047
-0.00581715
0.00269925
-0.000465528
-0.00594038
0.0023756
-0.000929567
-0.00559493
0.0024543
-0.00106441
-0.00546877
0.00211885
-0.000798831
-0.00510996
0.00248828
-0.000692946
-0.00564915
0.0021872
-0.000763437
-0.00515717
0.00174323
-0.000881319
-0.00624057
0.00128422
-0.00134619
-0.0056987
0.00125578
-0.000976684
-0.00596381
0.00126673
-0.000807644
-0.00404776
0.00167027
-0.000696046
-0.00462758
0.00165164
-0.0010809
-0.00436824
0.00116455
-0.00125334
-0.00470376
0.000861911
-0.00121914
-0.00490851
0.000951304
-0.000844914
-0.00525598
0.00098011
-0.000304733
-0.00593405
0.000802349
-0.000572119
-0.00174705
0.000659916
-0.000709018
-0.00141737
0.000905135
-0.00106344
-0.000564842
0.00112984
-0.00146408
-0.0012133
0.00069064
-0.000928126
-0.00389752
0.000244564
-0.000647637
-0.00590336
0.000240899
-0.000663985
-0.00573867
0.000221554
-0.000276068
-0.00613126
0.000250539
-0.000140847
0.00118757
0.00010159
-0.000353182
0.00120144
6.46507e-05
-0.00102689
0.0015599
0.000191183
-0.00141977
-0.000201735
0.000169619
-0.0010761
-0.00342215
-8.77101e-05
-0.00062714
-0.00440674
-6.75843e-05
-0.00062533
-0.00440531
-0.000103289
-0.000203628
-0.00514473
1.09855e-06
0.00015505
-0.00498165
0.000126061
9.38934e-05
0.00239922
-0.000264219
-4.4476e-05
0.0025067
-0.000274765
-0.000677195
0.00252161
-0.000229465
-0.00128503
0.00054668
-0.000244118
-0.00110283
-0.001842
-0.000128826
-0.000643466
-0.00238021
-0.000246298
-0.000441643
-0.00311779
-0.000272137
-0.000161574
-0.00388504
-8.49279e-05
6.16046e-05
-0.00481263
-5.65499e-05
0.000225476
-0.00564355
0.000137137
0.000234311
0.00297873
-0.000305034
8.13073e-05
0.00305206
-0.000355664
-0.000394675
0.00334818
-0.000346394
-0.000927933
0.00160692
-0.000252324
-0.000900058
-0.000628641
-0.000181937
-0.000596869
-0.00188816
-0.000152629
-0.00035316
-0.00245908
-0.000191069
-0.000126586
-0.00258146
-0.000148082
3.12863e-05
-0.00415213
-3.60325e-05
0.000230102
-0.00505102
2.13858e-05
0.000397827
-0.00463206
4.46871e-05
0.00015275
0.00175586
-0.000284919
1.69899e-05
0.00244055
-0.000298398
-0.0002282
0.00229747
-0.000286208
-0.000519508
0.0019303
-0.000193445
-0.000620234
-0.000111754
-0.000143999
-0.000345608
-0.00106717
-0.000145043
-0.000265892
-0.00124802
-0.000144621
-0.000113556
-0.00274639
-0.00012243
4.84035e-05
-0.00371524
-7.75827e-05
0.000127604
-0.00392351
-5.46769e-05
0.000371268
-0.00334661
-3.83107e-05
0.000504626
-0.00273248
-5.47706e-05
3.38384e-05
0.00134558
-0.000114202
-1.17198e-06
0.0020047
-0.00011257
-0.000110706
0.00135117
-0.000107721
-0.000207489
0.00136001
-8.0455e-05
-0.000285616
-0.000319529
-5.83463e-05
-0.000163121
-0.000820134
-5.43113e-05
-0.000146839
-0.00117156
-5.09379e-05
-6.84124e-05
-0.00271044
-4.90068e-05
3.05396e-06
-0.00290712
-4.69884e-05
6.24084e-05
-0.00238422
-3.98889e-05
0.000182777
-0.00233706
-3.98377e-05
0.000266433
-0.00117582
-3.25629e-05
0.000245566
-0.000360032
-2.8493e-05
-7.25276e-05
-0.00488633
0.00383869
-0.000240385
-0.00530692
0.00368882
-0.000411066
-0.00501066
0.0036374
-0.000613697
-0.00562651
0.00347532
-0.000370649
-0.00544132
0.00350708
-0.00081287
-0.0056026
0.00373888
-0.000236478
-0.00576505
0.00333937
-0.000408383
-0.00578686
0.00325375
-0.000646634
-0.00557926
0.00371316
-0.000356051
-0.00591059
0.00362365
-0.000439693
-0.00574381
0.0030142
-0.000327331
-0.00583796
0.00293008
-0.000488045
-0.00560043
0.00348468
-0.0004595
-0.00556085
0.00350673
-0.000832242
-0.00541037
0.00328551
-0.000430289
-0.00622662
0.00275556
-0.000699535
-0.00558344
0.00251287
-0.000803101
-0.00577591
0.0031073
-0.000435371
-0.005771
0.0031086
-0.000802627
-0.00523633
0.00320423
-0.000757938
-0.00575078
0.00288269
-0.000887905
-0.00595549
0.00225869
-0.000550694
-0.00592959
0.00279513
-0.000546201
-0.00589074
0.00269239
-0.000404414
-0.00596789
0.00236773
-0.00105497
-0.00552758
0.00248191
-0.00141557
-0.00530664
0.00236155
-0.000763586
-0.00576726
0.00197279
-0.000822827
-0.00515772
0.002366
-0.000943173
-0.00529534
0.0023816
-0.000646995
-0.00537293
0.00196906
-0.000916388
-0.0061107
0.00127641
-0.0014133
-0.00555942
0.0013391
-0.00114195
-0.00585926
0.00144826
-0.000766598
-0.00580779
0.00130518
-0.000805088
-0.00393856
0.00176129
-0.000965069
-0.00442765
0.00172639
-0.000930181
-0.00429835
0.00144849
-0.000962483
-0.00504885
0.00100805
-0.00111642
-0.00486277
0.00100446
-0.00101734
-0.00488629
0.000951313
-0.000930132
-0.0057486
0.00106081
-0.00044334
-0.00607505
0.000851539
-0.000561715
-0.00158055
0.000700874
-0.000689604
-0.0013572
0.000936172
-0.00109952
-0.000709444
0.00112237
-0.00123324
-0.00105583
0.000785835
-0.00102696
-0.00353001
0.000273996
-0.000802145
-0.00566599
0.0001822
-0.000720653
-0.00565074
0.000248292
-0.000450738
-0.00598751
0.000324919
7.98105e-05
-0.00619376
0.00032617
-0.000116327
0.00130652
6.65649e-05
-0.000279912
0.00143571
0.000102759
-0.000941981
0.00163993
0.000249409
-0.00142733
1.71035e-05
0.000114645
-0.0011216
-0.00309312
-0.000140639
-0.000677215
-0.00432273
-0.00013797
-0.000522916
-0.00424654
-0.000145082
-0.00030857
-0.00504672
-5.4299e-05
2.07617e-05
-0.00515165
0.000211939
0.000217185
-0.0058417
0.000224929
0.000175687
0.00244436
-0.000257725
1.78043e-05
0.00255736
-0.000251374
-0.000624293
0.00265537
-0.000178904
-0.00123901
0.000872768
-0.000244472
-0.00110248
-0.00169687
-0.000186825
-0.000655464
-0.00221579
-0.000234649
-0.000514385
-0.00293231
-0.000270551
-0.000177028
-0.00402403
-8.27052e-05
-7.27687e-05
-0.00476625
-2.72583e-05
0.000180195
-0.00574934
9.91439e-05
0.000494464
-0.0057229
0.000198919
0.000253669
0.00289284
-0.000355928
6.19104e-05
0.00307448
-0.000372375
-0.000370028
0.00347298
-0.00033864
-0.00088399
0.00188196
-0.000256955
-0.000910301
-0.000396689
-0.000194209
-0.000564812
-0.00166214
-0.000188758
-0.000373884
-0.00229095
-0.000212771
-0.000159421
-0.00257649
-0.000150181
1.01548e-05
-0.00421478
-4.71868e-05
0.0001632
-0.00509697
-2.56755e-05
0.000398849
-0.00465661
1.83539e-05
0.000518201
-0.00476094
5.15933e-05
0.000182449
0.00158473
-0.000285142
4.62141e-05
0.00240378
-0.000295534
-0.000189701
0.00236839
-0.00029032
-0.00048648
0.00211958
-0.000196497
-0.000622199
0.000173461
-0.000142076
-0.000329366
-0.000891987
-0.000152939
-0.000260988
-0.00113081
-0.000148103
-0.000124856
-0.00271224
-0.000122325
-4.24721e-06
-0.00374834
-8.20274e-05
9.45117e-05
-0.0039772
-5.5986e-05
0.000393954
-0.00355865
-5.38116e-05
0.000512438
-0.0029732
-4.35979e-05
0.00054213
-0.00254493
-5.07369e-05
3.91374e-05
0.0013033
-0.000113753
1.27278e-05
0.00198964
-0.000111868
-0.000101207
0.00144722
-0.000107412
-0.000196445
0.00152898
-8.02379e-05
-0.000283343
-5.89308e-05
-5.77102e-05
-0.000161984
-0.000661443
-5.50533e-05
-0.000150478
-0.00102459
-5.0808e-05
-7.84368e-05
-0.00263372
-4.92256e-05
-9.23587e-06
-0.00290085
-4.60399e-05
4.8007e-05
-0.002439
-4.02141e-05
0.000173775
-0.00251051
-4.02206e-05
0.000264138
-0.00144982
-2.99749e-05
0.000265534
-0.000634124
-2.40041e-05
0.000230842
-0.000419707
-2.12989e-05
5.70467e-05
-0.0047904
0.00405254
-0.000176421
-0.0048487
0.00383668
-0.000498422
-0.00472728
0.00381476
-0.000472646
-0.00534391
0.00366966
-0.000329729
-0.00503946
0.0036767
-0.000402841
-0.00495769
0.00353833
-0.000801142
-0.00557461
0.00385984
-0.000184207
-0.00554506
0.00352678
-0.000440434
-0.00526835
0.0034006
-0.000703298
-0.00546727
0.00380163
-0.000426031
-0.00567866
0.00372247
-0.000544717
-0.00562237
0.0032799
-0.000370413
-0.00537176
0.00313601
-0.000572016
-0.00542888
0.00374239
-0.000480688
-0.00576102
0.00358479
-0.000587777
-0.00576716
0.00340253
-0.000563572
-0.00568275
0.00299228
-0.000431971
-0.00570565
0.0028499
-0.000506828
-0.00581256
0.0034696
-0.000330019
-0.00563566
0.00345414
-0.000870354
-0.00519492
0.003359
-0.000637242
-0.00605552
0.00299371
-0.000691037
-0.0056428
0.00261804
-0.000397376
-0.005654
0.00239399
-0.000576146
-0.00578192
0.00312471
-0.000407022
-0.00587869
0.00307581
-0.000335276
-0.00527471
0.00307785
-0.000748277
-0.00576911
0.00291587
-0.0013126
-0.00575061
0.00257485
-0.000711485
-0.00612335
0.00220739
-0.000788918
-0.00596472
0.00278411
-0.000976553
-0.00581855
0.00275632
-0.000445346
-0.0058997
0.00242255
-0.000906453
-0.00557835
0.00240857
-0.00114886
-0.0054663
0.00237713
-0.00100033
-0.00570585
0.00215852
-0.000519152
-0.00581748
0.00180307
-0.000760928
-0.0052328
0.00226056
-0.00107512
-0.00533668
0.00251739
-0.000889213
-0.00522668
0.00219439
-0.000640351
-0.00592128
0.00145751
-0.00109037
-0.00559749
0.00128842
-0.0012175
-0.0057729
0.00145291
-0.00096788
-0.00582286
0.00150108
-0.000413904
-0.00609609
0.00130359
-0.000798625
-0.00382668
0.00175377
-0.00097039
-0.00415724
0.00177166
-0.000995759
-0.0043452
0.00166948
-0.000850846
-0.00524559
0.00126283
-0.00119773
-0.00479393
0.00110997
-0.00102052
-0.00474471
0.00108125
-0.00091445
-0.00561244
0.00100895
-0.000636778
-0.00587833
0.00105013
-0.000146914
-0.00632842
0.000884845
-0.000568491
-0.00136418
0.00073086
-0.000628869
-0.001274
0.000966626
-0.00107932
-0.000728503
0.00109257
-0.00117454
-0.00115872
0.000972463
-0.000967394
-0.0033021
0.000403717
-0.00092337
-0.00535542
0.000209574
-0.000712812
-0.00547758
0.000198939
-0.000558801
-0.00582412
0.000335128
-0.000125832
-0.0060467
0.000324461
0.00020068
-0.00644028
0.000419791
-6.75346e-05
0.00140385
9.20804e-05
-0.000203603
0.00166278
6.09025e-05
-0.000837757
0.00182467
0.000131482
-0.00145384
0.000393648
8.76898e-05
-0.00103813
-0.00288853
-0.000154291
-0.000761152
-0.00411005
-0.000247636
-0.000575629
-0.00421433
-0.000108936
-0.00031079
-0.00504111
-1.69296e-05
-0.000175615
-0.00524587
0.000142769
9.60719e-05
-0.00583849
0.000292852
0.000561581
-0.00598486
0.000412705
0.000209157
0.00245515
-0.000267355
2.83148e-05
0.00259964
-0.000266415
-0.000579439
0.00278137
-0.000167965
-0.00115658
0.00116579
-0.000199333
-0.00121075
-0.00143971
-0.00020118
-0.000638015
-0.00206794
-0.000261472
-0.000523219
-0.00274202
-0.000275611
-0.000262771
-0.00408375
-0.000107478
-9.50075e-05
-0.00475753
1.37466e-05
0.000155057
-0.00585797
8.95213e-05
0.000370798
-0.00579016
0.000194459
0.000677216
-0.00556853
0.000140671
0.000346313
0.00275704
-0.000325572
0.000130953
0.00302019
-0.000386374
-0.000265822
0.0035116
-0.000334871
-0.000825376
0.00213965
-0.000257432
-0.000928062
-0.000165857
-0.000181924
-0.000540097
-0.0014234
-0.000222212
-0.000374293
-0.00212585
-0.000240551
-6.26147e-05
-0.00269446
-0.000157036
-7.66011e-05
-0.00424266
-4.9951e-05
6.05409e-05
-0.00510161
-8.57974e-06
0.000448481
-0.00473138
-5.42942e-06
0.000510613
-0.00476482
2.40538e-05
0.000514612
-0.00520396
6.10842e-05
0.000172473
0.0014254
-0.000281016
6.60575e-05
0.00235385
-0.000288538
-0.000153962
0.00241599
-0.000290385
-0.00046885
0.00230239
-0.000200721
-0.000607916
0.000439656
-0.000138119
-0.000332693
-0.000716539
-0.000146815
-0.000266254
-0.00101732
-0.000150652
-0.000139821
-0.00267589
-0.000123076
-5.37739e-05
-0.00374181
-8.43234e-05
5.18309e-05
-0.00400415
-5.89045e-05
0.0002582
-0.00365304
-4.6018e-05
0.000489979
-0.00323026
-2.25899e-05
0.000519445
-0.00280568
-3.67575e-05
0.000389985
-0.00258553
-2.52138e-05
3.44709e-05
0.001266
-0.000113467
1.60686e-05
0.00197086
-0.000111038
-8.81716e-05
0.00153029
-0.000106759
-0.000188008
0.00168888
-7.93055e-05
-0.000280515
0.000198297
-5.69511e-05
-0.000162952
-0.000500948
-5.5253e-05
-0.000155863
-0.000873023
-5.07539e-05
-8.6878e-05
-0.00254791
-4.97339e-05
-2.34756e-05
-0.00288016
-4.64396e-05
3.44654e-05
-0.00247957
-3.99347e-05
0.000163729
-0.00267497
-3.94821e-05
0.000245382
-0.00170668
-2.87393e-05
0.000259215
-0.00090583
-1.74837e-05
0.000257054
-0.000683954
-1.68102e-05
0.00024094
-0.000820651
-1.69882e-05
5.58834e-05
-0.00448276
0.00424366
-0.000160855
-0.00465801
0.00406334
-0.000361844
-0.00475417
0.00386868
-0.000339642
-0.00486213
0.0038054
-0.000394763
-0.00468792
0.00386235
-0.000410678
-0.00470779
0.00372745
-0.00069772
-0.00532983
0.00408876
-0.000301818
-0.00496655
0.00371437
-0.000350879
-0.0049449
0.00357435
-1.06783e-05
-0.00519909
0.00346018
-0.000778814
-0.00539962
0.00390183
-0.000542388
-0.00554004
0.00397118
-0.000480342
-0.005199
0.00339306
-0.000109935
-0.00553909
0.00324336
-0.000621258
-0.00541794
0.00390115
-0.000506448
-0.00557462
0.00372335
-0.000676721
-0.00547335
0.00366239
-0.000322933
-0.00547487
0.00314238
-0.000238024
-0.00548329
0.00290315
-0.000458411
-0.00539475
0.00377028
-0.000530172
-0.00542611
0.00360763
-0.000677589
-0.00582952
0.00345439
-0.000633196
-0.00557704
0.00329278
-0.000524326
-0.00578755
0.00290746
-0.000214599
-0.00556313
0.00261807
-0.000515743
-0.00578476
0.00343332
-0.000421315
-0.00553739
0.00338562
-0.000408167
-0.00513493
0.00346704
-0.000633577
-0.00589424
0.00308303
-0.000691725
-0.00612822
0.00285825
-0.000696522
-0.00543914
0.00238822
-0.000198528
-0.00572776
0.00217175
-0.000777396
-0.00579955
0.0031035
-0.000837404
-0.00591155
0.00301843
-0.000409042
-0.00531401
0.0030788
-0.000705192
-0.00575338
0.00286086
-0.000970378
-0.00567319
0.00265997
-0.00107281
-0.00594977
0.00247376
-2.58024e-05
-0.00582531
0.00206043
-0.00070622
-0.00603087
0.00274492
-0.000954153
-0.00591308
0.00275766
-0.00102182
-0.00557663
0.00256584
-0.000750346
-0.00543002
0.00238421
-0.00101374
-0.00547747
0.0023431
-0.00095397
-0.00574003
0.00214778
-0.000718874
-0.00588366
0.00197569
-0.000252978
-0.00606334
0.00166264
-0.000637709
-0.0053627
0.0021735
-0.000970428
-0.00547292
0.00239684
-0.00104858
-0.00512339
0.00246692
-0.000758726
-0.00571954
0.00190052
-0.000833506
-0.00585374
0.00134954
-0.00101122
-0.0058971
0.00140332
-0.000976331
-0.00580625
0.00149818
-0.000692277
-0.00601366
0.00147414
-0.000260895
-0.0056995
0.00139797
-0.000859502
-0.00365861
0.00176296
-0.000863555
-0.0040103
0.00184152
-0.00121678
-0.00415568
0.00171959
-0.000969129
-0.00526697
0.00148546
-0.000668128
-0.00500106
0.0011707
-0.00114301
-0.00461308
0.00119798
-0.000904905
-0.00537449
0.0010354
-0.000709328
-0.00579729
0.00107843
-0.000352799
-0.0060459
0.000994574
3.75828e-05
-0.00611826
0.000719956
-0.000495468
-0.00109707
0.000670081
-0.000636226
-0.00108525
0.000974738
-0.00100238
-0.000721507
0.00112425
-0.00131666
-0.00137964
0.00117632
-0.000792643
-0.00323515
0.000660019
-0.000966185
-0.00513864
0.000391972
-0.000801897
-0.00532807
0.000286332
-0.000578162
-0.00565022
0.000292414
-0.000276185
-0.00595597
0.000344968
0.000122221
-0.00649418
0.000352213
0.000443314
-0.0058223
0.000544801
-3.75273e-05
0.0015014
5.7054e-05
-0.00013461
0.00184895
6.88287e-05
-0.000755895
0.001959
0.000103032
-0.00139572
0.000803936
-3.96681e-05
-0.00100701
-0.00278873
-0.000215849
-0.000757766
-0.00388877
-0.000255817
-0.000629717
-0.00419192
-0.000163548
-0.000432688
-0.00492906
-5.10645e-05
-0.000239476
-0.00541049
0.000292154
5.57689e-05
-0.00589505
0.000298622
0.000457886
-0.0061781
0.000398999
0.000652659
-0.00562031
0.000424869
0.000289346
0.00249279
-0.000273287
0.000120878
0.00257994
-0.000237579
-0.000467649
0.00291212
-0.000195344
-0.00106147
0.00143118
-0.000197258
-0.00118857
-0.00117504
-0.000203492
-0.000632875
-0.00189685
-0.000279493
-0.000547059
-0.00249194
-0.000338779
-0.000163209
-0.00418849
-7.02779e-05
-0.000175502