/*--------------------------------*- C++ -*----------------------------------*\
  =========                 |
  \\      /  F ield         | OpenFOAM: The Open Source CFD Toolbox
   \\    /   O peration     | Website:  https://openfoam.org
    \\  /    A nd           | Version:  7
     \\/     M anipulation  |
\*---------------------------------------------------------------------------*/
FoamFile
{
    version     2.0;
    format      ascii;
    class       volVectorField;
    location    "2.5";
    object      U;
}
// * * * * * * * * * * * * * * * * * * * * * * * * * * * * * * * * * * * * * //

dimensions      [0 1 -1 0 0 0 0];

internalField   nonuniform List<vector> 
18780
(
(-0.830542 0.118209 -2.55716)
(-1.22448 0.247342 -1.68563)
(-0.831457 0.120182 -2.55233)
(-0.811703 0.613207 -2.45301)
(-1.29061 0.226076 -0.96911)
(-1.19968 0.190886 -1.70381)
(-0.979493 0.598119 -1.93767)
(-0.831168 0.138375 -2.54803)
(-0.825286 0.637711 -2.44974)
(-0.0877967 0.984737 -2.55912)
(-0.462502 0.513088 -0.471694)
(-1.3186 0.145222 -0.982013)
(-1.1628 0.717424 -1.40897)
(-1.20534 0.159301 -1.72057)
(-1.01831 0.619201 -1.93404)
(-0.592618 1.03103 -2.33227)
(-0.827906 0.161529 -2.54278)
(-0.821151 0.642202 -2.45063)
(-0.0926884 1.01377 -2.54747)
(0.150785 1.55367 -2.31886)
(-0.0311049 0.43046 0.401084)
(-0.543209 0.487602 -0.475716)
(-0.637269 0.40843 -1.23668)
(-1.32536 0.300613 -0.984271)
(-1.24261 0.736616 -1.38089)
(-0.992998 1.34254 -1.60317)
(-1.23155 0.128528 -1.73886)
(-1.03851 0.593856 -1.95871)
(-0.599227 1.03934 -2.32322)
(0.00957971 2.08183 -1.77684)
(-0.819047 0.21001 -2.53558)
(-0.802116 0.666198 -2.44528)
(-0.0885352 1.03558 -2.53956)
(0.153655 1.53198 -2.33369)
(1.18019 1.88202 -1.26085)
(0.767852 0.638541 1.46573)
(-0.0728454 0.384015 0.464634)
(0.0433655 0.782757 -0.273891)
(-0.620321 0.459791 -0.463346)
(-0.6529 0.366473 -1.2517)
(-0.479145 1.62892 -0.736691)
(-1.434 0.398014 -0.880333)
(-1.19811 0.605199 -1.52576)
(-0.96007 1.31023 -1.65651)
(0.155596 2.41078 -1.07376)
(-1.23615 0.126271 -1.77808)
(-1.04879 0.581226 -1.9978)
(-0.599279 1.06596 -2.32585)
(0.001164 2.16624 -1.6999)
(0.963142 2.01148 -1.17767)
(-0.783289 0.255834 -2.52429)
(-0.79254 0.700996 -2.43833)
(-0.0863522 1.0597 -2.53769)
(0.163455 1.56206 -2.3091)
(1.17935 1.87994 -1.24729)
(0.930595 1.01642 -1.13639)
(2.43048 0.440644 1.89422)
(0.895864 0.638067 1.4609)
(0.539709 0.970829 2.08785)
(-0.107011 0.36753 0.516204)
(0.0596966 0.779518 -0.0566717)
(0.041083 1.94893 1.49248)
(-0.685557 0.438565 -0.472755)
(-0.71531 0.388858 -1.25487)
(-0.505105 1.58781 -0.718956)
(0.403831 2.40668 -0.918749)
(-1.43278 -0.0214153 -1.12208)
(-1.28187 0.734803 -1.47698)
(-1.00708 1.34086 -1.67343)
(0.247791 2.37505 -1.07509)
(1.06883 2.28364 -0.711301)
(-1.22675 0.0999609 -1.8225)
(-1.06058 0.675858 -2.01219)
(-0.589239 1.10669 -2.36525)
(0.00881098 2.15215 -1.73462)
(0.958481 2.06113 -1.17826)
(1.09443 1.17659 -0.812069)
(-0.778968 0.259625 -2.52547)
(-0.794173 0.692786 -2.43923)
(-0.0798976 1.08885 -2.53733)
(0.15833 1.57601 -2.30005)
(1.20433 1.90951 -1.19864)
(0.92424 1.02822 -1.13725)
(0.951558 0.819062 -1.06969)
(2.92906 0.330088 2.85859)
(2.66645 0.235801 1.71639)
(1.85908 0.878169 2.25054)
(0.96281 0.618442 1.44619)
(0.590377 0.965245 1.98966)
(0.250995 2.10477 1.74357)
(-0.162844 0.318742 0.516569)
(0.0893816 0.738603 0.0443559)
(-0.0369158 1.79806 1.61823)
(0.931026 2.69189 -0.185425)
(-0.780301 0.402916 -0.457539)
(-0.821931 0.412957 -1.20794)
(-0.546478 1.53371 -0.865303)
(0.45978 2.463 -0.799955)
(1.27734 2.40054 0.219108)
(-1.54984 0.328202 -0.920061)
(-1.26612 0.841198 -1.49695)
(-1.04997 1.36359 -1.77506)
(0.256748 2.48823 -1.01509)
(1.03453 2.33775 -0.700972)
(1.57098 1.58408 -0.296533)
(-1.19889 0.105859 -1.88108)
(-1.08194 0.700223 -2.03481)
(-0.589122 1.19712 -2.35432)
(-0.0172696 2.06933 -1.85552)
(0.979963 2.13731 -1.05684)
(1.0789 1.14941 -0.877758)
(0.888216 1.04181 -0.821353)
(-0.770717 0.274508 -2.5294)
(-0.774472 0.726291 -2.43696)
(-0.0706417 1.12218 -2.54151)
(0.161956 1.5446 -2.32805)
(1.21638 1.92472 -1.16664)
(0.914341 1.00164 -1.16553)
(0.955618 0.824137 -1.06304)
(1.43894 0.127604 -1.06521)
(3.02126 0.382446 3.38908)
(2.83057 0.302737 2.99546)
(2.9251 0.741858 2.70951)
(2.60256 0.309149 1.78918)
(2.00835 0.765229 2.16781)
(2.34922 1.45817 2.04839)
(1.00735 0.490584 1.29667)
(0.739481 1.01238 1.90382)
(0.306939 1.96335 1.84243)
(1.31651 1.31544 2.37454)
(-0.211278 0.217053 0.482196)
(0.036602 0.73823 0.146666)
(-0.0296575 1.87874 1.6136)
(0.95574 2.5991 0.178311)
(1.81399 2.23509 0.414729)
(-0.891823 0.399678 -0.396644)
(-0.868847 0.421694 -1.13165)
(-0.535445 1.43774 -1.23175)
(0.518656 2.51295 -0.80535)
(1.35553 2.47324 0.157537)
(1.63718 1.79949 0.0326824)
(-1.48977 0.324728 -0.951146)
(-1.27072 0.756316 -1.59759)
(-1.01897 1.38668 -1.79161)
(0.316602 2.52432 -1.06155)
(1.06052 2.36388 -0.538152)
(1.5293 1.50676 -0.4133)
(1.45389 0.634797 -0.226291)
(-1.25728 0.0859563 -1.88641)
(-1.11911 0.599306 -2.0775)
(-0.589926 1.17451 -2.38779)
(-0.0302072 2.02595 -1.94008)
(1.02364 2.21919 -0.883135)
(1.07122 1.11534 -0.929411)
(0.898803 0.999419 -0.835792)
(1.40939 0.0919675 -0.8549)
(-0.763664 0.267671 -2.52944)
(-0.752386 0.736111 -2.43712)
(-0.0569833 1.1383 -2.54204)
(0.164331 1.5593 -2.3356)
(1.19877 1.9291 -1.1044)
(0.900913 0.973934 -1.2085)
(0.948771 0.820155 -1.07227)
(1.43622 0.0889435 -1.08666)
(1.3859 -0.483273 -1.00378)
(2.67381 0.781513 3.37196)
(2.79351 0.370119 3.20565)
(2.94456 0.396187 3.33738)
(2.99418 0.11434 3.32184)
(2.78335 0.548107 3.05223)
(3.00414 0.451804 2.83399)
(2.77512 1.10232 2.43571)
(2.56058 0.154958 1.75274)
(2.15183 0.742996 2.09528)
(2.40035 1.07517 2.16278)
(2.20935 2.1632 1.2974)
(1.09813 0.201053 1.12533)
(0.652001 0.826253 1.84506)
(0.344807 1.91465 1.86357)
(1.34876 1.35664 2.27308)
(2.01353 1.67742 0.749951)
(-0.28433 0.147335 0.496739)
(0.0196629 0.678654 0.104035)
(-0.0917106 1.83634 1.10057)
(0.923359 2.5829 0.352503)
(1.97752 2.17766 0.214177)
(1.88567 1.79003 0.511596)
(-0.944157 0.358927 -0.488808)
(-1.07281 0.51761 -0.922744)
(-0.621551 1.5193 -1.08179)
(0.578265 2.48075 -0.924373)
(1.39717 2.389 0.113611)
(1.62883 1.7017 -0.228799)
(1.82495 0.944191 -0.19563)
(-1.50842 0.320391 -0.975021)
(-1.39567 0.656031 -1.58552)
(-1.03651 1.42037 -1.72459)
(0.359469 2.51356 -1.05928)
(1.11462 2.30821 -0.523765)
(1.50643 1.39294 -0.549695)
(1.46707 0.524602 -0.324935)
(1.28698 0.332727 -0.621661)
(-1.12948 0.184893 -1.97351)
(-1.08369 0.661604 -2.09937)
(-0.591827 1.17558 -2.38568)
(-0.0554793 1.8513 -2.16324)
(1.05173 2.28435 -0.767257)
(1.04828 1.08419 -0.99012)
(0.920041 0.946186 -0.839165)
(1.39818 0.118265 -0.915402)
(1.74124 -0.461314 -0.607556)
(-0.736227 0.294145 -2.53458)
(-0.739558 0.757088 -2.43652)
(-0.047989 1.14034 -2.5308)
(0.186943 1.56467 -2.33315)
(1.20495 1.90095 -1.1386)
(0.918556 0.982125 -1.19778)
(0.934662 0.807375 -1.09661)
(1.4437 0.169525 -1.08183)
(1.37963 -0.433074 -1.01777)
(1.06087 -0.71188 -0.897912)
(2.76637 0.487834 3.24779)
(2.65743 0.559412 3.40478)
(2.64535 0.780696 3.45217)
(2.76133 0.28889 3.26136)
(2.71665 0.347453 3.22265)
(2.90758 0.480283 3.30834)
(2.96714 0.292347 3.22409)
(2.98001 0.587888 2.90291)
(2.77602 0.57294 3.04542)
(2.91499 0.607232 2.91034)
(2.76429 0.889626 2.55993)
(3.02494 0.820719 1.79028)
(2.44474 0.117066 1.95281)
(2.42381 0.414416 1.94429)
(2.36432 0.888136 2.2295)
(2.29735 2.0528 1.228)
(2.65666 0.561386 1.59543)
(1.04403 0.145531 1.02674)
(0.87086 0.637895 1.59848)
(0.605428 1.8945 1.9615)
(1.19739 1.52926 2.25468)
(2.1585 1.64375 0.587958)
(2.80092 0.746136 0.182545)
(-0.375082 0.137424 0.46622)
(-0.0633829 0.616626 -0.112911)
(-0.146943 1.75199 1.13222)
(0.941678 2.50688 0.608966)
(2.04098 1.92086 0.183973)
(2.17646 1.28205 0.364047)
(2.30226 0.728648 0.566657)
(-1.03821 0.374093 -0.495022)
(-0.882086 0.18357 -1.41834)
(-0.603325 1.57209 -0.597876)
(0.659279 2.38185 -0.796769)
(1.51868 2.19939 -0.139718)
(1.5656 1.60032 -0.434291)
(1.80731 0.822275 -0.547941)
(1.83895 0.394031 -0.372594)
(-1.56075 0.397411 -1.01203)
(-1.41142 0.595077 -1.5738)
(-0.991553 1.59095 -1.5519)
(0.399765 2.63096 -0.962546)
(1.16522 2.27456 -0.568115)
(1.4416 1.27599 -0.735906)
(1.41982 0.608395 -0.287262)
(1.28431 0.27668 -0.768068)
(1.96815 -0.178399 -0.130448)
(-1.25613 0.0756983 -1.92945)
(-1.07124 0.670656 -2.10176)
(-0.596403 1.25878 -2.32014)
(-0.0592853 1.85448 -2.15992)
(1.08152 2.29107 -0.758077)
(1.02531 1.05829 -1.01156)
(0.915936 0.900398 -0.90461)
(1.40417 0.141341 -0.96748)
(1.7275 -0.476978 -0.64729)
(1.84835 -0.726516 -0.359575)
(-0.703429 0.325833 -2.53333)
(-0.732654 0.767409 -2.43569)
(-0.0381184 1.15764 -2.50927)
(0.203967 1.58516 -2.29499)
(1.21383 1.87234 -1.16355)
(0.896764 0.979482 -1.21251)
(0.961524 0.819187 -1.08228)
(1.43931 0.135736 -1.08281)
(1.37566 -0.398623 -1.00696)
(1.06124 -0.705077 -0.896695)
(0.994445 -1.47966 -0.786964)
(2.84121 0.666243 2.84172)
(2.78074 0.403328 3.2471)
(2.88406 0.446676 2.99508)
(2.60361 0.423981 3.42232)
(2.71158 0.510424 3.41267)
(2.68595 0.713244 3.21206)
(2.77212 0.535372 3.32336)
(2.71947 0.275362 3.20011)
(2.85492 0.802805 3.31698)
(2.82256 0.143946 3.34501)
(2.94062 0.256473 3.21175)
(2.9366 0.352688 2.9267)
(2.71439 1.06653 2.84821)
(2.65412 0.258227 3.21041)
(2.72607 0.109534 3.16569)
(2.74393 0.806366 2.64655)
(3.07122 0.549566 1.84044)
(2.98795 1.38537 1.58492)
(2.21318 -0.031073 2.45413)
(2.47254 0.32008 2.19636)
(2.42988 0.613739 2.27944)
(2.48267 1.87506 1.12301)
(2.57801 0.475148 1.67802)
(2.79025 0.428024 1.34523)
(1.15835 0.197059 0.982497)
(0.799059 0.507835 1.41204)
(0.504573 1.70395 2.12443)
(1.18687 1.64075 2.18483)
(2.14791 1.37921 0.65477)
(3.00845 0.587814 0.164119)
(2.75951 0.631002 0.329525)
(-0.461371 0.15006 0.465267)
(-0.102327 0.628431 -0.202241)
(-0.232344 1.65024 0.571503)
(0.892953 2.40357 0.857352)
(2.11742 1.59169 -0.0417364)
(2.25277 0.855235 0.171544)
(2.35726 0.705286 0.216573)
(2.56163 0.224554 -0.0975956)
(-1.08641 0.399294 -0.568671)
(-1.22457 0.551208 -1.09825)
(-0.554672 1.71834 -0.340392)
(0.695142 2.3526 -0.787345)
(1.48161 2.14717 -0.442715)
(1.49073 1.43587 -0.702391)
(1.72195 0.769779 -0.761181)
(1.85377 0.175594 -0.458001)
(2.3188 -0.208178 -0.228335)
(-1.60716 0.308461 -1.0675)
(-1.43273 0.568164 -1.56836)
(-0.968902 1.63506 -1.5244)
(0.396068 2.57675 -1.05805)
(1.13901 2.2688 -0.647101)
(1.42263 1.16725 -0.711102)
(1.4225 0.552815 -0.401013)
(1.29496 0.218494 -0.904082)
(1.99252 -0.271265 -0.244448)
(2.41227 -0.548137 0.0925557)
(-1.07979 0.16554 -2.03335)
(-1.02566 0.724877 -2.10208)
(-0.531788 1.34308 -2.25609)
(-0.00266769 2.04443 -1.90009)
(1.08126 2.19338 -0.873431)
(1.00777 1.05807 -1.01997)
(0.929046 0.879976 -0.926385)
(1.41638 0.123502 -1.01233)
(1.7274 -0.514569 -0.654991)
(1.85068 -0.750659 -0.392091)
(1.5543 -1.70391 -0.250109)
(-0.673709 0.336499 -2.53685)
(-0.746421 0.722657 -2.4373)
(-0.0173506 1.16411 -2.49621)
(0.238891 1.66833 -2.20506)
(1.21114 1.84639 -1.1803)
(0.897373 0.959195 -1.23667)
(0.945432 0.824515 -1.08886)
(1.43739 0.122628 -1.08774)
(1.3804 -0.386032 -0.988603)
(1.06346 -0.692859 -0.906147)
(1.00577 -1.48821 -0.795165)
(0.471732 -1.72188 -0.889125)
(2.46071 0.56919 2.69265)
(2.71104 0.45956 2.69749)
(2.75668 0.506834 2.91639)
(2.82749 0.424282 2.81029)
(2.7997 0.39858 3.20341)
(2.85577 0.171134 3.13598)
(2.6062 0.808272 2.89828)
(2.62753 0.259454 3.42967)
(2.66895 0.300282 3.40041)
(2.64846 0.872106 3.26483)
(2.94936 0.236509 2.83613)
(2.89808 0.381848 3.2828)
(2.81055 0.397595 3.1953)
(2.68283 0.611723 3.33763)
(2.81321 1.10865 3.1348)
(2.87039 0.124876 3.27622)
(2.87807 -0.140649 3.31202)
(2.9349 -0.0944552 2.91603)
(2.75481 0.921354 2.85482)
(2.62372 1.16657 2.82123)
(2.6577 0.227172 3.23882)
(3.07942 0.0482529 3.03201)
(2.71008 0.641818 2.71205)
(3.14396 0.129169 1.90088)
(2.98561 1.36804 1.59097)
(2.88945 1.34152 1.79433)
(2.25165 0.0573463 2.60448)
(2.38075 -0.0841556 2.55126)
(2.45509 0.758892 2.28481)
(2.6079 1.61737 1.19473)
(2.497 0.474 1.63664)
(2.58985 0.432778 1.3909)
(2.98725 -0.0165677 1.23051)
(1.05692 0.163197 1.07798)
(1.02784 0.560853 1.30912)
(0.773519 1.42542 2.0164)
(1.1741 1.68667 2.10084)
(2.20795 1.02302 0.494122)
(2.9926 0.545151 0.484572)
(2.88063 0.566066 0.348319)
(2.99231 0.384833 0.468137)
(-0.538271 0.250535 0.38014)
(-0.354512 0.561149 -0.00423415)
(-0.167722 1.66085 0.304985)
(0.860349 2.43006 0.805208)
(2.14359 1.32272 -0.0281977)
(2.29387 0.604133 -0.0749245)
(2.25741 0.815288 -0.143427)
(2.5324 0.0803149 -0.34212)
(2.41838 -0.148327 0.372949)
(-1.16871 0.360066 -0.630012)
(-1.08267 0.502769 -1.17027)
(-0.554762 1.70633 -0.519726)
(0.686457 2.37266 -0.751291)
(1.60088 1.96824 -0.481673)
(1.54551 1.20586 -0.628161)
(1.67252 0.578031 -1.008)
(1.8981 0.0603674 -0.488654)
(2.34722 -0.242419 -0.168812)
(2.7452 -0.555658 0.0879949)
(-1.70338 0.321844 -1.01817)
(-1.4155 0.657265 -1.58943)
(-1.00199 1.60309 -1.54278)
(0.303239 2.4349 -1.30731)
(1.20157 2.13402 -0.774538)
(1.34828 1.12026 -0.724005)
(1.40826 0.555324 -0.472358)
(1.30739 0.161305 -1.00879)
(2.00879 -0.347942 -0.216728)
(2.42418 -0.592498 0.00219507)
(2.29421 -1.13352 0.255302)
(-1.00306 0.253314 -2.06685)
(-1.00728 0.738538 -2.08378)
(-0.497923 1.36145 -2.25216)
(0.102428 2.13494 -1.76282)
(1.10182 2.11419 -0.892928)
(0.991743 1.0385 -1.07208)
(0.921245 0.866191 -0.970503)
(1.41492 0.110178 -1.04214)
(1.77974 -0.469993 -0.647073)
(1.84587 -0.768081 -0.427323)
(1.55321 -1.59838 -0.257156)
(1.32336 -2.40272 -0.341809)
(-0.6574 0.337356 -2.53798)
(-0.757186 0.699864 -2.4395)
(-0.00900282 1.1669 -2.47936)
(0.255785 1.64946 -2.22147)
(1.20517 1.81084 -1.21418)
(0.89951 0.94694 -1.25124)
(0.93931 0.840898 -1.09051)
(1.43064 0.0921425 -1.09742)
(1.37935 -0.324737 -1.00121)
(1.07737 -0.678352 -0.921009)
(1.00545 -1.49504 -0.801382)
(0.489287 -1.81852 -0.862706)
(0.189308 -1.59064 -0.627084)
(2.30541 0.396119 2.63033)
(2.46685 0.486705 2.65697)
(2.34337 0.597501 2.66297)
(2.73078 0.433059 2.74563)
(2.54537 0.483892 2.72435)
(2.7686 0.375103 2.9681)
(2.78885 0.28086 2.85525)
(2.77757 0.377443 2.77889)
(2.76357 0.0748116 3.20657)
(2.89143 0.0955034 3.13334)
(2.78365 0.474557 2.92447)
(2.86679 0.429418 2.62047)
(2.71246 -0.130773 3.3904)
(2.69843 -0.0152147 3.32451)
(2.71022 0.661335 3.25001)
(2.99081 0.22978 2.90164)
(2.63884 0.83696 2.66366)
(2.89127 0.140227 3.29739)
(2.85756 0.110456 3.20215)
(2.6497 0.320988 3.3448)
(2.87182 0.518024 3.26254)
(2.96138 0.928924 2.66488)
(2.91837 -0.329955 3.34497)
(2.95232 -0.0801569 3.24565)
(2.89509 -0.154053 2.99929)
(2.78535 0.882481 2.8075)
(2.62879 1.02313 2.88069)
(2.76315 0.879999 2.67712)
(2.70793 -0.0622293 3.14075)
(2.69783 0.131215 3.48654)
(2.6459 0.380375 2.94325)
(3.03071 0.170571 2.04608)
(2.71071 1.53487 1.63335)
(2.96823 1.23911 1.74573)
(2.89177 0.92783 1.94755)
(2.17989 0.0859368 2.71841)
(2.46474 0.0648236 2.61976)
(2.34582 0.520461 2.57364)
(2.73805 1.11443 1.52844)
(2.57796 0.720656 1.44841)
(2.54497 0.516483 1.39573)
(2.76682 0.894205 1.576)
(2.96352 0.543695 1.52106)
(0.999539 0.0249521 1.17293)
(0.970579 0.467166 1.34444)
(0.846114 1.42097 2.0385)
(0.937451 1.57287 2.29689)
(2.08002 0.940933 0.624272)
(2.93008 0.420888 0.343986)
(2.85183 0.616681 0.429865)
(2.99075 0.387273 0.482633)
(3.06883 -0.168352 0.52917)
(-0.546301 0.294083 0.373097)
(-0.475377 0.514502 0.073393)
(-0.156875 1.61137 0.265039)
(0.975203 2.42745 0.68016)
(2.02293 1.33031 0.0579359)
(2.34619 0.40957 -0.422511)
(2.23644 0.407993 -0.236189)
(2.48342 0.0777674 -0.355936)
(2.44058 -0.107283 0.305241)
(2.83297 -0.240221 0.262772)
(-1.31549 0.282879 -0.606086)
(-1.18729 0.458049 -1.04864)
(-0.593288 1.66858 -0.549713)
(0.656397 2.34741 -0.767389)
(1.63912 1.85262 -0.687135)
(1.52617 1.1474 -0.299454)
(1.67405 0.634249 -0.903398)
(1.98858 -0.0306166 -0.576293)
(2.33668 -0.244758 0.0112689)
(2.74836 -0.71395 -0.181832)
(2.80272 -0.865039 0.760132)
(-1.56708 0.251726 -1.39182)
(-1.3577 0.759626 -1.62882)
(-0.972918 1.68323 -1.50705)
(0.283358 2.38871 -1.37645)
(1.2495 2.06455 -0.742584)
(1.3088 0.992661 -0.840587)
(1.37776 0.556309 -0.6078)
(1.32605 0.116121 -1.10355)
(1.97518 -0.49797 -0.274251)
(2.43975 -0.605652 -0.0766263)
(2.36524 -1.21323 0.121227)
(2.30939 -1.54836 0.108261)
(-0.889934 0.28738 -2.12905)
(-0.991797 0.731558 -2.06573)
(-0.497077 1.36906 -2.25311)
(0.0704545 2.09044 -1.81606)
(1.06305 2.10783 -0.924275)
(0.947159 0.970485 -1.16394)
(0.935473 0.809223 -1.0301)
(1.42449 0.0957986 -1.04542)
(1.77307 -0.484372 -0.695931)
(1.8428 -0.761173 -0.439652)
(1.55985 -1.56998 -0.331187)
(1.43919 -2.31939 -0.303821)
(1.25735 -2.56028 -0.527585)
(-0.649377 0.33733 -2.53826)
(-0.770661 0.679226 -2.44619)
(-0.00155672 1.15665 -2.46365)
(0.239947 1.65077 -2.22756)
(1.2129 1.80365 -1.19872)
(0.866919 0.914879 -1.29109)
(0.963041 0.838695 -1.08412)
(1.43275 0.0978234 -1.09763)
(1.35283 -0.390189 -0.978844)
(1.06785 -0.665029 -0.93657)
(0.997079 -1.51506 -0.804315)
(0.51194 -1.87012 -0.863684)
(0.228037 -1.58317 -0.500382)
(0.229557 -1.92595 -0.664242)
(2.27716 0.369043 2.60058)
(2.30966 0.222303 2.62731)
(2.21663 0.535882 2.56061)
(2.57627 0.469374 2.62029)
(2.38372 0.415446 2.70358)
(2.31505 0.584008 2.60495)
(2.71427 0.38479 2.76807)
(2.68317 0.18125 2.74766)
(2.49579 0.596926 2.76438)
(2.71328 0.200622 3.07027)
(2.73903 0.171758 2.8663)
(2.74675 0.308213 2.88824)
(2.50315 0.525535 2.7981)
(2.68097 -0.0828859 3.24279)
(2.88016 0.0923336 3.13084)
(2.77828 0.26739 3.04432)
(2.7041 0.595848 2.77581)
(2.65378 0.700247 2.78653)
(2.81106 -0.186205 3.3408)
(2.77399 -0.340903 3.17188)
(2.64478 0.419426 3.31104)
(3.00064 0.377613 2.92913)
(2.57083 0.660341 2.86939)
(2.69033 0.578064 2.494)
(2.85186 -0.462051 3.31589)
(2.88778 -0.280879 3.2001)
(2.60771 -0.0659503 3.35191)
(2.7796 0.418519 3.30363)
(2.8046 1.14027 2.80927)
(2.96046 0.655522 2.55264)
(2.99089 -0.391118 3.34074)
(2.98659 0.0574333 3.27171)
(2.97165 -0.387337 3.10503)
(2.84623 0.52084 2.74117)
(2.71021 0.659201 2.95438)
(2.79977 0.728334 2.6656)
(2.74686 0.855173 2.42579)
(2.65524 -0.368617 3.05738)
(2.8856 0.171686 3.24807)
(2.85707 -0.0399 3.02191)
(3.02703 -0.33019 2.40246)
(2.95677 0.688815 1.50722)
(2.85318 1.20252 1.89251)
(2.82487 0.961065 2.08867)
(2.91895 0.695748 1.85641)
(2.2027 0.027901 2.69476)
(2.29628 -0.00868938 2.79638)
(2.36286 0.312327 2.77325)
(2.85148 0.411246 2.18397)
(2.52696 0.794779 1.65411)
(2.49552 0.754872 1.74698)
(2.84973 0.569193 1.51671)
(2.82078 0.510164 1.75893)
(3.02946 0.134199 1.42663)
(0.842821 -0.0193706 1.27357)
(0.935953 0.330781 1.40101)
(0.984479 1.1716 2.15781)
(1.20793 1.50312 2.28674)
(1.95636 0.929878 0.820914)
(2.83592 0.443674 0.379137)
(2.81551 0.396526 0.343954)
(2.88584 0.358205 0.510267)
(3.00204 -0.0858508 0.701513)
(3.10608 -0.270296 0.744397)
(-0.632289 0.290251 0.380759)
(-0.557853 0.531665 -0.0741562)
(-0.133755 1.55937 0.353397)
(0.943634 2.30574 1.0179)
(2.14717 1.30396 -0.0804958)
(2.24298 0.369018 -0.790469)
(2.18782 0.408334 -0.20253)
(2.51367 -0.0670169 -0.430351)
(2.57968 0.0629291 0.103864)
(2.8167 -0.136156 0.653352)
(2.78971 -1.00063 0.862195)
(-1.32046 0.321206 -0.718247)
(-1.11949 0.61403 -1.02958)
(-0.564191 1.64266 -0.547164)
(0.66023 2.25827 -0.430781)
(1.68998 1.83029 -0.694204)
(1.48115 1.00186 -0.462526)
(1.61879 0.588459 -1.17147)
(1.97767 -0.0355436 -0.67468)
(2.31592 -0.248957 0.0913294)
(2.78309 -0.712049 -0.173056)
(2.75587 -1.00651 0.737433)
(2.68449 -1.13743 0.477256)
(-1.88729 0.23893 -1.06777)
(-1.39061 0.707878 -1.67746)
(-1.04099 1.60648 -1.61853)
(0.230589 2.35341 -1.34481)
(1.21508 2.12908 -0.709589)
(1.22288 0.895791 -0.980075)
(1.33005 0.472744 -0.812254)
(1.36598 0.0293052 -1.15616)
(2.05379 -0.3197 -0.189689)
(2.42815 -0.647939 -0.118315)
(1.93082 -1.64368 -0.147782)
(2.27737 -1.5451 -0.0147348)
(2.33175 -1.79526 0.363831)
(-0.866565 0.267215 -2.10783)
(-1.03819 0.661112 -2.02426)
(-0.484399 1.33091 -2.25771)
(0.0532705 2.02204 -1.8922)
(1.10908 2.0674 -0.919454)
(0.944663 0.966653 -1.10674)
(0.920425 0.823754 -1.06515)
(1.44647 0.0683642 -1.04796)
(1.79521 -0.419788 -0.693716)
(1.83197 -0.751958 -0.455063)
(1.51926 -1.61258 -0.342865)
(1.2146 -2.35186 -0.446036)
(1.31975 -2.5755 -0.334911)
(1.28767 -1.68673 -0.198545)
(-0.642914 0.336553 -2.53915)
(-0.728867 0.717945 -2.44345)
(-0.00114143 1.13111 -2.44886)
(0.255353 1.64887 -2.24276)
(1.22098 1.79775 -1.17766)
(0.871733 0.903751 -1.28553)
(0.956325 0.840888 -1.08866)
(1.43844 0.0982174 -1.1017)
(1.34095 -0.379055 -1.01118)
(1.06724 -0.670625 -0.930208)
(0.976376 -1.53183 -0.793522)
(0.514153 -1.88969 -0.879088)
(0.261504 -1.54753 -0.399233)
(0.240713 -1.91331 -0.485883)
(0.428101 -1.99206 -0.289163)
(2.11347 0.245139 2.54244)
(2.23427 0.36145 2.63199)
(2.18941 0.645842 2.48566)
(2.32721 0.21292 2.6142)
(2.21764 0.336321 2.58637)
(2.20503 0.562011 2.54796)
(2.59591 0.320018 2.701)
(2.3842 0.191423 2.74292)
(2.33376 0.359453 2.66987)
(2.43051 0.339263 2.51613)
(2.66205 0.0859878 2.86972)
(2.67362 0.160594 2.78092)
(2.47278 0.526419 2.82044)
(2.59664 0.406956 2.57913)
(2.63811 -0.0663786 3.09405)
(2.78899 -0.0303306 2.87411)
(2.66444 0.298904 2.93463)
(2.63117 0.352368 2.74094)
(2.63991 0.328061 2.5876)
(2.6042 -0.378648 3.30202)
(2.70698 -0.120162 3.16599)
(2.87311 0.180066 3.0216)
(2.73809 0.28818 2.8167)
(2.71978 0.546038 2.79257)
(2.6473 0.504856 2.56864)
(2.89021 -0.324757 3.33162)
(2.63574 -0.34975 3.24943)
(2.39934 -0.24484 3.43555)
(2.90875 0.0786151 3.04569)
(2.96225 0.565805 2.72971)
(2.61771 0.698701 2.49631)
(2.74629 0.308862 2.40673)
(2.87861 -0.375134 3.30965)
(2.96231 -0.10413 3.26364)
(2.51211 -0.103139 3.36607)
(2.90747 0.118733 3.12157)
(2.82306 0.644515 2.90901)
(2.9374 0.723605 2.58602)
(2.76926 0.218494 2.52921)
(2.96094 -0.558647 3.32635)
(2.98539 -0.170916 3.28862)
(2.86034 0.0970629 3.30398)
(2.80719 0.1237 2.78686)
(2.74562 0.507991 2.87369)
(2.83496 0.519565 2.68497)
(2.85814 0.614492 2.41248)
(2.90176 0.341452 2.21001)
(2.62912 -0.635585 2.97537)
(2.89958 -0.0458918 3.05745)
(2.68186 0.181002 3.52698)
(2.91462 -0.157532 2.94825)
(2.91566 0.419512 1.72942)
(3.06527 0.564439 1.88401)
(2.87035 0.888783 2.00087)
(2.93642 0.709148 1.94841)
(2.70819 0.431461 2.01627)
(2.21496 -0.0147867 2.69037)
(2.22155 -0.15977 2.81498)
(2.49672 0.259154 2.77978)
(2.73587 0.0758411 2.66325)
(2.72818 0.32745 1.83241)
(2.47099 0.751284 1.87154)
(2.8414 0.419165 1.62098)
(2.88649 0.422424 1.68627)
(3.00575 0.205297 1.5092)
(3.04319 -0.132896 1.5858)
(0.731115 -0.0495118 1.2027)
(0.802597 0.160223 1.42317)
(0.920802 0.982994 2.20072)
(1.44686 1.73091 2.0219)
(1.85134 0.421299 1.62473)
(2.82418 0.436463 0.623874)
(2.78594 0.275937 0.447107)
(2.85456 0.163269 0.433184)
(2.87113 -0.0644275 0.691994)
(3.10148 -0.339526 0.520201)
(2.8114 -0.592868 0.948969)
(-0.707185 0.291052 0.214222)
(-0.720003 0.527902 0.034982)
(-0.152395 1.54305 0.324884)
(0.805369 2.14775 0.335349)
(2.1813 1.61928 -0.537171)
(2.23274 0.300327 -0.692902)
(2.25781 0.266788 -0.360371)
(2.4962 -0.0394272 -0.289649)
(2.61453 -0.177598 0.34379)
(2.87889 -0.412572 0.542323)
(3.01346 -0.561212 0.726087)
(2.65182 -1.46654 1.10542)
(-1.43435 0.270188 -0.69082)
(-1.24305 0.576326 -0.980918)
(-0.731291 1.46409 -0.663929)
(0.567645 2.16294 -0.369467)
(1.74683 1.79916 -0.751693)
(1.49486 0.870884 -0.556261)
(1.56444 0.543406 -1.17373)
(1.9863 -0.724393 -0.441833)
(2.30199 -0.274566 0.0523942)
(2.8395 -0.490849 -0.00324876)
(2.72097 -1.01508 0.706359)
(2.69293 -1.16754 0.411194)
(2.76555 -0.820003 0.423951)
(-1.62864 0.253634 -1.37753)
(-1.33685 0.813912 -1.73376)
(-1.04949 1.51995 -1.71519)
(0.349647 2.38306 -1.16759)
(1.32702 1.98796 -0.757052)
(1.17988 0.876536 -0.905543)
(1.31155 0.419234 -0.9705)
(1.4107 -0.0282899 -1.18849)
(2.10089 -0.282619 -0.201003)
(2.41823 -0.61234 -0.220141)
(2.31977 -0.834899 0.0390983)
(2.18857 -1.60457 0.115089)
(2.54797 -1.43251 0.220458)
(2.37495 -1.52014 0.181395)
(-0.632213 0.3355 -2.16572)
(-1.04217 0.61997 -1.99489)
(-0.514279 1.2812 -2.23283)
(0.0582322 1.99185 -1.91047)
(1.08235 2.06817 -0.914391)
(0.9443 0.965555 -1.06366)
(0.969666 0.828802 -1.03141)
(1.45538 0.0330838 -1.06083)
(1.80606 -0.433804 -0.703132)
(1.83797 -0.712586 -0.508814)
(1.50001 -1.61371 -0.370369)
(1.29752 -2.16487 -0.302753)
(1.056 -2.65871 0.120023)
(1.26338 -1.86311 -0.160018)
(1.26173 -1.77097 -0.146174)
(-0.632676 0.345437 -2.53998)
(-0.653255 0.751272 -2.44969)
(-0.0613321 1.08383 -2.43487)
(0.285748 1.63177 -2.25347)
(1.23456 1.79592 -1.14237)
(0.865665 0.898179 -1.2855)
(0.945154 0.835881 -1.11515)
(1.43268 0.0982344 -1.10632)
(1.35172 -0.375735 -1.0404)
(1.06537 -0.669269 -0.942859)
(0.976229 -1.52974 -0.795234)
(0.519543 -1.89723 -0.866371)
(0.297737 -1.53057 -0.336952)
(0.252048 -1.853 -0.323572)
(0.43507 -1.87145 -0.19023)
(0.727262 -1.70656 -0.482476)
(2.11367 0.343111 2.24884)
(2.1312 0.19664 2.56502)
(2.09068 0.330793 2.45841)
(2.17995 0.260926 2.62484)
(2.20956 0.466885 2.50096)
(2.19634 0.511727 2.3943)
(2.31487 0.214032 2.65845)
(2.18764 0.272554 2.59776)
(2.16319 0.446402 2.59807)
(2.29077 0.380414 2.49154)
(2.54619 0.242941 2.72858)
(2.39688 0.248742 2.76628)
(2.32921 0.17179 2.71516)
(2.47602 0.157323 2.51096)
(2.3536 0.394925 2.51682)
(2.62042 -0.0563668 2.95493)
(2.6169 0.0636131 2.78862)
(2.53096 0.294702 2.91632)
(2.65583 0.220307 2.52692)
(2.51685 0.450179 2.52134)
(2.64503 -0.235427 3.10433)
(2.61557 -0.0563342 3.02069)
(2.64672 0.15472 2.96784)
(2.61686 0.35721 2.77382)
(2.61083 0.295878 2.6698)
(2.61332 0.257152 2.33007)
(2.57824 -0.574225 3.32982)
(2.54746 -0.2542 3.19899)
(2.74936 -0.0848402 3.08685)
(2.66936 0.225143 2.93036)
(2.86854 0.194834 2.7429)
(2.64774 0.5421 2.64659)
(2.6211 0.437863 2.36118)
(2.84091 -0.486278 3.3566)
(2.7892 -0.304603 3.20416)
(2.5165 -0.396857 3.20779)
(2.81766 -0.0567111 3.09991)
(3.04914 0.23625 2.79859)
(2.60546 0.688931 2.62342)
(2.66873 -0.0251918 2.43915)
(2.81589 0.252879 2.09623)
(2.79413 -0.719652 3.27181)
(2.97239 -0.303676 3.27207)
(2.84426 0.0478566 3.18348)
(2.81077 -0.0632835 3.07627)
(2.89812 0.221285 2.95474)
(2.88913 0.477404 2.63539)
(2.88945 0.391598 2.54732)
(2.68388 0.255107 2.185)
(2.91108 -0.897655 3.33273)
(2.96564 -0.584138 3.22882)
(2.87818 -0.1283 3.32277)
(2.66781 -0.0389793 2.91921)
(2.77612 -0.145361 2.80297)
(2.82689 0.362509 2.71355)
(2.90069 0.348823 2.38804)
(2.94881 0.395736 2.20848)
(2.77393 0.27548 2.07303)
(2.63503 -0.782117 2.86148)
(2.86444 -0.419176 2.92167)
(2.91712 0.270497 3.40304)
(2.87387 0.156618 3.27871)
(2.93335 -0.673103 2.40195)
(3.04844 0.517894 1.87211)
(2.9936 0.626167 1.9419)
(2.96803 0.579639 2.02557)
(2.77727 0.410784 2.00192)
(2.81535 0.229262 2.05839)
(1.96363 -0.176888 2.68443)
(2.19043 -0.0639089 2.84968)
(2.34049 0.19436 3.00505)
(2.85118 -0.0991004 2.79838)
(2.65145 0.135014 2.14433)
(2.49762 0.553712 1.90894)
(2.65848 0.484175 1.87494)
(2.98314 0.322776 1.63052)
(3.05795 0.213894 1.5826)
(2.96306 -0.130618 1.53586)
(3.26479 -0.413751 0.906814)
(0.59751 0.00403183 1.16074)
(0.696157 0.098239 1.27813)
(0.91828 0.798279 2.20839)
(1.64257 1.55865 2.18244)
(1.73587 -0.149727 2.6318)
(2.72449 0.172654 0.859179)
(2.71674 0.259912 0.866653)
(2.80852 0.205621 0.686052)
(2.79608 -0.00899202 0.69107)
(3.08504 -0.351463 0.631266)
(2.86867 -0.917304 0.76667)
(2.79301 -0.550905 1.21365)
(-0.780634 0.263258 0.356907)
(-0.855744 0.462909 0.0376399)
(-0.203715 1.50833 0.248991)
(0.69851 2.01335 0.222027)
(2.27055 1.31978 -0.446441)
(2.17115 0.270462 -0.529783)
(2.25248 0.221254 -0.454309)
(2.42935 0.0242401 -0.361302)
(2.66129 -0.156462 0.0354692)
(2.71227 -0.613745 0.997771)
(2.9617 -0.637294 0.847007)
(2.73146 -1.22103 1.04515)
(2.76735 -0.925583 1.03583)
(-1.56202 0.212254 -0.661884)
(-1.00237 0.832443 -1.0426)
(-0.540617 1.66379 -0.535713)
(0.535543 2.09449 -0.426144)
(1.58836 1.70823 -0.775392)
(1.43716 0.815548 -0.528203)
(1.52298 0.527672 -1.19742)
(2.07883 -0.203926 -0.835249)
(2.35267 -0.288042 0.0354394)
(2.77996 -0.849586 -0.0508686)
(2.73166 -0.98148 0.709067)
(2.58512 -1.23476 0.785046)
(2.65362 -1.23443 0.234669)
(2.79045 -1.08788 0.126604)
(-1.60771 0.267455 -1.46881)
(-1.3802 0.809351 -1.76748)
(-1.05442 1.51106 -1.7647)
(0.22712 2.29671 -1.24047)
(1.23584 1.9534 -0.823885)
(1.11326 0.836524 -0.953258)
(1.23664 0.367116 -1.2124)
(1.44597 -0.0811875 -1.18672)
(2.07125 -0.419731 -0.277516)
(2.39838 -0.62351 -0.251725)
(1.94123 -1.5234 -0.232862)
(1.98803 -1.58921 0.0753282)
(2.58352 -1.67036 0.26002)
(2.31959 -1.71341 0.198378)
(1.97942 -1.64832 0.0771389)
(-0.602622 0.320036 -2.16716)
(-1.01614 0.624478 -1.98251)
(-0.533279 1.2309 -2.20899)
(0.0828941 2.01117 -1.85931)
(1.11536 2.03555 -0.903998)
(0.926856 0.954501 -1.06651)
(0.965213 0.78834 -1.10287)
(1.44119 0.000721587 -1.07362)
(1.81824 -0.415066 -0.702384)
(1.84389 -0.674746 -0.561061)
(1.48559 -1.64389 -0.402828)
(1.2839 -2.14624 -0.287764)
(1.29278 -2.42088 -0.0656384)
(1.22936 -2.06977 -0.295184)
(1.24421 -1.80283 -0.120368)
(1.5887 -1.56256 -0.26117)
(-0.616208 0.344553 -2.54135)
(-0.624157 0.785486 -2.43699)
(-0.0762633 1.03165 -2.43481)
(0.278532 1.65537 -2.21496)
(1.24162 1.79513 -1.11191)
(0.854029 0.877961 -1.30136)
(0.962064 0.843142 -1.11114)
(1.43712 0.081501 -1.11894)
(1.34468 -0.37087 -1.07983)
(1.04995 -0.667178 -0.951233)
(0.968634 -1.54345 -0.795516)
(0.520759 -1.92955 -0.837859)
(0.346174 -1.56129 -0.317991)
(0.286215 -1.76234 -0.22677)
(0.438681 -1.78019 -0.13083)
(0.726522 -1.68961 -0.428107)
(1.3628 -1.60711 -0.842118)
(1.83822 0.348004 2.13795)
(2.08707 0.290436 2.26969)
(2.0116 0.345148 2.33601)
(2.04661 0.305152 2.60663)
(2.16348 0.256098 2.38474)
(2.12112 0.614977 2.2175)
(2.13408 0.281764 2.58746)
(2.15056 0.359565 2.56971)
(2.19668 0.297328 2.40212)
(2.23623 0.322135 2.35539)
(2.30878 0.101505 2.67328)
(2.23721 0.186753 2.6226)
(2.16106 0.374997 2.60981)
(2.26248 0.227222 2.52867)
(2.09903 0.544489 2.57463)
(2.5036 -0.0503216 2.86493)
(2.39719 0.196802 2.78806)
(2.40394 0.11497 2.70127)
(2.52106 -0.0371867 2.4898)
(2.2688 0.356154 2.5703)
(2.44114 0.249218 2.3977)
(2.47065 -0.351366 3.03119)
(2.70109 -0.20336 2.79764)
(2.49878 0.145587 2.92276)