/*--------------------------------*- C++ -*----------------------------------*\
  =========                 |
  \\      /  F ield         | OpenFOAM: The Open Source CFD Toolbox
   \\    /   O peration     | Website:  https://openfoam.org
    \\  /    A nd           | Version:  7
     \\/     M anipulation  |
\*---------------------------------------------------------------------------*/
FoamFile
{
    version     2.0;
    format      ascii;
    class       volVectorField;
    location    "2.5";
    object      U_0;
}
// * * * * * * * * * * * * * * * * * * * * * * * * * * * * * * * * * * * * * //

dimensions      [0 1 -1 0 0 0 0];

internalField   nonuniform List<vector> 
18780
(
(-0.819542 0.108219 -2.55865)
(-1.21494 0.241592 -1.68733)
(-0.821322 0.111775 -2.55325)
(-0.810573 0.616776 -2.45259)
(-1.28747 0.221493 -0.969116)
(-1.1924 0.18596 -1.70649)
(-0.974972 0.597531 -1.93394)
(-0.820184 0.131896 -2.54862)
(-0.817861 0.640428 -2.44957)
(-0.0863204 0.9742 -2.55937)
(-0.459882 0.515316 -0.476431)
(-1.31329 0.146747 -0.984265)
(-1.15834 0.722928 -1.40603)
(-1.19934 0.156766 -1.7227)
(-1.01359 0.617416 -1.93113)
(-0.585766 1.01738 -2.33612)
(-0.817813 0.157841 -2.54325)
(-0.815938 0.642435 -2.45024)
(-0.0908824 1.00458 -2.54698)
(0.153811 1.54596 -2.31906)
(-0.0288282 0.430727 0.397182)
(-0.541205 0.489113 -0.480064)
(-0.635835 0.406503 -1.24204)
(-1.32315 0.310281 -0.981958)
(-1.23767 0.733137 -1.38256)
(-0.994584 1.32437 -1.61872)
(-1.22483 0.127418 -1.74188)
(-1.03346 0.589855 -1.95766)
(-0.593127 1.02767 -2.32594)
(0.0145845 2.06667 -1.78543)
(-0.808154 0.209644 -2.53602)
(-0.801636 0.675316 -2.44287)
(-0.0866882 1.02603 -2.53957)
(0.156343 1.52618 -2.33213)
(1.17798 1.8696 -1.26606)
(0.753839 0.638297 1.4656)
(-0.0709188 0.383768 0.46122)
(0.0459078 0.77918 -0.284497)
(-0.617891 0.461047 -0.467561)
(-0.650838 0.36552 -1.25765)
(-0.476572 1.6177 -0.754593)
(-1.43188 0.384133 -0.886509)
(-1.19233 0.604999 -1.52728)
(-0.96106 1.29865 -1.66743)
(0.151961 2.4049 -1.07078)
(-1.22912 0.125187 -1.78184)
(-1.04331 0.582688 -1.99625)
(-0.592794 1.05549 -2.32952)
(0.00530098 2.15045 -1.70979)
(0.966221 2.00112 -1.18309)
(-0.772366 0.2579 -2.52494)
(-0.786186 0.701152 -2.43642)
(-0.0847036 1.05155 -2.53735)
(0.167371 1.55507 -2.30939)
(1.1768 1.86839 -1.25763)
(0.941107 1.01955 -1.13403)
(2.41101 0.438103 1.90272)
(0.880626 0.63647 1.46239)
(0.530841 0.973914 2.0844)
(-0.105152 0.367077 0.512653)
(0.0621628 0.776054 -0.0647321)
(0.0535823 1.95069 1.48673)
(-0.683909 0.439393 -0.476285)
(-0.71717 0.389051 -1.26055)
(-0.503244 1.5763 -0.738107)
(0.402241 2.39698 -0.918156)
(-1.43304 -0.0140297 -1.11626)
(-1.27864 0.746152 -1.4722)
(-1.00964 1.32973 -1.68632)
(0.242311 2.36584 -1.07852)
(1.06941 2.27528 -0.717519)
(-1.21869 0.0994357 -1.82732)
(-1.05525 0.678811 -2.00992)
(-0.582495 1.10034 -2.36779)
(0.0132768 2.13461 -1.74556)
(0.965553 2.04969 -1.1869)
(1.10193 1.1752 -0.811593)
(-0.767382 0.256463 -2.52752)
(-0.788219 0.687547 -2.43861)
(-0.0793645 1.08257 -2.5358)
(0.160334 1.56901 -2.30035)
(1.2019 1.89608 -1.21366)
(0.927112 1.0324 -1.13586)
(0.958565 0.820077 -1.06891)
(2.93357 0.326455 2.85002)
(2.65243 0.228528 1.72043)
(1.84445 0.874274 2.25397)
(0.949321 0.617479 1.44928)
(0.581619 0.964754 1.987)
(0.240224 2.10246 1.74928)
(-0.161686 0.317852 0.513305)
(0.0925615 0.734573 0.0367079)
(-0.0256881 1.80091 1.61297)
(0.934575 2.69301 -0.197672)
(-0.779462 0.403473 -0.458443)
(-0.822134 0.411602 -1.21237)
(-0.54836 1.51811 -0.893625)
(0.457712 2.45497 -0.801291)
(1.26891 2.39238 0.20328)
(-1.54409 0.327572 -0.921241)
(-1.26053 0.840136 -1.50062)
(-1.05025 1.354 -1.7848)
(0.253363 2.48052 -1.01447)
(1.03856 2.33028 -0.714126)
(1.57967 1.58835 -0.290446)
(-1.19392 0.10496 -1.88361)
(-1.07942 0.690098 -2.03408)
(-0.583013 1.18772 -2.3558)
(-0.0135125 2.05396 -1.86164)
(0.985142 2.12405 -1.07388)
(1.08691 1.14805 -0.874607)
(0.89072 1.04367 -0.825799)
(-0.76041 0.27043 -2.53049)
(-0.774665 0.72497 -2.43666)
(-0.0677094 1.11408 -2.5393)
(0.164385 1.52977 -2.33509)
(1.21562 1.91186 -1.1821)
(0.920458 1.00283 -1.16235)
(0.959837 0.824247 -1.06325)
(1.43822 0.130011 -1.06066)
(3.02996 0.368894 3.39343)
(2.84221 0.277204 2.98007)
(2.91158 0.776182 2.69611)
(2.60157 0.298936 1.7815)
(1.98178 0.767288 2.17822)
(2.336 1.47534 2.04584)
(0.992306 0.492912 1.30178)
(0.729844 1.01165 1.9027)
(0.292929 1.96117 1.84864)
(1.31906 1.31843 2.36746)
(-0.210371 0.215979 0.479471)
(0.0387757 0.735441 0.1386)
(-0.017175 1.88187 1.60695)
(0.958435 2.60378 0.160864)
(1.80036 2.24332 0.438075)
(-0.890567 0.399141 -0.399377)
(-0.86923 0.421134 -1.13289)
(-0.532588 1.42613 -1.23209)
(0.518014 2.50759 -0.801451)
(1.34968 2.47611 0.159634)
(1.64903 1.79958 0.0439807)
(-1.48625 0.328148 -0.950978)
(-1.2708 0.74548 -1.59985)
(-1.01984 1.37636 -1.79553)
(0.310382 2.51581 -1.06394)
(1.05924 2.36289 -0.555697)
(1.53773 1.51328 -0.401606)
(1.46014 0.640661 -0.213665)
(-1.24552 0.0915672 -1.89147)
(-1.11374 0.593202 -2.0772)
(-0.58327 1.16559 -2.38713)
(-0.0263795 2.01596 -1.94029)
(1.02955 2.20863 -0.8952)
(1.08031 1.11724 -0.922196)
(0.904974 1.00165 -0.83258)
(1.4113 0.0886307 -0.845989)
(-0.750106 0.267569 -2.53093)
(-0.750483 0.732349 -2.43718)
(-0.0561933 1.12811 -2.53928)
(0.16759 1.55259 -2.33725)
(1.19797 1.91942 -1.11884)
(0.90639 0.973411 -1.20875)
(0.95221 0.819141 -1.07255)
(1.43777 0.0681261 -1.08261)
(1.38524 -0.48576 -0.999926)
(2.67697 0.7815 3.37589)
(2.79784 0.350565 3.20376)
(2.95153 0.377943 3.34047)
(2.99499 0.0970148 3.32345)
(2.79035 0.527111 3.04297)
(3.00089 0.445239 2.82493)
(2.7775 1.10342 2.42806)
(2.55685 0.145674 1.74644)
(2.13447 0.737779 2.10027)
(2.38768 1.08861 2.16123)
(2.19957 2.16156 1.31311)
(1.08553 0.201193 1.12895)
(0.642888 0.828774 1.84664)
(0.328034 1.91393 1.86863)
(1.35401 1.35165 2.27536)
(2.01394 1.68708 0.752814)
(-0.284149 0.145337 0.494668)
(0.0181581 0.676955 0.0970892)
(-0.0902484 1.82892 1.06604)
(0.927577 2.58698 0.327954)
(1.97155 2.19228 0.220326)
(1.86999 1.81605 0.523767)
(-0.942519 0.359398 -0.491065)
(-1.0712 0.515007 -0.927994)
(-0.619981 1.5174 -1.06007)
(0.581754 2.4762 -0.911023)
(1.38649 2.40613 0.127421)
(1.6386 1.70672 -0.209809)
(1.8322 0.949743 -0.178764)
(-1.50589 0.325139 -0.975018)
(-1.39374 0.652604 -1.58427)
(-1.03685 1.41668 -1.72335)
(0.353281 2.50419 -1.06779)
(1.11513 2.31213 -0.531049)
(1.51659 1.39923 -0.535272)
(1.47237 0.526196 -0.318729)
(1.29293 0.332878 -0.610163)
(-1.126 0.182006 -1.97284)
(-1.07699 0.661631 -2.09746)
(-0.58506 1.16925 -2.38256)
(-0.0508742 1.84019 -2.1634)
(1.05504 2.27736 -0.778321)
(1.05734 1.08536 -0.986479)
(0.926866 0.947164 -0.832577)
(1.40005 0.112564 -0.905844)
(1.74049 -0.464255 -0.605442)
(-0.722134 0.29421 -2.53465)
(-0.739882 0.753616 -2.43634)
(-0.0484445 1.1332 -2.52695)
(0.191325 1.55717 -2.33332)
(1.2041 1.89583 -1.14508)
(0.924585 0.980726 -1.19901)
(0.941954 0.808132 -1.0939)
(1.44499 0.160694 -1.08262)
(1.37906 -0.456399 -1.01619)
(1.06432 -0.716956 -0.896685)
(2.7655 0.487924 3.24813)
(2.66078 0.560395 3.40493)
(2.64649 0.777154 3.4555)
(2.76382 0.271578 3.25689)
(2.72464 0.347388 3.2288)
(2.91162 0.475725 3.30954)
(2.9705 0.271692 3.22497)
(2.9803 0.615115 2.8971)
(2.78072 0.5569 3.03936)
(2.91366 0.591267 2.90265)
(2.76472 0.891763 2.54624)
(3.02439 0.828538 1.79052)
(2.45557 0.107888 1.91764)
(2.40277 0.421827 1.9442)
(2.35202 0.886102 2.23319)
(2.28433 2.05704 1.24092)
(2.65853 0.552845 1.59803)
(1.02891 0.140356 1.02429)
(0.85916 0.640414 1.60036)
(0.593733 1.89793 1.96337)
(1.20089 1.52189 2.26252)
(2.16933 1.6574 0.576625)
(2.78409 0.767657 0.207609)
(-0.374017 0.135208 0.464281)
(-0.066038 0.614178 -0.119785)
(-0.145103 1.74789 1.10138)
(0.946664 2.51343 0.568014)
(2.03523 1.9448 0.195081)
(2.16199 1.32436 0.380662)
(2.30635 0.72363 0.579578)
(-1.03555 0.374692 -0.499091)
(-0.881248 0.188205 -1.41945)
(-0.602703 1.5677 -0.597159)
(0.657415 2.37959 -0.799685)
(1.50627 2.21745 -0.124182)
(1.57561 1.60648 -0.412747)
(1.81874 0.828119 -0.517171)
(1.8413 0.385352 -0.360768)
(-1.55773 0.397543 -1.01433)
(-1.40865 0.592212 -1.57331)
(-0.992002 1.58767 -1.55366)
(0.391587 2.61999 -0.975233)
(1.16203 2.28308 -0.56027)
(1.45201 1.28336 -0.726478)
(1.42318 0.608355 -0.281354)
(1.28879 0.278421 -0.75401)
(1.96636 -0.176191 -0.127551)
(-1.24784 0.0752064 -1.93234)
(-1.06279 0.670609 -2.10019)
(-0.588055 1.25627 -2.3155)
(-0.0520406 1.85634 -2.14485)
(1.0875 2.2864 -0.761331)
(1.03448 1.05888 -1.00943)
(0.919013 0.903652 -0.902861)
(1.40469 0.138476 -0.958807)
(1.72787 -0.477413 -0.642967)
(1.84855 -0.728248 -0.352337)
(-0.689914 0.32784 -2.53466)
(-0.736311 0.75438 -2.43571)
(-0.0366565 1.14896 -2.5067)
(0.208246 1.58341 -2.28792)
(1.21375 1.86765 -1.16991)
(0.902971 0.979739 -1.21208)
(0.964114 0.816797 -1.08379)
(1.44247 0.139245 -1.08244)
(1.37531 -0.414567 -1.01434)
(1.06057 -0.709151 -0.897547)
(0.992502 -1.48529 -0.783468)
(2.84556 0.663179 2.83986)
(2.78075 0.390799 3.25114)
(2.88434 0.455321 2.98677)
(2.60271 0.419176 3.42477)
(2.71439 0.515301 3.41595)
(2.69514 0.700199 3.20448)
(2.76915 0.526638 3.32335)
(2.71884 0.263 3.20447)
(2.86295 0.821147 3.31832)
(2.81965 0.135278 3.35053)
(2.94324 0.247985 3.20626)
(2.93732 0.371172 2.92597)
(2.71379 1.07172 2.85103)
(2.66096 0.254701 3.20049)
(2.72467 0.127653 3.15168)
(2.7427 0.795966 2.63671)
(3.06831 0.57876 1.8305)
(2.9959 1.37898 1.58459)
(2.21498 -0.0459726 2.42938)
(2.46252 0.327705 2.17492)
(2.41623 0.619704 2.28433)
(2.46153 1.89533 1.1292)
(2.58351 0.464628 1.68186)
(2.80745 0.420353 1.33777)
(1.14806 0.193453 0.972309)
(0.785381 0.506796 1.40695)
(0.489373 1.7104 2.12609)
(1.18673 1.63804 2.19321)
(2.15613 1.39901 0.65202)
(3.00916 0.589534 0.131254)
(2.75288 0.633087 0.32064)
(-0.45989 0.148111 0.463814)
(-0.10689 0.623809 -0.207316)
(-0.228615 1.64789 0.556416)
(0.903256 2.40783 0.838379)
(2.11708 1.61254 -0.0359508)
(2.24647 0.888149 0.187778)
(2.35978 0.698478 0.253713)
(2.56188 0.225281 -0.0882698)
(-1.08378 0.398394 -0.573824)
(-1.22138 0.552414 -1.10142)
(-0.551151 1.71732 -0.344423)
(0.692438 2.35333 -0.788312)
(1.47649 2.15992 -0.424891)
(1.49775 1.4489 -0.687781)
(1.73224 0.784131 -0.733686)
(1.8546 0.190529 -0.448311)
(2.31451 -0.212892 -0.228582)
(-1.60821 0.306638 -1.06446)
(-1.42827 0.571068 -1.56811)
(-0.97299 1.62684 -1.52929)
(0.386068 2.56019 -1.07854)
(1.14038 2.27602 -0.636646)
(1.43304 1.1725 -0.70785)
(1.42723 0.553674 -0.388411)
(1.29803 0.221977 -0.890582)
(1.99013 -0.265524 -0.240877)
(2.41012 -0.551439 0.0914729)
(-1.06732 0.17304 -2.03668)
(-1.01944 0.724753 -2.0978)
(-0.524107 1.33812 -2.25571)
(0.00626591 2.04631 -1.88668)
(1.08564 2.19044 -0.876873)
(1.0173 1.05909 -1.01595)
(0.93571 0.879331 -0.919846)
(1.41692 0.122828 -1.00571)
(1.72287 -0.519012 -0.655415)
(1.85206 -0.751464 -0.384636)
(1.55534 -1.72285 -0.255437)
(-0.662052 0.333657 -2.53813)
(-0.753225 0.707963 -2.43766)
(-0.0171167 1.15464 -2.49384)
(0.244348 1.66529 -2.1993)
(1.21149 1.84267 -1.18673)
(0.90343 0.960703 -1.23509)
(0.94804 0.822243 -1.09006)
(1.44244 0.129873 -1.08399)
(1.38375 -0.390541 -0.992564)
(1.06227 -0.702234 -0.902639)
(0.995457 -1.49064 -0.79509)
(0.46445 -1.71971 -0.889987)
(2.46151 0.567185 2.69248)
(2.7094 0.460982 2.69801)
(2.75835 0.502193 2.91568)
(2.83003 0.417492 2.81036)
(2.80117 0.395364 3.2059)
(2.85725 0.169801 3.13259)
(2.60677 0.811308 2.89332)
(2.6221 0.263061 3.43077)
(2.67324 0.302012 3.4024)
(2.65512 0.865309 3.26323)
(2.94804 0.242847 2.83151)
(2.89562 0.383472 3.28282)
(2.81038 0.390509 3.19634)
(2.6938 0.615428 3.34065)
(2.81337 1.12794 3.12621)
(2.86509 0.128076 3.27792)
(2.87843 -0.156103 3.31112)
(2.93415 -0.0923525 2.9144)
(2.75474 0.920335 2.85574)
(2.62735 1.16866 2.8184)
(2.65289 0.223524 3.24472)
(3.08305 0.0312201 3.01275)
(2.71131 0.643004 2.69491)
(3.15121 0.134373 1.88706)
(2.99792 1.36121 1.58698)
(2.8933 1.33967 1.79576)
(2.25164 0.0410639 2.59038)
(2.37511 -0.084265 2.53286)
(2.44259 0.756191 2.27901)
(2.59622 1.62868 1.19623)
(2.49867 0.455362 1.64483)
(2.604 0.416388 1.3956)
(2.99546 -0.0193037 1.21708)
(1.04693 0.160729 1.06821)
(1.01446 0.561774 1.29621)
(0.757145 1.42817 2.01498)
(1.17575 1.689 2.10171)
(2.22348 1.02781 0.489042)
(3.00205 0.54137 0.482642)
(2.88026 0.558757 0.344553)
(2.99555 0.375261 0.469572)
(-0.536014 0.249396 0.378191)
(-0.355479 0.558249 -0.0100701)
(-0.165774 1.65787 0.300265)
(0.869982 2.4306 0.795981)
(2.14835 1.33585 -0.0398684)
(2.28702 0.623265 -0.0576998)
(2.26382 0.824773 -0.121969)
(2.5375 0.0855732 -0.321128)
(2.41749 -0.153651 0.380853)
(-1.16859 0.356113 -0.632987)
(-1.08591 0.500464 -1.16929)
(-0.555413 1.7002 -0.532032)
(0.685788 2.37282 -0.745792)
(1.58836 1.98513 -0.472669)
(1.54794 1.2187 -0.63471)
(1.67732 0.569616 -1.01143)
(1.89239 0.069009 -0.478391)
(2.34809 -0.246488 -0.179716)
(2.73965 -0.539999 0.123617)
(-1.6992 0.319684 -1.02784)
(-1.40691 0.665048 -1.59145)
(-1.00336 1.59517 -1.5471)
(0.298224 2.42756 -1.31512)
(1.20192 2.14182 -0.765734)
(1.35864 1.12678 -0.714846)
(1.41301 0.555046 -0.457795)
(1.30998 0.164734 -0.99607)
(2.00789 -0.342477 -0.216852)
(2.42134 -0.595783 0.0144082)
(2.2926 -1.13261 0.272003)
(-0.989752 0.25848 -2.07083)
(-1.00362 0.734066 -2.07865)
(-0.490079 1.35508 -2.25415)
(0.10741 2.12996 -1.76013)
(1.10455 2.11241 -0.895333)
(1.00096 1.03953 -1.06802)
(0.926632 0.866967 -0.96306)
(1.41631 0.109873 -1.03814)
(1.77512 -0.477532 -0.642892)
(1.84635 -0.771718 -0.424141)
(1.55068 -1.61032 -0.246385)
(1.32353 -2.4024 -0.327293)
(-0.649003 0.332159 -2.53956)
(-0.763633 0.684419 -2.44132)
(-0.0105937 1.15645 -2.47599)
(0.259539 1.64408 -2.21839)
(1.20568 1.80719 -1.22099)
(0.907662 0.94885 -1.24843)
(0.942766 0.839513 -1.09078)
(1.43509 0.0931057 -1.09594)
(1.38253 -0.327765 -1.00465)
(1.07934 -0.68691 -0.916193)
(0.997303 -1.49335 -0.80127)
(0.482362 -1.81845 -0.861091)
(0.179077 -1.59381 -0.636025)
(2.30637 0.398497 2.62864)
(2.467 0.482456 2.65715)
(2.34306 0.600808 2.66181)
(2.73222 0.425213 2.74541)
(2.54378 0.485811 2.72616)
(2.76946 0.372078 2.9649)
(2.79271 0.28155 2.85488)
(2.77433 0.381102 2.77831)
(2.76652 0.0777721 3.20585)
(2.89193 0.0862548 3.13454)
(2.78087 0.485637 2.92051)
(2.87338 0.42225 2.61854)
(2.70738 -0.132856 3.39056)
(2.69757 -0.00655407 3.33006)
(2.71697 0.665362 3.24804)
(2.99291 0.214463 2.89968)
(2.63677 0.844058 2.65736)
(2.89114 0.143209 3.29689)
(2.85209 0.100922 3.20653)
(2.6535 0.322155 3.35115)
(2.87539 0.526352 3.26085)
(2.96993 0.915205 2.6549)
(2.91288 -0.320674 3.34456)
(2.95332 -0.107867 3.24601)
(2.8944 -0.14576 2.98677)
(2.78536 0.889371 2.8115)
(2.63129 1.03365 2.87379)
(2.76258 0.883534 2.67645)
(2.70574 -0.0524485 3.14887)
(2.69853 0.108103 3.48388)
(2.64014 0.381836 2.92443)
(3.03452 0.17627 2.03022)
(2.71009 1.56081 1.63322)
(2.97627 1.2363 1.73926)
(2.90269 0.916124 1.94097)
(2.17671 0.0755899 2.71282)
(2.46188 0.049888 2.60541)
(2.33675 0.525259 2.55734)
(2.7159 1.16854 1.49436)
(2.57531 0.694894 1.46129)
(2.55573 0.495811 1.38878)
(2.77375 0.878165 1.57094)
(2.97114 0.543241 1.50668)
(0.991294 0.0213892 1.16451)
(0.960483 0.469796 1.33044)
(0.829089 1.42661 2.03138)
(0.928118 1.58493 2.28976)
(2.10065 0.934163 0.608055)
(2.94083 0.41709 0.350487)
(2.85708 0.619011 0.427082)
(2.99777 0.377311 0.479295)
(3.07182 -0.171829 0.532577)
(-0.543918 0.292918 0.371764)
(-0.476718 0.512936 0.066513)
(-0.155391 1.60941 0.26272)
(0.979854 2.4288 0.669522)
(2.02907 1.33404 0.0493729)
(2.34384 0.414793 -0.412599)
(2.24212 0.415336 -0.234465)
(2.48365 0.0801078 -0.349146)
(2.43467 -0.124015 0.323364)
(2.83136 -0.23439 0.260007)
(-1.31347 0.280314 -0.610416)
(-1.18386 0.460225 -1.05024)
(-0.593763 1.6625 -0.561322)
(0.652786 2.3478 -0.757075)
(1.62804 1.86405 -0.682527)
(1.53041 1.15775 -0.295927)
(1.67997 0.632928 -0.8853)
(1.9841 -0.0285933 -0.567557)
(2.33922 -0.249932 -0.00138852)
(2.74346 -0.709362 -0.162776)
(2.8 -0.876237 0.762531)
(-1.56816 0.242314 -1.39169)
(-1.35452 0.761016 -1.63121)
(-0.973964 1.67669 -1.51611)
(0.280045 2.38541 -1.38005)
(1.25292 2.06885 -0.734816)
(1.31847 0.999856 -0.831072)
(1.38319 0.558659 -0.591076)
(1.3263 0.120119 -1.09417)
(1.97271 -0.498869 -0.275223)
(2.43949 -0.609195 -0.0704173)
(2.38677 -1.18486 0.144401)
(2.31868 -1.54395 0.106706)
(-0.880481 0.289515 -2.1291)
(-0.992866 0.72312 -2.05965)
(-0.493592 1.35925 -2.25251)
(0.0729834 2.07721 -1.82361)
(1.06754 2.10558 -0.923147)
(0.958427 0.973945 -1.15706)
(0.940411 0.809594 -1.02299)
(1.42508 0.0963495 -1.04341)
(1.76955 -0.493214 -0.693272)
(1.84382 -0.768086 -0.436002)
(1.56131 -1.57075 -0.326368)
(1.43874 -2.31805 -0.29943)
(1.25258 -2.56289 -0.548525)
(-0.643678 0.332767 -2.54177)
(-0.764877 0.677745 -2.44622)
(-0.00464317 1.14176 -2.4606)
(0.243467 1.64805 -2.22513)
(1.21272 1.79978 -1.20714)
(0.875626 0.917676 -1.28818)
(0.966815 0.838322 -1.08374)
(1.43574 0.0944649 -1.09653)
(1.35971 -0.382236 -0.981321)
(1.06963 -0.669151 -0.937757)
(0.997172 -1.5127 -0.807296)
(0.503923 -1.87465 -0.861568)
(0.217962 -1.58869 -0.508411)
(0.219562 -1.91775 -0.67533)
(2.27911 0.367838 2.5986)
(2.3095 0.222948 2.62698)
(2.21705 0.537406 2.56053)
(2.57514 0.467079 2.61874)
(2.38378 0.415978 2.70387)
(2.31762 0.581489 2.60362)
(2.71554 0.384969 2.76617)
(2.68037 0.182041 2.7492)
(2.49841 0.594511 2.76477)
(2.71561 0.200495 3.06901)
(2.73971 0.167925 2.86694)
(2.7501 0.303817 2.8869)
(2.5036 0.526076 2.79825)
(2.68329 -0.0845157 3.24078)
(2.88642 0.0894656 3.13043)
(2.77505 0.269858 3.04313)
(2.70921 0.594718 2.77364)
(2.64937 0.703359 2.78823)
(2.80428 -0.18892 3.34153)
(2.76897 -0.343773 3.1772)
(2.65319 0.428834 3.30837)
(3.00663 0.365891 2.9281)
(2.56221 0.668467 2.86648)
(2.69445 0.566504 2.49333)
(2.85138 -0.466573 3.31743)
(2.87954 -0.286663 3.20184)
(2.61205 -0.068515 3.35548)
(2.78315 0.425787 3.30639)
(2.80796 1.15508 2.80124)
(2.96173 0.644571 2.55462)
(2.98748 -0.392908 3.3422)
(2.98279 0.0503537 3.2745)
(2.97032 -0.411286 3.09668)
(2.84751 0.538146 2.7418)
(2.70937 0.659974 2.95638)
(2.8029 0.727517 2.66276)
(2.74835 0.85381 2.42184)
(2.65306 -0.363981 3.06195)
(2.87318 0.163245 3.26988)
(2.85928 -0.0568443 2.99309)
(3.03169 -0.327599 2.36913)
(2.95862 0.704698 1.50173)
(2.85348 1.21786 1.88945)
(2.82718 0.955565 2.09201)
(2.9169 0.69022 1.85731)
(2.19583 0.0170213 2.69141)
(2.29594 -0.0145565 2.78429)
(2.34956 0.307596 2.76564)
(2.84266 0.438795 2.15204)
(2.5224 0.799837 1.64753)
(2.50605 0.739579 1.72907)
(2.85705 0.569473 1.51501)
(2.82344 0.509226 1.75758)
(3.04087 0.117454 1.41757)
(0.838672 -0.0235657 1.26371)
(0.927078 0.331813 1.38992)
(0.972172 1.17912 2.15004)
(1.19706 1.51557 2.27379)
(1.96919 0.924926 0.813485)
(2.84843 0.43063 0.351462)
(2.81991 0.405133 0.336959)
(2.89236 0.361199 0.513016)
(3.01036 -0.0987925 0.693161)
(3.10213 -0.265483 0.77353)
(-0.631678 0.28883 0.375456)
(-0.557625 0.530919 -0.0815925)
(-0.132538 1.55836 0.351311)
(0.95063 2.30585 1.00008)
(2.15027 1.30634 -0.0845943)
(2.24843 0.373776 -0.769755)
(2.18714 0.409566 -0.195514)
(2.51309 -0.0700263 -0.430705)
(2.57358 0.0617883 0.100463)
(2.81444 -0.135115 0.63421)
(2.77376 -1.02929 0.877212)
(-1.31837 0.32187 -0.719559)
(-1.11491 0.618401 -1.03156)
(-0.568266 1.63448 -0.55984)
(0.65777 2.25898 -0.435083)
(1.67784 1.83775 -0.684053)
(1.48538 1.0115 -0.45135)
(1.62594 0.589208 -1.15956)
(1.97813 -0.0146839 -0.67541)
(2.31669 -0.251211 0.0940543)
(2.77824 -0.722427 -0.173788)
(2.7602 -0.996081 0.74264)
(2.67802 -1.16754 0.494944)
(-1.8978 0.237076 -1.04846)
(-1.38802 0.708452 -1.68128)
(-1.04748 1.5872 -1.63977)
(0.227701 2.34977 -1.34796)
(1.21042 2.136 -0.706145)
(1.23473 0.901406 -0.972579)
(1.33685 0.479461 -0.789529)
(1.36408 0.0357538 -1.1488)
(2.04469 -0.342899 -0.197013)
(2.42813 -0.654363 -0.106349)
(1.92272 -1.69291 -0.142021)
(2.27259 -1.54915 -0.00943295)
(2.33165 -1.80931 0.374203)
(-0.850628 0.271356 -2.10839)
(-1.04077 0.650895 -2.01768)
(-0.482285 1.31631 -2.25455)
(0.0589681 2.0144 -1.89434)
(1.11355 2.06507 -0.918735)
(0.953659 0.966875 -1.10611)
(0.924433 0.822313 -1.06137)
(1.44651 0.0699387 -1.04522)
(1.79115 -0.431538 -0.694209)
(1.83197 -0.75768 -0.454838)
(1.52223 -1.61346 -0.33729)
(1.22616 -2.35919 -0.437198)
(1.32582 -2.56971 -0.347406)
(1.28525 -1.67358 -0.205168)
(-0.637455 0.331745 -2.54301)
(-0.706723 0.732761 -2.44211)
(-0.0131879 1.1089 -2.44608)
(0.263434 1.64299 -2.24548)
(1.22139 1.79357 -1.18666)
(0.878456 0.904437 -1.28568)
(0.959478 0.840931 -1.08779)
(1.43874 0.0931548 -1.09977)
(1.35089 -0.379874 -0.996403)
(1.06996 -0.675549 -0.928066)
(0.975098 -1.53785 -0.795153)
(0.510401 -1.89624 -0.879862)
(0.252525 -1.55356 -0.404375)
(0.230954 -1.91039 -0.496917)
(0.418573 -1.99834 -0.296917)
(2.1132 0.244264 2.54187)
(2.23718 0.361546 2.6299)
(2.18922 0.648543 2.48465)
(2.32688 0.210347 2.6131)
(2.21777 0.342856 2.58676)
(2.2074 0.561615 2.54792)
(2.59715 0.319204 2.69892)
(2.38308 0.18758 2.74458)
(2.33598 0.358828 2.66825)
(2.43005 0.340503 2.51781)
(2.66362 0.0871882 2.86694)
(2.67528 0.155821 2.78237)
(2.47489 0.529768 2.81681)
(2.59464 0.412425 2.58124)
(2.63772 -0.063777 3.09555)
(2.7915 -0.0344982 2.87196)
(2.66564 0.300669 2.93551)
(2.62959 0.350854 2.74133)
(2.64138 0.330315 2.58413)
(2.60446 -0.374831 3.30023)
(2.71452 -0.12233 3.16518)
(2.87203 0.180325 3.02209)
(2.74067 0.288864 2.81564)
(2.71452 0.554578 2.79586)
(2.64954 0.502958 2.56235)
(2.88847 -0.329216 3.33062)
(2.62734 -0.364473 3.25034)
(2.4088 -0.231804 3.43666)
(2.9186 0.0812424 3.03916)
(2.95145 0.57582 2.73199)
(2.6225 0.684856 2.49197)
(2.74737 0.314071 2.40384)
(2.8788 -0.376613 3.31216)
(2.95976 -0.101993 3.26244)
(2.50877 -0.114789 3.37019)
(2.91388 0.129784 3.12429)
(2.82375 0.66353 2.90523)
(2.94306 0.716772 2.58579)
(2.75787 0.225099 2.52846)
(2.95734 -0.560033 3.32835)
(2.98212 -0.163746 3.29301)
(2.85726 0.0770427 3.30125)
(2.81512 0.133968 2.78082)
(2.7436 0.517554 2.87899)
(2.83907 0.520844 2.67986)
(2.85772 0.625716 2.41106)
(2.89942 0.345224 2.20948)
(2.62505 -0.633582 2.97971)
(2.89826 -0.0343048 3.07095)
(2.67233 0.15355 3.52463)
(2.91758 -0.190781 2.92424)
(2.91945 0.470418 1.69495)
(3.06418 0.57556 1.88684)
(2.87283 0.880562 2.00459)
(2.93826 0.707042 1.9439)
(2.70763 0.425177 2.02138)
(2.2126 -0.020813 2.68773)
(2.21271 -0.177593 2.80866)
(2.49038 0.247151 2.7701)
(2.72763 0.0812957 2.64615)
(2.7168 0.35337 1.81564)
(2.4771 0.751102 1.8672)
(2.85072 0.412291 1.61482)
(2.88966 0.417907 1.68581)
(3.01534 0.190423 1.50319)
(3.05067 -0.122382 1.59149)
(0.727314 -0.0552016 1.19328)
(0.796701 0.159901 1.41291)
(0.911887 0.990014 2.19373)
(1.42555 1.73058 2.02021)
(1.87461 0.44244 1.5609)
(2.83194 0.432276 0.608898)
(2.79066 0.270227 0.420364)
(2.86092 0.158023 0.415515)
(2.87606 -0.0738191 0.692832)
(3.09975 -0.344658 0.52798)
(2.8061 -0.58983 0.959596)
(-0.703622 0.289638 0.2145)
(-0.720793 0.526236 0.0308262)
(-0.151541 1.54256 0.320742)
(0.807372 2.14738 0.330903)
(2.18454 1.63286 -0.550491)
(2.23661 0.301595 -0.707574)
(2.25686 0.268053 -0.351663)
(2.4988 -0.0503362 -0.291249)
(2.61056 -0.17619 0.348765)
(2.87651 -0.405682 0.540126)
(3.004 -0.585154 0.721864)
(2.66084 -1.43544 1.1125)
(-1.43526 0.268133 -0.689025)
(-1.24643 0.573732 -0.982633)
(-0.73522 1.45818 -0.6732)
(0.567569 2.16449 -0.373027)
(1.74646 1.8066 -0.739858)
(1.49893 0.879992 -0.552033)
(1.57172 0.544538 -1.16706)
(1.98258 -0.714438 -0.431567)
(2.29899 -0.280315 0.0553051)
(2.83337 -0.50354 -0.0173403)
(2.72073 -1.01796 0.710346)
(2.69808 -1.17295 0.382232)
(2.77364 -0.802809 0.429919)
(-1.60465 0.257696 -1.40601)
(-1.33749 0.818739 -1.73461)
(-1.05244 1.50837 -1.72716)
(0.346359 2.37888 -1.17518)
(1.32759 1.99405 -0.752413)
(1.18746 0.878739 -0.907126)
(1.3181 0.425731 -0.948343)
(1.40781 -0.0237151 -1.18415)
(2.09965 -0.281001 -0.197318)
(2.41843 -0.619965 -0.209855)
(2.30508 -0.87503 0.0322663)
(2.20069 -1.60084 0.0955714)
(2.54964 -1.42787 0.219502)
(2.37382 -1.51067 0.172347)
(-0.626233 0.335668 -2.16532)
(-1.03739 0.61523 -1.99153)
(-0.517635 1.26614 -2.22682)
(0.064824 1.98642 -1.90999)
(1.08651 2.06718 -0.913352)
(0.95429 0.966487 -1.06006)
(0.973102 0.83018 -1.02547)
(1.45603 0.0353182 -1.05691)
(1.8033 -0.440977 -0.703712)
(1.83649 -0.730333 -0.492546)
(1.50232 -1.61283 -0.364026)
(1.28048 -2.18506 -0.31594)
(1.05359 -2.66574 0.0927526)
(1.26177 -1.84506 -0.149057)
(1.25751 -1.77318 -0.147524)
(-0.625216 0.341178 -2.5427)
(-0.639371 0.755809 -2.44804)
(-0.0781465 1.0574 -2.43366)
(0.286004 1.63027 -2.25043)
(1.23521 1.79396 -1.14896)
(0.873141 0.898973 -1.28484)
(0.949119 0.836042 -1.11242)
(1.43383 0.0941272 -1.10393)
(1.35463 -0.375303 -1.02418)
(1.06639 -0.671108 -0.941718)
(0.976252 -1.53482 -0.796217)
(0.510217 -1.9016 -0.86841)
(0.289552 -1.53306 -0.338166)
(0.241357 -1.85545 -0.33197)
(0.425281 -1.87629 -0.197852)
(0.725038 -1.70838 -0.494515)
(2.11215 0.340915 2.25096)
(2.13077 0.195228 2.56398)
(2.09099 0.334193 2.45729)
(2.18083 0.261195 2.62553)
(2.21159 0.46963 2.49796)
(2.19877 0.51071 2.39331)
(2.31459 0.214063 2.65721)
(2.18733 0.272343 2.59884)
(2.16559 0.445185 2.59783)
(2.291 0.38349 2.49256)
(2.54706 0.243524 2.72734)
(2.39604 0.242329 2.76725)
(2.33185 0.169654 2.71338)
(2.47493 0.16047 2.51204)
(2.35738 0.393818 2.51651)
(2.62203 -0.061248 2.95423)
(2.61711 0.0621925 2.78882)
(2.53113 0.295896 2.91707)
(2.6567 0.217553 2.52533)
(2.52063 0.448297 2.52104)
(2.64755 -0.236551 3.10319)
(2.6183 -0.0557587 3.01896)
(2.64742 0.148936 2.96888)
(2.61805 0.354221 2.77167)
(2.61217 0.292932 2.66973)
(2.61501 0.255953 2.32481)
(2.5739 -0.58198 3.32997)
(2.55445 -0.255694 3.19468)
(2.75259 -0.080037 3.08827)
(2.67376 0.219885 2.9249)
(2.8693 0.19503 2.74495)
(2.64846 0.53768 2.64222)
(2.62392 0.43831 2.35917)
(2.84181 -0.484665 3.35636)
(2.77825 -0.317646 3.20544)
(2.51306 -0.39919 3.21439)
(2.8323 -0.0565913 3.0951)
(3.04798 0.250469 2.79485)
(2.60542 0.684988 2.61702)
(2.6734 -0.0198112 2.43728)
(2.81433 0.251895 2.09838)
(2.79392 -0.724296 3.27361)
(2.9718 -0.309394 3.27406)
(2.83295 0.0454996 3.1894)
(2.81837 -0.0688885 3.07535)
(2.89889 0.231468 2.95572)
(2.89722 0.473829 2.63225)
(2.88347 0.386484 2.55011)
(2.68338 0.254043 2.185)
(2.90693 -0.916046 3.32841)
(2.966 -0.57623 3.22929)
(2.8687 -0.134175 3.32917)
(2.67267 -0.0602242 2.90987)
(2.77571 -0.13564 2.81333)
(2.83368 0.357464 2.71005)
(2.90311 0.350409 2.38349)
(2.94903 0.392976 2.2105)
(2.7684 0.286365 2.07535)
(2.63183 -0.794982 2.86217)
(2.85984 -0.408378 2.93213)
(2.91349 0.264185 3.41364)
(2.87304 0.119561 3.26964)
(2.94651 -0.663277 2.35549)
(3.05093 0.516761 1.8751)
(2.99153 0.641119 1.94248)
(2.96933 0.580053 2.02525)
(2.77179 0.40468 2.00561)
(2.82403 0.226058 2.05937)
(1.96249 -0.181037 2.69073)
(2.1808 -0.071787 2.84863)
(2.33357 0.180349 3.00203)
(2.84226 -0.108896 2.79269)
(2.64616 0.137377 2.13015)
(2.50115 0.562895 1.89905)
(2.66971 0.479409 1.86715)
(2.9923 0.320625 1.61812)
(3.06393 0.203772 1.57926)
(2.9675 -0.149672 1.54252)
(3.30162 -0.394812 0.835026)
(0.5926 -0.00115369 1.15629)
(0.691982 0.0982754 1.26852)
(0.909845 0.80166 2.2028)
(1.62958 1.58255 2.17017)
(1.74817 -0.149017 2.60822)
(2.74334 0.1798 0.822163)
(2.72047 0.25718 0.84767)
(2.81447 0.194035 0.67506)
(2.79973 -0.0234809 0.686342)
(3.08972 -0.361434 0.615686)
(2.85736 -0.92664 0.774363)
(2.78945 -0.533832 1.2199)
(-0.778749 0.262378 0.354832)
(-0.854728 0.46204 0.0333576)
(-0.203254 1.50845 0.242976)
(0.699717 2.0151 0.219472)
(2.27265 1.35117 -0.475427)
(2.17561 0.271388 -0.539364)
(2.25358 0.225122 -0.464096)
(2.43183 0.0155624 -0.37388)
(2.65754 -0.161717 0.0442668)
(2.71333 -0.615255 0.984129)
(2.95477 -0.661717 0.845936)
(2.72319 -1.23387 1.04414)
(2.76365 -0.942548 1.03591)
(-1.56434 0.209145 -0.661007)
(-0.995053 0.842126 -1.04859)
(-0.549852 1.65887 -0.553615)
(0.536458 2.09858 -0.428287)
(1.57979 1.73389 -0.777638)
(1.44508 0.825193 -0.515105)
(1.52888 0.526838 -1.18974)
(2.07183 -0.213913 -0.821042)
(2.34623 -0.299186 0.0337085)
(2.77701 -0.841762 -0.0557294)
(2.7287 -0.994591 0.71193)
(2.58176 -1.24852 0.795063)
(2.65186 -1.25433 0.226207)
(2.80236 -1.05637 0.140208)
(-1.60587 0.267385 -1.46988)
(-1.38553 0.805432 -1.76533)
(-1.06215 1.49552 -1.77835)
(0.220213 2.28868 -1.25367)
(1.23655 1.96377 -0.818576)
(1.12445 0.838581 -0.942901)
(1.24188 0.373782 -1.19147)
(1.4422 -0.0781254 -1.18656)
(2.07091 -0.416636 -0.275261)
(2.39809 -0.629414 -0.246688)
(1.97133 -1.47867 -0.209847)
(1.99469 -1.59599 0.0862249)
(2.59811 -1.64993 0.265517)
(2.31837 -1.70074 0.197857)
(1.97784 -1.63883 0.0661488)
(-0.600229 0.315971 -2.16538)
(-1.00666 0.623412 -1.98171)
(-0.527969 1.21952 -2.20553)
(0.0882654 2.0033 -1.86059)
(1.12025 2.03552 -0.902438)
(0.937381 0.956757 -1.05988)
(0.96998 0.790379 -1.09508)
(1.44146 0.00340031 -1.06967)
(1.81488 -0.424363 -0.704465)
(1.84387 -0.689946 -0.551205)
(1.48397 -1.65322 -0.391115)
(1.29657 -2.14623 -0.278096)
(1.29064 -2.42641 -0.0729012)
(1.22915 -2.04537 -0.278413)
(1.23809 -1.80983 -0.124226)
(1.58806 -1.55505 -0.283453)
(-0.605508 0.342022 -2.54309)
(-0.621647 0.789027 -2.43341)
(-0.0769532 1.0173 -2.43346)
(0.28221 1.64355 -2.21791)
(1.24286 1.79362 -1.11833)
(0.861656 0.879029 -1.30038)
(0.965721 0.84359 -1.10855)
(1.43962 0.0789451 -1.11527)
(1.33819 -0.382263 -1.07467)
(1.05301 -0.670275 -0.949773)
(0.963038 -1.55048 -0.790296)
(0.508646 -1.92472 -0.84681)
(0.334584 -1.55947 -0.319408)
(0.273162 -1.76724 -0.230795)
(0.431262 -1.78289 -0.137706)
(0.716171 -1.6927 -0.429166)
(1.36986 -1.6364 -0.823854)
(1.83999 0.347195 2.13751)
(2.08922 0.289345 2.26896)
(2.01133 0.345431 2.33645)
(2.048 0.302543 2.60534)
(2.16331 0.257974 2.38412)
(2.12228 0.615587 2.21662)
(2.13457 0.278014 2.58928)
(2.15244 0.359165 2.56869)
(2.19687 0.298657 2.40228)
(2.23381 0.321155 2.35719)
(2.30934 0.0980167 2.67235)
(2.23679 0.18331 2.62249)
(2.16219 0.372688 2.61131)
(2.26361 0.229385 2.52892)
(2.10317 0.53971 2.57367)
(2.50422 -0.0518791 2.86283)
(2.39587 0.198174 2.78804)
(2.40658 0.109713 2.69989)
(2.52073 -0.0360965 2.49098)
(2.27166 0.354378 2.569)
(2.44158 0.251765 2.39825)
(2.4749 -0.349069 3.02967)
(2.69967 -0.200901 2.79823)
(2.50025 0.144256 2.92448)