/*--------------------------------*- C++ -*----------------------------------*\
  =========                 |
  \\      /  F ield         | OpenFOAM: The Open Source CFD Toolbox
   \\    /   O peration     | Website:  https://openfoam.org
    \\  /    A nd           | Version:  7
     \\/     M anipulation  |
\*---------------------------------------------------------------------------*/
FoamFile
{
    version     2.0;
    format      ascii;
    class       volScalarField;
    location    "2.5";
    object      nut;
}
// * * * * * * * * * * * * * * * * * * * * * * * * * * * * * * * * * * * * * //

dimensions      [0 2 -1 0 0 0 0];

internalField   nonuniform List<scalar> 
18750
(
0.0002902
0.000495402
0.000287163
0.000260761
0.00147114
0.000603294
0.000538787
0.000265656
0.000296865
0.000211939
0.0020215
0.000415121
0.00128014
0.000432882
0.000548105
0.000666488
0.000205978
0.000413661
0.000306864
0.000267933
0.00254283
0.000605062
0.00213205
0.000858501
0.000393464
0.00103228
0.000397916
0.000322333
0.00047647
0.000725954
0.000297998
0.000131789
0.000362646
0.000318199
0.00041618
0.00220486
0.00124365
0.00299482
0.00108363
0.000531973
0.0022503
0.000581487
0.000815495
0.000402476
0.00125782
0.000388083
0.000253586
0.000193193
0.000389471
0.00064448
0.000233017
0.000308259
0.000222423
0.000389652
0.000317457
0.000317466
0.00246856
0.000902332
0.00242823
0.00152956
0.00123818
0.00323452
0.00105326
0.000963542
0.000567645
0.00237132
0.00044588
0.000578878
0.000781928
0.00034153
0.00156802
0.000285984
0.000363815
0.000235106
0.000153995
0.000312633
0.000547437
0.000172983
0.000255756
0.000273705
0.00020681
0.00037897
0.000307371
0.00033365
0.0025522
0.000845322
0.00223277
0.00093874
0.000779399
0.00276509
0.00148026
0.000760855
0.00166372
0.00351947
0.000502571
0.00102863
0.000804044
0.000504647
0.00248335
0.000451995
0.000347224
0.000601019
0.000710212
0.000254882
0.00144901
0.000300109
0.00030997
0.000340749
0.000340032
0.000163223
0.000263224
0.000547636
9.14025e-05
0.00017002
0.000204271
0.000238404
0.000200435
0.000353229
0.000291509
0.000441683
0.00272106
0.000955794
0.00234686
0.00116485
0.000991491
0.00211348
0.000706862
0.00054572
0.00144956
0.00307458
0.000798101
0.00126643
0.000783436
0.00160709
0.00367536
0.000408763
0.000527464
0.00109044
0.000601821
0.000459778
0.00244474
0.000395082
0.000422784
0.000296813
0.000554784
0.000627574
0.000238073
0.00118794
0.000152684
0.000207606
0.000248964
0.000352354
0.000408485
0.000201419
0.000261953
0.000603426
6.38708e-05
8.97077e-05
0.000141218
0.000172219
0.000238267
0.000194965
0.000285162
0.000270045
0.000397269
0.00237727
0.00110699
0.00239735
0.00051046
0.000969374
0.0025614
0.000386542
0.000294666
0.00126018
0.00215804
0.000597239
0.000974919
0.00125792
0.00236053
0.0031009
0.000794021
0.000984983
0.000953571
0.00068694
0.00112043
0.00403987
0.000594856
0.000462628
0.000642597
0.00100208
0.000625759
0.00061249
0.00236008
0.000376915
0.000359842
0.00039452
0.000599229
0.000483075
0.000575524
0.000263168
0.00102336
0.000183994
0.000131034
0.000282187
0.000271296
0.000396038
0.000418726
0.000245404
0.000313769
0.000564272
5.77007e-05
6.94184e-05
8.56482e-05
0.000122193
0.000156905
0.000242241
0.00019415
0.000194434
0.000249354
0.000328386
0.00253646
0.000688395
0.00242237
0.000710397
0.00111504
0.00258931
0.00037943
0.000893159
0.000973242
0.00252009
0.000417936
0.000427673
0.000645899
0.00128068
0.0020576
0.000348865
0.000328348
0.000954027
0.00229427
0.00210744
0.00274716
0.00081509
0.000743676
0.000830743
0.000784457
0.00126375
0.00137771
0.0042118
0.00105851
0.000672961
0.000465141
0.000728024
0.00101654
0.00069303
0.000842845
0.00233681
0.000473275
0.000339458
0.000402599
0.000418941
0.000754937
0.00042012
0.00056891
0.000372506
0.00103942
0.000242542
0.000181754
0.000159436
0.000212149
0.000317736
0.00043902
0.000402503
0.000318941
0.000404794
0.000496468
8.51818e-05
6.70765e-05
4.98235e-05
8.41322e-05
7.82129e-05
0.000114357
0.000231134
0.000193492
0.000140514
0.000227259
0.00031713
0.00254538
0.000561777
0.00243866
0.00059772
0.000669817
0.00251143
0.000719673
0.000731319
0.00129506
0.0025505
0.00068097
0.000877631
0.000524557
0.000734457
0.00257723
0.000212686
0.000505801
0.000845552
0.00172112
0.00135483
0.00191009
0.000652241
0.000538906
0.000395881
0.00105842
0.00179793
0.00195959
0.002521
0.00117083
0.000834361
0.00075879
0.000804679
0.00082107
0.00140964
0.00198396
0.00380053
0.00120735
0.000870658
0.000607081
0.000695764
0.00103861
0.00112805
0.000685836
0.000996352
0.00251166
0.000356283
0.000366341
0.000344027
0.000498945
0.000355318
0.000752119
0.000526309
0.000517895
0.000532751
0.00132029
0.000159452
0.000212447
0.000147776
6.65976e-05
0.000180306
0.00029925
0.000417863
0.000393101
0.000434621
0.000437626
0.000659024
8.26835e-05
8.70634e-05
9.81533e-05
5.70828e-05
9.17139e-05
9.11309e-05
0.000111943
0.000188331
0.000186358
0.000191259
0.000204262
0.000302984
0.00243073
0.00056206
0.00236455
0.00049299
0.000544983
0.00251526
0.000787461
0.000660824
0.00055636
0.00232534
0.000804725
0.000615147
0.000786382
0.00093211
0.00246745
0.000359448
0.000275237
0.000999993
0.000898583
0.000974906
0.00280949
0.000527758
0.0003337
0.000441009
0.00147868
0.0015843
0.00136562
0.00208086
0.000470435
0.000615863
0.000497412
0.000723919
0.00102983
0.000935169
0.00173052
0.00245815
0.00066837
0.000869481
0.000984719
0.000772368
0.000725253
0.000784698
0.00159176
0.00144767
0.00388763
0.000630131
0.000819987
0.000632007
0.00119924
0.000919207
0.00086928
0.000993542
0.00072783
0.000832436
0.00195322
0.000267414
0.000257794
0.000316284
0.000371765
0.000574912
0.000635523
0.000709084
0.000583413
0.000467412
0.000586382
0.00119364
0.000115167
0.000122308
0.000335994
0.000188514
6.69826e-05
0.000220789
0.000275839
0.000293968
0.000417417
0.00056142
0.000483184
0.000797981
8.08373e-05
8.2978e-05
8.21977e-05
8.02598e-05
6.0411e-05
8.64003e-05
6.21892e-05
0.000150534
0.000122153
0.00017916
0.000305006
0.000179707
0.000291376
0.00235422
0.000463214
0.00242932
0.00054787
0.000725513
0.00240968
0.000334277
0.000565372
0.0005926
0.00246219
0.000489405
0.000801878
0.000551919
0.000753776
0.00235619
0.000402829
0.000817909
0.000689382
0.000735009
0.000825041
0.00258194
0.000303004
0.000415574
0.00113145
0.000755768
0.00120355
0.0009589
0.00278978
0.00025081
0.000440522
0.000560992
0.000752493
0.00148293
0.00152886
0.00124346
0.0023469
0.000704842
0.000289456
0.000381077
0.000331392
0.000468926
0.000112924
0.000852896
0.00184381
0.00261815
0.000784439
0.00104542
0.00104792
0.00104664
0.000891668
0.000720496
0.00111654
0.00194199
0.00155779
0.00392219
0.000441349
0.000756232
0.000676271
0.000969476
0.00130209
0.00057203
0.000698049
0.000917693
0.000807863
0.000982197
0.00153578
0.000276271
0.000353935
0.00023944
0.000384868
0.000352623
0.000632071
0.000709264
0.000470084
0.000550882
0.000453111
0.000536816
0.00133611
0.000187011
8.40667e-05
7.14974e-05
0.00030782
0.000191983
0.000132125
0.000145718
0.000345477
0.000281915
0.000447057
0.000634119
0.000568785
0.000743828
7.9347e-05
7.62008e-05
8.82494e-05
7.17183e-05
5.6916e-05
5.87851e-05
9.28523e-05
6.99426e-05
0.000155473
0.000135438
0.000169223
0.00039592
0.000158015
0.00028419
0.00244464
0.000617574
0.00250428
0.000611743
0.000624414
0.00227615
0.000710058
0.00039457
0.00077248
0.00246143
0.000512363
0.000826954
0.000619427
0.000723226
0.00234544
0.000698767
0.000805426
0.000428241
0.000666338
0.000479746
0.00234002
0.000439048
0.000509078
0.000407052
0.00103025
0.000784554
0.00136666
0.00261338
0.000774644
0.000626666
0.000903488
0.000847375
0.000826604
0.00145438
0.000891741
0.00274281
0.000497567
0.000582824
0.000138738
0.000530063
0.00134213
0.00111176
0.00104551
0.00122809
0.00250718
0.00112016
0.000826136
0.000677858
0.000311464
0.000302287
0.000417951
0.000832332
0.00116774
0.00198847
0.00286433
0.00093082
0.000632962
0.00107199
0.000956131
0.00132295
0.000841846
0.000845789
0.00150092
0.00164721
0.00169529
0.00348106
0.000626924
0.00044762
0.00080074
0.000732413
0.00107303
0.000751561
0.000541365
0.000665154
0.000930494
0.000758342
0.00085036
0.00164423
0.000209757
0.000360777
0.000287014
0.000410011
0.000305769
0.000374228
0.000663263
0.000615849
0.000316646
0.000589401
0.000429729
0.000448708
0.00123115
0.000236615
0.000185002
0.000174126
7.82515e-05
0.000106756
0.000153991
0.000216329
0.00014629
0.000322208
0.00029595
0.000428241
0.000661792
0.000570785
0.000630807
5.92111e-05
8.67244e-05
7.1854e-05
9.66781e-05
6.67833e-05
7.59808e-05
6.25209e-05
9.95292e-05
0.000127834
0.000152926
0.00010651
0.00016355
0.000445865
0.000155312
0.000277344
0.00231549
0.000320073
0.0023331
0.000524825
0.000543695
0.00241648
0.000475893
0.00039962
0.00046483
0.00233499
0.000554929
0.000481264
0.000565629
0.000883628
0.00243493
0.000570769
0.000390101
0.000621847
0.000573541
0.000709881
0.00240659
0.000551775
0.000468273
0.000583714
0.000590318
0.000761323
0.00110922
0.0023874
0.000567355
0.000418915
0.000634882
0.000815047
0.000890756
0.000642451
0.00078664
0.00250704
0.000766828
0.000368977
0.000194779
0.000773845
0.000728731
0.00122871
0.00154268
0.000949966
0.00285686
0.00140956
0.000424143
0.000413768
0.000376372
0.0006997
0.000896353
0.000800036
0.000734536
0.00134278
0.00226348
0.0009983
0.000532033
0.000611098
0.000639508
0.000230831
0.000456898
0.000515516
0.00109227
0.00136637
0.00139738
0.00335156
0.000866202
0.000943074
0.000662586
0.00119492
0.00104537
0.00105654
0.000824519
0.000960778
0.00228098
0.00119534
0.0016674
0.0028733
0.000487301
0.000716312
0.000498239
0.000618431
0.000762165
0.000766804
0.000651407
0.000589907
0.000689793
0.00104258
0.000806218
0.000824107
0.00158409
0.000386423
0.000269471
0.000317428
0.000323819
0.000418063
0.000164107
0.000387999
0.000738219
0.000691457
0.000430407
0.000683103
0.000425222
0.00026382
0.00134611
0.000101145
0.0002384
0.000183382
0.000137425
0.000131857
6.31278e-05
0.000136663
0.000235414
0.000135642
0.0001967
0.000318688
0.000426559
0.000714675
0.000542744
0.000647425
4.4315e-05
6.80409e-05
9.13441e-05
8.00795e-05
0.000106904
6.68303e-05
8.29574e-05
7.36854e-05
0.000100144
4.97788e-05
0.000196892
0.000128089
0.000181199
0.000394697
0.000179963
0.00026723
0.00223238
0.000426056
0.00227342
0.00055514
0.000374271
0.00225011
0.000434805
0.000452076
0.000577528
0.00241436
0.000612613
0.000656397
0.000369708
0.0005266
0.00235784
0.000266848
0.000601801
0.000595546
0.000501954
0.000810704
0.00239752
0.000350288
0.000404671
0.000521725
0.000372777
0.000604509
0.000914376
0.00232552
0.000416763
0.000456459
0.0006066
0.000535638
0.000749803
0.00097748
0.000826436
0.00242593
0.000457902
0.000369528
0.000615516
0.00071054
0.000766725
0.000611202
0.000662597
0.000773657
0.00253433
0.000294889
0.000301279
0.000686527
0.00026914
0.000472395
0.00103839
0.00114494
0.00123621
0.000793146
0.00266763
0.000316128
0.00053674
0.000587846
0.000181447
0.000423806
0.000960666
0.00102252
0.00103222
0.000726678
0.00116214
0.00239961
0.000938815
0.00113323
0.0011926
0.000843825
0.00138278
0.000345517
0.000487658
0.000653874
0.00142082
0.000996246
0.00191386
0.00304335
0.000552608
0.000649226
0.00067835
0.000647775
0.000778938
0.00165293
0.00113326
0.000793444
0.000669019
0.0014827
0.00127052
0.000954278
0.00349731
0.000779904
0.000645958
0.000564667
0.000540807
0.000482359
0.000600924
0.000241699
0.000691311
0.000557226
0.000548612
0.000701252
0.000805765
0.000984103
0.00116568
0.000203394
0.00054567
0.000322468
0.000375824
0.00029227
0.000371976
0.000133733
0.000511283
0.000757811
0.000756899
0.000489207
0.000815963
0.000394021
0.000369478
0.00124416
0.00012695
0.000141688
0.000302486
0.000263158
0.000134438
8.30222e-05
0.00020314
0.00016618
0.000295211
0.000202188
0.000267905
0.000327999
0.000416071
0.000617201
0.000492686
0.000954387
8.00467e-05
7.10196e-05
7.16117e-05
4.14387e-05
0.000103197
8.9923e-05
6.18529e-05
6.10069e-05
7.42522e-05
0.000194097
3.73588e-05
0.000213051
0.000199064
0.000231366
0.000208287
0.000196326
0.000264375
0.00214599
0.000347818
0.00216516
0.000617602
0.000521621
0.0022317
0.000574361
0.000377645
0.000353396
0.00223816
0.000231965
0.000468964
0.000456527
0.000580667
0.00234822
0.000481859
0.000713978
0.000430759
0.000597961
0.000781829
0.00228451
0.000477756
0.000521463
0.000455635
0.00056383
0.000588372
0.00068623
0.00234232
0.000242909
0.000439491
0.000299722
0.000551603
0.000645962
0.000470838
0.000869886
0.00243487
0.000659049
0.000490757
0.000409134
0.000393985
0.000658803
0.000677143
0.000471781
0.000446159
0.00242957
0.000498955
0.000429528
0.000329569
0.000412711
0.000777601
0.000592707
0.000764279
0.00100152
0.000938227
0.00256621
0.000530601
0.00108489
0.000626956
8.98499e-05
0.000634506
0.00073378
0.000918558
0.00139084
0.0010388
0.000659174
0.00262903
0.00028854
0.000679108
0.000837656
5.31761e-05
0.000471111
0.000427591
0.000801217
0.00132397
0.000988262
0.00120106
0.000880074
0.00256232
0.000867428
0.000856729
0.000768469
0.00079824
0.000707765
0.000618395
0.000803098
0.000454745
0.000520265
0.000948521
0.000649456
0.00245558
0.00299949
0.000716826
0.000485879
0.000794295
0.000552093
0.000609681
0.000968365
0.000995932
0.00119069
0.000740468
0.000857088
0.00110692
0.000738462
0.00180637
0.00355668
0.000412825
0.000474659
0.000705662
0.000461483
0.000521463
0.000575138
0.000867509
0.000545018
0.00071821
0.000538091
0.000596847
0.000732749
0.000702059
0.00136909
0.00144631
0.000306082
0.000211871
0.000417557
0.000694299
0.000481218
0.000273951
0.000356803
0.000176737
0.000668479
0.000620408
0.000575102
0.000345452
0.00117415
0.000420703
0.000640901
0.00111563
0.000117223
0.000107015
0.000132556
0.000298166
0.000298469
0.000247593
5.67993e-05
0.000213156
0.000115681
0.00037806
0.000212811
0.000211666
0.00029812
0.000408326
0.000714013
0.000511283
0.000574269
9.8528e-05
6.07264e-05
6.30231e-05
6.87925e-05
4.13624e-05
0.0001251
7.96979e-05
4.80783e-05
6.85582e-05
5.27434e-05
0.000264506
7.89337e-05
0.000162555
0.000189802
0.0002874
0.000205417
0.000206234
0.000243723
0.00211344
0.000401109
0.00211562
0.000395686
0.000481919
0.00213275
0.00047196
0.000608476
0.000499983
0.00225449
0.000519779
0.000534958
0.000522565
0.000543831
0.00217678
0.000365228
0.000575611
0.000659808
0.00043759
0.000524264
0.00225676
0.000463075
0.000417932
0.000434585
0.000405902
0.000460031
0.000639063
0.00224736
0.000566661
0.000212919
0.000410204
0.000369778
0.000383919
0.000658243
0.00105342
0.00219976
0.000857973
0.000369461
0.000269916
0.000434092
0.000545375
0.000591307
0.000525384
0.00033842
0.00261511
0.000543854
0.000276882
0.000410216
0.000497779
0.000687346
0.000521353
0.000544523
0.000529821
0.000702108
0.00237902
0.000422307
0.000449945
0.000167994
0.000576677
0.000337981
0.000620115
0.000867842
0.000810862
0.000862993
0.000894888
0.00251867
0.000533123
0.000455399
0.000138418
0.000496094
0.000347848
0.000263454
0.000936889
0.00120025
0.0014301
0.000770454
0.000767596
0.00294123
0.000100975
0.000366605
0.000913731
0.000563604
0.000952947
0.000156947
0.000798233
0.000974316
0.00118908
0.000746752
0.000958715
0.00100704
0.00225431
0.00083106
0.000737108
0.000607765
0.00129529
0.000849657
0.00150759
0.000727046
0.000381453
0.000583788
0.00025568
0.000534272
0.000674517
0.00137485
0.0026583
0.000542489
0.000867594
0.000625883
0.000878281
0.000647262
0.000414017
0.00179496
0.00114051
0.000982899
0.000563452
0.000976449
0.00142516
0.00111613
0.00129248
0.0026715
0.0006673
0.000272296
0.000491267
0.000367795
0.000294603
0.000441613
0.000612684
0.000572049
0.000573624
0.000645578
0.000517314
0.000464125
0.000556675
0.000684233
0.00145655
0.00199931
0.000364565
0.00027035
0.000262715
0.000320095
0.000670884
0.000630923
0.000492119
0.000355142
0.000233648
0.000713569
0.000422471
0.000292325
0.000452334
0.00110528
0.000420245
0.000660315
0.000941764
6.76663e-05
0.000121977
8.97752e-05
0.000133407
0.000263962
0.000304749
0.000136923
3.66087e-05
0.000180471
0.000104225
0.000371409
0.000146441
0.000215907
0.000318473
0.000535832
0.000714857
0.000447537
0.000435657
9.43506e-05
8.84523e-05
5.20299e-05
7.22562e-05
6.01149e-05
5.3231e-05
0.000129794
8.37506e-05
5.70422e-05
4.13427e-05
4.79197e-05
0.000227102
4.80194e-05
0.000161325
0.000176905
0.000325084
0.000187446
0.000206082
0.000248505
0.0022125
0.000500915
0.00210564
0.000496918
0.000509774
0.00212334
0.000553655
0.000560999
0.000404881
0.00216972
0.000366229
0.000294925
0.000521397
0.000595422
0.00217624
0.000592357
0.000242127
0.000528945
0.000441676
0.000518748
0.00221066
0.000353166
0.000285003
0.000631029
0.000480338
0.000599586
0.000638159
0.00220582
0.000202518
0.000389103
0.000292502
0.000419298
0.000404062
0.000392675
0.000398872
0.00220065
0.000383479
0.000492848
0.000384005
0.000399125
0.000465266
0.000573921
0.000451979
0.000668791
0.00247884
0.000362629
0.000320339
0.000431295
0.000523375
0.000528738
0.000395973
0.000370473
0.000598782
0.000563049
0.00237532
0.000431635
0.000257961
0.000481219
0.000531667
0.000314005
0.000831133
0.000564764
0.00076523
0.000722361
0.000723036
0.0023176
0.00046609
0.000426764
0.000293107
0.000551334
0.000489044
0.000672835
0.00077786
0.000691247
0.000811427
0.000682591
0.000714209
0.00261644
0.000516119
0.000376865
0.000388525
0.000620629
0.000404781
0.000457704
0.000983776
0.000846784
0.00151647
0.0010087
0.000943486
0.000922114
0.00268916
0.000282613
0.000213379
0.000479042
0.000928252
0.000829414
0.00054162
0.000406454
0.000451836
0.00112867
0.000540527
0.000714701
0.000817997
0.00102595
0.00226469
0.00075034
0.000809292
0.000918818
0.000810348
0.000788087
0.00119311
0.00155537
0.000998334
0.000500774
0.000815104
0.000578235
0.000550839
0.000871861
0.00216779
0.00223788
0.000570707
0.000579694
0.000909207
0.000619078
0.000557931
0.000532096
0.000841318
0.000855102
0.00108749
0.00105609
0.00072293
0.00110783
0.0014047
0.00117529
0.00156193
0.00204526
0.000439033
0.000467355
0.000289929
0.000603094
0.000564974
0.000523425
0.000440045
0.000667854
0.000496901
0.000615945
0.000609995
0.000573442
0.000522628
0.000511494
0.000835363
0.00151195
0.00187775
0.000398502
0.000449603
0.000402823
0.000285998
0.000640996
0.000375384
0.000624903
0.000590511
0.0002862
0.000272169
0.000508812
0.000422528
0.000396402
0.000886651
0.000816787
0.000605556
0.000828986
0.000802279
0.000173049
8.82145e-05
9.23691e-05
7.96136e-05
0.000100092
0.000185259
0.000288094
0.000157642
5.69318e-05
0.000193634
0.000193421
0.00027491
0.000191809
0.000355042
0.000393953
0.000734245
0.00045421
0.000296439
0.000566139
6.44256e-05
9.573e-05
8.09709e-05
4.78503e-05
7.45444e-05
5.07587e-05
3.02724e-05
0.000131698
8.52468e-05
2.67491e-05
4.3513e-05
5.48315e-05
0.000201776
4.02515e-05
0.000172627
0.000168971
0.000344111
0.000247434
0.000195163
0.00025063
0.00215348
0.00057314
0.00217454
0.0003908
0.000535274
0.00212785
0.000491983
0.000449192
0.000591027
0.00220015
0.000460983
0.000395131
0.000480057
0.000422023
0.00208071
0.00043208
0.000347496
0.000414043
0.000571087
0.000638064
0.00221451
0.000417091
0.000574975
0.000415919
0.00042308
0.000538522
0.00056299
0.00216783
0.00042658
0.000286637
0.000399886
0.000314836
0.000354508
0.000378831
0.000521778
0.00220873
0.000585287
0.000448471
0.000383552
0.000359705
0.000474326
0.00036127
0.000374275
0.00035201
0.00210862
0.000360097
0.000602482
0.000333261
0.000311542
0.000330152
0.000505834
0.000515046
0.000417538
0.000572013
0.00238299
0.000446274
0.000301291
0.00026336
0.000341012
0.000591124
0.000704877
0.000428183
0.000402016
0.000866515
0.000580626
0.00232683
0.000443972
0.000405114
0.000425276
0.000491354
0.000732493
0.000909344
0.000470519
0.000734074
0.000763526
0.000695784
0.000524308
0.0022974
0.000593112
0.000369709
0.000380111
0.000295691
0.000254464
0.000583829
0.000598143
0.000924868
0.00050488
0.00100129
0.000716032
0.000841777
0.0026631
0.000441101
0.000480195
0.000416618
0.000268312
0.000313349
0.000456439
0.000315858
0.000632118
0.000935033
0.00144674
0.000856741
0.000745977
0.000934354
0.00266283
0.000634181
0.000294299
0.000518713
0.000423283
0.000688882
0.000548674
0.0005218
0.000525307
0.000748554
0.00141064
0.000648186
0.000850389
0.00107336
0.00126224
0.00271202
0.000843333
0.000667176
0.000800198
0.000804027
0.000922506
0.000806213
0.00122742
0.000742455
0.00055374
0.00128476
0.000855161
0.00133459
0.000596352
0.000796288
0.0025073
0.00169986
0.000643048
0.000712511
0.000629416
0.000761863
0.000878814
0.00118706
0.000292723
0.000705926
0.00114278
0.00089511
0.000655506
0.000971384
0.00122544
0.00139281
0.00165056
0.00149814
0.00215567
0.000753078
0.000555212
0.000404715
0.000558991
0.000556208
0.00079385
0.000541124
0.000510438
0.00086962
0.00049068
0.00066559
0.000723466
0.000502215
0.000623996
0.000451487
0.000851559
0.00195004
0.00174286
0.000454716
0.000408223
0.000352863
0.000282944
0.000317271
0.000641857
0.000870902
0.00051533
0.000554293
0.000220732
0.000352374
0.000433741
0.000464854
0.000530307
0.000808232
0.000714039
0.000631271
0.00092735
0.000713535
7.60026e-05
0.000141601
0.000158907
6.15929e-05
5.84719e-05
8.50421e-05
0.000158614
0.000174976
0.000140034
0.000124249
0.000222259
0.000307801
0.000244843
0.000210682
0.000488119
0.000417116
0.000690666
0.000439499
0.00018104
0.000409658
0.000144392
0.00012196
8.88395e-05
7.98981e-05
5.54713e-05
7.03547e-05
4.57807e-05
4.91961e-05
0.000193551
8.92966e-05
1.34392e-05
4.08107e-05
7.03634e-05
0.000210937
7.4227e-05
0.000180128
0.000164307
0.000334791
0.000233779
0.000190872
0.000255548
0.0021661
0.000401035
0.00223578
0.000227303
0.000669869
0.00221758
0.00022746
0.00034577
0.000484466
0.00213988
0.000475422
0.000369873
0.000381035
0.000502835
0.00215107
0.000372974
0.000247142
0.000419111
0.000460828
0.000595763
0.00210976
0.000460179
0.000446432
0.000516716
0.000374795
0.000296096
0.00054295
0.00215445
0.000298788
0.000393711
0.000441816
0.000248453
0.000300856
0.00050919
0.000491628
0.00216447
0.000341589
0.000237617
0.000246809
0.000411172
0.000571647
0.000497983
0.000320137
0.00041371
0.00224535
0.00028808
0.000272798
0.000443838
0.000416364
0.000378658
0.000347282
0.000434295
0.000300093
0.000283318
0.00226032
0.000558308
0.000215775
0.000443913
0.000409498
0.000469049
0.000654131
0.000376586
0.000327083
0.000637011
0.000517312
0.00217818
0.000384235
0.000488173
0.00038107
0.000616159
0.000770723
0.000408131
0.000346745
0.000619366
0.000945115
0.000958077
0.000475241
0.00227673
0.000367484
0.000637485
0.000495068
0.000633594
0.000424925
0.00045999
0.0010902
0.000778022
0.000696535
0.000631766
0.000640339
0.000751562
0.00223162
0.000731903
0.000252162
0.000423897
0.000589808
0.000475353
0.00045582
0.000448399
0.00114797
0.000729221
0.000960577
0.000679833
0.000685126
0.000833414
0.00243251
0.000578806
4.41447e-05
0.000358912
0.000320964
0.000517589
0.000281828
0.000813732
0.000898062
0.000610044
0.00106195
0.00103316
0.000799901
0.000615856
0.000653619
0.00273609
0.000748189
0.000448552
0.000570605
0.000543722
0.000540106
0.000723249
0.00103052
0.00103516
0.000361967
0.00136739
0.000513344
0.00057071
0.000978263
0.000724737
0.00105855
0.00247998
0.000333434
0.000736861
0.00091508
0.000775198
0.000838017
0.000709825
0.000908338
0.000613968
0.000680124
0.000767219
0.000605386
0.000941159
0.000723691
0.000900697
0.000941511
0.00154881
0.00183361
0.000475671
0.000705924
0.000626232
0.000626179
0.000689534
0.00108132
0.000613293
0.000443622
0.000767635
0.000918785
0.000807661
0.000742183
0.00104436
0.00112665
0.00147362
0.00100934
0.00128877
0.00202893
0.000801103
0.000945837
0.000528204
0.000379537
0.000505093
0.000503597
0.000857273
0.000628344
0.000608078
0.0010108
0.000500471
0.000818791
0.000540769
0.000495024
0.000726689
0.000376094
0.000998159
0.00102143
0.00151628
0.000287935
0.000353185
0.000264719
0.000292329
0.000211541
0.000265358
0.00042623
0.00101581
0.000638804
0.000427012
0.000229107
0.000323567
0.000540465
0.000296795
0.000673084
0.00047477
0.000392701
0.000560836
0.00096672
0.000632657
8.41375e-05
0.000146116
0.000102035
0.000132698
8.15945e-05
0.000146976
0.000145741
0.000171639
0.000159917
0.00014422
7.33872e-05
0.000208447
0.000342982
0.000232583
0.000162789
0.000522882
0.00045862
0.000492819
0.000411956
0.000119753
0.000369237
0.000136139
0.000132456
0.000118543
0.000111857
8.14953e-05
5.99587e-05
6.08949e-05
4.55182e-05
0.000104637
0.000192641
8.58455e-05
4.11725e-05
5.98397e-05
8.47538e-05
0.00017885
8.11182e-05
0.000207504
0.000169173
0.00038041
0.000263733
0.000189311
0.000246754
0.00212483
0.00033358
0.00214605
0.000209365
0.000429147
0.00216777
0.000357957
0.00037144
0.000576633
0.00227786
0.000227739
0.000375536
0.000388448
0.000429789
0.00209254
0.00024323
0.000467122
0.000328807
0.000309178
0.000622501
0.00210215
0.000398844
0.00036465
0.000309475
0.000603128
0.000324915
0.000482296
0.00205739
0.000334877
0.00039211
0.000571239
0.000534019
0.000330527
0.000570995
0.000482126
0.00216324
0.000468341
0.000234917
0.000288512
0.000324607
0.000210151
0.000410393
0.00020752
0.000420052
0.00214983
0.000487542
0.000647503
0.000389926
0.00045085
0.000470991
0.000630167
0.000304571
0.000411935
0.000494744
0.00223262
0.000473456
0.000104529
0.000238412
0.000315571
0.000375974
0.000311341
0.000440572
0.000448179
0.000333098
0.000362165
0.00210244
0.000747689
0.000435397
0.000499042
0.000499525
0.000586399
0.000582701
0.000431355
0.000573271
0.000808789
0.00110646
0.000740948
0.00237096
0.000511187
0.000337405
0.000548731
0.000614078
0.000574498
0.000503378
0.000688017
0.000572059
0.000388619
0.000507527
0.000737104
0.000385801
0.00217988
0.000569182
0.000430591
0.000406712
0.000354898
0.000659784
0.000698385
0.000916724
0.000364117
0.000709467
0.000721428
0.000446312
0.000676175
0.000912825
0.00215204
0.000695112
0.000329521
0.000408775
0.000652988
0.000631592
0.000700355
0.000484952
0.000554331
0.000805545
0.000469176
0.000859048
0.000717684
0.000479275
0.000737779
0.00254799
0.000335384
0.00055142
0.00111707
0.000340165
0.000336681
0.000364535
0.000423303
0.000440731
0.000536817
0.000875468
0.00112341
0.000940083
0.000850309
0.00105405
0.00102204
0.00243221
0.000585626
0.000646249
0.000266927
0.000526815
0.000322992
0.000401949
0.000620566
0.000616876
0.000953629
0.000911676
0.00103168
0.000646983
0.00075482
0.000922909
0.000355833
0.000795015
0.00206396
0.000605721
0.000718734
0.000532526
0.000841558
0.000495643
0.000673778
0.000681815
0.000732787
0.00108115
0.000495822
0.000194073
0.00165829
0.00123974
0.000686054
0.00112613
0.00115008
0.00172658
0.00184024
0.000505467
0.000616732
0.000698347
0.000653271
0.000779867
0.000843941
0.00084252
0.000672091
0.000488202
0.000981035
0.00193876
0.000863626
0.000609389
0.000796419
0.000956571
0.00145765
0.000711349
0.0016963
0.00208651
0.000384814
0.000920424
0.000723901
0.000371657
0.000381278
0.000440405
0.000402261
0.000381346
0.000609961
0.000994762
0.00105475
0.000468752
0.00127249
0.000603513
0.000529897
0.000629243
0.000434379
0.000819702
0.00113755
0.00122629
0.00042089
0.000321703
0.000259968
0.000273267
0.000314955
0.000177557
0.000259874
0.000265578
0.000590956
0.000687284
0.000282944
0.00015015
0.000311551
0.000384238
0.000158312
0.000479798
0.000518888
0.000457273
0.000588888
0.000792921
0.000759795
0.000159466
7.52816e-05
0.000169731
0.000143178
0.000177777
9.34311e-05
0.000140682
9.92363e-05
0.000160351
0.000173232
0.000200018
6.34024e-05
0.000218177
0.000316319
0.000225282
0.000219745
0.000366893
0.000477812
0.000387564
0.000423304
0.000160639
0.000434294
0.000195136
9.89184e-05
0.000127705
0.000102976
6.70689e-05
0.000107406
8.45635e-05
5.71546e-05
5.05932e-05
4.23692e-05
7.42625e-05
0.000156584
0.000103909
1.21638e-05
7.23146e-05
9.3847e-05
0.000159106
0.000132924
0.00018192
0.000180971
0.000384455
0.000255582
0.00020672
0.000210692
0.00209798
0.000318905
0.00209299
0.000474945
0.000257569
0.00206159
0.000257695
0.000393212
0.000536054
0.00220011
0.000252328
0.000327777
0.000639502
0.00037208
0.0022796
0.000464839
0.00018632
0.000359647
0.000406782
0.000446545
0.0021459
0.000239224
0.000288533
0.000411952
0.000487461
0.000220089
0.000475916
0.00210676
0.000350161
0.000425284
0.000313795
0.000321931
0.00048695
0.000365851
0.000425763
0.00208278
0.000256419
0.000401806
0.000487494
0.000503507
0.000564629
0.000480705
0.000281003
0.000450135
0.00219968
0.00044751
0.000253793
0.000250149
0.000331714
0.000399935
0.000493265
0.000485643
0.000204173
0.000332582
0.00216973
0.000683542
0.00065466
0.000573014
0.00035673
0.000332965
0.00059125
0.000581437
0.000390879
0.00032794
0.000519957
0.00222068
0.000645412
0.000714315
0.000431974
0.000507655
0.000589981
0.000565685
0.000601506
0.000474305
0.000335287
0.000894019
0.000427498
0.00213612
0.000436035
0.000640454
0.000328519
0.000420182
0.000408071
0.000451745
0.000536605
0.000257506
0.000539171
0.000626061
0.000727259
0.000686398
0.00225776
0.000694576
0.000508217
0.000675408
0.000473367
0.000724275
0.000570234
0.000428328
0.000686305
0.000637825
0.00078326
0.000682581
0.000769193
0.000643441
0.00220836
0.00039573
0.000486344
0.000401435
0.000392307
0.000487122
0.00058084
0.000812541
0.000870381
0.000747986
0.000590714
0.000513358
0.000560747
0.000411861
0.000619414
0.00218179
0.000554588
0.000565448
0.000362802
0.000584738
0.000527462
0.000263084
0.000564569
0.000958954
0.000810973
0.000656495
0.000773657
0.00107139
0.000636621
0.000444261
0.00077567
0.00234338
0.000369358
0.000573579
0.00054623
0.000361018
0.000381788
0.000538225
0.000376159
0.000307623
0.000771521
0.000874198
0.0011516
0.0011118
0.000829938
0.0010057
0.00091721
0.00114467
0.00237045
0.000297074
0.000319355
0.000528932
0.000595635
0.000526304
0.000346257
0.000374082
0.000599471
0.000723792
0.00075608
0.000305979
0.00062413
0.000404487
0.000611628
0.000866768
0.000864685
0.00100638
0.00224243
0.000472598
0.000757984
0.000421427
0.000747895
0.000614446
0.000768101
0.000472898
0.000736584
0.0010628
0.00115204
0.000740202
0.000633463
0.000904155
0.000728047
0.000609622
0.000643782
0.00104203
0.00155217
0.00216279
0.000592828
0.000487512
0.000669687
0.000689704
0.000609034
0.000866665
0.000842964
0.000964173
0.000688035
0.000340853