/*--------------------------------*- C++ -*----------------------------------*\
  =========                 |
  \\      /  F ield         | OpenFOAM: The Open Source CFD Toolbox
   \\    /   O peration     | Website:  https://openfoam.org
    \\  /    A nd           | Version:  7
     \\/     M anipulation  |
\*---------------------------------------------------------------------------*/
FoamFile
{
    version     2.0;
    format      ascii;
    class       surfaceScalarField;
    location    "2.5";
    object      phi;
}
// * * * * * * * * * * * * * * * * * * * * * * * * * * * * * * * * * * * * * //

dimensions      [0 3 -1 0 0 0 0];

internalField   nonuniform List<scalar> 
54125
(
7.52021e-05
-5.48192e-05
-0.000756849
0.000250859
-0.000113608
-0.000233537
3.78096e-05
-0.000104605
-0.000567786
7.5769e-05
-5.26346e-05
-0.000779983
0.00039685
-6.33781e-05
-0.00175071
0.000100421
-0.000239852
0.000308353
0.000326153
-0.000127858
-0.000356063
2.94714e-05
-0.000119507
-0.000745144
4.15093e-05
-0.000101615
-0.000560315
7.2917e-05
-5.05754e-05
-0.000802325
5.56754e-05
0.000360688
-0.00560284
0.000117878
-0.000170864
-8.48222e-05
0.000609268
-0.000121668
-0.00191216
2.83208e-05
-0.000272308
0.000124926
0.000121263
-0.000254831
0.000355573
0.000366668
-0.000139701
-0.000510112
6.35604e-06
-0.00010824
0.000171706
3.46069e-05
-0.000116493
-0.000764873
4.42182e-05
-9.8299e-05
-0.000556809
6.68309e-05
-4.79398e-05
-0.000821216
-0.000344475
0.000682738
-0.00789846
4.31926e-05
0.000271962
-0.00355504
0.000257834
0.000316475
-0.00556788
-0.00016958
-0.000126606
-0.000161361
0.000267876
-0.000231818
-0.000121286
0.000726561
-0.000169306
-0.00210274
2.48416e-05
-0.000272269
0.000470335
4.53539e-05
-0.000286477
0.000145826
0.000138197
-0.000262975
0.000384869
0.000364129
-0.000152009
-0.000655402
1.05075e-05
-9.16865e-05
0.000261777
8.62909e-06
-0.000107427
0.000154012
3.6734e-05
-0.000113413
-0.000786494
4.61676e-05
-9.45363e-05
-0.000556381
5.70195e-05
-4.57894e-05
-0.000832446
-0.000611556
0.00030557
-0.00432664
-0.000366532
0.00115753
-0.00672244
-0.000336318
0.000792422
-0.00809673
-0.000173869
0.000202813
-0.00210809
0.000245309
0.000253009
-0.003469
0.000281008
0.000298
-0.00542032
-5.75288e-05
-1.21397e-05
0.000326104
-0.000146668
-0.000176447
-2.47106e-05
0.000313289
-0.00028021
-0.000185473
0.000793356
-0.000202677
-0.00232929
-1.99966e-05
-0.000240001
0.000474486
3.33249e-05
-0.000274949
0.00043411
5.89761e-05
-0.000289826
0.000150434
0.00015553
-0.000264762
0.00038826
0.000326511
-0.000160793
-0.0007641
-1.09226e-05
-8.3752e-05
0.00056627
3.78474e-06
-9.18547e-05
0.000242419
7.60577e-06
-0.000106311
0.000139304
3.8395e-05
-0.000110201
-0.000809224
4.70843e-05
-9.0769e-05
-0.000558485
4.89854e-05
-4.41167e-05
-0.000837314
-0.00118056
0.000321833
-0.00409732
-0.000645713
0.000457381
-0.00543605
-0.000723634
0.000366649
-0.00430598
-3.27287e-05
0.00116764
-0.00554156
-0.00026298
0.00112189
-0.00654362
-0.000549535
0.000807232
-0.00807342
3.8846e-05
6.64638e-07
-0.000475249
-0.000207283
0.000167302
-0.00196177
0.000305351
0.000222517
-0.00338558
0.000368177
0.000285717
-0.00528086
-4.91706e-05
-1.93538e-05
0.000107606
-5.81226e-05
-1.0689e-05
0.000251794
-0.000124455
-0.000219809
9.83193e-05
0.000335885
-0.000319779
-0.000248726
0.000790589
-0.000241385
-0.00255199
-2.0681e-05
-0.000203997
0.000299052
-2.53949e-05
-0.000236334
0.00046505
3.7439e-05
-0.000269457
0.000383908
7.14911e-05
-0.000283012
0.000135588
0.000173071
-0.000262902
0.000364383
0.000287104
-0.000165376
-0.000836843
-6.25055e-05
-7.21842e-05
0.000276398
-1.33287e-05
-8.29306e-05
0.000570674
-3.01965e-06
-9.17284e-05
0.000230856
5.54146e-06
-0.000104956
0.000128517
3.94026e-05
-0.000106934
-0.000832462
4.70115e-05
-8.70351e-05
-0.000562579
4.63993e-05
-4.2746e-05
-0.000840968
-0.00125437
9.03702e-05
-0.00428979
-0.00084324
0.000697015
-0.0053905
-0.00130802
0.000337057
-0.00384999
-0.000226522
0.00075487
-0.00606015
-0.000547827
0.000555896
-0.00534045
-0.000935774
0.000338751
-0.00425849
-8.12737e-05
0.00079973
-0.00389028
-8.82212e-05
0.00117504
-0.00571377
-0.000250197
0.00105688
-0.00623772
-0.000778
0.000898451
-0.00782569
-8.33411e-06
-6.8618e-05
-0.0017602
8.22921e-05
-3.09351e-05
-0.000417426
-0.000267593
0.000170577
-0.00176669
0.000387396
0.000211829
-0.00336321
0.000465978
0.000202617
-0.00515887
-3.20653e-05
-8.00094e-05
-0.000860561
-2.83157e-05
2.18783e-06
9.765e-05
-5.52032e-05
-2.33488e-05
0.000147976
-7.31157e-05
-0.000242838
0.000165985
0.000364495
-0.000351745
-0.00032979
0.000748734
-0.000266455
-0.00274716
-5.86527e-05
-0.000175401
-0.000505149
-2.62422e-05
-0.000193911
0.000269543
-2.26516e-05
-0.000229279
0.000444504
4.10281e-05
-0.000257818
0.000323227
8.47769e-05
-0.000270001
9.73117e-05
0.000190718
-0.000259783
0.000315084
0.000272006
-0.000164423
-0.000898028
-3.23267e-05
-6.44121e-05
0.000111107
-5.74151e-05
-7.20146e-05
0.000322897
-1.54284e-05
-8.21964e-05
0.000576571
-7.40619e-06
-9.11939e-05
0.0002245
3.51049e-06
-0.000103135
0.000121209
4.03806e-05
-0.00010372
-0.000856158
4.60816e-05
-8.3617e-05
-0.000567789
4.16859e-05
-4.22957e-05
-0.000840358
-0.0013751
0.000117586
-0.00370876
-0.00109625
0.000376134
-0.00559455
-0.00143133
6.05481e-05
-0.00422703
-0.000399751
0.000764064
-0.00575194
-0.000810051
0.000737145
-0.00552836
-0.0013439
0.000240814
-0.00368267
-0.000422841
0.000905691
-0.00571566
-0.000146517
0.000731202
-0.00617716
-0.000562313
0.000572855
-0.00526244
-0.00130665
0.000541194
-0.00427104
-0.000115788
0.000693941
-0.00297766
5.19578e-06
0.000815566
-0.00345371
-0.000248091
0.00103703
-0.00571343
7.35478e-05
0.00101676
-0.00604218
-0.000958518
0.000995318
-0.00739651
-0.000104217
1.23613e-06
-0.00232939
-1.66939e-05
-7.46073e-05
-0.00172815
5.10796e-05
-4.19999e-05
-0.000311132
-0.000261554
0.000142288
-0.00150871
0.00047199
0.000111535
-0.00337962
0.000442855
0.000146774
-0.00499976
-4.48339e-05
-0.000183123
-0.00127331
-4.55594e-05
-7.52414e-05
-0.000763814
1.75376e-05
1.22969e-05
2.18151e-05
-3.54356e-05
-4.35919e-05
2.51936e-05
-2.2922e-05
-0.000245833
0.000167772
0.000388469
-0.000381314
-0.000412682
0.000670003
-0.000274493
-0.00287067
-8.86259e-05
-0.000155741
-0.00055718
-5.87554e-05
-0.000170835
-0.000526884
-2.72773e-05
-0.000185809
0.000237922
-1.15213e-05
-0.000219982
0.000410783
4.58543e-05
-0.000240773
0.000251656
0.000101004
-0.000254889
3.17935e-05
0.000204204
-0.00025628
0.000248819
0.000284058
-0.000154523
-0.000985877
-3.72347e-05
-5.95362e-05
-0.000198113
-2.88309e-05
-6.42533e-05
0.000132176
-5.38405e-05
-7.18436e-05
0.000366385
-1.57344e-05
-8.14163e-05
0.000582528
-1.15664e-05
-9.01724e-05
0.000223104
2.30034e-06
-0.000101116
0.000116305
4.10867e-05
-0.000100783
-0.000880079
4.55701e-05
-8.08498e-05
-0.000574805
3.74061e-05
-4.17177e-05
-0.000836046
-0.00150318
0.00012947
-0.00334935
-0.00128825
0.000363394
-0.0045554
-0.00150285
0.000105118
-0.00374236
-0.000678037
0.000639875
-0.00576947
-0.000957933
0.000326438
-0.00571256
-0.00143243
0.000105114
-0.00424362
-0.000555073
0.000855185
-0.0059871
-0.000271911
0.000800991
-0.00569039
-0.00070099
0.000568813
-0.00571768
-0.0014743
0.000127521
-0.00364254
-0.000354433
0.000880776
-0.005636
-0.000464091
0.00111896
-0.00563413
-0.000433237
0.000759014
-0.00617817
-7.20961e-05
0.00104215
-0.00561775
-0.0016396
0.000641384
-0.00423134
-0.000184981
0.00068017
-0.00274974
-0.000189968
0.000646304
-0.00263512
0.000109412
0.000764057
-0.00323907
-7.69182e-05
0.000864962
-0.00574626
0.000375656
0.000929518
-0.00588005
-0.00116118
0.00103609
-0.00682856
-6.69251e-05
8.54428e-05
-0.00239389
-0.000139044
-7.04525e-06
-0.00230346
-5.65931e-06
-0.000130599
-0.00161636
9.34215e-05
-6.58922e-05
-0.000231809
-0.000180218
2.41064e-05
-0.00126399
0.000482283
9.48038e-06
-0.00333614
0.000306498
3.65798e-05
-0.00467284
-3.97102e-05
-0.000221564
-0.00131438
-4.87729e-05
-0.000182078
-0.00117646
-3.57281e-05
-6.68441e-05
-0.000676222
5.14888e-05
-4.71761e-06
-8.00694e-05
3.20849e-06
-7.47112e-05
-0.000103282
3.69258e-05
-0.000254696
0.000105232
0.000412763
-0.000400644
-0.00049509
0.000605528
-0.000268645
-0.00292349
-7.5475e-05
-0.000128566
-0.000721165
-7.00223e-05
-0.000154881
-0.000531943
-4.98405e-05
-0.000167085
-0.000549608
-3.07058e-05
-0.000176382
0.000209293
2.9183e-06
-0.00020646
0.000361986
4.9131e-05
-0.000219769
0.000169705
0.000120014
-0.000240516
-6.28986e-05
0.000217134
-0.000249152
0.000171885
0.00031246
-0.000138257
-0.00112267
-1.99135e-05
-6.45349e-05
-0.000398464
-3.40821e-05
-5.92279e-05
-0.000169056
-2.40897e-05
-6.40453e-05
0.000148468
-5.10889e-05
-7.16555e-05
0.000407713
-1.71222e-05
-8.04808e-05
0.000589958
-1.51912e-05
-8.88981e-05
0.000226077
2.56531e-06
-9.89595e-05
0.000111916
4.05254e-05
-9.83204e-05
-0.000903133
4.46682e-05
-7.90757e-05
-0.000582115
3.30773e-05
-4.1303e-05
-0.000827821
-0.00158866
0.000101115
-0.00347381
-0.00135084
0.000267593
-0.00412938
-0.00153197
0.000155072
-0.0034753
-0.00082241
0.000544359
-0.00513976
-0.00112235
0.000357936
-0.0046438
-0.00137911
4.97129e-05
-0.00384539
-0.000680857
0.000790466
-0.0056755
-0.000619676
0.000631687
-0.00572696
-0.000830644
0.000338978
-0.00581677
-0.00146862
0.000128481
-0.00437778
-0.000268256
0.000930124
-0.0060937
-0.000581162
0.000852998
-0.00592203
-0.000527719
0.000761318
-0.00578841
-0.00043748
0.000547661
-0.00577244
-0.0016787
0.000177974
-0.00378142
-0.000289223
0.000936046
-0.00552605
-0.000438188
0.00111048
-0.0053793
-0.0002697
0.000968032
-0.00546404
0.000131882
0.00101005
-0.00635487
0.000222992
0.00147817
-0.00630188
-0.00182531
0.000539886
-0.0041071
8.60285e-07
0.000612618
-0.00355784
-0.000250214
0.000676444
-0.00266871
-0.000169879
0.000608489
-0.00231533
0.00010687
0.000679949
-0.0030675
0.000174934
0.000576709
-0.00574861
0.000389982
0.000800288
-0.00555195
-0.00129302
0.000978285
-0.00620733
0.000176231
5.70354e-05
-0.00239398
-0.000103145
0.000108855
-0.00245541
-0.000139523
-3.83587e-05
-0.00229191
1.02931e-05
-0.000163204
-0.00147785
0.000164121
-0.000155567
-0.000213049
-3.12796e-05
-0.000132056
-0.00105425
0.00060395
-0.000161689
-0.00332906
0.000220508
-1.82999e-05
-0.00426952
-3.36195e-05
-0.000214011
-0.000998326
-4.07215e-05
-0.000243459
-0.0012823
-4.92376e-05
-0.000180976
-0.00106293
-5.81685e-05
-7.55885e-05
-0.000577889
8.93851e-05
-4.44099e-05
-0.000196837
4.33506e-05
-0.000109423
-0.000242776
8.23858e-05
-0.000275967
1.81829e-05
0.000387856
-0.000409327
-0.000525129
0.000577875
-0.000256368
-0.00293254
-3.02692e-05
-0.000133464
-0.00137751
-5.75132e-05
-0.000129306
-0.000723309
-5.69484e-05
-0.000155127
-0.000511042
-6.36735e-05
-0.000162761
-0.000550645
-3.62014e-05
-0.000167854
0.000189766
1.00492e-05
-0.000189532
0.000306509
5.66296e-05
-0.000198676
7.38013e-05
0.000137219
-0.000225473
-0.000183271
0.000225967
-0.000236711
8.90394e-05
0.000313466
-0.00012
-0.00128306
-1.35799e-05
-6.7488e-05
-0.00022624
-1.86532e-05
-6.44494e-05
-0.00037459
-3.24663e-05
-5.91921e-05
-0.000141443
-2.04669e-05
-6.38523e-05
0.000161132
-4.89046e-05
-7.14266e-05
0.000447564
-1.84078e-05
-7.95195e-05
0.000598988
-1.8061e-05
-8.74432e-05
0.000232622
4.5494e-06
-9.66566e-05
0.000105703
3.80912e-05
-9.66654e-05
-0.000923635
4.36199e-05
-7.80926e-05
-0.000588946
2.60013e-05
-4.12391e-05
-0.000812583
-0.00175149
1.82206e-05
-0.00289144
-0.00142897
0.000169533
-0.00399019
-0.00160754
0.000120869
-0.00351911
-0.000907186
0.000393129
-0.00462225
-0.00125766
0.000313563
-0.00415257
-0.00140954
0.000111038
-0.00355591
-0.000689919
0.000558633
-0.00520057
-0.000780701
0.000548811
-0.00516961
-0.00107789
0.000294912
-0.00464176
-0.00141746
1.29316e-05
-0.00390947
-0.000328715
0.000902381
-0.00565481
-0.000553262
0.00072634
-0.00579806
-0.000616413
0.000586227
-0.00588551
-0.000719761
0.000337418
-0.00574343
-0.00155484
4.56093e-05
-0.00454724
-0.000351135
0.000972951
-0.00608509
-0.000556333
0.000933144
-0.0060557
-0.000527667
0.000974127
-0.00587688
-0.00018527
0.000955287
-0.00587888
-0.000424367
0.000636482
-0.00558359
-0.00171903
0.000222006
-0.00410971
-5.02071e-05
0.0010041
-0.0050019
-0.000317562
0.00101515
-0.00536337
-0.000293745
0.000943168
-0.00523057
-0.000154804
0.00108167
-0.00527399
0.000505156
0.00131966
-0.00652658
0.000222448
0.00145022
-0.00704467
-0.00177223
0.000508001
-0.00413589
0.000173685
0.00037674
-0.00407152
-0.000156297
0.00069781
-0.00352606
-0.000310918
0.000637965
-0.00252679
-0.000252307
0.000571076
-0.00194386
0.000352704
0.00047739
-0.00315677
0.00036541
0.000262409
-0.00560742
0.000510136
0.000755972
-0.00523583
-0.00123835
0.000882493
-0.00563096
0.00018415
-5.38505e-05
-0.0013963
4.62078e-05
-7.5057e-05
-0.002297
-0.000169857
9.99516e-05
-0.0024731
-0.000173248
-0.00012037
-0.00221966
3.65476e-05
-0.000274815
-0.00130576
0.000242201
-0.000282163
-0.000261793
8.79152e-05
-0.000290028
-0.000931436
0.00075824
-0.000275564
-0.00344218
0.000399596
-4.00522e-05
-0.00405119
-5.86722e-05
-0.000236994
-0.0010135
-1.0233e-05
-0.000227924
-0.00106114
-4.8211e-05
-0.000265921
-0.00120609
-3.98563e-05
-0.000193113
-0.000969224
-1.37846e-05
-9.69192e-05
-0.000547796
0.000131896
-0.000106045
-0.000322061
7.46214e-05
-0.000161348
-0.000375387
0.000117337
-0.000309472
-6.17899e-05
0.00038109
-0.000407651
-0.000528968
0.000569067
-0.000253882
-0.00293426
-2.37377e-05
-0.000151531
-0.00101321
-2.15542e-05
-0.000135207
-0.0013687
-4.96485e-05
-0.000129067
-0.000732187
-4.06954e-05
-0.000154935
-0.00049864
-6.27794e-05
-0.000159829
-0.000544795
-3.67544e-05
-0.000161687
0.000180268
1.32466e-05
-0.000172832
0.000249358
6.50739e-05
-0.000180573
-3.16241e-05
0.000147739
-0.000206748
-0.000322881
0.000238416
-0.000216754
-9.00267e-06
0.00028014
-0.000113319
-0.00142388
-1.7391e-05
-6.6204e-05
-0.00048981
-1.33717e-05
-6.67003e-05
-0.000210618
-1.57207e-05
-6.44791e-05
-0.000353582
-2.99905e-05
-5.90604e-05
-0.000116245
-1.92468e-05
-6.37553e-05
0.000172707
-4.61084e-05
-7.12055e-05
0.000485358
-1.99721e-05
-7.8705e-05
0.000610221
-1.98246e-05
-8.60682e-05
0.000241858
7.58802e-06
-9.48201e-05
9.62697e-05
3.44075e-05
-9.57006e-05
-0.000940434
4.02579e-05
-7.7117e-05
-0.000593326
1.59738e-05
-4.13546e-05
-0.000787202
-0.00170181
1.39473e-05
-0.00290808
-0.00163553
0.000136271
-0.00366477
-0.0015904
-1.37881e-05
-0.00289479
-0.000935208
0.000267496
-0.00427629
-0.00133503
0.000200486
-0.00399244
-0.00158981
0.000125788
-0.00346463
-0.000807646
0.000579238
-0.0047449
-0.000876049
0.0004311
-0.00464444
-0.00125277
0.000335773
-0.00420242
-0.00152116
8.27317e-05
-0.00353494
-0.00048087
0.000715185
-0.00534576
-0.000416618
0.00061024
-0.00539864
-0.000782718
0.000497273
-0.00520567
-0.000939608
0.000217564
-0.00462654
-0.00150707
3.3838e-05
-0.00399109
-0.000258697
0.000917594
-0.00572283
-0.000457414
0.000807217
-0.0058346
-0.000437051
0.000729935
-0.00603238
-0.000573757
0.000630845
-0.00579045
-0.000916408
0.000255399
-0.00546118
-0.00148183
2.72869e-05
-0.00481172
-0.000275769
0.00110643
-0.00570107
-0.000468708
0.000996548
-0.00599735
-0.000465247
0.00104041
-0.00595048
-0.000237303
0.00103352
-0.00587261
-2.30252e-05
0.00105158
-0.0057658
-0.000418083
0.000748743
-0.0054698
-0.00156174
0.000193629
-0.00451382
0.000100737
0.00111854
-0.00477959
-0.000202944
0.00105608
-0.0049962
-0.000413234
0.000975023
-0.00529291
-0.000469694
0.00101889
-0.00495041
0.000399944
0.0012079
-0.00520946
0.000770846
0.00130262
-0.00678442
4.16781e-05
0.00132928
-0.0073975
-0.0015645
0.000598445
-0.00440819
0.000217189
0.000148818
-0.00442556
8.51273e-05
0.000473541
-0.00388617
-0.00022931
0.000568975
-0.00339761
-0.000360199
0.000592001
-0.00236076
-0.000236554
0.000475645
-0.00166901
0.000470004
0.00025092
-0.00337308
0.000442529
4.52647e-05
-0.00525132
0.000748902
0.000868081
-0.00521208
-0.000780761
0.000903851
-0.00535446
2.02924e-05
-0.000191059
-0.000703829
0.000218341
-0.000193074
-0.00150686
9.86527e-05
-7.92457e-05
-0.00226466
-0.00015192
2.81763e-05
-0.00250959
-6.68984e-05
-0.000317119
-0.00212425
0.000106725
-0.000372896
-0.00118986
0.000264462
-0.000367351
-0.00037431
0.000112114
-0.000417597
-0.000784181
0.00067777
-0.000332231
-0.00344668
0.000579457
-0.000181893
-0.00387969
-2.91511e-05
-0.000219071
-0.000754312
-6.41579e-05
-0.000214013
-0.00098481
-8.11125e-06
-0.000235658
-0.00113294
-2.19466e-05
-0.000275181
-0.00114277
4.46652e-05
-0.000211962
-0.000961625
2.49122e-06
-0.000149111
-0.000543976
0.000141751
-0.000188737
-0.000423176
0.000103025
-0.000218649
-0.000504161
0.000144867
-0.000340983
-0.000125586
0.000395585
-0.000397604
-0.000542416
0.00058673
-0.000276108
-0.00296474
-6.56342e-05
-0.000149397
-0.00072235
-3.03632e-05
-0.000149175
-0.000982248
-2.46715e-05
-0.000134768
-0.00135405
-3.50711e-05
-0.000133447
-0.000748595
-3.40875e-05
-0.000153107
-0.000490522
-6.19888e-05
-0.000159388
-0.000531213
-3.65564e-05
-0.000157811
0.000181831
1.71823e-05
-0.000160311
0.000192089
7.44288e-05
-0.000169101
-0.000136112
0.000150614
-0.000183729
-0.000472112
0.000243068
-0.000196337
-0.000128795
0.000262382
-0.000114456
-0.00155583
1.18127e-06
-6.81249e-05
-0.00067183
-2.01153e-05
-6.51905e-05
-0.000471205
-1.4744e-05
-6.59187e-05
-0.000194434
-1.06239e-05
-6.43204e-05
-0.000337698
-2.76274e-05
-5.89966e-05
-9.33758e-05
-1.75113e-05
-6.37532e-05
0.000182766
-4.3118e-05
-7.11893e-05
0.00052096
-2.11634e-05
-7.79855e-05
0.000623302
-1.66869e-05
-8.4843e-05
0.000248568
1.14461e-05
-9.39353e-05
8.30583e-05
3.20547e-05
-9.47467e-05
-0.000954859
3.49125e-05
-7.60737e-05
-0.000593519
6.13706e-06
-4.16445e-05
-0.000751695
-0.00171228
7.05718e-05
-0.00252975
-0.00167512
4.81827e-05
-0.00327976
-0.00150883
-3.39179e-06
-0.00298626
-0.000860675
0.000146987
-0.00402976
-0.00156164
0.000183737
-0.00363569
-0.00162649
-2.48166e-06
-0.00285563
-0.000883385
0.000428871
-0.00439874
-0.000895788
0.000284538
-0.00434061
-0.00132978
0.000232174
-0.00402182
-0.00164168
6.06231e-05
-0.00340473
-0.0004176
0.000677672
-0.00484099
-0.000532728
0.000608295
-0.00480599
-0.000795323
0.000374051
-0.00467011
-0.00118396
0.00028107
-0.0041564
-0.00156169
0.000100154
-0.00358047
-0.000272103
0.000829413
-0.0054518
-0.000317666
0.000581218
-0.00545648
-0.000555218
0.000582339
-0.00536554
-0.000753017
0.000451069
-0.00525992
-0.00107478
0.000252385
-0.00468672
-0.00142365
8.43713e-05
-0.00413364
-0.000339124
0.00105991
-0.00561781
-0.000577681
0.000925539
-0.00573218
-0.000423508
0.000823379
-0.00596978
-0.000291303
0.000805158
-0.00615269
-0.000506819
0.000679268
-0.00573053
-0.000791582
0.000171584
-0.00523197
-0.00135946
1.24217e-05
-0.00502643
0.000165017
0.0013215
-0.00547373
-0.000184717
0.0011097
-0.00583246
-0.000440851
0.00101512
-0.00594444
-0.000411154
0.00104607
-0.00602157
7.66369e-05
0.00126077
-0.00575849
0.000318404
0.00113344
-0.00569805
-0.00054771
0.000674954
-0.00536173
-0.00144206
0.000217234
-0.0048535
3.63291e-05
0.00112775
-0.0048716
-5.57918e-06
0.00114616
-0.00477896
-0.00030843
0.0010181
-0.00496015
-0.000425385
0.000953442
-0.00516228
-0.000200542
0.00106879
-0.00484731
0.00060808
0.00127452
-0.00531943
0.000774089
0.00121137
-0.00699807
-9.62038e-06
0.00122222
-0.00726275
-0.00132164
0.000673477
-0.00454078
0.000150749
6.6567e-05
-0.00427493
0.000246079
0.000237022
-0.00421678
0.000186656
0.000352686
-0.00375788
-0.000287413
0.000489982
-0.0031601
-0.000284487
0.000489778
-0.00215731
-0.000151464
0.000372872
-0.00153277
0.000433462
0.000114819
-0.00361163
0.00044501
9.86129e-05
-0.00481475
0.000629105
0.000967011
-0.00522657
-0.000291345
0.000885911
-0.00536957
4.21992e-05
-0.000115266
-0.00106176
5.95357e-05
-0.0001519
-0.000868697
0.000110454
-0.000172994
-0.00153167
4.81704e-05
-4.24452e-05
-0.00226416
-8.02737e-05
-0.000207239
-0.00249453
-4.55234e-05
-0.000402888
-0.00204624
9.30121e-05
-0.000392823
-0.00111565
0.000203399
-0.000454993
-0.000437288
0.000241757
-0.000504046
-0.000709255
0.000610743
-0.000460469
-0.00338326
0.000996746
-0.000278059
-0.00401164
-0.000143556
-0.000196026
-0.00041881
-2.44738e-05
-0.000196234
-0.000777981
-9.45373e-05
-0.000190488
-0.000960114
-6.13164e-07
-0.000237829
-0.00120475
9.04008e-05
-0.000280218
-0.00119901
8.22121e-05
-0.000235458
-0.00101948
1.52413e-05
-0.000207793
-0.000576719
0.000149603
-0.000252397
-0.000521848
0.000105566
-0.0002558
-0.000620481
0.000163245
-0.000363287
-0.000172534
0.000379859
-0.000386778
-0.000568537
0.000408442
-0.000276182
-0.00283462
-2.7289e-05
-0.000156509
-0.000848355
-7.82394e-05
-0.000146289
-0.000667112
-3.52008e-05
-0.000147838
-0.000948721
-8.03558e-06
-0.00013882
-0.00135127
-1.3249e-05
-0.000135926
-0.000780154
-3.23138e-05
-0.000150804
-0.000484304
-7.23137e-05
-0.000159158
-0.000500671
-3.5897e-05
-0.000158131
0.000194384
2.58836e-05
-0.000154119
0.000134537
8.63574e-05
-0.000160743
-0.00023401
0.000150821
-0.000158447
-0.000628769
0.000234965
-0.000172705
-0.000270599
0.000211685
-0.000116871
-0.00164451
2.57862e-05
-7.13547e-05
-0.000602806
9.00412e-07
-6.7295e-05
-0.000670626
-2.38507e-05
-6.41986e-05
-0.000449074
-1.70084e-05
-6.51189e-05
-0.000176627
-1.10429e-05
-6.40169e-05
-0.000321635
-2.54707e-05
-5.85918e-05
-7.30666e-05
-1.80847e-05
-6.38418e-05
0.000193503
-4.1431e-05
-7.0888e-05
0.000555294
-2.59364e-05
-7.74227e-05
0.000641818
-9.86412e-06
-8.41619e-05
0.000248658
1.57498e-05
-9.36401e-05
6.62018e-05
3.32581e-05
-9.37388e-05
-0.000970452
2.86729e-05
-7.50913e-05
-0.000588745
-1.89119e-06
-4.20337e-05
-0.00070777
-0.00163132
-0.000105798
-0.00256916
-0.00157216
3.6615e-05
-0.00314747
-0.00164495
7.26771e-05
-0.0024663
-0.000823675
0.000147103
-0.00383049
-0.00159663
6.44391e-05
-0.0033126
-0.00159886
8.25257e-06
-0.00302214
-0.000940594
0.000253366
-0.00403453
-0.000894115
0.00025016
-0.00409786
-0.00143824
0.000162231
-0.00369194
-0.00158241
-4.62087e-05
-0.0028687
-0.000558277
0.000613209
-0.00435672
-0.000744723
0.000498233
-0.00440044
-0.000865997
0.000335824
-0.00437358
-0.00116438
0.000164771
-0.00414555
-0.00159643
7.54517e-05
-0.00344545
-0.00043326
0.000800902
-0.0047324
-0.000448417
0.000702821
-0.00480476
-0.000592003
0.000498073
-0.00489323
-0.000836573
0.000389692
-0.00469518
-0.00108082
0.000262569
-0.00431278
-0.00145487
9.79073e-05
-0.00364715
-0.000320776
0.000883408
-0.00539497
-0.000556952
0.000640537
-0.00553185
-0.00036104
0.000627607
-0.00556422
-0.000403255
0.000611551
-0.00541407
-0.000706174
0.000470916
-0.00527909
-0.000912055
0.00029706
-0.00477893
-0.00130369
5.18543e-05
-0.00424127
-1.93336e-05
0.00120666
-0.00536462
-0.000283856
0.0010369
-0.00563003
-0.000455466
0.000972076
-0.00586626
-0.000270558
0.000870209
-0.00617543
-0.000164082
0.000867755
-0.00610046
-0.000349927
0.000676389
-0.005567
-0.000675062
0.000194822
-0.00528702
-0.00135118
-8.21024e-06
-0.00510909
-0.000157505
0.00147376
-0.00540381
-0.000180519
0.00124405
-0.00543314
-0.000281543
0.00109451
-0.00593874
-0.000284744
0.00102443
-0.00606345
-0.000133707
0.00119992
-0.00602755
0.000348564
0.00132818
-0.00569372
0.000514103
0.00108879
-0.0058519
-0.000450691
0.000620163
-0.00532359
-0.00125626
0.000249891
-0.00516877
-0.000177334
0.0011155
-0.00496724
-6.46303e-05
0.00114366
-0.00455838
-0.000119087
0.00110107
-0.00455619
-0.000409215
0.000947474
-0.00483238
-0.000360869
0.000987144
-0.00500425
-1.76737e-06
0.00115077
-0.00487326
0.000605684
0.00124737
-0.00552766
0.000669051
0.000977703
-0.00697759
-8.17698e-05
0.00124055
-0.00711895
-0.00105641
0.000698347
-0.00447406
1.17855e-05
-0.000101273
-0.00394727
0.000308255
0.000129287
-0.00441592
9.16317e-05
0.000220544
-0.00406581
0.000108084
0.000292185
-0.00362
-0.000310344
0.000371192
-0.00281145
-0.000231272
0.000398599
-0.00199728
-1.15215e-05
0.000364507
-0.00167793
0.000541759
0.00012035
-0.00397173
0.000688583
0.000323767
-0.00461833
0.000353448
0.000950394
-0.00503376
0.00035841
0.000825016
-0.00555625
-8.6078e-05
-1.90666e-05
-0.001166
4.88459e-05
-0.000116569
-0.00117041
-5.13487e-06
-0.000100239
-0.00103085
8.21164e-05
-0.000100531
-0.00155632
0.000274349
-0.000140454
-0.00251489
-6.04765e-06
-0.000337455
-0.0024717
-6.1507e-05
-0.000428606
-0.00193371
8.85911e-05
-0.000444673
-0.00106496
0.00012119
-0.000494267
-0.000462691
0.000272517
-0.00056893
-0.000710066
0.000658234
-0.000553833
-0.00338586
0.000711585
-0.000162839
-0.00415195
-3.60052e-05
-0.000171874
-0.00091733
-0.00010389
-0.000185495
-0.000403898
-1.99765e-05
-0.000167426
-0.000816267
-9.45892e-05
-0.000180451
-0.000930939
2.1436e-05
-0.000257446
-0.00126221
7.35938e-05
-0.000280401
-0.00125997
7.81844e-05
-0.000245755
-0.00113202
2.66227e-05
-0.000252684
-0.000638951
0.000190782
-0.000290558
-0.000651989
0.000122522
-0.000269993
-0.000749939
0.000190202
-0.000372554
-0.000226139
0.000383152
-0.000378517
-0.000614389
0.000493384
-0.000294389
-0.00282193
2.50453e-05
-0.000171775
-0.000953908
-2.0626e-05
-0.000150849
-0.000822268
-9.44917e-05
-0.000141733
-0.000602577
-4.10505e-05
-0.000146893
-0.000916606
7.10037e-06
-0.000142718
-0.00136262
-5.31715e-07
-0.0001371
-0.000818797
-4.19288e-05
-0.00014746
-0.000472158
-8.54135e-05
-0.000160137
-0.000454682
-4.98626e-05
-0.000155081
0.000219272
4.18127e-05
-0.000157869
7.99861e-05
0.000106503
-0.000150332
-0.000332878
0.000155071
-0.000131982
-0.000791305
0.000215523
-0.00014963
-0.000424689
0.000165326
-0.000119395
-0.00169233
1.9937e-05
-7.04931e-05
-0.00054386
2.70606e-05
-7.06409e-05
-0.000626521
-1.79943e-06
-6.64118e-05
-0.000666614
-2.53269e-05
-6.32672e-05
-0.000425599
-1.9164e-05
-6.43439e-05
-0.000157136
-1.56358e-05
-6.37152e-05
-0.000300876
-2.50689e-05
-5.85226e-05
-5.33168e-05
-1.83429e-05
-6.40478e-05
0.000205006
-4.14447e-05
-7.04715e-05
0.000589787
-2.77212e-05
-7.68891e-05
0.000662267
-3.71134e-06
-8.32868e-05
0.000242016
1.98764e-05
-9.34445e-05
4.60311e-05
3.60742e-05
-9.29195e-05
-0.000988698
2.11203e-05
-7.41156e-05
-0.000577784
-9.44077e-06
-4.24701e-05
-0.000655859
-0.00161712
-1.79409e-05
-0.00231735
-0.00160802
-0.000112652
-0.0029832
-0.00154661
-0.00013172
-0.00253578
-0.00109424
0.000269173
-0.00351987
-0.00157189
4.93676e-05
-0.0031489
-0.00165468
7.90388e-05
-0.00248952
-0.00100972
0.000251285
-0.00381533
-0.00100315
0.00015762
-0.00381463
-0.00148013
8.28457e-05
-0.0033453
-0.00156288
9.34128e-06
-0.00305101
-0.000719155
0.000477917
-0.00410964
-0.000741162
0.00034891
-0.00413684
-0.00101108
0.000263252
-0.0040538
-0.00135431
0.000186932
-0.00373515
-0.00152239
-2.62943e-05
-0.00291644
-0.000525954
0.000696625
-0.00437911
-0.000523243
0.000661489
-0.00444515
-0.000580175
0.000476211
-0.00455266
-0.000878677
0.000318243
-0.00448495
-0.00103648
0.000140392
-0.00425482
-0.00153817
0.000112516
-0.00347466
-0.000310438
0.000873322
-0.00481703
-0.000388091
0.000751446
-0.00494989
-0.000399475
0.000649802
-0.00491806
-0.000561756
0.000594747
-0.00493978
-0.000694753
0.000355977
-0.00480001
-0.0010298
0.000268244
-0.00436537
-0.0013992
0.000130459
-0.00368211
-0.000246534
0.00102073
-0.00536079
-0.000376184
0.000840189
-0.00550229
-0.000536415
0.000739073
-0.00556237
-0.000405093
0.000700664
-0.0055188
-0.000242532
0.000649497
-0.0055142
-0.000548525
0.00045872
-0.00524215
-0.000601105
0.000203893
-0.00500493
-0.00130613
7.78405e-05
-0.00436417
-0.000228072
0.00118908
-0.00545987
-0.000274645
0.00114127
-0.00537487
-0.000335912
0.00102717
-0.00563076
-0.000290114
0.000968517
-0.0059592
-0.000249685
0.000945556
-0.00613726
-8.22426e-05
0.000938958
-0.00593222
-0.000307243
0.000775782
-0.00532661
-0.000610921
0.000232491
-0.00536749
-0.00117613
4.43132e-05
-0.00523353
-0.000383179
0.00139403
-0.00563169
-0.000210876
0.00132431
-0.00533782
-0.000304352
0.00128098
-0.00543434
-0.000508178
0.00106865
-0.00588399
-0.000389821
0.00112667
-0.00596125
5.45338e-05
0.00125577
-0.00601145
0.000530484
0.0012943
-0.00582404
0.000509009
0.00101719
-0.00608888
-0.000317111
0.000708706
-0.00554706
-0.00112895
0.000278122
-0.00537436
-0.000243506
0.00107089
-0.00535566
0.000494945
0.00106412
-0.00507439
-3.3853e-05
0.00108132
-0.00441315
-0.000115767
0.00102613
-0.004411
-0.000356518
0.000948036
-0.0047471
-0.000236391
0.000983218
-0.00483158
0.000174988
0.00119165
-0.00500405
0.000900859
0.00106057
-0.00596962
0.000651276
0.00116915
-0.00686888
-0.000353788
0.0011313
-0.00684467
-0.000749513
0.000805075
-0.00417121
9.31565e-05
-0.000268525
-0.00428975
9.16136e-05
-3.82192e-05
-0.00382253
0.000210559
7.10437e-05
-0.00448211
6.33121e-05
0.000199686
-0.00395451
0.000131614
0.00022194
-0.00332801
-0.000278567
0.000429372
-0.0025697
-0.000219816
0.000406127
-0.0018806
0.000130725
0.000414367
-0.00201408
0.000509818
0.000192443
-0.00422904
0.000864187
0.000553569
-0.00481318
0.000507465
0.000804425
-0.0048624
0.00049869
0.000591289
-0.00593464
1.26771e-05
-0.000126877
-0.00163878
-1.77399e-05
-5.59488e-05
-0.00131278
3.95077e-05
-0.000139023
-0.00119111
-1.29493e-05
-6.08988e-05
-0.00115213
7.31462e-05
-7.81713e-05
-0.00167031
0.000162639
-0.000250242
-0.00269115
7.63613e-06
-0.000382084
-0.00244767
-7.73389e-05
-0.000450181
-0.00182424
0.000201462
-0.000450683
-0.00111922
1.69903e-05
-0.000548631
-0.000377459
0.00022548
-0.000619994
-0.000679183
0.00077574
-0.000609935
-0.00333136
0.000847452
-0.000206239
-0.00429978
0.000142945
-0.000179989
-0.00145502
-8.86911e-06
-0.000156863
-0.000957719
-3.92633e-05
-0.000166336
-0.000460217
-1.85891e-05
-0.000159382
-0.000859797
-5.40127e-05
-0.000182834
-0.000944438
-1.14724e-06
-0.000279864
-0.00126213
4.81667e-05
-0.000280759
-0.00131506
3.37832e-05
-0.000256525
-0.00124737
2.19578e-05
-0.000300272
-0.000701058
0.000217366
-0.000319418
-0.000778118
0.000176097
-0.000265893
-0.000926194
0.000216477
-0.000375574
-0.000290489
0.000433292
-0.000387032
-0.000739515
0.00045195
-0.000302508
-0.00280604
2.76829e-05
-0.000170055
-0.00084263
1.92074e-05
-0.000166722
-0.000930182
-2.35156e-05
-0.000146906
-0.000795379
-8.98982e-05
-0.000135352
-0.000549547
-5.35684e-05
-0.000146376
-0.000878544
-2.16977e-06
-0.00014606
-0.00136713
-1.83812e-06
-0.000137549
-0.000851939
-5.43581e-05
-0.000143264
-0.000453015
-9.93126e-05
-0.000158299
-0.000393596
-5.79213e-05
-0.000157699