/*--------------------------------*- C++ -*----------------------------------*\
  =========                 |
  \\      /  F ield         | OpenFOAM: The Open Source CFD Toolbox
   \\    /   O peration     | Website:  https://openfoam.org
    \\  /    A nd           | Version:  7
     \\/     M anipulation  |
\*---------------------------------------------------------------------------*/
FoamFile
{
    version     2.0;
    format      ascii;
    class       volVectorField;
    location    "2.5";
    object      U;
}
// * * * * * * * * * * * * * * * * * * * * * * * * * * * * * * * * * * * * * //

dimensions      [0 1 -1 0 0 0 0];

internalField   nonuniform List<vector> 
18750
(
(0.458856 -0.512467 -0.352139)
(-0.00677509 -1.36773 -0.205532)
(0.35879 -0.210761 -1.96698)
(0.441508 -0.542581 -0.321887)
(1.08822 -1.16576 -0.451429)
(-0.276265 -0.825224 -1.33984)
(-0.0339073 -1.40415 -0.321442)
(0.442185 -0.331703 -2.45986)
(0.3382 -0.234016 -1.91516)
(0.433336 -0.561884 -0.308641)
(3.68646 -1.92991 1.12924)
(0.0880252 0.0153812 -0.149524)
(0.932609 -2.05835 -0.731264)
(-0.113955 -0.36428 -2.00974)
(-0.383794 -0.906229 -1.43656)
(-0.0207277 -1.37387 -0.438409)
(-0.0843315 0.147044 -2.53173)
(0.458548 -0.409516 -2.39461)
(0.319408 -0.249163 -1.85551)
(0.414492 -0.545286 -0.281361)
(5.32171 0.789388 0.95443)
(2.42306 -1.05436 0.853341)
(3.39532 -2.80012 0.959261)
(0.171881 0.152612 -1.11477)
(0.0388749 -0.0859041 -0.392848)
(0.770178 -2.65986 -0.939802)
(-0.364525 -0.359068 -1.84736)
(-0.163291 -0.426911 -2.12085)
(-0.487508 -0.959792 -1.50508)
(0.0188839 -1.31028 -0.597098)
(-0.207917 -0.127516 -2.00786)
(-0.0980595 0.149137 -2.49603)
(0.43441 -0.458107 -2.32593)
(0.303816 -0.264515 -1.7886)
(0.445343 -0.447367 -0.267233)
(2.9139 -0.0600448 0.382025)
(4.59857 0.114971 2.03041)
(5.57601 -0.0883078 1.5761)
(1.56751 0.964291 0.926537)
(2.06337 -2.10923 0.714266)
(3.10443 -3.29601 0.970651)
(-0.218197 0.228649 -0.0145509)
(0.0711305 0.0572883 -1.35719)
(0.0573087 -0.1869 -0.612963)
(0.701235 -2.84468 -1.04406)
(-0.338234 -0.0123855 -1.8607)
(-0.381164 -0.388551 -1.95283)
(-0.211024 -0.445532 -2.16526)
(-0.57823 -0.985742 -1.54695)
(0.0445412 -1.28891 -0.731172)
(-0.378837 0.139351 -1.86908)
(-0.18845 -0.0400368 -2.02543)
(-0.0715632 0.167211 -2.45767)
(0.408044 -0.518752 -2.24537)
(0.290055 -0.278026 -1.71885)
(0.482054 -0.348517 -0.266702)
(3.0236 1.66088 -0.224094)
(3.78861 0.700595 0.654461)
(2.93852 0.178716 0.209883)
(3.60516 -0.631131 3.25371)
(4.52321 -0.371308 1.91864)
(5.61972 -0.28581 1.42895)
(0.363771 0.186489 0.174815)
(1.49635 0.853485 0.977888)
(1.78789 -2.43426 0.58996)
(2.62413 -3.83569 0.946963)
(-0.0385335 0.301025 -0.0809006)
(-0.175709 0.200993 -0.200467)
(-0.0413078 -0.045 -1.53345)
(0.0525513 -0.32838 -0.818012)
(0.785167 -2.62083 -1.18972)
(-0.212336 0.139661 -1.52976)
(-0.310522 0.0634599 -1.82032)
(-0.378253 -0.370268 -1.96592)
(-0.237065 -0.434155 -2.14737)
(-0.649007 -0.984698 -1.57012)
(0.0190181 -1.32464 -0.809646)
(-0.0972898 0.812004 -1.61722)
(-0.361568 0.207894 -1.86757)
(-0.160778 0.0492673 -2.034)
(-0.0464174 0.181513 -2.4233)
(0.378956 -0.569496 -2.1661)
(0.277004 -0.292269 -1.65083)
(0.492317 -0.304735 -0.278595)
(3.1462 1.29123 0.0250298)
(3.65598 0.877023 1.16219)
(2.94613 1.51231 -0.180025)
(4.04174 0.0144688 1.0954)
(3.72693 0.206629 1.03553)
(3.13835 0.685583 0.00616096)
(2.69209 -0.713699 2.14654)
(3.70276 -0.689917 3.22527)
(4.20882 -0.715076 2.1336)
(5.43054 -0.691304 1.34703)
(1.17738 -0.063958 -0.175729)
(0.338574 0.219142 -0.0662963)
(1.49179 0.766368 0.902806)
(1.63021 -2.57232 0.526164)
(2.10397 -4.37133 0.752226)
(0.608988 0.0506524 -0.0978959)
(-0.0311578 0.298213 0.107182)
(-0.109268 0.146037 -0.395131)
(-0.155508 -0.172266 -1.66058)
(0.0219316 -0.506659 -1.02838)
(0.927478 -2.33621 -1.24725)
(0.390846 0.367193 -1.31131)
(-0.165762 0.142908 -1.51541)
(-0.289547 0.134688 -1.75537)
(-0.352149 -0.327912 -1.89779)
(-0.248731 -0.423915 -2.09747)
(-0.688261 -0.960868 -1.58797)
(-0.059036 -1.40245 -0.805459)
(-0.0410732 0.306913 -1.41448)
(-0.091216 0.753181 -1.60674)
(-0.340738 0.270807 -1.8654)
(-0.134393 0.112476 -2.02844)
(-0.0281167 0.183553 -2.38348)
(0.350609 -0.614425 -2.08689)
(0.264763 -0.307005 -1.58794)
(0.538317 -0.207225 -0.32549)
(2.71553 1.28826 0.0621955)
(3.82283 0.846781 0.206174)
(3.06937 1.43376 0.0447982)
(3.86539 0.0112415 1.07683)
(3.82175 0.532484 1.18213)
(2.89091 1.42127 -0.106487)
(4.00002 0.394193 1.67559)
(4.18279 -0.273713 1.07805)
(3.63367 0.0471505 1.12568)
(3.47655 1.59402 -0.519048)
(2.0985 -0.228894 1.5427)
(2.23587 -1.10789 2.26288)
(3.84092 -0.636679 2.70992)
(3.95293 -1.36914 2.53851)
(5.1261 -1.01325 1.36327)
(1.55422 -0.0387008 -0.23627)
(1.1872 -0.292984 -0.130988)
(0.306551 0.241346 0.0614482)
(1.34142 0.512207 0.888576)
(1.41155 -2.69599 0.25874)
(1.7409 -4.70325 0.663836)
(0.897976 0.0743739 -0.536698)
(0.565439 0.0879732 -0.0957366)
(0.000192505 0.19706 0.186972)
(-0.0508231 0.0364275 -0.461215)
(-0.242871 -0.32316 -1.72637)
(-0.0479501 -0.720446 -1.1988)
(0.989895 -2.23393 -1.2285)
(0.419639 0.36504 -1.12999)
(0.39175 0.337104 -1.21322)
(-0.137609 0.146399 -1.48925)
(-0.254566 0.176627 -1.68412)
(-0.313822 -0.271775 -1.77733)
(-0.24806 -0.429855 -2.03856)
(-0.714235 -0.911768 -1.60269)
(-0.161987 -1.51658 -0.697873)
(0.17267 0.379549 -1.27205)
(-0.0408634 0.284321 -1.42725)
(-0.0847146 0.69992 -1.59589)
(-0.322406 0.308388 -1.86186)
(-0.104981 0.174468 -2.00719)
(-0.0152523 0.176086 -2.34466)
(0.325704 -0.644889 -2.01625)
(0.25194 -0.324529 -1.53329)
(0.605352 -0.142649 -0.350141)
(2.41529 1.46806 -0.0123759)
(3.1175 1.27364 0.209846)
(2.6944 1.31663 0.017746)
(3.88495 0.440602 0.791822)
(3.87253 0.574951 0.120848)
(3.1907 1.23505 0.0437132)
(4.06354 0.231729 1.25367)
(3.79809 -0.540141 1.19722)
(3.8973 0.251848 0.816759)
(2.97357 1.40256 -0.109973)
(4.00236 0.157297 1.61645)
(3.8017 0.122923 1.65806)
(4.12487 -0.253725 1.10989)
(3.39483 -1.15593 2.36253)
(3.92031 2.18354 -1.12288)
(1.86341 0.231505 1.58975)
(1.86126 -0.117851 1.47192)
(2.06535 -1.05158 2.168)
(3.79489 -0.66666 2.1891)
(3.59055 -1.96755 2.90684)
(4.87943 -0.887768 1.46063)
(1.54378 0.0135091 0.248187)
(1.53885 -0.111176 -0.306678)
(1.02843 -0.579871 -0.335783)
(0.259137 0.192243 -0.0224151)
(1.13998 0.294475 0.510542)
(1.28293 -2.7472 0.0257648)
(1.4207 -4.49397 0.676851)
(0.919117 0.38961 -1.01381)
(0.840986 0.0258682 -0.504281)
(0.504575 0.0775683 -0.0954821)
(0.025008 0.0166861 0.0748366)
(-0.0110958 -0.110055 -0.414132)
(-0.33748 -0.507166 -1.81891)
(-0.136349 -0.926089 -1.30639)
(0.925348 -2.35103 -1.15688)
(0.501139 0.339565 -1.01314)
(0.411458 0.295269 -1.15702)
(0.444658 0.328002 -1.14423)
(-0.117926 0.143616 -1.43466)
(-0.208141 0.20343 -1.58439)
(-0.264597 -0.230906 -1.6357)
(-0.236173 -0.464605 -1.98308)
(-0.712897 -0.885674 -1.58648)
(-0.25403 -1.62335 -0.531556)
(0.289246 0.212759 -1.25933)
(0.177993 0.354871 -1.26417)
(-0.0390661 0.267462 -1.44006)
(-0.0886025 0.65398 -1.58325)
(-0.299205 0.345493 -1.85438)
(-0.0748159 0.223965 -1.97648)
(-0.00705861 0.163189 -2.30772)
(0.305979 -0.659619 -1.96413)
(0.236438 -0.346688 -1.49077)
(0.646452 -0.112124 -0.368731)
(2.42642 1.13715 0.0623164)
(2.85083 1.15191 0.284956)
(2.4469 1.40393 0.00302936)
(3.4473 0.558267 0.621516)
(3.24901 0.729047 0.248501)
(2.83198 1.12402 -0.0389148)
(3.81003 0.634216 0.936089)
(3.85624 0.121944 0.766499)
(3.99453 -0.00595753 0.245952)
(3.38378 1.17623 0.061227)
(4.05555 0.173354 1.4401)
(4.01988 0.160939 1.25524)
(3.84504 -0.0350681 1.03829)
(3.85645 -0.794697 0.506001)
(3.25757 1.51256 -0.210221)
(3.70451 0.00398877 1.72532)
(3.52174 0.0743656 2.40444)
(3.62484 -0.803751 1.73707)
(3.95505 -1.49765 1.77142)
(3.38884 -2.33213 3.30241)
(4.17063 2.46253 -1.45197)
(2.34888 -0.0882197 1.59401)
(1.86711 0.278512 1.49016)
(1.68851 0.0179838 1.34829)
(1.82209 -1.28944 1.90904)
(3.74667 -1.15119 1.54153)
(3.26777 -2.22171 2.93375)
(4.67224 -0.565769 1.00742)
(1.54345 -0.38778 0.242476)
(1.63939 -0.0687157 0.270546)
(1.52957 -0.29174 -0.427807)
(0.860991 -0.663445 -0.408723)
(0.16439 0.0425552 -0.311405)
(0.905123 0.10972 0.0693881)
(1.05768 -2.75039 -0.575678)
(0.872392 -3.96756 0.704915)
(0.680412 0.259449 -0.829782)
(0.915459 0.185468 -1.04364)
(0.72928 -0.137782 -0.442703)
(0.46372 0.102039 -0.119137)
(0.0286436 -0.194943 -0.246555)
(0.0199211 -0.233469 -0.39029)
(-0.425623 -0.709052 -1.89561)
(-0.261466 -1.10151 -1.34018)
(0.616073 -2.59366 -1.09281)
(0.9388 0.0753057 -0.807117)
(0.536031 0.240523 -0.985256)
(0.399814 0.181449 -1.16966)
(0.48605 0.330762 -1.07835)
(-0.0830145 0.159321 -1.35055)
(-0.149313 0.223455 -1.44434)
(-0.218748 -0.228688 -1.50048)
(-0.216546 -0.500878 -1.91054)
(-0.706763 -0.843998 -1.5365)
(-0.3056 -1.68642 -0.405271)
(0.16716 0.142982 -1.42938)
(0.284238 0.196961 -1.26799)
(0.179458 0.337637 -1.25418)
(-0.0360045 0.255619 -1.45355)
(-0.0841107 0.619583 -1.5677)
(-0.280943 0.367433 -1.8457)
(-0.0416055 0.256748 -1.93748)
(-0.0034025 0.143497 -2.27169)
(0.290324 -0.666256 -1.94181)
(0.220825 -0.367248 -1.4614)
(0.677445 -0.0994629 -0.394894)
(2.11152 1.41618 -0.063159)
(2.72351 1.08879 0.126594)
(2.50208 0.961788 0.0777465)
(3.10627 0.684623 0.270322)
(2.93117 0.920864 0.331655)
(2.69245 0.932773 -0.117419)
(3.45427 0.373631 0.683499)
(3.50616 0.286032 0.573171)
(3.24329 0.490685 0.172586)
(3.0025 0.834519 -0.0871752)
(3.75821 -0.155306 1.20455)
(3.87789 0.240056 0.916568)
(3.95047 -0.171719 0.666316)
(4.03743 -0.199568 0.28002)
(3.53569 1.08417 0.0965442)
(4.07118 0.16085 1.45684)
(4.09543 0.0786594 1.4316)
(4.01382 0.0175961 1.30158)
(3.73967 -1.29838 1.28515)
(3.61143 -1.145 0.815727)
(3.51589 1.41954 -0.232545)
(3.26542 -0.461395 1.75416)
(3.58732 -0.130202 1.82657)
(3.59163 -0.536637 1.80046)
(3.50884 -0.84294 1.94185)
(3.63735 -2.58652 2.55687)
(3.76196 -2.75627 3.24269)
(4.26834 2.29751 -1.30457)
(2.70413 -0.935587 1.15171)
(2.34514 -0.095443 1.70207)
(1.84689 0.254826 1.45649)
(1.47792 -0.0472893 1.27936)
(1.67504 -1.57465 1.18246)
(3.43167 -1.93553 0.977623)
(2.63742 -2.969 3.07689)
(4.30232 -0.502364 0.374274)
(0.883368 -0.187201 0.0819632)
(1.53274 -0.31332 0.359185)
(1.69133 -0.0277086 0.201416)
(1.50083 -0.255554 -0.574356)
(0.694428 -0.75757 -0.683991)
(0.105953 -0.129845 -0.763191)
(0.787829 0.0713956 -0.317658)
(1.12961 -2.53161 -0.890114)
(0.854953 -3.6908 0.642834)
(0.682903 0.0194755 -0.90981)
(0.705578 0.102692 -1.00366)
(0.879189 0.100936 -1.10255)
(0.685157 -0.0616049 -0.49611)
(0.445898 0.12018 -0.137867)
(0.0412927 -0.329937 -0.576245)
(0.040326 -0.374107 -0.49088)
(-0.518995 -0.880265 -1.96204)
(-0.420737 -1.21911 -1.29267)
(0.418123 -2.63698 -1.19828)
(0.67808 0.0566205 -1.02949)
(0.910821 -0.00985197 -0.852428)
(0.532522 0.182128 -0.985781)
(0.38046 0.0904251 -1.17712)
(0.507702 0.331933 -1.05339)
(-0.0473727 0.197785 -1.26201)
(-0.091603 0.238177 -1.29109)
(-0.182469 -0.271051 -1.37218)
(-0.161104 -0.521566 -1.79149)
(-0.68627 -0.819495 -1.41315)
(-0.270452 -1.68488 -0.404814)
(0.339298 0.0207483 -1.40458)
(0.168679 0.149555 -1.4231)
(0.277574 0.166786 -1.28553)
(0.181736 0.323928 -1.24378)
(-0.0325659 0.245978 -1.4667)
(-0.102086 0.590482 -1.55168)
(-0.270742 0.389921 -1.8365)
(-0.0216997 0.281131 -1.8885)
(-0.005554 0.116748 -2.24084)
(0.273953 -0.680523 -1.94107)
(0.206888 -0.38387 -1.4411)
(0.698598 -0.0991428 -0.421816)
(1.92768 1.15971 0.0926078)
(2.53128 1.08514 0.0897044)
(2.14685 1.36291 -0.120699)
(2.86831 0.619014 0.185757)
(2.81348 0.759403 0.155202)
(2.54893 0.806436 0.098316)
(3.11 0.569716 0.548975)
(3.17014 0.421542 0.31328)
(2.99679 0.684029 0.368805)
(2.74013 0.945089 -0.171842)
(3.52752 0.289926 0.631242)
(3.58264 -0.00571054 0.709032)
(3.55262 0.0591868 0.488629)
(3.27248 -0.0997973 0.121757)
(3.08897 0.795591 -0.100988)
(3.78238 0.0859109 1.18844)
(3.86736 0.286433 1.04964)
(3.91946 -0.315724 0.909728)
(3.93078 -0.423361 0.665405)
(3.87201 -0.229696 0.0177478)
(3.73826 0.674434 0.241583)
(3.67855 -0.0471413 1.60582)
(3.9935 -0.0661389 1.51033)
(3.98441 -0.245429 1.74986)
(3.89233 -0.81053 1.63645)
(3.48706 -1.8496 1.24042)
(3.4554 -1.41419 1.00013)
(3.70688 0.848136 -0.0701693)
(3.13907 -0.37205 2.01089)
(3.30684 -0.151653 1.95248)
(3.59067 -0.188718 1.79023)
(3.38339 -0.347389 2.04588)
(3.04511 -1.92934 2.25047)
(3.4677 -3.11309 2.57392)
(3.9827 -3.03789 2.99131)
(4.4012 1.59863 -0.80095)
(2.97079 -1.09818 0.474765)
(2.55821 -0.632591 1.43009)
(2.37941 -0.0873006 1.58091)
(1.77579 0.21445 1.34463)
(1.23929 -0.0930344 1.11452)
(1.50499 -1.8957 0.302294)
(2.75831 -2.58793 0.685267)
(1.52898 -4.04898 3.30316)
(3.27906 -1.85936 0.812177)
(0.500922 0.331298 -0.408253)
(0.923521 -0.312024 -0.814303)
(1.45492 -0.297175 0.380167)
(1.63852 -0.319652 -0.127942)
(1.27644 -0.680761 -0.995295)
(0.468455 -0.953906 -1.03198)
(0.100576 -0.250261 -1.25689)
(0.696837 0.0574415 -0.686287)
(1.15468 -2.43983 -0.989342)
(0.915503 -3.69782 0.30108)
(0.496114 0.0257509 -1.02601)
(0.668604 -0.0782375 -0.849257)
(0.732523 0.00222232 -1.14957)
(0.787766 -0.0242328 -1.15646)
(0.633069 -0.139461 -0.656875)
(0.4157 0.051051 -0.324171)
(0.0589146 -0.434832 -0.929704)
(0.0553826 -0.483101 -0.708939)
(-0.623807 -1.00492 -2.02274)
(-0.602507 -1.35205 -1.17044)
(0.480772 -2.52282 -1.48987)
(0.537626 0.326383 -1.06051)
(0.661029 -0.0152918 -1.01804)
(0.903182 -0.123713 -0.856301)
(0.543626 0.0894097 -0.990216)
(0.372169 0.0619139 -1.1637)
(0.538787 0.320343 -1.06756)
(-0.0116219 0.249019 -1.18709)
(-0.0328199 0.237747 -1.16897)
(-0.166648 -0.330274 -1.23755)
(-0.0729749 -0.515344 -1.62956)
(-0.63954 -0.743794 -1.32607)
(-0.169758 -1.59259 -0.521971)
(0.445647 -0.13406 -1.36923)
(0.332008 0.028764 -1.38828)
(0.171614 0.15704 -1.41683)
(0.279899 0.140953 -1.29812)
(0.184443 0.304222 -1.23866)
(-0.0280397 0.237201 -1.48119)
(-0.0929198 0.560428 -1.54294)
(-0.251099 0.402733 -1.84191)
(-0.0112569 0.280927 -1.85135)
(-0.0126149 0.0852615 -2.21806)
(0.229755 -0.717111 -1.93226)
(0.192073 -0.394525 -1.42816)
(0.71453 -0.0963331 -0.451553)
(1.78261 1.20353 0.120667)
(2.23037 1.22674 -0.0743666)
(2.16378 0.6396 0.0636425)
(2.70157 0.552659 0.151827)
(2.56419 0.89796 0.100415)
(2.21701 1.19417 -0.0681818)
(2.91698 0.523613 0.312884)
(2.90176 0.412329 0.210024)
(2.83462 0.623169 0.135176)
(2.59706 0.700692 0.0550228)
(3.16386 0.151116 0.646059)
(3.17121 -0.189048 0.605478)
(3.211 0.228038 0.318346)
(3.04114 0.524039 0.361957)
(2.81067 0.806748 -0.151182)
(3.47307 -0.145834 1.01698)
(3.55126 -0.355307 0.767282)
(3.57491 -0.259378 0.714363)
(3.53769 -0.261087 0.373254)
(3.24374 0.0836135 0.189034)
(3.16884 0.508931 -0.136122)
(3.66484 0.136768 1.26852)
(3.82421 0.171374 1.13177)
(3.9002 -0.208153 1.0601)
(3.98775 -0.88862 1.01716)
(3.78446 -0.785065 0.708024)
(3.7083 -0.333994 -0.180185)
(3.93102 0.186703 0.208381)
(3.51269 -0.615965 1.82651)
(3.79861 -0.358734 1.60608)
(3.9695 -0.1748 1.58008)
(4.07434 -0.297856 1.62658)
(3.39102 -1.94065 1.98888)
(3.00867 -2.59788 1.40765)
(3.53255 -1.11124 0.737301)
(3.79653 0.167899 0.0793755)
(3.28765 -0.462303 2.06739)
(3.10532 -0.655743 1.97778)
(3.32607 -0.217703 1.8804)
(3.56311 -0.243958 1.85475)
(3.28447 -0.580653 2.21121)
(2.73346 -2.35103 2.17643)
(3.55184 -3.10543 2.43326)
(3.85044 -3.07254 2.82279)
(4.32901 0.806564 -0.340678)
(2.67864 -0.781706 0.241538)
(2.58054 -1.3726 0.655157)
(2.24086 -1.15369 0.973285)
(2.26284 -0.0904383 1.49663)
(1.60846 0.0258982 1.07058)
(1.06401 -0.226304 0.886508)
(1.4615 -2.06942 -0.429116)
(2.27051 -2.73536 1.02427)
(1.32176 -4.02207 3.04877)
(2.24089 -3.02519 1.13471)
(0.653429 0.0968528 -0.703335)
(0.556802 0.398162 -0.346052)
(0.93752 -0.340232 -0.858654)
(1.42019 -0.482496 0.287723)
(1.42509 -0.964671 -0.867359)
(1.16391 -0.811218 -1.2539)
(0.415546 -0.977174 -1.10115)
(0.067598 -0.39515 -1.6156)
(0.633317 0.0378489 -0.944362)
(0.970668 -2.35501 -1.60345)
(-0.280842 -3.53012 0.0495624)
(0.318999 0.197242 -0.848035)
(0.517557 0.0979259 -0.908628)
(0.643156 -0.016731 -0.778001)
(0.775579 -0.152503 -1.18673)
(0.770001 -0.134111 -1.16089)
(0.610032 -0.214871 -0.910774)
(0.396221 -0.045588 -0.672269)
(0.0484402 -0.534335 -1.21306)
(0.0513773 -0.585918 -0.918416)
(-0.737121 -1.07997 -2.08534)
(-0.805703 -1.44697 -1.06171)
(0.258162 -2.53306 -1.56468)
(0.575305 0.0596794 -1.0324)
(0.520589 0.324385 -1.0478)
(0.63629 -0.041484 -1.02029)
(0.831831 -0.297798 -0.917078)
(0.54382 0.0109689 -0.994439)
(0.363153 0.0168891 -1.14519)
(0.562647 0.281154 -1.09992)
(0.0330793 0.289212 -1.14493)
(-0.0243149 0.153027 -1.14549)
(-0.165245 -0.40596 -1.08183)
(0.038241 -0.51788 -1.42707)
(-0.509836 -0.682413 -1.23184)
(-0.0537685 -1.50909 -0.654251)
(0.373729 -0.257536 -1.50004)
(0.439377 -0.136165 -1.35184)
(0.325585 0.037884 -1.37182)
(0.175311 0.160252 -1.41062)
(0.282054 0.137987 -1.30503)
(0.186132 0.288914 -1.23682)
(-0.0302829 0.226538 -1.49729)
(-0.108322 0.564687 -1.51876)
(-0.227596 0.432763 -1.84511)
(-0.0111189 0.262234 -1.84855)
(-0.0226152 0.0524089 -2.20246)
(0.154381 -0.775373 -1.91225)
(0.179366 -0.397849 -1.42038)
(0.730836 -0.0889892 -0.480843)
(1.76751 0.954224 -0.0243036)
(2.15259 0.978955 -0.0243023)
(1.82768 1.13426 0.0993452)
(2.54869 0.407148 0.153298)
(2.34214 0.976592 -0.0687583)
(2.13997 0.684946 0.0392295)
(2.67406 0.523882 0.1087)
(2.76292 0.34696 0.202224)
(2.61325 0.666915 0.0645342)
(2.24816 1.07715 -0.0862521)
(2.85369 0.107015 0.51176)
(2.91098 0.32022 0.357188)
(2.97754 0.0277419 0.296821)
(2.89734 0.286227 0.059446)
(2.63963 0.610763 0.100556)
(3.1017 0.0833979 0.814636)
(3.16146 -0.0507182 0.694485)
(3.25862 -0.0153032 0.470581)
(3.23643 0.0375595 0.207486)
(3.10584 0.264683 0.369145)
(2.85962 0.514985 -0.14083)
(3.50349 -0.00534159 0.963531)
(3.67856 0.0543113 0.588435)
(3.65731 -0.403843 0.662004)
(3.50408 -0.577977 0.727579)
(3.50314 -0.533023 0.399928)
(3.20296 -0.517426 0.341232)
(3.22672 0.0543381 -0.079156)
(3.45105 -0.574201 1.62359)
(3.67143 -0.334734 1.35263)
(3.80554 -0.30369 1.17538)
(3.95193 -0.905031 1.15189)
(3.94803 -1.02998 1.11608)
(3.54319 -1.40013 0.65962)
(3.60629 -0.696473 -0.189852)
(3.93024 -0.0246169 0.0981629)
(3.41427 -0.300207 2.31116)
(3.49585 -0.412185 1.89186)
(3.90157 -0.426909 1.57426)
(4.00097 -0.596457 1.72069)
(3.73518 -1.42624 2.00405)
(2.9939 -2.55291 2.10577)
(2.66258 -3.09969 1.43854)
(3.34369 -1.28008 0.651518)
(3.80308 -0.496725 -0.0596317)
(3.30203 -0.466035 2.14047)
(2.98457 -0.605225 2.27925)
(2.96465 -0.802641 1.90262)
(3.31391 -0.285667 1.76743)
(3.38002 -0.590095 1.93238)
(3.08669 -0.987453 2.5393)
(2.79787 -2.38984 1.99063)
(3.58547 -3.30101 2.18613)
(3.84171 -2.9163 2.636)
(3.87914 -0.0993685 0.187123)
(2.55606 -0.620613 0.056449)
(2.67865 -1.28636 0.456535)
(2.44361 -1.03862 0.62847)
(2.33911 -0.949339 0.693291)
(2.12136 0.0821442 1.29838)
(1.48149 -0.0553517 0.851166)
(1.02307 -0.211775 0.894447)
(1.80517 -1.94281 -0.510694)
(1.45179 -3.32269 1.70821)
(1.36666 -4.03699 2.6849)
(0.740062 -4.53684 1.3869)
(0.81802 0.747086 -0.00611274)
(0.734128 -0.117895 -0.509819)
(0.746489 0.443964 -0.196771)
(0.94099 -0.369967 -0.548797)
(1.19707 -1.29024 -0.380314)
(1.25251 -1.25265 -1.11313)
(1.07085 -0.865388 -1.31192)
(0.235187 -0.895838 -1.31337)
(0.118173 -0.372895 -1.86778)
(0.618875 0.00890495 -1.17052)
(1.11841 -2.31868 -1.96784)
(1.07375 -3.20239 1.03466)
(0.588965 0.0811625 -0.774546)
(0.300939 0.286353 -0.781388)
(0.559251 0.097238 -0.796023)
(0.633057 -0.0694393 -0.766141)
(0.734984 -0.392099 -1.23387)
(0.81205 -0.191193 -1.11154)
(0.698147 -0.174662 -1.058)
(0.377981 -0.143817 -0.935963)
(0.054504 -0.588728 -1.33335)
(0.0174076 -0.705067 -1.04908)
(-0.852116 -1.13195 -2.13273)
(-0.94298 -1.47157 -0.993649)
(0.308452 -2.25346 -1.64153)
(0.596919 -0.372007 -1.15159)
(0.558769 -0.0132841 -1.01012)
(0.488169 0.357986 -1.0324)
(0.629082 -0.0329524 -1.02679)
(0.822215 -0.369077 -0.9538)
(0.556306 -0.0757304 -0.996661)
(0.379371 0.0404897 -1.11591)
(0.528418 0.280948 -1.15344)
(0.109677 0.392327 -1.09709)
(-0.0750554 0.01343 -1.19138)
(-0.183595 -0.487404 -0.930664)
(0.1125 -0.561199 -1.19649)
(-0.366824 -0.621864 -1.13755)
(0.0095311 -1.41912 -0.7586)
(0.340782 -0.173895 -1.50935)
(0.368223 -0.284079 -1.49433)
(0.43397 -0.136787 -1.33521)
(0.323016 0.0486526 -1.35509)
(0.176825 0.162257 -1.40568)
(0.27754 0.139132 -1.30362)
(0.190382 0.276314 -1.23802)
(-0.034419 0.210725 -1.51681)
(-0.0965889 0.553883 -1.50356)
(-0.209309 0.44752 -1.83622)
(-0.0111263 0.229136 -1.86605)
(-0.0325459 0.0219622 -2.19499)
(0.0706517 -0.839792 -1.88855)
(0.173963 -0.388149 -1.41597)
(0.745645 -0.0806461 -0.50865)
(1.60108 0.919104 0.0253588)
(2.04933 0.911846 -0.117758)
(1.84476 0.735285 -0.115891)
(2.34445 0.379131 0.0835214)
(2.2202 0.838049 -0.00134941)
(1.89692 0.941926 0.0445421)
(2.52037 0.590173 0.0778418)
(2.60448 0.327126 0.160145)
(2.42493 0.693049 -0.0239598)
(2.25121 0.462267 0.0286759)
(2.68645 0.382823 0.309789)
(2.74221 0.177827 0.235976)
(2.77202 0.27006 0.210365)
(2.65079 0.280851 0.0158991)
(2.37817 0.723579 -0.0782573)
(2.86622 0.245953 0.640292)
(2.89199 0.0218602 0.549113)
(3.0029 -0.196011 0.362391)
(2.99295 -0.0936106 0.245894)
(2.94834 -0.113174 0.0399346)
(2.65226 0.31486 0.171613)
(3.12199 0.0544591 0.840382)
(3.21641 0.0795428 0.750631)
(3.19264 -0.375392 0.609123)
(3.26749 -0.478533 0.629215)
(3.23845 -0.209005 0.178516)
(3.08552 0.0729665 0.370356)
(2.90441 0.255932 -0.119474)
(3.48539 -0.0557807 1.12015)
(3.59923 -0.149841 0.916675)
(3.70277 -0.253142 0.818533)
(3.57979 -0.635866 0.715322)
(3.403 -1.26123 0.735354)
(3.48965 -0.767319 0.364681)
(3.23874 -0.950926 0.18896)
(3.24713 -0.206286 -0.0189404)
(3.5362 0.058346 1.60511)
(3.48965 -0.201484 1.48842)
(3.66936 -0.517564 1.43199)
(3.82188 -0.914756 1.23649)
(3.99304 -1.03916 1.24405)
(3.70359 -1.60566 1.16265)
(3.18155 -1.75204 0.746181)
(3.45177 -1.20099 -0.135777)
(3.8548 -0.484136 0.0357444)
(3.81543 0.415797 2.25662)
(3.55455 -0.23565 1.97096)
(3.62515 -0.32262 1.91934)
(3.88284 -0.493629 1.51666)
(3.90256 -0.912542 1.84434)
(3.485 -2.02201 2.08793)
(2.78203 -2.99847 1.97672)
(2.73616 -3.22001 1.32032)
(3.17624 -1.698 0.880354)
(3.8635 -0.989284 -0.145888)
(3.59567 -0.0311582 2.01768)
(3.20775 -0.996148 1.9282)
(2.7962 -0.573179 2.22162)
(2.73701 -1.03503 1.7903)
(3.13042 -0.609776 1.82882)
(3.14329 -0.93689 1.96449)
(2.75593 -1.78517 2.62472)
(2.36555 -3.50601 1.3673)
(3.09754 -3.69173 2.43691)
(4.33819 -2.44591 2.18741)
(3.12264 -0.873201 0.528201)
(2.80223 -0.674088 -0.540115)
(2.42881 -0.635065 0.149358)
(2.71525 -1.28043 0.356986)
(2.42533 -1.11572 0.644575)
(1.93592 -1.46843 0.373741)
(1.90462 -0.0836174 1.08683)
(1.44544 -0.0278808 0.869363)
(1.20072 -0.416993 1.00349)
(1.94678 -1.82112 -0.0706811)
(1.14451 -3.58288 1.97412)
(0.66311 -4.41095 2.13817)
(0.85208 -4.71205 1.45368)
(1.07976 0.0185832 -0.0938192)
(0.88623 0.281101 -0.220046)
(0.740698 -0.252602 -0.363601)
(0.850053 0.389601 -0.0749699)
(0.977627 -0.388468 -0.474325)
(1.30104 -1.3369 -0.936666)
(1.08883 -1.40878 -1.20298)
(0.917243 -0.872393 -1.40966)
(0.0718597 -1.17045 -1.3089)
(0.0821664 -0.391 -2.0513)
(0.544766 -0.0873369 -1.39141)
(0.972096 -2.29995 -2.19029)
(-0.121679 -3.76017 0.763647)
(0.917065 -0.0125087 -0.633304)
(0.622012 0.012921 -0.756538)
(0.374668 0.371802 -0.655874)
(0.583197 0.0623781 -0.733364)
(0.564063 -0.249001 -0.888222)
(0.681763 -0.51581 -1.28992)
(0.853401 -0.211389 -1.06636)
(0.834457 -0.138024 -1.17667)
(0.416902 -0.182331 -1.15283)
(0.0858105 -0.671967 -1.33066)
(-0.0702086 -0.91954 -1.08183)
(-0.965614 -1.17385 -2.15745)
(-0.981832 -1.4246 -1.09343)
(0.412789 -2.07893 -1.5084)
(0.515225 -0.330487 -1.25198)
(0.550677 -0.450318 -1.09721)
(0.539118 -0.021861 -0.972739)
(0.534069 0.313901 -1.01124)
(0.638751 -0.0260685 -1.05933)
(0.843839 -0.316616 -0.976569)
(0.557648 -0.114709 -0.990255)
(0.400785 0.0626349 -1.08733)
(0.555257 0.29031 -1.15996)
(0.14623 0.449853 -1.11358)
(-0.127908 -0.0937594 -1.20026)
(-0.216219 -0.565079 -0.784904)
(0.161384 -0.642186 -0.972315)
(-0.192992 -0.580968 -1.06783)
(0.0448417 -1.36849 -0.830285)
(0.18166 -0.0584782 -1.44423)
(0.345306 -0.177925 -1.49568)
(0.367557 -0.308219 -1.48776)
(0.425721 -0.139077 -1.32147)
(0.320009 0.0731317 -1.3376)
(0.1789 0.166661 -1.40126)
(0.285239 0.114635 -1.31101)
(0.193907 0.268116 -1.23963)
(-0.0356278 0.208723 -1.5342)
(-0.0927358 0.547123 -1.50289)
(-0.196544 0.484316 -1.79896)
(0.000707157 0.231271 -1.88244)
(-0.051558 -0.0140402 -2.20066)
(-0.0309718 -0.904877 -1.85882)
(0.182542 -0.364511 -1.41392)
(0.760858 -0.0689726 -0.535198)
(1.48287 0.860199 -0.0680698)
(1.81846 0.880654 -0.0495148)
(1.65265 0.787052 -0.0320811)
(2.10251 0.808186 -0.0337102)
(2.07991 0.781619 -0.0514805)
(1.80675 0.733534 -0.0931782)
(2.34498 0.504457 0.290301)
(2.36189 0.410009 0.0765479)
(2.23511 0.626902 0.0659643)
(1.93942 0.837646 0.0189164)
(2.59309 0.310534 0.318368)
(2.53998 0.19447 0.103464)
(2.59824 0.293038 0.145322)
(2.44075 0.631831 -0.0100156)
(2.24495 0.394466 -0.000594278)
(2.64403 0.168737 0.510225)
(2.71579 0.0144376 0.356215)
(2.76799 -0.0188444 0.253637)
(2.8256 0.0244722 0.291499)
(2.63532 0.0847131 0.0333056)
(2.36675 0.66053 -0.124858)
(2.84908 0.00757081 0.65525)
(2.85095 -0.276461 0.72174)
(2.95289 -0.188549 0.524133)
(3.08994 -0.21553 0.370904)
(2.98066 -0.565584 0.221859)
(2.90907 -0.368403 0.0563765)
(2.66887 0.0868252 0.241609)
(3.15071 -0.0536607 0.976148)
(3.20322 -0.134559 0.846945)
(3.30062 -0.150586 0.733915)
(3.22983 -0.449388 0.650799)
(3.17557 -0.581822 0.59812)
(3.15173 -0.784896 0.170405)
(3.1003 -0.756176 0.399587)
(2.94913 0.104934 -0.158232)
(3.32319 -0.16274 1.27958)
(3.54521 -0.269118 1.08344)
(3.57855 -0.307085 0.951707)
(3.55621 -0.556736 0.964626)
(3.47622 -1.06015 0.807002)
(3.40689 -1.3408 0.734553)
(3.47374 -0.862182 0.326967)
(3.2557 -1.07886 0.187031)
(3.15526 -0.622878 0.0902706)
(3.69931 -0.105591 1.58609)
(3.61629 -0.349697 1.52941)
(3.50672 -0.456952 1.40042)
(3.75431 -0.266268 1.36586)
(3.90831 -0.774199 1.33679)
(3.72779 -1.39541 1.42882)
(3.26453 -2.02288 1.35737)
(2.82277 -2.00467 0.803329)
(3.25503 -1.58973 0.063676)
(3.80591 -1.03505 0.00714463)
(4.03149 0.122742 2.10353)
(3.36381 -1.79666 2.18208)
(3.35558 -0.730478 2.03904)
(3.58503 -0.443921 1.87059)
(3.85233 -0.76285 1.71969)
(3.66852 -1.33008 1.97411)
(3.36162 -2.23198 2.12784)
(2.48638 -3.28112 1.93071)
(2.76921 -3.15871 1.38456)
(3.27555 -2.15152 1.00754)
(3.58465 -1.33405 -0.0586228)
(3.49426 -0.370741 1.94013)
(3.49343 -0.745202 2.03592)
(3.05212 -0.998698 1.78407)
(2.82619 -0.737655 2.03433)
(2.69498 -0.791451 1.79901)
(3.00107 -0.775318 1.79716)
(2.91105 -1.20383 2.06372)
(2.46612 -2.52471 2.44183)
(2.13937 -3.87825 1.93435)
(2.41555 -4.26505 2.4743)
(3.63356 -2.47516 2.31018)
(2.40018 -1.56247 0.54556)
(2.61889 -0.45107 -0.67257)
(2.69408 -0.792214 -0.343145)
(2.44039 -0.662547 -0.0218154)
(2.60518 -1.41911 0.240529)
(2.55677 -1.30814 0.564455)
(1.76827 -1.0157 0.866822)
(1.78983 -0.102325 1.11541)
(1.40356 0.0120048 1.0301)
(1.16908 -0.863386 0.888098)
(2.4546 -1.74117 0.791266)
(1.30212 -3.48136 1.88331)
(-0.543216 -4.54245 1.06762)
(0.84076 -4.58784 0.685117)
(1.19029 -1.15802 -0.693777)
(1.04718 -0.224769 -0.0907116)
(0.823381 -0.382718 -0.506366)
(0.722871 -0.319831 -0.263792)
(0.940456 0.163504 -0.0102515)
(1.20792 -0.296587 -0.608527)
(1.36519 -1.36583 -1.13976)
(1.068 -1.34529 -1.23546)
(0.817649 -0.886241 -1.44339)
(-0.0492218 -1.32514 -1.45652)
(-0.100793 -0.485436 -2.18416)
(0.454866 -0.181131 -1.51037)
(0.265892 -2.42738 -2.19475)
(-0.222549 -3.96385 1.25812)
(0.986443 -0.0710244 -0.85238)
(0.973404 0.0403885 -0.52941)
(0.66256 -0.0298251 -0.723308)
(0.432139 0.290811 -0.654266)
(0.663136 0.0779095 -0.639587)
(0.552419 -0.30786 -1.03276)
(0.654001 -0.547142 -1.34776)
(0.911955 -0.205835 -1.05661)
(0.96744 -0.14788 -1.37512)
(0.462383 -0.21483 -1.42966)
(-0.112382 -0.964303 -1.26363)
(-0.229055 -1.16565 -1.07679)
(-1.0898 -1.22281 -2.16745)
(-1.03546 -1.45084 -1.28147)
(0.563954 -1.92483 -1.418)
(0.398525 -0.297443 -1.1176)
(0.504807 -0.351649 -1.25106)
(0.514623 -0.41303 -1.08316)
(0.533778 0.0386036 -0.91054)
(0.483293 0.441396 -0.965131)
(0.625579 0.0548114 -1.10422)
(0.813883 -0.3961 -1.00332)
(0.56668 -0.183954 -0.964002)
(0.423271 0.106621 -1.06774)
(0.505552 0.243214 -1.19165)
(0.119778 0.388235 -1.19951)
(-0.212279 -0.23298 -1.1439)
(-0.190844 -0.60819 -0.652426)
(0.186795 -0.771471 -0.768824)
(-0.0471018 -0.57931 -1.03164)
(0.0933916 -1.33906 -0.89682)
(0.0926599 0.0410455 -1.38693)
(0.193508 -0.0709305 -1.43982)
(0.350609 -0.174725 -1.48389)
(0.361946 -0.329884 -1.48331)
(0.412023 -0.151667 -1.31312)
(0.320149 0.0835691 -1.31978)
(0.179044 0.170759 -1.397)
(0.278311 0.124782 -1.33246)
(0.203567 0.262293 -1.23238)
(-0.0260941 0.228011 -1.54144)
(-0.104369 0.546699 -1.50521)
(-0.164007 0.489742 -1.76509)
(0.0375471 0.232883 -1.89294)
(-0.0902715 -0.05729 -2.22585)
(-0.104074 -0.937673 -1.83786)
(0.203905 -0.331016 -1.41318)
(0.776195 -0.0502223 -0.558865)
(1.37628 0.85245 -0.0661105)
(1.5817 1.03155 0.134286)
(1.50449 0.763482 -0.0806551)
(1.92258 0.781978 0.138683)
(1.82768 0.850414 -0.00458008)
(1.63824 0.781974 -0.0239927)
(2.19969 0.610698 0.3499)
(2.17699 0.63988 -0.0619182)
(2.08989 0.629645 0.0365447)
(1.88331 0.582187 -0.123411)
(2.40731 0.688529 0.342506)
(2.38556 0.324602 0.234603)
(2.39947 0.322458 0.0625929)
(2.27979 0.427806 0.0893489)
(2.01599 0.703627 0.00089286)
(2.55774 0.31726 0.488213)
(2.55438 0.126458 0.274344)
(2.52774 -0.0845504 0.155193)
(2.5715 0.0929944 0.20371)
(2.4701 0.295869 0.0174801)
(2.21872 0.119914 -0.0410688)
(2.73609 -0.145466 0.530878)
(2.69001 0.0545501 0.505675)
(2.7608 -0.259368 0.439475)
(2.79084 -0.370037 0.241376)
(2.81627 -0.0443547 0.257639)
(2.64416 -0.244826 0.00566966)
(2.42776 0.435415 -0.128653)
(2.85203 -0.0344692 0.763897)
(2.86899 -0.134463 0.64002)
(2.95065 -0.0432226 0.610226)
(2.9728 -0.41788 0.526633)
(3.05522 -0.486323 0.360658)
(2.93872 -0.699166 0.248609)
(2.69632 -1.24725 -0.044894)
(2.66499 -0.0491639 0.305767)
(3.14581 -0.256632 0.994532)
(3.22349 -0.0977197 0.927047)
(3.22695 -0.205481 0.824884)