/*--------------------------------*- C++ -*----------------------------------*\
  =========                 |
  \\      /  F ield         | OpenFOAM: The Open Source CFD Toolbox
   \\    /   O peration     | Website:  https://openfoam.org
    \\  /    A nd           | Version:  7
     \\/     M anipulation  |
\*---------------------------------------------------------------------------*/
FoamFile
{
    version     2.0;
    format      ascii;
    class       volVectorField;
    location    "2.5";
    object      U_0;
}
// * * * * * * * * * * * * * * * * * * * * * * * * * * * * * * * * * * * * * //

dimensions      [0 1 -1 0 0 0 0];

internalField   nonuniform List<vector> 
18750
(
(0.445736 -0.509329 -0.35056)
(-0.0020468 -1.3396 -0.20163)
(0.355131 -0.205032 -1.96223)
(0.427391 -0.539952 -0.321274)
(1.11389 -1.06619 -0.421147)
(-0.272182 -0.804375 -1.32383)
(-0.0368175 -1.38598 -0.318651)
(0.445085 -0.331187 -2.46491)
(0.33402 -0.228571 -1.91208)
(0.41675 -0.563863 -0.306321)
(3.71327 -1.90154 1.15023)
(0.101669 0.0408088 -0.126381)
(0.959342 -1.98659 -0.705717)
(-0.110964 -0.360375 -2.00965)
(-0.380991 -0.885875 -1.42094)
(-0.029153 -1.3664 -0.432913)
(-0.0826582 0.151071 -2.53572)
(0.460785 -0.410264 -2.39981)
(0.314736 -0.243891 -1.85441)
(0.400069 -0.556526 -0.28224)
(5.29661 0.875568 0.815497)
(2.45144 -1.0007 0.879621)
(3.44631 -2.71006 0.982603)
(0.18489 0.160219 -1.09357)
(0.0497952 -0.0640153 -0.366403)
(0.784415 -2.63178 -0.917827)
(-0.360516 -0.358933 -1.85216)
(-0.161671 -0.422523 -2.12023)
(-0.485735 -0.940396 -1.49053)
(0.0107476 -1.30468 -0.595482)
(-0.203546 -0.124099 -2.01632)
(-0.0962992 0.153323 -2.49948)
(0.436386 -0.459899 -2.33128)
(0.298516 -0.259333 -1.78936)
(0.422316 -0.468342 -0.266446)
(2.91375 -0.0624671 0.385381)
(4.58597 0.0882317 2.06392)
(5.56422 -0.0335303 1.55031)
(1.5744 0.964385 0.928515)
(2.10179 -2.05373 0.746204)
(3.15126 -3.23451 0.984577)
(-0.213763 0.229677 -0.0127792)
(0.0820766 0.0668198 -1.33938)
(0.0630012 -0.167271 -0.587178)
(0.695785 -2.87098 -1.02074)
(-0.335269 -0.0183233 -1.86698)
(-0.377407 -0.389203 -1.95826)
(-0.210808 -0.440289 -2.16439)
(-0.577533 -0.967715 -1.53407)
(0.0404449 -1.28139 -0.729109)
(-0.377186 0.137864 -1.87426)
(-0.18361 -0.0361743 -2.03306)
(-0.0697985 0.171096 -2.46053)
(0.409495 -0.521977 -2.25069)
(0.284571 -0.272277 -1.72082)
(0.45898 -0.365615 -0.264556)
(3.03325 1.64951 -0.216091)
(3.80504 0.69832 0.625918)
(2.93897 0.11487 0.230466)
(3.59041 -0.690029 3.2033)
(4.55777 -0.338988 1.92026)
(5.63397 -0.288318 1.43032)
(0.369147 0.17589 0.186128)
(1.50877 0.858911 0.981495)
(1.8145 -2.41821 0.612735)
(2.69038 -3.74638 0.977197)
(-0.0326601 0.300013 -0.0791616)
(-0.171305 0.202682 -0.20034)
(-0.031753 -0.0325262 -1.51886)
(0.0573827 -0.308081 -0.793733)
(0.758285 -2.68402 -1.16794)
(-0.217453 0.13537 -1.53832)
(-0.30735 0.0600936 -1.82604)
(-0.375245 -0.371867 -1.97001)
(-0.238556 -0.427804 -2.14751)
(-0.649722 -0.968989 -1.5591)
(0.0196922 -1.31442 -0.812433)
(-0.0984796 0.806622 -1.62284)
(-0.358863 0.207992 -1.87264)
(-0.156412 0.0512911 -2.0404)
(-0.0447009 0.184734 -2.42558)
(0.379792 -0.574251 -2.17096)
(0.271378 -0.285884 -1.65326)
(0.474102 -0.314332 -0.274672)
(3.14994 1.27801 0.0206462)
(3.63914 0.887393 1.16094)
(2.95819 1.49719 -0.184502)
(4.02956 0.0293866 1.10163)
(3.75363 0.224397 0.987727)
(3.1256 0.591896 0.0410643)
(2.74855 -0.706436 2.06267)
(3.67835 -0.73676 3.26549)
(4.23264 -0.720081 2.11655)
(5.47085 -0.644913 1.35109)
(1.18482 -0.0634863 -0.173908)
(0.345327 0.211991 -0.0613863)
(1.51029 0.778742 0.907288)
(1.65338 -2.55828 0.555962)
(2.173 -4.29451 0.784707)
(0.609827 0.0452742 -0.0969323)
(-0.0263671 0.297933 0.109212)
(-0.106153 0.14845 -0.396684)
(-0.150821 -0.158255 -1.65592)
(0.0260305 -0.485669 -1.00816)
(0.900837 -2.38827 -1.24228)
(0.388349 0.364211 -1.32219)
(-0.168853 0.138868 -1.52432)
(-0.286485 0.131705 -1.76081)
(-0.349961 -0.329143 -1.89998)
(-0.251298 -0.416248 -2.10005)
(-0.691589 -0.948732 -1.5784)
(-0.0550878 -1.39151 -0.814575)
(-0.0439437 0.308262 -1.41823)
(-0.0923085 0.749001 -1.61215)
(-0.339114 0.2687 -1.87016)
(-0.129835 0.114853 -2.03357)
(-0.0269078 0.185534 -2.38556)
(0.350451 -0.62063 -2.09071)
(0.259084 -0.300009 -1.59036)
(0.514219 -0.227252 -0.3157)
(2.71036 1.29887 0.0654908)
(3.81891 0.856086 0.223629)
(3.07184 1.42134 0.0443027)
(3.87549 0.0759206 1.05187)
(3.80879 0.528666 1.20065)
(2.89776 1.39484 -0.106967)
(4.0141 0.350746 1.69515)
(4.17662 -0.302598 1.07712)
(3.65289 0.0404804 1.0844)
(3.45723 1.4829 -0.451288)
(2.11019 -0.232022 1.55492)
(2.26153 -1.11404 2.24201)
(3.82796 -0.682391 2.78639)
(4.01187 -1.28793 2.45755)
(5.17139 -1.03319 1.34835)
(1.55812 -0.0411221 -0.226423)
(1.20192 -0.277009 -0.1148)
(0.314854 0.240455 0.0751247)
(1.3698 0.530985 0.912736)
(1.42647 -2.68799 0.287016)
(1.7503 -4.70273 0.672185)
(0.899227 0.0667047 -0.534451)
(0.566508 0.0844038 -0.0939143)
(0.004471 0.197011 0.189315)
(-0.0481113 0.040489 -0.461975)
(-0.237935 -0.30416 -1.72165)
(-0.0434825 -0.697421 -1.182)
(0.976035 -2.26573 -1.22487)
(0.417358 0.366216 -1.13012)
(0.387307 0.334655 -1.22232)
(-0.140946 0.142685 -1.49835)
(-0.251616 0.173597 -1.6884)
(-0.311743 -0.272784 -1.77906)
(-0.25182 -0.4203 -2.04453)
(-0.71967 -0.902543 -1.5953)
(-0.15927 -1.50703 -0.713124)
(0.170944 0.38219 -1.27559)
(-0.0437949 0.28577 -1.43105)
(-0.0857502 0.696664 -1.60096)
(-0.319966 0.308253 -1.86638)
(-0.100439 0.176303 -2.01172)
(-0.014576 0.176008 -2.34662)
(0.324533 -0.653033 -2.01759)
(0.246551 -0.31646 -1.53503)
(0.582696 -0.151276 -0.346665)
(2.41451 1.4644 -0.0118669)
(3.11644 1.28202 0.208264)
(2.6958 1.31036 0.0202004)
(3.88617 0.439941 0.793076)
(3.87031 0.57506 0.126696)
(3.17946 1.23244 0.0426719)
(4.06587 0.216857 1.25672)
(3.79192 -0.621935 1.21387)
(3.88682 0.243023 0.835711)
(2.96395 1.3819 -0.107789)
(4.00519 0.141092 1.61974)
(3.81392 0.175428 1.66385)
(4.12246 -0.246183 1.08753)
(3.428 -1.03522 2.19669)
(3.90067 2.08681 -1.04879)
(1.86779 0.209866 1.5975)
(1.88002 -0.135887 1.47725)
(2.0803 -1.06696 2.17108)
(3.78963 -0.672557 2.26445)
(3.63163 -1.97349 2.8825)
(4.90185 -0.945134 1.45354)
(1.53821 0.00667496 0.242589)
(1.54168 -0.114026 -0.29836)
(1.03955 -0.58288 -0.327423)
(0.26888 0.196336 -0.00309096)
(1.1664 0.3099 0.54867)
(1.29891 -2.74498 0.0500073)
(1.46175 -4.55087 0.667843)
(0.917789 0.398968 -1.01337)
(0.844484 0.0265751 -0.503426)
(0.505731 0.0745207 -0.0929093)
(0.0292731 0.017395 0.0785343)
(-0.00845803 -0.105142 -0.413286)
(-0.33335 -0.484303 -1.815)
(-0.13058 -0.901462 -1.2948)
(0.939581 -2.34937 -1.16361)
(0.495688 0.343719 -1.01709)
(0.408438 0.296147 -1.15861)
(0.440473 0.325112 -1.15285)
(-0.121579 0.13973 -1.4434)
(-0.20546 0.200785 -1.58667)
(-0.262978 -0.232399 -1.63827)
(-0.241668 -0.454501 -1.99128)
(-0.721314 -0.878283 -1.58117)
(-0.257905 -1.61804 -0.549121)
(0.290755 0.213369 -1.25854)
(0.175835 0.357439 -1.26778)
(-0.0418563 0.26917 -1.44386)
(-0.0894399 0.651068 -1.588)
(-0.296261 0.344887 -1.85993)
(-0.0705395 0.225167 -1.98049)
(-0.00719134 0.161873 -2.30961)
(0.304773 -0.669412 -1.96114)
(0.231298 -0.338062 -1.49102)
(0.628454 -0.118649 -0.364306)
(2.42424 1.13769 0.0632592)
(2.84531 1.15873 0.282869)
(2.44102 1.40964 0.00443777)
(3.44688 0.560214 0.621965)
(3.24874 0.741278 0.248575)
(2.82626 1.12768 -0.0345951)
(3.80497 0.622181 0.939314)
(3.85028 0.123552 0.772653)
(3.98699 0.00752477 0.24026)
(3.3685 1.16705 0.060584)
(4.04732 0.167025 1.44475)
(4.02569 0.15745 1.25085)
(3.84364 0.0190649 1.02604)
(3.86515 -0.714948 0.528787)
(3.24334 1.50343 -0.21653)
(3.70504 -0.00536721 1.72947)
(3.55459 0.0947457 2.37121)
(3.63954 -0.802053 1.71607)
(3.98151 -1.35112 1.65276)
(3.36803 -2.29396 3.2518)
(4.17877 2.38237 -1.40284)
(2.35369 -0.113312 1.57434)
(1.87008 0.266342 1.49708)
(1.7072 0.00622787 1.35774)
(1.83253 -1.29088 1.95332)
(3.75674 -1.10764 1.59951)
(3.27148 -2.27031 2.92898)
(4.66704 -0.739676 1.16546)
(1.53815 -0.408547 0.222077)
(1.63406 -0.0817028 0.270946)
(1.53266 -0.294902 -0.422029)
(0.868166 -0.665939 -0.399649)
(0.173089 0.0507698 -0.284458)
(0.927062 0.120498 0.114543)
(1.06998 -2.77141 -0.518123)
(0.878952 -4.04858 0.68701)
(0.678995 0.267529 -0.825355)
(0.917525 0.187387 -1.03997)
(0.731437 -0.145864 -0.435752)
(0.46436 0.0989249 -0.115308)
(0.0328905 -0.194051 -0.242021)
(0.0216369 -0.226802 -0.388403)
(-0.4234 -0.684856 -1.89444)
(-0.252935 -1.07918 -1.33326)
(0.635193 -2.59874 -1.08593)
(0.940438 0.0814469 -0.803068)
(0.53138 0.243528 -0.988044)
(0.397804 0.184072 -1.17103)
(0.483382 0.330416 -1.08406)
(-0.0864757 0.155991 -1.3584)
(-0.146651 0.221304 -1.44512)
(-0.217791 -0.23118 -1.50495)
(-0.224417 -0.49162 -1.92114)
(-0.711647 -0.831415 -1.53795)
(-0.316441 -1.6895 -0.413579)
(0.165649 0.143266 -1.42877)
(0.286851 0.198936 -1.26624)
(0.177949 0.33806 -1.25815)
(-0.0387743 0.257469 -1.45735)
(-0.0849142 0.617154 -1.57203)
(-0.277896 0.366254 -1.85194)
(-0.0367675 0.256897 -1.94102)
(-0.00400924 0.141336 -2.27355)
(0.285976 -0.674798 -1.93167)
(0.215517 -0.358445 -1.45992)
(0.661495 -0.102753 -0.390121)
(2.11434 1.41279 -0.0617115)
(2.7205 1.09412 0.128763)
(2.50053 0.961084 0.0775241)
(3.10374 0.687377 0.271228)
(2.92824 0.922858 0.330449)
(2.68781 0.936321 -0.113945)
(3.4521 0.372904 0.681989)
(3.50339 0.289536 0.578397)
(3.24633 0.494665 0.173972)
(2.99861 0.834283 -0.0838749)
(3.74951 -0.163436 1.20547)
(3.87244 0.243393 0.918798)
(3.94052 -0.157779 0.671014)
(4.04082 -0.215496 0.291289)
(3.51958 1.08313 0.0921166)
(4.07072 0.157444 1.45748)
(4.09738 0.0620049 1.42794)
(4.01826 0.0268472 1.28892)
(3.75887 -1.2295 1.27957)
(3.62048 -1.16166 0.803356)
(3.4929 1.46711 -0.258948)
(3.25268 -0.49537 1.75001)
(3.58494 -0.14648 1.8252)
(3.60518 -0.545281 1.80781)
(3.53141 -0.791195 1.91443)
(3.65719 -2.52483 2.48903)
(3.70065 -2.75031 3.25633)
(4.277 2.32308 -1.34229)
(2.71448 -0.964448 1.13072)
(2.34944 -0.119918 1.70188)
(1.85463 0.243554 1.46527)
(1.50002 -0.0538771 1.29314)
(1.67341 -1.56191 1.27064)
(3.47759 -1.87172 1.02493)
(2.79947 -2.80752 3.01639)
(4.3726 -0.514753 0.420729)
(0.881987 -0.18866 0.104343)
(1.53473 -0.324452 0.357688)
(1.692 -0.0187476 0.228634)
(1.51125 -0.249735 -0.547844)
(0.714057 -0.747457 -0.654275)
(0.110914 -0.121282 -0.733653)
(0.797753 0.0743199 -0.285057)
(1.10438 -2.56935 -0.870964)
(0.869049 -3.71889 0.638065)
(0.684025 0.0220052 -0.91242)
(0.705371 0.106564 -0.996165)
(0.881253 0.100427 -1.09861)
(0.684581 -0.0657326 -0.48873)
(0.4461 0.118246 -0.133785)
(0.0439284 -0.330268 -0.571116)
(0.040957 -0.367872 -0.486367)
(-0.517061 -0.856584 -1.96399)
(-0.409762 -1.20144 -1.28837)
(0.416571 -2.663 -1.17267)
(0.681872 0.0575612 -1.02836)
(0.911573 -0.0085936 -0.851151)
(0.52796 0.185848 -0.987434)
(0.377928 0.0904969 -1.17881)
(0.506222 0.332639 -1.05566)
(-0.0495749 0.195613 -1.26787)
(-0.0889057 0.236161 -1.29126)
(-0.182055 -0.274226 -1.37851)
(-0.176175 -0.517643 -1.8018)
(-0.690919 -0.809446 -1.41698)
(-0.290189 -1.69591 -0.406798)
(0.334923 0.0219404 -1.40708)
(0.166896 0.150081 -1.42263)
(0.279286 0.170155 -1.28337)
(0.179713 0.325259 -1.24747)
(-0.0352485 0.247874 -1.47053)
(-0.102954 0.587725 -1.55598)
(-0.27013 0.388889 -1.84347)
(-0.0192902 0.281712 -1.89165)
(-0.00654043 0.114194 -2.24281)
(0.272168 -0.686972 -1.93232)
(0.201696 -0.374756 -1.43827)
(0.685055 -0.100959 -0.416981)
(1.92853 1.15824 0.0906183)
(2.53169 1.08202 0.0902493)
(2.14816 1.36278 -0.121404)
(2.86551 0.624697 0.184085)
(2.81226 0.762201 0.156153)
(2.54903 0.801039 0.0983156)
(3.10759 0.573652 0.546977)
(3.16852 0.421503 0.314545)
(2.99687 0.678292 0.368253)
(2.73811 0.942377 -0.172676)
(3.52574 0.284725 0.630658)
(3.57614 0.00708951 0.706357)
(3.55246 0.0581436 0.495354)
(3.2735 -0.101426 0.120425)
(3.08546 0.801204 -0.0969113)
(3.77375 0.0703746 1.18952)
(3.86086 0.260003 1.05449)
(3.90858 -0.26208 0.907045)
(3.93261 -0.429679 0.667391)
(3.88541 -0.24761 0.0357294)
(3.72011 0.690862 0.239165)
(3.66985 -0.0742972 1.60637)
(3.99367 -0.0739974 1.50386)
(3.99055 -0.246415 1.73356)
(3.91752 -0.725745 1.59627)
(3.50654 -1.83238 1.23201)
(3.45019 -1.44098 0.994684)
(3.68331 0.920516 -0.0954476)
(3.13886 -0.387477 2.00946)
(3.29749 -0.182207 1.94989)
(3.59026 -0.204993 1.7922)
(3.39204 -0.379535 2.03734)
(3.07909 -1.86805 2.22542)
(3.43715 -3.13804 2.57478)
(3.94724 -3.06087 2.99306)
(4.41094 1.65107 -0.84491)
(2.9937 -1.06983 0.450679)
(2.58372 -0.640089 1.42972)
(2.3853 -0.104429 1.59382)
(1.78838 0.21026 1.36092)
(1.25673 -0.0971035 1.13588)
(1.48912 -1.89502 0.365332)
(2.82285 -2.56944 0.66004)
(1.5776 -4.01489 3.29425)
(3.33615 -1.8366 0.791527)
(0.50006 0.330233 -0.410093)
(0.922079 -0.319065 -0.801695)
(1.4574 -0.297126 0.385896)
(1.64366 -0.303434 -0.0953014)
(1.29103 -0.664325 -0.963676)
(0.479105 -0.950145 -1.0195)
(0.105568 -0.242675 -1.22885)
(0.704227 0.0637485 -0.651256)
(1.14616 -2.46471 -0.969399)
(1.01111 -3.71747 0.369615)
(0.497374 0.0232903 -1.03222)
(0.669462 -0.0797134 -0.853506)
(0.732245 0.00540883 -1.14668)
(0.788795 -0.0234915 -1.15334)
(0.633771 -0.139986 -0.640206)
(0.417402 0.0531791 -0.309694)
(0.0619086 -0.435007 -0.924337)
(0.0550821 -0.477339 -0.703851)
(-0.622609 -0.982787 -2.0268)
(-0.592405 -1.33562 -1.17263)
(0.495357 -2.55212 -1.46979)
(0.537517 0.325448 -1.06239)
(0.663783 -0.0171995 -1.01726)
(0.906193 -0.111689 -0.854555)
(0.53948 0.0961391 -0.991013)
(0.369454 0.061516 -1.16564)
(0.535848 0.320394 -1.06885)
(-0.015325 0.2474 -1.19103)
(-0.0301645 0.235233 -1.17002)
(-0.16544 -0.333171 -1.2446)
(-0.0921185 -0.512949 -1.64286)
(-0.650546 -0.737236 -1.32879)
(-0.193157 -1.6079 -0.519549)
(0.443129 -0.133141 -1.37033)
(0.327902 0.0296671 -1.39077)
(0.169965 0.157668 -1.41653)
(0.281605 0.14236 -1.29604)
(0.18273 0.305906 -1.24201)
(-0.0306521 0.239088 -1.48507)
(-0.0927968 0.558904 -1.54632)
(-0.245855 0.402575 -1.85051)
(-0.00808006 0.278707 -1.85655)
(-0.0138645 0.0828632 -2.21992)
(0.243725 -0.710264 -1.92876)
(0.187966 -0.384623 -1.42468)
(0.702048 -0.097999 -0.446611)
(1.78156 1.20364 0.121521)
(2.23174 1.2233 -0.0747088)
(2.16123 0.64612 0.0638636)
(2.69839 0.555338 0.148741)
(2.56489 0.896429 0.102243)
(2.21684 1.19634 -0.0683882)
(2.91438 0.525505 0.312704)
(2.89921 0.416101 0.208752)
(2.8344 0.618943 0.137009)
(2.59718 0.69613 0.0539613)
(3.16004 0.150815 0.642261)
(3.16707 -0.17951 0.607791)
(3.21037 0.228376 0.321071)
(3.0381 0.528881 0.362435)
(2.80836 0.810014 -0.153347)
(3.46544 -0.158916 1.02577)
(3.54403 -0.336504 0.764169)
(3.57416 -0.253981 0.713588)
(3.53642 -0.259373 0.379419)
(3.24283 0.0670132 0.18591)
(3.16892 0.519524 -0.134618)
(3.65777 0.122619 1.27176)
(3.81888 0.152647 1.13564)
(3.89166 -0.160156 1.0572)
(3.98162 -0.883089 1.00661)
(3.79406 -0.776379 0.708014)
(3.7181 -0.342774 -0.174008)
(3.92243 0.192523 0.21693)
(3.50307 -0.646607 1.82888)
(3.78204 -0.362762 1.61178)
(3.96614 -0.17772 1.57313)
(4.07896 -0.26074 1.61516)
(3.42902 -1.8791 1.96741)
(3.04384 -2.55293 1.39001)
(3.51828 -1.15749 0.763885)
(3.78068 0.192358 0.0692826)
(3.29504 -0.481077 2.0585)
(3.10807 -0.652568 1.9847)
(3.3171 -0.23092 1.89623)
(3.56881 -0.247825 1.85345)
(3.30359 -0.56556 2.17424)
(2.73741 -2.31977 2.19064)
(3.52269 -3.14162 2.42912)
(3.84068 -3.12021 2.8394)
(4.35138 0.875017 -0.380056)
(2.67947 -0.735974 0.202435)
(2.59334 -1.3993 0.639416)
(2.24473 -1.17463 0.994887)
(2.27363 -0.113097 1.51191)
(1.62291 0.0221866 1.09394)
(1.07384 -0.231295 0.903704)
(1.42804 -2.07842 -0.367629)
(2.31708 -2.71989 0.955679)
(1.32178 -4.04377 3.0941)
(2.42795 -2.8508 1.08391)
(0.648416 0.102575 -0.711259)
(0.548532 0.393932 -0.352338)
(0.93608 -0.351046 -0.871171)
(1.42511 -0.464649 0.3115)
(1.43597 -0.93925 -0.830991)
(1.17281 -0.810289 -1.24227)
(0.425188 -0.973982 -1.09215)
(0.0730031 -0.386439 -1.59351)
(0.637339 0.0444294 -0.909343)
(0.965556 -2.39119 -1.54308)
(-0.424282 -3.62412 -0.0626291)
(0.318572 0.197101 -0.852477)
(0.517591 0.0939396 -0.915609)
(0.643033 -0.0190655 -0.781927)
(0.77586 -0.146818 -1.18597)
(0.768332 -0.131926 -1.15858)
(0.604246 -0.220293 -0.898481)
(0.397413 -0.0440247 -0.659979)
(0.0504783 -0.535136 -1.21014)
(0.0506021 -0.578933 -0.916076)
(-0.737654 -1.05991 -2.09198)
(-0.797119 -1.43546 -1.06641)
(0.25817 -2.57409 -1.56224)
(0.572874 0.0639965 -1.03362)
(0.521237 0.321549 -1.0496)
(0.63919 -0.0480084 -1.01831)
(0.835629 -0.288369 -0.911916)
(0.538998 0.0145995 -0.995244)
(0.360983 0.0177874 -1.14671)
(0.56251 0.280156 -1.09855)
(0.03076 0.288552 -1.14701)
(-0.020959 0.15126 -1.14757)
(-0.163621 -0.40668 -1.08913)
(0.0219545 -0.511539 -1.44645)
(-0.525001 -0.677512 -1.23755)
(-0.0739618 -1.52444 -0.65126)
(0.37257 -0.255266 -1.49894)
(0.436878 -0.134978 -1.35285)
(0.321379 0.0386462 -1.3743)
(0.173826 0.160922 -1.41043)
(0.283236 0.138316 -1.30326)
(0.184678 0.290356 -1.24002)
(-0.0331359 0.228178 -1.50133)
(-0.108784 0.563893 -1.52108)
(-0.225278 0.432192 -1.85242)
(-0.00871346 0.26002 -1.85468)
(-0.0240493 0.0501835 -2.20379)
(0.162514 -0.768296 -1.90579)
(0.175643 -0.387935 -1.41659)
(0.718896 -0.0909007 -0.476358)
(1.76743 0.955421 -0.0227154)
(2.15013 0.981882 -0.0238722)
(1.82727 1.13445 0.101167)
(2.54558 0.408994 0.153204)
(2.33964 0.982922 -0.0698592)
(2.13921 0.685735 0.0391731)
(2.67195 0.528302 0.1065)
(2.76179 0.344608 0.201061)
(2.61155 0.671961 0.0666694)
(2.24729 1.07943 -0.0855259)
(2.85121 0.104643 0.510878)
(2.90807 0.324432 0.357305)
(2.97595 0.0275726 0.296162)
(2.89337 0.304494 0.0646645)
(2.64051 0.61116 0.0979199)
(3.10051 0.0874746 0.804662)
(3.15867 -0.0487456 0.692976)
(3.2549 -0.0088152 0.468358)
(3.23461 0.0416523 0.211894)
(3.10298 0.270846 0.369987)
(2.85921 0.514998 -0.142917)
(3.49506 -0.0209675 0.979194)
(3.66984 0.0521793 0.590106)
(3.65297 -0.40594 0.660857)
(3.50711 -0.560312 0.726186)
(3.50161 -0.528163 0.401854)
(3.20482 -0.485926 0.334236)
(3.22864 0.0672542 -0.0830434)
(3.45257 -0.56455 1.62556)
(3.66669 -0.330177 1.34774)
(3.80169 -0.262018 1.17039)
(3.94111 -0.889223 1.14394)
(3.94493 -1.04461 1.11491)
(3.56624 -1.37412 0.660716)
(3.61048 -0.688799 -0.192059)
(3.9275 -0.0150646 0.0973409)
(3.43045 -0.306391 2.28957)
(3.48269 -0.436227 1.89343)
(3.89122 -0.437746 1.5843)
(3.99899 -0.584081 1.70929)
(3.75767 -1.36352 1.97927)
(3.02609 -2.51185 2.10678)
(2.65499 -3.09784 1.44067)
(3.33111 -1.3099 0.660051)
(3.78985 -0.411033 -0.0505825)
(3.31769 -0.454948 2.15031)
(3.00575 -0.618977 2.27088)
(2.97391 -0.80195 1.91531)
(3.31038 -0.289983 1.7766)
(3.39311 -0.573611 1.93302)
(3.10536 -0.961861 2.5115)
(2.79442 -2.35566 2.01898)
(3.58829 -3.30194 2.17879)
(3.82294 -2.9658 2.64206)
(3.93737 -0.0169771 0.14355)
(2.56955 -0.625808 0.0519329)
(2.67092 -1.27863 0.453428)
(2.45318 -1.06133 0.62041)
(2.35071 -0.962099 0.709659)
(2.13585 0.0727045 1.32095)
(1.49165 -0.0647446 0.869974)
(1.02071 -0.211852 0.90504)
(1.76395 -1.97485 -0.535293)
(1.52155 -3.28736 1.62504)
(1.39083 -4.03612 2.73029)
(0.805594 -4.46487 1.36057)
(0.809018 0.764452 -0.00563213)
(0.730636 -0.110524 -0.517132)
(0.737305 0.443883 -0.203782)
(0.940889 -0.378886 -0.559642)
(1.1996 -1.2729 -0.330047)
(1.26266 -1.24361 -1.09752)
(1.07661 -0.867802 -1.30782)
(0.246108 -0.889497 -1.29977)
(0.131156 -0.365247 -1.84956)
(0.618975 0.0167854 -1.13876)
(1.09767 -2.35461 -1.93397)
(1.11498 -3.19842 1.04442)
(0.584406 0.0840907 -0.777192)
(0.299017 0.286435 -0.786993)
(0.558785 0.0948827 -0.802239)
(0.633965 -0.0710526 -0.766729)
(0.737006 -0.386976 -1.23193)
(0.807271 -0.191575 -1.11194)
(0.690038 -0.18182 -1.04951)
(0.377647 -0.145418 -0.926178)
(0.0540377 -0.592171 -1.33257)
(0.0177726 -0.694757 -1.05137)
(-0.854539 -1.11299 -2.14283)
(-0.939584 -1.46394 -0.999336)
(0.289536 -2.30368 -1.64911)
(0.595954 -0.367495 -1.15276)
(0.556337 -0.0086295 -1.01192)
(0.487416 0.355427 -1.03526)
(0.629961 -0.0404566 -1.02474)
(0.820237 -0.374546 -0.951769)
(0.551535 -0.0740499 -0.997758)
(0.376588 0.040014 -1.11733)
(0.526811 0.278507 -1.15285)
(0.107486 0.38968 -1.09914)
(-0.0724565 0.0100995 -1.19358)
(-0.180675 -0.487787 -0.936908)
(0.100139 -0.550916 -1.22025)
(-0.384527 -0.617225 -1.14663)
(-0.00639924 -1.43476 -0.756685)
(0.340361 -0.176199 -1.50995)
(0.367289 -0.280505 -1.49387)
(0.431511 -0.13529 -1.33592)
(0.318212 0.049113 -1.35752)
(0.175471 0.16274 -1.40555)
(0.278614 0.139095 -1.30195)
(0.188811 0.277592 -1.24115)
(-0.0370399 0.212248 -1.52103)
(-0.0959073 0.550491 -1.50883)
(-0.206794 0.447585 -1.84077)
(-0.0103797 0.226793 -1.87209)
(-0.0340817 0.0199509 -2.19519)
(0.078569 -0.835827 -1.88216)
(0.169701 -0.379111 -1.41209)
(0.734479 -0.0826666 -0.504582)
(1.60167 0.918951 0.0263175)
(2.05022 0.910354 -0.118206)
(1.84482 0.736916 -0.114567)
(2.34458 0.374872 0.0844551)
(2.22036 0.838754 -0.00283536)
(1.89741 0.941566 0.0461689)
(2.51974 0.592664 0.0766093)
(2.60436 0.323015 0.16057)
(2.42414 0.694463 -0.0246724)
(2.25061 0.461806 0.0287955)
(2.68425 0.381844 0.309327)
(2.73997 0.182217 0.23433)
(2.76994 0.27239 0.208454)
(2.65081 0.285034 0.0163506)
(2.37716 0.728882 -0.0770742)
(2.8648 0.240293 0.639467)
(2.88841 0.0206224 0.548266)
(2.99917 -0.191247 0.362186)
(2.99174 -0.0826285 0.247083)
(2.94801 -0.103513 0.0407814)
(2.6526 0.318827 0.169076)
(3.11863 0.0533703 0.839531)
(3.21073 0.0766195 0.749796)
(3.18938 -0.373644 0.610481)
(3.26768 -0.478497 0.630309)
(3.2366 -0.213387 0.180448)
(3.08337 0.0876898 0.370414)
(2.90236 0.263491 -0.1229)
(3.4823 -0.0632091 1.12301)
(3.59468 -0.159479 0.919091)
(3.70171 -0.250035 0.80865)
(3.58491 -0.619682 0.70896)
(3.40017 -1.25141 0.733456)
(3.48766 -0.772131 0.370482)
(3.23441 -0.945822 0.190259)
(3.25123 -0.201705 -0.0224051)
(3.53398 0.042847 1.6092)
(3.48463 -0.212448 1.49765)
(3.65947 -0.543121 1.43246)
(3.81173 -0.916116 1.22989)
(3.99247 -1.04116 1.2336)
(3.73454 -1.55916 1.15302)
(3.20442 -1.74784 0.744613)
(3.4555 -1.17535 -0.152993)
(3.85314 -0.457848 0.0325742)
(3.82603 0.407706 2.24981)
(3.55516 -0.239303 1.98643)
(3.61546 -0.343164 1.92449)
(3.87516 -0.497416 1.50875)
(3.91132 -0.897256 1.83284)
(3.49343 -2.00563 2.07913)
(2.8044 -2.97035 1.98587)
(2.70091 -3.2531 1.32248)
(3.17575 -1.68157 0.856331)
(3.85994 -0.960843 -0.148074)
(3.60564 -0.0387037 2.0134)
(3.22169 -0.988838 1.94405)
(2.80126 -0.581258 2.23533)
(2.73778 -1.06398 1.7964)
(3.13371 -0.601501 1.83311)
(3.15815 -0.931137 1.95645)
(2.77707 -1.73961 2.62248)
(2.38488 -3.43125 1.40429)
(3.1526 -3.67268 2.40432)
(4.25724 -2.56131 2.23425)
(3.21047 -0.79839 0.510576)
(2.80639 -0.685873 -0.539875)
(2.43137 -0.643988 0.148847)
(2.71471 -1.28543 0.363051)
(2.43096 -1.12496 0.64451)
(1.9579 -1.49253 0.355984)
(1.91549 -0.0986204 1.09837)
(1.45221 -0.0369448 0.880193)
(1.1933 -0.40279 1.01336)
(1.90034 -1.84669 -0.12276)
(1.13487 -3.60333 1.96197)
(0.784852 -4.3665 2.24517)
(0.827927 -4.7246 1.47636)
(1.07991 0.0395541 -0.0973051)
(0.882743 0.296596 -0.218154)
(0.739351 -0.24788 -0.369962)
(0.844169 0.389906 -0.0798069)
(0.974845 -0.399006 -0.472404)
(1.29005 -1.34753 -0.904049)
(1.08806 -1.41453 -1.19694)
(0.92777 -0.873862 -1.4038)
(0.080287 -1.15899 -1.29933)
(0.0977096 -0.38004 -2.03921)
(0.548989 -0.0740412 -1.36855)
(0.985152 -2.32193 -2.1792)
(-0.0478654 -3.71993 0.75312)
(0.909173 -0.0154464 -0.642152)
(0.616028 0.0174731 -0.759354)
(0.372356 0.374568 -0.65945)
(0.581385 0.0592835 -0.739798)
(0.564925 -0.250225 -0.88644)
(0.683147 -0.515849 -1.28717)
(0.85187 -0.213776 -1.06369)
(0.824993 -0.144147 -1.1664)
(0.415525 -0.184249 -1.14053)
(0.0921776 -0.664458 -1.3317)
(-0.0664398 -0.903286 -1.09012)
(-0.969245 -1.15468 -2.17074)
(-0.982877 -1.42008 -1.09553)
(0.384217 -2.1181 -1.51867)
(0.514841 -0.329366 -1.25178)
(0.550198 -0.449171 -1.09691)
(0.536058 -0.0216021 -0.976081)
(0.533225 0.310193 -1.01485)
(0.639201 -0.0384665 -1.05653)
(0.842544 -0.321163 -0.975096)
(0.552861 -0.110792 -0.992387)
(0.397987 0.0615322 -1.08842)
(0.555002 0.290045 -1.15842)
(0.143057 0.446607 -1.11636)
(-0.127232 -0.0979168 -1.20173)
(-0.214469 -0.566363 -0.791604)
(0.151805 -0.62867 -0.998806)
(-0.212928 -0.574835 -1.07942)
(0.0276322 -1.38438 -0.829449)
(0.182048 -0.0588765 -1.44264)
(0.344754 -0.180532 -1.49641)
(0.366357 -0.306073 -1.48717)
(0.424217 -0.136618 -1.3216)
(0.315195 0.0713577 -1.33988)
(0.177719 0.166896 -1.40117)
(0.286809 0.114716 -1.30856)
(0.192384 0.269075 -1.24287)
(-0.0377926 0.21128 -1.53838)
(-0.0924975 0.54507 -1.50798)
(-0.192108 0.484067 -1.80187)
(0.00269141 0.228948 -1.88842)
(-0.053594 -0.016132 -2.19948)
(-0.0195821 -0.8972 -1.85548)
(0.176865 -0.356613 -1.41002)
(0.750249 -0.07137 -0.531591)
(1.48273 0.86109 -0.0673458)
(1.82035 0.878339 -0.0514165)
(1.65373 0.78589 -0.0318508)
(2.10339 0.805833 -0.0338426)
(2.08065 0.782182 -0.0535232)
(1.80692 0.733677 -0.0922542)
(2.34338 0.508577 0.290415)
(2.36155 0.40594 0.0779341)
(2.23497 0.630048 0.0643068)
(1.93936 0.836994 0.0200206)
(2.59058 0.319206 0.3202)
(2.53959 0.201653 0.102634)
(2.59847 0.29276 0.145537)
(2.44089 0.631851 -0.010916)
(2.24602 0.39581 0.000174063)
(2.64208 0.163587 0.510673)
(2.71295 0.0262156 0.354194)
(2.7666 -0.0162967 0.253424)
(2.82484 0.021342 0.289502)
(2.6357 0.0888865 0.0340175)
(2.36727 0.663317 -0.122862)
(2.84684 0.00469532 0.654103)
(2.84886 -0.270576 0.720703)
(2.9494 -0.186152 0.523948)
(3.08749 -0.221886 0.371347)
(2.97845 -0.564037 0.221851)
(2.91251 -0.351733 0.0611054)
(2.66853 0.085253 0.239175)
(3.14756 -0.057226 0.976198)
(3.19959 -0.139753 0.847162)
(3.29751 -0.148316 0.731988)
(3.22855 -0.448222 0.647785)
(3.17512 -0.584454 0.598455)
(3.15716 -0.750409 0.171526)
(3.09786 -0.753605 0.399277)
(2.95023 0.102193 -0.160485)
(3.31969 -0.163029 1.2816)
(3.54218 -0.270919 1.08396)
(3.57456 -0.301773 0.949067)
(3.55942 -0.5539 0.964393)
(3.47471 -1.06606 0.800336)
(3.40284 -1.3406 0.732633)
(3.47518 -0.862853 0.328751)
(3.25241 -1.08552 0.185291)
(3.16271 -0.610264 0.083703)
(3.69257 -0.113608 1.58769)
(3.61376 -0.361646 1.53694)
(3.50167 -0.463349 1.40286)
(3.75023 -0.265191 1.36321)
(3.90045 -0.78394 1.32916)
(3.74043 -1.3914 1.41406)
(3.29418 -2.00485 1.35769)
(2.83377 -2.00285 0.805485)
(3.24705 -1.59851 0.0573647)
(3.80702 -1.03236 -0.00661832)
(4.02911 0.106065 2.10112)
(3.40334 -1.70866 2.18859)
(3.35877 -0.730013 2.03782)
(3.58122 -0.452283 1.87882)
(3.84506 -0.770179 1.71075)
(3.67742 -1.3175 1.96325)
(3.37288 -2.22202 2.12232)
(2.48391 -3.2889 1.92998)
(2.75152 -3.18085 1.37778)
(3.22316 -2.16196 1.02579)
(3.61281 -1.28234 -0.0735626)
(3.50725 -0.381884 1.96226)
(3.5261 -0.648916 2.03858)
(3.05926 -1.0458 1.77766)
(2.83346 -0.71969 2.05624)
(2.6899 -0.818456 1.80012)
(2.99625 -0.778449 1.80703)
(2.92645 -1.18974 2.05765)
(2.47432 -2.46651 2.47152)
(2.10842 -3.86619 1.8673)
(2.42266 -4.26781 2.46821)
(3.73175 -2.46897 2.27877)
(2.46441 -1.49725 0.56411)
(2.62211 -0.444925 -0.681252)
(2.70396 -0.797257 -0.346229)
(2.43554 -0.674012 -0.0118103)
(2.60683 -1.42273 0.243957)
(2.55989 -1.31358 0.564591)
(1.77531 -1.05017 0.853083)
(1.79521 -0.110716 1.12524)
(1.40879 0.010882 1.04006)
(1.17806 -0.839625 0.92593)
(2.493 -1.71293 0.781997)
(1.30153 -3.49854 1.90629)
(-0.62639 -4.60268 1.07506)
(0.787577 -4.63568 0.768709)
(1.19012 -1.14324 -0.668469)
(1.04695 -0.209492 -0.0834355)
(0.823287 -0.356287 -0.503645)
(0.720707 -0.317965 -0.267113)
(0.935072 0.167859 -0.0136682)
(1.19626 -0.30489 -0.594967)
(1.36084 -1.37298 -1.1444)
(1.06551 -1.35298 -1.24301)
(0.823004 -0.884555 -1.4428)
(-0.0545669 -1.32249 -1.45148)
(-0.0924046 -0.474922 -2.17116)
(0.460699 -0.168415 -1.49531)
(0.280031 -2.44118 -2.20331)
(-0.190545 -3.95997 1.20816)
(0.984998 -0.0706906 -0.850473)
(0.965344 0.0370648 -0.538142)
(0.65619 -0.0274887 -0.725962)
(0.426687 0.297292 -0.657553)
(0.659801 0.0744996 -0.646149)
(0.549685 -0.313819 -1.03055)
(0.654714 -0.550614 -1.34321)
(0.905424 -0.210969 -1.04966)
(0.962978 -0.148729 -1.35759)
(0.457912 -0.223557 -1.41279)
(-0.105623 -0.961348 -1.26181)
(-0.22055 -1.14584 -1.09149)
(-1.09307 -1.20168 -2.18455)
(-1.04129 -1.44761 -1.28343)
(0.54767 -1.95867 -1.42106)
(0.398805 -0.296395 -1.11733)
(0.503322 -0.351812 -1.25096)
(0.514579 -0.410856 -1.08149)
(0.530073 0.0382467 -0.913723)
(0.481521 0.438943 -0.970698)
(0.626075 0.0442406 -1.10393)
(0.816937 -0.39362 -1.00015)
(0.561633 -0.182882 -0.965765)
(0.421237 0.106782 -1.06783)
(0.506477 0.243935 -1.18912)
(0.117613 0.385759 -1.20173)
(-0.214161 -0.239923 -1.14359)
(-0.193061 -0.61117 -0.658515)
(0.179086 -0.754808 -0.796655)
(-0.0620321 -0.572665 -1.04334)
(0.0727963 -1.35888 -0.89573)
(0.0926757 0.0416496 -1.38571)
(0.193862 -0.0709694 -1.43846)
(0.349995 -0.17708 -1.48456)
(0.360949 -0.329008 -1.4825)
(0.411186 -0.145308 -1.3127)
(0.31507 0.0827473 -1.32219)
(0.178005 0.170987 -1.39705)
(0.279685 0.124171 -1.33107)
(0.202255 0.262954 -1.23585)
(-0.0277464 0.230937 -1.54562)
(-0.105277 0.545763 -1.5082)
(-0.159327 0.489626 -1.76755)
(0.0395156 0.230384 -1.89899)
(-0.0928418 -0.0595215 -2.2234)
(-0.0960974 -0.93274 -1.8336)
(0.198172 -0.323432 -1.40965)
(0.766111 -0.0529944 -0.556046)
(1.37639 0.852544 -0.0661608)
(1.58194 1.03171 0.133605)
(1.50516 0.763028 -0.0804109)
(1.92132 0.785816 0.139744)
(1.82741 0.852622 -0.00584923)
(1.63852 0.781706 -0.0239637)
(2.19739 0.617409 0.351108)
(2.17653 0.640573 -0.061929)
(2.0901 0.630847 0.0350195)
(1.88278 0.583139 -0.122817)
(2.40651 0.687155 0.34296)
(2.38495 0.32695 0.234895)
(2.39896 0.321557 0.0630303)
(2.27926 0.431112 0.0888392)
(2.01679 0.701822 0.00135371)
(2.55633 0.327121 0.486578)
(2.55458 0.12274 0.274349)
(2.52731 -0.087407 0.154094)
(2.57242 0.0958189 0.202221)
(2.47084 0.304228 0.0150511)
(2.22049 0.122134 -0.0414031)
(2.73546 -0.142718 0.532868)
(2.68622 0.0545456 0.504633)
(2.75819 -0.257925 0.438801)
(2.78792 -0.366984 0.241023)
(2.81732 -0.0410351 0.258152)
(2.64556 -0.244198 0.0048278)
(2.42809 0.438232 -0.12784)
(2.85071 -0.0408455 0.764807)
(2.86597 -0.138449 0.640042)
(2.94745 -0.0464967 0.61045)
(2.97012 -0.411145 0.526756)
(3.05581 -0.46861 0.361174)
(2.9386 -0.700692 0.246526)
(2.69614 -1.24546 -0.0390607)
(2.66594 -0.0516301 0.304199)
(3.14029 -0.259144 0.996713)
(3.2219 -0.103387 0.927624)
(3.22294 -0.21221 0.825086)