/*--------------------------------*- C++ -*----------------------------------*\
  =========                 |
  \\      /  F ield         | OpenFOAM: The Open Source CFD Toolbox
   \\    /   O peration     | Website:  https://openfoam.org
    \\  /    A nd           | Version:  7
     \\/     M anipulation  |
\*---------------------------------------------------------------------------*/
FoamFile
{
    version     2.0;
    format      ascii;
    class       volScalarField;
    location    "4";
    object      nut;
}
// * * * * * * * * * * * * * * * * * * * * * * * * * * * * * * * * * * * * * //

dimensions      [0 2 -1 0 0 0 0];

internalField   nonuniform List<scalar> 
18750
(
0.00160475
0.00123732
0.00224383
0.00107993
0.00256431
0.00157961
0.00103164
0.00144528
0.00221243
0.00122274
0.0033266
0.00124739
0.00111837
0.00090551
0.00118282
0.00126085
0.0010588
0.0014817
0.00175581
0.00182867
0.00257934
0.00110992
0.00311765
0.00123968
0.0023496
0.000805628
0.000602507
0.000913803
0.00145946
0.00103986
0.00040615
0.000991306
0.001213
0.000693558
0.00208337
0.00192677
0.00130332
0.00282606
0.00142994
0.00107393
0.00323872
0.00123973
0.00117555
0.000886216
0.00107517
0.000582844
0.000513346
0.000948913
0.00151711
0.00104616
0.000174139
0.00038815
0.000913044
0.000987366
0.00182326
0.00213561
0.00272961
0.000417234
0.00252689
0.00071259
0.00150366
0.00279144
0.000428209
0.00136231
0.00149977
0.00348688
0.000899265
0.00121384
0.00217021
0.00242617
0.000573749
0.000480723
0.00059039
0.00055391
0.00132415
0.00132282
0.000987589
0.000121021
0.000176628
0.000403099
0.000791434
0.00135063
0.00249041
0.00201013
0.00245132
0.00136231
0.00252385
0.00113023
0.00158787
0.00242477
0.00136993
0.0016123
0.000816991
0.00265222
0.00113758
0.000581923
0.00140651
0.00139902
0.00293323
0.001029
0.00107044
0.00100367
0.00166612
0.00137292
0.000998467
0.000326722
0.000547749
0.000489834
0.00067544
0.000801579
0.0016486
0.000995669
9.85186e-05
0.000164494
0.000204142
0.00045628
0.000707315
0.0017489
0.00265559
0.00179413
0.00259829
0.000366038
0.00229977
0.000698191
0.000737949
0.00251972
0.00155166
0.00128432
0.000727439
0.00271259
0.00150702
0.00104003
0.000512938
0.00109062
0.00280448
0.000609132
0.000828376
0.000239295
0.00141376
0.00142463
0.00299945
0.000695028
0.000765565
0.000996298
0.00114893
0.00161777
0.00134903
0.00103884
0.000351473
0.000296367
0.000519539
0.000407055
0.00115452
0.000821271
0.00117645
0.000827084
8.92168e-05
0.000111428
0.00010308
0.000184097
0.000449575
0.000529688
0.00188935
0.00258981
0.00144016
0.00248473
0.000538084
0.00255317
0.000386122
0.000746856
0.00254281
0.000623053
0.00066807
0.000872295
0.00263775
0.000788334
0.00112331
0.000936182
0.00105506
0.00297728
0.000734962
0.00160491
0.00214509
0.00244334
0.00125284
0.0024924
0.00083932
0.000419879
0.00062307
0.000536386
0.00118552
0.00124883
0.0028995
0.00129259
0.000478319
0.000824999
0.00104289
0.00114155
0.00160494
0.00105602
0.00146662
0.000139392
0.0004173
0.000395758
0.000526543
0.000568966
0.00058413
0.000719268
0.00100665
0.000904769
0.000228914
0.000102
0.000122314
0.000127822
0.000193857
0.000400425
0.000467887
0.00189486
0.00230839
0.00101521
0.00253335
0.000711131
0.00243218
0.000429873
0.000434726
0.00262271
0.000255805
0.000372715
0.000549196
0.00255249
0.00086195
0.000802016
0.000745118
0.00125318
0.00241101
0.000890087
0.00104041
0.00122705
0.00123544
0.00162654
0.00304474
0.000642423
0.00205344
0.000682989
0.000854152
0.00272876
0.00091788
0.00256932
0.00129011
0.000211642
0.000245548
0.000711561
0.000611031
0.00138709
0.00199361
0.00276317
0.000441136
0.000644064
0.000764132
0.00107254
0.00090729
0.00110167
0.00169303
0.000686415
0.00149232
0.000199245
0.0001912
0.000345191
0.000382846
0.000537117
0.000344913
0.000362146
0.000713143
0.000794416
0.000937783
0.000368373
0.000206409
0.000112597
0.000139705
0.000140461
0.000172768
0.000417794
0.000381343
0.0017765
0.00188179
0.000636636
0.000825237
0.00244743
0.000498733
0.000803388
0.00231394
0.00055805
0.000722508
0.000916584
0.00255696
0.000410212
0.000325422
0.000597105
0.000361194
0.00235555
0.000844505
0.000827291
0.000752279
0.000684042
0.00122133
0.00227399
0.000749815
0.0010871
0.00162327
0.000979592
0.00199582
0.00154047
0.00322468
0.000231571
0.00105392
0.00142566
0.000926869
0.00089649
0.000730461
0.00188077
0.00291135
0.00093931
0.000611585
0.00032179
0.000447036
0.00069077
0.000893633
0.00248049
0.00128379
0.00266293
0.000640953
0.000852354
0.000718867
0.000665304
0.00105652
0.00113167
0.00123213
0.0014838
0.000928918
0.00129741
0.000295983
0.000208523
0.000246959
0.000282638
0.000334449
0.00044382
0.000333607
0.00122909
0.0013766
0.000705662
0.000643262
0.000287382
0.000327984
0.000183528
0.000124323
0.000123329
0.000169377
0.000198626
0.000409622
0.000428266
0.00140717
0.00137617
0.000405642
0.00278979
0.000476385
0.000741398
0.00251841
0.000718571
0.00042146
0.000732218
0.00232175
0.000456912
0.000250076
0.000684444
0.000568408
0.00241399
0.000467695
0.000448936
0.000503017
0.000538056
0.000761827
0.00238909
0.000966199
0.00104116
0.00100517
0.000825722
0.00104031
0.00116873
0.00231921
0.000614414
0.000771635
0.00143035
0.00145232
0.00149442
0.00101307
0.00270001
0.0032424
0.000708694
0.000890894
0.000906421
0.000827552
0.00165997
0.000803276
0.000873313
0.00246682
0.00352408
0.000504184
0.00151157
0.00150552
0.00124463
0.000738718
0.000886597
0.00190769
0.00158457
0.00114266
0.00296899
0.000129218
0.000506343
0.000729392
0.00049739
0.000455878
0.000416702
0.000888722
0.000935441
0.00135186
0.00142429
0.00219537
0.000380433
0.000191936
0.000211257
0.000317194
0.000207389
0.000406956
0.000544005
0.000303821
0.00086895
0.0011203
0.000494758
0.000727237
0.000160033
0.000316104
0.00029541
0.000172403
0.000146178
0.000107873
0.00015948
0.000245626
0.00040044
0.000343837
0.00123593
0.000913927
0.000295604
0.00254383
0.00040642
0.00269173
0.000487322
0.000378534
0.000859331
0.00269366
0.000483679
0.000373819
0.000680108
0.000672051
0.00228449
0.000441133
0.000435496
0.000516869
0.000574038
0.000731659
0.0024213
0.00041934
0.000566634
0.000445982
0.00048184
0.000253711
0.000647709
0.00232365
0.00107152
0.000970305
0.000868862
0.000678016
0.000762066
0.00113447
0.00116305
0.00192211
0.00054721
0.00107683
0.000981172
0.0012154
0.0015414
0.00131872
0.00163646
0.00202826
0.002383
0.000884465
0.000607384
0.000719084
0.00116217
0.000998943
0.00049826
0.00126859
0.00177387
0.00158021
0.00358744
0.000353553
0.00113206
0.00100393
0.000698729
0.000882805
0.000971609
0.00150074
0.00192004
0.00177559
0.00152301
0.00334967
0.000290139
0.00061881
0.000507716
0.000450104
0.000433225
0.000314482
0.000490387
0.00157419
0.00119539
0.000984608
0.00187123
0.00200141
0.000203145
0.00046729
0.000307064
0.000265847
0.000254576
0.000286669
0.000403641
0.000324087
0.000401241
0.000709039
0.000576557
0.000543715
0.000572227
0.000337928
0.000157079
0.000356248
0.000281386
0.000167613
0.00015355
0.000104651
0.000161554
0.000180866
0.000392149
0.000409123
0.00070595
0.000567005
0.000341007
0.00202565
0.000796053
0.00249732
0.000324701
0.000592779
0.00261457
0.000589779
0.000337771
0.000772069
0.00133585
0.00270667
0.000453805
0.000447596
0.000570854
0.000496892
0.000605026
0.00250243
0.000433435
0.000502992
0.000837152
0.000631643
0.00072604
0.000893418
0.00234572
0.000492096
0.000621322
0.00078077
0.000388449
0.000595529
0.000686526
0.000710414
0.00218411
0.000915636
0.00115887
0.000968412
0.000682574
0.00111844
0.000838115
0.000798449
0.00172443
0.00207769
0.000831574
0.000762289
0.00124099
0.0020085
0.00167484
0.00100157
0.00137956
0.00215212
0.0011783
0.00198432
0.0002054
0.000453423
0.000634373
0.000707076
0.00107648
0.000442295
0.000564636
0.00188938
0.00222749
0.00351226
0.00334948
0.00080615
0.00075826
0.000697812
0.00069955
0.000437426
0.000433717
0.000696986
0.00150319
0.00187242
0.00162522
0.00220802
0.00273339
0.00070042
0.000776951
0.000342161
0.000362683
0.000436794
0.000524792
0.000407525
0.000570757
0.00170602
0.00113936
0.000851818
0.0012137
0.0016977
0.000476014
0.000283513
0.000458258
0.000318079
0.000288657
0.000216456
0.000160481
0.000294004
0.000319506
0.000345506
0.0006157
0.000633513
0.000485753
0.000877858
0.000187408
0.000209072
0.000180345
0.000356175
0.000263001
0.000164334
0.00012193
0.000108979
0.000169869
0.000227539
0.000338808
0.00033891
0.000481094
0.000392981
0.000226355
0.000450592
0.00208781
0.000687014
0.00086042
0.00231763
0.000563785
0.00069031
0.000844425
0.00270014
0.000525704
0.000457914
0.000643699
0.000669404
0.00152176
0.00280694
0.00045352
0.000362085
0.000480123
0.000526873
0.000531476
0.000871557
0.00251155
0.000620717
0.000662606
0.000584127
0.000736303
0.000518298
0.000734609
0.000938219
0.00230878
0.000779177
0.000816138
0.000889603
0.000689801
0.000510015
0.000627199
0.000581134
0.000779206
0.00236727
0.000867033
0.000951669
0.000804015
0.00109734
0.000816339
0.000946639
0.000755669
0.00117611
0.00157141
0.00221125
0.000848847
0.0010372
0.00118672
0.000875029
0.00230346
0.00175872
0.000991737
0.00135788
0.0016211
0.000924034
0.00256545
0.000653182
0.000774899
0.0013666
0.00114793
0.000602709
0.00083055
0.000479675
0.00136984
0.00175794
0.00249013
0.00215281
0.00265807
0.000663472
0.000600761
0.000620045
0.000960244
0.00124635
0.00114518
0.00061884
0.000765115
0.00156377
0.00118429
0.00144603
0.00226492
0.00245407
0.000826073
0.000677455
0.000394638
0.000446143
0.000453746
0.000406157
0.000342498
0.000352596
0.000294072
0.000545593
0.000706655
0.00127609
0.00105832
0.00131954
0.000948836
0.000434565
0.000369384
0.000461148
0.000188873
0.000304768
0.00020247
0.000207549
0.000292785
0.000277788
0.000421183
0.000539256
0.000796394
0.00109108
0.000693269
0.000243192
0.000308452
0.000238821
0.000152027
0.000366721
0.000249906
0.000169489
9.97089e-05
0.000103624
0.000153777
0.000211306
0.000311354
0.000729154
0.000720333
0.000312181
0.00023775
0.00228373
0.000289811
0.000481592
0.00212598
0.000350281
0.000427673
0.00150197
0.00213407
0.000680267
0.000609546
0.000752836
0.000322535
0.00249303
0.000487716
0.000624155
0.000448994
0.000715174
0.000472472
0.00130635
0.00284418
0.000377929
0.000486267
0.000713806
0.000837017
0.000538614
0.000575888
0.000926131
0.00251971
0.00067846
0.000735489
0.000711059
0.000668306
0.000268081
0.000557246
0.000602124
0.00106812
0.00236276
0.000653315
0.000862685
0.000765268
0.000856428
0.000576894
0.000874417
0.000396076
0.000378195
0.000908228
0.00235292
0.000928304
0.000919966
0.00080064
0.000863219
0.00116202
0.00108441
0.000327006
0.000595169
0.00090371
0.0011976
0.00249
0.000630442
0.000961919
0.00122053
0.000794179
0.00120788
0.00119291
0.00107889
0.00112747
0.00141389
0.00226996
0.00192304
0.00194615
0.000908076
0.00130698
0.00143723
0.00102252
0.000706872
0.000674506
0.000973452
0.000759353
0.00210789
0.00140841
0.00244402
0.00216205
0.00293121
0.00118316
0.00102123
0.000527281
0.000444421
0.000527632
0.000762045
0.000904866
0.00066348
0.000690554
0.00152763
0.00114442
0.0010148
0.00182472
0.00211582
0.000635535
0.000587662
0.000596424
0.000683403
0.000507721
0.000373426
0.00037452
0.000351299
0.0003743
0.000535357
0.00056332
0.000742363
0.00135447
0.00139441
0.0014564
0.000632759
0.000969428
0.000497171
0.000413403
0.000419274
0.000264624
0.000254495
0.000198689
0.000243522
0.00046636
0.000267943
0.000373671
0.000670111
0.000803826
0.00127219
0.000482008
0.000170151
0.000286857
0.000397529
0.000498539
0.000115154
0.000399
0.000247738
0.000157824
0.00010468
9.66876e-05
0.000131492
0.000217767
0.000323589
0.000441568
0.000461404
0.00044677
0.000320998
0.00206312
0.000630593
0.00222006
0.000476171
0.0005836
0.000612057
0.00210624
0.000584455
0.000493533
0.000703744
0.00120205
0.00217654
0.000640925
0.000547727
0.000774308
0.000339009
0.000509769
0.00238605
0.000439921
0.000666842
0.000438407
0.000691262
0.000442435
0.000567529
0.000957078
0.00272435
0.000456155
0.00041264
0.00047885
0.000689444
0.000347826
0.000430286
0.000555617
0.000623389
0.00273562
0.00070385
0.000811545
0.000508348
0.000502734
0.000647335
0.000352501
0.000525773
0.000584803
0.00105376
0.00229227
0.000755449
0.000741259
0.000804016
0.00059864
0.00105714
0.000567201
0.000277046
0.000458406
0.000471101
0.000437316
0.00233487
0.000795075
0.000826754
0.000897633
0.000995802
0.00112578
0.000934905
0.000845768
0.000824378
0.00087056
0.000502156
0.00108069
0.002644
0.000824302
0.000848409
0.00117186
0.000518068
0.000619634
0.00127171
0.00074338
0.00132699
0.00103916
0.00148814
0.00233748
0.00178987
0.00183308
0.00128933
0.00131888
0.00107019
0.000723682
0.00136522
0.000857147
0.000935209
0.000884012
0.000557451
0.00079919
0.00108668
0.00136214
0.001683
0.00240147
0.000490649
0.00151732
0.00100437
0.000836818
0.000739391
0.000405357
0.00085433
0.000816521
0.000709664
0.00103171
0.000816916
0.000687613
0.00172287
0.00170687
0.00205285
0.000490397
0.000675479
0.000748834
0.000562577
0.000415506
0.000802454
0.000365715
0.000255217
0.000412069
0.000592711
0.000381071
0.000280024
0.000179296
0.000893714
0.00112452
0.00136868
0.000892525
0.000730311
0.000986472
0.000460475
0.00042672
0.000295876
0.000384849
0.000196467
0.000269001
0.000228039
0.000393619
0.000292007
0.000365937
0.000740999
0.000620527
0.000691227
0.000525883
0.000226914
0.000234195
0.000352417
0.000444228
0.000526331
0.000159148
0.000402018
0.000238337
0.000149216
8.86105e-05
9.76399e-05
0.000102572
0.000178597
0.000305871
0.000247004
0.000352904
0.000448104
0.000199041
0.0021385
0.000318531
0.00209422
0.00045199
0.000545098
0.00217807
0.000513328
0.000349637
0.000414469
0.00055485
0.00199244
0.000633134
0.000612781
0.000598481
0.000558412
0.000987133
0.00225277
0.000607067
0.000527145
0.000484726
0.000705643
0.000965507
0.000848532
0.00233444
0.000682546
0.000539666
0.000496366
0.000802374
0.000449418
0.000631567
0.000658259
0.000723118
0.00261302
0.00056357
0.000385867
0.000605322
0.000566513
0.000318545
0.000609168
0.000429587
0.000406001
0.00078684
0.00257326
0.000588935
0.000499229
0.000657497
0.000558645
0.000427951
0.000196054
0.000410197
0.000388467
0.000635508
0.000672948
0.00251785
0.000661888
0.000985431
0.000956294
0.000796997
0.00126847
0.000577567
0.000584482
0.000175639
0.000455361
0.000714705
0.000441761
0.00254859
0.000718682
0.000850315
0.000688175
0.000634625
0.00102628
0.00100614
0.000963528
0.000807544
0.000898181
0.00102173
0.000833913
0.000829118
0.00229865
0.00133627
0.000826876
0.000951065
0.000620138
0.00056785
0.000519779
0.000988615
0.00115486
0.0011755
0.00142794
0.00178119
0.00247681
0.00177166
0.00274524
0.00065001
0.0012398
0.000846577
0.000907739
0.00105864
0.000453348
0.000434536
0.000789083
0.000636964
0.00125241
0.00084251
0.000892233
0.00206441
0.00147412
0.00201849
0.000419665
0.00142568
0.000723305
0.000867289
0.000593049
0.000718047
0.000545032
0.000951084
0.000665552
0.000761026
0.000775191
0.000519853
0.000964934
0.000610484
0.00149603
0.00247047
0.000474027
0.000879288
0.000620165
0.000483494
0.000932902
0.000840962
0.00043548
0.00043249
0.000233099
0.000440556
0.000523388
0.000175025
0.000356454
0.00041315
0.000539824
0.00124387
0.0016196
0.000623323
0.000620428
0.0012505
0.000920882
0.000718226
0.000353524
0.000319834
0.000341943
0.000171332
0.000321838
0.000184187
0.000288414
0.000374864
0.0005689
0.000289884
0.00119439
0.000666016
0.000579781
0.000194837
0.000218339
0.000233118
0.000420832
0.000527279
0.000611283
0.00016322
0.000358932
0.00021013
0.000149024
8.77844e-05
9.5187e-05
7.052e-05
0.000160495
0.000292301
0.000233471
0.000562712
0.000397299
0.000305188
0.00221726
0.000493082
0.00205932
0.000305129
0.000490181
0.00213822
0.000206169
0.000618195
0.000519695
0.0021929
0.000721364
0.000427037
0.00041908
0.000424957
0.000466105
0.00204671
0.000797714
0.000687182
0.000698838
0.000545447
0.000610533
0.000977235
0.00218653
0.000456416
0.000517142
0.000490909
0.000588282
0.000767055
0.000702614
0.000792564
0.00230364
0.000283032
0.000573521
0.000523451
0.000520291
0.000589503
0.000307271
0.000585262
0.000646836
0.000764329
0.00272128
0.000588225
0.000485225
0.000433335
0.000472933
0.000406619
0.000534441
0.000494628
0.000510044
0.000479694
0.000485545
0.00240527
0.000598291
0.000574069
0.00063882
0.000488298
0.000437374
0.000644083
0.00041985
0.000618972
0.000626667
0.000394547
0.000605187
0.0025625
0.000672361
0.000818023
0.000658993
0.000853827
0.000899035
0.000743892
0.000356742
0.000394169
0.000445903
0.000481664
0.000915139
0.0010278
0.00251036
0.000815661
0.000652174
0.000793061
0.0011954
0.000646264
0.000867158
0.00123256
0.00098667
0.000872133
0.000858844
0.000780407
0.000922825
0.000926958
0.00263976
0.00110139
0.00048604
0.000617147
0.000683776
0.000492556
0.000686951
0.000677929
0.000610928
0.00136516
0.000689053
0.00109377
0.00201632
0.00200382
0.00146879
0.00231064
0.000433846
0.00098862
0.00100145
0.000901055
0.00072026
0.000289633
0.000556299
0.000537496
0.00100125
0.000702828
0.000631539
0.0011902
0.000752194
0.00105352
0.00167334
0.00247663
0.000646704
0.000634561
0.00150011
0.00100108
0.000763841
0.000641341
0.000450898
0.000520438
0.000771652
0.000584439
0.000605946
0.0005203
0.00095077
0.00141932
0.00057148
0.00118026
0.00269138
0.000849988
0.000522071
0.000760649
0.000614404
0.000456705
0.000575114
0.000410729
0.000625351
0.000346953
0.00122643
0.000446875
0.000349341
0.0003504
0.000509489
0.000597242
0.00159749
0.00126252
0.00169993
0.000822022
0.000550361
0.000703961
0.00131701
0.00118365
0.000994726
0.000524195
0.000337436
0.000234388
0.000214663
0.000262988
0.000230228
0.000293069
0.000453523
0.000804587
0.000539535
0.00169973
0.000842233
0.000631146
0.000123142
0.000194783
0.00016807
0.000229194
0.000468308
0.000672307
0.000740653
0.000214155
0.000322259
0.000174818
0.000151557
0.000140399
9.7168e-05
8.38575e-05
0.000159386
0.000284353
0.000210752
0.000589832
0.000571537
0.000360788
0.00219327
0.000343265
0.00221782
0.000381705
0.000436514
0.00210094
0.000351504
0.000406631
0.000483181
0.00211526
0.000497809
0.000234682
0.00043375
0.000500306
0.0023057
0.000625306
0.00053827
0.000479148
0.000364407
0.000333863
0.000557495
0.0020553
0.000511657
0.000521891
0.000572528
0.000531164
0.000554869
0.000866993
0.00103851
0.00211896
0.000609139
0.000474842
0.000449928
0.000658146
0.000389421
0.000768242
0.00071605
0.000717249
0.00227466
0.000185328
0.000457402
0.000403203
0.000387579
0.000459045
0.000241662
0.000562285
0.000600517
0.000308865
0.000949341
0.00248514
0.000464475
0.000571461
0.000231586
0.000542332
0.00045764
0.000502572
0.000349198
0.000490842
0.000671497
0.000646295
0.000296833
0.00252801
0.000596128
0.000498718
0.000703204
0.000558042
0.000526609
0.00072644
0.000450127
0.000692042
0.000455591
0.000422703
0.000760842
0.000758884
0.00251228
0.000664246
0.000738139
0.00082045
0.000605569
0.000590974
0.000834706
0.000400847
0.000799721
0.000457738
0.000578724
0.000634933
0.000547684
0.000657178
0.00245622
0.000831333
0.00082912
0.000644639
0.000878267
0.000684101
0.00132597
0.00065535
0.00104045
0.001033
0.000935681
0.000995414
0.000810729
0.000530667
0.000711619
0.00275506
0.000544708
0.000609399
0.000534349
0.000358934
0.000422407
0.000660821
0.000381328
0.00089511
0.00102457
0.00101888
0.00131279
0.00119653
0.00163505
0.00186543
0.00127439
0.00193642
0.000486009
0.00138677
0.000859366
0.000597279
0.00111017
0.000592489
0.000492739
0.000501266
0.000857864
0.00102212
0.000566166
0.000713887
0.00197015
0.000731295
0.00146009
0.00143551
0.00218375
0.000855857
0.000559776
0.0014689
0.000598616
0.00111895
0.00121961
0.000653304
0.000540121
0.00117373
0.000694415
0.00121804
0.0006983
0.000697477
0.000913103
0.00200321
0.00103249
0.00141359
0.00292119
0.000850105
0.000521869
0.00043302
0.000774794
0.000978495
0.000499731
0.000719255
0.000569703
0.000557973
0.000380926
0.000350467
0.000572979
0.000462858
0.000593561
0.000748688
0.00104937
0.00155521
0.00155843
0.00213191
0.000388238
0.00121865
0.000758876
0.000511004
0.00102732
0.00131192
0.00108787
0.00043278
0.000393941
0.000415117
0.000280942
0.000244626
0.000328098
0.000292349
0.000639954
0.000467893
0.000743282
0.00134252
0.000919543
0.000497778
0.000199045
0.000100878
0.000291341
0.000185106
0.00025402
0.000454573
0.000789978
0.000571481
0.000242146
0.00031816
0.000155345
0.000169057
0.000207126
9.03786e-05
8.79412e-05
0.000174311
0.000251761
0.000177581
0.000482958
0.000482773
0.000433641
0.00224556
0.000300797
0.00217174
0.000443475
0.000342322
0.00216963
0.00035509
0.000309944
0.000363113
0.00210357
0.000136914
0.000397432
0.000332159
0.000406571
0.00199188
0.000675888
0.000439394
0.00035302
0.000598291
0.000594441
0.00226067
0.000302649
0.00066268
0.000472966
0.000558263
0.000291434
0.000341606
0.000425183
0.0020095
0.000411075
0.000674019
0.000379035
0.00052904
0.000355609
0.000676847
0.000720924
0.000978202
0.00215648
0.000406791
0.000529017
0.000372929
0.00051532
0.000530513
0.000476176
0.000676673
0.000597089
0.000921007
0.00221338
0.00050812
0.000563318
0.000494955
0.000446873
0.000465315
0.000375797
0.000332449
0.000454239
0.000615985
0.000469374
0.000926044
0.00260448
0.000476879
0.000546128
0.000201551
0.000412275
0.00058602
0.000415566
0.000372198
0.000361639
0.000740501
0.000501696
0.000429742
0.000747585
0.00221931
0.00064844
0.000617926
0.00093478
0.000845573
0.000468352
0.000575553
0.000646813
0.000469243
0.000450991
0.000460925
0.000406198
0.000703202
0.000727785
0.00250881
0.000753682
0.000765089
0.00064592
0.000533593
0.00106749
0.000657265
0.00054057
0.000817913
0.000937106
0.000312012
0.000545757
0.000485727
0.000718221
0.000486996
0.00267949
0.000984837
0.000779748
0.000666904
0.00060961
0.000612654
0.000322569
0.000934335
0.00125986
0.00121603
0.000919317
0.00106659
0.00118897
0.000886602
0.0011188
0.000856708
0.00247715
0.000326757
0.000851137
0.000630029
0.000556867
0.000447236
0.000474842
0.000468556
0.000714829
0.0005111
0.00123096
0.00111496
0.00136329
0.00164509
0.0015833
0.00134082
0.00106991
0.00232656
0.000818113
0.000776917
0.00111873
0.000523518
0.000628294
0.000963509
0.000599755
0.000486463
0.000526139
0.000693847
0.000796999
0.000908323
0.00100481
0.000458485
0.000931733
0.00102796
0.00166984
0.00249408
0.000709754
0.000846353
0.000504719
0.0012691
0.000616066
0.000934028
0.00124308
0.000771242
0.000566084
0.000870957
0.00117656
0.000821312
0.000620033
0.000794161
0.000768527
0.00144459
0.000592514
0.0014906
0.00269302
0.00118718
0.000528624
0.000365997
0.000914593
0.000835942
0.000608278
0.000438391
0.00035229
0.00027621
0.000333619
0.000846211
0.00045109
0.00138556
0.00054748
0.000547511
0.000969653
0.00110942
0.000981451
0.00176824
0.00244639
0.000322291
0.000438469
0.000824684
0.00100641
0.00106524
0.00106263
0.00124385
0.000876159
0.000453651
0.000349016
0.000262675
0.000293547
0.000331737
0.000366155
0.000279557
0.00118228
0.000415047
0.000724995
0.00103488
0.00120974
0.000537463
8.13601e-05
0.000182491
0.000110956
0.000233363
0.000186598
0.000296484
0.000434283
0.000682857
0.000303866
0.00023362
0.000304601
0.000148145
0.000185608
0.000218088
8.94024e-05
8.93781e-05
0.000295795
0.000236964
0.000179329
0.000389386
0.000358562
0.000295766
0.00209033
0.000430153
0.00221292
0.000207045
0.000387886
0.00221863
0.000197933
0.000391119
0.000343436
0.00214082
0.000498831
0.000313049
0.000433759
0.000426296
0.00212002
0.00045683
0.000510719
0.0003703
0.000216666
0.000474673
0.00207796
0.000605765
0.00049952
0.00037005
0.000318426
0.000591776
0.000575181
0.00218312
0.000514421
0.000565897
0.000523426
0.000387739
0.000336239
0.000352863
0.000421675
0.000539793
0.00198964
0.000553697
0.000480417
0.000523619
0.000426437
0.000326836
0.000381547
0.000488852
0.000663785
0.000740056
0.0021261
0.000489073
0.0004746
0.000348596
0.000404533
0.000497305
0.000459528
0.000505503
0.000709542
0.000569071
0.000799438
0.00209823
0.000418546
0.000498049
0.000565195
0.000379017
0.000573687
0.000546251
0.000511171
0.000398605
0.000603082
0.000727922
0.000539488
0.000817301
0.00254734
0.000545451
0.000559756
0.000302425
0.000225558
0.000414779
0.000364726
0.000526784
0.00019713
0.00062198
0.000578865
0.000430165
0.000334153
0.000705276
0.00236782
0.000779306
0.000594482
0.000616436
0.00093316
0.000778368
0.000481122
0.000524883
0.000535109
0.000670541
0.000346289
0.000629129
0.000708145
0.000488548
0.000554081
0.00256077
0.000623021
0.000826977
0.00065901
0.000841898
0.000739361
0.000714308
0.00127914
0.000695743
0.000656192
0.000565086
0.000644364
0.000607899
0.00102616
0.000813731
0.000933366
0.00237396
0.000938548
0.000445838
0.00119011
0.000642989
0.000670613
0.000596328
0.0014002
0.000455537
0.00115205
0.00149315
0.00104092
0.000959131
0.00116667
0.000424655
0.000723925
0.000884268
0.00266299
0.000578131
0.00100352
0.00134396
0.000190204
0.000792078
0.00072773
0.000589141
0.000712512
0.000618966
0.00119408
0.000390671
0.00103837
0.00116098
0.00217738
0.00147319
0.00068519
0.000746882
0.00228123
0.000686155
0.000668883
0.000780373
0.000627482
0.000815465
0.0010142
0.000802655
0.000708325
0.000714245
0.000556584
0.000518657
0.00114933
0.00100357
0.00237578
0.00148159
0.00143174
0.00183066
0.00218569
0.00261397
0.00117732
0.000532626
0.000540489
0.000502854
0.000536937
0.000714814
0.000644869
0.000288534
0.000418951
0.00060778
0.000555489
0.000560348
0.000469417
0.000495522
0.000828869
0.00129204
0.000765105
0.000703156
0.00113099
0.00260457
0.000777649
0.00169052
0.000449756
0.0003868
0.00111612
0.000449464
0.000281024
0.00028168
0.000600065
0.000652284
0.000632762
0.0010764
0.0012523
0.00055653
0.000271352
0.000112599
0.000856727
0.000832438
0.00183601
0.00135039
0.0020197
0.000204503
0.000406645
0.000499474
0.000343217
0.000721442
0.00125938
0.000605836
0.000812081
0.000855845
0.000338566
0.000606021
0.000446475
0.000731908
0.000630321
0.000233622
0.000223505
0.000964598
0.000441313
0.00077897
0.000956067
0.00116808
0.000974347
6.25767e-05
8.16465e-05
0.000208022
0.000101587
0.000123629
0.000181784
0.000327569
0.000424937
0.000627852
0.000581658
0.000208783
0.000285762
0.000157082
0.000193193
0.000197588
0.000100604
0.000170334
0.0003124
0.000227303
0.000244753
0.000340718
0.000437275
0.000214248
0.00205398
0.000405272
0.0020561
0.000426853
0.000419032
0.0022007
0.000453827
0.000222215
0.000414339
0.0022265
0.000386251
0.000195327
0.000474995
0.000468737
0.00214659
0.000675337
0.000427284
0.0003483
0.000502067
0.000558512
0.0021279
0.00051445
0.000352747
0.000328409
0.000451934
0.000204843
0.000480514
0.00204592
0.000381394
0.000489763
0.000246295
0.00035843
0.000337479
0.000622175
0.000731376
0.00206845
0.000499355
0.000422918
0.000495256
0.000472675
0.000456436
0.000195383
0.000290075
0.000517324
0.000546291
0.00192013
0.000352397
0.00048152
0.000489864
0.000437622
0.000551986
0.000499871
0.000355325
0.000485663
0.000568411
0.000802409
0.00215126
0.000497684
0.00053905
0.000371584
0.000580209
0.000677573
0.000324082
0.000261265
0.000451676
0.000615994
0.00052063
0.000532713
0.00211508
0.000447567
0.000468739
0.000594763
0.000266167
0.000513756
0.000499176
0.000646491
0.000419917
0.00060851
0.000751993
0.000624639
0.000349328
0.000904668
0.00260781
0.000740742
0.000449781
0.000332902
0.000534102
0.000966562
0.00051594
0.000310936
0.000305861
0.000541663
0.000588309
0.000546459
0.000555565
0.000299391
0.000622632
0.00248387
0.000735235
0.000733304
0.0008731
0.00128456
0.000572011
0.000662982
0.000644733
0.000498873
0.000569816
0.000641061
0.000609643
0.000935036
0.00059783
0.000766027
0.000639974
0.00241098
0.000478349
0.000591089
0.000641925
0.000703013
0.000465606
0.000794481
0.000544507
0.000508115
0.000998162
0.000821872
0.000347445
0.000767485
0.000637073
0.00106569
0.000519862
0.000851345
0.00270688
0.000966672
0.00062863
0.001146
0.000682197
0.000567052
0.000604882
0.000867787
0.00111829
0.00109001
0.0010152
0.0010943
0.00143386
0.00099532
0.000905434
0.000813869
0.000637399
0.00059332
0.00260121
0.000286853
0.000587864
0.00112707
0.000223
0.000456758
0.000545754
0.000548995
0.000663913
0.000608822
0.000679503
0.000566593
0.000746923
0.000950829
0.00113674
0.0016048
0.00118222
0.00115326
0.000858564
0.00240581
0.000944984
0.000563725
0.000517486
0.000872939
0.000949519
0.000735156
0.000835646
0.000490046
0.000534881
0.00062269
0.000565527
0.000664233
0.000816036
0.0011062
0.000642909
0.000956121
0.00154622
0.00125129
0.00169007
0.00232455
0.000788044
0.00117803
0.000485856
0.000539172
0.000519754
0.000487862
0.000571587
0.000672349
0.000779626
0.000508713
0.000384857
0.000930378
0.000860224
0.00125328
0.000961326
0.00157903
0.00142623
0.000959353
0.000853126
0.00102647
0.00224145
0.00058282
0.00123136
0.00132811
0.000483916
0.000550182
0.000342168
0.000244538
0.000334679
0.000389702
0.000481678
0.00026088
0.000772522
0.000301695
0.000524042
0.00118759
0.000326206
0.000677234
0.00091824
0.00120729
0.00207856
0.0010734
0.00231661
0.000293898
0.000195942
0.000435487
0.000472266
0.000146492
0.000565264
0.000467963
0.000515554
0.000681427
0.00108367
0.000319747
0.000552751
0.000373875
0.000780765
0.000802756
0.000335592
0.000235045
0.000468095
0.000575486
0.000800776
0.000890536
0.00108218
0.00117558
8.04998e-05
6.10983e-05
9.8636e-05
0.00022237
0.00011359
0.000235141
0.000114227
0.000318422
0.000424537
0.000595322
0.00040886
0.000196332
0.000300199
0.000154272
0.000239643
0.000220127
8.03281e-05
0.000221679
0.000263423
0.000240514
0.000221704
0.000294016
0.000599896
0.000255029
0.00220591
0.000313307
0.00208849
0.000517685
0.000383787
0.00215677
0.000350103
0.000263592
0.000485098
0.00210077
0.000555456
0.000174374
0.000347624
0.000349906
0.00221009
0.000392053
0.000387493
0.000332901
0.00033354
0.000643672
0.00218898
0.000212365
0.000551108
0.000469098
0.000516936
0.000630081
0.00074785
0.00216768
0.000252707
0.000618251
0.000495511
0.000228728
0.000344476
0.000304081
0.000341054
0.00210332
0.000390289
0.000432086
0.000492756
0.000258763
0.00020829
0.000378196
0.000627573
0.000829149
0.00204222
0.000276256
0.000412414
0.000250675
0.000521352
0.000385498
0.000356876
0.000272511
0.000319283
0.000451898
0.000541651
0.00194574
0.000464324
0.000580159
0.000550888