/*--------------------------------*- C++ -*----------------------------------*\
  =========                 |
  \\      /  F ield         | OpenFOAM: The Open Source CFD Toolbox
   \\    /   O peration     | Website:  https://openfoam.org
    \\  /    A nd           | Version:  7
     \\/     M anipulation  |
\*---------------------------------------------------------------------------*/
FoamFile
{
    version     2.0;
    format      ascii;
    class       surfaceScalarField;
    location    "4";
    object      phi;
}
// * * * * * * * * * * * * * * * * * * * * * * * * * * * * * * * * * * * * * //

dimensions      [0 3 -1 0 0 0 0];

internalField   nonuniform List<scalar> 
54095
(
0.000345829
-8.84363e-05
8.72183e-05
0.000266772
-2.82482e-05
-0.00268944
0.000332839
-0.000119654
0.000633846
0.000369952
-9.76667e-05
-0.000185067
-5.21411e-05
5.85252e-05
-0.00514183
0.00019921
-3.91291e-06
-0.00299753
0.000334692
-3.4347e-05
-0.00261983
0.000226381
-8.21119e-05
5.50431e-05
0.000363267
-0.000123243
0.000296156
0.000359138
-0.000103247
-0.000440958
-0.000876928
0.000691835
-0.00839284
9.86444e-05
0.000713297
-0.00737369
0.000114767
3.88336e-06
-0.00492579
0.000152993
9.90788e-05
-0.00261786
0.000113781
-8.86668e-06
-0.00277353
0.000298485
-2.31898e-05
-0.00253599
0.000110945
-3.33502e-05
-0.00104118
0.000261234
-8.43487e-05
-0.000245085
0.000406159
-0.000124103
-8.91467e-05
0.000328924
-0.000103301
-0.000666581
-0.00154225
0.000354853
-0.00569178
-0.000455222
0.001017
-0.0088343
-0.000778185
0.000704278
-0.00820417
-0.000301428
0.000816508
-0.00709383
-1.39771e-05
0.000803988
-0.00118608
0.000139124
0.000203554
-0.00496998
-0.000120329
0.000216629
-0.0029533
0.000196675
0.000100846
-0.00266301
0.000157694
8.31632e-07
-0.00254908
0.000351969
-2.18234e-05
-0.00253721
2.12046e-06
-1.13457e-05
-0.000338833
9.75269e-05
-3.83365e-05
-0.00118472
0.000285599
-8.28798e-05
-0.000571907
0.000430444
-0.000121247
-0.000501645
0.000287198
-9.60623e-05
-0.000857716
-0.00160239
0.00010338
-0.00464037
-0.00103127
0.000441136
-0.00701324
-0.00149004
0.000380531
-0.00536046
-0.00070973
0.00103543
-0.00869727
-0.000634658
0.000978011
-0.00848735
-0.000696921
0.000705224
-0.00807335
-0.000223638
0.000626104
-0.00660984
-0.000283094
0.000865426
-0.0066755
-4.0896e-05
0.000883896
-0.00166783
0.000273916
0.000196198
-0.00508812
-0.000108618
0.000210405
-0.00271262
-0.000110369
0.000226274
-0.00287084
0.000229592
0.00011129
-0.00271746
0.000148781
2.47835e-05
-0.00231403
0.000350243
7.93657e-06
-0.00260819
-3.20153e-05
7.75109e-06
-0.00105473
1.6167e-05
-1.20173e-05
-0.000381319
8.20042e-05
-4.1979e-05
-0.00130762
0.000291674
-7.78639e-05
-0.000906965
0.000415729
-0.000110512
-0.000902924
0.000241534
-8.52556e-05
-0.00101399
-0.0016401
0.000213197
-0.00373236
-0.00105861
0.000236397
-0.00544032
-0.00152594
0.000108131
-0.00471259
-0.000772511
0.00056623
-0.00786495
-0.000994178
0.000344
-0.00661719
-0.00141396
0.000359404
-0.00500283
-0.000170499
0.000891721
-0.00850871
-0.000735761
0.00104086
-0.00830746
-0.000721077
0.000981306
-0.00808325
-0.000623348
0.00071286
-0.00788894
-9.6494e-05
0.000354811
-0.00507961
-0.000259422
0.000658381
-0.00625374
-0.000252907
0.000813357
-0.00612246
-0.000165636
0.000716765
-0.00187398
0.00040201
0.000274065
-0.00541395
8.2977e-06
0.000136174
-0.00179672
-6.67675e-05
0.000202285
-0.0026057
-7.95522e-05
0.000217133
-0.00281512
0.000119144
0.000137346
-0.0026575
0.000191091
7.51007e-05
-0.00215655
0.000331732
1.6129e-05
-0.00271452
1.68551e-05
5.73781e-07
-0.000789364
-3.6282e-05
6.93914e-06
-0.0010374
1.39698e-05
-1.39631e-05
-0.000423305
7.61759e-05
-4.39141e-05
-0.00141775
0.000274995
-6.95336e-05
-0.00122294
0.000352245
-0.000102107
-0.00123832
0.000195853
-7.37744e-05
-0.00113607
-0.00167259
9.64566e-05
-0.00385324
-0.000794763
0.000236858
-0.00457307
-0.00159236
0.000185506
-0.00385145
-0.000581383
0.000379469
-0.00613485
-0.000966034
0.000267567
-0.0056279
-0.00141627
0.000192754
-0.00490303
-4.07337e-06
0.0007402
-0.00836355
-0.000729742
0.000212505
-0.00773947
-0.000922053
0.000300232
-0.00635704
-0.00137699
0.000395786
-0.00464497
-0.000298319
0.000827729
-0.00749352
-0.000499189
0.000970562
-0.00819864
-0.000796263
0.00103458
-0.00781738
-0.000965302
0.00102896
-0.00759969
-0.000433218
0.000747486
-0.0078012
-4.75854e-05
0.000152177
-0.00428265
-7.50729e-05
0.000351459
-0.00476438
-0.000247927
0.000660396
-0.0059324
-0.000454031
0.000678002
-0.00551052
-0.000193224
0.000735931
-0.00195153
0.000277813
0.0002733
-0.00563334
4.04281e-05
9.08774e-05
-0.00117398
-3.76213e-06
0.000119351
-0.0017463
-6.52566e-05
0.000174004
-0.00248334
-2.93524e-05
0.000210414
-0.00278266
0.000178808
0.000155974
-0.00264218
0.000148708
7.00601e-05
-0.00200695
0.000291601
3.41019e-05
-0.00284437
-1.30277e-05
-8.50731e-06
-0.000415076
1.93385e-05
-1.13846e-06
-0.000800625
-3.9638e-05
5.37381e-06
-0.0010171
2.24441e-06
-1.44632e-05
-0.000455
6.90618e-05
-4.52127e-05
-0.00151113
0.000239819
-6.54069e-05
-0.00149946
0.000294985
-9.49093e-05
-0.00151217
0.000152498
-6.2388e-05
-0.00122618
-0.00139392
-0.000107456
-0.00384553
-0.000770313
0.000167573
-0.00503285
-0.00161171
0.000132466
-0.00396635
-0.000713532
0.000358728
-0.00507947
-0.000853189
0.000242077
-0.00474248
-0.00157023
0.00019986
-0.00389735
-0.000103471
0.000696826
-0.00693587
-0.000441241
0.000260778
-0.00641656
-0.000914605
0.000311035
-0.00575363
-0.0013399
0.00015216
-0.00509227
-0.000196542
0.000681479
-0.00839171
-0.000529192
0.00051013
-0.00863118
-0.000839846
0.000532399
-0.00792806
-0.00116648
0.000291366
-0.00605145
-0.00132814
0.000400464
-0.00415051
-0.0003679
0.000840465
-0.00712434
-3.09484e-05
0.000864868
-0.00743195
-0.000251399
0.000987286
-0.00814788
-0.000930514
0.00110086
-0.00741279
-0.00101763
0.00115861
-0.00718641
-0.000601951
0.000783144
-0.00770458
-0.000115417
0.000108381
-0.00511769
-3.13602e-05
0.000173945
-0.00407754
-0.000101594
0.0003953
-0.00446295
-0.000230909
0.000550166
-0.00560301
-0.000252592
0.000666065
-0.00500925
-0.000110477
0.000648897
-0.00206794
0.000229585
0.00029725
-0.00586857
-2.43398e-05
9.10775e-05
-0.00153871
6.09178e-05
8.79047e-05
-0.00118411
2.22039e-05
9.64534e-05
-0.00173059
-8.24742e-05
0.000149341
-0.00233755
-7.60273e-06
0.000204925
-0.00275495
0.000192803
0.000119116
-0.00264422
0.000142921
6.66132e-05
-0.00188739
0.000222434
5.1361e-05
-0.00296567
-1.31293e-05
-1.84917e-05
-0.000652354
-1.41347e-05
-9.2929e-06
-0.000392787
1.63993e-05
-2.39365e-06
-0.000809257
-4.04288e-05
4.6148e-06
-0.000995752
-7.25036e-07
-1.445e-05
-0.000485038
8.16019e-05
-4.53723e-05
-0.00161277
0.000197985
-6.25637e-05
-0.00172979
0.00023264
-8.81774e-05
-0.00171902
0.000116361
-5.16849e-05
-0.00129086
-0.00135251
-1.67522e-05
-0.00393852
-0.00108885
0.000101881
-0.00483281
-0.00131932
-3.09121e-05
-0.00410701
-0.00075271
0.000230814
-0.0050675
-0.000931225
0.000207639
-0.00502999
-0.00156195
0.000187506
-0.00416214
-0.000357381
0.00055885
-0.00513025
-0.000671773
0.000378375
-0.00498524
-0.000778922
0.000277046
-0.00495535
-0.00138845
0.00015703
-0.00400583
-6.0704e-05
0.000953649
-0.00702893
-0.000233246
0.000454913
-0.00742595
-0.000606931
0.00033313
-0.00667158
-0.00100146
0.000268823
-0.0060353
-0.00124787
0.000152872
-0.00532542
-0.000374985
0.000861577
-0.00814838
-0.000103025
0.000877995
-0.0086875
-0.000168722
0.000884179
-0.00906563
-0.00101324
0.000582596
-0.00813656
-0.000952571
0.000508697
-0.00622474
-0.00134199
0.000445949
-0.00385642
-0.000359396
0.000878767
-0.00681442
-0.000202585
0.000785544
-0.00687379
-5.03734e-05
0.000890653
-0.00738654
-0.00032584
0.00102447
-0.00797655
-0.000453149
0.00123531
-0.00728893
-0.00088883
0.00125385
-0.00687876
-0.000614332
0.000796543
-0.00765721
-0.000127713
5.16284e-05
-0.00512616
-0.000119181
0.000226344
-0.00498999
1.71125e-05
0.000201729
-0.00387888
-0.000174572
0.000338561
-0.00415925
-0.000219134
0.000449739
-0.00517516
-0.000148384
0.000613075
-0.00463224
-0.000122896
0.000583876
-0.00208875
-9.31991e-06
0.000308485
-0.0059453
-2.05804e-05
6.89786e-05
-0.00223621
-5.2616e-05
8.93549e-05
-0.00150168
3.55028e-05
8.43096e-05
-0.00119107
7.43286e-05
7.90287e-05
-0.00177504
-6.56256e-05
0.000127647
-0.00219537
4.61583e-05
0.000169343
-0.00276973
0.000199357
0.000100602
-0.00267958
0.000136906
8.76249e-05
-0.00182792
0.000183927
6.64764e-05
-0.00309971
3.29275e-07
-4.66617e-05
-0.00028105
-1.33908e-05
-1.82758e-05
-0.000629981
-1.54406e-05
-1.02382e-05
-0.000369502
1.30314e-05
-3.80975e-06
-0.000813863
-4.74933e-05
5.04991e-06
-0.000967758
3.95671e-06
-1.52459e-05
-0.000519121
4.90124e-05
-4.4489e-05
-0.00167986
0.00015087
-6.10778e-05
-0.00190776
0.000177285
-8.1611e-05
-0.00186638
8.34719e-05
-4.24756e-05
-0.00133185
0.000343849
-0.0029254
-0.00140306
0.0002058
-0.00411244
-0.00126816
-6.91595e-05
-0.00392051
-0.000886535
0.000285223
-0.00482194
-0.0012248
0.000149945
-0.00472009
-0.00136996
-7.78535e-05
-0.00422114
-0.000368939
0.000335967
-0.00526604
-0.000762257
0.000230783
-0.00500016
-0.000749916
0.000247218
-0.00511871
-0.00135915
0.000130943
-0.00432239
-0.000358334
0.000728341
-0.00517174
-0.000440852
0.0005143
-0.00505857
-0.00069572
0.000356246
-0.00497565
-0.000798553
0.000323945
-0.00532518
-0.00141328
7.08812e-05
-0.00391131
-0.000165031
0.00107722
-0.00690782
-0.00024389
0.000828375
-0.00726153
-0.00025722
0.000484154
-0.00748847
-0.000663259
0.000365113
-0.00711785
-0.000697626
0.00030882
-0.0064462
-0.00132278
8.53073e-05
-0.00542993
-0.000351678
0.00111191
-0.00775509
-0.000291794
0.000972989
-0.00815416
-4.7812e-05
0.00100298
-0.00880886
-0.000291849
0.000916595
-0.00943362
-0.000373467
0.000874643
-0.00858219
-0.00104102
0.000569143
-0.00619574
-0.00139092
0.000524749
-0.00360458
-0.000279146
0.000687241
-0.00663678
-0.000280819
0.000946435
-0.00681368
-2.23871e-05
0.000820835
-0.00676447
-0.000338245
0.000898229
-0.00709663
-0.000293676
0.00107453
-0.00774123
-0.000470875
0.00129704
-0.00700964
-0.000954395
0.00125706
-0.00650779
-0.000883659
0.000864755
-0.00764763
2.88807e-05
3.55139e-05
-0.00493319
-0.000232351
0.000213017
-0.0049331
-0.000160584
0.000149963
-0.00474213
9.19899e-05
0.000198716
-0.00375669
-0.000127283
0.000228014
-0.00387586
-0.00020954
0.00042067
-0.00472705
-7.87111e-06
0.000530368
-0.00437151
0.000151043
0.000487504
-0.00228191
-9.81583e-05
0.000285703
-0.00594892
3.62904e-06
5.16291e-05
-0.00217619
-1.98727e-05
6.77526e-05
-0.00220813
-4.51375e-06
8.99123e-05
-0.00151821
1.66352e-05
8.57699e-05
-0.00120142
-4.29865e-05
6.00472e-05
-0.00171195
-3.94877e-05
0.000118471
-0.00210105
-5.92262e-06
0.000156383
-0.00277058
0.00020657
9.9511e-05
-0.00274717
0.000131795
6.67646e-05
-0.00178272
0.000150287
7.91474e-05
-0.00324567
8.53527e-06
-5.31666e-05
0.000239215
-1.95606e-06
-4.58331e-05
-0.000251537
-1.31933e-05
-1.83586e-05
-0.000608667
-1.66558e-05
-1.12394e-05
-0.000345416
1.10181e-05
-5.15351e-06
-0.000814678
-5.13557e-05
4.54741e-06
-0.000936196
-5.24593e-06
-1.50825e-05
-0.000543281
6.11008e-05
-4.41532e-05
-0.00175788
0.000126434
-5.90392e-05
-0.00205676
0.000130096
-7.58984e-05
-0.00196305
6.59009e-05
-3.49238e-05
-0.00136283
3.51446e-05
-0.00355541
-0.0014577
0.000301411
-0.00303728
-0.000991683
0.000297854
-0.00440548
-0.00144171
0.000169941
-0.00413462
-0.00136009
-9.20651e-05
-0.00383832
-0.000469314
0.000470769
-0.00489984
-0.000943861
0.000329754
-0.00482015
-0.00111743
0.000210792
-0.00464122
-0.0013848
-3.05547e-05
-0.00416494
-0.000472634
0.000458132
-0.00529492
-0.000590514
0.000340202
-0.0052258
-0.000641165
0.000211699
-0.0050192
-0.000912873
0.000203898
-0.00507734
-0.00151977
0.000101312
-0.00431721
-0.000353
0.000853573
-0.00550363
-0.000334064
0.000659559
-0.00522682
-0.000433796
0.000469735
-0.00499548
-0.000593476
0.000391765
-0.00511326
-0.000676815
0.000318896
-0.005594
-0.00146981
7.10229e-05
-0.0038353
-0.000147409
0.00113131
-0.00705119
-0.00018504
0.000979949
-0.00716614
-0.00019727
0.00073111
-0.00735903
-0.000315006
0.000370008
-0.00747021
-0.000542077
0.000376722
-0.00701714
-0.000802773
0.000269314
-0.00686845
-0.00129871
-6.62414e-05
-0.0054559
-0.000400821
0.00123093
-0.00674704
-0.000299249
0.00113057
-0.00789424
-1.40732e-05
0.0010853
-0.00824479
-0.000311012
0.00103118
-0.00895068
-0.000353701
0.00102608
-0.00952504
-0.000550075
0.000920907
-0.00885475
-0.00077475
0.000735899
-0.00658653
-0.00137914
0.000783205
-0.0038923
3.04447e-05
0.000485029
-0.00682933
-0.000347493
0.000846732
-0.00642194
-0.000341264
0.00080806
-0.00662022
-3.52303e-05
0.000807632
-0.00654665
-0.000155381
0.000910357
-0.00690436
-0.000310268
0.00107133
-0.0074148
-0.00026877
0.0012656
-0.00675727
-0.000341974
0.00126613
-0.00641615
-0.000906192
0.000803835
-0.00764343
3.32396e-05
9.69989e-05
-0.00463143
-4.3433e-05
0.000101554
-0.00479816
-0.000135734
0.000140392
-0.00479231
-0.000186733
0.000191414
-0.00453147
-6.63435e-05
0.000125953
-0.00363127
-0.000120887
0.000227263
-0.00360106
-0.000116983
0.000396439
-0.00448206
0.000315388
0.000431898
-0.00442472
0.000102482
0.000367851
-0.00233474
-0.000129768
0.000254892
-0.00592375
-8.20087e-05
5.74793e-05
-0.00170809
-6.74503e-06
5.17955e-05
-0.00215544
-2.1549e-05
6.74402e-05
-0.0021773
-3.35472e-05
9.47578e-05
-0.00151031
1.37622e-05
8.65449e-05
-0.00123066
9.8088e-06
5.55439e-05
-0.00171018
-3.04142e-05
9.7574e-05
-0.00201708
0.000114286
0.000144745
-0.002869
0.000257752
4.75217e-05
-0.00285925
0.000134415
4.0962e-05
-0.00174886
0.00012157
7.76787e-05
-0.00337902
1.0901e-05
-4.51841e-05
0.000731248
7.91341e-06
-5.43196e-05
0.000239788
-1.1362e-06
-4.51766e-05
-0.000223583
-1.42192e-05
-1.85693e-05
-0.000587118
-1.31981e-05
-1.23013e-05
-0.000325071
8.67184e-06
-6.38635e-06
-0.000812416
-5.85874e-05
4.53841e-06
-0.000897229
-9.64542e-06
-1.48386e-05
-0.000562951
6.51948e-05
-4.38378e-05
-0.00183828
0.000100693
-5.73271e-05
-0.00217603
9.26295e-05
-7.07887e-05
-0.00201982
5.40357e-05
-2.92041e-05
-0.00138766
-0.00124101
-0.000168551
-0.00365255
5.22654e-05
-0.00419394
-0.0010779
1.29268e-05
-0.00363074
-0.00150738
0.000314828
-0.00320481
-0.000732842
0.000401971
-0.00451298
-0.00106136
0.000306291
-0.00442433
-0.00142636
0.00016321
-0.00408097
-0.0014159
-8.02391e-05
-0.00372698
-0.000596095
0.00061649
-0.00483907
-0.000700485
0.000448048
-0.00490817
-0.00078821
0.000390759
-0.00485307
-0.00119929
0.000250283
-0.00463564
-0.0016075
-4.03873e-05
-0.00403682
-0.000475035
0.000569476
-0.00552783
-0.000497445
0.000456379
-0.00524772
-0.000586843
0.000292613
-0.00515366
-0.000556414
0.000205325
-0.00505769
-0.00089505
0.000223272
-0.00498107
-0.00147599
7.0588e-05
-0.00438162
-0.000369113
0.000924147
-0.00579399
-0.000347567
0.000800711
-0.00548225
-0.000364534
0.000606401
-0.00519623
-0.000433199
0.000478967
-0.00496449
-0.0006333
0.00042675
-0.00512989
-0.000740721
0.000366608
-0.00595164
-0.00137026
6.75292e-05
-0.00383128
-0.000409186
0.00116379
-0.00709772
-0.000309608
0.00106441
-0.00712529
-9.67499e-05
0.000948935
-0.00730129
-8.75193e-05
0.000521074
-0.00773359
-0.00034241
0.000338615
-0.00744339
-0.000500836
0.000403092
-0.00720016
-0.000431056
0.000218576
-0.00749696
-0.00125987
-0.000237188
-0.00533799
-0.00023849
0.00122349
-0.00666573
-0.000424616
0.00126007
-0.00679942
-0.000418611
0.00105399
-0.00778559
-9.6083e-05
0.00116017
-0.00831293
-0.000111686
0.00124115
-0.00920945
-0.000407682
0.00105519
-0.00956191
-0.000508044
0.00102424
-0.00890382
-0.000120348
0.000941425
-0.00696638
-0.00130221
0.000764605
-0.00426089
0.000165246
0.000367639
-0.00691676
-9.46556e-05
0.000526742
-0.00645811
-0.000291704
0.000697977
-0.00615588
-0.000294243
0.000840464
-0.00654554
-4.82319e-06
0.000777887
-0.0064757
-9.07661e-05
0.000809386
-0.00667253
-0.000109336
0.000970679
-0.00712752
0.000139929
0.00119024
-0.00650592
-0.000371779
0.000994481
-0.00613253
-0.000987994
0.000694429
-0.00747963
-8.72964e-05
0.000114513
-0.00441942
-1.04189e-05
0.000114315
-0.00464051
-9.10725e-05
0.000142218
-0.00473047
-0.000199066
0.00023845
-0.00467382
-4.3336e-05
0.000144585
-0.004493
7.02642e-05
0.000142161
-0.00360663
-7.50424e-06
0.000215897
-0.00344342
0.000191723
0.000375756
-0.00450336
0.000252507
0.000338991
-0.00439061
0.000265084
0.00027402
-0.00248454
-0.000203535
0.000142676
-0.00574133
-4.98141e-05
5.27287e-05
-0.00137842
-1.69656e-05
5.72936e-05
-0.00168871
-2.09348e-05
5.02236e-05
-0.00211843
-1.00104e-05
7.06566e-05
-0.00215741
8.377e-06
9.96642e-05
-0.001545
1.96356e-05
8.62128e-05
-0.00127229
-3.34299e-05
4.37523e-05
-0.00168152
2.80192e-05
8.57595e-05
-0.00199575
0.000183492
0.000118006
-0.00305778
0.000271438
-8.72105e-07
-0.00298816
0.000203446
2.51365e-05
-0.00180713
-4.92877e-05
7.15884e-05
-0.00334728
-4.13751e-05
-4.14506e-05
0.000442483
1.00574e-05
-4.61973e-05
0.000713068
6.76506e-06
-5.56792e-05
0.000243526
-1.14169e-06
-4.46111e-05
-0.000196399
-1.47726e-05
-1.88837e-05
-0.000565763
-1.47983e-05
-1.31256e-05
-0.000303533
5.03209e-06
-7.58355e-06
-0.000805326
-6.33153e-05
4.73392e-06
-0.000853486
-1.00962e-05
-1.4413e-05
-0.000582279
6.23359e-05
-4.32368e-05
-0.0019147
7.93468e-05
-5.56733e-05
-0.00227049
6.3802e-05
-6.64674e-05
-0.00204635
5.0568e-05
-2.50595e-05
-0.00141317
-0.00132607
-8.89427e-06
-0.00310435
-0.000858194
-0.000255178
-0.004376
-0.0012909
-0.000231832
-0.0036372
0.000231411
-0.00429629
-0.00108167
0.000110825
-0.00427153
-0.00115108
-8.23546e-07
-0.00359037
-0.00151713
0.000213133
-0.00331671
-0.000725919
0.000576208
-0.00467563
-0.00080324
0.000444041
-0.00454798
-0.00101759
0.00034116
-0.00437291
-0.0015343
0.000197033
-0.00402323
-0.00154461
-1.50828e-05
-0.00377479
-0.000538647
0.000728991
-0.0048862
-0.0005655
0.00060075
-0.00492372
-0.000647571
0.000474355
-0.00493103
-0.000748201
0.000401393
-0.00481239
-0.00136695
0.000267719
-0.00447184
-0.00160363
-2.82798e-05
-0.0038809
-0.000529301
0.000662343
-0.00561631
-0.000569637
0.000563466
-0.00541285
-0.000524677
0.000438556
-0.00523352
-0.000545667
0.000299162
-0.00513503
-0.000595806
0.000245489
-0.0051174
-0.000937624
0.000199333
-0.00491291
-0.00145687
7.58659e-05
-0.00437087
-0.000498942
0.000968484
-0.00619663
-0.000425238
0.000908611
-0.00578626
-0.000227413
0.000727293
-0.00547248
-0.00026778
0.000604068
-0.00514107
-0.000329754
0.000468084
-0.00501848
-0.000520842
0.000516868
-0.00526014
-0.000721046
0.000411095
-0.00600522
-0.00142458
0.000119729
-0.0037863
-0.0002651
0.00119842
-0.00728638
-0.00026168
0.00113144
-0.00732769
-0.000297352
0.00104279
-0.0073404
-0.000164843
0.000842017
-0.00755348
-0.000195951
0.000493317
-0.00780402
-0.000312911
0.000565675
-0.00770075
-0.00058429
0.000433835
-0.00733917
2.59393e-05
0.000158137
-0.00803858
-0.00127855
-0.000350329
-0.00501132
2.53933e-05
0.00119508
-0.00692957
-0.000313482
0.00123466
-0.00642149
-0.000218479
0.00114769
-0.00696634
-0.000308492
0.00119137
-0.00780254
-8.40193e-05
0.00134749
-0.00834007
-8.86583e-05
0.00124474
-0.0094011
-0.000366341
0.0010138
-0.00929446
-0.000405298
0.00113935
-0.00855651
-0.000142158
0.000926105
-0.0073575
-0.00140277
0.000639021
-0.00448513
6.86281e-05
0.000382833
-0.00669947
-0.000203609
0.000373317
-0.00657015
-0.000150116
0.000627696
-0.00632879
-0.000341573
0.000863935
-0.00603685
-2.35471e-05
0.000797776
-0.00658522
5.76783e-05
0.00069838
-0.00635211
-4.6517e-05
0.000688313
-0.00635115
0.000180504
0.00079822
-0.00672428
0.000125718
0.000853878
-0.00623853
9.16684e-05
0.000821107
-0.00608579
-0.00107458
0.000602391
-0.00721098
-7.97481e-05
0.00013312
-0.00399347
-1.06024e-05
0.000133053
-0.00444452
-4.28272e-05
0.000135098
-0.0046115
4.08767e-05
0.000214209
-0.00475711
-8.28468e-05
0.000199485
-0.0046375
-6.24691e-05
0.000139196
-0.00440793
7.04544e-05
0.0001259
-0.00362052
0.000188774
0.000262152
-0.00349058
0.000239463
0.000131607
-0.00435195
0.000360446
0.000206328
-0.00441193
0.000468354
0.000124532
-0.0027313
-0.000564186
8.58072e-05
-0.00531223
-8.12659e-05
5.93768e-05
-0.00116475
-3.26615e-05
5.28544e-05
-0.00133126
-2.03789e-05
6.20496e-05
-0.00167339
-2.10886e-05
5.25273e-05
-0.00208035
-2.28191e-05
7.50058e-05
-0.0021247
-4.38957e-05
0.000101957
-0.00153165
-1.43252e-06
8.73843e-05
-0.00130946
-3.83672e-05
3.6401e-05
-0.00165711
-1.69967e-05
7.60408e-05
-0.00194689
0.000157375
8.80777e-05
-0.00324177
0.000267754
-3.66343e-05
-0.00311479
0.000198887
2.35863e-05
-0.00189421
-1.33744e-05
6.61612e-05
-0.0033495
-4.88374e-05
-3.20061e-05
-0.000938291
-3.85837e-05
-4.23186e-05
0.000477188
8.10119e-06
-4.7363e-05
0.000696651
3.94373e-06
-5.6944e-05
0.000251915
-1.31804e-06
-4.40653e-05
-0.000169899
-1.26902e-05
-1.92975e-05
-0.000546901
-1.41688e-05
-1.37223e-05
-0.000283226
2.52696e-06
-8.58942e-06
-0.00079453
-6.35476e-05
5.17166e-06
-0.000809523
-1.31698e-05
-1.51789e-05
-0.000597167
5.41714e-05
-4.30047e-05
-0.00198154
4.51711e-05
-5.21773e-05
-0.00232995
4.57848e-05
-6.54343e-05
-0.00205176
4.25822e-05
-2.40358e-05
-0.00143172
0.000228227
-0.00254575
-0.00123686
0.000309719
-0.00368927
-0.00130844
-8.50695e-05
-0.00300175
-0.00112577
-0.000218035
-0.00410656
-0.00100316
-0.000273139
-0.00448261
-0.00139276
-0.000141598
-0.00361998
0.000419258
-0.00438308
-0.000986584
0.00030343
-0.00430556
-0.0010898
6.87022e-05
-0.00426884
-0.000783976
-0.000144416
-0.00398315
-0.00150225
0.00014984
-0.0035089
-0.000714144
0.000720354
-0.00459219
-0.000694873
0.000605008
-0.00470723
-0.000806571
0.000466378
-0.0045142
-0.000845148
0.000356201
-0.00443513
-0.00151352
0.000192643
-0.00408439
-0.00156764
4.31092e-06
-0.00381509
-0.000533619
0.000789589
-0.00486913
-0.000621544
0.000721905
-0.00495545
-0.000589264
0.000598458
-0.00498323
-0.000606729
0.000449957
-0.00491854
-0.000741396
0.000409181
-0.00480826
-0.00132813
0.000251086
-0.0043607
-0.00158779
-3.02139e-05
-0.00371977
-0.000567338
0.000774105
-0.00580095
-0.000572724
0.000668089
-0.00557345
-0.000510289
0.000572115
-0.00526353
-0.000376707
0.000422969
-0.0052484
-0.000489404
0.000372652
-0.00510255
-0.00049587
0.000187495
-0.00513053
-0.000905385
0.000203552
-0.00485625
-0.0015237
9.45872e-05
-0.00436634
-0.000295218
0.00104563
-0.00646934
-0.000313989
0.000981458
-0.00621716
-0.000256659
0.000839036
-0.0059387
-0.000206862
0.000673217
-0.00549961
-0.000419683
0.000585755
-0.00503501
-0.00028831
0.000484529
-0.00501074
-0.000518369
0.000586047
-0.00550101
-0.000724977
0.00047066
-0.00560523
-0.00140381
0.000238759
-0.00389979
-0.000190498
0.00129351
-0.00715498
-0.000266846
0.00118205
-0.00738362
-0.000112493
0.00113805
-0.00752893
-0.000238692
0.00105327
-0.00762145
-0.000174996
0.000748232
-0.00771741
-4.78289e-05
0.000695804
-0.00797498
-0.000401772
0.000535711
-0.00776719
-0.000456219
0.00045871
-0.00758882
-0.000118261
0.000106811
-0.00851961
-0.0013433
-0.000172757
-0.00489803
-4.89893e-05
0.00123714
-0.00722799
-0.000395157
0.00123165
-0.00673501
-0.000206584
0.00120699
-0.00642432
-0.000263229
0.00107007
-0.00692339
7.14441e-05
0.00121725
-0.0077673
8.02314e-05
0.00134889
-0.00846677
-0.000302449
0.00122948
-0.00936085
-0.000384409
0.00112325
-0.00871345
-0.000194124
0.00123267
-0.00854324
0.00011308
0.00101055
-0.00775044
-0.00131527
0.000510912
-0.00475536
-0.000148131
0.00038094
-0.00617761
-0.000189737
0.000352277
-0.00649929
-1.3466e-05
0.000500458
-0.00647227
3.63416e-05
0.000665187
-0.00612551
-0.000153196
0.000725029
-0.00589375
-7.94921e-05
0.000679926
-0.00654974
4.27513e-05
0.000606261
-0.00624236
0.000101067
0.000550166
-0.00601539
0.000356091
0.000521878
-0.00650891
0.000574013
0.000581065
-0.00621206
0.000584801
0.00072268
-0.00632253
-0.0011949
0.000430645
-0.00701091
-1.68811e-05
9.43058e-05
-0.00424856
-2.47222e-06
0.000168477
-0.00405909
1.1293e-05
0.0001596
-0.00450069
-2.33635e-05
0.000147953
-0.00454297
-0.000157605
0.000216239
-0.00463908
-0.000207289
0.000204977
-0.00453989
-0.000109867
0.000147704
-0.0043213
4.05739e-05
0.000142466
-0.00357977
8.3059e-05
8.80591e-06
-0.00346783
0.000155614
0.000125034
-0.00426889
0.000372423
0.000154493
-0.00454656
0.000786611
1.01443e-05
-0.00324336
-0.000530296
3.16061e-05
-0.00482692
-3.60615e-05
-1.90064e-05
-0.0004901
-8.16369e-06
5.93111e-05
-0.00120163
1.42305e-05
5.88456e-05
-0.00133419
-3.0162e-05
6.8209e-05
-0.00165497
-2.2009e-05
5.60413e-05
-0.0020407
-4.10741e-05
7.79975e-05
-0.00207236
-2.45817e-05
0.000105729
-0.00153958
-7.60266e-06
8.60158e-05
-0.00134895
-2.26738e-05
3.02044e-05
-0.00165215
9.08376e-06
6.41314e-05
-0.0019452
0.000148639
5.41142e-05
-0.00342698
0.000224418
-5.60882e-05
-0.00321436
0.000199025
2.30579e-05
-0.00200435
-2.09464e-05
5.28047e-05
-0.00333878
-4.81876e-06
-2.85553e-05
-0.00146591
-4.58984e-05
-3.33753e-05
-0.000901336
-3.5644e-05
-4.09641e-05
0.000506433
6.07731e-06
-4.83331e-05
0.000681963
5.32391e-06
-5.79263e-05
0.000260452
-1.51457e-06
-4.34932e-05
-0.000144189
-9.63469e-06
-1.96372e-05
-0.000531351
-1.2284e-05
-1.41719e-05
-0.000265359
1.91205e-06
-9.58672e-06
-0.000781683
-6.5053e-05
4.86311e-06
-0.000764512
-1.86559e-05
-1.49483e-05
-0.000606568
3.84523e-05
-4.06942e-05
-0.00203148
2.70442e-05
-5.14362e-05
-0.00237099
3.15851e-05
-6.8881e-05
-0.0020385
4.7155e-05
-2.51154e-05
-0.00145376
0.000162462
-0.00293531
-0.00161012
0.000246503
-0.00249057
-0.00118774
0.000296699
-0.00367222
-0.00144028
0.000337335
-0.00367456
-0.00138346
-0.000195474
-0.00281557
-0.00123687
4.13168e-05
-0.00422329
-0.00111011
-0.000129513
-0.00422987
-0.000599428
-0.000210019
-0.00459874
-0.00139073
-0.000219361
-0.00351215
0.000568093
-0.00437822
-0.000784287
0.000451127
-0.00444136
-0.00094255
0.000263118
-0.00436399
-0.000683417
-9.01265e-05
-0.00448486
-0.000698079
-0.00019771
-0.00445104
-0.0015629
0.000111346
-0.00362499
-0.000656836
0.000855054
-0.00460687
-0.000677489
0.000727727
-0.00465896
-0.000662643
0.000627328
-0.0047948
-0.000616919
0.000415432
-0.00456324
-0.000868154
0.000350702
-0.00446643
-0.00130655
0.00022169
-0.00432335
-0.00153651
6.05507e-05
-0.00392693
-0.000468859
0.000820611
-0.00494782
-0.000451209
0.000739533
-0.00500828
-0.000587869
0.000705171
-0.00498459
-0.00031952
0.000543293
-0.00513376
-0.000511923
0.000432029
-0.00491887
-0.000575477
0.000377523
-0.00485509
-0.00103774
0.000219995
-0.00447855
-0.00160718
2.02729e-06
-0.00363832
-0.000505118
0.000957328
-0.00568104
-0.000529659
0.000772442
-0.00568964
-0.000436549
0.000705188
-0.00552663
-0.000397668
0.00056954
-0.00521929
-0.000413956
0.000429295
-0.00531077
-0.000404729
0.000279601
-0.00507823
-0.000386382
0.000205791
-0.00526475
-0.000843387
0.000231051
-0.00487431
-0.00147382
0.000117462
-0.00441379
-0.000150849
0.00114584
-0.00657419
-0.000228792
0.00103681
-0.00656274
-0.000216677
0.000939878
-0.00621382
-0.000179844
0.000779798
-0.00610412
-0.000185714
0.000605528
-0.00550867
-6.03982e-06
0.000497959
-0.00509022
-0.000239954
0.000537877
-0.00512439
-0.000511958
0.000609938
-0.00558455
-0.000652572
0.000581014
-0.00541318
-0.00130464
0.000285376
-0.00422383
-0.000145705
0.0013607
-0.00698588
-0.000184223
0.00127662
-0.00746049
-0.000184039
0.00121023
-0.00747835
-0.000183715
0.00117979
-0.00773497
0.000142501
0.000971959
-0.00791624
2.22523e-06
0.000953658
-0.00789726
-0.000309827
0.000663254
-0.00809515
-0.000417621
0.000614765
-0.00789004
-0.000358042
0.000447537
-0.00776563
-0.000237339
0.000126083
-0.00846804
-0.00121567
-9.74024e-05
-0.00490023
-0.000166816
0.00131385
-0.00707281
-0.00027575
0.00120393
-0.00711426
-1.63408e-05
0.00112365
-0.00664879
-4.83736e-05
0.00101027
-0.0062798
-4.41578e-05
0.000960328
-0.0067755
0.000211842
0.00121921
-0.00792895
-4.06272e-05
0.00136351
-0.00851742
-0.000383743
0.00125256
-0.00900535
-0.000131311
0.00137848
-0.00837186
0.00012959
0.00111804
-0.00820632
0.000630682
0.00101263
-0.00829804
-0.00121944
0.000360965
-0.00509178
-7.32444e-05
0.000393807
-0.00604244
-4.18737e-05
0.00032616
-0.0061121
8.21424e-05
0.000334637
-0.00640432
5.02191e-05
0.000425312
-0.00630598
-0.000115719
0.000564803
-0.00600717
-0.000263965
0.000670575
-0.00582772
-8.79929e-05
0.000552305
-0.00651766
4.73564e-05
0.000526363
-0.00622534
0.000176602
0.000348531
-0.00593559
0.00035558
0.000317785
-0.0064456
0.000672766
0.000497557
-0.00628728
0.000913518
0.000605663
-0.00662445
-0.00120473
0.000423776
-0.00676025
9.6683e-05
0.000110387
-0.00426409
0.000113244
0.000119322
-0.00432081
7.34777e-05
0.000196734
-0.00415547
-3.30576e-06
0.000154844
-0.00453444
-6.19936e-05
0.000187582
-0.00447433
-0.000176926
0.000246629
-0.00454488
-0.000137968
0.000213747
-0.00449254
-0.000139187
0.000150335
-0.00419758
6.33406e-05
0.000110591
-0.00376757
-2.14299e-05
0.000120124
-0.00343241
7.04393e-05
7.1965e-05
-0.00410816
0.000475894
0.000125988
-0.00491388
0.000777498
-0.000106531
-0.0036837
-0.000477172
0.000142582
-0.00451327
7.85394e-05
-0.000170994
-0.00117028
-2.00842e-05
8.82132e-06
-0.000465424
-9.67809e-06
5.09056e-05
-0.00121966
-1.27396e-05
6.65619e-05
-0.00131373
1.9745e-05
7.14127e-05
-0.00168476
-4.4426e-06
5.6079e-05
-0.00201585
-3.71409e-05
8.12321e-05
-0.00202036
-8.41292e-06
0.000103231
-0.00156067
1.07966e-05
8.29033e-05
-0.00141053
-2.74993e-05
1.72007e-05
-0.00164277
-2.00755e-05
5.08911e-05
-0.00194055
7.83292e-05
2.30064e-05
-0.00354595
0.000192081
-5.6813e-05
-0.00329953
0.000221545
2.10445e-05
-0.00216255
-3.85115e-06
-1.49531e-05
-0.00327282
-4.02182e-05
-2.73404e-05
0.000439849
-7.89069e-06
-2.9302e-05
-0.00146209
-4.90482e-05
-3.37846e-05
-0.000859467
-3.61278e-05
-4.36784e-05
0.000537906
3.57277e-06
-4.92986e-05
0.000669762
9.98136e-06
-5.84982e-05
0.000265475
-2.05312e-06
-4.29629e-05
-0.00011881
-6.2285e-06
-1.97885e-05
-0.000519506
-1.30754e-05
-1.42989e-05
-0.000247571
4.50262e-06
-1.07046e-05
-0.000770618
-6.31435e-05
5.32451e-06
-0.000721642
-2.39519e-05
-1.71472e-05
-0.000606163
2.42907e-05
-3.9265e-05
-0.00206794
1.57181e-05
-4.97927e-05
-0.0024058
2.10271e-05
-7.20416e-05
-0.00201261
3.49684e-05
-2.15922e-05
-0.00146713
-0.00160239
-4.55276e-05
-0.00214125
0.000144972
-0.00333345
-0.0014246
8.26254e-05
-0.00278711
-0.00165301
0.000212934
-0.00243395
-0.00124006
0.000205934
-0.00373747
-0.00112231
0.000333895
-0.00365658
-0.00141922