/*--------------------------------*- C++ -*----------------------------------*\
  =========                 |
  \\      /  F ield         | OpenFOAM: The Open Source CFD Toolbox
   \\    /   O peration     | Website:  https://openfoam.org
    \\  /    A nd           | Version:  7
     \\/     M anipulation  |
\*---------------------------------------------------------------------------*/
FoamFile
{
    version     2.0;
    format      ascii;
    class       surfaceScalarField;
    location    "4";
    object      phi_0;
}
// * * * * * * * * * * * * * * * * * * * * * * * * * * * * * * * * * * * * * //

dimensions      [0 3 -1 0 0 0 0];

internalField   nonuniform List<scalar> 
54095
(
0.000343204
-8.75631e-05
8.94969e-05
0.000258266
-2.55939e-05
-0.0026912
0.000328758
-0.000118703
0.000666031
0.000368801
-9.68734e-05
-0.000182431
-6.47739e-05
6.21796e-05
-0.00517862
0.000195817
4.0081e-06
-0.00301534
0.000320945
-3.31763e-05
-0.00261017
0.000218557
-8.02534e-05
0.000107849
0.00035814
-0.000122498
0.000333515
0.000358814
-0.000102693
-0.000438552
-0.000884749
0.000701031
-0.00840549
0.000136701
0.000715171
-0.00739197
8.04173e-05
5.0668e-06
-0.00494316
0.000144448
0.000103122
-0.00263125
0.000105425
-5.95117e-06
-0.00278985
0.000291329
-2.1938e-05
-0.00252075
0.000109982
-3.189e-05
-0.00102128
0.000255011
-8.28828e-05
-0.000186778
0.00040291
-0.000123659
-4.84291e-05
0.000329427
-0.00010313
-0.00066485
-0.0015427
0.000351503
-0.00573196
-0.000396377
0.00101313
-0.00887211
-0.000799724
0.000703009
-0.00822836
-0.000292944
0.000807101
-0.00715835
-7.93063e-06
0.000791404
-0.00120476
0.000117049
0.000201846
-0.00497073
-0.000126081
0.000219015
-0.0029561
0.000174983
0.000104782
-0.00266196
0.000153584
3.94752e-06
-0.00256641
0.000341697
-2.224e-05
-0.00251078
8.74958e-07
-1.09328e-05
-0.000327182
9.70166e-05
-3.70541e-05
-0.00116413
0.000281745
-8.19854e-05
-0.000510196
0.000429806
-0.000121109
-0.000460256
0.000288728
-9.65682e-05
-0.00085701
-0.00160608
0.000103844
-0.00462802
-0.00102077
0.000454917
-0.00704857
-0.00149497
0.000379012
-0.00541572
-0.000690621
0.00102771
-0.00875455
-0.000623435
0.000981349
-0.00853494
-0.0007132
0.000704433
-0.00810254
-0.000220536
0.000614207
-0.00663722
-0.000306752
0.000855095
-0.00674031
-3.89616e-05
0.000907297
-0.00171767
0.000251737
0.000191747
-0.00507251
-0.000108593
0.000212426
-0.0027068
-0.000117812
0.000230024
-0.00286652
0.000232952
0.000113667
-0.00272288
0.000143146
2.29283e-05
-0.00232492
0.000346881
6.74779e-06
-0.00257568
-3.10343e-05
7.93176e-06
-0.00105049
1.37474e-05
-1.15192e-05
-0.000366464
8.27515e-05
-4.09452e-05
-0.00128792
0.000291759
-7.73526e-05
-0.000845712
0.000421395
-0.000110522
-0.000867697
0.000243757
-8.59152e-05
-0.00101485
-0.00164544
0.000211398
-0.00371336
-0.00106825
0.000240391
-0.00542516
-0.00153372
0.000103749
-0.00469302
-0.00075696
0.000572048
-0.00785438
-0.000988881
0.00035527
-0.00665938
-0.00142066
0.000356302
-0.00506456
-0.000167502
0.00088307
-0.00853943
-0.000739745
0.00104278
-0.00838298
-0.000706424
0.000977577
-0.00814062
-0.00063224
0.000712745
-0.00793131
-9.89596e-05
0.000349387
-0.00511228
-0.000257868
0.000653108
-0.00629518
-0.000230672
0.000829593
-0.00619898
-0.000163312
0.000717461
-0.00193693
0.000375283
0.000271145
-0.00537206
1.53221e-05
0.000137157
-0.00178878
-7.0175e-05
0.000205495
-0.00259835
-9.00144e-05
0.000221795
-0.00280188
0.000116791
0.000137046
-0.00266203
0.000186791
7.22805e-05
-0.00215585
0.000333093
1.43882e-05
-0.0026794
1.67217e-05
7.28616e-07
-0.000789
-3.60182e-05
7.25077e-06
-0.00103324
1.40792e-05
-1.33996e-05
-0.000408089
7.37661e-05
-4.32422e-05
-0.0013958
0.000279793
-6.89326e-05
-0.00116709
0.000358306
-0.000101673
-0.00121025
0.000198769
-7.45913e-05
-0.00113903
-0.00168068
9.56728e-05
-0.0038332
-0.000806278
0.000231982
-0.00454553
-0.00159669
0.000183169
-0.00383355
-0.000581798
0.000397927
-0.0060903
-0.000966775
0.000267086
-0.00561061
-0.00142923
0.000191418
-0.00487587
-2.91888e-06
0.00073123
-0.0083249
-0.00073261
0.000227394
-0.00773364
-0.000908706
0.000300707
-0.0064015
-0.00137787
0.00039296
-0.0047119
-0.000316405
0.0008245
-0.00752188
-0.000489357
0.000957322
-0.00822248
-0.000774219
0.00102881
-0.00789067
-0.000944346
0.00101454
-0.00766139
-0.000466777
0.000740749
-0.00783
-3.68366e-05
0.000148313
-0.00432496
-7.86187e-05
0.000343085
-0.00479381
-0.000259253
0.000661965
-0.00595831
-0.00045613
0.000687017
-0.00559561
-0.000207247
0.000735437
-0.00200718
0.000282248
0.000272549
-0.00559376
4.3127e-05
9.10938e-05
-0.0011764
-6.93495e-06
0.000121171
-0.00173354
-6.39551e-05
0.000178549
-0.00247707
-4.30153e-05
0.000212653
-0.0027607
0.000165169
0.00015733
-0.00263246
0.000146418
7.23808e-05
-0.00200195
0.000302113
3.16592e-05
-0.00281441
-1.30027e-05
-8.47173e-06
-0.000414721
1.91422e-05
-8.5413e-07
-0.000800037
-3.97705e-05
5.71214e-06
-0.00101258
1.95515e-06
-1.42235e-05
-0.000439063
6.90508e-05
-4.48336e-05
-0.00148895
0.000246651
-6.45568e-05
-0.00145086
0.000301288
-9.44797e-05
-0.00149164
0.000155682
-6.32877e-05
-0.00123142
-0.00140122
-0.000111057
-0.00382523
-0.000762885
0.000165248
-0.00501946
-0.00161386
0.000130294
-0.00394633
-0.000712449
0.00035901
-0.00507614
-0.000854232
0.000238927
-0.00471383
-0.00157686
0.000199802
-0.00388573
-9.15593e-05
0.000720403
-0.00689575
-0.000438332
0.000263228
-0.00638072
-0.000910029
0.000312282
-0.00573015
-0.00134506
0.000152847
-0.00506152
-0.000189671
0.000669058
-0.00838196
-0.000517969
0.000509308
-0.0085782
-0.000816898
0.000508214
-0.00789847
-0.00116605
0.00028018
-0.00606701
-0.00133569
0.000400154
-0.00424314
-0.000355267
0.000848991
-0.00717099
-6.83531e-05
0.000850877
-0.0074257
-0.00026265
0.000980128
-0.0081704
-0.000948586
0.0010873
-0.00747098
-0.0010289
0.0011413
-0.00724029
-0.000593116
0.000775072
-0.00772971
-0.000106059
0.000104172
-0.00515639
-4.29313e-05
0.000164474
-0.00411035
-9.04496e-05
0.000391498
-0.00449685
-0.000227805
0.000568515
-0.00565502
-0.000281732
0.000666027
-0.0050793
-0.000126014
0.000656818
-0.00211902
0.000256338
0.000290839
-0.00583883
-2.17606e-05
9.13405e-05
-0.0015412
5.86811e-05
8.81529e-05
-0.00118292
1.92611e-05
9.84238e-05
-0.00171244
-8.15671e-05
0.000152848
-0.00233374
-1.15189e-05
0.000209084
-0.00273189
0.000185699
0.000127278
-0.0026264
0.000140824
6.62199e-05
-0.00187605
0.00023152
4.80746e-05
-0.00293832
-1.37324e-05
-1.83703e-05
-0.000654641
-1.41779e-05
-9.23247e-06
-0.000392164
1.656e-05
-2.17637e-06
-0.000808708
-4.00348e-05
4.74452e-06
-0.000991511
-1.45296e-06
-1.42095e-05
-0.000468234
8.15518e-05
-4.52917e-05
-0.00158976
0.00020629
-6.16888e-05
-0.00168994
0.000238876
-8.78858e-05
-0.00170592
0.000119354
-5.26582e-05
-0.00129812
-0.00135049
-1.91242e-05
-0.00394504
-0.00107863
9.97694e-05
-0.00483363
-0.00132032
-2.96807e-05
-0.00408908
-0.000750507
0.000231086
-0.00506081
-0.000933002
0.000205474
-0.00501587
-0.00157287
0.000189717
-0.00414004
-0.000353826
0.000564917
-0.00513087
-0.000672394
0.000377962
-0.00498111
-0.000777088
0.000271554
-0.00491852
-0.00139537
0.000161174
-0.0039966
-4.19945e-05
0.000964319
-0.00697488
-0.000223005
0.00046857
-0.00739606
-0.000593969
0.000329943
-0.00662131
-0.0010158
0.000271106
-0.00599866
-0.00125639
0.000160122
-0.00530094
-0.000358807
0.000865343
-0.00813589
-0.000138708
0.000848813
-0.00865111
-0.000184382
0.000855764
-0.00900402
-0.00104399
0.000563309
-0.00808619
-0.000963599
0.000483861
-0.00621602
-0.00133726
0.000442674
-0.00394167
-0.00034655
0.000876637
-0.00683382
-0.000240356
0.000789784
-0.00691247
-2.0912e-05
0.000886265
-0.00740138
-0.000316774
0.00101674
-0.00801086
-0.000493775
0.00121094
-0.00732858
-0.000899672
0.00123778
-0.00692933
-0.00058845
0.000790301
-0.00767523
-0.000113094
4.34385e-05
-0.00514618
-0.000120826
0.000213885
-0.00502629
1.16104e-05
0.000197574
-0.00390878
-0.000169363
0.000351155
-0.0041917
-0.000224731
0.000456327
-0.00523211
-0.00018628
0.000621634
-0.00467214
-0.000164534
0.000592067
-0.00211489
2.17302e-05
0.000310007
-0.00593904
-2.03327e-05
6.91249e-05
-0.00224274
-5.64147e-05
8.93149e-05
-0.00150013
3.83718e-05
8.45541e-05
-0.00119086
8.42154e-05
8.09825e-05
-0.00176483
-6.83243e-05
0.000130287
-0.00218807
4.10738e-05
0.000176712
-0.00274084
0.000194236
0.000103572
-0.0026517
0.000136498
8.82877e-05
-0.00181389
0.00019009
6.31989e-05
-0.00307225
2.37521e-07
-4.64819e-05
-0.000286382
-1.36444e-05
-1.81356e-05
-0.000632093
-1.54317e-05
-1.01602e-05
-0.000368749
1.2927e-05
-3.5673e-06
-0.000813323
-4.72742e-05
5.17874e-06
-0.000963625
3.44261e-06
-1.50525e-05
-0.000501916
4.80201e-05
-4.44995e-05
-0.00165497
0.000157444
-6.03194e-05
-0.00187495
0.000182948
-8.15231e-05
-0.00186001
8.61187e-05
-4.34768e-05
-0.00134076
0.000341561
-0.00292003
-0.00140106
0.000206295
-0.00411597
-0.00126942
-7.11554e-05
-0.00392479
-0.000883545
0.000283471
-0.004817
-0.00122086
0.000147977
-0.00472343
-0.00137547
-7.55035e-05
-0.00421098
-0.000367338
0.000336928
-0.00526163
-0.000763669
0.000230944
-0.00499501
-0.000745623
0.000249065
-0.00510668
-0.00136242
0.000132281
-0.00430526
-0.000354785
0.000736117
-0.00517128
-0.000434972
0.000519923
-0.00506086
-0.000697765
0.00035474
-0.0049605
-0.000808494
0.000318418
-0.00528307
-0.00141335
7.3157e-05
-0.00391279
-0.000162372
0.00108234
-0.0068553
-0.000243679
0.000843346
-0.00724469
-0.000250116
0.000487892
-0.00748827
-0.000674282
0.00036222
-0.00708213
-0.000709061
0.000311332
-0.00640441
-0.00132406
9.9783e-05
-0.00541392
-0.000340073
0.00111493
-0.00771249
-0.000328685
0.000955033
-0.00815378
-2.1143e-05
0.00099158
-0.00878669
-0.0002816
0.000905382
-0.00938127
-0.000420438
0.000845299
-0.00852096
-0.00104201
0.00054776
-0.00617877
-0.00138024
0.000509277
-0.00365916
-0.000255824
0.000672281
-0.00667581
-0.00028812
0.000946458
-0.0068232
-4.12113e-05
0.000819218
-0.00679261
-0.000327588
0.000893385
-0.0071198
-0.000297479
0.00106025
-0.00778742
-0.000510719
0.00128229
-0.00704865
-0.00103106
0.0012455
-0.00651801
-0.00083691
0.00086281
-0.0076794
3.73438e-05
2.86888e-05
-0.00492332
-0.000231994
0.000195359
-0.00495208
-0.0001575
0.000149893
-0.00478274
0.000103228
0.000203867
-0.0037805
-0.000129192
0.000231558
-0.00390606
-0.000223453
0.000419867
-0.00476582
-3.90816e-05
0.000541499
-0.00438825
0.000149799
0.00049875
-0.00231693
-8.15544e-05
0.000290345
-0.00595774
-4.51087e-06
5.18541e-05
-0.0021835
-2.10243e-05
6.77142e-05
-0.00221376
-4.84605e-06
8.96714e-05
-0.00151583
1.68469e-05
8.5901e-05
-0.0011997
-4.16687e-05
6.12914e-05
-0.00170144
-4.30071e-05
0.000121365
-0.00208628
-2.07052e-05
0.000159919
-0.00272847
0.000197367
0.000105884
-0.00270922
0.000130891
7.17087e-05
-0.00177034
0.000151633
7.71155e-05
-0.00321488
8.04815e-06
-5.31822e-05
0.000232181
-2.1503e-06
-4.56376e-05
-0.000256729
-1.33979e-05
-1.82127e-05
-0.000610643
-1.66806e-05
-1.1148e-05
-0.000344487
1.10043e-05
-4.93777e-06
-0.000814211
-5.10778e-05
4.6902e-06
-0.00093229
-5.08435e-06
-1.49942e-05
-0.000526337
5.83318e-05
-4.41819e-05
-0.00172944
0.000130936
-5.85677e-05
-0.00202884
0.000135171
-7.59527e-05
-0.0019627
6.80928e-05
-3.58705e-05
-0.00137298
3.95062e-05
-0.00355334
-0.00146078
0.000303936
-0.0030326
-0.000989984
0.000298583
-0.00440463
-0.00143971
0.000169362
-0.00413764
-0.00135723
-9.59168e-05
-0.00384712
-0.000469435
0.000471507
-0.00489624
-0.000942705
0.000327144
-0.00481713
-0.00111314
0.000208639
-0.00464005
-0.00137855
-2.84464e-05
-0.0041664
-0.000472157
0.000459981
-0.00529357
-0.000585065
0.000342665
-0.00522326
-0.000644835
0.000211508
-0.00501038
-0.000910257
0.000202409
-0.00507505
-0.00151985
0.000103407
-0.00430217
-0.000352953
0.0008581
-0.00550611
-0.000336163
0.000667325
-0.0052262
-0.000429426
0.000471091
-0.0049979
-0.000597508
0.000386895
-0.00510575
-0.000681704
0.000317666
-0.00555494
-0.00147445
7.09234e-05
-0.00383332
-0.000147661
0.00113605
-0.00701887
-0.000188628
0.000986011
-0.00713802
-0.000189564
0.000747617
-0.00733599
-0.00031063
0.000380408
-0.00747743
-0.000540371
0.000374524
-0.00702539
-0.000815292
0.000275468
-0.00680681
-0.00130321
-5.0847e-05
-0.0054401
-0.000381639
0.00123042
-0.00673074
-0.000305318
0.00113884
-0.0078791
-3.91204e-05
0.00106765
-0.00823194
-0.00030838
0.00101172
-0.00891224
-0.000339576
0.00101778
-0.00951165
-0.000547032
0.000907138
-0.00884403
-0.000847821
0.00071472
-0.00656745
-0.00138252
0.000767399
-0.00388095
4.93118e-05
0.000475595
-0.00686698
-0.000343626
0.000837679
-0.0064554
-0.000345396
0.000809582
-0.00662567
-3.76272e-05
0.000808549
-0.00656692
-0.000177607
0.000911
-0.00692214
-0.000328311
0.00107275
-0.00747303
-0.00029779
0.00126573
-0.00681017
-0.000350043
0.00128758
-0.00644294
-0.000892808
0.000807904
-0.00767605
2.02113e-05
9.28208e-05
-0.00461698
-3.27702e-05
8.96097e-05
-0.00480583
-0.000134324
0.000135274
-0.00480798
-0.000194686
0.000191149
-0.00455849
-7.1456e-05
0.000126938
-0.0036461
-0.000135803
0.000225851
-0.00361925
-0.000155039
0.000396557
-0.00448654
0.000281596
0.000446823
-0.00442055
9.01422e-05
0.000380533
-0.00236637
-0.000124372
0.00026195
-0.00594369
-8.101e-05
5.78226e-05
-0.0017196
-5.70904e-06
5.19013e-05
-0.00216413
-2.27879e-05
6.69654e-05
-0.00218167
-3.44146e-05
9.42748e-05
-0.00150647
1.26683e-05
8.64398e-05
-0.00122651
1.06247e-05
5.65648e-05
-0.00169834
-3.36934e-05
0.000100104
-0.00199785
9.43786e-05
0.00014959
-0.00280822
0.000248158
5.93621e-05
-0.0028141
0.000131898
4.41037e-05
-0.00173405
0.000139026
7.75798e-05
-0.0033634
1.10866e-05
-4.5351e-05
0.000725888
7.4512e-06
-5.43713e-05
0.000233464
-1.36531e-06
-4.4973e-05
-0.000228604
-1.42146e-05
-1.8424e-05
-0.000589153
-1.34403e-05
-1.22281e-05
-0.000323757
8.74096e-06
-6.15319e-06
-0.000812109
-5.83146e-05
4.61918e-06
-0.000893589
-9.92539e-06
-1.48132e-05
-0.00054578
6.3353e-05
-4.38236e-05
-0.00180754
0.000105684
-5.72146e-05
-0.00215327
9.71336e-05
-7.08342e-05
-0.00202487
5.54115e-05
-2.99695e-05
-0.00139843
-0.00124005
-0.000167991
-0.00364768
5.46948e-05
-0.00418859
-0.00107866
1.5425e-05
-0.00362588
-0.0015051
0.000313577
-0.00319831
-0.000733654
0.00040182
-0.00451285
-0.00106163
0.000305273
-0.00442161
-0.00142405
0.000162101
-0.00408475
-0.00141291
-8.46466e-05
-0.00372811
-0.000597906
0.000617337
-0.00483346
-0.000699069
0.000448067
-0.00490316
-0.00079048
0.000387973
-0.00485082
-0.00118872
0.000248711
-0.00463875
-0.0016061
-3.89978e-05
-0.00404116
-0.000470853
0.000571547
-0.00552925
-0.000495868
0.0004579
-0.0052491
-0.000583494
0.000293203
-0.00515089
-0.000559326
0.000202893
-0.00504905
-0.000893445
0.000222937
-0.00498284
-0.00147838
7.16943e-05
-0.00436994
-0.000367798
0.000924935
-0.00580085
-0.000352005
0.000807171
-0.00548258
-0.00035556
0.000610005
-0.00519912
-0.000440687
0.000479132
-0.00496008
-0.000631932
0.000423339
-0.00511986
-0.000744322
0.000358729
-0.00591371
-0.00137185
6.51824e-05
-0.00382986
-0.000398431
0.00116504
-0.0070838
-0.00030161
0.00106807
-0.00710464
-9.79168e-05
0.000956615
-0.00728822
-9.46686e-05
0.000539344
-0.00770864
-0.000337028
0.000324262
-0.00742972
-0.000501281
0.000401714
-0.00719739
-0.000497757
0.000228983
-0.0074367
-0.00127489
-0.000204159
-0.00534357
-0.000219819
0.00122358
-0.00670487
-0.000436024
0.00126857
-0.00676807
-0.000422275
0.00104245
-0.00777702
-9.33754e-05
0.00114103
-0.0083055
-0.000138812
0.00122852
-0.00916178
-0.000406353
0.00106125
-0.00958773
-0.000492587
0.00101646
-0.00895097
-0.000154807
0.000933346
-0.00692864
-0.00129606
0.000778564
-0.00425626
0.000188268
0.000367523
-0.0069264
-7.44606e-05
0.000516191
-0.00650381
-0.000288884
0.000695679
-0.00618694
-0.000310942
0.000844706
-0.00654557
-1.6102e-05
0.000788578
-0.00649985
-9.98422e-05
0.000824086
-0.00670944
-0.000152408
0.000985664
-0.00719559
9.25768e-05
0.00122624
-0.00655981
-0.000385891
0.00103154
-0.00619053
-0.000969276
0.000707233
-0.00753837
-8.25501e-05
0.000112593
-0.00441926
-1.91527e-06
0.000110406
-0.00464157
-8.68629e-05
0.000131767
-0.00473824
-0.000200263
0.000234868
-0.00468585
-6.19229e-05
0.000149082
-0.00450604
6.32445e-05
0.000142224
-0.00361509
-2.90717e-05
0.000211902
-0.00343921
0.000147004
0.000390066
-0.00448241
0.000239771
0.000359409
-0.00439104
0.000244215
0.000285606
-0.00250235
-0.000166217
0.000147988
-0.00578643
-4.81786e-05
5.30308e-05
-0.00139047
-2.20478e-05
5.75328e-05
-0.00169573
-1.9684e-05
5.01869e-05
-0.00212903
-9.31196e-06
6.99761e-05
-0.00216227
1.02485e-05
9.88987e-05
-0.00154262
1.90734e-05
8.61763e-05
-0.00126645
-3.15673e-05
4.49176e-05
-0.0016699
2.85007e-05
8.73493e-05
-0.00197404
0.000176911
0.000124542
-0.00298696
0.000267477
8.37187e-06
-0.00294016
0.000202754
2.50611e-05
-0.00178715
-2.79879e-05
6.9441e-05
-0.00334944
-4.15591e-05
-4.16012e-05
0.000450039
1.01308e-05
-4.6407e-05
0.000707793
6.51499e-06
-5.57457e-05
0.000237722
-1.26643e-06
-4.43996e-05
-0.000201362
-1.49759e-05
-1.87425e-05
-0.000567662
-1.49917e-05
-1.30764e-05
-0.000301842
5.09822e-06
-7.34026e-06
-0.000805248
-6.33013e-05
4.74136e-06
-0.000849842
-1.05116e-05
-1.43586e-05
-0.000564733
6.18799e-05
-4.34444e-05
-0.00188319
8.25813e-05
-5.56543e-05
-0.00225103
6.80144e-05
-6.6591e-05
-0.00205626
5.24738e-05
-2.54647e-05
-0.00142543
-0.00132507
-1.00587e-05
-0.0031076
-0.000857918
-0.00025432
-0.00436765
-0.00129143
-0.000228175
-0.00363318
0.000229754
-0.00429389
-0.00108096
0.000114266
-0.00426811
-0.00116264
3.28779e-06
-0.003577
-0.00151877
0.000215131
-0.00330758
-0.000728452
0.000575423
-0.00467205
-0.000803686
0.000442816
-0.00454577
-0.00102209
0.000341733
-0.00436963
-0.00153203
0.000195719
-0.00402181
-0.00154473
-1.78503e-05
-0.00377163
-0.000536281
0.000729532
-0.00488123
-0.000564717
0.000601732
-0.00491828
-0.000648342
0.000474276
-0.00492461
-0.000750747
0.000399915
-0.00481061
-0.00136173
0.000267539
-0.004477
-0.00160549
-2.85762e-05
-0.00388547
-0.00052067
0.000662077
-0.00561787
-0.00056763
0.000564369
-0.0054201
-0.000525377
0.000440318
-0.00522639
-0.000553463
0.000295583
-0.0051308
-0.000599314
0.000246211
-0.00510494
-0.000937571
0.000200247
-0.00491814
-0.00145487
7.62134e-05
-0.00436313
-0.000493975
0.000966842
-0.00619396
-0.000430574
0.000913406
-0.00577812
-0.000232726
0.000733177
-0.00547094
-0.000272354
0.000606754
-0.00514905
-0.000330501
0.000469833
-0.0050131
-0.000529271
0.000504332
-0.00523748
-0.000720364
0.000402606
-0.00602853
-0.00142721
0.000113053
-0.00379059
-0.000260655
0.00120071
-0.00728254
-0.000283673
0.00113261
-0.0073007
-0.000297443
0.00104125
-0.00731411
-0.00016347
0.000851779
-0.00753056
-0.000205736
0.000479871
-0.00779732
-0.000309231
0.000553577
-0.0076787
-0.000581399
0.000428427
-0.00730802
1.51709e-06
0.000172696
-0.00796988
-0.00127424
-0.000345196
-0.0050202
5.16177e-05
0.00119331
-0.00696236
-0.000306891
0.00123277
-0.00643665
-0.000228564
0.00115746
-0.0069434
-0.0003158
0.00118395
-0.00781508
-9.39933e-05
0.00132941
-0.0083285
-6.45079e-05
0.0012493
-0.00938516
-0.000370757
0.00101654
-0.00936946
-0.000447634
0.00111868
-0.0085961
-0.000143215
0.000924344
-0.00731709
-0.00139783
0.000642024
-0.00446974
8.82027e-05
0.000387717
-0.00668984
-0.000166846
0.000369926
-0.0066152
-0.000145881
0.000612815
-0.00636192
-0.000340948
0.000852884
-0.00605443
-5.6576e-05
0.000814034
-0.00657637
5.48047e-05
0.00071444
-0.00638176
-6.51768e-05
0.000709326
-0.00639699
0.000129157
0.000833806
-0.00678531
8.9959e-05
0.000903883
-0.00628234
-9.58423e-06
0.000849751
-0.00607925
-0.00105293
0.000615941
-0.0072676
-7.9951e-05
0.000132424
-0.00399509
-2.30332e-05
0.000128957
-0.00443683
-4.67864e-05
0.000131577
-0.00461427
4.11859e-05
0.000207686
-0.00476156
-8.11114e-05
0.000201697
-0.00464711
-6.12696e-05
0.000140008
-0.00442348
7.01779e-05
0.00012437
-0.0036293
0.000178621
0.000271965
-0.00347124
0.000239923
0.000152791
-0.0043388
0.000345753
0.000221211
-0.00440492
0.000435549
0.000132355
-0.00271951
-0.000520142
8.69151e-05
-0.00538119
-8.62777e-05
5.97318e-05
-0.00117246
-3.9808e-05
5.30251e-05
-0.00133603
-2.03096e-05
6.17349e-05
-0.00168046
-2.23212e-05
5.22767e-05
-0.00209028
-1.98916e-05
7.42004e-05
-0.00213266
-4.0049e-05
0.000101309
-0.00153269
-2.46521e-07
8.748e-05
-0.00130367
-3.75583e-05
3.68557e-05
-0.00164515
-1.56916e-05
7.79641e-05
-0.00192228
0.000156878
9.48112e-05
-0.00316839
0.000270002
-2.97886e-05
-0.00307273
0.0002041
2.13062e-05
-0.00187511
-9.48924e-06
6.53155e-05
-0.00335279
-4.92825e-05
-3.21339e-05
-0.000932233
-3.83649e-05
-4.23682e-05
0.000484365
8.22592e-06
-4.75601e-05
0.000691381
3.73024e-06
-5.70121e-05
0.000246604
-1.41727e-06
-4.38336e-05
-0.000174853
-1.32186e-05
-1.91689e-05
-0.000548351
-1.41352e-05
-1.36844e-05
-0.000281363
2.46955e-06
-8.34418e-06
-0.000794632
-6.38824e-05
5.13763e-06
-0.000805456
-1.32075e-05
-1.49817e-05
-0.000579989
5.50601e-05
-4.332e-05
-0.00195058
4.83298e-05
-5.24003e-05
-0.00231355
5.04857e-05
-6.47796e-05
-0.00206743
4.50419e-05
-2.37629e-05
-0.00144671
0.000226464
-0.00254872
-0.00123243
0.00030418
-0.00369168
-0.0013058
-8.59596e-05
-0.00300727
-0.00112373
-0.000220488
-0.00410441
-0.00101026
-0.000273584
-0.00447463
-0.00139393
-0.000138772
-0.00361924
0.000419151
-0.00438062
-0.000985278
0.000305043
-0.00430307
-0.00110258
7.46357e-05
-0.00425897
-0.000797841
-0.000136978
-0.00395907
-0.00150438
0.000152141
-0.00350006
-0.000711532
0.000719874
-0.00459152
-0.000696706
0.000605395
-0.00470264
-0.000807661
0.000468382
-0.0045131
-0.000848083
0.000355725
-0.0044323
-0.00152172
0.000194381
-0.00407404
-0.00157046
2.54449e-06
-0.00380921
-0.000529547
0.0007914
-0.00486201
-0.0006188
0.000722665
-0.00495099
-0.000594913
0.000599561
-0.00497403
-0.000611503
0.000451
-0.00491766
-0.000744462
0.000408619
-0.00480654
-0.00133248
0.000251173
-0.00436184
-0.0015887
-3.08625e-05
-0.00372078
-0.000566312
0.000775584
-0.00579536
-0.000576693
0.000668256
-0.00557564
-0.000516091
0.000572056
-0.00526847
-0.000383796
0.000422788
-0.00524216
-0.000491061
0.000374775
-0.0050988
-0.000499027
0.000187641
-0.00512258
-0.000904646
0.000203018
-0.00486066
-0.00152708
9.49259e-05
-0.00435819
-0.000299501
0.00104502
-0.0064574
-0.000334226
0.000983116
-0.00621311
-0.000262164
0.000844626
-0.00592485
-0.000207287
0.000682322
-0.0055027
-0.00043767
0.000592992
-0.00504028
-0.000290569
0.000478372
-0.0050058
-0.000520658
0.000580281
-0.00547589
-0.000725724
0.000461833
-0.00565007
-0.00140924
0.000229469
-0.00388505
-0.000185048
0.0012959
-0.00715076
-0.000270449
0.00118099
-0.00736736
-0.000120292
0.00113307
-0.00750079
-0.000249602
0.00105277
-0.0075813
-0.000180296
0.000742208
-0.0077066
-2.89369e-05
0.000683608
-0.00796293
-0.000399007
0.000528906
-0.00775093
-0.000484847
0.000461431
-0.00755954
-9.78752e-05
0.000112841
-0.00847326
-0.00134831
-0.000178532
-0.00489118
-2.19937e-05
0.0012431
-0.00723872
-0.000371633
0.00123409
-0.00675889
-0.000227376
0.00122173
-0.00641942
-0.000266324
0.0010835
-0.00691757
-3.66915e-06
0.00120955
-0.00774813
8.05433e-05
0.00134619
-0.00845113
-0.000281796
0.00123393
-0.00938593
-0.000396092
0.00108787
-0.0088134
-0.00022923
0.00123039
-0.00858296
6.78907e-06
0.00100859
-0.00770004
-0.00132483
0.000528056
-0.00472589
-0.000159349
0.000387567
-0.00618043
-0.000186651
0.000354957
-0.00651125
-4.52659e-05
0.000485052
-0.00648896
2.79863e-05
0.000657739
-0.00615358
-0.000159066
0.000737053
-0.0058995
-7.78942e-05
0.000698361
-0.00654367
4.19156e-05
0.000617446
-0.00626162
8.02775e-05
0.000580433
-0.00604527
0.00032331
0.000564048
-0.00652886
0.000528077
0.00061526
-0.00623018
0.000538922
0.000735439
-0.00630212
-0.00118138
0.000443333
-0.00704969
-2.88942e-05
9.62535e-05
-0.00424665
-1.84471e-05
0.000163162
-0.00405065
1.05633e-05
0.000158588
-0.00449471
-2.26246e-05
0.000141797
-0.00454808
-0.000138842
0.000213459
-0.00465437
-0.000198745
0.000203783
-0.00455219
-0.000105993
0.000145675
-0.00433904
4.1578e-05
0.000143092
-0.00357956
0.00010316
1.87216e-05
-0.00345602
0.000168181
0.000133283
-0.00426218
0.000367384
0.000155489
-0.00452544
0.000772926
2.42616e-05
-0.00322568
-0.000534634
2.16199e-05
-0.00487767
-4.33577e-05
-2.02879e-05
-0.000503892
-1.32576e-05
5.95461e-05
-0.00120408
1.33126e-05
5.83946e-05
-0.00133777
-3.3806e-05
6.81564e-05
-0.0016588
-2.15801e-05
5.57357e-05
-0.00205165
-3.91877e-05
7.71496e-05
-0.00208253
-2.86813e-05
0.000105513
-0.00153618
-7.75381e-06
8.61866e-05
-0.00134278
-2.33223e-05
3.08152e-05
-0.00163856
1.06326e-05
6.62583e-05
-0.00191757
0.000154463
6.11939e-05
-0.00335878
0.000231513
-5.31542e-05
-0.00318145
0.00020208
2.00601e-05
-0.00198144
-1.19774e-05
5.27602e-05
-0.00334853
-4.69175e-06
-2.8642e-05
-0.00146758
-4.64769e-05
-3.30336e-05
-0.000895091
-3.56278e-05
-4.08416e-05
0.000513274
6.15935e-06
-4.8525e-05
0.000676735
4.70384e-06
-5.79621e-05
0.000256029
-1.52488e-06
-4.32673e-05
-0.00014923
-1.02621e-05
-1.95271e-05
-0.000532246
-1.25925e-05
-1.4194e-05
-0.00026292
1.80975e-06
-9.3353e-06
-0.000781968
-6.52931e-05
5.01e-06
-0.000760155
-1.8412e-05
-1.46546e-05
-0.000590242
4.06124e-05
-4.10858e-05
-0.00200251
2.83963e-05
-5.12129e-05
-0.00235551
3.58221e-05
-6.71325e-05
-0.00205989
4.76253e-05
-2.53771e-05
-0.00146896
0.000161679
-0.00294145
-0.00160814
0.000247932
-0.00249431
-0.0011878
0.000292523
-0.00367204
-0.00143785
0.00033462
-0.00368467
-0.00138102
-0.00019733
-0.00282285
-0.00123459
4.08582e-05
-0.00422289
-0.00112141
-0.000131889
-0.00422728
-0.000606942
-0.000211376
-0.00459292
-0.00139093
-0.000218187
-0.00351451
0.000568674
-0.00437372
-0.000786796
0.000451088
-0.00443657
-0.000944538
0.000265681
-0.00435724
-0.000681241
-8.46156e-05
-0.00447817
-0.000705883
-0.000196075
-0.0044267
-0.00156417
0.000113184
-0.00361953
-0.000655272
0.000854808
-0.00460342
-0.00068091
0.000728068
-0.00465208
-0.000665459
0.000627291
-0.004791
-0.00062379
0.000416717
-0.00456181
-0.000869912
0.000351822
-0.00446429
-0.00132321
0.000223708
-0.00430448
-0.00153973
5.73979e-05
-0.00391558
-0.000469007
0.000820927
-0.00494043
-0.000454597
0.000739358
-0.0050008
-0.000594798
0.000707052
-0.00497977
-0.000327179
0.000545927
-0.00512557
-0.000511998
0.00043207
-0.00492017
-0.000581046
0.000378968
-0.00485231
-0.00105314
0.000221897
-0.00446611
-0.00161081
2.72763e-08
-0.00363707
-0.000510154
0.000958934
-0.00568008
-0.000531889
0.000769886
-0.00569933
-0.000444875
0.000704204
-0.00552507
-0.000402067
0.000570473
-0.00522137
-0.000417351
0.000429511
-0.00531721
-0.00040695
0.000279704
-0.00507449
-0.000387137
0.000203342
-0.00525642
-0.000849068
0.000230804
-0.0048732
-0.00147952
0.000117476
-0.00440539
-0.000151878
0.00114708
-0.00655406
-0.000233569
0.00103947
-0.00655063
-0.000220243
0.00094504
-0.00621358
-0.000197024
0.000786653
-0.00608176
-0.0001884
0.000612414
-0.00551401
5.46286e-07
0.000504104
-0.00509549
-0.000237532
0.00053483
-0.00512183
-0.000520533
0.000600509
-0.00557888
-0.000663302
0.000579486
-0.00543466
-0.00130787
0.000282042
-0.00420754
-0.000143371
0.00135896
-0.0069625
-0.000199988
0.00127828
-0.0074197
-0.000195432
0.00120321
-0.00746944
-0.000177599
0.0011752
-0.00771195
8.42733e-05
0.000963212
-0.00789025
-5.91907e-06
0.000941732
-0.00787826
-0.000292124
0.000660957
-0.00808465
-0.000411403
0.000607421
-0.00788161
-0.000353961
0.000447614
-0.00776958
-0.000222765
0.000116219
-0.00853846
-0.00121842
-0.000117717
-0.00487987
-0.000173114
0.00132939
-0.00706345
-0.000279409
0.00121641
-0.00712828
-5.40773e-05
0.00114002
-0.00666837
-6.7584e-05
0.00103614
-0.00627649
-6.02465e-05
0.000969126
-0.00677597
0.000212051
0.00121983
-0.00791171
-3.24035e-05
0.00135809
-0.00850097
-0.000381062
0.00124451
-0.00908123
-0.000179509
0.00136035
-0.00844054
9.22955e-05
0.00113413
-0.00827271
0.000627679
0.00102532
-0.00828606
-0.00122555
0.000378219
-0.00505994
-7.79028e-05
0.00039871
-0.00604482
-5.48226e-05
0.000330022
-0.00611912
6.41755e-05
0.000332826
-0.00641263
4.6019e-05
0.000426257
-0.00632612
-9.91644e-05
0.000565038
-0.00602124
-0.000261675
0.000681549
-0.00581976
-9.39491e-05
0.000568881
-0.00650715
4.6117e-05
0.000544783
-0.00623051
0.000184048
0.000370973
-0.00593309
0.000366507
0.000340093
-0.00645202
0.000651925
0.000502817
-0.0062821
0.000912802
0.000598735
-0.0065974
-0.00121685
0.00042137
-0.00678884
8.55758e-05
0.000110267
-0.0042583
0.000103439
0.000118251
-0.00431844
7.47265e-05
0.000195625
-0.0041491
-1.20547e-05
0.000153391
-0.00452805
-5.50518e-05
0.000180454
-0.00448161
-0.00017249
0.000241675
-0.00455896
-0.000146248
0.000211811
-0.00450076
-0.000140673
0.000150902
-0.00421393
6.31052e-05
0.000111439
-0.00375871
-4.88887e-06
0.000118116
-0.00342533
8.89383e-05
7.25629e-05
-0.00411373
0.000473306
0.00013693
-0.0048799
0.000798399
-0.000104318
-0.00369606
-0.000468437
0.000126745
-0.00454796
7.74024e-05
-0.000173454
-0.00119676
-1.89134e-05
7.51242e-06
-0.000479422
-7.01989e-06
5.12502e-05
-0.00122555
-8.54665e-06
6.62909e-05
-0.0013212
1.99359e-05
7.14921e-05
-0.00168979
-7.62278e-06
5.60815e-05
-0.00202449
-4.03431e-05
8.06217e-05
-0.00202756
-1.0393e-05
0.000103528
-0.00155572
6.88205e-06
8.3381e-05
-0.00140042
-2.54509e-05
1.87137e-05
-0.00163086
-1.87416e-05
5.27792e-05
-0.00190882
8.41794e-05
2.91636e-05
-0.00348467
0.000194555
-5.72647e-05
-0.00327029
0.000224664
1.75452e-05
-0.00213507
-3.44709e-06
-8.18994e-06
-0.00328927
-4.17401e-05
-2.73099e-05
0.000427901
-7.63191e-06
-2.90284e-05
-0.00146396
-4.93615e-05
-3.32679e-05
-0.000853303
-3.60493e-05
-4.3444e-05
0.000544242
3.58629e-06
-4.95013e-05
0.000664688
9.52182e-06
-5.84809e-05
0.00026172
-2.25872e-06
-4.27333e-05
-0.000123765
-6.60701e-06
-1.97069e-05
-0.000520126
-1.33459e-05
-1.4302e-05
-0.000244608
3.90516e-06
-1.04661e-05
-0.000770397
-6.36886e-05
5.57886e-06
-0.0007167
-2.34441e-05
-1.69925e-05
-0.000590891
2.71852e-05
-3.97563e-05
-0.00204115
1.50203e-05
-4.80026e-05
-0.00238966
2.37589e-05
-7.11408e-05
-0.00203788
3.77002e-05
-2.23521e-05
-0.00148431
-0.0016019
-4.44593e-05
-0.00214148
0.000142801
-0.00333546
-0.00142644
8.34263e-05
-0.00278836
-0.00165229
0.00021374
-0.00243678
-0.00123781
0.0002054
-0.00374191
-0.00112525
0.000329197
-0.00366277
-0.00142157
0.000276619
-0.00334399
-0.00147737