/*--------------------------------*- C++ -*----------------------------------*\
  =========                 |
  \\      /  F ield         | OpenFOAM: The Open Source CFD Toolbox
   \\    /   O peration     | Website:  https://openfoam.org
    \\  /    A nd           | Version:  7
     \\/     M anipulation  |
\*---------------------------------------------------------------------------*/
FoamFile
{
    version     2.0;
    format      ascii;
    class       volVectorField;
    location    "4";
    object      U;
}
// * * * * * * * * * * * * * * * * * * * * * * * * * * * * * * * * * * * * * //

dimensions      [0 1 -1 0 0 0 0];

internalField   nonuniform List<vector> 
18750
(
(4.33857 -0.243885 -1.23923)
(2.36196 1.90565 0.0198459)
(4.27655 -0.601372 -2.46972)
(4.68846 -0.393814 -1.39601)
(0.572917 3.5747 -0.674684)
(1.98693 2.00238 -0.390492)
(2.58784 1.51462 -0.0287445)
(2.47409 -0.167508 -2.5491)
(4.95608 -0.748472 -2.70286)
(4.67357 -0.526033 -1.42708)
(-0.639349 5.83383 0.264966)
(0.523102 5.67105 1.30871)
(1.41271 3.26824 -0.959948)
(1.99071 1.72281 0.31177)
(1.5974 1.84358 -0.421982)
(2.47306 1.41863 0.0339688)
(2.00914 0.615319 -0.883087)
(2.965 -0.193303 -2.4945)
(5.54997 -0.955798 -2.91404)
(4.30683 -0.59882 -1.30441)
(-3.77881 4.02638 0.0450656)
(0.310708 6.0673 3.40697)
(0.225781 5.6653 0.63794)
(-0.308694 5.09011 4.11874)
(0.279198 2.05994 1.17575)
(1.41368 3.21091 -0.37396)
(-0.359898 2.0581 1.19965)
(2.29275 1.59901 0.256957)
(1.96355 1.58454 -0.338864)
(2.37051 1.23799 0.0432137)
(0.517244 0.213514 -0.482716)
(1.80847 0.606997 -1.04842)
(3.40956 -0.242814 -2.34506)
(5.90689 -1.14829 -3.05395)
(3.8121 -0.605817 -1.1179)
(-2.46928 3.1586 0.18588)
(-2.18192 4.82701 1.40997)
(-3.434 4.11075 0.447753)
(-1.31514 5.99653 2.89555)
(0.170478 5.88426 3.17698)
(0.99502 5.44783 0.704207)
(-0.570384 4.62766 2.97107)
(0.248927 4.79267 4.46709)
(0.334093 0.388569 2.47958)
(2.39519 2.98829 -0.144239)
(-0.756196 1.91737 1.8019)
(-0.164532 2.00846 1.26528)
(2.37256 1.45148 0.31919)
(2.10731 1.32581 -0.334749)
(2.18185 1.17812 0.06677)
(-0.426747 0.723435 0.0223228)
(0.464425 0.207153 -0.527738)
(1.58471 0.620717 -1.15671)
(3.6107 -0.269928 -2.10652)
(5.54963 -1.17185 -2.94992)
(3.2607 -0.551096 -0.904516)
(-2.70572 2.52647 0.238596)
(-1.92532 3.61325 0.157757)
(-2.19818 3.33369 0.148944)
(-2.10862 5.27542 0.648683)
(-2.01244 4.78709 1.13599)
(-3.21727 4.06991 0.455755)
(-0.638837 5.8131 3.02728)
(-1.06462 5.91964 2.87646)
(0.144369 5.73339 3.11787)
(1.53833 5.23037 0.58187)
(-0.022084 3.40983 2.19497)
(-0.267428 4.39172 3.36823)
(0.901289 4.05989 3.99342)
(0.341894 1.3655 2.14795)
(2.84939 2.88596 0.545479)
(-0.152677 1.21469 1.18722)
(-0.187541 1.83051 1.88486)
(-0.00320864 1.94909 1.34817)
(2.336 1.35143 0.596603)
(2.34084 0.593541 0.0564365)
(2.00878 1.18841 0.120906)
(0.111938 0.517039 0.271855)
(-0.438422 0.740692 0.0387246)
(0.399104 0.219793 -0.574295)
(1.37306 0.652247 -1.20913)
(3.44734 -0.24111 -1.77149)
(4.93859 -1.07998 -2.72027)
(2.72138 -0.443597 -0.687189)
(-2.11491 2.64802 0.0417709)
(-1.37222 3.05587 0.401316)
(-2.34357 2.85613 0.141506)
(-0.632447 3.98357 0.683582)
(-1.4042 3.80022 0.212042)
(-1.64803 3.60246 0.199118)
(0.199411 5.49005 1.9194)
(-1.7903 5.43498 0.477069)
(-1.79443 4.80913 1.04667)
(-2.91064 4.04582 0.732847)
(-0.415183 5.09266 2.28821)
(-0.569422 5.63259 3.10661)
(-1.09434 5.66403 2.97617)
(-0.373654 5.52743 3.22302)
(2.59259 4.76721 0.704787)
(0.387845 2.8251 0.660309)
(0.123155 3.28767 2.11118)
(0.275036 4.10916 3.3559)
(0.0718334 4.11435 3.16428)
(0.456121 1.03365 2.11653)
(3.19608 2.82076 0.617139)
(0.290102 0.793515 0.622669)
(-0.103543 1.19587 1.01599)
(-0.00104452 1.73923 1.71006)
(0.419878 1.86246 1.44939)
(2.31684 1.23332 0.844808)
(1.95119 0.913582 0.130126)
(1.86608 1.25688 0.147449)
(-0.178235 0.290659 -0.23934)
(0.175093 0.517742 0.22333)
(-0.443013 0.76834 0.000453311)
(0.330952 0.239475 -0.601336)
(1.1916 0.704385 -1.21427)
(2.99948 -0.114364 -1.65221)
(4.24009 -0.902272 -2.4637)
(2.24194 -0.312607 -0.482812)
(-1.95221 2.55474 -0.323667)
(-0.853381 3.39825 0.202266)
(-1.96866 2.82904 0.0682275)
(-1.13512 3.45279 0.31026)
(-1.18872 3.31031 0.396148)
(-2.12057 2.96238 0.116288)
(0.132181 4.46889 0.845624)
(-0.0868412 4.23418 0.762106)
(-0.747109 4.13491 0.459095)
(-1.34412 3.70755 0.1552)
(-0.713135 5.67728 1.51439)
(-0.911702 5.84435 0.45042)
(-1.35184 5.67207 0.331976)
(-1.99241 4.64794 0.9322)
(-2.68125 3.90886 0.848706)
(-0.499796 4.86782 2.43324)
(0.120648 4.98253 2.69339)
(-0.447224 5.64986 3.02513)
(-1.07614 5.52264 3.17616)
(-0.454267 5.28858 3.31125)
(1.85878 4.89428 0.788387)
(0.16455 3.50166 0.55406)
(0.487669 2.81247 0.723422)
(0.216284 3.16189 2.25747)
(0.679656 3.9008 2.93168)
(1.02828 3.36688 3.44157)
(0.694822 1.23892 1.98025)
(3.30811 2.78908 0.714959)
(-0.0495147 1.0256 0.652665)
(0.363617 0.761217 0.574388)
(-0.0246579 1.20999 0.788429)
(-0.0322185 1.69657 1.55989)
(0.755613 1.75699 1.49706)
(2.33311 1.03216 0.715658)
(1.67489 0.695287 0.361874)
(1.72353 1.36731 0.158365)
(-0.213506 0.43927 -0.143931)
(-0.158395 0.286977 -0.262687)
(0.184931 0.516759 0.20124)
(-0.450003 0.795055 0.00343781)
(0.238011 0.273574 -0.64818)
(1.04889 0.769184 -1.17241)
(2.49136 0.0873692 -1.61127)
(3.5331 -0.66633 -2.19682)
(1.85009 -0.159043 -0.294476)
(-1.00543 2.64349 -0.0935958)
(-0.905293 3.33761 0.0491071)
(-1.62778 2.88322 -0.155145)
(-0.780261 3.41937 0.245619)
(-0.74283 3.36777 0.28799)
(-1.74306 2.9635 0.0684166)
(-0.314842 3.4047 0.811849)
(-0.766751 3.44006 0.374839)
(-1.16606 3.41683 0.479404)
(-1.76369 3.1203 -0.0265477)
(0.382944 4.51738 1.63482)
(0.0515463 4.83615 0.273097)
(-0.248201 4.51517 0.688197)
(-1.0902 4.11842 0.342357)
(-0.83983 3.92245 -0.173225)
(-0.964227 5.48293 1.59892)
(0.838237 5.63139 1.97111)
(1.03064 5.86995 2.0751)
(-1.40488 5.55802 0.458885)
(-1.61566 4.83925 0.840609)
(-2.36377 3.80682 1.15051)
(-0.623485 4.61686 2.69401)
(0.0317547 4.7326 2.32157)
(0.368685 5.01604 2.87333)
(-0.160701 5.62511 3.2587)
(-0.366423 5.28289 3.88527)
(0.461396 5.00095 3.55982)
(1.99457 4.82766 0.815224)
(-0.100282 3.55518 0.40853)
(0.584125 3.38036 0.677865)
(0.950284 2.67384 0.888884)
(0.346484 2.97991 1.80754)
(0.781372 3.61879 2.48343)
(1.35376 2.94654 2.99272)
(0.968934 1.11489 2.02655)
(3.1654 2.88373 0.89634)
(0.0343342 1.49054 0.591691)
(-0.0195034 1.02455 0.663893)
(0.378753 0.732957 0.504886)
(0.119595 1.16721 0.589948)
(0.165649 1.55521 1.48674)
(1.5362 1.41453 1.09845)
(2.30822 0.901447 0.463659)
(1.36675 0.721016 0.589055)
(1.63189 1.38324 0.182131)
(-0.0153283 0.192449 -0.621374)
(-0.182508 0.438627 -0.156635)
(-0.133095 0.28167 -0.287839)
(0.217065 0.510172 0.171096)
(-0.431494 0.819533 0.0485107)
(0.174248 0.30995 -0.699143)
(0.967311 0.82031 -1.10351)
(1.98449 0.334141 -1.59859)
(2.90011 -0.398213 -1.94119)
(1.56807 -0.0511595 -0.14468)
(-1.67213 1.95648 0.527883)
(-1.3094 2.76157 0.058719)
(-0.776314 2.72567 -0.177377)
(-0.919522 3.21581 0.202227)
(-1.03515 3.23175 0.0812432)
(-1.37733 2.99414 -0.261407)
(-0.480458 3.4984 0.377541)
(-0.583032 3.40417 0.260419)
(-0.0914519 3.53574 0.411567)
(-1.08027 3.27849 0.0546412)
(-0.379251 3.42492 0.969183)
(-0.151018 3.43385 0.780933)
(-0.675953 3.4452 0.396237)
(-0.576845 3.64177 0.518211)
(-1.46497 3.34081 -0.176504)
(-0.0983633 4.44357 1.89731)
(-0.136156 4.8251 1.36201)
(0.203343 5.06693 0.610988)
(-0.211409 4.74087 0.709667)
(0.224986 4.42925 0.646078)
(-0.619362 4.16575 -0.358348)
(-0.923577 5.0864 2.25432)
(0.0150285 5.4322 2.07991)
(1.17482 5.66668 2.10297)
(1.11417 6.03889 2.13482)
(1.24131 5.66553 1.60732)
(-1.38941 5.04803 0.786168)
(-2.15391 3.75009 1.36476)
(-0.41293 4.69515 2.38977)
(-0.567964 4.68786 2.42077)
(0.306207 4.53079 2.32995)
(0.145315 4.89801 2.892)
(0.309882 5.46475 3.41914)
(0.34162 5.03237 4.16333)
(0.298423 4.69265 3.61067)
(0.968707 5.32584 0.974896)
(-0.146432 3.26663 0.00943556)
(-0.200925 3.26971 1.30104)
(0.549829 3.15373 0.806653)
(1.46602 2.06098 0.884418)
(0.44075 2.51941 1.43785)
(0.635969 3.19726 2.41994)
(1.62163 2.57883 2.52803)
(1.34615 0.900135 1.8869)
(3.24061 2.88246 0.909385)
(0.0874293 1.43707 0.370102)
(0.114738 1.46631 0.563802)
(-0.0119727 1.00973 0.681319)
(0.349453 0.740154 0.474999)
(0.0577163 1.21943 0.352502)
(0.490317 1.35241 1.40881)
(1.09175 1.56624 1.04651)
(2.2119 0.983567 0.523642)
(1.14731 0.712625 0.75946)
(1.54928 1.61077 0.221431)
(0.294979 -0.17622 -1.33341)
(-0.012165 0.174798 -0.601496)
(-0.14499 0.434738 -0.174524)
(-0.108639 0.272993 -0.313957)
(0.241618 0.501192 0.145307)
(-0.41249 0.839216 0.0623398)
(0.107552 0.359484 -0.736338)
(0.902831 0.871922 -1.0632)
(1.52905 0.616241 -1.58021)
(2.38197 -0.138724 -1.71027)
(1.40405 0.0116836 -0.0289171)
(-1.47978 2.39793 0.0899172)
(-1.44977 2.15582 0.485858)
(-0.851917 2.95089 0.358156)
(-1.10645 2.85371 0.0410007)
(-0.782338 2.73894 -0.168155)
(-0.234983 3.27722 0.479476)
(-0.714873 3.25265 0.278793)
(-0.723983 3.25327 0.0869644)
(-1.04604 3.20454 -0.210552)
(-0.436515 3.50783 0.544275)
(-0.415107 3.51483 0.36073)
(-0.305663 3.38786 0.263958)
(-0.295952 3.53072 0.28805)
(-1.02736 3.30974 -0.0207003)
(-0.273715 3.64045 1.25307)
(0.0183888 3.4603 0.866458)
(0.172763 3.36176 0.686705)
(-0.351026 3.56494 0.488402)
(-0.183127 3.87862 0.424232)
(-1.55064 3.25932 -0.136845)
(-0.0581432 4.53357 2.0527)
(-0.0729073 4.67173 1.72304)
(0.379546 4.82951 1.15877)
(0.385484 5.02368 0.689698)
(0.542336 4.80476 0.653017)
(0.34518 4.60346 0.60383)
(-0.462648 4.26114 -0.722404)
(-0.695549 4.49443 2.78944)
(0.164018 5.1971 2.25824)
(1.27019 5.26265 2.48317)
(0.631455 5.9062 2.233)
(1.62468 6.21814 2.30666)
(1.1284 5.89155 1.86528)
(-1.12317 4.98457 0.958077)
(-1.95863 3.77448 1.49125)
(0.703478 4.45305 1.64916)
(-0.514643 4.06394 3.17748)
(-0.361201 4.50076 2.59162)
(0.663678 4.39058 2.37073)
(0.713995 4.70744 3.06124)
(0.837231 5.11596 3.56988)
(1.36727 4.53526 4.18166)
(2.26822 4.04466 3.82026)
(1.02484 5.54684 1.33954)
(0.0771131 3.04495 0.292509)
(0.0947335 3.20608 0.451888)
(0.673077 3.20057 0.502399)
(0.634989 2.98656 0.794034)
(0.579068 2.48846 0.39031)
(0.548505 2.51474 1.25808)
(0.889593 3.03833 2.12821)
(2.14079 2.27179 1.96236)
(1.67185 0.854413 1.59409)
(3.40474 2.64202 0.831648)
(-0.260266 1.1536 0.335789)
(0.122315 1.42265 0.387731)
(0.196135 1.43574 0.563369)
(0.00308724 1.0407 0.731232)
(0.368196 0.740809 0.456556)
(0.0626692 1.19036 0.297421)
(0.479179 1.31499 1.27634)
(1.75529 1.248 0.976018)
(2.57312 0.637384 0.0683162)
(1.01502 0.754689 0.879949)
(1.60722 1.64314 0.137808)
(0.241229 -0.50475 -0.889205)
(0.24384 -0.19031 -1.32745)
(-0.00348331 0.156156 -0.589073)
(-0.101634 0.426428 -0.192397)
(-0.0740804 0.261331 -0.342626)
(0.276289 0.486011 0.11189)
(-0.386053 0.85312 0.104073)
(0.0441792 0.413884 -0.772379)
(0.879109 0.924575 -1.00592)
(1.16484 0.925 -1.5738)
(1.99849 0.0775208 -1.51758)
(1.342 0.0248208 0.0609029)
(-0.802438 2.52353 -0.223776)
(-1.03091 2.78522 -0.0149001)
(-1.43932 2.51943 0.0467941)
(-1.33326 2.28661 0.526052)
(-0.611567 3.04228 0.283795)
(-0.806344 2.9917 0.298165)
(-0.798604 2.90127 -0.0146155)
(-0.773009 2.74831 -0.172433)
(-0.561155 3.16797 0.618901)
(-0.459471 3.27643 0.47995)
(-0.251828 3.29857 0.396083)
(-0.503693 3.33016 0.143255)
(-1.16172 3.17183 -0.218107)
(-0.499303 3.66197 0.677729)
(-0.292967 3.50175 0.572189)
(-0.272557 3.51661 0.311705)
(0.15861 3.44043 0.260097)
(0.178893 3.45734 0.317927)
(-0.757147 3.37308 -0.0651466)
(-0.216832 3.82539 1.40404)
(0.177904 3.60598 1.16578)
(0.203253 3.47303 0.832053)
(0.306676 3.29681 0.704176)
(-0.18738 3.5522 0.559613)
(0.0314973 4.14957 0.388452)
(-1.13843 3.39472 -0.0992051)
(-0.556066 4.62744 2.09313)
(-0.312158 4.71926 1.87006)
(0.364365 4.7764 1.59027)
(0.773148 4.955 0.661729)
(0.388937 5.01525 0.707836)
(0.704066 4.87539 0.539708)
(1.93139 4.44578 0.429313)
(-0.0995698 4.15468 -1.28486)
(-0.28643 4.39483 2.80253)
(-0.441455 4.39215 2.92167)
(0.198497 5.25345 2.39284)
(1.48178 5.38442 2.46134)
(1.71697 5.83997 2.5479)
(1.66529 6.17892 2.37782)
(1.80849 5.84893 2.43086)
(0.663211 5.02882 1.99671)
(-1.18031 4.0913 1.25278)
(0.434321 4.53543 1.1605)
(0.410435 4.30638 1.81104)
(-0.323654 4.34642 2.28851)
(-0.165163 4.45814 2.53456)
(1.00456 4.22399 2.32748)
(1.0867 4.54303 2.91543)
(1.60722 4.7072 3.41716)
(3.2719 3.42917 4.12577)
(1.7797 3.76374 3.17836)
(1.10763 5.51839 1.16868)
(-0.519288 2.8696 0.477872)
(0.228973 3.05695 0.384258)
(0.298063 3.15508 0.653803)
(0.567731 3.09286 0.872825)
(0.837823 2.91802 0.641575)
(1.34298 2.0843 0.580945)
(0.875998 2.38714 1.35585)
(1.65066 2.64662 1.7803)
(2.42812 1.98473 1.37606)
(1.95676 0.662474 1.31663)
(3.24352 2.31755 0.761285)
(-0.134042 0.920591 0.475379)
(-0.13797 1.12977 0.316291)
(0.235994 1.39113 0.385547)
(0.227561 1.42127 0.582122)
(0.131938 1.01989 0.762421)
(0.358612 0.752617 0.452892)
(-0.019631 1.26759 0.13524)
(0.579529 1.23537 1.19719)
(2.152 1.0277 0.682869)
(2.886 0.42382 -0.375139)
(0.930508 0.802119 0.926627)
(1.60819 1.63665 0.0304969)
(-0.34927 -0.290784 -0.998296)
(0.225462 -0.512277 -0.951103)
(0.203675 -0.203293 -1.32083)
(0.00943937 0.136697 -0.582619)
(-0.0549107 0.412537 -0.210867)
(-0.0570749 0.251455 -0.359522)
(0.307696 0.464687 0.0711369)
(-0.36301 0.862483 0.148812)
(-0.00519033 0.472335 -0.823413)
(0.887598 0.981266 -0.940397)
(0.959973 1.14746 -1.55269)
(1.74548 0.226076 -1.38182)
(1.31209 -0.0059755 0.163665)
(-0.836338 2.14099 -0.198567)
(0.00188491 2.8783 -0.0839724)
(-0.703895 2.57996 -0.31927)
(-0.71148 2.85581 0.117261)
(-0.829074 2.87211 -0.014107)
(-1.37796 2.60753 0.0431835)
(-1.12128 2.47634 0.35505)
(-0.593197 3.07345 0.531239)
(-0.490327 3.03272 0.355894)
(-0.511535 3.01942 0.340346)
(-0.810032 2.9063 0.0193797)
(-0.826603 2.83925 -0.0683836)
(-0.507147 3.19151 0.821872)
(-0.334741 3.26042 0.603342)
(-0.153845 3.31077 0.516968)
(-0.0402591 3.29936 0.435984)
(-0.542667 3.32869 0.132668)
(-0.927231 3.17448 -0.171136)
(-0.614863 3.72601 0.850862)
(-0.461628 3.6697 0.655017)
(-0.0966921 3.5168 0.48206)
(0.039735 3.52254 0.31254)
(0.307982 3.42888 0.252731)
(0.311036 3.38389 0.272661)
(-0.402378 3.45931 -0.0616875)
(-0.569283 4.06474 1.44336)
(0.0402813 3.79394 1.34041)
(0.621442 3.56397 1.04516)
(0.789632 3.36958 0.860792)
(0.742213 3.25159 0.721539)
(0.404494 3.56324 0.740005)
(0.425045 4.27863 0.360548)
(-1.03418 3.42719 0.0274299)
(-0.356273 4.75536 2.19564)
(-0.293072 4.74305 2.04073)
(-0.127702 4.85939 1.87619)
(0.58198 4.94497 1.30076)
(1.22307 5.0596 0.552793)
(0.940578 5.09133 0.915242)
(0.906765 4.86477 0.52424)
(3.69515 3.9087 0.289946)
(0.0573707 4.15596 -1.4577)
(0.753818 4.49218 2.77066)
(-0.0858409 4.32239 2.83182)
(0.259654 4.70205 2.46868)
(0.827684 5.11351 2.82109)
(1.85336 5.16533 3.12346)
(2.38299 5.79875 2.57714)
(2.57452 5.84352 2.35956)
(2.18405 5.38083 2.45845)
(1.34833 4.90079 2.12166)
(-1.03134 4.26506 0.510421)
(0.279655 4.37924 1.00101)
(0.465287 4.50051 1.20076)
(0.394599 4.43536 1.73754)
(-0.182422 4.27768 2.51014)
(1.1266 4.37822 2.36084)
(1.46503 4.0257 1.95002)
(1.89111 3.93089 2.51183)
(3.20166 3.57911 3.09129)
(2.69219 3.2881 3.0673)
(2.78808 3.10425 2.76016)
(1.05154 5.55514 0.826065)
(-0.311974 2.62542 0.477322)
(0.345044 2.90063 0.536619)
(0.224867 3.06494 0.524667)
(0.702282 3.0658 1.09715)
(1.16161 2.89122 0.643084)
(1.13618 2.75428 0.599213)
(1.21306 2.1164 0.445487)
(1.32321 1.52785 1.61869)
(2.05895 2.08995 1.4781)
(2.40473 1.91193 0.970206)
(2.82859 -0.05902 0.314183)
(2.03713 3.24525 1.01786)
(-0.581473 0.792568 0.246174)
(-0.127429 0.903112 0.506053)
(-0.0496022 1.12147 0.297894)
(0.308067 1.34913 0.414428)
(0.253973 1.40378 0.625083)
(0.152924 1.04117 0.765324)
(0.332644 0.801932 0.453706)
(-0.0541473 1.28768 0.0471462)
(0.767948 1.0929 1.10678)
(2.39159 0.931371 0.390929)
(3.009 0.262328 -0.621339)
(0.874547 0.897036 0.937798)
(1.73624 1.54589 0.0565981)
(-0.355327 0.640437 -0.697595)
(-0.365007 -0.290504 -0.991916)
(0.197256 -0.512572 -1.02291)
(0.173892 -0.215768 -1.31156)
(0.0241718 0.115614 -0.580627)
(-0.00119566 0.392315 -0.232158)
(-0.0492791 0.243397 -0.369244)
(0.322913 0.444652 0.0356314)
(-0.323304 0.867683 0.214078)
(-0.0404393 0.532764 -0.882019)
(0.895581 1.00138 -0.898785)
(0.700924 1.4352 -1.50025)
(1.58178 0.324153 -1.32917)
(1.2768 -0.0311536 0.212839)
(-0.903048 1.77685 0.196602)
(-0.892605 2.55378 0.190368)
(-0.699923 2.1646 -0.244569)
(-0.641967 2.77831 -0.33382)
(0.116124 2.89859 -0.105816)
(-0.609347 2.58004 -0.254716)
(-0.670174 2.86559 0.31363)
(-0.577273 2.88625 0.222771)
(-0.658027 2.91004 -0.0423526)
(-1.2378 2.80086 0.0233757)
(-0.970143 2.68018 0.379656)
(-0.500731 3.02708 0.694321)
(-0.333978 3.13505 0.565548)
(-0.264882 3.05061 0.392167)
(-0.237103 3.03351 0.370055)
(-0.778104 3.02346 0.0433919)
(-0.694222 2.9227 -0.0338309)
(-0.518534 3.14298 0.894664)
(-0.329261 3.26747 0.795085)
(-0.162054 3.28287 0.629142)
(0.0918482 3.29972 0.528999)
(0.147274 3.26671 0.479351)
(-0.416538 3.23468 0.115441)
(-0.821867 3.1309 -0.183378)
(-0.632208 3.78323 0.898959)
(-0.5591 3.71969 0.849232)
(-0.0983694 3.5673 0.713274)
(0.0215477 3.54779 0.479377)
(0.31203 3.41037 0.444449)
(0.526238 3.39857 0.251849)
(0.492839 3.36887 0.287566)
(-0.298104 3.43618 -0.0387336)
(-0.233584 4.19814 1.56156)
(0.27121 4.08235 1.47043)
(0.494991 3.83253 1.21776)
(0.752379 3.53779 1.01139)
(0.4844 3.30937 0.822675)
(0.8668 3.2054 0.843978)
(0.501274 3.74262 0.850151)
(0.562579 4.07786 0.410973)
(-0.818812 3.48605 0.278488)
(-0.367408 4.67046 2.26799)
(-0.243274 4.81333 2.14845)
(0.528558 4.85696 2.01874)
(0.350793 4.92887 1.81406)
(0.923884 4.97662 1.31355)
(1.36342 5.0938 1.17557)
(0.923335 5.22938 1.03458)
(1.50826 4.7858 0.436264)
(3.77406 4.2688 0.0150823)
(-0.132992 4.12057 -0.645082)
(0.401914 4.81146 2.68793)
(-0.604554 4.50086 2.79716)
(0.254382 4.29409 2.77672)
(0.424909 4.59516 2.64886)
(1.52342 4.83835 3.07067)
(2.29501 5.12293 3.14624)
(2.27028 5.85712 2.39672)
(2.67443 5.58088 2.78618)
(3.12481 4.85962 2.3577)
(2.92631 4.13236 2.29454)
(-0.645324 4.60254 -0.29181)
(0.0739715 4.053 1.27248)
(0.333393 4.28219 1.05201)
(0.755283 4.11909 1.988)
(1.25532 3.75216 2.56319)
(0.328419 3.94668 2.4413)
(1.04391 4.2468 2.17561)
(2.0054 3.75367 1.6486)
(2.66131 3.22854 1.84691)
(3.15838 3.25672 2.14535)
(3.68659 2.46539 2.40308)
(3.31649 2.76348 2.52901)
(0.716353 5.88558 0.186646)
(-0.141527 2.78886 0.604122)
(0.104565 2.62901 0.576519)
(0.486475 2.89447 0.571422)
(0.419336 2.99787 0.695318)
(0.80916 2.99488 1.01963)
(0.803117 2.93697 0.640956)
(1.1964 2.63868 0.57367)
(1.37628 1.94082 0.534256)
(1.10678 2.29174 -0.217205)
(1.87083 2.3061 0.692586)
(2.47699 1.90128 0.80816)
(3.09079 -0.118671 -0.402918)
(2.31897 2.57613 0.910734)
(-0.754816 0.355826 0.586305)
(-0.469901 0.804087 0.212442)
(-0.128689 0.899764 0.597403)
(-0.023451 1.12598 0.300477)
(0.362332 1.30612 0.436399)
(0.338515 1.36018 0.659729)
(0.234047 1.00931 0.78497)
(0.359499 0.824181 0.44451)
(0.0383667 1.28891 -0.00380762)
(0.874711 0.994007 0.957601)
(2.47843 0.917666 0.104514)
(2.93772 0.245219 -0.637171)
(0.963338 0.961329 0.836634)
(1.74427 1.50637 -0.0279646)
(-0.552146 0.92921 -0.662799)
(-0.256567 0.639918 -0.741092)
(-0.368023 -0.288659 -0.980868)
(0.16285 -0.514344 -1.09405)
(0.1527 -0.227274 -1.2984)
(0.0372498 0.0934263 -0.580483)
(0.0471172 0.369062 -0.250177)
(-0.0380366 0.233168 -0.378878)
(0.343938 0.417457 -0.00746845)
(-0.31264 0.869202 0.238038)
(-0.0651725 0.596237 -0.927988)
(0.901226 1.07318 -0.807965)
(0.744694 1.46402 -1.50169)
(1.48587 0.362837 -1.34297)
(1.25907 0.00308696 0.174412)
(-0.646744 2.06081 0.130432)
(-0.796893 1.81032 0.359474)
(-0.711444 2.51103 0.282511)
(-0.872794 2.60543 0.128001)
(-0.686971 2.13501 -0.316421)
(-0.718728 2.85143 -0.0470998)
(-0.492302 2.79162 -0.338742)
(1.07256 2.81856 -0.0165744)
(-0.337201 2.58223 -0.402997)
(-0.748612 2.83464 0.469125)
(-0.480132 2.95486 0.341293)
(-0.448663 2.90328 0.161662)
(-0.178979 3.04917 -0.281324)
(-0.731388 3.14446 -0.105084)
(-0.761845 2.79923 0.263347)
(-0.47796 2.978 0.802246)
(-0.460677 3.0598 0.717105)
(-0.128722 3.11898 0.581723)
(-0.0357357 3.0594 0.397392)
(-0.0099461 3.08443 0.340816)
(-0.472165 3.11681 0.0442415)
(-0.423488 3.04027 -0.00558402)
(-0.57745 3.15676 0.953876)
(-0.222293 3.26373 0.911755)
(-0.111977 3.31085 0.768316)
(0.585094 3.31763 0.526729)
(0.383994 3.30116 0.520059)
(0.585836 3.21109 0.450329)
(-0.0684723 3.23154 0.11922)
(-0.728449 3.14721 -0.111019)
(-0.372378 3.70269 1.19136)
(-0.45989 3.81946 0.932662)
(-0.0486001 3.69302 0.8214)
(0.260967 3.43638 0.698718)
(0.312193 3.54516 0.535002)
(0.720065 3.33143 0.265711)
(1.0477 3.356 0.246943)
(0.666488 3.27456 0.324373)
(0.00800099 3.41461 -0.00768996)
(0.0290012 4.21974 1.68466)
(0.281414 4.22829 1.59522)
(0.556026 4.01483 1.41121)
(0.802307 3.82998 1.11743)
(0.936686 3.49775 0.996436)
(1.5006 3.04126 0.727927)
(1.17918 3.178 1.00795)
(0.929403 3.67546 0.982834)
(0.708105 3.89324 0.547219)
(-0.329963 3.59516 0.295222)
(-0.313816 4.53923 2.485)
(-0.0468359 4.75696 2.25751)
(0.472669 4.86928 2.18494)
(0.798087 4.98029 2.07998)
(1.75661 4.87365 1.48597)
(1.86395 4.80963 1.49928)
(1.47357 5.19378 0.944515)
(1.44355 5.18962 1.19858)
(2.04826 4.90847 0.471349)
(3.78352 4.46757 -0.0944828)
(0.446825 3.85409 -0.65307)
(-0.482107 4.59748 2.95772)
(-0.381803 4.61211 2.8123)
(0.61944 4.40871 2.79587)
(0.754752 4.15024 2.29127)
(1.34212 4.33901 2.51442)
(1.95418 4.81373 3.07789)
(2.21856 5.1506 3.29204)
(2.58264 5.59941 2.55501)
(3.75669 4.29155 3.34394)
(4.5808 3.7424 2.61676)
(5.40337 2.70355 2.50988)
(-0.103777 4.62401 -0.563439)
(0.318218 3.92812 0.9739)
(0.591087 4.0068 1.02232)
(0.790817 4.13104 1.00277)
(1.13171 4.01922 1.41346)
(0.253246 4.08037 1.90684)
(0.309081 3.88582 2.02154)
(1.07357 4.21682 1.92244)
(1.91715 3.65063 1.45732)
(2.79738 2.92413 1.11665)
(3.2379 3.02862 1.14276)
(4.09656 2.17549 2.0832)
(5.24584 1.11506 2.15868)
(0.765793 5.94129 0.123462)
(0.632367 2.69216 0.212806)
(0.804877 2.70917 0.807044)
(0.889091 2.58598 0.773115)
(0.622871 2.93015 0.510676)
(0.62043 2.91331 0.786734)
(0.758873 2.94414 1.07921)
(1.15807 2.78675 0.746946)
(1.30263 2.52792 0.622904)
(1.71341 1.87756 0.26046)
(1.2714 1.85578 0.495819)
(1.89053 2.09867 0.418524)
(2.46221 2.02276 0.541692)
(3.37167 -0.131815 -0.692654)
(2.28676 2.22384 1.04436)
(0.833003 0.756859 -0.8208)
(-0.756581 0.369999 0.620865)
(-0.358891 0.866491 0.2061)
(-0.116034 0.910672 0.690399)
(0.0941523 1.11665 0.325574)
(0.413108 1.27136 0.447729)
(0.444608 1.28607 0.694569)
(0.35025 0.982577 0.780148)
(0.412831 0.820887 0.413035)
(0.11294 1.28315 -0.0316979)
(0.921958 0.948061 0.737091)
(2.46406 0.970071 -0.158858)
(2.72563 0.354097 -0.524249)
(0.958078 0.977637 0.703313)
(1.99004 1.10065 -0.300014)
(-0.823795 -0.260934 -0.556784)
(-0.503312 0.970886 -0.692789)
(-0.29294 0.634354 -0.705381)
(-0.384644 -0.272887 -0.964149)
(0.11995 -0.516171 -1.15807)
(0.13422 -0.244593 -1.28112)
(0.0484028 0.0687411 -0.581349)
(0.0743427 0.354026 -0.261161)
(-0.0357351 0.232597 -0.378559)
(0.359632 0.392218 -0.0441796)
(-0.232479 0.856195 0.29367)
(-0.0775659 0.648258 -0.938716)
(0.887318 1.08734 -0.794784)
(0.882677 1.41267 -1.63879)
(1.44183 0.371257 -1.3627)
(1.20919 -0.0538376 0.300017)
(-1.00734 1.59391 -0.134702)
(-0.720526 2.25496 0.0983356)
(-0.739253 1.98393 -0.0138218)
(-0.713963 1.81429 0.26967)
(-0.810042 2.57557 0.17619)
(-0.496892 2.51789 0.372518)
(-0.816582 2.50936 0.048691)
(-0.717522 2.07418 -0.170751)
(-0.39916 2.82116 0.124051)
(-0.398552 2.84874 0.109978)
(0.268901 2.83298 -0.31319)
(1.17013 2.84331 -0.00746623)
(-0.333387 2.55064 -0.303765)
(-0.667905 2.85345 0.589222)
(-0.342289 2.94156 0.505236)
(-0.253597 2.99998 0.329381)
(0.122282 2.99318 0.10986)
(-0.0313821 3.10494 -0.260088)
(-0.0824191 3.30767 -0.0575208)
(-0.511017 2.88394 0.167564)
(-0.282076 2.98857 0.987081)
(-0.185235 3.0575 0.813138)
(-0.158181 3.10676 0.749399)
(0.204931 3.16885 0.50741)
(0.317002 3.08703 0.421688)
(0.338414 3.01382 0.407069)
(0.277244 3.16463 0.132321)
(-0.213418 3.11035 -0.019021)
(-0.688687 3.27279 0.976794)
(-0.189397 3.30073 0.831015)
(0.0706217 3.31017 0.914156)
(0.245097 3.32485 0.770536)
(0.684463 3.36141 0.482463)
(0.597705 3.22359 0.482136)
(0.789035 3.17017 0.388716)
(0.375937 3.22567 0.118044)
(-0.581017 3.15752 -0.0835492)
(-0.217842 3.69025 1.37647)
(-0.19644 3.67532 1.16459)
(0.0232192 3.73076 1.05873)
(0.341414 3.62448 0.823431)
(0.566729 3.43436 0.656455)
(0.867779 3.37587 0.49358)
(0.984759 3.26547 0.32559)
(1.11497 3.37538 0.27863)
(1.15428 3.16081 0.347387)
(0.38142 3.44728 0.0427989)
(0.114657 4.07261 1.90683)
(0.365336 4.28566 1.6424)
(0.471502 4.28539 1.51522)
(0.706701 3.96898 1.33442)
(1.3577 3.81321 0.954989)
(1.20861 3.39515 0.867269)
(1.01873 3.22151 0.714006)
(1.20789 3.23742 0.962277)
(1.47473 3.49174 1.21852)
(0.933627 3.76654 0.671655)
(-0.000125499 3.63413 0.332073)
(0.117862 4.29292 2.55727)
(0.241135 4.64476 2.47317)
(0.861702 4.87296 2.3421)
(1.15935 4.80437 2.33522)
(1.33792 4.9846 2.06725)
(2.6764 4.67478 2.07253)
(2.18093 4.88733 1.61013)
(1.53919 5.28979 1.09597)
(1.51685 5.18093 1.16408)
(2.11448 4.84891 0.652218)
(3.67556 4.18999 0.215542)
(0.855814 3.78836 -0.370453)
(-0.391591 4.40515 3.01146)
(0.069019 4.5774 2.73204)
(1.09559 4.60243 2.33731)
(1.03387 4.19245 2.37401)
(1.56355 3.84071 1.93721)
(1.20714 4.15112 2.55774)
(2.47435 4.68594 3.03582)
(2.8872 4.90521 3.25266)
(3.12102 5.00479 3.175)
(4.03352 3.84809 2.63853)
(5.03717 3.21119 2.42678)
(5.21974 2.77682 2.11481)
(0.451376 4.48611 -0.673937)
(0.222847 3.60063 1.31629)
(0.653646 3.8593 0.921981)
(0.712648 3.86574 0.964208)
(1.02317 4.04499 1.08773)
(1.1048 3.98027 1.42244)
(0.64212 3.98787 1.95583)
(0.915635 3.9427 1.52441)
(1.22773 4.26163 1.67659)
(2.15776 3.54634 0.993138)
(2.20034 3.35151 0.843916)
(2.87422 3.07977 1.00032)
(5.0781 1.333 1.7851)
(5.36479 1.02158 2.23427)
(1.29688 5.60773 0.134058)
(-0.00713343 2.57603 0.742698)
(1.01008 2.74056 0.201776)
(0.929273 2.73124 0.84305)
(0.837232 2.60177 0.800911)
(1.31132 2.72032 0.762122)
(1.02489 2.74464 0.987418)
(0.924383 2.86793 1.04064)
(1.44216 2.59712 0.733826)
(1.63131 2.27352 0.656927)
(1.81073 1.82027 0.474647)
(1.1815 2.02637 0.281441)
(1.4619 2.28476 0.439773)
(2.83044 2.05564 -0.162837)
(3.82793 -0.463479 0.0870276)
(2.14423 2.10437 1.09759)
(0.226571 1.19452 -1.67155)
(0.807854 0.667306 -0.4819)
(-0.698084 0.407505 0.508018)
(-0.339791 0.864893 0.221589)
(-0.106125 0.911631 0.727508)
(0.28099 1.0731 0.322558)
(0.449232 1.24595 0.465027)
(0.590453 1.19442 0.667679)
(0.40807 0.965871 0.769743)
(0.562224 0.788725 0.266472)
(0.152469 1.27257 -0.00955156)
(0.953525 0.914474 0.530454)
(2.41646 1.01511 -0.292579)
(2.56445 0.486535 -0.399661)
(1.10502 1.11612 0.0679752)
(1.87424 1.21572 -0.147786)
(-0.779647 0.245089 -0.562738)
(-0.801028 -0.229505 -0.564546)
(-0.564144 1.016 -0.748247)
(-0.29248 0.62322 -0.833)
(-0.393412 -0.288263 -0.952356)
(0.0704232 -0.505076 -1.2104)
(0.118348 -0.252295 -1.26372)
(0.054784 0.0498263 -0.58005)
(0.101882 0.337454 -0.273313)
(-0.0192728 0.216908 -0.389306)
(0.374502 0.367674 -0.0822103)
(-0.207479 0.839411 0.203832)
(-0.0708741 0.689842 -0.892399)
(0.830241 1.30808 -0.625844)
(0.983255 1.38084 -1.77336)
(1.43481 0.325731 -1.35394)
(1.16135 -0.0671203 0.292616)
(-0.698746 1.58963 0.0608107)
(-0.701216 1.91522 0.0723911)
(-0.948252 1.62432 -0.140718)
(-0.664332 2.3025 0.114654)
(-0.532397 2.25067 0.139813)
(-0.567706 1.97367 0.0458428)
(-0.625405 1.82729 0.135886)
(-0.665747 2.53279 0.158701)
(-0.783947 2.51946 0.170534)
(-0.480782 2.46487 0.348603)
(-0.693233 2.43566 0.0994708)
(-0.621432 2.08909 -0.055275)
(-0.336423 2.82678 0.333739)
(-0.228998 2.85663 0.155524)
(-0.138249 2.82461 0.114853)
(-0.00141418 2.8119 -0.323217)
(1.03912 2.84789 -0.0917061)
(-0.299421 2.51995 -0.269955)
(-0.495097 2.90042 0.757656)
(-0.184447 2.95393 0.621226)
(-0.0141281 3.04954 0.543326)
(0.0171334 3.0081 0.291848)
(0.346941 3.06592 0.105816)
(0.351096 3.02687 -0.291539)
(0.536185 3.3259 -0.0527469)
(-0.320435 2.92171 0.105399)
(-0.512636 3.11771 0.90677)
(-0.18299 3.01119 0.980008)
(0.0267499 3.1207 0.830662)
(0.383783 3.19365 0.774653)
(0.413918 3.20765 0.520719)
(0.628122 2.99055 0.400933)
(0.631658 2.96637 0.361527)
(0.820441 3.12136 0.218726)
(0.183319 3.07637 -0.0823382)
(-0.37393 3.32951 1.18025)
(-0.244757 3.31015 1.02429)
(-0.0135262 3.37106 0.858361)
(0.416403 3.3671 0.81732)
(0.780652 3.29696 0.691862)
(0.837404 3.32328 0.491874)
(0.952743 3.10926 0.373356)
(0.859169 3.09118 0.30919)
(1.03676 3.14033 0.19257)
(-0.222575 3.21485 0.0202021)
(-0.0935343 3.71218 1.64359)
(-0.0440834 3.6994 1.3624)
(0.234347 3.70393 1.24131)
(0.241436 3.63082 1.09116)
(0.909584 3.46139 0.868723)
(0.877869 3.40957 0.649881)
(1.23182 3.18654 0.494771)
(1.08218 3.23849 0.381707)
(1.31076 3.32796 0.274796)
(1.60535 3.12923 0.378081)
(0.600929 3.38323 0.0715253)
(0.0207847 4.06374 1.97827)
(0.474278 4.22021 1.90163)
(0.768933 4.30192 1.65855)
(0.729829 4.24895 1.37952)
(0.920053 3.97789 1.32144)
(1.48168 3.73441 0.972566)
(1.39589 3.33581 0.707765)
(1.14587 3.21301 0.754346)
(1.26112 3.15985 1.05302)
(1.46524 3.63723 1.05515)
(0.942589 3.70745 0.640137)
(0.825923 3.5861 0.396398)
(0.595252 4.09146 2.4531)
(0.50372 4.33259 2.64864)
(0.90704 4.64218 2.55092)
(1.23875 4.87198 2.44765)
(1.47083 4.7148 2.38355)
(2.04129 4.72835 2.22155)
(2.57216 4.82309 1.91101)
(2.40859 4.88138 1.67891)
(1.75825 5.36538 1.16998)
(1.65346 5.02763 1.20054)
(2.90533 3.97931 1.11716)
(3.17111 3.96623 0.324818)
(1.15553 3.85344 0.118992)
(0.38901 4.19723 2.7077)
(0.331785 4.4157 2.62756)
(0.775643 4.48912 2.35059)
(1.15254 4.3603 2.1583)
(1.63113 3.95674 1.8964)
(1.64936 3.79838 1.64306)
(1.89551 4.08359 2.17645)
(3.0323 4.32668 3.21869)
(3.292 4.73844 3.15046)
(4.22066 3.83233 3.42061)
(4.26665 3.40926 2.69615)
(6.094 0.980515 1.66099)
(5.02689 2.61632 1.78108)
(1.44 4.46102 -0.518788)
(-0.258462 3.19402 1.55426)
(1.24597 3.55814 1.10678)
(1.53787 3.64878 1.13141)
(1.15241 3.79257 0.955894)
(1.23498 3.96297 1.13084)
(1.24623 3.95011 1.60234)
(0.933921 3.97137 1.55992)