/*--------------------------------*- C++ -*----------------------------------*\
  =========                 |
  \\      /  F ield         | OpenFOAM: The Open Source CFD Toolbox
   \\    /   O peration     | Website:  https://openfoam.org
    \\  /    A nd           | Version:  7
     \\/     M anipulation  |
\*---------------------------------------------------------------------------*/
FoamFile
{
    version     2.0;
    format      ascii;
    class       volScalarField;
    location    "2";
    object      p;
}
// * * * * * * * * * * * * * * * * * * * * * * * * * * * * * * * * * * * * * //

dimensions      [0 2 -2 0 0 0 0];

internalField   nonuniform List<scalar> 
18720
(
-66.3931
-65.8887
-66.4505
-66.3429
-65.9579
-65.3263
-65.9634
-65.7975
-65.4721
-66.001
-66.2996
-65.9191
-65.6066
-65.2839
-65.5557
-65.1259
-65.4152
-65.557
-65.7225
-65.3872
-65.6861
-65.6329
-66.2496
-65.8833
-65.5502
-65.1882
-64.8224
-65.4636
-65.0919
-66.0668
-65.5182
-64.9506
-65.2863
-66.121
-65.7776
-65.6666
-65.2999
-65.5984
-65.8553
-65.2283
-66.2065
-65.8369
-65.492
-65.1659
-65.4105
-63.9607
-65.041
-64.5697
-65.4691
-66.3313
-64.8635
-65.7754
-66.704
-66.2706
-64.8026
-65.1887
-65.9529
-67.0199
-65.9618
-65.5984
-65.2131
-65.5368
-65.7247
-66.4616
-65.4269
-66.1773
-65.789
-65.4268
-65.1421
-65.3874
-65.652
-63.3432
-64.0283
-63.8295
-64.2271
-65.6005
-64.288
-65.3172
-65.7647
-66.814
-64.671
-65.5036
-66.4993
-67.1543
-67.2382
-64.6691
-65.0481
-65.7199
-66.7997
-67.7104
-66.5447
-65.5193
-65.1267
-65.4097
-65.5558
-66.3486
-66.873
-65.679
-66.1579
-65.7745
-65.3603
-65.1159
-65.343
-65.6029
-65.9028
-62.3028
-63.4158
-63.2336
-63.4969
-64.5558
-63.69
-64.2694
-64.6791
-65.9226
-64.0776
-65.0258
-65.6686
-66.149
-67.3353
-64.4908
-65.2218
-66.1555
-66.9497
-67.4793
-67.8143
-64.5555
-64.8449
-65.5188
-66.578
-67.5987
-68.1647
-66.9552
-65.444
-65.0383
-65.2067
-65.4097
-66.2306
-66.7668
-67.2374
-65.9248
-66.1659
-65.7655
-65.3145
-65.0834
-65.2821
-65.5116
-65.8773
-66.3011
-62.7192
-62.3218
-62.4152
-62.2107
-63.227
-63.2239
-63.3466
-63.2745
-64.6565
-63.5736
-63.9676
-64.5337
-64.5634
-66.2822
-63.9287
-64.706
-65.4449
-65.97
-65.8785
-67.6944
-64.3295
-64.97
-65.8295
-66.7373
-67.2026
-67.6998
-68.2561
-64.433
-64.6888
-65.4021
-66.3584
-67.4507
-68.0398
-68.8949
-67.3007
-65.3492
-64.9544
-65.0067
-65.3309
-66.0961
-66.6503
-67.1486
-67.8755
-66.288
-66.1967
-65.7478
-65.2721
-65.0507
-65.2204
-65.4685
-65.8466
-66.2858
-66.8352
-62.2349
-62.4979
-62.9013
-61.7566
-62.2274
-62.5365
-62.0363
-62.1925
-63.2465
-63.1937
-62.9568
-63.1776
-62.9336
-64.6197
-63.489
-63.8828
-64.1956
-64.4743
-64.4164
-66.2476
-63.7987
-64.4268
-65.2341
-65.8276
-65.6065
-66.28
-67.9221
-64.1782
-64.7378
-65.5125
-66.4982
-66.8876
-67.4378
-67.9124
-69.0663
-64.3185
-64.5524
-65.3227
-66.1154
-67.2949
-67.8606
-68.7147
-69.7658
-67.927
-65.2461
-64.8743
-64.8921
-65.219
-65.9531
-66.5108
-67.0228
-67.8149
-68.356
-66.8478
-66.2129
-65.7241
-65.2169
-65.0129
-65.1691
-65.4566
-65.8299
-66.2284
-66.8057
-65.9169
-61.5419
-62.067
-62.4862
-61.6806
-61.9152
-62.944
-61.7052
-61.7357
-62.1709
-62.6179
-62.0328
-62.1507
-62.2602
-63.1445
-63.1443
-63.0802
-63.0573
-62.9011
-63.054
-64.752
-63.4423
-63.7376
-63.981
-64.165
-64.3402
-65.5599
-66.4119
-63.6422
-64.1655
-64.9549
-65.4646
-65.5092
-66.3982
-66.8233
-68.1361
-64.0643
-64.52
-65.1818
-66.2235
-66.5341
-67.2349
-67.6631
-67.1371
-70.1054
-64.2622
-64.4237
-65.1522
-65.8318
-67.1256
-67.6626
-68.4447
-69.4038
-68.9276
-68.5599
-65.1655
-64.7838
-64.7989
-65.0899
-65.8061
-66.367
-66.857
-67.6515
-68.1775
-67.6553
-65.9666
-66.2175
-65.6954
-65.1659
-64.9743
-65.1275
-65.458
-65.8052
-66.1133
-66.7638
-65.819
-64.4301
-60.6672
-61.3256
-61.7096
-61.0948
-61.6405
-62.7652
-61.6146
-61.4887
-61.5943
-63.1793
-61.9631
-61.624
-61.8201
-62.2586
-62.7519
-62.0344
-62.0138
-62.243
-62.5561
-63.2705
-63.1471
-62.8969
-62.8704
-62.9544
-62.9984
-64.6778
-65.7876
-63.42
-63.5265
-63.8173
-64.034
-64.2062
-65.2089
-66.5884
-67.0406
-63.5226
-63.9622
-64.6686
-65.0989
-65.1302
-66.0441
-66.4796
-66.5792
-67.3901
-63.9598
-64.3176
-64.8682
-65.9295
-66.172
-66.8661
-67.2862
-66.9004
-66.1457
-69.2616
-64.2573
-64.3217
-64.8849
-65.5638
-66.9541
-67.434
-68.1308
-69.0246
-68.6203
-67.8564
-67.882
-65.0997
-64.6722
-64.6921
-64.9522
-65.6517
-66.2195
-66.6681
-67.4169
-67.9593
-67.4104
-65.5603
-64.4853
-66.2186
-65.6878
-65.1214
-64.941
-65.0787
-65.4546
-65.7688
-65.9773
-66.7212
-65.7467
-64.3769
-63.3851
-59.9392
-60.602
-60.7179
-60.5363
-61.1037
-61.8793
-61.241
-61.1155
-61.5242
-62.9356
-61.7094
-61.4326
-61.4607
-61.75
-63.4485
-62.0209
-61.6283
-61.7095
-61.9334
-62.6227
-62.8934
-62.0225
-62.0936
-62.1581
-62.7119
-64.0466
-64.8634
-63.1818
-62.6519
-62.7953
-62.9433
-62.7601
-64.2574
-66.8617
-66.8602
-63.3949
-63.3656
-63.6234
-63.8254
-63.9359
-64.7296
-66.3797
-67.2633
-66.7215
-63.5196
-63.8087
-64.4063
-64.6892
-64.9891
-65.2807
-66.0953
-66.4678
-66.9193
-66.3823
-63.8324
-64.1219
-64.6433
-65.5838
-65.7984
-66.5133
-66.8925
-66.4954
-66.0219
-66.2186
-68.2749
-64.2374
-64.2443
-64.6797
-65.3417
-66.6442
-67.1815
-67.7459
-68.4869
-68.0717
-67.4464
-65.7638
-65.7844
-65.0303
-64.604
-64.5794
-64.8359
-65.4985
-66.064
-66.466
-67.1335
-67.6997
-67.1524
-65.3502
-64.2847
-63.4611
-66.2164
-65.6952
-65.0964
-64.9137
-65.0182
-65.4056
-65.7282
-65.8134
-66.5668
-65.692
-64.3122
-63.3182
-62.8878
-59.2978
-59.8942
-60.0109
-59.9241
-60.4521
-60.9862
-60.619
-60.5743
-61.0585
-62.0546
-61.2849
-61.1423
-61.21
-61.5167
-63.1918
-61.7882
-61.4808
-61.3884
-61.9042
-62.015
-63.6346
-62.1763
-61.6016
-61.7008
-61.955
-63.4723
-64.3551
-63.1064
-62.0079
-62.0913
-62.0881
-62.4946
-63.9378
-66.6734
-67.2115
-63.2451
-62.6292
-62.9061
-62.7669
-62.7053
-63.9684
-66.6331
-69.0285
-67.4177
-63.3419
-63.28
-63.451
-63.5271
-63.793
-64.5184
-66.1604
-67.1922
-68.3164
-66.9974
-63.5036
-63.6833
-64.1188
-64.4244
-64.7471
-64.9949
-65.8545
-66.0299
-66.985
-65.9704
-66.2124
-63.7366
-63.9496
-64.3991
-65.181
-65.5042
-66.2055
-66.5264
-66.0606
-65.8498
-66.1985
-65.3477
-66.1468
-64.1689
-64.1659
-64.539
-65.1085
-66.2433
-66.9368
-67.3167
-67.8872
-67.4076
-66.8899
-65.4302
-64.5659
-64.4511
-64.9785
-64.5637
-64.4732
-64.7177
-65.3751
-65.904
-66.2404
-66.8372
-67.4404
-66.9151
-65.1571
-64.1417
-63.7604
-62.9349
-66.2111
-65.7149
-65.0958
-64.8968
-64.9759
-65.3366
-65.6532
-65.6689
-66.3785
-65.6327
-64.2534
-63.268
-62.8358
-61.562
-58.8223
-59.2176
-59.4239
-59.3371
-59.8355
-60.1256
-60.0357
-59.9787
-60.5615
-61.1795
-60.7148
-60.5904
-60.6804
-61.1793
-62.4112
-61.37
-61.2162
-61.1423
-61.5877
-61.9858
-63.426
-61.9924
-61.5268
-61.3658
-61.8943
-62.9998
-63.7648
-63.8228
-62.3263
-61.6652
-61.7643
-61.8775
-63.2986
-65.8431
-67.1139
-63.3399
-62.1304
-62.0529
-62.1336
-62.5325
-63.7783
-66.3783
-68.8717
-69.3902
-63.3143
-62.6362
-62.78
-62.8907
-62.6925
-63.724
-66.342
-68.6161
-68.974
-68.3158
-63.3327
-63.204
-63.1625
-63.3884
-63.6129
-64.3087
-65.8849
-66.9929
-68.2619
-66.9915
-65.835
-63.4144
-63.6178
-63.8652
-64.192
-64.3889
-65.2441
-65.557
-65.775
-67.2475
-66.2001
-65.0729
-65.5665
-63.6683
-63.7784
-64.1689
-64.8273
-65.3437
-65.7768
-66.0237
-66.031
-65.2743
-66.0647
-65.2296
-64.589
-64.9084
-64.088
-64.0666
-64.3578
-64.8868
-65.866
-66.6986
-66.891
-67.2558
-66.8852
-66.3809
-65.2117
-64.241
-64.3509
-63.8684
-64.9443
-64.5228
-64.3863
-64.5783
-65.2299
-65.7423
-66.0216
-66.5843
-67.1971
-66.6671
-64.9616
-64.0027
-63.6515
-62.3241
-61.5656
-66.2177
-65.7322
-65.0884
-64.8783
-64.9163
-65.2542
-65.5038
-65.5605
-66.1891
-65.5752
-64.1981
-63.2275
-62.8173
-61.566
-60.7077
-58.4486
-58.7665
-58.8909
-58.884
-59.3629
-59.3088
-59.4292
-59.4773
-59.998
-60.2173
-60.1128
-60.0616
-60.1005
-60.6286
-61.2201
-60.8444
-60.5581
-60.6968
-60.9861
-61.6075
-62.6116
-61.6816
-61.2447
-61.1697
-61.5215
-62.4045
-63.1165
-63.8287
-62.2985
-61.6301
-61.3623
-61.7538
-62.9969
-64.9099
-66.1009
-64.0724
-62.5347
-61.575
-61.6437
-61.8763
-63.3331
-65.5942
-68.4816
-69.2465
-63.5732
-62.314
-61.9271
-62.0618
-62.6567
-63.5944
-66.3263
-68.499
-69.6438
-69.0669
-63.3589
-62.6954
-62.434
-62.6934
-62.8538
-63.5565
-66.1502
-68.2424
-68.7795
-67.978
-66.7957
-63.3165
-63.1103
-62.7805
-63.5359
-63.5136
-64.0295
-65.5412
-66.6941
-68.2822
-67.187
-65.6608
-65.0004
-63.3502
-63.5329
-63.6418
-63.9037
-64.2525
-64.7677
-65.2542
-65.7884
-67.1527
-66.3329
-65.1598
-63.9603
-64.7249
-63.6291
-63.6483
-63.9848
-64.4918
-65.0621
-65.3009
-65.7237
-65.7394
-64.7114
-65.9142
-64.9976
-64.4217
-64.0212
-64.5729
-64.0072
-63.9709
-64.2204
-64.6872
-65.5437
-66.475
-66.4733
-66.7316
-66.4159
-66.118
-64.9923
-63.9972
-64.1056
-63.0757
-62.4217
-64.9036
-64.498
-64.3111
-64.4498
-64.9694
-65.5876
-65.8289
-66.3919
-66.972
-66.4374
-64.7807
-63.873
-63.5531
-62.2305
-61.3721
-60.6945
-66.2377
-65.7339
-65.0579
-64.8722
-64.8555
-65.1764
-65.3829
-65.4771
-66.0964
-65.5673
-64.143
-63.1906
-62.801
-61.5567
-60.7175
-60.5072
-58.0996
-58.3754
-58.4874
-58.6113
-58.8114
-58.9081
-59.0261
-59.0966
-59.4207
-59.3534
-59.488
-59.5088
-59.5567
-60.1205
-60.0707
-60.215
-59.9471
-60.1861
-60.3809
-60.9152
-61.3342
-60.9787
-60.5672
-60.7062
-60.8923
-61.5454
-62.3113
-63.0018
-61.8922
-61.3113
-61.0824
-61.5708
-62.3185
-63.2701
-65.0164
-64.1243
-62.7464
-61.5745
-61.2345
-61.7019
-62.845
-64.6558
-67.2267
-69.0153
-64.3988
-62.7847
-61.6925
-61.4782
-61.9592
-63.1391
-65.4499
-68.0517
-69.1058
-69.6549
-63.7733
-62.5073
-61.974
-61.899
-62.4828
-63.5012
-66.0875
-68.1204
-69.6019
-68.8736
-67.7974
-63.3827
-62.753
-62.3494
-62.5722
-62.6438
-63.3921
-65.8023
-67.934
-68.656
-68.1245
-66.0439
-65.5279
-63.2728
-63.0562
-62.8217
-63.1857
-63.3226
-63.7861
-65.2312
-66.4745
-68.4262
-67.3688
-65.8125
-63.7183
-63.6684
-63.2735
-63.4282
-63.4866
-63.7269
-63.946
-63.91
-65.1223
-65.8588
-66.6817
-66.3909
-65.2596
-64.2445
-62.7827
-64.4378
-63.6685
-63.547
-63.8202
-64.2425
-64.7382
-64.9301
-65.482
-65.3678
-64.6371
-65.7702
-65.1165
-64.2959
-63.7794
-63.2063
-63.3135
-63.9536
-63.8797
-64.0858
-64.5216
-65.324
-66.1592
-66.1248
-66.415
-66.1396
-65.7949
-64.7401
-63.7979
-63.901
-62.9324
-62.1702
-61.4111
-64.8719
-64.4657
-64.2494
-64.3411
-64.7047
-65.4524
-65.6467
-66.1921
-66.7388
-66.2306
-64.6296
-63.7561
-63.464
-62.154
-61.3372
-60.7296
-60.5054
-66.2392
-65.7321
-65.0225
-64.8569
-64.7979
-65.1158
-65.3295
-65.3786
-65.9841
-65.5787
-64.091
-63.1557
-62.7684
-61.5546
-60.7416
-60.501
-59.8793
-57.9462
-58.1272
-58.0885
-58.3366
-58.6324
-58.5583
-58.5292
-58.7118
-58.9713
-58.9319
-59.0377
-59.1419
-59.1749
-59.6575
-59.3758
-59.4816
-59.5528
-59.629
-59.8482
-60.3472
-60.2275
-60.1871
-60.0346
-60.1576
-60.4736
-60.6212
-61.5702
-61.3879
-61.169
-60.541
-60.6502
-60.9246
-61.4728
-62.1367
-63.5553
-63.2065
-62.1595
-61.3421
-61.1424
-61.6192
-62.0703
-63.347
-65.0385
-67.5968
-64.5005
-62.9881
-61.7425
-61.1562
-61.6156
-62.5809
-64.5898
-66.8997
-68.185
-69.2103
-64.7217
-63.0225
-61.8054
-61.4355
-61.7189
-62.968
-65.1163
-67.6951
-68.9297
-69.051
-68.7327
-63.9588
-62.7115
-62.0664
-61.8383
-62.2793
-63.3738
-65.6844
-67.7677
-69.4079
-69.0195
-67.3475
-65.6855
-63.4065
-62.8201
-62.3095
-62.4557
-62.5073
-63.3283
-65.5809
-67.6039
-68.492
-68.1932
-66.4043
-64.054
-63.5003
-63.1984
-63.0294
-62.6867
-62.8434
-63.3302
-63.7864
-64.9877
-66.2851
-68.2048
-67.4753
-66.065
-64.1076
-62.6283
-63.6138
-63.1693
-63.3304
-63.3561
-63.4943
-63.7231
-64.1049
-64.8285
-65.7531
-66.2766
-66.3616
-65.4125
-64.3965
-62.7752
-62.787
-63.7681
-63.5584
-63.4496
-63.6297
-64.0281
-64.4058
-64.6462
-64.7257
-65.6784
-64.6197
-65.6001
-65.1939
-64.2981
-63.5356
-62.7992
-62.7168
-62.3433
-63.9087
-63.8165
-63.9525
-64.3506
-65.1254
-65.7927
-65.8102
-65.9754
-65.8881
-65.5971
-64.5321
-63.7062
-63.8066
-62.7922
-62.0135
-61.3009
-60.7558
-64.8624
-64.4297
-64.1964
-64.243
-64.5373
-65.3576
-65.4959
-66.0308
-66.5461
-65.998
-64.4763
-63.6425
-63.3862
-62.0774
-61.3043
-60.713
-60.1448
-59.8702
-66.2539
-65.7247
-64.9909
-64.8109
-64.7487
-65.0539
-65.2923
-65.2132
-65.8248
-65.5066
-64.0428
-63.1199
-62.7366
-61.5676
-60.7544
-60.4929
-59.8892
-59.7025
-57.7736
-57.8496
-57.9094
-58.0368
-58.2389
-58.1454
-58.2164
-58.332
-58.7046
-58.4651
-58.5986
-58.6944
-58.8546
-59.0928
-58.84
-59.0058
-59.1311
-59.1563
-59.2941
-59.8014
-59.4407
-59.5663
-59.6076
-59.6424
-59.8438
-60.0254
-60.6651
-60.2796
-60.3028
-60.1323
-60.2929
-60.3978
-60.7743
-61.312
-62.3993
-61.5833
-61.0497
-60.8147
-60.6612
-61.0288
-61.4774
-61.9456
-62.8659
-65.0804
-63.2643
-62.3481
-61.4176
-61.0233
-61.5237
-62.1597
-63.1623
-65.11
-66.0101
-67.8864
-65.0409
-63.3583
-61.8832
-61.2149
-61.4592
-62.6591
-64.2549
-66.8174
-68.0476
-67.1907
-68.7642
-65.0881
-63.3277
-62.0572
-61.4534
-61.6488
-62.8358
-64.835
-67.5063
-68.7545
-69.281
-66.6434
-66.8957
-64.0829
-62.9239
-62.1305
-61.7385
-62.1741
-62.9886
-65.5154
-67.4313
-69.0896
-69.0949
-67.9209
-64.0505
-63.9743
-63.4193
-62.8549
-62.4308
-62.2512
-62.3921
-63.0741
-65.1897
-67.3085
-68.2547
-68.2193
-66.7893
-64.3189
-62.2531
-62.5641
-63.1048
-63.0098
-62.6236
-62.7931
-63.0137
-63.5689
-64.8264
-66.2516
-68.0199
-67.4767
-66.3635
-64.3378
-62.6642
-61.7206
-63.3005
-63.0267
-63.2289
-63.23
-63.2988
-63.4784
-63.7526
-64.4828
-65.8879
-66.1101
-66.3199
-65.5728
-64.4979
-62.7871
-62.4073
-62.4866
-63.2107
-63.4067
-63.3696
-63.4612
-63.8277
-64.1515
-64.4045
-64.5398
-65.2818
-64.4206
-65.4189
-65.2133
-64.2798
-63.3659
-62.5275
-62.2054
-62.1741
-61.4132
-63.8518
-63.7557
-63.8296
-64.1842
-64.8888
-65.432
-65.4936
-65.5903
-65.6223
-65.3891
-64.371
-63.6577
-63.7242
-62.65
-61.8348
-61.2083
-60.5155
-60.1066
-64.8476
-64.4037
-64.145
-64.1525
-64.4528
-65.1962
-65.3427
-65.8625
-66.3494
-65.7653
-64.3442
-63.5338
-63.3172
-62.0079
-61.2789
-60.7216
-60.1695
-59.7953
-59.6894
-66.2882
-65.7184
-64.9882
-64.7309
-64.7015
-64.9744
-65.2405
-65.0656
-65.5898
-65.3527
-63.9996
-63.0806
-62.7045
-61.568
-60.7511
-60.483
-59.8998
-59.7151
-59.3809
-57.592
-57.667
-57.7508
-57.75
-57.9717
-57.7185
-58.0814
-58.0877
-58.2929
-58.144
-58.2456
-58.3899
-58.3824
-58.7874
-58.5275
-58.5689
-58.6773
-58.8795
-58.8749
-59.278
-58.8937
-59.0028
-59.1425
-59.2271
-59.3221
-59.5033
-59.9736
-59.5105
-59.5629
-59.585
-59.7174
-59.8106
-60.1118
-60.376
-61.2293
-60.3677
-60.3754
-60.2048
-60.1648
-60.3725
-60.7742
-61.2788
-61.8143
-62.6791
-61.7816
-61.2291
-60.9249
-60.5698
-61.0347
-61.5729
-61.954
-63.2217
-63.3392
-65.993
-63.6028
-62.5715
-61.7353
-61.0937
-61.4191
-62.0744
-63.0668
-65.0522
-66.2849
-65.4992
-66.8089
-65.4578
-63.6278
-62.1294
-61.1601
-61.3597
-62.4933
-64.449
-66.6358
-67.94
-67.541
-65.7257
-66.1833
-65.4441
-63.5672
-62.2609
-61.4359
-61.6611
-62.5672
-64.6382
-67.2949
-68.5391
-69.4226
-67.0973
-63.8404
-63.775
-64.143
-63.0986
-62.2122
-61.8261
-62.0812
-62.6911
-65.0518
-67.229
-68.8279
-69.2008
-68.304
-64.4482
-62.0382
-62.2545
-63.3985
-62.9215
-62.3829
-62.2742
-62.3089
-62.7333
-64.6964
-67.1023
-68.0473
-68.2372
-67.2522
-64.5281
-62.5329
-60.9416
-61.7249
-63.1208
-62.9956
-62.5825
-62.581
-62.8792
-63.2147
-64.6173
-65.9667
-67.7588
-67.3957
-66.6992
-64.5721
-62.888
-61.772
-62.008
-63.3521
-62.7875
-63.1382
-63.0618
-63.1477
-63.3376
-63.5392
-64.2653
-65.6079
-66.0036
-66.2232
-65.7347
-64.6226
-63.0171
-62.2557
-61.9999
-63.299
-62.5748
-63.3797
-63.2687
-63.3495
-63.6554
-63.911
-64.1513
-64.3553
-64.5928
-64.393
-65.3837
-65.2118
-64.3053
-63.2945
-62.3404
-61.729
-61.7262
-61.3577
-60.5575
-63.8162
-63.6778
-63.7271
-64.0174
-64.6346
-65.1918
-65.2366
-65.3976
-65.3388
-64.9534
-64.1747
-63.6283
-63.596
-62.503
-61.6906
-61.0971
-60.4812
-60.0294
-59.778
-64.8216
-64.3941
-64.0968
-64.0883
-64.3443
-64.9891
-65.2541
-65.686
-66.1294
-65.5182
-64.2218
-63.4233
-63.2711
-61.9575
-61.2628
-60.7294
-60.1824
-59.814
-59.3762
-59.3704
-66.3122
-65.7188
-65.0102
-64.6058
-64.6495
-64.8833
-65.1805
-64.9867
-65.4428
-65.1958
-63.9605
-63.0371
-62.6737
-61.5556
-60.7589
-60.4734
-59.9097
-59.7282
-59.3931
-59.1459
-57.3799
-57.5901
-57.6596
-57.7179
-57.8463
-57.7194
-57.8968
-57.878
-58.1553
-57.8866
-57.9318
-58.1585
-58.1571
-58.4323
-58.1378
-58.2611
-58.3868
-58.3912
-58.4876
-58.9306
-58.4628
-58.6008
-58.6872
-58.8543
-58.9929
-58.9625
-59.3781
-58.9261
-59.035
-59.1303
-59.2332
-59.3661
-59.4193
-59.6109
-60.2339
-59.5318
-59.5764
-59.6105
-59.7019
-59.864
-60.1463
-60.3312
-60.4706
-61.4547
-60.5072
-60.2818
-60.2674
-60.0922
-60.1924
-60.8198
-61.4129
-61.8992
-61.7244
-63.4389
-61.7511
-61.3966
-61.0294
-60.6254
-60.9908
-61.167
-62.1434
-63.5724
-63.3809
-63.6172
-65.1772
-63.9697
-62.8855
-61.9515
-61.0347
-61.3543
-61.8473
-63.0118
-64.9954
-66.2483
-65.7562
-63.9848
-65.401
-65.937
-64.0385
-62.3104
-61.3012
-61.3661
-62.243
-64.3044
-66.3022
-67.83
-67.8625
-66.0386
-63.0577
-63.3768
-65.6237
-63.875
-62.5081
-61.3165
-61.6446
-62.4072
-64.4597
-67.0624
-68.2103
-69.5012
-67.5589
-64.2956
-61.7907
-61.7757
-64.1219
-63.2966
-62.4134
-61.753
-62.0273
-62.4591
-64.8079
-67.081
-68.5165
-69.2571
-68.4561
-64.929
-62.2801
-60.7575
-60.8413
-63.3577
-62.9847
-62.2667
-62.1399
-62.1802
-62.6779
-64.3451
-66.8045
-67.922
-68.2558
-67.5522
-64.846
-62.7979
-61.1471
-60.6347
-62.7339
-63.2383
-62.9679
-62.5076
-62.4452
-62.7067
-63.0314
-64.4306
-65.6105
-67.5639
-67.2959
-66.932
-64.8559
-62.9702
-61.9414
-61.3674
-63.4768
-64.0359
-62.7392
-63.0276
-62.9265
-62.9208
-63.1169
-63.3234
-64.0371
-65.077
-65.8366
-66.1854
-65.8666
-64.8227
-63.1399
-62.2165
-61.5736
-62.0432
-62.932
-61.5753
-63.3684
-63.1506
-63.2648
-63.4693
-63.6558
-63.9693
-64.1026
-64.4587
-64.3667
-65.2453
-65.1514
-64.3588
-63.279
-62.2399
-61.4387
-61.3742
-60.9764
-60.3632
-60.0183
-63.7915
-63.6048
-63.6303
-63.8582
-64.3873
-64.9649
-64.97
-65.0736
-65.046
-64.7258
-64.2813
-63.606
-63.5048
-62.4011
-61.5912
-61.0086
-60.4714
-60.0213
-59.4769
-59.3524
-64.8055
-64.3868
-64.0681
-64.0404
-64.2191
-64.888
-65.1792
-65.5159
-65.91
-65.2768
-64.1012
-63.3177
-63.239
-61.9139
-61.255
-60.7292
-60.2002
-59.8357
-59.3984
-59.0675
-59.1348
-66.3485
-65.7152
-65.0332
-64.4671
-64.5768
-64.7958
-65.1118
-64.9319
-65.3871
-65.0485
-63.9222
-62.9908
-62.6396
-61.5414
-60.7794
-60.4713
-59.9213
-59.7418
-59.4048
-59.1576
-58.9088
-57.2542
-57.4077
-57.4151
-57.5504
-57.7483
-57.6387
-57.7379
-57.7555
-57.9189
-57.7687
-57.8884
-57.8511
-57.9111
-58.1295
-57.8298
-57.9845
-58.1707
-58.1957
-58.1644
-58.5137
-58.1607
-58.2897
-58.3993
-58.4443
-58.4937
-58.4595
-58.9433
-58.4546
-58.5623
-58.7729
-58.838
-58.9889
-58.9789
-59.0646
-59.5887
-58.9174
-59.0855
-59.1365
-59.2888
-59.3593
-59.4881
-59.7155
-59.7151
-60.3829
-59.5537
-59.64
-59.6157
-59.7245
-59.9453
-60.1216
-60.4018
-60.625
-60.5801
-61.7584
-60.4539
-60.3397
-60.2601
-60.1423
-60.2485
-60.7003
-61.5199
-62.0008
-61.9211
-61.6667
-63.1272
-61.9402
-61.5568
-61.0374
-60.6273
-61.0622
-61.1739
-62.1379
-63.6647
-63.3065
-63.8182
-62.2281
-63.6835
-64.1381
-63.2366
-61.9403
-60.987
-61.2298
-61.7486
-62.9903
-65.1675
-66.1567
-66.1447
-64.4899
-62.2333
-62.7001
-65.9651
-64.5203
-62.6455
-61.4242
-61.197
-62.0534
-63.934
-66.107
-67.7601
-67.8442
-66.4568
-63.512
-61.172
-61.4055
-65.6187
-64.2203
-62.7749
-61.2868
-61.5967
-62.2627
-64.1347
-66.8169
-68.1244
-69.5376
-67.9654
-64.6951
-62.1649
-60.3563
-60.6259
-64.0283
-63.5084
-62.4909
-61.652
-61.9388
-62.2845
-64.4807
-66.7843
-68.3643
-69.1008
-68.794
-65.5049
-62.5159
-60.8573
-59.4989
-61.2097
-63.3079
-63.0253
-62.3524
-62.0278
-62.0255
-62.4452
-64.1393
-66.4722
-67.7687
-68.2129
-67.7568
-65.2258
-63.0972
-61.2049
-60.6953
-61.6891
-64.7159
-63.2595
-62.961
-62.4378
-62.4551
-62.5144
-62.8177
-64.1641
-65.3541
-67.2746
-67.2007
-67.1222
-65.2143
-63.2554
-61.8565
-61.5713
-61.9018
-65.0478
-63.6815
-62.7207
-62.8846
-62.8256
-62.724
-62.9196
-63.1121
-63.7773
-65.0098
-65.7863
-66.0565
-65.9233
-65.003
-63.1751
-62.2061
-61.1631
-61.0732
-62.1793
-61.8688
-60.4234
-63.3211
-63.1024
-63.1162
-63.2919
-63.4134
-63.7691
-63.8691
-64.5358
-64.4446
-65.1279
-65.1022
-64.4127
-63.2728
-62.201
-61.2673
-61.146
-60.7391
-60.3228
-59.6306
-59.4408
-63.8547
-63.5713
-63.5303
-63.7278
-64.1426
-64.6894
-64.8392
-64.8147
-64.7485
-64.6815
-64.2542
-63.5754
-63.4021
-62.3451
-61.5221
-60.9388
-60.4481
-60.0101
-59.503
-59.0564
-59.0433
-64.8209
-64.3835
-64.0387
-63.9912
-64.095
-64.7636
-65.0402
-65.3592
-65.6989
-65.0668
-63.9947
-63.209
-63.2187
-61.8705
-61.2549
-60.7215
-60.2197
-59.8544
-59.4208
-59.0928
-58.7989
-58.8992
-66.3779
-65.7118
-65.0399
-64.3927
-64.4926
-64.6915
-65.0219
-64.853
-65.3135
-64.9346
-63.8823
-62.9439
-62.6107
-61.531
-60.7956
-60.4816
-59.9348
-59.759
-59.4172
-59.1692
-58.9179
-58.7076
-57.1347
-57.2551
-57.3538
-57.4385
-57.5562
-57.5093
-57.4923
-57.6084
-57.7242
-57.5712
-57.7791
-57.7612
-57.7279
-57.8698
-57.7336
-57.8467
-57.9064
-57.9177
-57.8643
-58.1108
-57.9075
-57.9994
-58.1483
-58.1689
-58.1778
-58.2147
-58.5401
-58.1122
-58.2735
-58.3937
-58.4707
-58.5445
-58.561
-58.6573
-59.0116
-58.5674
-58.6493
-58.7706
-58.8421
-58.9527
-58.9618
-59.0974
-59.087
-59.734
-58.8782
-59.1292
-59.1507
-59.2358
-59.375
-59.5753
-59.7219
-59.8458
-59.8996
-60.5424
-59.5326
-59.6691
-59.671
-59.7023
-59.9203
-60.1398
-60.4933
-60.6047
-60.6506
-60.4784
-61.5516
-60.5304
-60.5085
-60.328
-60.2055
-60.3558
-60.7896
-61.5308
-62.0311
-62.143
-61.9853
-61.1486
-62.0727
-61.8576
-61.7765
-61.2293
-60.7976
-60.9186
-61.4024
-62.1321
-63.6852
-63.171
-63.9265
-62.621
-61.0935
-61.9444
-63.9391
-63.7608
-62.2732
-61.2721
-61.1297
-61.7341
-62.9185
-64.8034
-66.2694
-66.4993
-64.9285
-62.5423
-60.904
-61.0321
-65.8576
-64.9816
-62.926
-61.3476
-61.0931
-61.8385
-63.6655
-65.9949
-67.4766
-67.6099
-66.8267
-64.0156
-61.3735
-59.9639
-60.1505
-65.6465
-64.4683
-63.1243
-61.5021
-61.4633
-62.0916
-63.8186
-66.5685
-68.0711
-69.3491
-68.4768
-65.1759
-62.6117
-60.608
-59.1971
-59.649
-63.9536
-63.6556
-62.6703
-61.7319
-61.8215
-62.1148
-64.175
-66.5798
-68.1842
-68.8709
-69.0708
-66.0674
-62.9554
-61.1171
-59.565
-59.3036
-62.6726
-63.2411
-63.0506
-62.4042
-61.9731
-62.0545
-62.3267
-63.9851
-66.2
-67.6346
-68.1334
-68.0334
-65.6333
-63.3357
-61.5562
-60.318
-61.1279
-65.6402
-66.5175
-63.2475
-62.9255
-62.4062
-62.3917
-62.4375
-62.6964
-63.8005
-65.2486
-67.142
-67.1308
-67.2744
-65.5457
-63.5585
-62.0335
-61.0681
-61.1639
-63.5998
-64.5663
-62.1425
-62.6056
-62.8486
-62.6569
-62.7102
-62.8824
-62.9196
-63.5597
-64.7864
-65.565
-65.9338
-65.9449
-65.2077
-63.2786
-62.219
-60.9898
-60.584
-61.4428
-61.5384
-60.4645
-59.5891
-63.3048
-63.0565
-62.9673
-63.1999
-63.1898
-63.7214
-63.692
-64.3925
-64.2918
-65.0587
-65.0612
-64.4654
-63.2343
-62.2571
-61.1964
-60.9698
-60.6081
-60.2681
-59.6673
-59.0501
-59.012
-63.9234
-63.5173
-63.4597
-63.5917
-63.9495
-64.5658
-64.6077
-64.6384
-64.4463
-64.6289
-64.0662
-63.5939
-63.3236
-62.3068
-61.4843
-60.909
-60.4173
-60.0132
-59.5352
-59.101
-58.7302
-58.7776
-64.8685
-64.3606
-64.001
-63.9446
-63.9772
-64.6254
-64.8616
-65.2159
-65.4984
-64.8983
-63.914
-63.1014
-63.1904
-61.8277
-61.2542
-60.7174
-60.2373
-59.871
-59.4451
-59.1189
-58.8217
-58.5863
-58.7007
-66.3613
-65.7052
-65.0433
-64.3654
-64.4411
-64.5562
-64.9081
-64.7613
-65.2405
-64.8713
-63.8369
-62.8989
-62.5935
-61.5271
-60.8074
-60.5011
-59.9422
-59.7864
-59.428
-59.1811
-58.9265
-58.7165
-58.5375
-57.0406
-57.0969
-57.1225
-57.269
-57.4301
-57.3949
-57.4068
-57.4833
-57.5775
-57.3987
-57.4945
-57.553
-57.5593
-57.7171
-57.6201
-57.6691
-57.7366
-57.7195
-57.6334
-57.8524
-57.6881
-57.8436
-57.8966
-57.8758
-57.898
-57.8656
-58.1977
-57.9311
-58.0332
-58.1029
-58.2179
-58.2069
-58.2425
-58.2563
-58.5631
-58.1558
-58.2729
-58.3708
-58.5341
-58.6103
-58.6026
-58.6462
-58.6483
-59.02
-58.5641
-58.7084
-58.7482
-58.8255
-58.8945
-59.0551
-59.1423
-59.147
-59.1015
-59.7149
-58.8712
-59.1485
-59.2143
-59.2682
-59.3951
-59.5848
-59.8871
-59.9245
-59.9374
-59.7578
-60.3682
-59.5124
-59.7126
-59.7252
-59.7732
-59.8352
-60.2915
-60.5725
-60.7407
-60.7996
-60.5781
-60.0953
-60.9447
-60.6216
-60.586
-60.5151
-60.2803
-60.4254
-60.8655
-61.5863
-61.996
-62.2202
-62.0963
-61.2968
-60.295
-60.8782
-62.2545
-62.1015
-61.2929
-60.7916
-60.9643
-61.3086
-62.094
-63.7223
-63.0443
-64.168
-63.1195
-61.4705
-60.0988
-60.5339
-64.0563
-64.2096
-62.4385
-61.4536
-61.1444
-61.6
-62.818
-64.5067
-66.2736
-66.6218
-65.3679
-62.9115
-61.0666
-59.664
-59.8268
-65.8609
-65.3418
-63.2562
-61.3891
-61.148
-61.5309
-63.5202
-65.8495
-67.0498
-67.5614
-67.2923
-64.4004
-61.6523
-60.1489
-59.2861
-59.2635
-65.5815
-64.634
-63.4367
-61.5526
-61.34
-61.8527
-63.5683
-66.4406
-67.8085
-69.0892
-68.9536
-65.717
-62.9786
-60.8762
-59.2926
-58.9287
-60.5042
-63.8842
-63.7325
-62.8434
-61.784
-61.7367
-61.914
-63.7154
-66.3252
-67.9855
-68.6731
-69.1058
-66.4467
-63.4442
-61.3339
-59.3573
-59.7195
-62.3229
-67.1399
-63.1603
-63.0085
-62.4423
-62.0246
-61.9189
-62.1696
-63.6927
-65.923
-67.4632
-68.0732
-68.3527
-65.9626
-63.7045
-61.9243
-60.3523
-60.7209
-63.0811
-68.301
-65.2308
-63.2249
-62.951
-62.2937
-62.2137
-62.3506
-62.5973
-63.4858
-65.1243
-66.8965
-66.9868
-67.3727
-65.7967
-63.8721
-62.1765
-60.558
-60.2673
-62.2092
-63.6948
-62.0504
-60.4763
-62.6528
-62.713
-62.6938
-62.513
-62.7129
-62.8768
-63.347
-64.5878
-65.4916
-65.8886
-65.9219
-65.3713
-63.4446
-62.3601
-61.0144
-60.4097
-60.8977
-61.1538
-60.4068
-59.3924
-58.9873
-63.2548
-62.9866
-62.8448
-63.0307
-63.0838
-63.4947
-63.4764
-64.0636
-64.1029
-65.0115
-65.055
-64.5202
-63.2718
-62.3241
-61.1444
-60.8634
-60.4095
-60.194
-59.669
-59.1064
-58.6755
-58.6953
-63.9455
-63.5011
-63.4098
-63.4576
-63.8008
-64.269
-64.31
-64.3994
-64.1613
-64.4289
-63.9086
-63.5926
-63.2586
-62.2894
-61.4605
-60.8972
-60.4135
-60.0092
-59.5531
-59.1487
-58.7658
-58.4943
-58.5684
-64.9159
-64.3292
-63.9683
-63.8765
-63.8575
-64.4831
-64.7063
-65.0447
-65.2854
-64.7836
-63.8473
-62.9902
-63.1596
-61.7974
-61.2572
-60.7249
-60.2534
-59.8907
-59.4708
-59.1438
-58.8449
-58.6061
-58.4125
-58.5296
-66.3802
-65.7053
-65.0478
-64.3569
-64.4288
-64.4211
-64.8128
-64.6761
-65.1408
-64.8231
-63.7948
-62.8576
-62.5779
-61.5223
-60.8181
-60.5223
-59.9452
-59.8053
-59.4408
-59.193
-58.9377
-58.7264
-58.5445
-58.4031
-56.9682
-57.009
-57.0704
-57.1481
-57.2177
-57.1744
-57.2078
-57.268
-57.4429
-57.3581
-57.4662
-57.4307
-57.4047
-57.544
-57.5017
-57.4965
-57.5549
-57.508
-57.4739
-57.6695
-57.5479
-57.6672
-57.7037
-57.7488
-57.6299
-57.6143
-57.8933
-57.7241
-57.8332
-57.9046
-57.8755
-57.8988
-57.9152
-57.9088
-58.1919
-57.8706
-57.9657
-58.122
-58.2339
-58.2355
-58.2645
-58.2898
-58.2827
-58.5294
-58.1593
-58.2956
-58.4125
-58.5163
-58.6382
-58.6617
-58.7364
-58.7252
-58.6089
-59.0494
-58.5379
-58.6887
-58.7789
-58.7479
-59.0328
-59.1054
-59.2489
-59.1911
-59.2545
-59.0252
-59.5552
-58.9276
-59.1012
-59.2419
-59.2999
-59.4404
-59.6651
-59.8676
-59.9001
-60.0432
-59.7882
-59.3934
-59.9607
-59.6257
-59.747
-59.7961
-59.711
-59.8478
-60.1665
-60.7038
-60.8496
-60.9836
-60.8468
-60.2152
-59.5148
-60.1339
-60.849
-60.8089
-60.5171
-60.3323
-60.3831
-60.6652
-61.8296
-62.218
-62.2628
-62.2198
-61.5679
-60.503
-59.5918
-59.8781
-62.3322
-62.2182
-61.5297
-60.9084
-60.9056
-61.1605
-62.264
-63.4993
-63.3882
-64.5815
-63.3484
-61.6974
-60.2839
-59.3684
-59.5092
-64.1266
-64.5325
-62.6552
-61.3242
-61.0207
-61.4098
-62.784
-64.5982
-66.0779
-66.6482
-65.9792
-63.2715
-61.3495
-59.88
-59.2631
-59.3055
-65.9984
-65.6235
-63.6707
-61.6377
-61.1024
-61.4061
-63.4766
-65.5317
-66.7895
-67.5682
-67.6769
-64.8286
-62.073
-60.3449
-59.2925
-59.0995
-59.2809
-65.387
-64.7769
-63.7035
-61.7756
-61.2477
-61.6696
-63.2024
-66.2245
-67.4893
-68.9591
-69.2302
-66.2349
-63.1263
-61.0994
-59.3966
-58.9377
-59.8887
-62.7845
-63.8019
-63.757
-63.0095
-61.8994
-61.694
-61.7983
-63.3609
-66.0973
-67.8592
-68.5158
-69.2233
-66.8618
-63.8134
-61.6703
-59.6117
-58.3255
-61.5842
-67.7865
-69.5687
-63.0896
-62.9505
-62.4639
-62.025
-61.9119
-61.954
-63.4081
-65.5641
-67.3745
-67.941
-68.455
-66.4103
-64.1015
-62.2385
-60.4196
-59.2017
-62.9674
-66.5371
-65.5125
-61.995
-63.1993
-62.9867
-62.2551
-62.0539
-62.2183
-62.4908
-63.2689
-64.9367
-66.6614
-66.9571
-67.4196
-66.095
-64.191
-62.3327
-60.7979
-60.1597
-61.1538
-62.5854
-61.852
-60.0421
-59.295
-62.6565
-62.534
-62.5518
-62.2464
-62.4617
-62.7589
-63.1426
-64.3383
-65.3414
-65.8077
-65.8815
-65.5308
-63.6371
-62.5052
-60.9913
-60.36
-60.5897
-60.8131
-60.3424
-59.4692
-58.7334
-58.6122
-63.1843
-62.9304
-62.6759
-62.8641
-62.9434
-62.9968
-63.2365
-63.8477
-64.1151
-64.9117
-64.9498
-64.5842
-63.3924
-62.4194
-61.1945
-60.7919
-60.3252
-60.1445
-59.6839
-59.1524
-58.7392
-58.4055
-58.4637
-64.012
-63.5224
-63.3469
-63.3322
-63.6265
-63.8951
-64.1317
-64.1846
-63.9625
-64.1892
-63.8997
-63.604
-63.2189
-62.3035
-61.4503
-60.8843
-60.4272
-60.0087
-59.5696
-59.1776
-58.8024
-58.5275
-58.3134
-58.3977
-64.9529
-64.3498
-63.962
-63.806
-63.7522
-64.3588
-64.5632
-64.8459
-65.081
-64.7394
-63.7558
-62.8977
-63.1481
-61.7704
-61.2611
-60.7252
-60.2736
-59.9067
-59.4951
-59.1686
-58.8678
-58.6269
-58.4291
-58.275
-58.3966
-66.4419
-65.7156
-65.0459
-64.3726
-64.4542
-64.3287
-64.7252
-64.5956
-65.0025
-64.7661
-63.7513
-62.8261
-62.5611
-61.5205
-60.8262
-60.5486
-59.9583
-59.8171
-59.4507
-59.2045
-58.9485
-58.7349
-58.552
-58.4096
-58.2919
-56.8814
-56.9001
-57.0293
-57.123
-57.1832
-57.1462
-57.1721
-57.218
-57.2554
-57.2085
-57.2846
-57.2619
-57.3782
-57.3094
-57.4983
-57.4549
-57.422
-57.3425
-57.4647
-57.4552
-57.507
-57.5517
-57.5163
-57.4562
-57.4456
-57.6277
-57.518
-57.6615
-57.7068
-57.7404
-57.7446
-57.6701
-57.6596
-57.9037
-57.6227
-57.7829
-57.9219
-57.9584
-57.911
-57.9421
-57.9592
-57.9036
-58.2151
-57.88
-57.9056
-58.1411
-58.2205
-58.26
-58.3642
-58.3144
-58.3527
-58.2963
-58.6601
-58.1223
-58.3143
-58.473
-58.492
-58.6151
-58.7139
-58.7827
-58.7866
-58.7144
-58.6142
-58.9569
-58.5294
-58.703
-58.7647
-58.8398
-59.0895
-59.1719
-59.3279
-59.2384