/*--------------------------------*- C++ -*----------------------------------*\
  =========                 |
  \\      /  F ield         | OpenFOAM: The Open Source CFD Toolbox
   \\    /   O peration     | Website:  https://openfoam.org
    \\  /    A nd           | Version:  7
     \\/     M anipulation  |
\*---------------------------------------------------------------------------*/
FoamFile
{
    version     2.0;
    format      ascii;
    class       surfaceScalarField;
    location    "2";
    object      phi;
}
// * * * * * * * * * * * * * * * * * * * * * * * * * * * * * * * * * * * * * //

dimensions      [0 3 -1 0 0 0 0];

internalField   nonuniform List<scalar> 
54006
(
0.00019059
0.00155193
-0.00174442
-5.6716e-05
0.000357659
0.00139628
-0.00150773
-0.000201462
0.000201148
-5.59138e-05
0.000199683
-0.00194622
-6.33643e-05
0.000209034
0.00110327
-0.00130262
-6.64077e-05
0.000644968
0.00149589
-0.00168999
-0.000389588
0.000376157
-0.000227383
0.000367978
-0.001613
-0.000201529
0.000460756
0.00116911
-0.00138426
-0.000238034
0.00020356
-6.67283e-05
0.00019309
-0.0021419
-6.42195e-05
0.000228706
-0.00152242
-7.22616e-05
0.000238787
-1.423e-05
-0.000214426
-7.65388e-05
0.000833567
0.00133994
-0.00147215
-0.000450392
0.000659423
-0.000428947
0.000689988
-0.00189869
-0.000395452
0.000715728
0.000299572
-0.000569844
-0.000374288
0.000436337
-0.000254395
0.000351768
-0.00170921
-0.000193073
0.000506653
-0.00161293
-0.000250808
0.000495353
-4.65718e-05
-0.000187523
-0.000260506
0.000237883
-7.77442e-05
0.000196826
-0.00234128
-6.53683e-05
0.000219975
-0.00173587
-7.0749e-05
0.00026395
-0.000468303
-8.23346e-05
0.000234492
-0.00125956
0.00101482
-6.62839e-05
0.000673545
0.00216238
-0.0020386
-0.000309752
0.000815074
-0.000457416
0.000928456
-0.00162939
-0.000480394
0.000614089
0.000960753
-0.000966136
-0.000343369
0.000672382
-0.00037963
0.000672745
-0.00212026
-0.000343917
0.000829851
-0.000879071
-0.000409424
0.000556864
-0.00081166
0.000683235
-0.000307373
0.000478168
-0.000266075
0.000371332
-0.00181615
-0.000188013
0.000495955
-0.00183632
-0.000245665
0.000562797
-0.000455994
-0.000281185
0.000415723
-0.00134349
0.00114172
-0.000239961
0.000225346
-6.66664e-05
0.000198428
-0.00254233
-6.6386e-05
0.000208515
-0.00193991
-6.98428e-05
0.000262687
-0.000721527
-8.02116e-05
0.000268604
0.000736469
-7.2588e-05
0.000167047
-0.00215047
0.00197615
-5.90055e-05
0.000363736
0.00301101
-0.00289852
-0.000196308
0.000724551
-0.000318255
0.000874643
-0.00201608
-0.000351836
0.000370921
0.00252816
-0.002329
-0.000265738
0.000455713
-0.000334851
0.000950358
-0.00181097
-0.000488567
0.000826222
-0.00104298
-0.000399925
0.000296467
0.00100822
-0.000881802
-0.00020939
0.000501586
-0.000305049
0.000665199
-0.00232387
-0.000305078
0.000850413
-0.00117819
-0.000399252
0.000710286
0.000465171
-0.00033885
0.000434008
-0.00128752
0.00116861
-0.000206745
0.000384551
-0.000246117
0.000405063
-0.00195765
-0.000180099
0.000475467
-0.00204599
-0.00024529
0.00057041
-0.000732575
-0.000276807
0.000498916
0.00089063
-0.000260409
0.000268181
-0.00214129
0.00203477
-0.000234573
0.000156291
-5.97209e-05
0.000193198
-0.00273914
-6.73763e-05
0.000199047
-0.00213522
-7.01269e-05
0.000258592
-0.000971942
-7.80205e-05
0.000275674
0.000452816
-7.2232e-05
0.00019633
0.00177194
-6.47048e-05
0.000106771
-0.00301754
0.0029145
-6.27346e-05
5.30777e-05
0.00385445
-0.00379247
-0.000323556
0.000460117
-0.000235806
0.000556996
-0.00277194
-0.000298652
0.000263305
0.00315043
-0.00301742
-0.0002217
0.000392321
-0.000256272
0.000886495
-0.00195213
-0.000374642
0.000662851
-0.00219662
-0.000320845
0.000106148
0.00283462
-0.00266338
-0.000246664
0.000232312
-0.000177964
0.000949037
-0.00200357
-0.000454179
0.000988957
-0.00122456
-0.000445528
0.000540036
-0.000836548
-0.000274929
0.000265311
0.00190099
-0.00179524
-0.000146444
0.000387317
-0.000216281
0.000687274
-0.00251125
-0.00026028
0.00086596
-0.00146833
-0.000405438
0.000791464
0.000183928
-0.000339064
0.000534397
0.00101275
-0.000218473
0.000281626
0.000118206
-0.000218536
-0.00011986
0.000222065
-0.000240583
0.000423509
-0.00213659
-0.000158311
0.000460411
-0.00225233
-0.00023513
0.000567933
-0.00101309
-0.000274111
0.000544367
0.000603241
-0.000258111
0.000334623
0.00189178
-0.000255714
0.000174911
-0.00259728
0.00252796
-0.000233387
9.66022e-05
-6.40181e-05
0.00018446
-0.00292803
-6.74184e-05
0.000194554
-0.00232569
-7.14535e-05
0.000253751
-0.00121906
-7.67574e-05
0.00028278
0.000163057
-7.10424e-05
0.000207303
0.00155617
-6.37726e-05
0.000131574
0.00278696
-6.87283e-05
8.14359e-05
-0.00345951
0.00337243
-5.70992e-05
-0.000225964
0.00300917
-0.00277877
0.000363463
5.28738e-05
-0.000315382
7.19081e-05
-0.00357649
-0.000419787
0.00013047
0.00442528
-0.00434085
-0.00027515
0.000404735
-0.000277975
0.000506961
-0.0026096
-0.000351439
0.000839142
-0.00321403
-0.000278334
0.000154707
0.00402827
-0.00390313
-0.000395402
4.72668e-05
-0.000257336
0.000936548
-0.00188687
-0.000441839
0.000878049
-0.00209276
-0.000367593
0.000404753
-0.00256141
-0.000287528
0.000146784
0.00358241
-0.00344045
-0.000270096
0.000220351
-9.58541e-05
0.000946959
-0.00218348
-0.000414214
0.00106135
-0.00142242
-0.000451702
0.000733843
-0.00091082
-0.000313635
0.000366602
-0.00172088
-0.000181491
0.000264662
0.00237094
-0.00233039
-0.000170031
0.000264715
-0.000126317
0.000697225
-0.00267366
-0.000222143
0.000856313
-0.00171664
-0.000407866
0.000819883
-0.000127847
-0.000345612
0.000608329
0.0008278
-0.000218076
0.00038952
-0.000351976
-0.000139931
0.000269914
0.000249579
-0.000327356
-0.000137085
0.00014288
-0.000228834
0.000416726
-0.00233369
-0.000132439
0.000455802
-0.00246431
-0.000207572
0.000565157
-0.0012948
-0.000264834
0.000589382
0.000280402
-0.000257874
0.00036676
0.00172438
-0.000250172
0.000238757
0.00241317
-0.000248113
0.00017027
-0.00310379
0.00298239
-0.000200821
8.52129e-05
-5.74428e-05
0.0001753
-0.00310736
-6.70847e-05
0.000191568
-0.00251289
-7.17897e-05
0.000246687
-0.0014608
-7.63994e-05
0.000288385
-0.000132708
-6.93771e-05
0.000220503
0.00132735
-6.27175e-05
0.00014882
0.00264226
-6.7898e-05
0.000121102
0.00324448
-6.18752e-05
5.27225e-05
-0.00440315
0.00433456
-4.12361e-05
-0.000597407
0.00317592
-0.00277608
0.00161698
-0.000385343
0.000515097
-0.000177466
-0.00265189
0.000141287
0.000215091
0.00403816
-0.00402716
0.000267845
0.000107884
-0.000251298
4.97738e-05
-0.00339064
-0.000488868
0.000633877
-0.00422754
-0.000327827
0.000190672
0.00468103
-0.00468995
-0.00030219
0.000113826
-0.000461803
0.00062095
-0.00247539
-0.000458707
0.000466945
-0.00286369
-0.00029067
0.000323493
-0.00368477
-0.000415425
0.000284992
0.00473955
-0.00463148
-0.00064168
-4.22956e-05
-0.00027683
0.000982942
-0.00189961
-0.000436752
0.0010136
-0.00206116
-0.000425695
0.000728408
-0.00262152
-0.000302049
0.000249607
-0.00330513
-0.000305847
0.000293475
0.0043916
-0.00422308
-0.000467433
0.000325422
-0.000112216
0.000937596
-0.00236039
-0.000367897
0.00112932
-0.00166631
-0.000443337
0.000860306
-0.0010669
-0.000336049
0.000510945
-0.00170492
-0.000232211
0.000393833
-0.00231853
-0.000197671
0.000359617
0.00307271
-0.00305627
-0.00027618
0.000222454
-0.000150122
0.000674767
-0.00280868
-0.000194306
0.000837847
-0.0019207
-0.000400128
0.000834484
-0.000449013
-0.000356027
0.00069555
0.000598327
-0.000222306
0.000395129
-0.00043643
-0.000161991
0.000356087
-0.000425242
-0.000159376
0.000378869
0.000148033
-0.0002862
-0.000207518
0.00019141
-0.000201178
0.000407913
-0.00254883
-0.000105179
0.00044771
-0.00267647
-0.000176427
0.000564304
-0.00157231
-0.00024767
0.000621946
-6.24318e-05
-0.000255562
0.000401086
0.00153172
-0.000245794
0.00028305
0.00227191
-0.000243143
0.000278183
0.00278957
-0.000212376
0.000258607
-0.00281426
0.00257308
-0.000165517
3.19784e-05
-4.1912e-05
0.000167666
-0.00327722
-6.73854e-05
0.000186483
-0.00269528
-7.11727e-05
0.000238979
-0.00169482
-7.67529e-05
0.000292293
-0.000433886
-6.75132e-05
0.000234949
0.0010844
-6.13795e-05
0.000161948
0.00248447
-6.68768e-05
0.000136384
0.00310163
-6.14299e-05
8.34238e-05
0.00423422
-4.49585e-05
4.0282e-05
-0.00509214
0.00504724
-3.66233e-05
-0.000726564
0.00506537
-0.00472827
0.00244359
-0.000549544
0.00188144
-0.000328649
-0.00257322
0.00167396
0.000192694
0.00403207
-0.00389815
0.00150545
2.99689e-05
0.000353307
-0.000391784
-0.00236406
0.000277995
0.000235183
-0.00371714
0.000229961
0.000290925
0.00400227
-0.00421051
0.000375826
0.000150859
-0.000359995
0.000139901
-0.00317551
-0.000615018
7.33799e-05
-0.00398179
-0.000341049
0.000257805
-0.00459612
-0.000355978
0.000248255
0.00456271
-0.00434757
-0.000480586
1.00638e-05
-0.000693308
0.000674852
-0.00233277
-0.000480305
0.000851448
-0.00278744
-0.000372806
0.000559404
-0.0033485
-0.000457937
0.000324328
-0.00444987
-0.000671749
0.000321047
0.0046817
-0.00446367
-0.000887282
0.000344574
-0.000447766
0.000993523
-0.00196752
-0.000408609
0.00116444
-0.00205642
-0.000476603
0.000704758
-0.00254215
-0.000349517
0.000302662
-0.00306781
-0.000331092
0.000346971
-0.00395306
-0.000528998
0.000617857
0.00439038
-0.00428688
-0.00082918
0.000361999
-0.000202378
0.000922549
-0.00257288
-0.000299222
0.00112776
-0.00188529
-0.000438831
0.000965554
-0.00129823
-0.000343075
0.00059981
-0.0016941
-0.000251126
0.000413025
-0.00233408
-0.00023455
0.000444897
-0.00305052
-0.000292227
0.000696338
0.00347838
-0.00359191
-0.00048011
0.000385271
-0.000228695
0.000649632
-0.00294455
-0.000133056
0.000820546
-0.00211527
-0.000372572
0.000834815
-0.000755025
-0.000364627
0.000787105
0.000307929
-0.000230788
0.00043563
-0.00050521
-0.00018807
0.00038292
-0.000497887
-0.000189215
0.000513365
-0.000452142
-0.000228615
0.000511882
0.0020202
-0.00213044
-0.000350547
0.000168902
-0.000172387
0.000394293
-0.00277663
-7.81631e-05
0.0004403
-0.00287053
-0.000164931
0.000566633
-0.00185219
-0.000224208
0.000648201
-0.000416932
-0.000249079
0.000437029
0.001312
-0.00023792
0.000313764
0.00211771
-0.000243409
0.000317642
0.00256902
-0.000203854
0.000321107
0.00230081
-0.000177798
0.00025975
-0.00118416
0.000951722
-0.000152548
2.21873e-05
-3.67227e-05
0.0001574
-0.00343692
-6.50885e-05
0.000174336
-0.00286519
-7.18205e-05
0.000227776
-0.00191705
-7.67177e-05
0.000292294
-0.000736775
-6.61577e-05
0.000248013
0.00082951
-6.06356e-05
0.000176643
0.00231262
-6.61694e-05
0.000146907
0.00294893
-6.10918e-05
0.00011447
0.00410417
-4.58547e-05
6.72101e-05
0.00497635
-4.12709e-05
0.00011816
-0.00372614
0.00362134
-4.99902e-05
-0.000458544
0.00543367
-0.00546439
0.00312403
-0.000404271
0.00257023
-0.000526148
-0.00426501
0.00266934
-2.00439e-05
0.00499222
-0.00482868
0.00249279
-0.000219006
0.00161749
-0.000543352
-0.00249002
0.00153315
-2.86627e-05
-0.00346431
0.00150397
0.000333348
0.0043801
-0.00441129
0.00149422
0.00023173
0.00027381
-0.000210404
-0.00219095
8.29053e-05
-2.39448e-05
-0.00362532
0.000283497
0.000322369
-0.00428282
0.000237704
0.000304748
0.0046959
-0.00460014
0.000223572
0.000235242
-0.000605742
0.000190274
-0.0028856
-0.000756153
0.000419201
-0.00371981
-0.000444757
0.000208791
-0.00423922
-0.000347332
0.000417284
-0.00421322
-0.000583282
0.000547081
0.00395573
-0.00377084
-0.000891507
0.000390303
-0.0008623
0.000695264
-0.00218686
-0.000538134
0.000981616
-0.00265168
-0.000433243
0.000649367
-0.00331138
-0.000354535
0.000246144
-0.00416171
-0.000689586
0.000271403
-0.00408835
-0.000971509
0.00107966
0.00320209
-0.00340769
-0.00114349
0.00072763
-0.000705266
0.00101652
-0.00208849
-0.00038537
0.00127835
-0.00211506
-0.000500561
0.000958245
-0.00258889
-0.00042256
0.000634657
-0.00304262
-0.00040955
0.000596507
-0.00393103
-0.000536603
0.000609065
-0.0040363
-0.000943748
0.00100984
0.00301129
-0.0030778
-0.00107617
0.000832467
-0.000411526
0.000888585
-0.00276881
-0.000271265
0.00113188
-0.00205401
-0.000441839
0.00102877
-0.00156265
-0.000368368
0.000739953
-0.00172959
-0.000260442
0.000498455
-0.00237459
-0.00027344
0.000657964
-0.00326924
-0.000290879
0.000839066
-0.00368404
-0.000525798
0.000750646
0.00392088
-0.00393224
-0.000707516
0.00049867
-0.000354561
0.000634294
-0.00303962
-8.38076e-05
0.000805182
-0.00225333
-0.000359882
0.000841282
-0.00103875
-0.000363497
0.000862675
-3.36438e-05
-0.000237529
0.000506822
-0.000586962
-0.00021883
0.00044094
-0.000593262
-0.000219872
0.000590572
-0.000686021
-0.000228265
0.000604345
-0.00225975
-0.000382543
0.000474809
0.00343342
-0.00352491
-0.000474124
0.000241379
-0.000149315
0.000377663
-0.00300858
-5.06395e-05
0.000426727
-0.00305279
-0.000148295
0.000533888
-0.00210986
-0.000213374
0.000660187
-0.000772488
-0.000236546
0.000477029
0.00106285
-0.000228948
0.000351784
0.00193774
-0.00023309
0.000355531
0.00231814
-0.000201151
0.000401877
0.00197546
-0.000165905
0.000327718
0.000686389
-0.000172973
0.000401845
-0.000885295
0.000635591
-0.00018653
9.57712e-05
-4.90243e-05
0.000142157
-0.00358095
-6.30648e-05
0.000163439
-0.003022
-7.17113e-05
0.000215413
-0.00212852
-7.57653e-05
0.000289755
-0.00103654
-6.67037e-05
0.000258437
0.00056436
-5.94441e-05
0.000188641
0.00212845
-6.51052e-05
0.000166716
0.0027774
-6.13536e-05
0.000138863
0.00395053
-4.63086e-05
0.000102183
0.00486996
-4.16547e-05
0.000160437
0.00347596
-5.63281e-05
0.000160692
-0.00241847
0.00226465
-5.6867e-05
-0.000149762
0.00565869
-0.00569634
0.00336416
-0.000411139
0.00319944
-0.000472481
-0.00529922
0.00345091
-8.76693e-05
0.00564412
-0.00551743
0.00306496
-0.000412951
0.0025764
-0.000437011
-0.00410276
0.00264078
-0.0003298
-0.00452928
0.00267107
0.000241829
0.00521669
-0.00509822
0.00246584
0.000288479
0.0014775
-0.00047212
-0.00224688
0.00140592
-0.000240529
-0.00322863
0.00151406
0.000235539
-0.00428032
0.00145984
0.000520974
0.00424351
-0.00435681
0.0013913
0.000428251
0.000100147
-0.000139332
-0.00198608
-7.43801e-05
0.000158463
-0.00342226
0.000140586
0.000209237
-0.0042498
0.000250031
0.000513041
-0.00457367
0.000115477
0.000606837
0.00445891
-0.00422123
-7.38698e-05
0.000626749
-0.000952163
0.000263244
-0.00272977
-0.000749599
0.00058771
-0.00355507
-0.000526985
0.000525066
-0.00417262
-0.000387055
0.000390584
-0.00430271
-0.000402289
0.000541162
-0.00360267
-0.00102121
0.00134612
0.00302103
-0.00297492
-0.00120408
0.00103745
-0.00115158
0.000775313
-0.00209146
-0.000567302
0.000987659
-0.00245132
-0.0004478
0.000718045
-0.00310518
-0.000399246
0.000651966
-0.00401437
-0.00051918
0.000811372
-0.00404598
-0.000946813
0.00088824
-0.00342594
-0.00123244
0.00108185
0.00257621
-0.00245805
-0.00133366
0.00112286
-0.00101964
0.00100798
-0.00224386
-0.000349107
0.00129089
-0.00214546
-0.000513976
0.00103122
-0.00256216
-0.000529741
0.000687956
-0.00294181
-0.000471371
0.000513954
-0.00379497
-0.00056111
0.000909239
-0.00391847
-0.000905705
0.00109412
-0.00311162
-0.00116499
0.000792022
0.00238253
-0.00230253
-0.00119755
0.00078493
-0.000685207
0.000898142
-0.00298885
-0.000209293
0.001135
-0.00223959
-0.000415509
0.00106707
-0.00181915
-0.000411128
0.000768443
-0.00169458
-0.000309142
0.000414452
-0.00230477
-0.000237897
0.000445472
-0.0031997
-0.000347511
0.000884888
-0.00378868
-0.000480556
0.000871864
-0.00389669
-0.000828874
0.000321584
0.00309144
-0.00284805
-0.000797688
0.00050649
-0.000457722
0.00059799
-0.0031415
-4.79636e-05
0.000782127
-0.00233426
-0.000358279
0.000844357
-0.00132284
-0.000386264
0.000944417
-0.000419219
-0.000262151
0.000542569
-0.000641171
-0.00024886
0.000502018
-0.000717638
-0.000244689
0.000623468
-0.00100381
-0.000170018
0.000715943
-0.0024361
-0.000365981
0.000487227
-0.00354324
-0.000523718
0.000443362
0.00242839
-0.00240264
-0.000541394
0.00037226
-0.000177312
0.000357303
-0.00323927
-7.93692e-06
0.000405882
-0.00321149
-0.000134386
0.000496243
-0.00233719
-0.000201795
0.000664402
-0.00114345
-0.00021706
0.000527492
0.000779743
-0.000222493
0.000385042
0.00173745
-0.000225058
0.000420447
0.00202608
-0.000194761
0.000495181
0.00157889
-0.000160899
0.000390415
0.000411907
-0.000179654
0.000468966
0.000372562
-0.000218473
0.000418912
-0.000471628
0.000229248
-0.000202369
0.00015891
-5.58107e-05
0.000128192
-0.00371073
-6.21244e-05
0.000150098
-0.00316295
-7.22137e-05
0.000200698
-0.00232581
-7.51138e-05
0.000286433
-0.00133147
-6.72757e-05
0.000261806
0.00029542
-5.95695e-05
0.000198236
0.00193513
-6.43661e-05
0.00018086
0.00259236
-6.09251e-05
0.000162723
0.00377214
-4.56909e-05
0.000131211
0.00473432
-4.18748e-05
0.000178854
0.00331279
-5.73312e-05
0.000180481
0.0020907
-6.28548e-05
0.000114206
-0.00253294
0.0024155
-5.36276e-05
6.06493e-05
0.00552135
-0.00563979
0.00369591
-0.000141968
0.00337359
-0.000180709
-0.00568467
0.00374932
-7.42441e-05
0.00571186
-0.00566572
0.00330459
-0.000272229
0.00307333
-0.000335995
-0.00516927
0.00344848
-0.000247459
-0.00552417
0.00337531
0.000229023
0.00558727
-0.00553412
0.00302462
0.000189924
0.00250224
-0.000517972
-0.00371455
0.00254817
-0.000230838
-0.00454296
0.00264477
6.70108e-05
-0.00488356
0.00262494
0.000425431
0.00502583
-0.00499129
0.00252684
0.000559861
0.00135567
-0.00029712
-0.00212662
0.00123018
-0.000157907
-0.0029137
0.00140736
8.41195e-05
-0.00412648
0.00148533
0.000538782
-0.00434485
0.00142214
0.000707581
0.0046964
-0.00461246
0.00120662
0.000658379
-5.23665e-05
6.42436e-07
-0.00189423
-0.000170354
0.000173361
-0.00315337
7.10732e-05
0.000271553
-0.00417931
0.000323611
0.000425703
-0.0044862
0.000127448
0.000656286
-0.00422771
6.83716e-06
0.00112792
0.00358199
-0.00337789
-5.9771e-05
0.00118538
-0.00125186
0.000445991
-0.00259352
-0.000867166
0.000476749
-0.00329753
-0.000496231
0.000334334
-0.0039404
-0.000375502
0.000322302
-0.00394795
-0.000412145
0.000935643
-0.00334817
-0.00078106
0.00114227
-0.00298325
-0.0012669
0.00101949
0.00252049
-0.00244735
-0.00121488
0.0011512
-0.00142759
0.000791862
-0.00203582
-0.000574158
0.00108376
-0.00234395
-0.000467548
0.000932026
-0.00304893
-0.000404852
0.000556199
-0.00374328
-0.000538575
0.000489317
-0.00371261
-0.000827912
0.000943353
-0.00326773
-0.00113913
0.00128063
-0.00247046
-0.00140654
0.000626577
0.00102322
-0.000926423
-0.00126501
0.000679403
-0.00122441
0.00100947
-0.00243316
-0.000304713
0.00134328
-0.00220722
-0.000495619
0.00113507
-0.0026163
-0.000527835
0.000821383
-0.00301191
-0.000512584
0.000273337
-0.00351983
-0.000605398
0.000611465
-0.00376776
-0.000877813
0.00104208
-0.0030165
-0.00115802
0.000966871
-0.00225336
-0.00130917
-6.94521e-05
0.000748494
-0.000321805
-0.0012332
0.000400426
-0.000784224
0.000837769
-0.00319851
-0.000183152
0.00114196
-0.00239795
-0.000410765
0.00109378
-0.00207015
-0.000413934
0.000954387
-0.00177549
-0.000340189
0.000603137
-0.0024023
-0.000272174
0.00059508
-0.00320475
-0.000325906
0.000840681
-0.00384814
-0.000505263
0.000977981
-0.00382217
-0.00081711
0.00025913
-0.00253044
-0.000918378
0.000407099
0.00216354
-0.00203369
-0.000891268
0.00047591
-0.000519691
0.000565253
-0.0032935
-5.46262e-05
0.000756927
-0.00239205
-0.000341215
0.000791923
-0.00158251
-0.000394287
0.000963084
-0.000815253
-0.000288911
0.000600902
-0.000705047
-0.000271685
0.00051589
-0.000839585
-0.000257761
0.000673226
-0.00137005
-0.00013123
0.000798878
-0.00261896
-0.000290852
0.000476253
-0.00345676
-0.000538296
0.000452536
-0.00229351
-0.000616415
0.000400678
0.000886698
-0.000935775
-0.000474084
0.000463011
-0.000199043
0.000338307
-0.0034726
5.42775e-06
0.000377983
-0.00333441
-0.0001129
0.000470249
-0.00254901
-0.000192111
0.000666669
-0.00152394
-0.000201537
0.000570304
0.000468624
-0.000214439
0.000409103
0.00152684
-0.000222754
0.000464573
0.00171144
-0.000194131
0.000544365
0.00115989
-0.000157402
0.00040405
0.000166244
-0.000188076
0.000463289
0.000143333
-0.000234861
0.000419145
6.19226e-06
-0.000234082
0.000318125
-0.000811981
0.000610286
-0.000204593
0.000112009
-5.3186e-05
0.000114761
-0.00382696
-6.15784e-05
0.000136577
-0.00328974
-7.19117e-05
0.000184249
-0.00250713
-7.5147e-05
0.000284195
-0.00162304
-6.77349e-05
0.000262447
2.6535e-05
-6.08383e-05
0.000207449
0.00173213
-6.40128e-05
0.000189418
0.00239921
-6.0632e-05
0.000180412
0.00357668
-4.58723e-05
0.000152543
0.00457819
-4.21029e-05
0.000191461
0.00313728
-5.7831e-05
0.000186167
0.00191171
-6.45079e-05
0.000125406
0.00228576
-5.8528e-05
6.46823e-05
-0.00258026
0.00252304
-6.10954e-05
0.00016725
0.0055054
-0.00554392
0.00398743
-6.68427e-06
0.00369897
1.38245e-05
-0.00568683
0.0040755
5.62619e-05
0.00558278
-0.00565788
0.0036405
-0.000206621
0.00331164
-5.49929e-05
-0.00566343
0.0038432
-0.000137331
-0.00567091
0.00364438
0.000254988
0.00585453
-0.00587716
0.00330126
0.000220511
0.00301594
-0.00040596
-0.00509943
0.00347548
-0.00014489
-0.00551483
0.00335319
0.000140137
-0.00556277
0.00333082
0.000257371
0.00603167
-0.00594313
0.00310414
0.0003632
0.00262893
-0.000168347
-0.00354299
0.00255749
-0.000438265
-0.00429083
0.0025764
-3.45179e-05
-0.00470648
0.00258633
0.000526611
-0.00510886
0.00275469
0.000691058
0.00494438
-0.00497252
0.00257151
0.000717906
0.00122605
-0.000190057
-0.00206299
0.00103881
-0.000165768
-0.00261725
0.00127286
4.47875e-05
-0.00399587
0.00150353
0.000424362
-0.00427443
0.00141624
0.000760333
-0.00465922
0.00136485
0.00106088
0.00476665
-0.00457228
0.00107929
0.0010774
-0.000144204
0.000189296
-0.00167648
-0.000464717
0.000201447
-0.00287222
-0.000176196
0.000189222
-0.00413691
0.000173787
0.00026238
-0.00440014
0.000297469
0.000698234
-0.00393308
7.0226e-05
0.00112404
-0.00335899
6.16626e-06
0.00103492
0.00314583
-0.00314689
-7.41397e-05
0.00130354
-0.00127273
0.000482059
-0.00244959
-0.00093728
0.000645888
-0.00304536
-0.000681461
0.000614734
-0.00366703
-0.000452303
0.000453074
-0.00381959
-0.000400744
0.000576523
-0.00320569
-0.000641832
0.00127403
-0.00294379
-0.0011512
0.00127775
-0.00244
-0.00127136
0.000473502
0.00179123
-0.00171741
-0.00113563
0.000480037
-0.00131765
0.00083737
-0.00199864
-0.00063069
0.00116252
-0.00225354
-0.000483807
0.00110519
-0.00307511
-0.000411491
0.000833469
-0.00361466
-0.000545561
0.000466045
-0.00360852
-0.000835381
0.000911737
-0.003304
-0.00109192
0.0011797
-0.0024136
-0.00133361
0.000728743
-0.000742946
-0.00135189
-0.000323486
0.00108296
-0.000760149
-0.00133379
-3.48442e-05
-0.00126783
0.00100233
-0.00267556
-0.000384233
0.00137155
-0.00227463
-0.000466899
0.00114721
-0.00262528
-0.000540059
0.00081524
-0.00290373
-0.000496868
0.000525047
-0.00341423
-0.000540098
0.000684118
-0.00358474
-0.00087746
0.000970342
-0.00279403
-0.00122995
0.000920936
-0.00205502
-0.00129931
-0.000143479
0.000125941
-0.00135431
0.000171487
0.00123011
-0.00114308
-0.00108462
0.000469983
-0.000895417
0.000825334
-0.00343886
-0.000126357
0.00114122
-0.00260147
-0.000363926
0.00107776
-0.00231512
-0.000451639
0.00102822
-0.00191762
-0.000336934
0.000590929
-0.00239215
-0.000340367
0.000561076
-0.00314534
-0.000376767
0.000800676
-0.00375099
-0.000550508
0.000861861
-0.00352965
-0.000860766
9.43498e-05
-0.00204266
-0.000922989
0.000470953
-0.00193151
-0.00103898
-0.00013121
0.00257182
-0.00210078
-0.000830419
0.000482032
-0.000446269
0.000563944
-0.00348813
-9.31024e-05
0.000731065
-0.00248147
-0.000318294
0.000788296
-0.00183353
-0.00040824
0.000963129
-0.00122121
-0.00028479
0.000715
-0.000848888
-0.000289766
0.000537269
-0.000980885
-0.000258551
0.000702231
-0.0017122
-0.000153268
0.000862935
-0.00283079
-0.00023797
0.000389574
-0.00318925
-0.000543886
0.000447724
-0.00215236
-0.000663883
0.000274476
-0.000850713
-0.000556808
0.000314023
0.0012105
-0.00124501
-0.000435468
0.00035674
-0.000198651
0.000318316
-0.00369954
7.92658e-07
0.000358362
-0.00344553
-0.000105232
0.000456832
-0.00275749
-0.000177006
0.000646451
-0.00188799
-0.000190323
0.000594361
0.000141871
-0.000206698
0.000428106
0.0013096
-0.000217855
0.000496694
0.00137342
-0.000192014
0.00055042
0.000753363
-0.000157614
0.000430651
-7.7277e-05
-0.000191989
0.000449128
-4.76812e-05
-0.000254728
0.000347837
-0.000145573
-0.000244765
0.000294563
0.000445998
-0.000238951
0.000225888
-0.00145251
0.00134481
-0.000258099
5.9357e-05
-6.1044e-05
0.000100461
-0.00392996
-5.94472e-05
0.000127237
-0.0034082
-7.03603e-05
0.000166409
-0.00267216
-7.32892e-05
0.000280047
-0.00191194
-6.62901e-05
0.000265095
-0.000244133
-6.21618e-05
0.000215929
0.00151944
-6.40791e-05
0.000198091
0.00219755
-6.04468e-05
0.000195986
0.00336608
-4.60181e-05
0.000166786
0.00440775
-4.2223e-05
0.000201438
0.00295178
-5.80431e-05
0.000189064
0.00172983
-6.50138e-05
0.000128
0.00215199
-5.87324e-05
8.02112e-05
0.00245224
-6.79395e-05
2.35276e-05
-0.00266946
0.00265451
-6.96727e-05
0.000209168
0.00510403
-0.00512785
0.0044244
2.60773e-05
0.00400187
0.00026239
-0.00565909
0.00438314
1.74753e-05
0.00563319
-0.00556454
0.00395756
-4.89129e-05
0.00364706
-3.87847e-05
-0.00563253
0.00419103
-5.01353e-05
-0.00567865
0.00400908
0.00038334
0.00569537
-0.00585814
0.00367492
0.000210328
0.00333578
-0.000241996
-0.00562341
0.00391877
-0.000268606
-0.00543489
0.0037309
0.000137545
-0.00585119
0.00362101
0.000278987
0.00569344
-0.00582506
0.00341126
0.000159102
0.00308626
0.000141411
-0.00524775
0.00347922
-0.000539823
-0.00531507
0.00337728
3.29254e-05
-0.00554634
0.00326932
0.000407458
-0.00589452
0.00340137
0.00060521
0.00587795
-0.00596035
0.00327238
0.000778426
0.00265479
-0.00024451
-0.00331766
0.00249675
-0.000439278
-0.00402092
0.00256109
-0.000191918
-0.00441069
0.00251732
0.000283375
-0.0050694
0.00268785
0.000799142
-0.00511775
0.00286111
0.00089197
0.00537031
-0.00528177
0.00265188
0.00104628
0.00109531
-0.000136231
-0.00183537
0.000732794
-6.70886e-05
-0.00242969
0.00111979
-0.000113797
-0.00367501
0.00125501
0.000560219
-0.00452722
0.00145848
0.000650438
-0.00457775
0.00138257
0.000923343
-0.00427936
0.00127263
0.00109155
0.00357767
-0.00337124
0.000816224
0.0011794
-0.00014414
0.000189837
-0.00147081
-0.000512609
0.000273733
-0.00258227
-0.000382511
0.000306225
-0.00400973
5.13686e-06
0.000423017
-0.00429617
9.98783e-05
0.000530947
-0.00375891
0.000168872
0.00115807
-0.00328741
0.000114598
0.00115283
-0.00302754
1.17337e-05
0.000707521
0.00341139
-0.00332963
-0.000389918
0.000432227
-0.00117974
0.000564069
-0.00231508
-0.00100267
0.000715199
-0.00288704
-0.000648283
0.00078646
-0.00350049
-0.000529272
0.000744243
-0.00377009
-0.000412576
0.000607527
-0.00317086
-0.000577061
0.00112912
-0.00281788
-0.000985126
0.00119693
-0.00242076
-0.00118768
0.000529532
-0.00159275
-0.00119681
-0.000336537
0.00138838
-0.00155032
-0.000960637
-0.00032141
-0.00132721
0.000941992
-0.00208937
-0.00061075
0.00121958
-0.00216335
-0.000568907
0.000967657
-0.00298473
-0.000394639
0.000714934
-0.0035018
-0.000424049
0.000657683
-0.00338581
-0.000900908
0.000805047
-0.00313038
-0.00112993
0.00117822
-0.00235801
-0.00135539
0.000752344
-0.000647678
-0.00126028
-0.000301576
-0.000481823
-0.00147212
-0.000328726
0.000976274
-0.000695227
-0.00111462
0.000159982
-0.00109827
0.00105183
-0.00294145
-0.000385115
0.00138779
-0.00243491
-0.000470521
0.00118914
-0.00270082
-0.000502736
0.00101447
-0.00294944
-0.000480603
0.000598903
-0.00319225
-0.000726815
0.000513508
-0.00327024
-0.000807033
0.000835497
-0.00250741
-0.0011989
0.000715415
-0.00180879
-0.00132974
-0.000265924
0.000522618
-0.00133571
0.000483906
-0.00130439
-0.00120594
-0.000674633
0.00185508
-0.00136182
-0.00103445
-2.00089e-05
-0.000844335
0.00083431
-0.0036885
-5.04949e-05
0.00113359
-0.00280446
-0.000325883
0.00111217
-0.0025913
-0.000411623
0.00105274
-0.00211357
-0.000345303
0.000750792
-0.0024349
-0.000329978
0.000453595
-0.00295942
-0.000442612
0.000836129
-0.00362031
-0.000641347
0.000826651
-0.00318228
-0.000861595
-5.13866e-05
-0.00150588
-0.000956587
0.000457446
-0.00187419
-0.000990026
-0.000371071
-0.00154686
-0.000947353
2.49927e-06
0.00273986
-0.00251173
-0.000747024
0.000410788
-0.000409482
0.000565067
-0.00369669
-0.00011491
0.000705177
-0.00264269
-0.000278693
0.000776475
-0.00209765
-0.000373814
0.000929364
-0.00161519
-0.000297175
0.000800894
-0.00104524
-0.00029497
0.000529865
-0.00109774
-0.000274672
0.000713454
-0.00194861
-0.000238904
0.000762662
-0.0029208
-0.000275503
0.000444839
-0.00289873
-0.000542685
0.000430041
-0.00199632
-0.000680839
0.000151608
-0.00071598
-0.000602386
0.000131846
-0.00113207
-0.000507032
0.00036837
-3.94794e-05
-6.46597e-05
-0.000473811
0.000252926
-0.00024824
0.000291087
-0.00390287
-8.99609e-06
0.000336934
-0.00355892
-9.55206e-05
0.000430343
-0.00295751
-0.000169143
0.000636685
-0.00223516
-0.000186474
0.00060592
-0.00019155
-0.000197727
0.000451113
0.00107583
-0.000208105
0.000492705
0.00104786
-0.000186909
0.000506465
0.000412694
-0.000161824
0.000413579
-0.00028876
-0.000192924
0.000430387
-0.000198056
-0.000270563
0.00028101
-0.000231368
-0.000260879
0.000260185
0.000319304
-0.000250255
0.000226409
0.00125185
-0.000292192
0.000179922
-0.0019087
0.00175653
-0.000262325
1.85242e-05
-6.91025e-05
8.81825e-05
-0.00402027
-5.80295e-05
0.000120803
-0.00351999
-6.84546e-05
0.000152161
-0.0028232
-7.14843e-05
0.000273254
-0.00219421
-6.42735e-05
0.00026694
-0.000516165
-6.11984e-05
0.000224608
0.00129659
-6.3922e-05
0.00020931
0.00198474
-6.05799e-05
0.000208235
0.00314341
-4.60172e-05
0.000175226
0.00422866
-4.21557e-05
0.000211518
0.00275624
-5.82016e-05
0.000190358
0.00154683
-6.54018e-05
0.000128185
0.00201837
-5.95856e-05
8.76698e-05
0.00237458
-6.87382e-05
3.23024e-05
0.00263201
-7.77471e-05
-1.6655e-05
-0.00156077
0.00156978
-6.2026e-05
0.000104262
0.00477056
-0.00476666
0.00477634
-1.81883e-05
0.00436418
0.00028926
-0.00516728
0.00491348
5.95086e-05
0.00517346
-0.00517667
0.00438557
6.52879e-05
0.00395208
1.12755e-05
-0.00557405
0.00444126
-0.000115316
-0.00552782
0.0044116
0.000246577
0.00555363
-0.00550607
0.00404677
0.000312283
0.00368552
-6.43538e-05
-0.00571804
0.00427023
-0.000314441
-0.00553338
0.00409159
2.85177e-05
-0.00581326
0.00407323
0.000321935
0.00559015
-0.00571417
0.003756
-2.58488e-05
0.00344803
0.000213573
-0.00549592
0.00401347
-0.000179292
-0.0056252
0.00374855
0.000102176
-0.00583097
0.00364142
0.000155384
-0.00570635
0.00375438
0.000583413
0.00607593
-0.00612487
0.003482
0.000856427
0.00326871
9.10522e-05
-0.00544191
0.00345298