/*--------------------------------*- C++ -*----------------------------------*\
  =========                 |
  \\      /  F ield         | OpenFOAM: The Open Source CFD Toolbox
   \\    /   O peration     | Website:  https://openfoam.org
    \\  /    A nd           | Version:  7
     \\/     M anipulation  |
\*---------------------------------------------------------------------------*/
FoamFile
{
    version     2.0;
    format      ascii;
    class       surfaceScalarField;
    location    "2";
    object      phi_0;
}
// * * * * * * * * * * * * * * * * * * * * * * * * * * * * * * * * * * * * * //

dimensions      [0 3 -1 0 0 0 0];

internalField   nonuniform List<scalar> 
54006
(
0.00019169
0.0015323
-0.00172584
-5.63271e-05
0.000358176
0.00139088
-0.00150144
-0.000202614
0.000201776
-5.57647e-05
0.000200182
-0.00192792
-6.29255e-05
0.000208834
0.00110257
-0.00130156
-6.61699e-05
0.000645122
0.00148656
-0.00167997
-0.000390919
0.000376317
-0.00022863
0.000368566
-0.00160693
-0.00020182
0.000459799
0.0011557
-0.00137075
-0.000238529
0.000203106
-6.64219e-05
0.00019269
-0.00212302
-6.35731e-05
0.000229108
-0.00152155
-7.20511e-05
0.00023884
-1.64308e-05
-0.000212017
-7.65619e-05
0.000833215
0.00133268
-0.0014654
-0.000450339
0.000658832
-0.000430268
0.000690525
-0.00188976
-0.000397221
0.000713016
0.000290646
-0.000560275
-0.000374507
0.000435113
-0.000254798
0.000350916
-0.00170283
-0.000192434
0.00050677
-0.00159949
-0.000250744
0.000494231
-5.84263e-05
-0.000175145
-0.000260349
0.000237771
-7.77829e-05
0.000195875
-0.00232141
-6.45275e-05
0.00022086
-0.00173545
-7.05302e-05
0.000264102
-0.000465814
-8.23577e-05
0.000234778
-0.001262
0.00101716
-6.65021e-05
0.0006705
0.00216721
-0.00204112
-0.000308962
0.000814222
-0.000456934
0.000926693
-0.00162098
-0.00048005
0.000608627
0.000959648
-0.000962597
-0.000343001
0.000669797
-0.000379882
0.0006732
-0.00211248
-0.000346107
0.000827661
-0.000868475
-0.000409911
0.000553731
-0.00081995
0.000692961
-0.000307018
0.000476905
-0.000265937
0.000369045
-0.0018084
-0.000187623
0.000496798
-0.00182278
-0.00024508
0.000561676
-0.000442377
-0.000281085
0.000415046
-0.00135222
0.00115142
-0.000239815
0.000225521
-6.69337e-05
0.000198416
-0.00252209
-6.56082e-05
0.000209506
-0.00194
-6.94852e-05
0.000262886
-0.000719012
-8.02173e-05
0.000268806
0.000738808
-7.2813e-05
0.000166709
-0.00215972
0.00198543
-5.89204e-05
0.000360745
0.0030158
-0.00290378
-0.000194701
0.000725591
-0.000315587
0.000871581
-0.00201806
-0.000350386
0.000367339
0.0025333
-0.00233568
-0.000265296
0.00045273
-0.000334809
0.000949428
-0.00180163
-0.00048871
0.000819205
-0.00103564
-0.000398547
0.000293109
0.00101285
-0.000886669
-0.000208561
0.000499004
-0.000304639
0.000664223
-0.00231862
-0.000306241
0.000849154
-0.0011673
-0.000399638
0.000705828
0.000477465
-0.000338568
0.000432894
-0.00129466
0.00117626
-0.000206463
0.000383708
-0.000245921
0.000402582
-0.00194634
-0.000180727
0.000476348
-0.00203191
-0.000245337
0.000569595
-0.000717407
-0.000276759
0.000498146
0.000901303
-0.000260308
0.000267709
-0.00214635
0.00203987
-0.000234336
0.000156186
-5.99186e-05
0.000194303
-0.00271953
-6.66901e-05
0.000199422
-0.00213523
-6.9798e-05
0.000258896
-0.000969441
-7.79521e-05
0.000275932
0.000455122
-7.24636e-05
0.000195997
0.00178126
-6.46417e-05
0.000106535
-0.00302789
0.00292515
-6.271e-05
5.28595e-05
0.00386054
-0.00380044
-0.000322649
0.000460668
-0.000234449
0.000554395
-0.00277844
-0.000296825
0.000264405
0.00315241
-0.00302249
-0.000221681
0.000391467
-0.000254454
0.000883222
-0.00195425
-0.000370932
0.000655104
-0.00220248
-0.000319485
0.000102593
0.00284097
-0.00266893
-0.000246821
0.000230711
-0.000177685
0.000948033
-0.00199379
-0.000456158
0.000983897
-0.00121426
-0.000444836
0.000532245
-0.000837645
-0.000273987
0.000261296
0.00190494
-0.00179698
-0.000144918
0.000386086
-0.000216017
0.000684637
-0.00250753
-0.000262214
0.000866192
-0.00145816
-0.000405228
0.000788509
0.000197823
-0.00033891
0.000533047
0.0010209
-0.000218112
0.000281221
0.000114151
-0.000214378
-0.000119749
0.000221443
-0.00024027
0.000423828
-0.0021226
-0.000159972
0.000460704
-0.00223708
-0.00023684
0.000567052
-0.000996668
-0.000274232
0.000543765
0.000614772
-0.000258062
0.000334019
0.00189689
-0.000255343
0.000173764
-0.00259923
0.00253121
-0.000233545
9.47855e-05
-6.42692e-05
0.000185702
-0.00290927
-6.7075e-05
0.000194236
-0.00232513
-7.10242e-05
0.000253978
-0.00121663
-7.65895e-05
0.000283101
0.000165341
-7.12722e-05
0.000207515
0.0015649
-6.36199e-05
0.000131466
0.00279778
-6.87419e-05
8.05971e-05
-0.00345733
0.00337088
-5.68607e-05
-0.000229573
0.0030243
-0.00278669
0.000371332
5.03526e-05
-0.000314776
6.99192e-05
-0.00358432
-0.000416073
0.00013433
0.00442927
-0.00434759
-0.000274254
0.000404443
-0.00027654
0.000504437
-0.00261769
-0.000349237
0.000832093
-0.00321979
-0.000276517
0.000156244
0.00403281
-0.00391054
-0.000397604
4.54117e-05
-0.000257715
0.000932142
-0.00188631
-0.000439937
0.000871527
-0.00209685
-0.000364189
0.000389928
-0.00255918
-0.000286923
0.000137281
0.00359041
-0.00344348
-0.000269731
0.000219581
-9.43909e-05
0.000945846
-0.0021752
-0.000416342
0.00105769
-0.00141018
-0.000451741
0.000729002
-0.000909734
-0.00031324
0.000364782
-0.00172249
-0.00018021
0.000264341
0.00237178
-0.00233086
-0.000168956
0.000264245
-0.000126403
0.000696999
-0.00267244
-0.000222285
0.00085762
-0.00170949
-0.000407793
0.000817908
-0.000112769
-0.000345493
0.000606583
0.000836788
-0.000217612
0.000388419
-0.000347491
-0.000139398
0.00026826
0.000251397
-0.000328471
-0.000137171
0.000141485
-0.000228984
0.000417959
-0.00231758
-0.000133824
0.000455924
-0.00244889
-0.000209854
0.000563818
-0.0012779
-0.000265448
0.000588701
0.000292812
-0.000257871
0.000366349
0.00172997
-0.000249982
0.000238275
0.00241659
-0.000247534
0.000166511
-0.00310196
0.00298364
-0.000201139
8.43162e-05
-5.7511e-05
0.000176152
-0.0030895
-6.66618e-05
0.000190899
-0.00251163
-7.14726e-05
0.000247164
-0.00145871
-7.61058e-05
0.000288765
-0.000130443
-6.95702e-05
0.000221069
0.00133513
-6.25642e-05
0.00014874
0.00265316
-6.77433e-05
0.000120917
0.00324332
-6.20913e-05
5.25946e-05
-0.00439705
0.00432847
-4.08738e-05
-0.000597108
0.00318831
-0.00279244
0.00162614
-0.000387426
0.000519141
-0.00017508
-0.0026625
0.000147334
0.000218748
0.00404529
-0.00403063
0.00027225
0.000109264
-0.000250742
4.86961e-05
-0.0033992
-0.000484884
0.000629046
-0.00423604
-0.000324568
0.000192189
0.00468286
-0.00469324
-0.000299819
0.000114398
-0.000462534
0.000614568
-0.00248352
-0.000456973
0.000462502
-0.00287092
-0.000289082
0.000311938
-0.00369567
-0.000413398
0.00027826
0.00474292
-0.00463794
-0.000643561
-4.44584e-05
-0.0002774
0.000979415
-0.00189653
-0.000436411
0.00100686
-0.0020628
-0.000423151
0.000731347
-0.00262403
-0.000301677
0.000253101
-0.00331445
-0.000304272
0.000293572
0.00439647
-0.00423085
-0.000464583
0.000327255
-0.000111716
0.000935569
-0.00234969
-0.000371237
0.00112833
-0.00165407
-0.000443168
0.000856735
-0.0010644
-0.000335898
0.000506713
-0.00170499
-0.000230875
0.000392599
-0.00231793
-0.000197315
0.000357912
0.00307445
-0.00305799
-0.00027507
0.000220524
-0.000150281
0.000674993
-0.00280762
-0.000196887
0.000839376
-0.00191449
-0.000400745
0.00083333
-0.000434249
-0.000355825
0.000692834
0.000608963
-0.000221802
0.000394787
-0.000432382
-0.000161159
0.000354292
-0.000425025
-0.000158861
0.000378134
0.0001431
-0.000284222
-0.000207673
0.000188484
-0.000201414
0.000408055
-0.00252986
-0.000107403
0.000447988
-0.00266154
-0.000178264
0.000563292
-0.00155544
-0.00024844
0.000621005
-4.92183e-05
-0.000255658
0.00040094
0.00153769
-0.000245457
0.000281572
0.00227705
-0.000243271
0.000278913
0.00279055
-0.000212442
0.000258409
-0.00281226
0.00257095
-0.00016564
2.88463e-05
-4.12155e-05
0.000167926
-0.00325986
-6.72826e-05
0.000187338
-0.00269503
-7.06044e-05
0.000239364
-0.00169309
-7.64545e-05
0.000292835
-0.000431749
-6.76343e-05
0.000235704
0.00109129
-6.14348e-05
0.000161983
0.00249539
-6.67722e-05
0.000135234
0.00310192
-6.15787e-05
8.27774e-05
0.00422896
-4.53561e-05
3.76209e-05
-0.00509091
0.00504911
-3.66957e-05
-0.000720896
0.0050794
-0.00475142
0.00244776
-0.000553373
0.00188925
-0.000326496
-0.00258731
0.00168212
0.000195915
0.00405099
-0.00391482
0.0015128
3.06706e-05
0.000356599
-0.000392097
-0.00237215
0.000282886
0.000236723
-0.00372403
0.000233057
0.000290105
0.00399792
-0.00420428
0.000380698
0.00015367
-0.00036063
0.000135035
-0.00318477
-0.000612382
7.1684e-05
-0.0039924
-0.000337708
0.00026065
-0.00461203
-0.000354483
0.000243727
0.00456966
-0.00435859
-0.000476352
7.55212e-06
-0.00069464
0.000669457
-0.00234129
-0.00047892
0.000844992
-0.00279634
-0.000369684
0.000558505
-0.00335025
-0.000461657
0.000332307
-0.00446042
-0.000670127
0.000322129
0.00469003
-0.00447586
-0.000886286
0.000342526
-0.000447858
0.000988643
-0.001962
-0.000409433
0.00115876
-0.00205552
-0.000474122
0.00069873
-0.00254315
-0.000346026
0.000286423
-0.00306795
-0.000327892
0.000347073
-0.00396231
-0.000527282
0.000617681
0.00439375
-0.00429253
-0.000825571
0.000361875
-0.000203111
0.0009218
-0.00256277
-0.00030114
0.00112769
-0.00187503
-0.000438584
0.000962622
-0.00129408
-0.000342786
0.000594394
-0.00169178
-0.000250662
0.000410174
-0.00233056
-0.000233631
0.00044274
-0.00304933
-0.000294423
0.000697978
0.00347024
-0.00358795
-0.000477206
0.000384584
-0.00022871
0.000650331
-0.00294657
-0.000136584
0.000822203
-0.00211105
-0.000374542
0.000834546
-0.000741528
-0.00036472
0.000783398
0.000321241
-0.000230496
0.000433777
-0.000500008
-0.000187012
0.000381903
-0.000498201
-0.000188315
0.000510189
-0.000445829
-0.000228529
0.000512624
0.00200789
-0.00211996
-0.000349825
0.000169231
-0.000172371
0.000395109
-0.00275591
-8.00737e-05
0.00044092
-0.00285613
-0.000166389
0.000566078
-0.00183536
-0.00022506
0.000647224
-0.000402675
-0.000249373
0.00043695
0.00131835
-0.000237566
0.000312859
0.00212378
-0.000243058
0.000315907
0.00257024
-0.00020363
0.000319215
0.00230023
-0.000178165
0.000259908
-0.00119153
0.000956368
-0.000152761
1.5832e-05
-3.63351e-05
0.000158108
-0.00342042
-6.51752e-05
0.000175426
-0.0028665
-7.12352e-05
0.000228399
-0.00191551
-7.65881e-05
0.000292982
-0.000734918
-6.62687e-05
0.00024863
0.000835721
-6.06983e-05
0.000176042
0.00232412
-6.62067e-05
0.000146049
0.00295052
-6.14213e-05
0.000115828
0.00409761
-4.60569e-05
6.87827e-05
0.00497637
-4.13899e-05
0.000119344
-0.00373514
0.00362929
-5.01962e-05
-0.000455465
0.00544229
-0.00547074
0.00312186
-0.000404007
0.00257557
-0.000530872
-0.00428364
0.0026718
-1.55365e-05
0.00500003
-0.00483908
0.00249826
-0.000220445
0.00162636
-0.000541051
-0.00250324
0.00153993
-2.35692e-05
-0.00348224
0.00150983
0.000335861
0.00438471
-0.00441829
0.00150063
0.000229118
0.000270163
-0.000214735
-0.00219854
9.25068e-05
-2.27894e-05
-0.0036335
0.000286828
0.000327233
-0.00428051
0.000242707
0.000302471
0.00470125
-0.00460423
0.000224938
0.000239429
-0.000606598
0.00018409
-0.00289296
-0.000754239
0.000413833
-0.00373088
-0.000442748
0.000198775
-0.00424583
-0.000344181
0.000415347
-0.00421504
-0.000581076
0.000547842
0.00396755
-0.00378169
-0.00088793
0.000386709
-0.00086144
0.000688266
-0.00219432
-0.000537649
0.000974658
-0.00265972
-0.00043144
0.000648951
-0.00331801
-0.000352144
0.000229817
-0.00416981
-0.000695662
0.000270244
-0.00409729
-0.00097187
0.00108089
0.00320448
-0.00341019
-0.00114378
0.000731626
-0.000705123
0.00101182
-0.00208015
-0.000387112
0.00127427
-0.00211301
-0.000498523
0.00095456
-0.00259037
-0.000418844
0.000634501
-0.00304848
-0.000405604
0.000586042
-0.00392997
-0.000536099
0.000608973
-0.00404205
-0.000943989
0.00101222
0.00301255
-0.0030767
-0.00107567
0.000829924
-0.00041027
0.000887608
-0.00275884
-0.000274115
0.00113238
-0.00204487
-0.000441477
0.0010275
-0.00155815
-0.000367471
0.000736864
-0.00172857
-0.000259467
0.000500591
-0.00237375
-0.000274288
0.000652907
-0.00326328
-0.000290686
0.00083414
-0.00368018
-0.000526142
0.000750525
0.00391886
-0.00392876
-0.000705207
0.000499718
-0.000353881
0.000635846
-0.0030449
-8.63879e-05
0.000806891
-0.00225336
-0.000360238
0.000840064
-0.0010267
-0.000363352
0.00085811
-1.69776e-05
-0.000237387
0.000505614
-0.000581636
-0.000217532
0.000438555
-0.000591819
-0.00021909
0.000589202
-0.0006762
-0.000231239
0.000606372
-0.0022532
-0.000382439
0.000477468
0.00341851
-0.00351353
-0.000472359
0.00024386
-0.00014949
0.000379377
-0.00298801
-5.39999e-05
0.00042796
-0.0030386
-0.000150138
0.000534473
-0.00209389
-0.000213938
0.000659844
-0.000757185
-0.000237412
0.000476611
0.00106971
-0.000228715
0.000351007
0.00194401
-0.000232765
0.000354344
0.00231975
-0.000200868
0.000401863
0.00197617
-0.000165605
0.000327656
0.000692399
-0.000173069
0.000402733
-0.000895838
0.00064602
-0.000186332
9.44892e-05
-4.90362e-05
0.000143049
-0.00356597
-6.29811e-05
0.000164408
-0.00302505
-7.10353e-05
0.000216752
-0.00212786
-7.56322e-05
0.000290296
-0.00103493
-6.6874e-05
0.000258763
0.000570277
-5.95877e-05
0.000188041
0.00214039
-6.50112e-05
0.000166104
0.00277979
-6.15837e-05
0.000140468
0.0039423
-4.65839e-05
0.000102803
0.00486915
-4.16498e-05
0.000161961
0.00348236
-5.64148e-05
0.000160368
-0.00242306
0.00226952
-5.70298e-05
-0.000147589
0.00565688
-0.00569757
0.00335999
-0.000409909
0.0031974
-0.000474547
-0.00530911
0.00344939
-8.28015e-05
0.00564717
-0.00552233
0.00306429
-0.000414278
0.00258274
-0.000436774
-0.00412206
0.0026446
-0.000325033
-0.00454006
0.00267424
0.000247911
0.00522259
-0.00510676
0.00247038
0.00028525
0.00148402
-0.000474232
-0.00226052
0.00141477
-0.000238015
-0.00324497
0.00151789
0.00024401
-0.0042903
0.00146507
0.00052247
0.00424385
-0.00435838
0.00139516
0.000434233
9.36802e-05
-0.000145737
-0.00199186
-6.5522e-05
0.000156526
-0.00343079
0.00014711
0.000211442
-0.00425535
0.000248993
0.000511326
-0.00457637
0.000118863
0.000607267
0.00447197
-0.00423089
-7.55612e-05
0.000628977
-0.000952436
0.00025487
-0.00273625
-0.000747194
0.000580914
-0.00356808
-0.000523295
0.00052697
-0.00418215
-0.000384445
0.000393525
-0.00432173
-0.000401201
0.000539433
-0.00361159
-0.00102036
0.0013477
0.00302581
-0.00297702
-0.00120354
0.00103954
-0.00115078
0.000768396
-0.00209694
-0.000568463
0.000982265
-0.00245952
-0.000445844
0.000713976
-0.00311231
-0.00039656
0.000654959
-0.0040243
-0.000518107
0.000798721
-0.00405526
-0.000950369
0.000888387
-0.00342702
-0.00123445
0.00108372
0.00258582
-0.00246409
-0.00133701
0.00112077
-0.00101931
0.00100367
-0.00223386
-0.000350531
0.00128751
-0.00214239
-0.000512869
0.00102656
-0.00256263
-0.000525319
0.000683161
-0.00294436
-0.000469256
0.000524545
-0.00380058
-0.000558955
0.000901417
-0.00391986
-0.000906801
0.00109245
-0.00311526
-0.00116375
0.000787885
0.00240182
-0.00231703
-0.00119782
0.000791743
-0.000682349
0.000897015
-0.00297812
-0.000211576
0.00113514
-0.00223097
-0.00041627
0.0010652
-0.00181367
-0.00041109
0.000764832
-0.00169493
-0.000307833
0.000413507
-0.00230249
-0.000238624
0.000444378
-0.00319566
-0.000347727
0.000883865
-0.00378398
-0.000481547
0.000882931
-0.00390437
-0.000827093
0.000326708
0.00310035
-0.00285973
-0.000795067
0.000509312
-0.00045612
0.0006002
-0.00314319
-4.79768e-05
0.000784624
-0.00233657
-0.000359847
0.000845006
-0.00131221
-0.000385268
0.000941421
-0.000401092
-0.000260816
0.000541964
-0.000636793
-0.000247582
0.000500148
-0.000714498
-0.000243992
0.000622122
-0.000988621
-0.000174448
0.000709858
-0.00242355
-0.00036889
0.000489457
-0.00353482
-0.000522954
0.000445732
0.00242565
-0.00240065
-0.000540352
0.000373106
-0.000176939
0.000358876
-0.00321876
-1.02423e-05
0.000408026
-0.00319974
-0.000136486
0.000496217
-0.0023214
-0.000202092
0.000664117
-0.00112689
-0.000218053
0.000526443
0.000787039
-0.000222422
0.000384439
0.00174368
-0.000224781
0.000419147
0.00202835
-0.000194408
0.000493278
0.00158341
-0.00016092
0.000389282
0.000419976
-0.000179661
0.000469684
0.000383498
-0.000218271
0.000419519
-0.000489983
0.000246542
-0.000202042
0.000158483
-5.59287e-05
0.000129376
-0.00369697
-6.18263e-05
0.000151767
-0.00316821
-7.1582e-05
0.000202466
-0.00232681
-7.45575e-05
0.000286844
-0.00132991
-6.74987e-05
0.00026209
0.000301005
-5.96927e-05
0.000197814
0.00194746
-6.44681e-05
0.000180089
0.00259566
-6.09684e-05
0.00016361
0.00376276
-4.56481e-05
0.000131217
0.00473323
-4.18776e-05
0.000179667
0.00331844
-5.73944e-05
0.000180252
0.00209582
-6.29623e-05
0.000113774
-0.00253516
0.00241788
-5.35232e-05
6.24001e-05
0.00551797
-0.00563745
0.00369413
-0.000148019
0.00337198
-0.000178536
-0.00569163
0.00374298
-7.3279e-05
0.00571459
-0.00566816
0.00330404
-0.000271574
0.00307237
-0.000336779
-0.00517821
0.00344607
-0.000245777
-0.00552793
0.00337573
0.000232471
0.00559459
-0.00553864
0.00302378
0.000190945
0.00250742
-0.000519368
-0.00373606
0.00255035
-0.000227514
-0.00455306
0.0026471
8.02473e-05
-0.00489835
0.00262959
0.00042507
0.00502871
-0.00499162
0.00253069
0.000562684
0.00135685
-0.000304724
-0.00213657
0.00124129
-0.000158179
-0.00293108
0.00141558
9.11807e-05
-0.00413876
0.00148661
0.000541503
-0.00435062
0.00142714
0.000709764
0.00470756
-0.00462147
0.00120656
0.000658995
-5.36271e-05
-5.21356e-06
-0.00190379
-0.00015846
0.000169563
-0.00316227
7.73069e-05
0.00027079
-0.00418139
0.000329328
0.000431437
-0.00448791
0.000122626
0.000655571
-0.00423447
6.30466e-06
0.00112704
0.00359082
-0.00338417
-6.15434e-05
0.00118593
-0.00125164
0.000438373
-0.00260091
-0.000864153
0.000471515
-0.00331105
-0.000493469
0.00033116
-0.00395033
-0.000372303
0.000316779
-0.003959
-0.000408992
0.000932867
-0.00336334
-0.0007836
0.00114501
-0.00298479
-0.00126922
0.00102458
0.00252263
-0.00245073
-0.00121631
0.00115353
-0.00143159
0.000785124
-0.0020395
-0.000575277
0.00107716
-0.00235113
-0.000466499
0.000926181
-0.00305556
-0.000402217
0.000549915
-0.00375137
-0.000536251
0.000497677
-0.00372004
-0.000826462
0.000939892
-0.00327363
-0.00114223
0.00127937
-0.00247548
-0.00140998
0.000627169
0.00102179
-0.000932333
-0.00126575
0.000685907
-0.00122351
0.00100457
-0.00242118
-0.000307393
0.00134004
-0.00220289
-0.000494923
0.00113302
-0.00261701
-0.000526315
0.000825252
-0.00301905
-0.000511049
0.000275445
-0.00352743
-0.000604341
0.000614466
-0.00377161
-0.000877292
0.00104216
-0.00302418
-0.00115618
0.000978701
-0.00226769
-0.00130885
-6.62598e-05
0.000754544
-0.000327501
-0.00123189
0.000398602
-0.000780277
0.000837954
-0.00318711
-0.000186446
0.00114254
-0.00239044
-0.000410025
0.00109237
-0.00206322
-0.00041408
0.000949357
-0.0017737
-0.000340249
0.00060043
-0.00239797
-0.000270818
0.000592005
-0.00320053
-0.000325619
0.000840526
-0.00384688
-0.000503235
0.000981779
-0.00383962
-0.000818213
0.000254372
-0.00253621
-0.000915528
0.000414022
0.00215599
-0.00202883
-0.000890521
0.000478458
-0.000519229
0.000565532
-0.00328879
-5.14638e-05
0.00075986
-0.00239583
-0.000340547
0.000792078
-0.00157227
-0.000395645
0.000961943
-0.000795849
-0.000288336
0.000598021
-0.000698509
-0.000270678
0.00051563
-0.00083588
-0.000257392
0.000671975
-0.00135232
-0.000133126
0.000792883
-0.00260282
-0.000294781
0.000475584
-0.00345349
-0.000536523
0.000456916
-0.0022956
-0.000615243
0.000403523
0.000874615
-0.000925638
-0.000473332
0.000462804
-0.00019823
0.000339712
-0.00345143
5.35366e-06
0.000380016
-0.00332359
-0.00011464
0.000471373
-0.00253354
-0.000193248
0.000666833
-0.00150691
-0.000202061
0.000570374
0.000475093
-0.000214391
0.000408383
0.00153332
-0.000222634
0.000463337
0.0017142
-0.00019387
0.000545054
0.00116488
-0.000157316
0.000405072
0.000173231
-0.000188031
0.000464329
0.000153806
-0.000234631
0.000420452
2.18974e-05
-0.000233827
0.000318113
-0.000816818
0.000614795
-0.000204357
0.000111503
-5.31248e-05
0.000116163
-0.00381422
-6.16704e-05
0.00013812
-0.00329649
-7.1666e-05
0.000186091
-0.0025093
-7.51776e-05
0.000284585
-0.00162117
-6.78766e-05
0.000262728
3.1783e-05
-6.10045e-05
0.000207139
0.00174473
-6.41063e-05
0.000189102
0.00240287
-6.07792e-05
0.000180679
0.00356719
-4.60784e-05
0.000150789
0.00457876
-4.19657e-05
0.000192031
0.00314228
-5.77477e-05
0.00018619
0.00191701
-6.47716e-05
0.000125309
0.00228803
-5.84259e-05
6.43892e-05
-0.00258057
0.00252363
-6.09768e-05
0.000164022
0.00550761
-0.00554367
0.00398518
-1.39519e-05
0.00369543
2.02892e-05
-0.00568922
0.00407223
5.4917e-05
0.00558257
-0.00565636
0.00363972
-0.000205072
0.00331143
-5.83517e-05
-0.00566585
0.00383465
-0.000134222
-0.00567913
0.00364239
0.00025925
0.00585572
-0.00588055
0.0033021
0.000223224
0.00301335
-0.000408644
-0.00510698
0.0034745
-0.000136698
-0.00552433
0.00335166
0.000153637
-0.0055679
0.0033316
0.000253497
0.00604293
-0.00595187
0.00310429
0.000363229
0.00263468
-0.000176745
-0.00355906
0.00255975
-0.000435117
-0.00430567
0.00257989
-2.8261e-05
-0.0047218
0.00259
0.000532298
-0.00511201
0.00275918
0.000695999
0.00494824
-0.00497659
0.00257281
0.000718364
0.00122753
-0.000194144
-0.0020731
0.00105324
-0.000168536
-0.0026328
0.00128111
5.24511e-05
-0.00401561
0.00151078
0.000423449
-0.00427427
0.00141825
0.000760353
-0.00466483
0.00136572
0.00106548
0.00477667
-0.00458551
0.00107696
0.00107409
-0.00014508
0.000181875
-0.00168459
-0.000454754
0.000195875
-0.00288178
-0.000163307
0.000192712
-0.00414374
0.000178112
0.000259751
-0.00440299
0.000301435
0.000702183
-0.0039473
6.61437e-05
0.00112695
-0.00336458
4.7736e-06
0.0010389
0.0031476
-0.00314584
-7.76209e-05
0.00130376
-0.00127304
0.000475422
-0.00245708
-0.000935466
0.00063804
-0.0030583
-0.000677791
0.000609444
-0.00367633
-0.000450725
0.000452032
-0.00383403
-0.000399385
0.000579278
-0.00321237
-0.000641554
0.00127348
-0.00294819
-0.00115379
0.00127641
-0.00244305
-0.00127394
0.00047491
0.00178986
-0.00171638
-0.00113752
0.000479825
-0.00131876
0.000830412
-0.00199975
-0.000632136
0.00115561
-0.00226066
-0.000481319
0.00110032
-0.00307895
-0.000410403
0.000837195
-0.00362009
-0.000545436
0.000465621
-0.00361467
-0.00083179
0.00091331
-0.0033092
-0.00108974
0.00118043
-0.00242005
-0.00133592
0.000731056
-0.000742413
-0.00135225
-0.000325093
0.00108718
-0.00075893
-0.00133517
-4.1456e-05
-0.00126941
0.000997573
-0.0026617
-0.000384327
0.00136829
-0.00226993
-0.000466104
0.00114442
-0.00262449
-0.000539494
0.000809513
-0.00290932
-0.000496199
0.0005199
-0.00341732
-0.000540631
0.000684537
-0.00358901
-0.000879473
0.000972865
-0.00280474
-0.00122907
0.000929295
-0.00207035
-0.00130104
-0.000156737
0.000130575
-0.00135582
0.000176997
0.00123526
-0.00114543
-0.00108469
0.000470457
-0.00089242
0.00082412
-0.00342666
-0.000133615
0.00114152
-0.00259274
-0.000365802
0.00107762
-0.00230749
-0.000451287
0.00102514
-0.00191421
-0.00033677
0.000589423
-0.00239119
-0.000338428
0.000561575
-0.00314441
-0.000372881
0.000800446
-0.00375323
-0.000547738
0.000859993
-0.00355203
-0.000857933
9.03998e-05
-0.0020479
-0.000921336
0.000482594
-0.00193269
-0.00103734
-0.000129498
0.00258943
-0.00211667
-0.000830259
0.00048746
-0.00044595
0.000562317
-0.00348002
-8.84299e-05
0.000733392
-0.00248103
-0.000319636
0.000789723
-0.00182212
-0.000409051
0.000961675
-0.00120132
-0.000285021
0.000712277
-0.000839577
-0.00028917
0.000536767
-0.000976924
-0.000258018
0.000701862
-0.00170034
-0.000147888
0.000867515
-0.00281936
-0.000239044
0.000393959
-0.00319489
-0.000542262
0.000451192
-0.00215709
-0.000661888
0.000279814
-0.000844472
-0.000555772
0.000317124
0.0012017
-0.00123909
-0.000434952
0.000357469
-0.000198212
0.00032022
-0.003679
2.42701e-06
0.000360023
-0.00343394
-0.000106197
0.000458071
-0.00274226
-0.000177905
0.000645611
-0.00187051
-0.00019067
0.000595119
0.000147278
-0.000206637
0.000427788
0.00131597
-0.000217689
0.000495893
0.00137701
-0.000192241
0.000554138
0.000755205
-0.000157655
0.000431856
-7.33237e-05
-0.000191827
0.000450313
-3.80916e-05
-0.000254415
0.000349558
-0.000131558
-0.000244544
0.000294936
0.00045003
-0.00023869
0.000225808
-0.00145509
0.00134705
-0.000257743
5.87559e-05
-6.09407e-05
0.000101667
-0.00391811
-5.97771e-05
0.000126775
-0.00341433
-7.06146e-05
0.000166957
-0.00267441
-7.35168e-05
0.000280224
-0.00190976
-6.68134e-05
0.000265561
-0.000239443
-6.22118e-05
0.000215604
0.00153234
-6.42142e-05
0.000198087
0.00220133
-6.06548e-05
0.000195998
0.00335672
-4.6306e-05
0.00016711
0.0044079
-4.23246e-05
0.000201825
0.00295645
-5.79639e-05
0.000189315
0.00173508
-6.51343e-05
0.00012762
0.00215453
-5.88899e-05
7.98067e-05
0.00245331
-6.79052e-05
2.28012e-05
-0.00267124
0.0026572
-6.97444e-05
0.000206182
0.0051031
-0.00512719
0.00442216
2.15617e-05
0.00399963
0.000265579
-0.00565731
0.00437883
1.75931e-05
0.00563328
-0.00556704
0.00395625
-4.8428e-05
0.00364472
-4.49155e-05
-0.00563187
0.00418465
-4.31484e-05
-0.00568259
0.00400739
0.000395111
0.00569045
-0.00586099
0.00367439
0.000211767
0.00333613
-0.000243221
-0.00562805
0.00391419
-0.000266326
-0.005442
0.00372715
0.000145078
-0.00584999
0.00362038
0.000274557
0.0056952
-0.00582644
0.00341228
0.000159727
0.00308679
0.000125379
-0.00524604
0.0034786
-0.00053065
-0.00533014
0.00337585
3.50331e-05
-0.0055506
0.00327106
0.000412353
-0.00590303
0.00340271
0.000613738
0.00587539
-0.00596083
0.003272
0.000782844
0.00265515
-0.00024217
-0.00333462
0.0025025
-0.000438134
-0.00404094
0.00256462
-0.000187144
-0.00442455
0.00252223
0.000286161
-0.00507856
0.00269384
0.000797394
-0.00511551
0.00286106
0.000897072
0.00538536
-0.00529526
0.00265112
0.00104671
0.00109788
-0.00014131
-0.00184756
0.000745283
-7.02851e-05
-0.0024452
0.0011318
-0.000110105
-0.00369327
0.00126158
0.000557229
-0.00452778
0.00146681
0.000656156
-0.0045835
0.00138294
0.000925612
-0.00428862
0.00127017
0.00109462
0.00358514
-0.00337576
0.000811853
0.00117653
-0.000145529
0.000181913
-0.0014765
-0.000502598
0.000265034
-0.00258821
-0.000375323
0.000301936
-0.00401657
1.70308e-05
0.000424461
-0.00430108
0.00010377
0.000529623
-0.00376713
0.000170912
0.00115629
-0.00329414
0.000112902
0.00115608
-0.00302747
6.74341e-06
0.000709029
0.00340451
-0.00332576
-0.000390493
0.00043558
-0.00118203
0.000556035
-0.00232059
-0.00100224
0.000706903
-0.00289794
-0.000647114
0.000782874
-0.00351025
-0.000526433
0.000739398
-0.00377553
-0.000411433
0.000603211
-0.0031739
-0.000575453
0.00112895
-0.00282029
-0.000985093
0.00119761
-0.00242421
-0.00118982
0.000531531
-0.0015922
-0.0011986
-0.000337175
0.00137722
-0.00154098
-0.000961684
-0.000321613
-0.00132778
0.000932751
-0.00208602
-0.00061348
0.00121117
-0.00216769
-0.000567986
0.000962266
-0.00298661
-0.00039151
0.000708352
-0.00350465
-0.00042468
0.0006546
-0.00339197
-0.000902837
0.000809296
-0.00313593
-0.00112982
0.00118459
-0.00236623
-0.00135529
0.00075702
-0.000646401
-0.00125966
-0.000309872
-0.00048475
-0.0014733
-0.000330898
0.000997156
-0.000710995
-0.00111344
0.000153954
-0.00109839
0.00104628
-0.00292793
-0.000384758
0.00138589
-0.00242922
-0.000469417
0.00118983
-0.00270109
-0.000501709
0.00101004
-0.0029528
-0.000480913
0.000595016
-0.00319456
-0.000724552
0.000514533
-0.00327454
-0.000808067
0.000831609
-0.00251418
-0.0012012
0.0007152
-0.00182279
-0.00133183
-0.000275247
0.000530272
-0.00133509
0.000493411
-0.00130654
-0.00120553
-0.000675906
0.00187172
-0.00137569
-0.00103432
-5.42196e-06
-0.000842746
0.00083231
-0.00367534
-5.80415e-05
0.00113405
-0.00279867
-0.000328342
0.00111035
-0.0025806
-0.00041332
0.00105067
-0.00210833
-0.000346166
0.000745959
-0.00243322
-0.000328424
0.000449798
-0.00295642
-0.000439446
0.000838425
-0.00362602
-0.000636649
0.00083312
-0.00320517
-0.00086021
-4.54173e-05
-0.00151294
-0.000953515
0.000466804
-0.00187991
-0.000989732
-0.000369078
-0.0015576
-0.000947522
6.54231e-06
0.00274127
-0.00251406
-0.000746883
0.000414328
-0.00040885
0.000565007
-0.00368773
-0.000112839
0.000707415
-0.00263734
-0.000279519
0.000777126
-0.00208375
-0.000377058
0.000927661
-0.00159396
-0.000298457
0.000799268
-0.00103416
-0.000294588
0.000529564
-0.0010949
-0.000272969
0.000712575
-0.00194136
-0.000233681
0.000770166
-0.00291474
-0.000268536
0.000447276
-0.00290894
-0.000540417
0.000433007
-0.00200251
-0.000679536
0.000155773
-0.000710983
-0.000601592
0.000134559
-0.00112809
-0.000506392
0.000368797
-4.00778e-05
-6.47299e-05
-0.000473133
0.000252125
-0.000248259
0.000293294
-0.00388529
-6.38025e-06
0.000338938
-0.00354689
-9.67864e-05
0.000433213
-0.00294377
-0.000170937
0.000636086
-0.00221769
-0.000186587
0.000606619
-0.000186958
-0.000197494
0.00045104
0.00108174
-0.000207839
0.000493554
0.00105112
-0.00018726
0.000510455
0.000410683
-0.000162176
0.000416435
-0.000287696
-0.000192608
0.000432804
-0.000190642
-0.000270255
0.000282984
-0.000218963
-0.000260678
0.000260571
0.00032257
-0.000250034
0.000226365
0.00125343
-0.000291628
0.000179206
-0.00191505
0.00176286
-0.000261951
1.79408e-05
-6.91614e-05
8.75894e-05
-0.00400812
-5.83427e-05
0.000118531
-0.00352429
-6.83457e-05
0.000152288
-0.00282558
-7.1731e-05
0.000273983
-0.00219284
-6.44224e-05
0.000267695
-0.00051286
-6.1091e-05
0.000224246
0.00130983
-6.39468e-05
0.00020941
0.00198837
-6.06636e-05
0.000208025
0.0031343
-4.62652e-05
0.000177333
0.00422647
-4.22162e-05
0.00021197
0.0027603
-5.81469e-05
0.000190693
0.00155192
-6.54971e-05
0.000127804
0.00202142
-5.98278e-05
8.71521e-05
0.002376
-6.87386e-05
3.16969e-05
0.00263544
-7.78446e-05
-1.7019e-05
-0.00155412
0.00156345
-6.20587e-05
0.000107178
0.00477072
-0.00476883
0.00477213
-2.09795e-05
0.00436269
0.000290196
-0.00516485
0.00491041
6.3561e-05
0.00517487
-0.00517951
0.00438083
6.56692e-05
0.00395243
9.25798e-06
-0.00557679
0.00443759
-0.000114914
-0.00552754
0.00441109
0.000254001
0.00555411
-0.00550428
0.00404754
0.000306433
0.00368628
-6.79036e-05
-0.00571531
0.00426417
-0.000316736
-0.00553567
0.00408814
3.63834e-05
-0.00581747
0.00407257
0.000319855
0.00558387
-0.00570923
0.00375446
-2.94499e-05
0.00344938
0.000195443
-0.00549731
0.00400563
-0.00017607
-0.00562832
0.00374593
0.000102318
-0.00583161
0.00364148
0.000159269
-0.00570816
0.00375519
0.000592572
0.00607489
-0.0061252
0.00348376
0.000863584
0.00326981
9.59307e-05
-0.00544297
0.00345438