/*--------------------------------*- C++ -*----------------------------------*\
  =========                 |
  \\      /  F ield         | OpenFOAM: The Open Source CFD Toolbox
   \\    /   O peration     | Website:  https://openfoam.org
    \\  /    A nd           | Version:  7
     \\/     M anipulation  |
\*---------------------------------------------------------------------------*/
FoamFile
{
    version     2.0;
    format      ascii;
    class       volVectorField;
    location    "2";
    object      U;
}
// * * * * * * * * * * * * * * * * * * * * * * * * * * * * * * * * * * * * * //

dimensions      [0 1 -1 0 0 0 0];

internalField   nonuniform List<vector> 
18720
(
(1.76177 0.920031 -1.37351)
(1.33661 0.779745 -1.37837)
(1.81871 0.932589 -1.37192)
(1.72268 0.908343 -1.38606)
(1.74472 0.681859 -1.24456)
(1.71327 0.860853 -1.63695)
(1.33994 0.810846 -1.58046)
(1.33851 0.736177 -1.20106)
(1.81134 0.710387 -1.64239)
(1.69217 0.682064 -1.19648)
(1.72151 0.90407 -1.41943)
(1.77919 0.681582 -1.27767)
(1.90397 0.112039 -1.80892)
(1.80857 0.75975 -1.5343)
(1.73839 0.816235 -1.86448)
(1.62498 0.850306 -1.43365)
(2.09058 0.264054 -1.85324)
(1.65558 0.69104 -1.82158)
(1.38457 0.723668 -1.08238)
(1.85533 0.699693 -1.54784)
(2.20311 0.0972496 -2.03146)
(1.90829 0.110149 -1.8599)
(1.74908 0.901718 -1.46841)
(1.79076 0.675773 -1.29665)
(1.91062 0.125459 -1.74087)
(1.99308 -0.482692 -1.70507)
(1.59392 1.10379 -0.879191)
(1.78388 0.79945 -1.57504)
(1.88687 0.733997 -1.43129)
(1.74227 0.518414 -1.4236)
(1.99715 0.306035 -1.94505)
(1.5785 0.866771 -1.16538)
(2.09388 0.29312 -1.80303)
(1.8995 -0.307888 -1.58337)
(2.15502 0.115821 -2.08435)
(1.60401 0.6461 -0.9671)
(1.81835 0.700412 -1.5616)
(2.23324 0.0887814 -1.97521)
(1.94583 -0.557394 -1.91812)
(1.95485 -0.487018 -1.69754)
(1.7744 0.890656 -1.50993)
(1.77851 0.669804 -1.31419)
(1.91389 0.133223 -1.66745)
(2.03352 -0.489287 -1.69746)
(1.50454 -0.960851 -1.33437)
(0.625594 1.55012 -0.550805)
(1.3949 1.2251 -0.903431)
(1.70014 0.930967 -0.940924)
(0.815356 1.21988 -0.707881)
(1.51163 0.664875 -1.42723)
(1.98016 0.653541 -1.36108)
(2.03266 0.425967 -1.42162)
(1.04477 0.519275 -0.768273)
(1.79293 -0.275838 -1.53753)
(1.63505 0.87905 -0.925882)
(2.1498 0.318651 -1.68384)
(2.01357 -0.358242 -1.61087)
(1.41162 -0.573828 -1.25472)
(1.87624 -0.541363 -1.9396)
(1.78622 0.564167 -0.915928)
(1.78379 0.701477 -1.61145)
(2.26225 0.107627 -1.90791)
(2.02571 -0.571935 -1.88951)
(1.20342 -1.01113 -1.78456)
(1.49231 -0.954541 -1.34118)
(1.76635 0.893736 -1.562)
(1.7741 0.661069 -1.32872)
(1.90802 0.134682 -1.62064)
(2.06055 -0.483872 -1.69809)
(1.52538 -0.961456 -1.32624)
(0.990105 -1.42235 -1.40918)
(0.235972 1.90685 -0.752564)
(0.847997 1.50975 -0.52166)
(1.09306 1.35492 -0.729063)
(0.387484 1.61857 -0.270049)
(0.250964 1.3343 -0.675654)
(1.87115 0.819354 -0.871203)
(1.19465 1.13679 -0.7129)
(0.165921 1.37434 -0.590972)
(0.822964 0.619387 -0.679388)
(2.02918 0.634453 -1.2581)
(2.18671 0.352068 -1.53963)
(1.44016 0.377371 -0.946708)
(0.942356 0.937935 -0.566257)
(1.27506 -0.57196 -1.27923)
(1.84889 0.82421 -0.63864)
(2.13714 0.331726 -1.626)
(2.08729 -0.3768 -1.64353)
(1.58597 -0.598248 -1.222)
(0.94984 0.120367 -0.615108)
(1.10993 -0.998221 -1.84407)
(1.90439 0.505145 -0.855031)
(1.79027 0.701975 -1.56218)
(2.26963 0.0500924 -1.86277)
(2.09212 -0.614495 -1.89878)
(1.27355 -0.999708 -1.76806)
(0.744879 -1.25207 -1.77021)
(0.982306 -1.41756 -1.44168)
(1.75776 0.899522 -1.58796)
(1.79534 0.667036 -1.33484)
(1.90299 0.143384 -1.62459)
(2.09649 -0.492972 -1.66809)
(1.5437 -0.966812 -1.31927)
(1.00275 -1.45503 -1.39428)
(0.825031 -1.66969 -1.46387)
(-0.191689 1.3652 0.668877)
(0.0617972 1.98242 -0.721003)
(0.366444 1.80346 -0.827083)
(0.178329 2.30458 -0.407964)
(0.816202 1.47667 -0.474604)
(1.08432 1.26114 -0.933428)
(0.959102 1.49073 -0.415899)
(0.097975 1.99765 -0.633253)
(-0.0193706 1.42259 -0.599126)
(1.94774 0.646275 -0.927809)
(1.75413 0.849354 -0.893503)
(0.722589 1.29161 -0.70639)
(0.0826213 1.74808 -0.677042)
(0.800527 1.0455 -0.466792)
(2.065 0.604771 -1.08856)
(2.38406 0.272226 -1.45094)
(1.81402 0.22251 -1.11885)
(1.0581 0.849731 -0.64108)
(0.524454 1.22607 -0.394357)
(0.717426 0.0886495 -0.650431)
(2.01255 0.757813 -0.43076)
(2.14256 0.317157 -1.54854)
(2.08953 -0.374538 -1.74098)
(1.82338 -0.630999 -1.19852)
(1.1168 0.106934 -0.605974)
(0.646399 0.167534 -0.442057)
(0.732426 -1.24988 -1.77932)
(1.97511 0.467129 -0.752573)
(1.88317 0.676868 -1.33341)
(2.31079 0.0554966 -1.76913)
(2.1747 -0.55554 -1.93497)
(1.3321 -1.03564 -1.7512)
(0.821589 -1.23318 -1.75339)
(0.503775 -1.48597 -1.7688)
(0.805786 -1.67817 -1.47026)
(1.75489 0.907314 -1.58142)
(1.83191 0.63927 -1.32501)
(1.88849 0.175033 -1.67672)
(2.12188 -0.497019 -1.6261)
(1.57807 -0.967017 -1.31246)
(1.03103 -1.44708 -1.37763)
(0.844946 -1.66003 -1.47326)
(0.36245 -2.13413 -1.14788)
(-0.432236 1.63745 2.18623)
(-0.236317 1.53238 0.986368)
(-0.0888733 1.43462 0.16216)
(0.0395848 1.96505 0.330475)
(-0.00824803 2.24344 -0.378166)
(0.455173 1.72315 -1.03955)
(1.27648 1.86178 -0.526939)
(0.208044 2.35034 -0.508289)
(-0.119848 1.98999 -0.619198)
(1.26459 1.03545 -1.0755)
(1.22504 1.44083 -0.409085)
(0.601533 1.95372 -0.610046)
(0.314647 2.39981 -0.980264)
(-0.141478 1.80958 -0.69452)
(2.01874 0.490279 -0.927613)
(1.93324 0.762509 -1.14674)
(1.17873 1.17545 -0.757459)
(0.4283 1.67499 -0.641873)
(0.54681 2.10901 -0.621562)
(0.609023 1.1733 -0.161612)
(2.09723 0.555383 -0.886912)
(2.43638 0.230972 -1.39733)
(2.01132 0.167568 -1.24816)
(1.20509 0.71544 -0.715105)
(0.869989 1.08228 -0.43287)
(0.863727 1.51788 -0.679971)
(0.4587 0.152782 -0.460201)
(2.04013 0.721473 -0.318715)
(2.14852 0.303372 -1.43595)
(2.06862 -0.32142 -1.84582)
(2.08013 -0.698042 -1.17011)
(1.24549 0.080642 -0.644685)
(0.838764 0.165779 -0.516101)
(0.879258 0.15234 -0.813605)
(0.858631 -1.48343 -1.67466)
(2.04667 0.441622 -0.594362)
(1.97157 0.653009 -1.08411)
(2.36341 0.00906195 -1.60343)
(2.24665 -0.582162 -1.9415)
(1.42592 -1.05472 -1.71533)
(0.892228 -1.25085 -1.7109)
(0.832887 -1.43447 -1.66057)
(0.602365 -1.26208 -1.31368)
(0.540556 -2.15662 -1.14836)
(1.77007 0.903243 -1.54972)
(1.86055 0.620763 -1.32128)
(1.88421 0.172171 -1.71387)
(2.14176 -0.488952 -1.57492)
(1.62618 -0.974329 -1.29672)
(1.06093 -1.4422 -1.35476)
(0.850101 -1.66302 -1.46752)
(0.480703 -2.11158 -1.10325)
(0.168865 -2.51788 -0.842611)
(-0.803053 2.41443 2.76649)
(-0.915221 1.37253 2.56804)
(-0.212228 1.13412 2.2536)
(0.271443 1.92005 1.94266)
(-0.109433 2.03872 0.446242)
(-0.0459062 1.21996 0.362614)
(0.269208 1.91479 0.183612)
(0.135921 2.04769 0.458609)
(0.0543259 2.34736 -0.481997)
(0.718579 1.5222 -1.19403)
(0.297445 2.09387 -0.49691)
(0.386054 2.25557 -0.500217)
(0.378476 2.15332 -0.507321)
(-0.359752 2.33298 -1.26473)
(1.43231 0.919307 -1.06732)
(1.58732 1.12963 -0.683561)
(1.37655 1.46109 -0.690781)
(0.491879 2.21329 -0.895668)
(0.294466 2.18224 -1.53932)
(0.509692 2.23682 -0.653258)
(2.06761 0.385934 -0.862174)
(2.24211 0.488103 -1.12395)
(1.56027 1.05726 -0.791009)
(1.00155 1.49349 -0.652876)
(0.79473 1.99332 -0.682335)
(0.594414 2.18152 -1.72363)
(0.661517 1.59728 -0.539643)
(2.11721 0.51559 -0.658004)
(2.44685 0.188021 -1.33565)
(2.19126 0.0934718 -1.25848)
(1.40924 0.644277 -0.748404)
(0.913945 1.07004 -0.636017)
(1.09963 1.43506 -0.707993)
(1.29908 1.80539 -1.1685)
(0.745609 0.0959373 -0.907101)
(2.05058 0.65817 -0.0399314)
(2.14363 0.291018 -1.31586)
(2.04223 -0.280742 -1.92661)
(2.25858 -0.755895 -1.16243)
(1.36059 0.0166162 -0.722624)
(1.04047 0.130223 -0.662739)
(1.11305 0.1405 -0.821125)
(1.48192 1.03039 -1.16384)
(0.209826 -1.40524 -1.40719)
(2.1219 0.39981 -0.469465)
(2.03691 0.625854 -0.864761)
(2.398 0.0810681 -1.41656)
(2.33647 -0.581194 -1.89842)
(1.53998 -1.07359 -1.67196)
(0.910296 -1.24496 -1.71178)
(0.901692 -1.41572 -1.64858)
(0.64229 -1.25644 -1.31412)
(0.658941 -0.509439 -1.24923)
(0.230606 -2.53698 -0.857472)
(1.80058 0.901631 -1.48139)
(1.82084 0.640313 -1.37224)
(1.89907 0.173119 -1.70701)
(2.13815 -0.471397 -1.56521)
(1.67188 -0.974477 -1.28048)
(1.08765 -1.44816 -1.32987)
(0.855985 -1.65584 -1.45797)
(0.511378 -2.11523 -1.1042)
(0.104601 -2.44593 -0.841692)
(0.609393 -1.78143 -0.806426)
(-0.520958 2.65926 3.36326)
(-0.446706 2.51743 2.98428)
(-0.21127 2.17235 2.83555)
(-0.0770983 2.3828 2.84921)
(-0.213304 2.10394 2.1962)
(-0.520023 1.38077 1.87171)
(0.268396 1.80843 1.73288)
(0.321548 2.111 1.89177)
(-0.0701263 1.91538 0.605075)
(0.0477883 1.12091 0.199531)
(0.264178 1.78049 0.34552)
(0.332354 2.08876 0.4056)
(0.0492209 2.27386 0.674461)
(-0.0158846 2.30548 -0.728446)
(0.832636 1.34944 -1.33938)
(1.06375 1.82505 -0.771624)
(0.403485 2.16536 -0.594931)
(0.510186 2.05934 -0.574033)
(0.52101 1.88063 -1.08241)
(0.234777 2.37282 -1.4648)
(1.48863 0.715379 -1.21316)
(1.81828 1.01064 -0.77413)
(1.10464 1.56841 -0.705594)
(0.300573 2.04982 -0.969682)
(0.345761 2.19947 -1.50974)
(1.29175 1.66835 -2.14335)
(0.594036 2.15269 -1.53145)
(2.09506 0.282123 -0.773981)
(2.34332 0.38168 -1.06082)
(1.86828 0.849153 -1.08164)
(1.28001 1.29012 -0.831764)
(1.02207 1.92652 -0.791599)
(0.738502 2.2169 -1.81313)
(1.58159 1.55271 -2.50413)
(1.37743 1.76007 -0.820926)
(2.13983 0.511909 -0.578343)
(2.49488 0.127031 -1.15863)
(2.33766 0.0442534 -1.29722)
(1.70449 0.459574 -0.808896)
(1.11201 1.02319 -0.705464)
(1.13972 1.518 -0.760971)
(1.68224 1.78373 -1.07165)
(1.46842 2.05615 -1.92344)
(1.18839 1.06378 -1.25553)
(2.01789 0.637467 0.177274)
(2.16901 0.238469 -1.08394)
(2.12381 -0.316228 -1.83748)
(2.39818 -0.808841 -1.13846)
(1.47101 -0.0611876 -0.819717)
(1.20532 0.0777629 -0.804966)
(1.29008 0.152282 -0.932921)
(1.70756 1.03631 -1.15062)
(1.41998 1.75745 -1.92248)
(0.506548 -0.560442 -1.27576)
(2.16361 0.383413 -0.272211)
(2.09503 0.593127 -0.616039)
(2.28844 0.0496112 -1.48197)
(2.41772 -0.584591 -1.77503)
(1.65979 -1.11475 -1.62315)
(0.980654 -1.24843 -1.67065)
(0.869471 -1.37318 -1.6599)
(0.942154 -1.12623 -1.22611)
(0.916029 -0.415975 -1.18943)
(1.56522 -0.309736 -1.07388)
(0.596406 -1.782 -0.782042)
(1.79831 0.888956 -1.45397)
(1.83361 0.630851 -1.35864)
(1.88738 0.177999 -1.6963)
(2.12992 -0.449157 -1.58433)
(1.70845 -0.985062 -1.24627)
(1.09267 -1.46403 -1.32415)
(0.863706 -1.64199 -1.46287)
(0.544509 -2.08261 -1.10916)
(0.203579 -2.41808 -0.855936)
(0.707497 -1.72605 -0.840627)
(1.03388 -1.07224 -1.47469)
(-0.313224 2.75202 3.26269)
(-0.659212 2.60821 3.36976)
(-0.408562 2.66195 3.36115)
(-0.104176 2.71127 3.11704)
(-0.635905 2.51722 2.91709)
(-0.0625172 2.05957 2.8374)
(-0.197412 2.2682 2.77068)
(0.137207 2.48842 2.83039)
(0.169488 2.34155 1.95554)
(-0.129195 1.18135 1.75574)
(0.0139789 1.66376 1.75811)
(0.398777 2.11741 1.71376)
(0.444686 2.10477 2.00001)
(0.163267 2.3016 0.212018)
(0.173536 1.02704 -0.0289245)
(0.490154 1.68075 0.00233237)
(0.49001 2.04434 0.390267)
(0.494423 2.246 0.259485)
(0.598929 2.1013 0.0128055)
(0.506848 2.00981 -1.26421)
(0.920927 1.15652 -1.48456)
(1.32981 1.39615 -1.06378)
(1.15112 1.87223 -0.630158)
(0.733178 2.103 -0.496518)
(0.526409 1.86405 -1.18559)
(1.67468 1.32135 -2.02879)
(1.41589 1.68051 -2.09164)
(1.58661 0.540347 -1.23882)
(2.11631 0.631818 -0.843978)
(1.71037 1.20565 -0.824598)
(1.26492 1.86309 -0.612787)
(1.16569 1.85197 -1.53761)
(1.25459 1.65873 -2.15362)
(1.61253 1.20911 -2.56692)
(1.89739 1.61144 -2.08931)
(2.07638 0.224483 -0.742708)
(2.39795 0.231669 -1.04395)
(2.06625 0.724966 -1.27805)
(1.66798 1.13568 -0.870433)
(1.32097 1.6033 -0.981836)
(1.76313 1.53384 -1.72907)
(1.67227 1.44916 -2.49682)
(1.56316 1.16976 -2.75965)
(1.53244 1.97688 -1.83684)
(2.27221 0.437961 -0.374109)
(2.5051 0.0460381 -1.07246)
(2.36987 -0.0202198 -1.49012)
(1.98053 0.333149 -0.948165)
(1.46328 0.855527 -0.689405)
(1.37326 1.35273 -0.93629)
(2.04894 1.59565 -0.998954)
(1.64179 1.88244 -2.00021)
(1.29102 1.56235 -2.53048)
(1.35333 1.77931 -1.85358)
(2.0072 0.590791 0.290698)
(2.13787 0.170211 -0.889865)
(2.07705 -0.336815 -1.97317)
(2.46828 -0.806547 -1.20968)
(1.61274 -0.132436 -0.925413)
(1.369 0.0190628 -0.968917)
(1.5633 0.176709 -1.0573)
(2.0016 1.00076 -1.04208)
(1.5204 1.75781 -1.91111)
(1.65776 1.24139 -2.46939)
(1.28627 -0.370254 -0.99013)
(2.18233 0.403125 0.158343)
(2.09433 0.551456 -0.429307)
(2.25779 0.0837243 -1.49858)
(2.4894 -0.594184 -1.56529)
(1.77536 -1.14964 -1.57455)
(1.0577 -1.26584 -1.61482)
(1.04127 -1.32755 -1.5707)
(1.11489 -1.07303 -1.19229)
(1.20519 -0.37952 -1.12605)
(1.7781 -0.297095 -1.20948)
(1.73832 -0.103359 -1.68733)
(1.02779 -1.1082 -1.44377)
(1.82325 0.906402 -1.39785)
(1.84647 0.621735 -1.32361)
(1.86486 0.200334 -1.71351)
(2.15544 -0.439699 -1.56828)
(1.68942 -0.980989 -1.26443)
(1.09401 -1.46729 -1.3165)
(0.869085 -1.60583 -1.4381)
(0.613566 -2.08584 -1.12501)
(0.26511 -2.44829 -0.864395)
(0.762622 -1.71718 -0.863065)
(1.02968 -1.07213 -1.49003)
(0.721589 -1.15674 -1.13294)
(-0.0607731 2.72941 3.21801)
(-0.445075 2.70793 3.19725)
(-0.0267435 2.76362 3.32188)
(-0.196177 2.75351 3.09269)
(-0.519946 2.70115 3.17053)
(-0.116662 2.5579 3.40264)
(-0.129976 2.68266 3.14418)
(0.103494 2.69068 3.17926)
(-0.126049 2.59867 2.89232)
(-0.150524 1.98424 2.83233)
(-0.0497392 2.22968 2.72289)
(0.118102 2.44445 2.75364)
(0.374092 2.41573 2.88322)
(0.32783 2.12334 1.86141)
(0.00775914 1.13198 1.49467)
(0.295865 1.43406 1.60752)
(0.292554 2.04787 1.75027)
(0.615145 2.10179 1.74071)
(0.567655 2.27797 1.66952)
(0.527648 2.26212 0.101798)
(0.330982 0.886167 -0.188858)
(0.718591 1.50564 -0.177354)
(0.663868 1.98405 0.358681)
(0.554932 2.1534 0.29878)
(0.700989 2.10212 0.0607415)
(1.32761 1.69043 -0.227493)
(1.20169 1.76634 -2.04676)
(1.12878 1.00189 -1.5533)
(1.19651 1.48666 -0.838467)
(0.870511 1.86936 -0.615057)
(1.00736 1.86691 -0.610967)
(1.32607 1.56612 -0.689669)
(1.12743 1.51957 -1.99639)
(1.18516 1.32289 -2.17805)
(1.43597 1.46956 -2.66518)
(1.635 0.394164 -1.29713)
(2.16832 0.459264 -0.918837)
(1.86895 1.01356 -0.849996)
(1.18678 1.77915 -0.703266)
(0.843438 1.78025 -1.26052)
(1.32141 1.46542 -1.95889)
(1.63605 1.16565 -2.47625)
(0.97261 0.575212 -2.71507)
(1.44595 1.30261 -2.8359)
(2.13941 0.231363 -0.63732)
(2.47833 0.0785737 -0.910934)
(2.25005 0.523024 -1.37309)
(1.60349 1.04826 -1.17692)
(0.77961 1.74564 -1.24225)
(0.931802 1.8334 -1.56639)
(1.67588 1.37774 -2.44261)
(1.76499 1.07622 -2.70731)
(-0.189517 0.271218 -3.35901)
(1.3456 1.62279 -2.45052)
(2.2825 0.410597 -0.354386)
(2.53261 -0.0299566 -0.89758)
(2.53469 -0.0379335 -1.42249)
(2.33575 0.00749658 -1.03558)
(1.58187 0.694204 -0.832421)
(1.64098 1.25295 -0.759349)
(2.08022 1.58132 -1.15709)
(2.11927 1.58136 -1.80942)
(1.21884 1.24822 -2.72126)
(0.791093 1.07384 -2.75658)
(1.64145 1.31243 -2.39043)
(2.03159 0.548755 0.252687)
(2.09956 0.11472 -0.701019)
(2.00356 -0.194147 -2.16601)
(2.5103 -0.778696 -1.27918)
(1.8289 -0.346227 -1.07507)
(1.49997 -0.0584561 -1.11575)
(1.87367 0.150049 -1.10845)
(2.60914 0.82772 -0.421653)
(1.78977 1.47795 -1.89374)
(1.70822 1.16014 -2.50294)
(1.66486 0.47962 -2.34271)
(1.83375 -0.126229 -1.61948)
(2.1716 0.435805 0.257069)
(2.08761 0.564277 -0.259302)
(2.20861 0.08771 -1.49096)
(2.52622 -0.57423 -1.39802)
(1.85898 -1.18218 -1.51671)
(1.1066 -1.25803 -1.59498)
(1.13742 -1.30213 -1.53263)
(1.27305 -0.990241 -1.19709)
(1.45717 -0.367794 -1.08894)
(1.88068 -0.297684 -1.3801)
(1.69348 -0.104352 -1.73511)
(1.2925 -0.291089 -1.40456)
(0.72179 -1.19895 -1.10815)
(1.82716 0.910324 -1.38975)
(1.82266 0.624277 -1.33389)
(1.81139 0.239961 -1.783)
(2.1901 -0.45105 -1.53544)
(1.66708 -0.968103 -1.31697)
(1.11371 -1.45229 -1.3103)
(0.868801 -1.58108 -1.42844)
(0.641441 -2.07591 -1.13212)
(0.233715 -2.38381 -0.844445)
(0.810748 -1.70098 -0.884135)
(1.03781 -1.03831 -1.52226)
(0.733628 -1.15775 -1.12659)
(0.420589 -1.22488 -1.35527)
(-0.0174385 2.6556 3.16287)
(-0.226408 2.59665 3.22801)
(-0.0285038 2.77166 3.25624)
(-0.0629279 2.69858 3.14706)
(-0.362041 2.7375 3.10938)
(0.193439 2.76256 3.40187)
(-0.0120699 2.7662 3.10461)
(0.074321 2.84482 3.06536)
(-0.0206745 2.74211 3.16411)
(0.134996 2.50026 3.42766)
(0.189333 2.70653 3.12561)
(0.141304 2.67144 3.16016)
(0.13634 2.9286 3.10272)
(0.255308 2.499 2.90406)
(0.172573 1.77443 2.91876)
(0.0206789 2.19829 2.59183)
(0.267152 2.32335 2.77254)
(0.416623 2.43887 2.78144)
(0.533318 2.43579 2.92376)
(0.460042 2.3282 1.68454)
(0.214786 0.940644 1.20542)
(0.246933 1.36501 1.46161)
(0.490806 1.93585 1.66821)
(0.647742 2.02537 1.76153)
(0.735884 2.23503 1.65747)
(0.882163 2.2643 1.4034)
(1.18724 1.89882 -0.26633)
(0.615219 0.753181 -0.492691)
(0.783184 1.30905 -0.268638)
(0.781334 1.94983 0.350987)
(0.364478 2.12764 0.523821)
(0.931418 1.85018 0.0623023)
(1.34466 1.64221 -0.0384565)
(1.08054 1.5818 0.0271226)
(1.38716 1.23413 -2.30449)
(1.19029 0.83164 -1.69651)
(1.42 1.12477 -1.15511)
(1.36238 1.63774 -0.784458)
(1.11088 1.65655 -0.584565)
(0.997522 1.40018 -0.620643)
(1.37023 1.26869 -1.72709)
(1.54794 1.08813 -2.05029)
(0.55748 0.850157 -2.11737)
(0.599393 0.544624 -2.95186)
(1.69378 0.212812 -1.40273)
(2.28549 0.23949 -0.877714)
(2.08641 0.831613 -0.875502)
(1.76622 1.17249 -0.688625)
(0.889919 1.62499 -1.24469)
(1.45554 1.3973 -1.80555)
(1.65102 1.06573 -2.37391)
(1.11798 0.334927 -2.59315)
(-0.0864657 0.434476 -2.63395)
(-0.053572 0.430102 -3.40952)
(2.01824 0.229731 -1.04801)
(2.53104 -0.0893678 -0.806716)
(2.31375 0.367422 -1.41833)
(1.99125 0.836112 -1.07577)
(1.45394 1.28245 -1.13151)
(1.402 1.46426 -1.53732)
(1.66365 1.21667 -2.53669)
(1.76121 0.942997 -2.74695)
(-0.371101 0.0617679 -3.38033)
(0.800306 0.603801 -2.70829)
(0.857973 1.15314 -2.69619)
(2.28075 0.416916 -0.285658)
(2.5597 -0.107263 -0.758022)
(2.49675 -0.10106 -1.58479)
(2.48736 -0.129099 -1.11498)
(1.70809 0.652441 -0.933035)
(1.70895 1.19069 -0.847908)
(2.15738 1.48151 -1.19903)
(2.07172 1.67157 -1.85404)
(1.04091 1.08977 -2.85913)
(0.681876 0.908966 -2.83886)
(0.453213 1.30822 -2.90968)
(1.88595 0.620929 -2.18913)
(2.11641 0.495944 -0.0800321)
(2.02776 0.0519825 -0.723548)
(1.96917 -0.20895 -2.22804)
(2.58973 -0.811221 -1.16634)
(2.06089 -0.523208 -1.22758)
(1.60867 -0.11711 -1.17185)
(2.16328 0.167098 -1.07814)
(2.90632 0.706799 -0.0302434)
(1.73182 1.40852 -1.92359)
(1.69067 0.815862 -2.6382)
(1.41534 0.429065 -2.47961)
(1.33638 0.647862 -1.95856)
(1.38874 -0.317606 -1.40217)
(2.18612 0.45456 0.216007)
(2.09871 0.5227 -0.181026)
(2.19297 0.0977307 -1.35644)
(2.57414 -0.574853 -1.27798)
(1.91728 -1.17883 -1.4752)
(1.14257 -1.28633 -1.55742)
(1.17567 -1.26687 -1.52319)
(1.38838 -0.914676 -1.22347)
(1.63791 -0.403278 -1.04401)
(1.87966 -0.324834 -1.55207)
(1.70264 -0.119289 -1.80345)
(1.11684 -0.282787 -1.52024)
(0.749113 -0.64883 -1.79236)
(0.407205 -1.21014 -1.35598)
(1.85628 0.912792 -1.36066)
(1.84763 0.604443 -1.31373)
(1.81639 0.22883 -1.76995)
(2.2225 -0.447925 -1.4792)
(1.68044 -0.961053 -1.38393)
(1.09975 -1.47423 -1.31761)
(0.86005 -1.62134 -1.43216)
(0.667313 -2.05009 -1.13234)
(0.285927 -2.29137 -0.853603)
(0.864578 -1.69284 -0.902678)
(1.05417 -1.03793 -1.52979)
(0.735303 -1.11803 -1.16443)
(0.421237 -1.21463 -1.35443)
(0.063772 -1.28736 -1.42747)
(0.0565842 2.44116 3.25033)
(-0.24896 2.61901 3.18206)
(0.227032 2.73843 3.1966)
(-0.0233872 2.68029 3.11324)
(-0.398384 2.63291 3.12885)
(0.280329 2.68715 3.34645)
(0.0164732 2.78651 3.1285)
(0.11811 2.82021 3.06581)
(-0.1464 2.84884 3.07398)
(0.158697 2.79179 3.45549)
(0.152218 2.66268 3.24821)
(0.243802 2.80766 3.07268)
(0.0943148 2.79753 3.1608)
(-0.169915 2.93545 3.07689)
(0.567351 2.44794 3.45136)
(0.10954 2.63515 3.18714)
(0.171509 2.70566 3.1507)
(0.518501 2.79847 3.1297)
(0.425396 2.86983 3.27087)
(0.375747 2.35868 3.10082)
(0.249061 1.6653 2.82869)
(0.259315 2.01249 2.56652)
(0.253033 2.21552 2.7568)
(0.495176 2.45479 2.70035)
(0.625495 2.40792 2.95642)
(0.881519 2.53927 3.02082)
(0.652702 2.45497 1.42551)
(0.386216 0.999343 0.850874)
(0.324647 1.16424 1.28402)
(0.470453 1.8272 1.53078)
(0.812798 2.03178 1.87498)
(0.841804 2.15336 1.64555)
(0.929061 2.08963 1.5594)
(0.982689 1.69653 1.3547)
(1.35222 1.563 -0.195835)
(0.628819 0.53946 -0.557159)
(0.968169 1.06476 -0.757553)
(1.11793 1.75388 -0.232244)
(0.746379 2.07488 0.136197)
(0.714659 1.7702 0.300729)
(1.56962 1.40886 0.138108)
(1.23736 1.42459 0.0481058)
(0.557233 1.64 -0.270241)
(0.457633 0.932272 -2.18081)
(1.25607 0.667252 -1.81753)
(1.54605 0.902566 -1.2403)
(1.62295 1.12747 -1.06008)
(1.28587 1.56643 -0.608384)
(1.07767 1.35078 -0.62715)
(1.36804 1.22798 -1.36005)
(1.46371 1.08058 -1.9768)
(0.5972 0.793926 -2.00954)
(-0.794658 0.700946 -1.68681)
(-0.182155 0.588805 -2.5761)
(1.89089 0.0286138 -1.31339)
(2.31555 0.00766452 -1.0007)
(2.16536 0.771115 -0.956736)
(1.55342 1.34706 -0.637447)
(1.07797 1.44164 -1.30706)
(1.34355 1.39741 -1.91024)
(1.60053 0.904996 -2.34849)
(1.12293 0.227459 -2.43949)
(-0.0804739 0.283876 -2.59159)
(-0.354016 0.369295 -2.57579)
(0.869356 0.663601 -2.77541)
(2.17865 0.182028 -0.972525)
(2.56869 -0.203103 -0.760421)
(2.38488 0.261371 -1.39751)
(2.17297 0.58463 -1.0983)
(1.45096 1.21155 -1.17883)
(1.41924 1.62937 -1.42834)
(1.5677 0.896532 -2.55404)
(1.51248 0.608925 -2.97354)
(-0.725892 -0.104139 -3.31576)
(1.10668 0.542074 -2.69493)
(-1.09481 0.698928 -2.67801)
(0.562886 1.24606 -3.02676)
(2.3881 0.362251 -0.055517)
(2.60951 -0.18493 -0.478314)
(2.63419 -0.189537 -1.448)
(2.48672 -0.20444 -1.16794)
(2.05122 0.417222 -0.87618)
(1.72196 0.859181 -1.1588)
(2.09877 1.12934 -1.39322)
(2.15773 1.13101 -2.11927)
(0.730967 0.610542 -3.08167)
(0.76614 0.897755 -2.76227)
(-0.0607314 0.72774 -3.13577)
(0.192632 1.28845 -2.48458)
(1.50697 0.715226 -1.83716)
(2.18415 0.455837 -0.275789)
(2.00638 0.0179177 -0.722895)
(2.04279 -0.255606 -2.0178)
(2.52938 -0.717964 -1.22951)
(2.22156 -0.648745 -1.30204)
(1.6794 -0.178989 -1.20299)
(2.39489 0.0743625 -1.01965)
(2.8984 0.591103 -0.240207)
(1.81308 1.14729 -1.90003)
(1.67437 0.773433 -2.64303)
(0.843384 0.290774 -2.78736)
(1.12815 0.541926 -2.10849)
(1.09684 0.0252176 -2.1022)
(0.80014 -0.666013 -1.68788)
(2.21255 0.499312 0.150376)
(2.09946 0.463608 -0.204818)
(2.06793 0.187282 -1.32627)
(2.62894 -0.577776 -1.20881)
(1.98215 -1.1864 -1.45127)
(1.23232 -1.30345 -1.49912)
(1.25519 -1.19029 -1.49836)
(1.49936 -0.844708 -1.212)
(1.66793 -0.398653 -1.03485)
(1.85975 -0.371102 -1.66403)
(1.66445 -0.175867 -1.92295)
(1.01651 -0.280548 -1.61552)
(0.743059 -0.640335 -1.86994)
(0.460004 -0.86849 -2.05377)
(0.0695929 -1.30496 -1.39929)
(1.88949 0.886636 -1.32287)
(1.91498 0.536465 -1.25759)
(1.83838 0.21532 -1.73042)
(2.23942 -0.462668 -1.42515)
(1.72738 -0.964941 -1.39034)
(1.09679 -1.46396 -1.31811)
(0.874104 -1.60394 -1.43943)
(0.698874 -2.04237 -1.13635)
(0.295333 -2.35995 -0.859301)
(0.895817 -1.70635 -0.910436)
(1.08525 -1.04187 -1.52932)
(0.729209 -1.12371 -1.19042)
(0.418952 -1.19536 -1.36157)
(0.0401945 -1.28386 -1.44713)
(-0.220846 -0.785065 -1.75475)
(0.0264049 2.2992 3.25557)
(-0.181575 2.47345 3.18728)
(0.236987 2.4753 3.27603)
(-0.109407 2.46767 3.22489)
(-0.148732 2.71637 3.08971)
(0.211711 2.68711 3.24552)
(0.111118 2.66319 3.12867)
(0.202664 2.64839 3.15199)
(-0.0558147 2.69244 3.08216)
(0.465336 2.74476 3.40485)
(0.026715 2.68585 3.22711)
(0.117502 2.82161 3.11481)
(0.124119 2.71131 3.249)
(-0.0871014 2.75742 3.19711)
(0.808818 2.50942 3.60416)
(0.0271052 2.70491 3.34851)
(0.430486 2.7885 3.09444)
(0.236209 2.75301 3.1388)
(0.32937 2.96102 3.20803)
(0.446781 2.85061 3.24175)
(0.649114 2.5417 3.37919)
(0.111617 2.61435 3.20771)
(0.24665 2.66225 3.15988)
(0.431097 2.83133 3.05839)
(0.737196 2.83944 3.24701)
(0.428397 2.8414 3.53255)
(0.756302 2.71263 2.9827)
(0.329248 1.56588 2.71684)
(0.466471 1.84578 2.51727)
(0.222853 2.09547 2.76379)
(0.892311 2.33818 2.6069)
(0.657144 2.45234 2.92694)
(0.702735 2.5301 3.08007)
(0.823464 2.41143 3.00108)
(0.805576 1.8724 1.39129)
(0.279626 0.684035 0.916599)
(0.35245 1.0936 0.910349)
(0.494795 1.60931 1.38391)
(1.03765 2.10187 1.41811)
(1.00015 2.0735 1.66553)
(0.981773 2.01767 1.59401)
(1.03635 1.52961 1.36051)
(0.723283 2.01208 0.648493)
(0.39748 1.69812 -0.260628)
(0.758741 0.393888 -0.868951)
(1.03698 0.889225 -0.817648)
(1.27302 1.51485 -0.31296)
(1.39445 1.68723 0.254907)
(0.919006 1.72958 0.139762)
(1.45269 1.40124 0.181024)
(1.28899 1.42901 0.132395)
(0.678894 1.59088 -0.0205219)
(-0.0911935 1.43885 -0.90343)
(-0.771673 0.568679 -1.73103)
(1.34256 0.509858 -1.88402)
(1.66262 0.701956 -1.32791)
(1.47965 1.26087 -0.849469)
(1.40296 1.45785 -0.614989)
(1.48147 1.25804 -0.66954)
(1.39481 1.06237 -1.15445)
(1.63332 0.924832 -1.84036)
(0.725388 0.657109 -1.81123)
(-0.589564 0.761106 -1.68282)
(-0.598794 0.585049 -1.53696)
(-0.543933 0.530888 -2.61418)
(2.00361 -0.0865276 -1.36812)
(2.35232 -0.205032 -1.01219)
(2.19741 0.282436 -1.11803)
(1.99127 1.10894 -0.580553)
(1.43008 1.33249 -0.990013)
(1.07849 1.08471 -2.09578)
(1.37153 0.809606 -2.38416)
(0.78026 0.170331 -2.57283)
(-0.100121 0.206546 -2.41867)
(0.287914 0.316704 -2.67106)
(-1.2093 0.105648 -2.06222)
(-0.905138 0.935673 -2.68636)
(2.29973 0.122181 -0.983826)
(2.58023 -0.278651 -0.836351)
(2.428 0.0465917 -1.4496)
(2.33175 0.400508 -0.955501)
(1.77794 0.9693 -1.13198)
(0.795334 0.914891 -2.24309)
(1.81446 0.675943 -2.2387)
(1.37678 0.631889 -2.88827)
(-0.97365 -0.183887 -3.25031)
(1.09553 0.56526 -2.73216)
(-1.28801 0.590832 -2.71207)
(-0.262786 1.01562 -2.45667)
(0.408263 1.51371 -2.36101)
(2.54494 0.273304 -0.0755557)
(2.62731 -0.252958 -0.238899)
(2.64119 -0.192311 -1.50678)
(2.54275 -0.250825 -1.06669)
(2.31618 0.156703 -0.913891)
(1.7248 0.901263 -1.1044)
(2.05182 1.13505 -1.4788)
(1.72529 0.939913 -2.46695)
(1.02392 0.47944 -2.83316)
(0.757202 0.70672 -2.78769)
(-0.00296251 0.720536 -2.95365)
(-0.555301 1.11655 -2.50339)
(0.845673 0.973499 -2.34169)
(1.31421 0.0891561 -1.97366)
(2.22772 0.44253 -0.318359)
(2.00916 0.0383692 -0.71833)
(2.18944 -0.322404 -1.68041)
(2.55371 -0.698775 -1.16137)
(2.28283 -0.738556 -1.34089)
(1.72551 -0.277302 -1.2252)
(2.34444 0.0318293 -1.10311)
(2.53283 0.620045 -1.02205)
(1.70602 0.803198 -2.0263)
(1.59742 0.67897 -2.71264)
(0.390874 0.267737 -2.99343)
(0.994634 0.44983 -2.17312)
(0.888669 0.0314046 -2.18675)
(1.04459 -0.270938 -2.12566)
(0.530108 -0.897633 -2.00393)
(2.23011 0.511337 0.251392)
(2.09443 0.455989 -0.28391)
(2.00781 0.253281 -1.16923)
(2.64523 -0.590247 -1.13923)
(1.99397 -1.21664 -1.46415)
(1.31186 -1.37906 -1.4004)
(1.3524 -1.21331 -1.43673)
(1.53788 -0.820859 -1.17791)
(1.62973 -0.404008 -1.11465)
(1.87907 -0.427826 -1.69208)
(1.57312 -0.23705 -2.04847)
(0.925898 -0.280855 -1.73594)
(0.71938 -0.656439 -1.94497)
(0.436496 -0.804174 -2.08999)
(0.040339 -0.657372 -1.92838)
(-0.216222 -0.786421 -1.74128)
(1.90355 0.876033 -1.29654)
(1.95086 0.489877 -1.24155)
(1.84809 0.229307 -1.71418)
(2.27177 -0.46417 -1.40247)
(1.77092 -0.982357 -1.36845)
(1.08845 -1.44743 -1.28095)
(0.890893 -1.59286 -1.44444)
(0.715364 -1.99831 -1.13961)
(0.347507 -2.36422 -0.865673)
(0.927557 -1.71212 -0.91983)
(1.1157 -1.04845 -1.53913)
(0.742159 -1.11803 -1.21503)
(0.403669 -1.19617 -1.38074)
(0.0490241 -1.27376 -1.47245)
(-0.222982 -0.769498 -1.77635)
(-0.592888 -0.979658 -1.17447)
(-0.0462437 2.16843 3.03652)
(-0.2656 2.2759 3.18299)
(0.197029 2.22982 3.34589)
(0.0254633 2.33129 3.20381)
(-0.234372 2.48259 3.16642)
(0.30982 2.47198 3.35404)
(-0.0764244 2.49326 3.23208)
(-0.0680132 2.49434 3.17306)
(-0.0391605 2.65921 3.1509)
(0.357518 2.63606 3.24874)
(0.14746 2.66061 3.18563)
(0.100417 2.664 3.17573)
(0.123476 2.65955 3.20431)
(-0.444232 2.64241 3.22444)
(0.68365 2.65565 3.49572)
(0.633215 2.62872 3.30248)
(0.246599 2.75052 3.19007)
(0.131537 2.78528 3.23622)
(0.315961 2.67891 3.20778)
(0.330296 2.91841 3.18601)
(1.05571 2.56278 3.594)
(0.526033 2.70341 3.34961)
(0.573839 2.78762 3.07986)
(0.411822 2.72151 3.16063)
(0.386305 2.87964 3.2491)
(0.405291 2.83683 3.34984)
(0.210824 2.85185 3.52932)
(0.925997 2.52455 3.33722)
(0.308723 2.49356 3.3116)
(0.695087 2.60487 3.11245)
(0.644764 2.78372 2.95856)
(0.885224 2.85916 3.2242)
(0.577068 2.86545 3.534)
(0.993604 2.79303 3.58016)
(0.738366 2.6254 2.95132)
(0.6046 1.46829 2.5789)
(0.531251 1.73658 2.43825)
(0.30769 1.99578 2.71198)
(1.06924 2.26398 2.41624)
(0.818588 2.49689 2.79075)
(1.30251 2.32136 2.99472)
(1.04654 2.39738 2.77039)
(0.582606 2.14313 2.73858)
(0.47168 2.05965 0.615685)
(0.482396 0.747663 0.518016)
(0.70683 0.827978 0.622829)
(0.480565 1.46178 1.22152)
(1.05236 1.84746 1.42863)
(1.2445 2.16149 1.1687)
(1.16055 1.75922 1.63501)
(1.09633 1.43834 1.36154)
(0.872297 1.80305 0.893353)
(-0.0212147 2.12211 0.797618)
(-0.453058 1.31437 -0.693081)
(0.91072 0.142551 -1.01714)
(1.11788 0.741245 -0.943066)
(1.16778 1.5149 -0.277224)
(0.837247 1.94702 -0.200345)
(1.45011 1.27692 -0.282855)
(1.67654 1.19264 -0.0243381)
(1.63934 0.959824 0.261986)
(0.814532 1.4321 0.106637)
(-0.0315126 1.48843 -0.935293)
(-0.895875 1.05738 -0.708012)
(-0.624779 0.620049 -1.83036)
(1.51954 0.249564 -1.93001)
(1.78979 0.442865 -1.30459)
(1.68238 0.827883 -0.989818)
(1.65808 1.12875 -0.668897)
(1.56369 1.20819 -0.546226)
(1.39016 1.06689 -0.732785)
(1.43774 0.896049 -1.84713)
(0.607317 0.691773 -1.7271)
(-0.299057 0.86513 -1.56836)
(-0.306793 0.412597 -1.78407)
(-1.11977 0.584892 -1.60746)
(-1.08114 0.287955 -2.2075)
(2.03479 -0.207772 -1.51042)
(2.37041 -0.351637 -1.04753)
(2.25942 0.330062 -0.954818)
(1.36502 0.813527 -1.68897)
(1.79849 0.682756 -0.901115)
(1.40714 1.22493 -1.55613)
(1.8101 0.673854 -2.05513)
(0.918208 -0.0211491 -2.45997)
(0.287293 0.131482 -2.57953)
(0.128673 0.0745457 -2.77582)
(-1.15546 0.309464 -2.0126)
(-1.2593 0.990843 -1.91106)
(-0.045092 1.15982 -2.4912)
(2.23885 0.118869 -1.30128)
(2.49987 -0.320119 -1.15467)
(2.52433 -0.140629 -1.35615)
(2.18933 0.262941 -1.32322)
(1.91674 0.731262 -1.18918)
(2.07737 0.900299 -0.957402)
(1.97161 0.64156 -2.04296)
(1.24675 0.334519 -2.74946)
(-0.734943 -0.158358 -3.06713)
(0.63924 0.542176 -2.70579)
(-0.98632 0.50301 -2.85693)
(-0.195885 0.874276 -2.556)
(-0.62742 1.99295 -1.97895)
(0.988044 1.13502 -2.20944)
(2.59911 0.289801 -0.257713)
(2.65971 -0.417247 0.17987)
(2.60591 -0.184273 -1.56716)
(2.54738 -0.349727 -0.995518)