/*--------------------------------*- C++ -*----------------------------------*\
  =========                 |
  \\      /  F ield         | OpenFOAM: The Open Source CFD Toolbox
   \\    /   O peration     | Website:  https://openfoam.org
    \\  /    A nd           | Version:  7
     \\/     M anipulation  |
\*---------------------------------------------------------------------------*/
FoamFile
{
    version     2.0;
    format      ascii;
    class       volVectorField;
    location    "2";
    object      U_0;
}
// * * * * * * * * * * * * * * * * * * * * * * * * * * * * * * * * * * * * * //

dimensions      [0 1 -1 0 0 0 0];

internalField   nonuniform List<vector> 
18720
(
(1.77599 0.911907 -1.36666)
(1.33824 0.776983 -1.38739)
(1.82712 0.9232 -1.37547)
(1.72778 0.896347 -1.37647)
(1.745 0.681388 -1.23359)
(1.71556 0.855744 -1.6467)
(1.34143 0.808351 -1.59178)
(1.33804 0.733175 -1.20551)
(1.80637 0.703561 -1.65092)
(1.68974 0.681701 -1.18604)
(1.71804 0.892219 -1.39978)
(1.78235 0.681005 -1.26845)
(1.90611 0.113081 -1.80836)
(1.80798 0.755053 -1.53507)
(1.73755 0.812015 -1.87296)
(1.63022 0.845045 -1.44463)
(2.08698 0.259589 -1.85555)
(1.6502 0.683642 -1.82908)
(1.37753 0.720732 -1.08137)
(1.85785 0.692933 -1.54699)
(2.20104 0.0907789 -2.03016)
(1.90923 0.10772 -1.85581)
(1.74287 0.893031 -1.44555)
(1.79819 0.673689 -1.28847)
(1.91352 0.124206 -1.74078)
(1.99841 -0.485374 -1.70849)
(1.59164 1.10505 -0.875008)
(1.78293 0.795833 -1.57277)
(1.88321 0.732296 -1.43443)
(1.72998 0.518175 -1.42326)
(1.99271 0.300919 -1.94815)
(1.57946 0.862547 -1.17941)
(2.09053 0.288475 -1.80713)
(1.89123 -0.31277 -1.58264)
(2.15217 0.109745 -2.08267)
(1.59081 0.644733 -0.965188)
(1.82409 0.69326 -1.55294)
(2.2312 0.0830647 -1.97511)
(1.9442 -0.561804 -1.91781)
(1.95892 -0.485074 -1.70524)
(1.77618 0.880935 -1.48318)
(1.79248 0.671899 -1.30341)
(1.91689 0.131199 -1.66596)
(2.03723 -0.490148 -1.70019)
(1.50047 -0.96623 -1.3387)
(0.618155 1.55386 -0.547197)
(1.39128 1.22629 -0.897649)
(1.69544 0.932415 -0.938901)
(0.805383 1.22189 -0.707369)
(1.50155 0.663254 -1.42693)
(1.98018 0.648362 -1.36244)
(2.02354 0.422671 -1.41745)
(1.03585 0.519929 -0.765479)
(1.78494 -0.280465 -1.53648)
(1.63046 0.87601 -0.936999)
(2.1481 0.310639 -1.68805)
(2.00576 -0.363552 -1.61035)
(1.40756 -0.57786 -1.2523)
(1.87355 -0.546078 -1.94007)
(1.77816 0.562141 -0.910551)
(1.7859 0.693805 -1.60828)
(2.26012 0.0993458 -1.9087)
(2.02383 -0.57823 -1.88895)
(1.20407 -1.01272 -1.7822)
(1.48961 -0.958428 -1.34319)
(1.777 0.881629 -1.53572)
(1.78035 0.659957 -1.32375)
(1.91284 0.133055 -1.61515)
(2.06374 -0.484959 -1.70132)
(1.5212 -0.967017 -1.33045)
(0.988594 -1.42996 -1.40289)
(0.234611 1.91046 -0.749656)
(0.856142 1.5089 -0.520324)
(1.08954 1.35739 -0.725102)
(0.385049 1.6195 -0.268046)
(0.249182 1.33657 -0.666698)
(1.86595 0.820839 -0.868609)
(1.17757 1.14104 -0.708413)
(0.160677 1.37695 -0.589655)
(0.817268 0.620844 -0.679081)
(2.02788 0.629438 -1.26659)
(2.17981 0.348385 -1.53905)
(1.42494 0.382389 -0.94219)
(0.940594 0.939251 -0.563381)
(1.27137 -0.575789 -1.27655)
(1.83658 0.825557 -0.656007)
(2.14014 0.328779 -1.62479)
(2.08061 -0.380622 -1.64287)
(1.58144 -0.602371 -1.22019)
(0.946016 0.118256 -0.614741)
(1.10975 -1.00311 -1.84082)
(1.90236 0.498754 -0.854057)
(1.7862 0.695034 -1.5769)
(2.26621 0.0430759 -1.86574)
(2.09107 -0.618403 -1.89856)
(1.27286 -1.00199 -1.76696)
(0.741635 -1.25323 -1.76947)
(0.957468 -1.41965 -1.4534)
(1.76366 0.886399 -1.5739)
(1.78987 0.664372 -1.33166)
(1.9088 0.141595 -1.61479)
(2.10009 -0.494113 -1.67195)
(1.54458 -0.970919 -1.32282)
(1.00023 -1.45913 -1.38993)
(0.827751 -1.66903 -1.46765)
(-0.190776 1.36845 0.684814)
(0.055283 1.98614 -0.721335)
(0.362971 1.8077 -0.81957)
(0.18467 2.30519 -0.407777)
(0.814227 1.47838 -0.470551)
(1.08073 1.26592 -0.927759)
(0.952192 1.49449 -0.41306)
(0.092934 1.9971 -0.632953)
(-0.0207601 1.42589 -0.600047)
(1.9436 0.648007 -0.924606)
(1.74151 0.854339 -0.878986)
(0.708812 1.2922 -0.704482)
(0.0668607 1.75108 -0.679172)
(0.797495 1.04721 -0.464596)
(2.06318 0.600575 -1.10004)
(2.3798 0.267484 -1.45406)
(1.80539 0.222238 -1.11624)
(1.05608 0.850513 -0.639545)
(0.525513 1.22579 -0.387986)
(0.713192 0.0863715 -0.650727)
(2.0135 0.754773 -0.431403)
(2.14622 0.311335 -1.54837)
(2.08233 -0.383189 -1.7407)
(1.81877 -0.634762 -1.19735)
(1.11347 0.104855 -0.604491)
(0.64206 0.168139 -0.441364)
(0.729575 -1.25125 -1.77867)
(1.97663 0.457409 -0.750103)
(1.87621 0.670903 -1.35699)
(2.30346 0.0492128 -1.77764)
(2.1734 -0.561652 -1.93528)
(1.33162 -1.03872 -1.75009)
(0.820866 -1.23539 -1.74932)
(0.477626 -1.48709 -1.77305)
(0.801647 -1.67533 -1.46768)
(1.75681 0.89133 -1.57716)
(1.82436 0.643109 -1.3221)
(1.89496 0.171369 -1.66256)
(2.12602 -0.498856 -1.6299)
(1.58168 -0.971744 -1.3155)
(1.03233 -1.44913 -1.37134)
(0.83825 -1.65809 -1.47692)
(0.359565 -2.13329 -1.13301)
(-0.44122 1.64605 2.19624)
(-0.237682 1.54358 0.994748)
(-0.0896686 1.43968 0.171912)
(0.0420748 1.96623 0.336422)
(-0.00790963 2.24561 -0.376613)
(0.453042 1.72647 -1.03474)
(1.2678 1.86872 -0.522109)
(0.214819 2.35224 -0.505406)
(-0.124273 1.99112 -0.616652)
(1.25685 1.04027 -1.07664)
(1.21883 1.44367 -0.406376)
(0.569402 1.96878 -0.605687)
(0.298076 2.40142 -0.991374)
(-0.141717 1.8127 -0.694404)
(2.01425 0.489115 -0.927656)
(1.92179 0.765854 -1.14162)
(1.1693 1.17693 -0.756853)
(0.423074 1.67747 -0.641371)
(0.544542 2.11309 -0.617769)
(0.610168 1.17328 -0.155057)
(2.09429 0.552165 -0.902223)
(2.43655 0.224158 -1.39841)
(2.00629 0.167352 -1.24602)
(1.20038 0.716053 -0.713803)
(0.866183 1.08371 -0.427725)
(0.858158 1.51967 -0.678874)
(0.453288 0.153521 -0.460565)
(2.04151 0.722501 -0.333655)
(2.15339 0.298052 -1.43773)
(2.0635 -0.327156 -1.84414)
(2.07402 -0.702045 -1.16927)
(1.24291 0.0787304 -0.641849)
(0.834538 0.166061 -0.513227)
(0.875537 0.149669 -0.814732)
(0.841379 -1.48345 -1.67935)
(2.03796 0.436128 -0.604761)
(1.96672 0.646664 -1.10664)
(2.35782 0.00183066 -1.61203)
(2.24521 -0.588118 -1.94286)
(1.42647 -1.05748 -1.71387)
(0.884958 -1.25247 -1.70981)
(0.836935 -1.43345 -1.65668)
(0.60664 -1.25891 -1.31404)
(0.491667 -2.1558 -1.1513)
(1.7642 0.897007 -1.56436)
(1.86866 0.614885 -1.30295)
(1.88897 0.172203 -1.70283)
(2.1469 -0.491768 -1.57753)
(1.63178 -0.978629 -1.29879)
(1.06402 -1.45115 -1.34713)
(0.842734 -1.66047 -1.46581)
(0.481049 -2.11103 -1.10777)
(0.131133 -2.52059 -0.838774)
(-0.796198 2.42536 2.76946)
(-0.919955 1.37408 2.58239)
(-0.205431 1.14316 2.26258)
(0.276054 1.92844 1.95387)
(-0.106848 2.0437 0.44893)
(-0.0455418 1.22541 0.369067)
(0.266785 1.91787 0.188739)
(0.13359 2.04361 0.465442)
(0.0584729 2.3483 -0.480882)
(0.711542 1.52884 -1.18833)
(0.293192 2.09808 -0.489637)
(0.391307 2.25851 -0.495822)
(0.374831 2.15985 -0.503268)
(-0.367041 2.33268 -1.27163)
(1.42703 0.924941 -1.0667)
(1.58059 1.13535 -0.676103)
(1.39521 1.45365 -0.688085)
(0.50956 2.21735 -0.892046)
(0.297493 2.18768 -1.53542)
(0.516608 2.24031 -0.657034)
(2.06081 0.38608 -0.868537)
(2.23512 0.489515 -1.1225)
(1.55207 1.05879 -0.783521)
(0.99041 1.49634 -0.650617)
(0.794402 1.99534 -0.675832)
(0.593519 2.18619 -1.71151)
(0.655515 1.59719 -0.542282)
(2.11639 0.509181 -0.669239)
(2.44638 0.182057 -1.34019)
(2.18741 0.092625 -1.25724)
(1.40115 0.645015 -0.747376)
(0.913194 1.06749 -0.631347)
(1.09396 1.43544 -0.71047)
(1.29874 1.80072 -1.16256)
(0.742558 0.0925965 -0.907789)
(2.05533 0.654998 -0.0603986)
(2.14705 0.286566 -1.32355)
(2.03734 -0.287247 -1.92784)
(2.24935 -0.759415 -1.16359)
(1.35861 0.0147415 -0.718939)
(1.03615 0.130825 -0.658776)
(1.11024 0.139231 -0.81952)
(1.4757 1.02456 -1.16475)
(0.21089 -1.40663 -1.40596)
(2.11889 0.390555 -0.472456)
(2.03342 0.618869 -0.886347)
(2.39714 0.0709547 -1.41969)
(2.33548 -0.588258 -1.90161)
(1.54036 -1.07683 -1.67076)
(0.907591 -1.24712 -1.70915)
(0.889914 -1.41476 -1.65112)
(0.627399 -1.25933 -1.32013)
(0.657366 -0.514607 -1.25086)
(0.145688 -2.54672 -0.841873)
(1.79847 0.894205 -1.49664)
(1.83697 0.635116 -1.35369)
(1.90491 0.170825 -1.70089)
(2.14639 -0.474221 -1.56465)
(1.67701 -0.979646 -1.28153)
(1.08312 -1.45423 -1.33084)
(0.849021 -1.65867 -1.46036)
(0.511688 -2.10739 -1.11061)
(0.12813 -2.44838 -0.849162)
(0.627372 -1.78155 -0.813191)
(-0.518003 2.66202 3.35913)
(-0.450479 2.52095 2.9896)
(-0.214754 2.1829 2.83553)
(-0.0756725 2.38813 2.85618)
(-0.215552 2.11798 2.2015)
(-0.519747 1.3854 1.88303)
(0.274741 1.81462 1.74174)
(0.3219 2.11623 1.90054)
(-0.0672364 1.91564 0.611979)
(0.0451913 1.12458 0.211612)
(0.26531 1.78463 0.351489)
(0.333746 2.08678 0.408791)
(0.0439565 2.27555 0.682741)
(-0.0164544 2.30792 -0.732124)
(0.826017 1.35507 -1.33569)
(1.05631 1.83136 -0.768295)
(0.383491 2.17553 -0.591289)
(0.511565 2.05972 -0.573435)
(0.521265 1.88621 -1.07122)
(0.220028 2.37781 -1.4632)
(1.48221 0.72188 -1.21438)
(1.81029 1.01689 -0.769728)
(1.09565 1.57549 -0.701851)
(0.261951 2.05844 -0.984526)
(0.34728 2.20156 -1.50762)
(1.29245 1.66893 -2.141)
(0.601143 2.15234 -1.52644)
(2.09002 0.281276 -0.783306)
(2.34029 0.382016 -1.05852)
(1.8616 0.852827 -1.07044)
(1.2666 1.29489 -0.823388)
(1.013 1.93575 -0.779756)
(0.736943 2.21707 -1.81101)
(1.58936 1.55199 -2.49877)
(1.37684 1.75644 -0.82383)
(2.13548 0.508386 -0.591127)
(2.49615 0.121763 -1.15928)
(2.33675 0.0428026 -1.29231)
(1.6944 0.460521 -0.806002)
(1.10296 1.02389 -0.70564)
(1.13838 1.51547 -0.758688)
(1.66745 1.78479 -1.08245)
(1.47969 2.05394 -1.91308)
(1.19036 1.0588 -1.25587)
(2.02506 0.63652 0.162285)
(2.17394 0.235507 -1.09348)
(2.11567 -0.319398 -1.84417)
(2.38698 -0.812639 -1.14044)
(1.46893 -0.0634137 -0.815431)
(1.20142 0.0781113 -0.799942)
(1.28652 0.148561 -0.929613)
(1.70518 1.03049 -1.15184)
(1.4257 1.7506 -1.91352)
(0.52174 -0.559965 -1.27806)
(2.16442 0.369384 -0.302706)
(2.09405 0.585689 -0.639273)
(2.28798 0.0419806 -1.48059)
(2.41436 -0.591378 -1.78508)
(1.65962 -1.11796 -1.62274)
(0.9785 -1.25236 -1.6672)
(0.864868 -1.37249 -1.658)
(0.957682 -1.12273 -1.22263)
(0.916704 -0.418381 -1.1897)
(1.5658 -0.314814 -1.07478)
(0.588747 -1.79467 -0.781546)
(1.79857 0.87763 -1.46383)
(1.84579 0.626905 -1.35033)
(1.90043 0.170559 -1.68725)
(2.13538 -0.451895 -1.5857)
(1.70985 -0.989093 -1.25021)
(1.08611 -1.47076 -1.32568)
(0.857244 -1.63826 -1.46276)
(0.559106 -2.08061 -1.12093)
(0.215191 -2.42676 -0.858136)
(0.73066 -1.73321 -0.842858)
(1.03068 -1.0736 -1.47801)
(-0.312611 2.75175 3.25543)
(-0.654863 2.61306 3.36567)
(-0.411435 2.66591 3.35785)
(-0.0996015 2.71464 3.11577)
(-0.638117 2.52024 2.92406)
(-0.0570035 2.06698 2.8383)
(-0.193067 2.27342 2.77496)
(0.142065 2.49215 2.83603)
(0.160734 2.34115 1.97245)
(-0.133368 1.1891 1.76715)
(0.0168732 1.67324 1.76339)
(0.406393 2.11968 1.719)
(0.444946 2.10487 2.00887)
(0.17443 2.30441 0.194654)
(0.168178 1.03199 -0.0154398)
(0.48675 1.68412 0.0148123)
(0.488589 2.04572 0.393166)
(0.489647 2.24843 0.270439)
(0.599136 2.10574 0.0079751)
(0.510914 2.01478 -1.26286)
(0.912018 1.16261 -1.48334)
(1.32287 1.40574 -1.06073)
(1.16064 1.87307 -0.628545)
(0.732015 2.10822 -0.4911)
(0.521928 1.86765 -1.17878)
(1.67712 1.32474 -2.02748)
(1.42069 1.68237 -2.08893)
(1.57926 0.545946 -1.24245)
(2.1094 0.638588 -0.84127)
(1.70685 1.20679 -0.822055)
(1.28019 1.86255 -0.60758)
(1.14466 1.86226 -1.54443)
(1.25382 1.66086 -2.15592)
(1.61164 1.21076 -2.57121)
(1.88812 1.61242 -2.09623)
(2.07263 0.220543 -0.750642)
(2.39573 0.230711 -1.04312)
(2.0631 0.72519 -1.2696)
(1.66632 1.13781 -0.865224)
(1.33931 1.59653 -0.971786)
(1.7455 1.54133 -1.73812)
(1.6682 1.45049 -2.5022)
(1.55429 1.16756 -2.76287)
(1.53654 1.97633 -1.82839)
(2.27008 0.433729 -0.384977)
(2.50511 0.0409731 -1.07756)
(2.36701 -0.0215592 -1.48852)
(1.96829 0.336183 -0.94558)
(1.45738 0.857165 -0.687671)
(1.36435 1.35267 -0.939684)
(2.04504 1.59377 -1.00069)
(1.65156 1.88161 -1.99406)
(1.30307 1.56942 -2.52095)
(1.35699 1.77311 -1.84519)
(2.01334 0.587994 0.28731)
(2.14541 0.16706 -0.896832)
(2.07877 -0.34153 -1.96553)
(2.46272 -0.815183 -1.20431)
(1.60746 -0.135943 -0.921397)
(1.36529 0.0190355 -0.962476)
(1.55586 0.172165 -1.05615)
(1.97803 0.998716 -1.07055)
(1.51968 1.74888 -1.90835)
(1.66303 1.24114 -2.46392)
(1.28774 -0.375949 -0.989974)
(2.18605 0.387977 0.140199)
(2.09837 0.54322 -0.445527)
(2.25708 0.0737528 -1.5012)
(2.48681 -0.600348 -1.57577)
(1.77556 -1.15334 -1.5752)
(1.05536 -1.26817 -1.61226)
(1.03769 -1.32776 -1.56996)
(1.11989 -1.0763 -1.19108)
(1.20724 -0.383025 -1.12639)
(1.77715 -0.302182 -1.21017)
(1.73641 -0.112117 -1.68372)
(1.02753 -1.11301 -1.44756)
(1.82708 0.892919 -1.40181)
(1.8594 0.613439 -1.3142)
(1.88667 0.192036 -1.68909)
(2.15725 -0.440279 -1.57238)
(1.68977 -0.984007 -1.26915)
(1.08894 -1.47294 -1.31877)
(0.86015 -1.60437 -1.43213)
(0.618965 -2.086 -1.13465)
(0.263967 -2.45065 -0.864618)
(0.777511 -1.72554 -0.864652)
(1.02567 -1.07375 -1.49206)
(0.715733 -1.15497 -1.1364)
(-0.0584068 2.72686 3.2156)
(-0.447978 2.70635 3.19292)
(-0.0269967 2.76668 3.31428)
(-0.193334 2.75454 3.09175)
(-0.520582 2.70145 3.17081)
(-0.12081 2.56415 3.39949)
(-0.126738 2.6833 3.14389)
(0.108514 2.69435 3.17929)
(-0.12316 2.60118 2.8996)
(-0.147038 1.9954 2.82823)
(-0.0476156 2.23479 2.72787)
(0.12514 2.44988 2.75671)
(0.376375 2.41693 2.88787)
(0.328852 2.12433 1.86294)
(0.00272845 1.1399 1.50931)
(0.297805 1.44125 1.61758)
(0.299504 2.05309 1.75353)
(0.616451 2.10465 1.74835)
(0.568416 2.28242 1.66989)
(0.526803 2.26964 0.0987621)
(0.323442 0.891728 -0.172701)
(0.713581 1.5126 -0.1666)
(0.660432 1.98691 0.364348)
(0.56478 2.15383 0.29357)
(0.701277 2.10649 0.0583831)
(1.32679 1.69525 -0.227261)
(1.20172 1.76618 -2.04805)
(1.12067 1.0083 -1.55133)
(1.19284 1.49354 -0.832279)
(0.864247 1.87726 -0.607108)
(1.00123 1.87872 -0.603854)
(1.31642 1.57627 -0.690849)
(1.129 1.5198 -2.00051)
(1.19236 1.32168 -2.17789)
(1.43714 1.4771 -2.66685)
(1.62683 0.400709 -1.3006)
(2.16226 0.465338 -0.919825)
(1.85955 1.024 -0.844952)
(1.17649 1.79374 -0.697471)
(0.858457 1.78041 -1.26007)
(1.31454 1.46767 -1.96671)
(1.6365 1.16796 -2.48102)
(0.969131 0.577004 -2.7202)
(1.4736 1.32231 -2.82426)
(2.13167 0.227796 -0.65003)
(2.47635 0.0777776 -0.909578)
(2.24753 0.524976 -1.36827)
(1.60235 1.05238 -1.16671)
(0.784562 1.74899 -1.23711)
(0.93688 1.83235 -1.56636)
(1.67697 1.38151 -2.44086)
(1.80165 1.08942 -2.69554)
(-0.181024 0.283879 -3.35566)
(1.3616 1.62794 -2.436)
(2.28366 0.404334 -0.36602)
(2.53372 -0.0350412 -0.901083)
(2.53095 -0.0422604 -1.42227)
(2.32366 0.0138067 -1.03622)
(1.58165 0.693748 -0.828213)
(1.63396 1.25211 -0.76438)
(2.08088 1.57778 -1.15533)
(2.11142 1.58785 -1.81611)
(1.2338 1.25195 -2.71425)
(0.800024 1.06759 -2.75184)
(1.64604 1.31168 -2.38593)
(2.03098 0.548338 0.269004)
(2.10923 0.109841 -0.697898)
(1.99604 -0.199299 -2.17181)
(2.50389 -0.786273 -1.27932)
(1.8193 -0.340616 -1.06906)
(1.49657 -0.0593406 -1.10937)
(1.86244 0.143467 -1.10953)
(2.58708 0.825807 -0.460718)
(1.77862 1.48167 -1.88923)
(1.71307 1.15625 -2.49951)
(1.6715 0.474247 -2.33756)
(1.83121 -0.135573 -1.61406)
(2.17531 0.419682 0.256725)
(2.09126 0.551969 -0.272325)
(2.20739 0.0801887 -1.50413)
(2.52499 -0.5859 -1.40037)
(1.86015 -1.18615 -1.5186)
(1.10333 -1.26007 -1.59368)
(1.13662 -1.30226 -1.53109)
(1.27784 -0.993384 -1.19395)
(1.45815 -0.371563 -1.08988)
(1.87936 -0.302769 -1.37992)
(1.69281 -0.111698 -1.732)
(1.28967 -0.293863 -1.40324)
(0.715748 -1.20084 -1.10985)
(1.83025 0.896664 -1.38707)
(1.83466 0.620794 -1.31941)
(1.82051 0.231684 -1.76575)
(2.19392 -0.454094 -1.53645)
(1.66768 -0.971301 -1.32153)
(1.10926 -1.45289 -1.31253)
(0.864705 -1.58256 -1.42978)
(0.642141 -2.0663 -1.13917)
(0.205813 -2.37095 -0.837519)
(0.821644 -1.70774 -0.884609)
(1.03832 -1.03866 -1.52482)
(0.730775 -1.15739 -1.12808)
(0.415593 -1.22303 -1.34937)
(-0.0172931 2.65582 3.15981)
(-0.231655 2.59513 3.22416)
(-0.0251728 2.77259 3.25264)
(-0.0645454 2.69714 3.14661)
(-0.360537 2.73855 3.10997)
(0.197688 2.76417 3.39545)
(-0.0130577 2.76801 3.10143)
(0.0737838 2.84677 3.06488)
(-0.0226637 2.74551 3.16181)
(0.131803 2.5044 3.42624)
(0.193077 2.7103 3.12307)
(0.153695 2.67248 3.16098)
(0.133196 2.93434 3.10142)
(0.259103 2.50093 2.90918)
(0.168057 1.78506 2.91973)
(0.0199588 2.20291 2.59871)
(0.273251 2.33097 2.77393)
(0.420285 2.43838 2.78767)
(0.536886 2.43771 2.9275)
(0.461236 2.33414 1.68449)
(0.208895 0.945509 1.22317)
(0.248796 1.37354 1.47363)
(0.493158 1.94267 1.67642)
(0.648456 2.02681 1.76252)
(0.734706 2.23856 1.66104)
(0.881213 2.27167 1.40336)
(1.18835 1.90268 -0.266865)
(0.610232 0.760991 -0.478397)
(0.778603 1.31518 -0.253065)
(0.783447 1.95039 0.356776)
(0.359733 2.12873 0.532523)
(0.937 1.85568 0.0537647)
(1.34852 1.64252 -0.0376385)
(1.08517 1.58008 0.0214153)
(1.3928 1.23973 -2.30009)
(1.18479 0.838662 -1.69218)
(1.41296 1.1357 -1.14818)
(1.36115 1.63968 -0.781687)
(1.11113 1.66132 -0.58244)
(1.00348 1.4031 -0.618452)
(1.37034 1.27005 -1.73259)
(1.54445 1.09158 -2.05366)
(0.561445 0.850014 -2.1218)
(0.590711 0.543065 -2.96151)
(1.6859 0.219023 -1.40559)
(2.27959 0.245336 -0.878277)
(2.08262 0.831826 -0.870976)
(1.77968 1.16394 -0.685322)
(0.893007 1.62649 -1.23964)
(1.46052 1.39773 -1.80035)
(1.65161 1.06879 -2.37824)
(1.11711 0.336609 -2.59743)
(-0.0859971 0.43426 -2.63641)
(-0.0792872 0.423522 -3.41927)
(2.01259 0.22683 -1.04999)
(2.52956 -0.091135 -0.806416)
(2.31107 0.368316 -1.41618)
(1.98487 0.839678 -1.07489)
(1.44618 1.28737 -1.13314)
(1.39825 1.46967 -1.53895)
(1.66388 1.22143 -2.53578)
(1.78804 0.948418 -2.74133)
(-0.406235 0.0578176 -3.39159)
(0.819774 0.605321 -2.70705)
(0.869261 1.15236 -2.68858)
(2.27813 0.410003 -0.308353)
(2.5596 -0.111567 -0.766888)
(2.49925 -0.102572 -1.57677)
(2.48273 -0.129874 -1.11592)
(1.703 0.649474 -0.933026)
(1.7084 1.18805 -0.842687)
(2.16293 1.48256 -1.193)
(2.06767 1.69248 -1.84745)
(1.0496 1.083 -2.85638)
(0.698481 0.909209 -2.83035)
(0.462931 1.30982 -2.91044)
(1.88758 0.612909 -2.18841)
(2.11192 0.495136 -0.047277)
(2.03535 0.0497606 -0.712755)
(1.9735 -0.214342 -2.22496)
(2.58291 -0.818155 -1.17216)
(2.05436 -0.527337 -1.2235)
(1.60467 -0.117962 -1.16893)
(2.14996 0.162477 -1.08205)
(2.90626 0.697975 -0.0445701)
(1.7378 1.40491 -1.91632)
(1.6991 0.823078 -2.62752)
(1.424 0.425375 -2.4735)
(1.34035 0.644157 -1.95676)
(1.39121 -0.318883 -1.39516)
(2.18814 0.437246 0.234955)
(2.10153 0.515799 -0.181763)
(2.19973 0.0832537 -1.36769)
(2.56864 -0.580272 -1.28238)
(1.91685 -1.18556 -1.4785)
(1.14007 -1.28895 -1.55535)
(1.17368 -1.26832 -1.52286)
(1.39102 -0.91801 -1.22246)
(1.64048 -0.406583 -1.04478)
(1.87869 -0.32967 -1.55076)
(1.70151 -0.12621 -1.80056)
(1.11464 -0.284848 -1.51984)
(0.747816 -0.649565 -1.7897)
(0.402429 -1.21038 -1.35062)
(1.85444 0.907524 -1.36049)
(1.83249 0.621982 -1.3202)
(1.80876 0.233689 -1.77623)
(2.22059 -0.450711 -1.49745)
(1.68224 -0.964807 -1.38842)
(1.09221 -1.4779 -1.32132)
(0.85725 -1.61983 -1.43338)
(0.667001 -2.04608 -1.13699)
(0.288184 -2.28132 -0.85929)
(0.871839 -1.69613 -0.902137)
(1.05764 -1.04279 -1.52775)
(0.729464 -1.11653 -1.1724)
(0.416659 -1.21387 -1.35092)
(0.0572368 -1.2901 -1.42651)
(0.0524481 2.44097 3.24862)
(-0.251788 2.61963 3.17938)
(0.23079 2.73764 3.19258)
(-0.0237783 2.68175 3.11212)
(-0.397946 2.63331 3.12572)
(0.271928 2.68832 3.3415)
(0.0213568 2.78655 3.1272)
(0.124555 2.82005 3.06429)
(-0.140083 2.85 3.07408)
(0.158827 2.792 3.45115)
(0.161335 2.66794 3.2399)
(0.249761 2.80801 3.07165)
(0.0915984 2.79811 3.16294)
(-0.174774 2.93982 3.0744)
(0.562433 2.45065 3.45171)
(0.116577 2.6396 3.18529)
(0.176663 2.70761 3.15062)
(0.523088 2.80252 3.13029)
(0.429603 2.8695 3.27137)
(0.374826 2.35978 3.10817)
(0.251413 1.67247 2.83608)
(0.256734 2.02295 2.57022)
(0.26523 2.22052 2.75863)
(0.492744 2.45804 2.70605)
(0.627463 2.40895 2.95931)
(0.890487 2.54467 3.02017)
(0.644335 2.45826 1.43153)
(0.382726 1.00863 0.866019)
(0.323169 1.17257 1.30102)
(0.476768 1.83638 1.53815)
(0.812981 2.02997 1.88617)
(0.844647 2.15581 1.64813)
(0.930435 2.09322 1.5586)
(0.9856 1.69964 1.34987)
(1.34632 1.56811 -0.197817)
(0.623471 0.54477 -0.542976)
(0.963016 1.07069 -0.745175)
(1.10922 1.76158 -0.211015)
(0.745705 2.07616 0.141498)
(0.715814 1.77522 0.303432)
(1.56849 1.4138 0.135733)
(1.2381 1.42494 0.0451956)
(0.557419 1.63735 -0.275516)
(0.464783 0.931311 -2.18592)
(1.24988 0.673837 -1.81482)
(1.53762 0.911934 -1.23937)
(1.61803 1.13821 -1.05439)
(1.28337 1.57099 -0.605798)
(1.07345 1.35397 -0.624875)
(1.36756 1.2301 -1.36057)
(1.46443 1.08185 -1.98029)
(0.601811 0.793711 -2.01421)
(-0.797023 0.696245 -1.69081)
(-0.179639 0.590503 -2.57646)
(1.8804 0.0334205 -1.32076)
(2.30905 0.0158011 -1.00256)
(2.16215 0.779799 -0.948057)
(1.54632 1.35391 -0.637107)
(1.07213 1.44592 -1.30778)
(1.35157 1.40175 -1.9034)
(1.60977 0.907484 -2.34593)
(1.12549 0.225866 -2.44149)
(-0.087521 0.28432 -2.59364)
(-0.355728 0.378813 -2.57482)
(0.858465 0.667413 -2.77456)
(2.16872 0.180278 -0.979399)
(2.56733 -0.206294 -0.758512)
(2.38313 0.261819 -1.39405)
(2.16635 0.591586 -1.09867)
(1.45035 1.21238 -1.17553)
(1.4216 1.62489 -1.42955)
(1.5634 0.902562 -2.56117)
(1.51534 0.613526 -2.97212)
(-0.751582 -0.107411 -3.32284)
(1.1336 0.542821 -2.69178)
(-1.09977 0.706445 -2.67763)
(0.591507 1.26324 -3.01478)
(2.37936 0.362121 -0.0759723)
(2.60897 -0.189599 -0.500604)
(2.62914 -0.194768 -1.4503)
(2.48081 -0.203654 -1.17377)
(2.04343 0.420788 -0.873388)
(1.72216 0.860522 -1.14696)
(2.11132 1.12727 -1.37692)
(2.17723 1.12598 -2.11051)
(0.750407 0.622921 -3.0666)
(0.775624 0.899411 -2.75802)
(-0.0406505 0.73758 -3.1353)
(0.204907 1.29204 -2.48355)
(1.51203 0.711255 -1.83439)
(2.18279 0.451575 -0.262694)
(2.01093 0.0108982 -0.715371)
(2.03337 -0.25818 -2.03994)
(2.51948 -0.724191 -1.23949)
(2.22111 -0.651597 -1.29895)
(1.67782 -0.180148 -1.20045)
(2.38982 0.0728995 -1.01923)
(2.92477 0.583121 -0.190655)
(1.81992 1.15579 -1.89489)
(1.68166 0.769168 -2.63645)
(0.855305 0.286499 -2.78178)
(1.13377 0.539653 -2.10618)
(1.09806 0.0255681 -2.09879)
(0.793277 -0.668608 -1.68853)
(2.21438 0.482041 0.155823)
(2.10233 0.451359 -0.199662)
(2.07871 0.169525 -1.33869)
(2.62446 -0.584961 -1.21147)
(1.98706 -1.18569 -1.4503)
(1.2316 -1.30601 -1.49571)
(1.25513 -1.19126 -1.49829)
(1.49872 -0.844828 -1.21618)
(1.67013 -0.401741 -1.03508)
(1.85918 -0.375721 -1.66159)
(1.66347 -0.182423 -1.92002)
(1.01497 -0.282052 -1.61544)
(0.742406 -0.641245 -1.86626)
(0.455922 -0.871389 -2.05155)
(0.0680088 -1.30523 -1.40029)
(1.87319 0.895445 -1.34243)
(1.88905 0.569301 -1.27116)
(1.83426 0.220063 -1.73826)
(2.24462 -0.463897 -1.42825)
(1.73023 -0.969722 -1.39436)
(1.09105 -1.46487 -1.31709)
(0.876006 -1.59809 -1.44173)
(0.698504 -2.0291 -1.14193)
(0.320069 -2.37944 -0.865426)
(0.904638 -1.71127 -0.908915)
(1.0894 -1.0453 -1.52813)
(0.724754 -1.12453 -1.19749)
(0.414458 -1.19902 -1.36029)
(0.03392 -1.28434 -1.44875)
(-0.224108 -0.780244 -1.75848)
(0.027497 2.29984 3.25323)
(-0.183616 2.47254 3.186)
(0.236881 2.47441 3.27359)
(-0.108757 2.46907 3.22231)
(-0.148542 2.71582 3.08907)
(0.21249 2.68775 3.24348)
(0.113728 2.66318 3.12704)
(0.211014 2.64815 3.15214)
(-0.0601777 2.6895 3.08235)
(0.463216 2.74338 3.39994)
(0.0208591 2.69003 3.2224)
(0.121617 2.82298 3.11307)
(0.120535 2.70748 3.24968)
(-0.0805753 2.75917 3.19714)
(0.791868 2.51776 3.59694)
(0.0339972 2.70527 3.34457)
(0.428662 2.78683 3.09549)
(0.239181 2.75376 3.13971)
(0.33783 2.96158 3.2074)
(0.455397 2.8485 3.2444)
(0.652257 2.54004 3.38139)
(0.120553 2.61983 3.2044)
(0.242839 2.66494 3.16021)
(0.438349 2.83316 3.06134)
(0.732338 2.84167 3.2488)
(0.428658 2.84086 3.53296)
(0.76398 2.72243 2.97626)
(0.330799 1.57273 2.72508)
(0.468256 1.85611 2.52285)
(0.226835 2.10041 2.76768)
(0.887426 2.34411 2.61511)
(0.663609 2.45003 2.93317)
(0.706417 2.53488 3.07823)
(0.825969 2.41427 2.99934)
(0.803628 1.87581 1.39197)
(0.274562 0.691568 0.934268)
(0.346152 1.1032 0.925711)
(0.499442 1.61797 1.39496)
(1.04174 2.10423 1.42707)
(0.997994 2.07661 1.67359)
(0.980819 2.02213 1.59433)
(1.04141 1.53131 1.35549)
(0.725398 2.01044 0.641037)
(0.399485 1.69513 -0.263251)
(0.751371 0.400702 -0.852712)
(1.03173 0.894398 -0.805132)
(1.27422 1.51741 -0.304991)
(1.38711 1.69326 0.266736)
(0.916849 1.73285 0.145574)
(1.45273 1.40383 0.183621)
(1.29018 1.4284 0.130463)
(0.679371 1.58979 -0.029583)
(-0.0910887 1.43806 -0.900431)
(-0.771656 0.562315 -1.73445)
(1.33258 0.519208 -1.88331)
(1.6531 0.713 -1.32946)
(1.47413 1.26724 -0.846794)
(1.39689 1.46664 -0.612565)
(1.47954 1.2591 -0.669281)
(1.39937 1.06206 -1.15163)
(1.63978 0.924542 -1.84027)
(0.731677 0.656031 -1.81468)
(-0.60008 0.756947 -1.68674)
(-0.604277 0.586262 -1.5343)
(-0.552227 0.538569 -2.61203)
(1.99459 -0.0821899 -1.37281)
(2.34672 -0.200434 -1.01548)
(2.19845 0.277274 -1.11413)
(1.98953 1.11156 -0.576528)
(1.42069 1.34331 -0.993627)
(1.07437 1.08473 -2.10405)
(1.36638 0.814303 -2.39046)
(0.78072 0.172159 -2.57437)
(-0.107525 0.209916 -2.41729)
(0.290761 0.322876 -2.66875)
(-1.20941 0.103596 -2.0612)
(-0.875321 0.947509 -2.68515)
(2.29445 0.117792 -0.983956)
(2.58045 -0.281397 -0.826782)
(2.42482 0.0497014 -1.44685)
(2.32965 0.402551 -0.954857)
(1.76931 0.976696 -1.13173)
(0.785775 0.929215 -2.2363)
(1.81168 0.678078 -2.24473)
(1.38167 0.638226 -2.89276)
(-0.963159 -0.18494 -3.25347)
(1.12254 0.562758 -2.72735)
(-1.30258 0.596997 -2.71163)
(-0.254773 1.01628 -2.45565)
(0.421884 1.5104 -2.36457)
(2.53816 0.270605 -0.0823402)
(2.62721 -0.255321 -0.264615)
(2.64579 -0.200255 -1.49881)
(2.53718 -0.249542 -1.07496)
(2.30907 0.161464 -0.912547)
(1.72246 0.900356 -1.09935)
(2.04966 1.13076 -1.47142)
(1.73867 0.95273 -2.45437)
(1.03161 0.475055 -2.83169)
(0.763509 0.707342 -2.78642)
(0.00620186 0.723011 -2.9542)
(-0.547928 1.11669 -2.50668)
(0.846988 0.971546 -2.34031)
(1.31587 0.0876643 -1.97075)
(2.22709 0.43711 -0.311706)
(2.01208 0.03221 -0.713278)
(2.18567 -0.329477 -1.69476)
(2.54492 -0.70547 -1.16689)
(2.28088 -0.746123 -1.34216)
(1.72259 -0.280552 -1.22271)
(2.35071 0.0258478 -1.09375)
(2.56238 0.604242 -0.978209)
(1.72323 0.798645 -2.01696)
(1.61654 0.684218 -2.69865)
(0.404343 0.263614 -2.98956)
(0.998903 0.447966 -2.17278)
(0.889508 0.0314947 -2.18289)
(1.04413 -0.275871 -2.12296)
(0.521729 -0.901507 -2.00336)
(2.23064 0.500527 0.26008)
(2.09694 0.444796 -0.25062)
(2.01278 0.239943 -1.19232)
(2.64282 -0.599307 -1.15369)
(1.99626 -1.22325 -1.46231)
(1.3096 -1.38186 -1.39838)
(1.35232 -1.21584 -1.43672)
(1.53649 -0.818733 -1.18316)
(1.63136 -0.404751 -1.11396)
(1.87969 -0.432028 -1.68813)
(1.57148 -0.242766 -2.04655)
(0.924477 -0.282093 -1.73608)
(0.718113 -0.657009 -1.94149)
(0.434962 -0.807226 -2.08701)
(0.0376795 -0.657842 -1.92399)
(-0.217935 -0.783864 -1.74263)
(1.89925 0.868942 -1.30323)
(1.94366 0.50206 -1.23558)
(1.86714 0.222142 -1.69471)
(2.26612 -0.465093 -1.40535)
(1.77357 -0.986877 -1.37158)
(1.08276 -1.44957 -1.27333)
(0.888405 -1.59885 -1.44673)
(0.701726 -1.98289 -1.13882)
(0.348145 -2.3752 -0.869155)
(0.930482 -1.72266 -0.917825)
(1.11872 -1.05157 -1.54069)
(0.740045 -1.11978 -1.22012)
(0.392834 -1.19251 -1.386)
(0.0463679 -1.27408 -1.47508)
(-0.22172 -0.767454 -1.77823)
(-0.599097 -0.975183 -1.17134)
(-0.0441506 2.16708 3.0387)
(-0.266393 2.27532 3.1812)
(0.198123 2.23139 3.34165)
(0.0288306 2.33242 3.19999)
(-0.233936 2.4828 3.16477)
(0.307333 2.47119 3.3525)
(-0.0785642 2.49354 3.22994)
(-0.0671171 2.49483 3.16978)
(-0.0428377 2.65794 3.15184)
(0.355425 2.6369 3.24611)
(0.150557 2.66011 3.18332)
(0.105117 2.66391 3.17616)
(0.124089 2.65903 3.20394)
(-0.456397 2.64017 3.22507)
(0.678564 2.65869 3.49221)
(0.629961 2.62705 3.29811)
(0.248266 2.75499 3.18779)
(0.132853 2.78355 3.23678)
(0.320507 2.6784 3.20552)
(0.331418 2.91536 3.18728)
(1.05823 2.55875 3.59188)
(0.516915 2.7067 3.34379)
(0.581046 2.78949 3.07809)
(0.406138 2.72221 3.16057)
(0.394432 2.88099 3.24858)
(0.391198 2.83362 3.35541)
(0.212719 2.8562 3.52904)
(0.919328 2.5257 3.33914)
(0.311406 2.49755 3.31011)
(0.696313 2.60695 3.11225)
(0.646462 2.7885 2.96088)
(0.890375 2.86131 3.22413)
(0.574097 2.86454 3.53742)
(1.00107 2.79229 3.5818)
(0.748205 2.628 2.94471)
(0.604592 1.4758 2.5882)
(0.533578 1.74757 2.4457)
(0.315927 2.00092 2.71652)
(1.08121 2.2706 2.41879)
(0.818042 2.49419 2.80086)
(1.29233 2.33131 2.99628)
(1.05084 2.39727 2.77109)
(0.595929 2.14193 2.72287)
(0.470564 2.05594 0.61157)
(0.479785 0.757383 0.531271)
(0.706096 0.837399 0.634809)
(0.483001 1.46977 1.22996)
(1.06075 1.85344 1.43019)
(1.24265 2.16266 1.18493)
(1.16042 1.75956 1.64537)
(1.09797 1.43986 1.3587)
(0.875835 1.80496 0.885293)
(-0.0213324 2.12028 0.796841)
(-0.456833 1.31191 -0.687972)
(0.902372 0.149145 -1.0003)
(1.1131 0.747162 -0.932019)
(1.16325 1.52309 -0.266985)
(0.840441 1.94741 -0.194683)
(1.44627 1.28604 -0.276752)
(1.67606 1.19396 -0.0200405)
(1.63931 0.960308 0.262384)
(0.81735 1.43123 0.103606)
(-0.0304524 1.48957 -0.935837)
(-0.90938 1.05889 -0.701751)
(-0.627676 0.623921 -1.82874)
(1.50999 0.257029 -1.93196)
(1.78024 0.45459 -1.30729)
(1.68002 0.834437 -0.986532)
(1.66122 1.12891 -0.665513)
(1.56175 1.21147 -0.544225)
(1.39001 1.06657 -0.732717)
(1.43874 0.896343 -1.8482)
(0.610754 0.692839 -1.72819)
(-0.30931 0.866833 -1.5651)
(-0.313532 0.415057 -1.77571)
(-1.1263 0.586194 -1.6002)
(-1.07708 0.292441 -2.20698)
(2.02671 -0.204321 -1.51296)
(2.36646 -0.348207 -1.0471)
(2.25845 0.332785 -0.948749)
(1.37408 0.814333 -1.67785)
(1.80966 0.672498 -0.896728)
(1.40454 1.22725 -1.56012)
(1.79909 0.682174 -2.06608)
(0.916213 -0.0221844 -2.46318)
(0.279558 0.131815 -2.57811)
(0.128212 0.075702 -2.77255)
(-1.1559 0.309319 -2.00934)
(-1.26829 0.990568 -1.902)
(-0.0351778 1.16394 -2.48773)
(2.23531 0.116871 -1.29473)
(2.50164 -0.323644 -1.14131)
(2.52181 -0.14055 -1.35218)
(2.1888 0.268197 -1.31936)
(1.91854 0.731347 -1.18394)
(2.06694 0.899541 -0.970465)
(1.97629 0.636439 -2.04148)
(1.242 0.333763 -2.75109)
(-0.73208 -0.164165 -3.07064)
(0.65423 0.540853 -2.70506)
(-1.00113 0.505909 -2.8583)
(-0.198763 0.878047 -2.55168)
(-0.613386 1.99298 -1.98787)
(0.99618 1.13471 -2.204)
(2.59797 0.282554 -0.276057)
(2.66067 -0.421934 0.157762)
(2.60873 -0.18988 -1.56633)
(2.54432 -0.351464 -0.999264)