/*--------------------------------*- C++ -*----------------------------------*\
  =========                 |
  \\      /  F ield         | OpenFOAM: The Open Source CFD Toolbox
   \\    /   O peration     | Website:  https://openfoam.org
    \\  /    A nd           | Version:  7
     \\/     M anipulation  |
\*---------------------------------------------------------------------------*/
FoamFile
{
    version     2.0;
    format      ascii;
    class       surfaceScalarField;
    location    "8.5";
    object      phi;
}
// * * * * * * * * * * * * * * * * * * * * * * * * * * * * * * * * * * * * * //

dimensions      [0 3 -1 0 0 0 0];

internalField   nonuniform List<scalar> 
54184
(
1.65427e-05
-0.00209584
-0.000120058
0.000273379
-0.00243985
-0.000356605
1.26532e-05
-0.00207813
-0.000127413
2.8897e-05
-0.00170633
-0.000136824
0.000524791
-0.00482648
-0.000297716
0.000263713
-0.00264338
-0.000376038
0.00017915
-0.00115105
-0.000301192
-5.11006e-06
-0.00204257
-0.000122356
3.50654e-05
-0.00172303
-0.000145776
8.26572e-05
-0.000901661
-0.000137
0.000764855
-0.00546149
-0.000311383
0.000467285
-0.00470795
-0.000365298
0.000520075
-0.00379651
-0.000353003
0.00019807
-0.0027759
-0.000360848
0.000225287
-0.00139531
-0.000321999
0.000161748
-0.000766594
-0.000228578
-2.233e-05
-0.00198953
-0.000117449
4.51598e-05
-0.00174999
-0.000140553
9.50607e-05
-0.000994449
-0.000148048
1.32594e-05
-0.000279477
-0.000119472
0.00127937
-0.00611654
-0.000115243
0.000671681
-0.00523525
-0.000206374
0.000829767
-0.00490189
-0.000317626
0.000357437
-0.00449966
-0.000326293
0.000591724
-0.00412971
-0.000398537
0.000325351
-0.00200282
-0.000263949
0.000142697
-0.00284381
-0.000350592
0.00029521
-0.00168856
-0.000317647
0.0002199
-0.000965439
-0.000247993
5.7007e-05
-2.97843e-05
-0.000222758
-3.95081e-05
-0.00191889
-0.000112792
4.33389e-05
-0.00177524
-0.000135543
9.67852e-05
-0.00108665
-0.00014514
2.36287e-05
-0.000321319
-0.000129835
7.65546e-06
0.000132968
-0.000101533
0.00187311
-0.00692787
8.93664e-05
0.00104815
-0.00618604
9.12738e-05
0.00148144
-0.00539617
-0.000306898
0.000482457
-0.0049667
-3.92669e-05
0.000942683
-0.00513797
-0.000321254
0.000773767
-0.00364238
-0.000167307
0.000251687
-0.00425736
-0.000246974
0.00063637
-0.00445973
-0.000337433
0.00052211
-0.00245547
-0.000248101
8.14869e-05
-0.00106116
-0.00023886
7.69441e-05
-0.00283591
-0.000337547
0.000312646
-0.0019811
-0.000327364
0.000249757
-0.00118335
-0.000252707
0.000128715
-0.000137478
-0.000245385
-4.50073e-05
0.000412148
-0.000237183
-5.6425e-05
-0.00183086
-0.000108269
3.35742e-05
-0.00179069
-0.000130911
9.79855e-05
-0.00117752
-0.000142661
3.25886e-05
-0.000370919
-0.000128129
1.21567e-05
0.000100758
-0.000109782
-3.08552e-05
-2.24716e-05
-8.99138e-05
0.00179607
-0.00603954
0.000237711
0.000976312
-0.00661919
0.000550532
0.00163004
-0.0067981
-5.38132e-05
0.000601918
-0.00623073
0.000432411
0.00157014
-0.0057599
-0.000172452
0.00136071
-0.00553461
-0.00018522
0.000323876
-0.00474595
0.000192677
0.000919456
-0.0050979
-0.000362425
0.000969364
-0.00424385
-0.000167031
0.000393647
-0.00331448
-0.000217258
0.000128271
-0.00395412
-0.000183889
0.000630238
-0.00467187
-0.000352418
0.000699236
-0.00303145
-0.000210927
0.000250112
-0.0011847
-0.00024596
-0.000142298
-0.000694836
-0.000305434
1.97594e-05
-0.00278266
-0.000305997
0.000290625
-0.00223733
-0.000338367
0.00026437
-0.00141359
-0.000263514
0.00013454
-0.000245152
-0.000246985
-2.27512e-05
0.000456032
-0.000254361
-0.000180656
-0.000459219
-0.000226335
-7.35076e-05
-0.00172516
-0.000103935
2.86555e-05
-0.00180104
-0.000126579
9.94058e-05
-0.0012673
-0.000140535
4.38864e-05
-0.000430666
-0.0001268
1.9732e-05
6.04434e-05
-0.000107547
-3.14535e-05
-3.4997e-06
-9.72996e-05
-8.05035e-05
-0.000124703
-9.08023e-05
0.00135818
-0.00628096
0.00094504
0.00111727
-0.00595675
0.000481506
0.00151421
-0.00675873
0.00014824
0.00067057
-0.00661452
0.000820113
0.00217702
-0.00676275
-9.17034e-05
0.0014406
-0.00705517
-0.000191586
0.000453269
-0.00630309
0.000552986
0.00137466
-0.00589296
0.000110257
0.00131266
-0.00593519
-0.000115166
0.00076118
-0.00616549
-0.000110299
0.000172743
-0.00454534
0.000307968
0.000810753
-0.00483357
-0.000252173
0.00114405
-0.00483079
-0.000220294
0.00059875
-0.00366049
-0.000169655
0.000104879
-0.00366913
-0.000189646
3.51717e-05
-0.00364181
-0.000115298
0.000483986
-0.00466402
-0.000385107
0.000747422
-0.00365972
-0.000207198
0.000483895
-0.00151711
-0.000227878
-0.000131401
-0.000520295
-0.000311851
-0.000432011
-0.00117151
-0.000292677
-3.08764e-05
-0.00269292
-0.000274452
0.000269116
-0.0024572
-0.000326588
0.000293122
-0.00167824
-0.000267427
0.000149685
-0.000366268
-0.000248197
4.45294e-05
0.000432669
-0.000248419
-0.000199585
-0.000301333
-0.000244115
-0.000344823
-0.00132655
-0.000226402
-9.05257e-05
-0.00160248
-9.97773e-05
1.84477e-05
-0.00180078
-0.000122646
0.000104175
-0.0013596
-0.000138449
5.68166e-05
-0.000502363
-0.000125655
3.01704e-05
8.90006e-06
-0.000105427
-2.12965e-05
5.87498e-06
-9.56249e-05
-8.76411e-05
-3.55394e-05
-9.88226e-05
-7.71332e-05
-0.00075054
-9.21752e-05
0.00121636
-0.00655997
0.00182207
0.00130805
-0.00612783
0.00105472
0.00139552
-0.00694956
0.000979213
0.000991606
-0.00582788
0.000630117
0.00203402
-0.00635532
0.000221095
0.00131501
-0.00694418
4.73666e-06
0.000466234
-0.00656631
0.000692139
0.00152823
-0.00632194
0.000225734
0.00154701
-0.00713132
-0.000249908
0.000863383
-0.00716491
-0.000331088
0.000285527
-0.00632606
0.00063903
0.00100079
-0.00572053
0.000190515
0.00135883
-0.00585987
-0.000179847
0.000949486
-0.00659038
-4.10122e-05
0.000531163
-0.006298
-0.000130883
7.99212e-05
-0.00440659
0.000424757
0.000578842
-0.00452149
-9.89673e-05
0.00116145
-0.00515757
-0.000339425
0.000896815
-0.00428088
-1.28236e-05
0.000235568
-0.00405173
-0.000154025
-1.27634e-05
-0.00433343
-0.000263772
-1.26948e-05
-0.0033588
-5.61087e-05
0.000350333
-0.00451336
-0.00034717
0.000706302
-0.00416847
-0.000289537
0.000578674
-0.00196822
-0.00018507
0.000143094
-0.000563284
-0.000283453
-0.000431968
-0.000959108
-0.000291873
-0.000557577
-0.00218809
-0.000266066
-8.3488e-05
-0.002567
-0.000247319
0.000223648
-0.00261768
-0.000319168
0.000330276
-0.00197373
-0.000257203
0.000185152
-0.000519285
-0.000242746
0.00010082
0.000355984
-0.000242161
-0.000153659
-0.000178447
-0.000238942
-0.000372976
-0.00103924
-0.000246086
-0.000299655
-0.00146316
-0.000203491
-0.00010603
-0.00146451
-9.56994e-05
9.48523e-07
-0.00178284
-0.000118657
0.000105129
-0.00145152
-0.000135858
7.28829e-05
-0.000588879
-0.000124816
3.58176e-05
-4.90948e-05
-0.000103478
-1.03309e-05
5.08343e-06
-9.4305e-05
-8.27673e-05
4.9203e-05
-9.76e-05
-8.6873e-05
-0.000660977
-0.000101512
-0.00011762
-0.00121982
-8.78983e-05
0.000889929
-0.00652946
0.00247751
0.000817572
-0.00635953
0.00218389
0.0011639
-0.00633298
0.00206386
0.00120833
-0.00686941
0.00188998
0.00114524
-0.00587798
0.00119618
0.00131885
-0.00631817
0.00113851
0.00109034
-0.00674446
0.00103086
0.000526816
-0.00550252
0.00104511
0.00142091
-0.00609011
0.000472229
0.00147373
-0.00668766
3.78633e-05
0.000779256
-0.0071843
-4.38893e-05
0.000132536
-0.00629825
0.00104392
0.00136985
-0.0063625
0.000363643
0.00137533
-0.00677329
-0.000148797
0.00113806
-0.00721529
-0.000388098
0.000528009
-0.00770577
-0.000410197
0.000170906
-0.00633667
0.000634318
0.000712481
-0.00542106
0.000205919
0.00140148
-0.00579942
-0.000109977
0.00103467
-0.00672254
-0.000185535
0.000812175
-0.00680827
-0.000107343
0.000603889
-0.00759749
-0.000467578
4.51061e-05
-0.00432767
0.000473859
0.000396411
-0.00421859
7.57809e-05
0.000930327
-0.00525779
-0.000222766
0.00108508
-0.0051598
3.30803e-05
0.000481465
-0.0044127
9.77138e-06
-3.32921e-05
-0.00467209
-0.000214049
-0.000182664
-0.00580087
-0.000451233
-5.43747e-05
-0.00310888
-2.11548e-06
0.000247473
-0.00432741
-0.000265882
0.000687792
-0.0045093
-0.00036386
0.0005804
-0.00246072
-0.000192285
0.000437881
-0.000856376
-0.00022904
-0.000355339
-0.000791971
-0.000248911
-0.000526792
-0.00204304
-0.000283105
-0.000503417
-0.00324826
-0.000256672
-0.000124557
-0.00242433
-0.000221262
0.000152524
-0.00270418
-0.000312395
0.000360035
-0.00229025
-0.000257554
0.000264811
-0.000739004
-0.000229412
9.74758e-05
0.000288331
-0.000236751
-0.000125079
-7.18226e-05
-0.000234038
-0.000349317
-0.000766149
-0.000245489
-0.000329686
-0.00124891
-0.000217518
-0.000337646
-0.00301185
-0.000141921
-0.000126448
-0.00130666
-9.15263e-05
-1.30199e-05
-0.00175056
-0.00011496
9.8212e-05
-0.00153596
-0.000132428
7.85395e-05
-0.000678868
-0.000124408
4.37181e-05
-0.000115615
-0.000102015
3.25188e-06
-8.03499e-06
-9.36113e-05
-7.43584e-05
0.000125341
-9.60843e-05
-8.73703e-05
-0.000569751
-0.000101456
-0.000135306
-0.00108916
-9.68675e-05
-7.42687e-05
-0.00161886
-7.50813e-05
0.000747406
-0.00579004
0.00263973
0.000558833
-0.00634844
0.0024075
0.000664553
-0.00627724
0.00240237
0.00120091
-0.00625286
0.00245159
0.00104264
-0.006519
0.00216663
0.00131153
-0.00638016
0.00199247
0.00121883
-0.00672952
0.00202399
0.000873391
-0.00682254
0.00191349
0.000799198
-0.00565414
0.00144767
0.00115144
-0.00591515
0.00106263
0.00112572
-0.00646166
0.00120371
0.000921386
-0.00706456
0.000841451
0.000333654
-0.00537465
0.00134639
0.00164164
-0.00597707
0.000660287
0.00130715
-0.00649382
0.000346566
0.00102531
-0.00695106
-8.26401e-05
0.000654133
-0.00721851
4.41869e-05
0.000140535
-0.00625196
0.00137569
0.000843664
-0.00636159
0.000911823
0.00144717
-0.00635844
-9.68947e-05
0.00123527
-0.00721036
-0.000354325
0.000659403
-0.00750368
-0.000437417
9.93969e-05
-0.00793272
-0.000252862
0.000124344
-0.00636705
0.00071887
0.000447522
-0.00520274
0.000364891
0.00129066
-0.0058179
-0.00013593
0.00110358
-0.00673328
-0.000117738
0.00078206
-0.00717864
-0.000115759
0.000471508
-0.00780968
-0.000399955
0.000109727
-0.00836311
-0.000407444
1.71555e-05
-0.00432767
0.000512211
0.00025455
-0.00392021
0.000168403
0.000893792
-0.005307
-8.10078e-05
0.00100568
-0.00586615
5.83052e-05
0.000802322
-0.00494397
0.000199912
-6.29268e-05
-0.00485589
-9.88348e-05
-0.000161691
-0.00592038
-0.000459639
-0.000452161
-0.00653475
-0.000478007
-8.02559e-05
-0.00290208
3.34139e-05
0.000161041
-0.00410359
-0.000234458
0.000617315
-0.00466133
-0.000371128
0.000629815
-0.00294219
-0.000247393
0.000443477
-0.00121198
-0.000182681
-0.000248555
-0.00071634
-0.000181194
-0.000502162
-0.00186819
-0.000270917
-0.000496474
-0.00307879
-0.000285787
-0.000372236
-0.0050137
-0.000192905
-0.000171262
-0.00226739
-0.000202806
0.000102507
-0.00274419
-0.000296775
0.00034252
-0.0025794
-0.000267552
0.000310174
-0.00100244
-0.000225749
9.22248e-05
0.000244006
-0.000233594
-5.30629e-05
-1.54732e-05
-0.000236786
-0.000318327
-0.000514623
-0.000241595
-0.000326462
-0.00104296
-0.000212348
-0.000399982
-0.00281292
-0.000151773
-0.000179939
-0.00372237
-0.000132676
-0.00014309
-0.00113277
-8.7133e-05
-2.84228e-05
-0.00170231
-0.000111357
8.2356e-05
-0.00160419
-0.000129082
8.62651e-05
-0.000773195
-0.000124366
5.4062e-05
-0.00019258
-0.000101504
1.76964e-05
-3.48744e-05
-9.28717e-05
-5.83904e-05
0.000185018
-9.4898e-05
-8.87116e-05
-0.000476563
-0.000100561
-0.000139803
-0.000953601
-9.72111e-05
-9.4677e-05
-0.00153903
-8.20192e-05
-1.3074e-05
-0.00205801
-4.83979e-05
0.000630237
-0.00544565
0.0029356
0.000746041
-0.00587079
0.00262093
0.000600254
-0.00583289
0.00256603
0.00112011
-0.00615503
0.00255668
0.000908706
-0.00626068
0.00252489
0.000998667
-0.00628533
0.00208295
0.00121915
-0.0061127
0.00240239
0.00105696
-0.00643835
0.0025328
0.000752535
-0.00649033
0.00199474
0.000950548
-0.00632201
0.00201344
0.000951566
-0.00645546
0.00191828
0.00115352
-0.0068554
0.00202904
0.00111027
-0.00646337
0.00161294
0.000708295
-0.00560053
0.00155471
0.00199113
-0.00580804
0.00099107
0.00113134
-0.0064108
0.00118758
0.000793481
-0.00660724
0.000978228
0.00069019
-0.00700004
0.000837946
0.000485161
-0.00566459
0.00145837
0.00113502
-0.00581176
0.00088972
0.00162393
-0.00650181
0.000491528
0.00147349
-0.00693544
9.27348e-05
0.000662978
-0.00723802
-6.67044e-05
-0.000292206
-0.00683054
0.000462509
0.000219283
-0.00623374
0.0013193
0.000423298
-0.00585145
0.00088978
0.00159146
-0.00618272
0.000435305
0.00126876
-0.00720821
-0.00026423
0.000689439
-0.00738399
-0.00038139
0.000218681
-0.00781757
-0.000299736
-0.000303959
-0.00785117
-2.8486e-05
0.000150179
-0.00647292
0.000739913
0.000318291
-0.00509773
0.000550122
0.000819597
-0.00545577
7.69544e-05
0.0011082
-0.00686985
-0.000101879
0.00073351
-0.00719969
-2.7873e-05
0.000349365
-0.00804956
-0.000288172
-8.0443e-05
-0.00845894
-0.000385375
-0.000342861
-0.00857673
-0.000192996
2.47209e-05
-0.00438296
0.00054533
0.000172323
-0.00367288
0.000253596
0.000682846
-0.00519592
-8.20805e-06
0.000912809
-0.00626291
3.27597e-05
0.000871639
-0.00555557
0.000241744
4.53929e-05
-0.00501087
6.09436e-05
-0.000196511
-0.0059594
-0.000365464
-0.000220385
-0.00675187
-0.000518615
-0.000181364
-0.00659177
-0.000350742
-0.000100341
-0.00275889
0.000108428
7.93254e-05
-0.00383598
-0.000211015
0.000526735
-0.00470619
-0.000373813
0.000671559
-0.00339501
-0.000279693
0.000308385
-0.00153522
-0.000140314
-9.69563e-05
-0.000730016
-0.000125111
-0.000500327
-0.00163902
-0.000228357
-0.00047504
-0.00289782
-0.000303308
-0.000494864
-0.00497407
-0.000230537
-0.000130006
-0.00475177
-0.000118385
-0.000203928
-0.00210718
-0.000185449
5.95449e-05
-0.00275946
-0.000275506
0.000277142
-0.00279187
-0.000279087
0.000320798
-0.0012704
-0.000234131
0.000139209
0.000162431
-0.000229321
6.62741e-06
-7.70878e-06
-0.00023029
-0.000269142
-0.00029675
-0.000243907
-0.000335633
-0.000838914
-0.000198721
-0.000427257
-0.00259255
-0.000145273
-0.000239196
-0.00359069
-0.000138931
-3.20731e-05
-0.0039717
-4.66115e-05
-0.000153675
-0.000948783
-8.28058e-05
-4.53801e-05
-0.00163625
-0.000107815
6.698e-05
-0.00165683
-0.000125704
9.90657e-05
-0.000876554
-0.000124789
6.29262e-05
-0.000277998
-0.000101874
2.72635e-05
-7.18343e-05
-9.18077e-05
-4.60299e-05
0.000231489
-9.33126e-05
-8.94887e-05
-0.000383514
-9.84586e-05
-0.00013565
-0.000821171
-9.73414e-05
-0.000106494
-0.0014485
-8.12493e-05
-2.77807e-05
-0.00205891
-5.33422e-05
5.00945e-05
-0.00282804
-3.15213e-05
0.000669045
-0.00495942
0.00355713
0.000502837
-0.00514941
0.00321497
0.000754382
-0.00541308
0.00288975
0.000499834
-0.00547873
0.00292987
0.000958692
-0.00572535
0.00288296
0.00079342
-0.00575613
0.00265945
0.00130924
-0.00579643
0.00232435
0.000859913
-0.00591535
0.00267833
0.000915396
-0.00608183
0.00251939
0.00094637
-0.00611287
0.00215859
0.00168794
-0.00609555
0.00201375
0.000962876
-0.00603683
0.00233484
0.00120185
-0.00659564
0.0023094
0.00118378
-0.00636692
0.00237913
0.00117678
-0.00647376
0.00177199
0.000788199
-0.00623907
0.00202954
0.00174888
-0.00605634
0.00185657
0.000878676
-0.00670595
0.00202149
0.00117537
-0.00662361
0.00180739
0.000614646
-0.0067617
0.00154035
0.000724964
-0.00563017
0.00166447
0.00124026
-0.00555218
0.00119361
0.00146787
-0.0063134
0.00104972
0.00136598
-0.00638503
0.00107288
0.000624133
-0.00699519
0.00101223
-0.000261436
-0.0062187
0.00080547
0.000734573
-0.00620575
0.00193265
0.000688608
-0.00588315
0.00126445
0.00137238
-0.00598284
0.000589829
0.00136761
-0.00690135
0.000358589
0.000701937
-0.00716731
9.52187e-06
-1.78526e-05
-0.006735
7.42916e-05
-0.000330192
-0.00665819
0.000324962
0.000246277
-0.00631233
0.00145236
0.000297683
-0.00561054
0.00109899
0.00106426
-0.00590504
0.000367428
0.00113807
-0.00670453
-9.82398e-05
0.000839128
-0.00743373
-0.000320111
5.59967e-05
-0.0076709
-0.000234696
-0.000425231
-0.00776486
-4.12547e-05
-0.00018406
-0.00797995
-0.000124107
0.000147434
-0.00655409
0.000703094
0.000203327
-0.00504465
0.000655828
0.000691943
-0.00520068
0.000285934
0.000934902
-0.00679267
-2.23194e-05
0.000737567
-0.00718621
1.8705e-05
0.000229979
-0.00815141
-0.000110611
-4.64185e-05
-0.00854904
-0.000348159
-0.000187384
-0.00878606
-0.000209038
2.95558e-05
-0.00743188
-0.000230965
2.69335e-05
-0.00448181
0.000543703
7.21871e-05
-0.00349171
0.000371301
0.000554853
-0.00504543
7.49871e-05
0.000772733
-0.00644779
7.54973e-05
0.000748423
-0.00622744
0.000264585
0.000189484
-0.00526213
0.000206563
-0.000240857
-0.00600786
-0.000150069
-0.00018201
-0.00701714
-0.000393217
-0.000366004
-0.0067704
-0.000468844
0.000350951
-0.00512095
-0.000273052
-0.000113769
-0.0026542
0.000186511
2.15964e-05
-0.0035503
-0.000139303
0.000361832
-0.0046607
-0.000341199
0.000650975
-0.00378984
-0.000309159
0.00032207
-0.00188621
-0.000111565
0.000201139
-0.000962835
-0.000102006
-0.000433393
-0.00141597
-0.000183914
-0.000467665
-0.00270278
-0.000291359
-0.000587978
-0.00489643
-0.00022022
-0.000230823
-0.00485761
-0.000133073
0.000143431
-0.00350212
-8.66182e-05
-0.000226273
-0.00194732
-0.000150822
9.03476e-06
-0.00274854
-0.000250786
0.000229609
-0.0029464
-0.000283612
0.00032644
-0.00154262
-0.000234234
0.000232393
-1.68524e-05
-0.000224314
1.73697e-05
-1.26441e-05
-0.000214492
-0.000214106
-0.000126249
-0.000232715
-0.000333819
-0.000653741
-0.00018475
-0.000446808
-0.00234751
-0.0001326
-0.000264819
-0.00344636
-0.000131275
-9.55842e-05
-0.00398928
-5.35498e-05
0.000138457
-0.00453067
-2.76102e-05
-0.000160738
-0.000758383
-7.89489e-05
-6.26099e-05
-0.00155203
-0.000104412
5.30246e-05
-0.00169544
-0.000122226
0.000108918
-0.000985877
-0.000125299
7.55167e-05
-0.000375373
-0.00010293
3.96142e-05
-0.000122737
-9.05861e-05
-3.71563e-05
0.000268719
-9.18822e-05
-9.27377e-05
-0.000289344
-9.47447e-05
-0.000137295
-0.000686474
-9.58614e-05
-0.000118909
-0.00134517
-8.17594e-05
-4.32699e-05
-0.00204196
-5.49291e-05
4.05588e-05
-0.00288685
-3.50884e-05
0.000132653
-0.00380131
-2.28902e-05
0.000405513
-0.00452806
0.0039043
0.000490585
-0.0049424
0.00348024
0.000618809
-0.00508421
0.00362208
0.000687379
-0.00513227
0.00319237
0.000417385
-0.00513273
0.00333825
0.000849876
-0.00530968
0.0031715
0.000554283
-0.00529218
0.00294234
0.0011181
-0.00533775
0.00287269
0.000753406
-0.00565969
0.00287339
0.000987576
-0.00578091
0.00283556
0.00110853
-0.00567037
0.00237123
0.00167298
-0.00580198
0.00237661
0.00102753
-0.00577678
0.00252886
0.00111864
-0.00597099
0.00265069
0.0011469
-0.00597389
0.0024173
0.00149286
-0.00619543
0.00194238
0.0012892
-0.005532
0.0018341
0.000900075
-0.00612645
0.00239619
0.0012781
-0.00608227
0.00229223
0.000891099
-0.00643386
0.00236392
0.00139073
-0.00634846
0.00203846
0.000842712
-0.00614896
0.00156152
0.00077311
-0.00616699
0.00207103
0.0010868
-0.00587554
0.0020022
0.00110638
-0.00644052
0.00195263
0.00112358
-0.00630249
0.00194276
0.000746786
-0.00671197
0.00163501
9.81882e-05
-0.00614411
0.00119625
0.000922353
-0.0058641
0.0019691
0.00108063
-0.0057755
0.00149577
0.00113984
-0.00607369
0.00118644
0.00124991
-0.00623691
0.00101931
0.000704584
-0.00697231
0.00104734
-0.000158797
-0.00592276
0.000857232
0.00020745
-0.00656186
-2.79148e-05
0.000260089
-0.00634011
0.00179366
0.000557343
-0.00589857
0.00168841
0.00127576
-0.00576772
0.000837824
0.00105158
-0.0065476
0.00032257
0.000908424
-0.00694106
6.30476e-05
-0.000190894
-0.00666362
0.000185033
-0.000417201
-0.00665495
6.30139e-05
0.000214823
-0.00624324
-0.000447385
0.000274234
-0.00645625
0.00148311
0.00010123
-0.00535519
0.00129911
0.000827021
-0.0057898
0.000848677
0.00109703
-0.00655781
5.85692e-05
0.000697259
-0.00719932
-0.000292335
8.9895e-06
-0.00752324
-0.000246777
-0.000346127
-0.00758739
-0.000112465
-0.000312824
-0.00778175
-0.000114006
0.000240229
-0.00605564
-0.000271949
0.00012983
-0.00660212
0.00073658
0.000161444
-0.00529391
0.0008631
0.000417066
-0.00490594
0.000498881
0.000713536
-0.00653146
8.392e-05
0.000809689
-0.00732422
5.44248e-05
0.000361558
-0.00825935
-4.5427e-05
-7.41989e-05
-0.00854213
-0.000284183
-0.000301987
-0.00881012
-0.00020413
-0.000168742
-0.00771072
-0.000127464
0.000798079
-0.00650817
-7.84694e-05
-1.87977e-05
-0.00465504
0.000562796
2.03318e-05
-0.00334479
0.000398051
0.00030812
-0.00478213
0.000161704
0.000762081
-0.00657572
9.18113e-05
0.000609838
-0.006698
0.00025829
0.000498998
-0.00557812
0.000282713
-0.000249688
-0.00601518
3.0173e-05
-0.000352103
-0.00697826
-0.000304512
-0.000521846
-0.00709461
-0.000135138
0.000306434
-0.00575786
-0.000369195
0.000514539
-0.00305839
-0.000321792
-0.000108725
-0.00259347
0.000217932
-2.96133e-05
-0.00321797
-0.000107171
0.000285801
-0.00456535
-0.00029084
0.000621022
-0.00408729
-0.000338338
0.000496688
-0.00232389
-0.000135778
0.000238906
-0.00117739
-0.000118551
-0.000383175
-0.00118778
-0.000161127
-0.000367266
-0.00257188
-0.000281374
-0.000548456
-0.00487814
-0.000208006
-0.000263029
-0.00496731
-0.000112307
8.13352e-05
-0.00380049
-1.16278e-05
0.000327182
-0.00424709
5.45272e-05
-0.000242029
-0.001791
-0.000116969
-4.09134e-05
-0.00269313
-0.000227927
0.000192516
-0.00305242
-0.000284252
0.000340752
-0.00182733
-0.000230745
0.000299741
-0.000268544
-0.000206766
1.66707e-05
-1.22038e-05
-0.000201811
-0.000162827
5.59247e-06
-0.000220663
-0.000343561
-0.000455226
-0.000180407
-0.000450359
-0.00209446
-0.000124739
-0.000294409
-0.00328778
-0.000115681
-0.000137464
-0.00394861
-7.77525e-05
0.000117442
-0.00462242
-3.86764e-05
0.000347072
-0.00408081
-6.16503e-05
-0.00016494
-0.000564385
-7.59702e-05
-8.07841e-05
-0.00144894
-0.000101254
3.66781e-05
-0.00171791
-0.000118621
0.000114646
-0.00109722
-0.000125534
8.57885e-05
-0.000482071
-0.00010439
5.25782e-05
-0.000188964
-8.92813e-05
-2.87194e-05
0.000297205
-9.03524e-05
-8.72706e-05
-0.000203271
-9.06843e-05
-0.000138338
-0.00054947
-9.341e-05
-0.000125977
-0.00123273
-8.23288e-05
-6.21089e-05
-0.002007
-5.46138e-05
2.86342e-05
-0.00293373
-3.6692e-05
0.000132886
-0.00394246
-2.68209e-05
0.000229657
-0.00370762
-2.36853e-05
8.10886e-05
-0.00445774
0.00389463
0.000486031
-0.00460722
0.00387511
0.000410405
-0.00457406
0.00403741
0.000584411
-0.00485131
0.00343641
0.000231005
-0.00503077
0.00361318
0.000563522
-0.00500718
0.00376
0.000830516
-0.00523626
0.00350686
0.000340482
-0.0050624
0.00333583
0.000908156
-0.00498554
0.00339508
0.000769457
-0.00535263
0.00319491
0.000839171
-0.00516857
0.0031963
0.00120539
-0.00530859
0.00281632
0.00167344
-0.00535901
0.00275866
0.000973841
-0.0055293
0.00277791
0.00104144
-0.00570472
0.0028744
0.00106539
-0.00547392
0.00272062
0.00162718
-0.00582739
0.00226233
0.00177289
-0.0048095
0.00178805
0.00071948
-0.00559298
0.00254492
0.00113669
-0.00587902
0.0025783
0.00100074
-0.00594393
0.00251109
0.00141649
-0.00590491
0.00210103
0.00118848
-0.00566663
0.00173125
0.00201193
-0.00589196
0.000983769
0.000746614
-0.00604384
0.00232207
0.001134
-0.00612805
0.00239478
0.000979135
-0.00634833
0.00233395
0.00153375
-0.00651584
0.00212113
0.00124475
-0.0062925
0.00168404
0.000909635
-0.00551637
0.000721428
0.000758609
-0.00596747
0.0021299
0.00111848
-0.00583117
0.00198881
0.000968689
-0.00621712
0.00194996
0.00119547
-0.00624828
0.00195285
0.000820534
-0.00653095
0.0016458
0.00014619
-0.00623105
0.00141697
0.000923081
-0.00617849
0.000282907
0.00034555
-0.00611177
0.00204712
0.000949411
-0.00601299
0.00181453
0.00143899
-0.00609472
0.00135357
0.00110361
-0.00625877
0.00115627
0.000820659
-0.00683095
0.000965722
-5.76911e-05
-0.00598421
0.000975584
2.6444e-05
-0.00618617
3.7901e-05
0.00072408
-0.00640141
-0.000569129
0.000514541
-0.00662362
0.0018027
0.000211098
-0.00596222
0.00174744
0.00101434
-0.00548143
0.0012148
0.00130625
-0.00639008
0.00047109
0.000863615
-0.00680022
1.53771e-05
5.35244e-05
-0.00683235
0.00018724
-0.000368804
-0.00658623
0.000138997
0.000117396
-0.00637143
-0.00023901
0.000476811
-0.00522896
-0.000662272
0.000267092
-0.00652056
0.00135673
0.000254102
-0.00539484
0.0014301
0.000459822
-0.00569326
0.0011598
0.000875128
-0.00640943
0.000538712
0.000822742
-0.00697021
-0.000183595
0.000221623
-0.00743703
-0.000238611
-0.000377528
-0.00746148
-6.93506e-05
-0.000590165
-0.00747794
-0.000128101
0.000308233
-0.00635786
-0.000288766
0.00116978
-0.00520971
-0.000270215
0.000150381
-0.00663797
0.000647847
0.000291729
-0.00547389
0.000645154
0.000227016
-0.00457315
0.000611408
0.000706952
-0.0063011
0.000323651
0.000927757
-0.00766023
0.000102009
0.000539133
-0.008231
-1.40668e-05
-0.000134767
-0.00846907
-0.000233402
-0.000542396
-0.00877236
-0.000131647
-0.000356233
-0.00804686
-3.35961e-05
0.000727009
-0.00711987
6.36559e-05
0.0010275
-0.00429532
-0.000148751
-4.28649e-05
-0.00476642
0.000538925
2.90033e-05
-0.00329298
0.000452362
0.000284345
-0.00446853
8.59078e-05
0.000515401
-0.00636356
5.51596e-05
0.000594392
-0.00692827
0.000224386
0.000549728
-0.00604177
0.00041112
-0.0003368
-0.00588188
0.000103046
-0.000164238
-0.00691675
-0.000234365
-0.000430352
-0.00727979
-0.000237445
0.000121496
-0.00626055
-1.6966e-05
0.0005174
-0.0036071
-0.00025656
0.00076095
-0.00350486
-0.000234204
-0.00013014
-0.00254107
0.000222817
-7.15069e-05
-0.00288517
-8.42693e-05
0.000210893
-0.00441116
-0.000279742
0.000786242
-0.00447737
-0.000346245
0.000561948
-0.00273579
-0.00018864
8.27477e-05
-0.00126411
-0.000115127
-0.000202331
-0.0010929
-0.000173924
-0.000376737
-0.00242395
-0.000275873
-0.000564028
-0.00484296
-0.000202885
-0.000341127
-0.00501265
-0.000115954
5.18598e-05
-0.00411591
1.37914e-05
0.000290049
-0.00450586
7.45361e-05
0.00063137
-0.0043038
0.000124542
-0.00025012
-0.00164402
-9.35163e-05
-9.19562e-05
-0.00259192
-0.00020701
0.000134325
-0.00309473
-0.000283262
0.000357015
-0.00212273
-0.00023122
0.000338224
-0.000558243
-0.000193481
3.19902e-05
-4.88251e-06
-0.000193499
-0.000131067
0.000119985
-0.000213857
-0.000325896
-0.000250287
-0.000186976
-0.000441031
-0.00184392
-0.000128249
-0.000343375
-0.00308118
-0.000113948
-0.000154924
-0.00389876
-7.27098e-05
0.00010672
-0.00471309
-6.51732e-05
0.0003703
-0.00427877
-7.81254e-05
0.000508032
-0.00330899
-6.44767e-05
-0.000168047
-0.000368064
-7.38031e-05
-9.74434e-05
-0.00132902
-9.84474e-05
1.51391e-05
-0.00171898
-0.000115321
0.000115174
-0.00120578
-0.000125226
9.5569e-05
-0.000596974
-0.0001062
6.82168e-05
-0.00027342
-8.81505e-05
-2.22539e-05
0.000318844
-8.86665e-05
-8.16498e-05
-0.000124521
-8.74527e-05
-0.000136884
-0.000412581
-9.06903e-05
-0.000132619
-0.00111075
-8.27666e-05
-7.32543e-05
-0.00196109
-5.49834e-05
1.41124e-05
-0.00296595
-3.65031e-05
0.00011515
-0.00406663
-2.76721e-05
0.00023913
-0.00394714
-2.64285e-05
0.000273546
-0.00333371
-3.11629e-05
-0.000100492
-0.00385065
0.00412176
0.000257845
-0.00451553
0.00404655
6.55345e-05
-0.00431175
0.00420915
0.000275082
-0.00443939
0.00386619
0.000116742
-0.00455027
0.00396558
0.000451356
-0.00470742
0.00399584
0.000828441
-0.00493488
0.00380192
6.11081e-05
-0.00490765
0.00359267
0.000861538
-0.00504044
0.00369305
0.00133394
-0.00530655
0.00379652
0.000445285
-0.00508807
0.00348815
0.000677095
-0.00506573
0.00367227
0.00103327
-0.00481746
0.00333987
0.00158863
-0.00505107
0.00328981
0.000812269
-0.00520299
0.0031334
0.00090193
-0.00515154
0.00331738
0.000953294
-0.00518125
0.00318106
0.00177129
-0.00542895
0.00274215
0.00169141
-0.00502229
0.00298489
0.000617338
-0.00539521
0.00282974
0.000877989
-0.00553894
0.00287083
0.00105318
-0.00549903
0.00284707
0.00151086
-0.00570483
0.00250368
0.00159398
-0.00500056
0.00204789
0.00247279
-0.00539236
0.000952409
0.000648755
-0.00541814
0.00258074
0.0011439
-0.0060156
0.0026716
0.000911111
-0.00564494
0.00234734
0.00158217
-0.00585967
0.00241743
0.00155962
-0.00562439
0.00174392
0.00166307
-0.00589492
0.000980774
0.00253
-0.00506177
-3.47709e-05
0.000703929
-0.00598136
0.00238467
0.00101551
-0.00600685
0.00230383
0.00112966
-0.00635428
0.00223976
0.0011362
-0.00634239
0.00221978
0.00113889
-0.00626358
0.00177385
0.00104535
-0.00573522
0.00100374
0.00155256
-0.00541518
-0.000235534
0.000568413
-0.00620762
0.00220489
0.00109449
-0.00586818
0.00202182
0.00138214
-0.00607046
0.001899
0.00113444
-0.00628484
0.00195569
0.00094237
-0.00638165
0.00168184
0.000287745
-0.00633615
0.00140546
0.000868442
-0.00589207
0.000288547
0.00132974
-0.00646088
-0.00035802
0.000542833
-0.00626612
0.00197137
0.00048411
-0.00624263
0.00200375
0.00106743
-0.00590895
0.00157566
0.0013404
-0.00616431
0.00122496
0.000955671
-0.00680921
0.00104247
9.06258e-05
-0.00611115
0.00105556
0.000113623
-0.00581033
0.000117312
0.000686386
-0.00651718
-0.000415317
0.000969715
-0.00561836
-0.000563699
0.000645853
-0.00696641
0.00148226
0.000372861
-0.00599404
0.00171577
0.000679779
-0.00541205
0.0014581
0.00101178
-0.00599361
0.000681681
0.000923205
-0.00657126
0.000141661
0.00023783
-0.00696007
0.000126893
-0.000436233
-0.00657156
0.000231267
-7.9761e-05
-0.00636738
-0.000375453
0.000623065
-0.00530675
-0.000476049
0.00147479
-0.0044054
-0.000428245
0.000190267
-0.0065264
0.00139519
0.000534411
-0.00550935
0.00122857
0.000309908
-0.00555262
0.00120657
0.000811337
-0.00611062
0.000756602
0.00120936
-0.00690907
0.000195968
0.000514242
-0.00744662
-0.000149114
-0.000314413
-0.00751524
-5.20468e-06
-0.000667023
-0.00729372
-0.000128945
4.91958e-05
-0.00664797
-0.000243415
0.00092532
-0.00542905
-0.000267738
0.00166171
-0.00392022
-0.000513955
1.17641e-05
-0.00659796
0.000652177
0.000219287
-0.00576709
0.000750771
0.00026987
-0.00432779
0.000414275
0.000401566
-0.00583201
0.000256151
0.000480313
-0.00742242
0.000199921
0.000465709
-0.00815194
0.000106969
-0.000254393
-0.00839586
-0.000169688
-0.000473601
-0.00860888
-8.75216e-05
-0.000360449
-0.00835156
0.000103151
0.000537632
-0.00759366
2.40589e-05
0.0010262
-0.00471654
-2.39198e-05
0.0013797
-0.00237215
-0.000349627
-7.15581e-05
-0.00488315
0.000490357
-5.32785e-05
-0.00327978
0.000507499
0.000173088
-0.00422892
0.000250565
0.000841543
-0.0062949
-3.80543e-05
0.000477481
-0.00699431
0.000205664
0.000236354
-0.00644476
0.000473769
-3.07153e-07
-0.0059492
0.000276409
-9.16896e-05
-0.00696573
-0.000133023
-0.000467739
-0.00740597
-0.000204473
-0.000110143
-0.00668801
-4.09744e-05
0.000551406
-0.00409908
-2.45273e-05
0.000746676
-0.00412706
-9.09782e-05
0.00117802
-0.00380335
3.57072e-06
-0.000162227
-0.00248471
0.000213376
-9.71618e-05
-0.00259941
-5.77401e-05