/*--------------------------------*- C++ -*----------------------------------*\
  =========                 |
  \\      /  F ield         | OpenFOAM: The Open Source CFD Toolbox
   \\    /   O peration     | Website:  https://openfoam.org
    \\  /    A nd           | Version:  7
     \\/     M anipulation  |
\*---------------------------------------------------------------------------*/
FoamFile
{
    version     2.0;
    format      ascii;
    class       surfaceScalarField;
    location    "8.5";
    object      phi_0;
}
// * * * * * * * * * * * * * * * * * * * * * * * * * * * * * * * * * * * * * //

dimensions      [0 3 -1 0 0 0 0];

internalField   nonuniform List<scalar> 
54184
(
1.68872e-05
-0.00209495
-0.000120811
0.000274033
-0.00243521
-0.000358268
1.40612e-05
-0.00207867
-0.000128201
2.93279e-05
-0.00170507
-0.0001374
0.000530943
-0.00484083
-0.000296409
0.000268718
-0.00264316
-0.000377509
0.000180609
-0.00113315
-0.000302642
-3.53852e-06
-0.00204473
-0.00012311
3.44077e-05
-0.0017213
-0.000146372
8.2082e-05
-0.000895571
-0.000137427
0.000778893
-0.00549057
-0.00031479
0.00047654
-0.00473604
-0.000364561
0.000517688
-0.00378401
-0.000349299
0.000202501
-0.00278031
-0.000362393
0.000221823
-0.00137485
-0.000323224
0.000160457
-0.000752734
-0.000229535
-2.09763e-05
-0.0019931
-0.000118181
4.46368e-05
-0.00174793
-0.000141118
9.45564e-05
-0.000988021
-0.000148478
1.30163e-05
-0.000277534
-0.000119808
0.00129482
-0.00610274
-0.000133464
0.000688256
-0.00527007
-0.000219395
0.000824688
-0.00488141
-0.000314884
0.000366644
-0.0045305
-0.000333975
0.000589444
-0.00411416
-0.000402032
0.000323353
-0.0019885
-0.000266648
0.000147521
-0.00285403
-0.000351676
0.000292066
-0.00166643
-0.000318242
0.000216741
-0.000949572
-0.00024857
5.37567e-05
-2.60929e-05
-0.000223092
-3.81034e-05
-0.00192394
-0.000113504
4.35494e-05
-0.00177357
-0.000136088
9.62715e-05
-0.00107988
-0.00014553
2.35153e-05
-0.000319352
-0.000130176
6.99424e-06
0.000136433
-0.000101785
0.00188206
-0.00692014
8.29457e-05
0.00109473
-0.00619732
7.74744e-05
0.00148395
-0.00537094
-0.000316687
0.000493972
-0.00499596
-5.93632e-05
0.000946288
-0.00513726
-0.000320399
0.000772351
-0.00360642
-0.000170357
0.000259425
-0.00429279
-0.000252781
0.000627307
-0.00444116
-0.000342212
0.000507717
-0.00242842
-0.000253087
7.82276e-05
-0.00107252
-0.000240551
8.15712e-05
-0.00285096
-0.000339335
0.000314675
-0.00196208
-0.000327143
0.000248067
-0.00116666
-0.000252954
0.000127512
-0.000133007
-0.000245652
-4.63029e-05
0.000411459
-0.000237676
-5.51135e-05
-0.00183726
-0.000108965
3.37863e-05
-0.00178942
-0.000131444
9.75208e-05
-0.00117047
-0.000143017
3.21879e-05
-0.000368628
-0.000128442
1.14234e-05
0.000104889
-0.000110055
-3.11969e-05
-2.04262e-05
-9.01222e-05
0.00180422
-0.0060685
0.000216387
0.0010342
-0.00661851
0.000496655
0.0016313
-0.00680627
-4.999e-05
0.000622905
-0.00623312
0.000410131
0.00158075
-0.00574455
-0.000183371
0.0013683
-0.00550541
-0.000191965
0.000332707
-0.00476961
0.000181031
0.00092006
-0.00512245
-0.000366924
0.000954504
-0.00420539
-0.000168212
0.000388303
-0.00330768
-0.00022551
0.000137827
-0.00399233
-0.000191419
0.000636955
-0.00466611
-0.000350117
0.000690825
-0.00299981
-0.000213587
0.000236291
-0.0011867
-0.000247691
-0.000141065
-0.000725786
-0.000306325
2.32713e-05
-0.00279988
-0.000309387
0.000292573
-0.00222099
-0.00033922
0.000262813
-0.00139544
-0.000263654
0.000134378
-0.000240894
-0.000247257
-2.46749e-05
0.000456873
-0.000254968
-0.000180806
-0.000468615
-0.000226707
-7.21707e-05
-0.00173292
-0.000104617
2.8467e-05
-0.00179975
-0.000127098
9.88235e-05
-0.00125986
-0.00014088
4.35747e-05
-0.000428131
-0.000127089
1.90056e-05
6.52531e-05
-0.000107812
-3.20245e-05
-9.45335e-07
-9.75111e-05
-8.04488e-05
-0.000130067
-9.09342e-05
0.00136614
-0.0063166
0.00094078
0.00114477
-0.00596679
0.000466654
0.00150699
-0.00677873
0.000157397
0.000699784
-0.00661109
0.000813798
0.00216645
-0.00678893
-0.000106397
0.0014347
-0.00705531
-0.000191664
0.000463397
-0.00630761
0.000540491
0.00140195
-0.00590034
8.40259e-05
0.00131228
-0.00592614
-0.000120411
0.000748362
-0.00614263
-0.000118193
0.000183418
-0.00456578
0.000295522
0.000826561
-0.00486164
-0.000269387
0.00113542
-0.00480361
-0.000213299
0.00057773
-0.00363929
-0.000178036
9.46241e-05
-0.00365251
-0.000195586
3.95112e-05
-0.00367782
-0.00012131
0.000495089
-0.00467287
-0.000387175
0.000748509
-0.00363003
-0.00020559
0.000472987
-0.00150908
-0.00022982
-0.000131734
-0.000553128
-0.00031329
-0.000435356
-0.0012033
-0.00029324
-2.70648e-05
-0.00271302
-0.000277046
0.000270534
-0.00244371
-0.00032873
0.0002903
-0.00165805
-0.000268081
0.000148976
-0.000361396
-0.000248554
4.23145e-05
0.000435322
-0.000249014
-0.000200845
-0.000310099
-0.000244662
-0.00034552
-0.00135445
-0.000226811
-8.91449e-05
-0.00161162
-0.000100449
1.91391e-05
-0.00180037
-0.000123145
0.000103771
-0.00135193
-0.0001388
5.6409e-05
-0.000499495
-0.000125925
2.93756e-05
1.44705e-05
-0.000105682
-2.21032e-05
9.15257e-06
-9.58072e-05
-8.77968e-05
-4.08428e-05
-9.89382e-05
-7.7197e-05
-0.000760403
-9.21739e-05
0.00122319
-0.00658443
0.00182699
0.0013143
-0.00615273
0.00105777
0.00138561
-0.00696785
0.000978432
0.00101965
-0.00584333
0.00060852
0.00201521
-0.00637949
0.000218657
0.00128964
-0.00695801
1.58185e-05
0.000492713
-0.00658073
0.000679044
0.0015529
-0.0063294
0.000203314
0.00154803
-0.0071423
-0.000255159
0.00085132
-0.00716297
-0.00033028
0.00029378
-0.00632854
0.000637
0.00102862
-0.00574996
0.000188057
0.00135612
-0.00587856
-0.000184252
0.000941841
-0.00658675
-4.03993e-05
0.000508097
-0.00626473
-0.000129332
8.30595e-05
-0.00441956
0.000418088
0.000595833
-0.00455219
-0.000114663
0.00116867
-0.00514502
-0.000348143
0.000873859
-0.00422398
-2.94838e-05
0.000233521
-0.0040332
-0.0001626
-1.78132e-05
-0.00429234
-0.000268383
-1.10789e-05
-0.00339054
-6.17496e-05
0.000359182
-0.00452921
-0.000353615
0.000705055
-0.00414689
-0.000285073
0.000577747
-0.00195628
-0.000187152
0.000112773
-0.000568329
-0.000285076
-0.000438321
-0.000985031
-0.000294086
-0.000569705
-0.00219893
-0.000264928
-8.01175e-05
-0.00258877
-0.000249957
0.000228202
-0.00260959
-0.000320225
0.000327507
-0.00195259
-0.000257927
0.000181322
-0.000511126
-0.000243264
9.94704e-05
0.000359502
-0.000242829
-0.000155339
-0.000186421
-0.000239458
-0.00037462
-0.00106586
-0.000246425
-0.000299661
-0.00148452
-0.000204547
-0.000104673
-0.00147497
-9.63884e-05
1.86835e-06
-0.00178355
-0.00011913
0.000105563
-0.00144441
-0.00013623
7.26584e-05
-0.000585903
-0.00012505
3.49344e-05
-4.26805e-05
-0.000103709
-1.13175e-05
9.21889e-06
-9.44309e-05
-8.32223e-05
4.42777e-05
-9.77054e-05
-8.70552e-05
-0.000670998
-0.000101287
-0.000117562
-0.00123471
-8.77115e-05
0.000893079
-0.00653206
0.00247775
0.000822967
-0.00638251
0.00218279
0.00115914
-0.00635075
0.00207067
0.00119826
-0.00687779
0.00189489
0.00116251
-0.00589738
0.00118231
0.00131393
-0.00635479
0.00114599
0.00106343
-0.0067596
0.00103047
0.000555881
-0.00550957
0.00101094
0.00142882
-0.00610522
0.000458336
0.00146898
-0.00669458
3.42689e-05
0.000770055
-0.00719614
-3.68301e-05
0.000141107
-0.00630755
0.0010069
0.00140504
-0.00637375
0.000346973
0.00137278
-0.00679914
-0.000156507
0.00112781
-0.00721515
-0.000388948
0.000514024
-0.00771551
-0.000409073
0.000174522
-0.00633821
0.000632597
0.00073573
-0.00544962
0.000196765
0.00140368
-0.00581744
-0.000108075
0.00101929
-0.00673046
-0.000185979
0.000799804
-0.00676372
-0.000107695
0.000601743
-0.00756484
-0.0004564
4.38064e-05
-0.00433185
0.000470261
0.000408912
-0.00424716
6.33212e-05
0.000941768
-0.00525825
-0.000238142
0.00108082
-0.00510095
2.57521e-05
0.000447124
-0.00438651
-1.05258e-05
-2.94353e-05
-0.00463845
-0.000225381
-0.000188019
-0.00577059
-0.000451673
-5.23422e-05
-0.00313684
-6.38059e-06
0.000254393
-0.00434498
-0.000272169
0.00069086
-0.00450055
-0.000363308
0.000579567
-0.00244913
-0.000190475
0.000426634
-0.000851786
-0.000230858
-0.00035768
-0.000815928
-0.000251839
-0.000535527
-0.00205085
-0.000281257
-0.000506885
-0.0032514
-0.000254248
-0.000122117
-0.00244621
-0.000223343
0.000157381
-0.00270108
-0.00031398
0.000358579
-0.00226811
-0.000257726
0.000261005
-0.000727369
-0.00023003
9.79146e-05
0.000290513
-0.000237255
-0.000127585
-7.86229e-05
-0.000234359
-0.000351766
-0.000790934
-0.000245837
-0.000331593
-0.00126801
-0.000218397
-0.000337866
-0.00302146
-0.000142206
-0.000124287
-0.00131922
-9.22559e-05
-1.24615e-05
-0.00175205
-0.000115429
9.94502e-05
-0.00153015
-0.000132833
7.85797e-05
-0.00067611
-0.000124603
4.2605e-05
-0.000108145
-0.000102191
1.79028e-06
-2.58128e-06
-9.3699e-05
-7.51537e-05
0.000121161
-9.61609e-05
-8.77267e-05
-0.00057968
-0.000101298
-0.000136366
-0.00110303
-9.66015e-05
-7.35503e-05
-0.00162622
-7.4942e-05
0.000751467
-0.00579473
0.00263965
0.000563212
-0.00635766
0.00241697
0.000658263
-0.00627807
0.00239595
0.00118396
-0.00626508
0.0024514
0.0010333
-0.00653186
0.00216438
0.0013147
-0.00638852
0.00199304
0.00121974
-0.0067442
0.00203127
0.000858118
-0.0068359
0.00191443
0.000820088
-0.00566297
0.00143232
0.00114343
-0.00595346
0.00106637
0.00111863
-0.00646994
0.00120667
0.000919396
-0.00707712
0.000849706
0.000333503
-0.0053638
0.00134043
0.00166475
-0.00599592
0.000641936
0.00131389
-0.00650618
0.00032883
0.00101965
-0.00697298
-8.07204e-05
0.000632209
-0.00720487
5.47986e-05
0.000136232
-0.00625348
0.00136706
0.000877469
-0.00638394
0.000875339
0.00143991
-0.00638296
-0.000105432
0.00122218
-0.00721437
-0.000360172
0.000647708
-0.00751411
-0.000438254
9.07148e-05
-0.00796747
-0.000253237
0.000119659
-0.00635966
0.000713647
0.000458582
-0.0052144
0.000347705
0.00131199
-0.00584255
-0.000148346
0.00109799
-0.0067323
-0.000123406
0.000786247
-0.00717383
-0.00011499
0.000489386
-0.0077806
-0.000410752
0.000127889
-0.00833014
-0.000402245
1.73752e-05
-0.00432426
0.000509082
0.000264543
-0.00394758
0.000160537
0.000906722
-0.0053194
-9.1395e-05
0.0010145
-0.00582675
5.27242e-05
0.000786335
-0.00490824
0.000187779
-5.7e-05
-0.0048364
-0.000113255
-0.000164638
-0.00590397
-0.000462895
-0.00046366
-0.00652357
-0.000479286
-8.00561e-05
-0.00292363
2.90527e-05
0.000166987
-0.00412585
-0.000235118
0.000620725
-0.00466249
-0.000372375
0.000626165
-0.00293328
-0.000244312
0.000448024
-0.00120752
-0.000184855
-0.000254801
-0.000735032
-0.000184538
-0.000504125
-0.0018793
-0.000271039
-0.000510505
-0.0030721
-0.000281643
-0.000370962
-0.00501133
-0.000181756
-0.000167487
-0.0022897
-0.000203984
0.000104959
-0.00274293
-0.000298912
0.000345798
-0.00256101
-0.000267422
0.000308248
-0.000988652
-0.000226111
9.09891e-05
0.000246137
-0.000234039
-5.71715e-05
-2.00225e-05
-0.000236894
-0.000321176
-0.000537423
-0.000241849
-0.000327627
-0.00106051
-0.000213441
-0.00039922
-0.00282456
-0.000152441
-0.000175835
-0.00373044
-0.00013292
-0.000141919
-0.00114644
-8.78982e-05
-2.7438e-05
-0.00170503
-0.000111836
8.40604e-05
-0.00160018
-0.000129464
8.56635e-05
-0.000770055
-0.000124551
5.28789e-05
-0.000184022
-0.000101605
1.65221e-05
-2.83444e-05
-9.29498e-05
-5.95332e-05
0.000181982
-9.49868e-05
-8.90363e-05
-0.000486331
-0.000100474
-0.000140951
-0.000966387
-9.69892e-05
-9.45425e-05
-0.00154623
-8.20408e-05
-1.25767e-05
-0.00205991
-4.84243e-05
0.000629093
-0.00544808
0.00293658
0.00074417
-0.00586955
0.0026207
0.000596501
-0.00583436
0.00256847
0.00110682
-0.00616308
0.00254808
0.000907069
-0.00626225
0.00252738
0.00101122
-0.00629102
0.00208334
0.00122454
-0.0061258
0.00240291
0.00104419
-0.00643785
0.00253293
0.00074724
-0.00650073
0.00198537
0.000962581
-0.00632391
0.00201345
0.000952409
-0.0064852
0.00192507
0.00114625
-0.00686535
0.00203311
0.00110905
-0.00646754
0.0016144
0.000715027
-0.00560845
0.00154465
0.00198005
-0.00582681
0.000990372
0.00112814
-0.00641754
0.00119973
0.000803124
-0.00663054
0.000976607
0.00067446
-0.00699873
0.000847298
0.000479306
-0.00563871
0.00142553
0.0011611
-0.00581037
0.000871245
0.00160631
-0.0065269
0.000496263
0.00143591
-0.00693618
7.82958e-05
0.000654284
-0.00723511
-5.70614e-05
-0.00029527
-0.0068403
0.000467736
0.000209835
-0.00622345
0.0013102
0.000440914
-0.00587911
0.000879898
0.00160488
-0.00620576
0.000405236
0.00128137
-0.0072297
-0.000273488
0.00068102
-0.00738386
-0.000385194
0.000214297
-0.00783163
-0.000299002
-0.000299215
-0.00786444
-3.26497e-05
0.000147743
-0.0064605
0.000740399
0.000330339
-0.00510427
0.000537723
0.000838685
-0.0054823
5.5491e-05
0.00111318
-0.00686947
-0.000109855
0.000730121
-0.00719993
-4.10929e-05
0.000365178
-0.00802136
-0.000296407
-7.15851e-05
-0.00844452
-0.00038943
-0.000348
-0.00853339
-0.000197646
2.05858e-05
-0.00437155
0.000545219
0.000179529
-0.00369512
0.00024408
0.000694766
-0.00521839
-1.45178e-05
0.000920585
-0.00624394
3.13766e-05
0.000873351
-0.00551127
0.000230434
3.81267e-05
-0.00498676
4.521e-05
-0.000193053
-0.00594473
-0.000383565
-0.000258899
-0.00671585
-0.000522218
-0.000168452
-0.00657114
-0.000345423
-0.000101261
-0.00277252
9.83571e-05
8.34165e-05
-0.00385898
-0.00021627
0.000534779
-0.0047133
-0.000373284
0.000669452
-0.00338801
-0.000278852
0.000320262
-0.00153927
-0.000141834
-0.000122823
-0.000725898
-0.000128338
-0.000504667
-0.00164974
-0.000230602
-0.000477349
-0.00289149
-0.00030193
-0.000489889
-0.00497493
-0.000227379
-0.000121139
-0.00474482
-0.000110443
-0.000202706
-0.00212829
-0.000188136
6.29132e-05
-0.00275958
-0.000277692
0.000282381
-0.0027791
-0.000279149
0.000320427
-0.00125632
-0.00023452
0.000133913
0.000168755
-0.000229762
3.55719e-06
-9.45164e-06
-0.000231645
-0.000273089
-0.000316575
-0.000244187
-0.000336768
-0.000854176
-0.00020045
-0.000427642
-0.00260502
-0.00014629
-0.000237753
-0.0035998
-0.00013987
-2.90598e-05
-0.00395598
-4.82023e-05
-0.000152802
-0.000963282
-8.35705e-05
-4.44154e-05
-0.00164022
-0.000108292
6.82845e-05
-0.00165419
-0.000126105
9.84141e-05
-0.000873015
-0.000124919
6.16458e-05
-0.000268311
-0.000101909
2.59026e-05
-6.39731e-05
-9.18787e-05
-4.66688e-05
0.000229107
-9.34052e-05
-8.97051e-05
-0.000393031
-9.85818e-05
-0.000136702
-0.000833039
-9.71191e-05
-0.00010639
-0.00145559
-8.12461e-05
-2.73975e-05
-0.00206137
-5.31804e-05
5.05851e-05
-0.00282797
-3.1074e-05
0.00067276
-0.00496481
0.00356177
0.000500308
-0.00515082
0.00321946
0.000750326
-0.00541439
0.00289086
0.0005011
-0.00548195
0.00293146
0.000955264
-0.00573184
0.00288316
0.000788738
-0.00575278
0.00265745
0.00131142
-0.00579543
0.00232767
0.000865505
-0.00593194
0.0026832
0.00090438
-0.00608943
0.00251507
0.000945955
-0.00611394
0.00215159
0.00168155
-0.00607968
0.00201512
0.000965053
-0.00604046
0.0023339
0.00120534
-0.00660397
0.0023161
0.00117842
-0.00636853
0.00236857
0.00118256
-0.00647992
0.00176579
0.000798786
-0.00624578
0.00202937
0.00172866
-0.00608118
0.00186082
0.000874352
-0.0067162
0.0020297
0.00117911
-0.00661544
0.00180503
0.000608438
-0.0067667
0.00154174
0.000718704
-0.00562055
0.00164775
0.00125784
-0.00556397
0.00118507
0.00145181
-0.00632971
0.00105704
0.00132969
-0.00640404
0.00107946
0.00061864
-0.0069979
0.00101142
-0.000256524
-0.00621938
0.000805547
0.00074092
-0.00618966
0.00192494
0.000711682
-0.00588368
0.00122807
0.00137708
-0.00600455
0.000576699
0.00138616
-0.00690844
0.000363738
0.000688405
-0.00717684
1.26448e-05
-3.32081e-05
-0.00673723
8.73739e-05
-0.000325345
-0.0066649
0.000318246
0.000238877
-0.00629027
0.00144561
0.00031146
-0.00562583
0.00107579
0.00109066
-0.0059247
0.000346865
0.00113231
-0.00672944
-0.000114151
0.000833582
-0.0074378
-0.000323009
6.48015e-05
-0.0076807
-0.000235749
-0.000423644
-0.00777894
-3.24406e-05
-0.000174694
-0.00798392
-0.00013114
0.000143508
-0.00654405
0.000705408
0.000205749
-0.00503867
0.000648578
0.000705733
-0.00522692
0.00027138
0.000944998
-0.00680576
-3.26354e-05
0.000731125
-0.00717963
1.20686e-05
0.000222463
-0.00811976
-0.000127029
-4.83769e-05
-0.00853412
-0.000351482
-0.000205708
-0.00876895
-0.000207063
4.54437e-05
-0.00740914
-0.000237284
2.50265e-05
-0.00446174
0.000544407
7.69085e-05
-0.00350723
0.000363832
0.00056516
-0.00507136
6.66703e-05
0.000779709
-0.00644006
7.13455e-05
0.000768259
-0.00619026
0.000262362
0.000154293
-0.00522685
0.000193418
-0.000238762
-0.00599544
-0.000169982
-0.000165331
-0.00700871
-0.000402725
-0.00035475
-0.00675752
-0.000470979
0.000353267
-0.00508161
-0.000267141
-0.000114604
-0.00266299
0.000180373
2.54957e-05
-0.00357861
-0.000144604
0.000370564
-0.00467223
-0.00034553
0.000651837
-0.00378475
-0.000307955
0.000314371
-0.00188619
-0.000112383
0.000187798
-0.000949912
-0.000102062
-0.000437283
-0.00142755
-0.000186332
-0.000480965
-0.00268721
-0.000290686
-0.000593261
-0.00489085
-0.000220391
-0.00022822
-0.0048491
-0.000132627
0.000147605
-0.00347508
-9.74106e-05
-0.000225058
-0.00196753
-0.00015507
1.19768e-05
-0.0027507
-0.000253411
0.000232403
-0.0029371
-0.000283806
0.000325854
-0.00152828
-0.000234631
0.000227458
-6.38332e-06
-0.000225194
1.57422e-05
-1.38113e-05
-0.000215242
-0.000217595
-0.000143172
-0.000234122
-0.000334555
-0.000667601
-0.000185911
-0.000446836
-0.00236088
-0.000134459
-0.000264089
-0.00345551
-0.000132873
-9.18836e-05
-0.00398207
-4.92939e-05
0.000139407
-0.00452106
-2.90053e-05
-0.000160255
-0.000773303
-7.9652e-05
-6.143e-05
-0.00155748
-0.000104886
5.42466e-05
-0.0016941
-0.000122635
0.000108304
-0.000981993
-0.000125431
7.43882e-05
-0.000364689
-0.000102928
3.81848e-05
-0.000113416
-9.06505e-05
-3.81029e-05
0.000267292
-9.19613e-05
-9.32555e-05
-0.000298211
-9.49697e-05
-0.000138226
-0.000697645
-9.575e-05
-0.000118991
-0.00135201
-8.17044e-05
-4.23877e-05
-0.0020453
-5.49364e-05
4.01027e-05
-0.00288719
-3.40611e-05
0.000131763
-0.0037881
-2.23997e-05
0.00040916
-0.00452637
0.00390637
0.000488097
-0.00494897
0.00348225
0.000619629
-0.00508628
0.00362603
0.000675689
-0.00512929
0.0031948
0.000421892
-0.00513141
0.00334141
0.000848194
-0.00531262
0.00317243
0.000550599
-0.00529521
0.00294227
0.00111603
-0.00533982
0.00287418
0.000760867
-0.00566822
0.00287306
0.000983439
-0.00578396
0.00283528
0.00112085
-0.00567681
0.00236394
0.00167327
-0.00579965
0.00237834
0.00102469
-0.00578818
0.00252948
0.00111631
-0.00597003
0.00265282
0.00114699
-0.00597974
0.0024123
0.0015041
-0.00619214
0.00194251
0.00129401
-0.00552168
0.00182595
0.00090872
-0.00612734
0.00239628
0.00127
-0.00610315
0.00229174
0.000891067
-0.00643422
0.00236508
0.00138524
-0.00634745
0.00202997
0.000834182
-0.00613572
0.00155648
0.000771795
-0.00617656
0.00206802
0.00109502
-0.00589088
0.00200189
0.00109576
-0.0064589
0.00195956
0.00112145
-0.00631823
0.00194073
0.000738842
-0.00671853
0.00163666
0.000104001
-0.0061266
0.00118314
0.000938425
-0.00585404
0.0019555
0.00109509
-0.00577179
0.00147216
0.00114226
-0.00609259
0.00118277
0.0012542
-0.00623941
0.00102437
0.000692327
-0.0069749
0.00105254
-0.000167515
-0.00592548
0.000851831
0.000223702
-0.00657907
-3.32775e-05
0.000250972
-0.00631982
0.0017972
0.000574052
-0.00589247
0.00167114
0.00129217
-0.0057896
0.000811608
0.0010405
-0.00656008
0.000320146
0.000900456
-0.00694565
6.56697e-05
-0.000192213
-0.00665459
0.000187016
-0.000418858
-0.00665065
6.83351e-05
0.000224032
-0.00624669
-0.000448345
0.000273221
-0.00643808
0.00148628
9.69484e-05
-0.00535766
0.00128624
0.000849876
-0.00580113
0.000808082
0.00110775
-0.00658487
3.95462e-05
0.000694005
-0.00721761
-0.000297216
-3.75092e-06
-0.00753132
-0.000246172
-0.000350385
-0.00760238
-0.000110306
-0.000299117
-0.00781092
-0.000112031
0.00025741
-0.00604104
-0.00027504
0.000126058
-0.00659293
0.000738171
0.000159895
-0.00527483
0.000858581
0.000432146
-0.00493242
0.000487086
0.00073336
-0.00655892
7.08943e-05
0.000810384
-0.0073026
4.82121e-05
0.000356038
-0.0082604
-4.90337e-05
-6.63655e-05
-0.00854295
-0.000290598
-0.000276517
-0.00880187
-0.000207375
-0.00015969
-0.00767527
-0.000135996
0.000795306
-0.00646112
-8.48678e-05
-1.84734e-05
-0.00463143
0.000563347
2.14896e-05
-0.00335326
0.000394444
0.000319108
-0.00481166
0.000155588
0.000763003
-0.00657548
9.09216e-05
0.000614166
-0.00667622
0.000257517
0.000485772
-0.00553718
0.000274714
-0.000241102
-0.00601593
1.77208e-05
-0.000367467
-0.00697986
-0.000312328
-0.000530054
-0.00706864
-0.000154813
0.000310171
-0.00571898
-0.000372
0.000519451
-0.00301949
-0.000330337
-0.000110506
-0.00259645
0.000215283
-2.70748e-05
-0.00325021
-0.00010897
0.000290502
-0.00458104
-0.000293894
0.000619548
-0.00408492
-0.000339055
0.000488993
-0.00232221
-0.000133473
0.000242875
-0.0011701
-0.000119325
-0.000389785
-0.00119641
-0.000161014
-0.000374873
-0.0025533
-0.00027993
-0.000556252
-0.0048654
-0.00020672
-0.000261064
-0.00496034
-0.000112183
8.64264e-05
-0.00376912
-1.68973e-05
0.000331519
-0.00421312
4.6518e-05
-0.000241951
-0.00180944
-0.000120339
-3.7425e-05
-0.00269966
-0.000230113
0.000195709
-0.00304704
-0.000284931
0.000339809
-0.0018123
-0.000231286
0.00029666
-0.000255616
-0.00020767
1.44923e-05
-1.28957e-05
-0.000202418
-0.00016624
-9.09105e-06
-0.000221186
-0.000345133
-0.000469533
-0.000180313
-0.000451944
-0.00210793
-0.000125148
-0.000292264
-0.00329953
-0.000117168
-0.000136218
-0.00394654
-7.45725e-05
0.000116311
-0.00461447
-3.20877e-05
0.000349092
-0.00408403
-6.11489e-05
-0.000164763
-0.000579434
-7.65728e-05
-7.9553e-05
-0.00145588
-0.000101701
3.82098e-05
-0.00171815
-0.000119043
0.000114196
-0.00109315
-0.000125679
8.47128e-05
-0.000470478
-0.000104354
5.09192e-05
-0.000177918
-8.93458e-05
-2.97008e-05
0.000296786
-9.0444e-05
-8.81177e-05
-0.000211286
-9.0769e-05
-0.000139482
-0.000559783
-9.33493e-05
-0.000126583
-0.00123897
-8.22046e-05
-6.15393e-05
-0.00201077
-5.46879e-05
2.87294e-05
-0.0029343
-3.6551e-05
0.000132511
-0.00392876
-2.5914e-05
0.00022933
-0.00369754
-2.36431e-05
8.42966e-05
-0.00445777
0.00389978
0.000482681
-0.00460402
0.00387666
0.000411037
-0.00457528
0.00403839
0.000568407
-0.00485264
0.00343748
0.000234328
-0.00503351
0.00361705
0.000571157
-0.00501184
0.00376404
0.000835304
-0.00523883
0.00350913
0.000333427
-0.00505782
0.00333838
0.000910867
-0.00499363
0.00339613
0.000774437
-0.00535486
0.00319731
0.000830928
-0.00516727
0.00319699
0.00121919
-0.00531404
0.00281815
0.00167216
-0.00535507
0.00276048
0.000969705
-0.00553688
0.00277844
0.00104016
-0.00570899
0.00287425
0.00106523
-0.00547729
0.00271752
0.00163416
-0.00582664
0.00226088
0.00177768
-0.00480205
0.00178404
0.000730485
-0.00560458
0.00254371
0.00113084
-0.00588087
0.00257948
0.00100271
-0.00594777
0.00250921
0.00142117
-0.00590835
0.00209257
0.00118535
-0.00566296
0.00173261
0.00202473
-0.00589017
0.00097205
0.000748937
-0.00604743
0.00232059
0.00113566
-0.00613962
0.00239212
0.000977402
-0.00636143
0.00233731
0.00154178
-0.00651901
0.00211631
0.00124068
-0.00628701
0.00167942
0.000918797
-0.00550582
0.000707508
0.000767356
-0.00596489
0.00212428
0.00112212
-0.00583792
0.00198803
0.000966309
-0.00623524
0.00195418
0.00119042
-0.0062513
0.0019564
0.000816061
-0.0065448
0.00164326
0.000143518
-0.00621839
0.00141741
0.000938071
-0.00618885
0.00026829
0.000339629
-0.00610151
0.00204895
0.000968036
-0.00600491
0.00179464
0.00143697
-0.00610789
0.00134266
0.00109631
-0.00626704
0.00115459
0.000813585
-0.00683532
0.000971663
-6.45941e-05
-0.00597452
0.000973958
2.9266e-05
-0.00620877
3.34068e-05
0.000733451
-0.00639847
-0.000573811
0.000508571
-0.0065999
0.00180947
0.000217085
-0.00595686
0.00174145
0.00103477
-0.00549524
0.00119189
0.00131146
-0.00641064
0.000458453
0.000867282
-0.00681538
1.6595e-05
3.36022e-05
-0.0068189
0.000192626
-0.000363685
-0.00658954
0.000139209
0.000128354
-0.00636793
-0.000237897
0.000499559
-0.00522693
-0.00066365
0.000272272
-0.0065097
0.00135949
0.000237954
-0.00538381
0.00143437
0.000480687
-0.00571175
0.00114832
0.000888964
-0.00642574
0.00049335
0.000806256
-0.00697511
-0.000198835
0.000214577
-0.00744755
-0.000239526
-0.000381036
-0.00746008
-7.38034e-05
-0.000580034
-0.00749311
-0.000124597
0.000314165
-0.00633337
-0.000293555
0.00117789
-0.00519226
-0.000273518
0.000153105
-0.00663495
0.000652478
0.00028503
-0.0054441
0.000643903
0.000232636
-0.00459464
0.000607282
0.000714477
-0.00633287
0.000309557
0.000937963
-0.00764952
9.40201e-05
0.000524495
-0.00823249
-1.84225e-05
-0.000124792
-0.0084701
-0.000238186
-0.000542596
-0.00877929
-0.000138051
-0.000359358
-0.00800632
-4.70124e-05
0.000733204
-0.00707933
5.9186e-05
0.00103616
-0.00427884
-0.000157069
-4.54285e-05
-0.00474246
0.000544375
3.00272e-05
-0.0032942
0.00044719
0.000290889
-0.00450203
8.44276e-05
0.0005209
-0.0063783
5.70611e-05
0.000599318
-0.00692229
0.00022666
0.000565846
-0.00599705
0.000394415
-0.0003405
-0.00588174
9.12408e-05
-0.000181752
-0.00691402
-0.000241246
-0.000443539
-0.00726174
-0.000231939
0.00013364
-0.006229
-3.94996e-05
0.000518659
-0.00355803
-0.000265693
0.000767794
-0.00345265
-0.000245556
-0.000129656
-0.00254188
0.000221897
-6.94528e-05
-0.00291582
-8.70757e-05
0.000216255
-0.00443309
-0.000277466
0.000781851
-0.00447431
-0.000346547
0.00055924
-0.00273593
-0.000187915
9.76935e-05
-0.00126985
-0.00011693
-0.000221543
-0.00108583
-0.000174604
-0.000381281
-0.00240316
-0.000275005
-0.000564806
-0.00483337
-0.000199092
-0.000335252
-0.00501075
-0.000113321
5.27474e-05
-0.00408415
1.38886e-05
0.000291502
-0.00448581
8.06049e-05
0.000635804
-0.00429003
0.000128881
-0.000250823
-0.00166024
-9.58417e-05
-8.83116e-05
-0.00260169
-0.000209547
0.000138459
-0.00309365
-0.000283758
0.000359263
-0.00211084
-0.000231461
0.000335918
-0.000543745
-0.000194363
2.92043e-05
-4.92282e-06
-0.000193928
-0.000133771
0.00010669
-0.000214128
-0.000328002
-0.000263829
-0.000187005
-0.000447274
-0.00185289
-0.000127554
-0.000341233
-0.00309537
-0.00011466
-0.000153307
-0.00389857
-7.33629e-05
0.000104709
-0.00470484
-6.01786e-05
0.00036612
-0.00427391
-7.58157e-05
0.000507846
-0.00330013
-6.17384e-05
-0.00016779
-0.000383332
-7.43123e-05
-9.62407e-05
-0.00133734
-9.88651e-05
1.67121e-05
-0.00172085
-0.000115713
0.000115148
-0.00120192
-0.000125417
9.44218e-05
-0.000584435
-0.000106144
6.66258e-05
-0.000260701
-8.81962e-05
-2.32658e-05
0.000319451
-8.87451e-05
-8.24926e-05
-0.000131608
-8.76293e-05
-0.000138358
-0.000421616
-9.05783e-05
-0.000133572
-0.00111611
-8.26373e-05
-7.33895e-05
-0.00196463
-5.49635e-05
1.4195e-05
-0.00296666
-3.65264e-05
0.000115138
-0.00405296
-2.74885e-05
0.000239567
-0.00393662
-2.6408e-05
0.00027364
-0.00332893
-3.08531e-05
-9.89837e-05
-0.00385197
0.00412466
0.000248489
-0.00451287
0.00404945
6.62021e-05
-0.00431053
0.00421297
0.000267738
-0.00444438
0.00386732
0.000115874
-0.00454903
0.00396886
0.000461063
-0.00471369
0.00399778
0.000832912
-0.00493762
0.00380708
5.34576e-05
-0.00490896
0.0035929
0.000865058
-0.00504428
0.00369531
0.00132852
-0.00531416
0.00380174
0.000443158
-0.00508643
0.0034929
0.000676358
-0.00506705
0.00367293
0.00104595
-0.00482217
0.00334016
0.00157841
-0.00505087
0.00329349
0.000812382
-0.00520912
0.00313511
0.000900997
-0.00514953
0.00331873
0.000955208
-0.00518592
0.0031789
0.00177768
-0.00542804
0.00274759
0.00168984
-0.00501591
0.00299322
0.000626277
-0.0053998
0.0028295
0.00087123
-0.00554308
0.00287213
0.00105338
-0.00549852
0.00284481
0.0015188
-0.00571052
0.00250377
0.00159767
-0.00498892
0.00203543
0.00248553
-0.00540862
0.000951461
0.000652539
-0.00542736
0.00257847
0.0011462
-0.00602113
0.00267342
0.000914176
-0.00564574
0.00234068
0.00158582
-0.00585916
0.00241598
0.00155895
-0.00562341
0.00173475
0.00168226
-0.00589935
0.000978334
0.00253386
-0.00506231
-3.83732e-05
0.0007071
-0.00597785
0.00238318
0.00101674
-0.00601921
0.00230556
0.00112282
-0.00636312
0.0022373
0.00114042
-0.00634947
0.00221776
0.00114307
-0.00626766
0.00176994
0.00105349
-0.00572742
0.000991058
0.00156123
-0.00541445
-0.000245025
0.000572887
-0.00621165
0.00220267
0.00110184
-0.00586403
0.0020166
0.00137142
-0.00608461
0.00190295
0.00113536
-0.0062915
0.00195533
0.000931953
-0.00638976
0.00168299
0.000289313
-0.00633119
0.00140216
0.000879061
-0.0059044
0.00028317
0.00133241
-0.00646765
-0.000359751
0.000539859
-0.00626474
0.00198086
0.000500444
-0.00623478
0.00199546
0.00108111
-0.00592262
0.00156304
0.0013348
-0.00617145
0.00122372
0.000948405
-0.00680973
0.00104787
7.7624e-05
-0.00610196
0.00105508
0.000123698
-0.0058168
9.46086e-05
0.000694368
-0.00651394
-0.000417139
0.000975541
-0.0055983
-0.000564033
0.00066227
-0.00695525
0.00148999
0.000354441
-0.00597709
0.0017132
0.000707561
-0.00542211
0.00144145
0.00101634
-0.006012
0.000665875
0.000903503
-0.00658918
0.000135012
0.000222904
-0.00693918
0.000128546
-0.000436242
-0.00656752
0.000225819
-7.31784e-05
-0.00636364
-0.000371937
0.000627975
-0.00529735
-0.000481287
0.00148599
-0.00438845
-0.000438606
0.000201001
-0.00652086
0.00139419
0.000520902
-0.00548706
0.00122687
0.000312743
-0.00555807
0.00120058
0.000825387
-0.00612783
0.000739499
0.00121811
-0.00692814
0.000166236
0.00049382
-0.00745651
-0.000159195
-0.000316566
-0.00750333
-4.49814e-06
-0.000667772
-0.00730959
-0.000132153
6.10603e-05
-0.00663187
-0.000246523
0.000930907
-0.00541025
-0.000273272
0.00166959
-0.0039019
-0.000517246
1.75636e-05
-0.00661079
0.000660093
0.000220939
-0.00573328
0.000750749
0.000274382
-0.00433828
0.000404045
0.0004095
-0.00586809
0.000253906
0.000492122
-0.00742629
0.000193521
0.000473494
-0.00814487
9.8748e-05
-0.000253454
-0.00839775
-0.000177823
-0.000486579
-0.00861666
-9.59854e-05
-0.000366363
-0.00832167
0.000100115
0.000548702
-0.00756303
2.16245e-05
0.0010298
-0.00470569
-2.51169e-05
0.00138243
-0.00234596
-0.000359886
-7.06332e-05
-0.00485851
0.000495841
-5.06794e-05
-0.00327383
0.000505235
0.00017981
-0.00425415
0.000235755
0.000836975
-0.00631324
-3.57584e-05
0.00048523
-0.00699774
0.000206524
0.000271141
-0.00641768
0.000473841
-5.21605e-05
-0.0059122
0.000255498
-9.72374e-05
-0.00696185
-0.000144967
-0.000467229
-0.0073948
-0.000205765
-9.59957e-05
-0.00666887
-3.13279e-05
0.000550324
-0.00405442
-4.0684e-05
0.000755666
-0.00408006
-0.000102442
0.00117976
-0.00373945
-7.94239e-06
-0.000162647
-0.00248428
0.000213654
-9.4635e-05
-0.00262762
-5.9986e-05
0.000125728