/*--------------------------------*- C++ -*----------------------------------*\
  =========                 |
  \\      /  F ield         | OpenFOAM: The Open Source CFD Toolbox
   \\    /   O peration     | Website:  https://openfoam.org
    \\  /    A nd           | Version:  7
     \\/     M anipulation  |
\*---------------------------------------------------------------------------*/
FoamFile
{
    version     2.0;
    format      ascii;
    class       volVectorField;
    location    "8.5";
    object      U;
}
// * * * * * * * * * * * * * * * * * * * * * * * * * * * * * * * * * * * * * //

dimensions      [0 1 -1 0 0 0 0];

internalField   nonuniform List<vector> 
18780
(
(1.06907 0.209131 -2.56132)
(1.18475 -0.653275 -2.75189)
(1.07448 0.242635 -2.46751)
(0.896013 -0.425439 -2.96764)
(2.47027 -1.61369 -1.12007)
(1.29977 -0.786688 -2.53261)
(0.544548 0.120237 -2.72672)
(1.08023 0.277996 -2.37309)
(0.876048 -0.361955 -2.8664)
(0.476407 -0.839581 -3.33578)
(2.8413 -1.22694 -0.298635)
(2.40305 -1.4109 -1.03657)
(1.91329 -1.65611 -1.6883)
(1.31999 -0.674074 -2.34203)
(0.618355 -0.190142 -2.71239)
(0.362766 -0.434613 -1.86582)
(1.08838 0.30751 -2.27932)
(0.869041 -0.296187 -2.76832)
(0.469551 -0.909476 -3.24307)
(0.143846 -0.0710341 -2.96579)
(3.06364 -1.79724 0.662689)
(2.63457 -1.16668 0.187762)
(2.34885 -1.23981 -1.68882)
(2.17409 -1.29146 -0.930097)
(1.88409 -1.68096 -2.08066)
(0.965479 -0.865649 -1.48291)
(1.33645 -0.582159 -2.15767)
(0.722032 -0.66853 -2.68533)
(0.424727 -0.477132 -1.76555)
(0.00499988 -0.171746 -1.63807)
(1.09008 0.34253 -2.18758)
(0.877287 -0.235941 -2.67519)
(0.453518 -0.968407 -3.14686)
(0.157453 -0.152889 -2.94922)
(-0.0631219 -0.21356 -2.52781)
(3.49988 -2.22946 0.344786)
(3.01418 -1.59654 0.957119)
(2.6487 -2.05861 -1.23192)
(2.45873 -0.985303 0.873889)
(2.54466 -1.58224 -1.38252)
(1.6447 -0.929869 -0.451919)
(2.04974 -1.19248 -0.329824)
(2.00761 -1.92533 -1.86261)
(1.06395 -1.25738 -1.16814)
(0.52431 -0.255715 -0.936303)
(1.37361 -0.491807 -1.89844)
(0.825425 -0.911807 -2.74144)
(0.495055 -0.510861 -1.76891)
(0.0297208 -0.240405 -1.68992)
(-0.19527 0.191584 -1.78349)
(1.09638 0.361166 -2.09533)
(0.890926 -0.183504 -2.58931)
(0.430894 -1.00275 -3.05261)
(0.161874 -0.266736 -2.94883)
(-0.0623245 -0.22877 -2.47889)
(0.0106113 0.115664 -2.13067)
(2.67764 -2.91602 0.383749)
(3.24204 -1.66405 1.98346)
(3.55233 -2.63924 0.0100354)
(2.96998 -1.43492 1.32513)
(2.70507 -2.16622 -0.548477)
(2.6344 -2.17067 -0.382839)
(2.32404 -0.774463 1.22652)
(2.42266 -1.86687 -1.09805)
(1.92071 -1.56076 -0.580113)
(1.5985 -0.107224 -0.583332)
(1.89641 -0.965022 -0.00146139)
(2.01242 -2.0241 -1.81589)
(1.18612 -1.61745 -0.901891)
(0.540083 -0.736165 -0.914066)
(0.374445 0.242487 -1.29294)
(1.37081 -0.360478 -1.63346)
(0.842513 -0.977508 -2.83645)
(0.579901 -0.589126 -1.87182)
(0.0686744 -0.268099 -1.75716)
(-0.223638 0.162338 -1.7429)
(0.248936 0.556352 -1.85919)
(1.10058 0.399151 -2.00655)
(0.910145 -0.144347 -2.50832)
(0.422022 -1.00351 -2.96575)
(0.156231 -0.384881 -2.96383)
(-0.0615843 -0.242077 -2.42974)
(0.00877528 0.0951119 -2.09832)
(0.0542528 0.500788 -2.01974)
(3.26152 -1.35601 1.23724)
(3.05726 -1.15487 1.01032)
(3.7775 -1.78684 0.430107)
(3.14569 -0.941827 2.01452)
(3.28353 -2.69101 -0.00412239)
(3.47116 -2.17191 -0.24477)
(2.94387 -1.40916 1.44944)
(2.73513 -2.12648 0.625408)
(2.82796 -2.24788 -0.298845)
(3.0243 -1.43811 -0.503258)
(2.25994 -0.602889 1.57663)
(2.16224 -2.05515 -0.0791438)
(2.14284 -2.343 -1.10958)
(1.75962 -0.556372 -0.382133)
(1.7364 0.639454 -0.817418)
(1.74754 -0.806375 0.285111)
(1.98396 -1.9928 -1.62385)
(1.4317 -1.86019 -1.07966)
(0.564093 -0.796613 -0.893597)
(0.303667 0.0363528 -1.1776)
(0.639655 1.08455 -1.42758)
(1.39242 -0.251442 -1.3503)
(0.909644 -1.14546 -2.6712)
(0.627447 -0.745816 -1.95566)
(0.106973 -0.345119 -1.80562)
(-0.222277 0.0482701 -1.7171)
(0.185276 0.523028 -1.80906)
(0.68625 1.00421 -1.5414)
(1.10763 0.437143 -1.92143)
(0.930129 -0.112676 -2.43119)
(0.432637 -0.964028 -2.88627)
(0.137687 -0.510525 -2.98466)
(-0.057212 -0.252162 -2.38112)
(0.00407823 0.0525345 -2.07067)
(0.0479699 0.504733 -1.99019)
(0.345838 0.631874 -2.14429)
(3.30764 -1.183 2.26733)
(3.03531 -1.45981 1.40572)
(3.41755 -1.63974 1.42103)
(2.82798 -1.44362 1.27727)
(2.5982 -3.17912 0.407863)
(3.56467 -1.70759 0.114093)
(3.25723 -0.992459 1.29477)
(2.8963 -2.58634 0.985353)
(3.40702 -1.99355 -0.327993)
(3.54635 -1.00382 -0.489151)
(2.91376 -1.35374 1.68982)
(2.69636 -1.82321 1.05595)
(2.67039 -2.53032 -0.131916)
(3.12609 -1.95552 -0.208751)
(3.05845 -1.04098 -0.0499733)
(2.17573 -0.512441 1.98074)
(2.01542 -1.58591 0.268052)
(2.05158 -2.64366 -1.48211)
(1.78611 -1.92191 -0.202301)
(1.93026 0.610607 -0.58881)
(1.99893 1.44095 -0.405305)
(1.63056 -0.683418 0.522505)
(1.84009 -1.86888 -1.31148)
(1.52045 -2.14679 -1.54834)
(0.700069 -0.90713 -0.696779)
(0.234473 -0.371631 -1.06636)
(0.521264 1.09344 -1.34407)
(1.05011 2.09605 -1.23375)
(1.40021 -0.121414 -1.13875)
(0.938514 -1.18179 -2.52259)
(0.645135 -1.06799 -1.97922)
(0.103325 -0.446509 -1.77889)
(-0.225766 -0.134125 -1.70508)
(0.169472 0.372211 -1.76286)
(0.610018 0.938482 -1.52882)
(0.707848 0.747196 -1.93901)
(1.11753 0.481335 -1.8373)
(0.951617 -0.0788754 -2.35795)
(0.433879 -0.905838 -2.81399)
(0.102043 -0.643483 -2.99799)
(-0.0507721 -0.268717 -2.33466)
(-0.00277085 -0.00264994 -2.04693)
(0.0401394 0.493745 -1.96675)
(0.347761 0.625969 -2.12509)
(0.588582 0.760793 -2.11015)
(3.17828 -0.469395 2.50944)
(3.2185 -0.897475 2.4837)
(3.1028 -1.21268 2.39394)
(3.42462 -1.10094 2.39099)
(2.87281 -1.33764 1.80776)
(3.17556 -1.47315 1.38898)
(3.36103 -1.1813 1.55736)
(2.77911 -1.17309 1.9426)
(3.19007 -1.97621 0.671601)
(3.18525 -2.16415 0.322391)
(3.55047 -1.09546 -0.108826)
(3.04923 -0.912535 2.04887)
(2.85628 -2.19174 1.28166)
(3.26123 -2.26315 -0.164407)
(3.46322 -1.24388 -0.567699)
(3.84586 -0.575897 -0.9275)
(2.90234 -1.40872 1.66551)
(2.42393 -1.70286 1.23137)
(2.44802 -2.69036 -0.220271)
(3.10135 -2.06656 -0.704063)
(3.17423 -1.8394 0.0319125)
(3.65852 -1.34395 -0.649974)
(2.09357 -0.608935 1.98793)
(1.91894 -1.18436 0.577614)
(2.08951 -2.48745 -0.907455)
(1.89147 -2.56825 -0.550241)
(2.12118 -0.581232 0.138227)
(2.29909 1.05589 -0.320759)
(2.75574 1.14455 -1.29993)
(1.52196 -0.555956 0.725438)
(1.72634 -1.68395 -1.03166)
(1.57156 -2.33843 -1.56333)
(0.901554 -1.20563 -0.933331)
(0.21489 -0.597226 -0.916837)
(0.526472 0.85654 -1.23099)
(1.10104 2.03644 -1.06672)
(1.5764 1.89966 -1.1405)
(1.41559 -0.0219776 -1.03438)
(1.00277 -1.06932 -2.36144)
(0.643287 -1.34925 -2.03958)
(0.160602 -0.61911 -1.62589)
(-0.216642 -0.216821 -1.67533)
(0.0906828 0.234457 -1.69994)
(0.511872 0.842407 -1.52449)
(0.713051 0.718728 -1.90142)
(1.47463 1.40299 -1.13896)
(1.12845 0.531863 -1.74739)
(0.979372 -0.0450632 -2.28639)
(0.465559 -0.862699 -2.73242)
(0.0776575 -0.76046 -2.98337)
(-0.0467378 -0.311335 -2.30941)
(-0.0151502 -0.067574 -2.02761)
(0.0271977 0.465795 -1.95318)
(0.332203 0.603492 -2.11024)
(0.587733 0.722002 -2.13086)
(0.755895 0.645428 -1.92751)
(2.92344 -0.294894 2.44975)
(3.31866 -0.21692 2.28996)
(3.20728 -0.265666 2.51202)
(3.11297 -0.907375 2.6639)
(3.22695 -0.906225 2.48693)
(3.05197 -1.38499 2.3638)
(3.24924 -1.16778 2.41019)
(3.37637 -0.871444 2.48934)
(2.67349 -0.98522 2.50829)
(2.97964 -1.76417 1.35978)
(3.17936 -1.22902 1.66024)
(3.49772 -0.599504 1.43695)
(2.3025 -0.656469 2.63969)
(2.51146 -2.2571 1.38179)
(3.17825 -1.84488 0.808184)
(3.43228 -1.76885 -0.213478)
(3.5074 -0.625405 -0.0533353)
(2.94207 -0.890803 2.56359)
(2.95663 -1.74116 1.81614)
(3.15585 -2.49566 -0.00235789)
(3.46015 -1.84342 -0.392506)
(3.70916 -0.9095 -0.93445)
(3.95889 -0.54145 -0.642655)
(2.82834 -1.47348 1.77319)
(2.23349 -1.66552 1.25677)
(2.60466 -2.24003 -0.339407)
(2.95521 -2.52777 -0.31284)
(3.35299 -1.9456 -0.126454)
(3.77668 -1.2599 -0.552637)
(4.02244 -0.351704 -1.59611)
(2.07058 -0.703249 1.96815)
(1.80222 -0.992529 0.878107)
(1.99218 -2.49734 -0.138285)
(2.27018 -2.69618 -0.451651)
(2.02563 -2.10056 0.736955)
(2.43243 0.757474 -0.0917792)
(2.93224 0.532984 -0.934057)
(3.09638 1.05979 -1.5965)
(1.45328 -0.490849 0.81155)
(1.6737 -1.47023 -0.75577)
(1.56457 -2.52269 -1.18418)
(0.887007 -1.81772 -1.56159)
(0.403806 -0.520936 -0.723657)
(0.499997 0.772584 -0.9455)
(1.14531 1.86254 -0.83656)
(1.61553 1.82224 -1.22677)
(2.41804 1.55673 -1.19337)
(1.49648 0.172942 -1.03336)
(1.01123 -1.03674 -2.10565)
(0.687659 -1.48429 -2.11628)
(0.222502 -0.616559 -1.58953)
(-0.224324 -0.307171 -1.65195)
(0.0331284 0.0517303 -1.66685)
(0.44667 0.717733 -1.53506)
(0.616278 0.706026 -1.90559)
(1.47387 1.43773 -1.0992)
(1.82161 0.639319 -1.01792)
(1.14038 0.579555 -1.64597)
(1.0064 -0.00350409 -2.21463)
(0.499638 -0.792799 -2.66047)
(0.0210218 -0.885035 -2.94483)
(-0.0568124 -0.392542 -2.32852)
(-0.0306092 -0.140393 -2.00819)
(0.00497125 0.410858 -1.95949)
(0.347486 0.578891 -2.0766)
(0.559649 0.67014 -2.16543)
(0.780623 0.654373 -1.91805)
(0.958417 0.107155 -1.45944)
(2.67064 -0.218544 2.45367)
(2.83423 -0.460088 2.51935)
(2.88634 -0.199225 2.46446)
(2.8671 -1.13533 2.56936)
(2.90832 -0.615104 2.6637)
(3.15837 -0.326688 2.46492)
(2.82194 -1.44818 2.587)
(3.10925 -1.09015 2.47408)
(3.34369 -0.529973 2.46174)
(2.85915 -1.41491 2.55861)
(3.32983 -1.01802 2.28085)
(3.32258 -1.08584 2.31415)
(3.12587 -1.10906 2.46185)
(2.51783 -1.29568 2.57642)
(2.47233 -2.28653 1.31507)
(3.06179 -1.64667 1.5011)
(3.51039 -0.698974 1.51941)
(3.43174 -0.708016 1.00142)
(2.6132 -1.1798 2.14208)
(2.5484 -1.82914 1.64621)
(2.85341 -2.33655 0.652745)
(3.33406 -1.86469 0.238138)
(3.55035 -0.918252 -0.0620568)
(3.34332 0.560486 0.236333)
(2.92655 -1.10109 2.66351)
(2.59089 -1.24283 2.59035)
(2.05507 -3.00197 1.50645)
(3.35995 -1.98189 -0.329589)
(3.53783 -1.18589 -0.963351)
(3.84744 -0.495633 -0.592581)
(3.84798 0.260577 -0.412255)
(2.76723 -1.59294 1.73023)
(2.14847 -1.55021 1.56395)
(2.083 -2.26315 0.37806)
(2.87471 -2.50086 -0.300413)
(3.25949 -1.97978 -0.208005)
(3.78155 -1.26163 -0.435029)
(4.12452 -0.298785 -1.176)
(4.1129 0.862224 -0.452479)
(2.0405 -0.829419 2.00054)
(1.6736 -0.906853 1.14528)
(1.99279 -2.23808 0.0924764)
(2.33656 -2.66292 -0.36839)
(1.9776 -2.50631 0.81333)
(2.54483 0.0805847 0.432665)
(2.98146 0.329268 -0.493659)
(3.2838 0.562547 -1.77691)
(3.15701 0.495146 -1.3821)
(1.37218 -0.490661 1.17078)
(1.57545 -1.28544 -0.531151)
(1.46905 -2.46824 -1.2204)
(0.805647 -2.36478 -2.01182)
(0.557703 -0.436758 -0.547024)
(0.451388 0.352742 -0.784364)
(1.15836 1.68787 -0.552649)
(1.65349 1.71558 -1.38527)
(2.51684 1.50287 -1.12364)
(2.2998 0.986201 -0.529758)
(1.56551 0.311489 -1.0383)
(1.02767 -0.979487 -1.85004)
(0.751725 -1.48589 -2.15559)
(0.350888 -0.672136 -1.68072)
(-0.243852 -0.389817 -1.65378)
(-0.0287486 -0.0908367 -1.6618)
(0.306577 0.506771 -1.62333)
(0.583661 0.711062 -1.84314)
(1.48034 1.494 -1.03877)
(1.8132 0.692798 -0.994448)
(1.93102 0.203286 -0.972436)
(1.14819 0.616455 -1.54144)
(1.02657 0.0143725 -2.14196)
(0.544288 -0.720467 -2.59196)
(-0.010953 -0.944714 -2.90005)
(-0.0813138 -0.489397 -2.38633)
(-0.051965 -0.222113 -1.98587)
(-0.0065969 0.3598 -1.96225)
(0.328512 0.568796 -2.03818)
(0.519157 0.552023 -2.17931)
(0.787115 0.653292 -1.91421)
(0.969661 0.109454 -1.45838)
(1.31885 -0.302044 -0.857996)
(2.47356 0.0662098 2.47852)
(2.51401 -0.131128 2.4188)
(2.65209 -0.402705 2.46598)
(2.6717 -0.113922 2.54677)
(2.77986 -0.618144 2.4511)
(2.79564 -0.583979 2.44206)
(3.0185 -0.608239 2.29826)
(2.90617 -1.01128 2.36716)
(3.16247 -0.703727 2.27133)
(3.02658 -0.539053 2.5664)
(2.95178 -1.03828 1.86324)
(2.81077 -1.19623 2.54327)
(3.11737 -1.25531 2.42581)
(2.92428 -1.07451 2.76422)
(3.14845 -0.7658 2.1449)
(2.92809 -1.30603 2.56796)
(2.53208 -2.39978 2.18033)
(3.19792 -1.13689 2.26243)
(3.20067 -1.05469 2.46108)
(3.33012 -0.560682 1.75489)
(2.56714 -1.52964 2.44025)
(2.348 -1.92962 1.60802)
(2.72982 -2.21182 1.37539)
(2.83265 -2.0443 1.66258)
(3.41915 -0.738905 1.07737)
(3.02598 0.300557 1.55055)
(2.52832 -1.53833 3.0924)
(2.60121 -1.43075 2.41407)
(2.59456 -2.33135 1.12205)
(2.92368 -2.25984 0.851941)
(3.46311 -1.17473 0.0487107)
(3.33474 -0.215581 -0.129784)
(3.16682 0.802456 1.32928)
(2.76868 -1.42624 2.81067)
(2.61868 -1.31675 2.32411)
(2.66757 -1.90926 0.754227)
(2.79879 -2.41476 0.169119)
(3.42255 -1.42218 -0.677573)
(3.74027 -0.619724 -0.380206)
(3.81713 0.324616 -0.529982)
(3.86121 0.563722 0.310466)
(2.74954 -1.86892 1.55658)
(2.03677 -1.55634 1.75938)
(2.04016 -2.0524 0.941185)
(2.67963 -2.53675 -0.0317661)
(3.06867 -2.21209 -0.145655)
(3.81187 -1.41317 0.0534261)
(4.15292 -0.438964 -0.78961)
(4.24997 -0.16104 -0.584175)
(3.57531 0.465484 -0.523847)
(2.03395 -0.919111 1.95106)
(1.57895 -0.786149 1.32624)
(1.87299 -2.07135 0.346188)
(2.28568 -2.63269 -0.133666)
(2.34497 -2.26434 0.570255)
(2.47589 -0.471875 0.556501)
(3.01768 0.274265 -0.0759969)
(3.43475 0.214117 -1.68754)
(3.20972 0.605872 -1.13153)
(2.49069 -0.262575 -0.893579)
(1.28968 -0.521352 1.70924)
(1.47436 -1.15584 -0.24912)
(1.45346 -2.18845 -1.26298)
(0.744677 -2.63424 -1.98756)
(0.605085 -0.796372 -0.392398)
(0.412508 -0.0460675 -0.637602)
(1.1369 1.50679 -0.241475)
(1.68158 1.70204 -1.34433)
(2.54537 1.4156 -1.10788)
(2.37137 1.01493 -0.74933)
(1.6327 0.157762 -0.562801)
(1.6 0.360721 -0.790702)
(1.09618 -0.857511 -1.60253)
(0.771538 -1.50218 -2.11834)
(0.314568 -0.923018 -1.83617)
(-0.269608 -0.422572 -1.6934)
(-0.0441238 -0.140485 -1.60907)
(0.208332 0.362254 -1.55185)
(0.52559 0.713662 -1.77989)
(1.4662 1.54393 -0.934608)
(1.80208 0.748572 -0.964206)
(1.95941 0.240494 -0.90217)
(2.19831 -0.458855 0.223146)
(1.14993 0.64992 -1.45231)
(1.05255 0.0465826 -2.07286)
(0.588482 -0.655834 -2.52687)
(-0.0195954 -0.955412 -2.8481)
(-0.119375 -0.597086 -2.46954)
(-0.084393 -0.315846 -1.9634)
(-0.0209471 0.317298 -1.95402)
(0.33541 0.570287 -1.98708)
(0.488811 0.534732 -2.13403)
(0.774284 0.646334 -1.92363)
(1.00267 0.112325 -1.45704)
(1.36774 -0.303396 -0.836947)
(1.79897 -0.781208 -0.545881)
(2.23022 -0.0548155 2.58443)
(2.39137 -0.00805472 2.48504)
(2.47599 0.0454251 2.61027)
(2.48027 -0.414722 2.45937)
(2.47768 -0.0398859 2.61316)
(2.56352 -0.731541 2.45851)
(2.59581 -0.34059 2.51418)
(2.69281 -0.683948 2.48394)
(2.74626 -0.705707 2.43856)
(2.79743 -0.732579 2.41476)
(2.73633 -0.687168 2.49965)
(2.8289 -0.952552 2.07591)
(2.71188 -1.17869 2.48642)
(2.71973 -1.16846 2.61229)
(2.83549 -0.905532 2.48802)
(3.08481 -0.947023 1.89437)
(2.66119 -0.628142 2.25943)
(2.75998 -1.42512 2.5653)
(2.88336 -1.5183 2.37637)
(3.0709 -0.978641 2.47634)
(3.03519 -1.16247 2.24385)
(2.95101 -0.408855 1.99174)
(2.72508 -1.51657 2.61689)
(2.67072 -1.6422 2.27466)
(3.01079 -1.57121 2.21145)
(3.06797 -1.16834 2.49267)
(3.28633 -0.697343 1.82283)
(2.92106 0.440222 2.21366)
(2.07306 -2.00604 2.65043)
(2.43015 -1.75033 2.07388)
(2.68254 -1.96826 1.59709)
(2.83087 -1.78128 1.48984)
(3.31274 -1.03366 1.17956)
(2.92696 0.0359146 1.71993)
(3.27243 0.152029 0.859396)
(2.69841 -1.72348 2.68998)
(2.55191 -1.39944 3.06012)
(2.32899 -2.3747 1.58607)
(3.00638 -1.8322 0.730883)
(3.12384 -1.7585 0.285561)
(3.20921 -0.156729 -0.0135649)
(3.25736 0.518727 0.378017)
(3.07247 0.102696 -0.183685)
(2.78253 -1.58153 2.75414)
(2.54091 -1.15101 2.64754)
(2.3497 -1.95398 1.8145)
(2.79537 -2.21723 0.609256)
(3.32772 -1.61303 -0.573411)
(3.64383 -0.557031 -0.469623)
(3.74149 -0.163377 -0.497397)
(3.88484 0.55358 0.38538)
(2.93643 -0.38386 -0.798988)
(2.53429 -2.07608 1.73764)
(2.13273 -1.54901 1.75633)
(2.12544 -1.98478 1.17959)
(2.86578 -2.35729 0.33906)
(3.00382 -2.50036 -0.0609961)
(3.75458 -1.86867 0.228104)
(4.12879 -0.712974 -0.494496)
(4.29742 -0.412656 -0.799058)
(3.71966 0.572221 -0.389993)
(3.05098 -0.991874 -0.646593)
(2.05151 -1.02639 1.88073)
(1.54583 -0.774662 1.37216)
(1.88266 -1.70743 0.914392)
(2.51435 -2.59437 0.100393)
(2.6334 -2.32435 0.557963)
(2.26546 -1.86234 0.927595)
(3.03337 -0.142942 0.683249)
(3.48613 -0.132818 -0.83033)
(3.53052 0.793969 -0.515611)
(2.47942 -0.205905 -1.62553)
(1.45079 -0.90662 -0.931678)
(1.25603 -0.543219 1.87753)
(1.37394 -1.00174 -0.108638)
(1.47894 -2.04625 -0.941618)
(0.822787 -2.66334 -1.65993)
(0.502569 -1.59605 -0.710688)
(0.498829 -0.117147 -0.553176)
(1.03399 1.19939 -0.204082)
(1.69377 1.60909 -1.29965)
(2.62249 1.30315 -1.04537)
(2.4814 0.8959 -0.68079)
(1.79135 0.35806 -0.360755)
(1.98467 -0.596092 -0.260697)
(1.60886 0.369911 -0.542949)
(1.16462 -0.747507 -1.35919)
(0.79747 -1.5535 -2.02652)
(0.251268 -1.23285 -1.96188)
(-0.201194 -0.569922 -1.53555)
(-0.0889306 -0.219472 -1.51307)
(0.138032 0.286342 -1.40495)
(0.518455 0.749424 -1.69647)
(1.46775 1.52329 -0.84561)
(1.80329 0.843163 -0.885092)
(1.96284 0.302119 -0.819347)
(2.21184 -0.453663 0.122675)
(1.99011 -1.45315 -0.609639)
(1.15069 0.676212 -1.39236)
(1.08093 0.0836061 -2.00739)
(0.635754 -0.599571 -2.46444)
(-0.029699 -0.982679 -2.78624)
(-0.169358 -0.710815 -2.56319)
(-0.124753 -0.412928 -1.94435)
(-0.0339588 0.282213 -1.93943)
(0.32032 0.5472 -1.95078)
(0.473645 0.569489 -2.03554)
(0.78734 0.620555 -1.92897)
(0.991542 0.134429 -1.47088)
(1.39921 -0.318553 -0.88143)
(1.85356 -0.797843 -0.595555)
(1.81217 -1.82404 -0.534452)
(2.20457 0.283277 2.28261)
(2.20102 -0.102238 2.63247)
(2.18847 -0.0210743 2.67157)
(2.38763 -0.227804 2.47475)
(2.43349 0.000356656 2.5738)
(2.5015 -0.201104 2.69102)
(2.52897 -0.400995 2.47254)
(2.43257 -0.197919 2.5852)
(2.52367 -0.243387 2.68384)
(2.53802 -0.74488 2.45629)
(2.55409 -0.68045 2.48666)
(2.56886 -0.691044 2.50904)
(2.60414 -0.842551 2.45547)
(2.59504 -1.15461 2.39929)
(2.71679 -0.896222 2.42905)
(2.65548 -0.811038 2.45333)
(2.87914 -1.13128 1.96994)
(2.34832 -0.924133 2.4111)
(2.56604 -1.23087 2.52283)
(2.70227 -1.35185 2.34335)
(2.83933 -0.944129 2.43276)
(2.96015 -1.06057 1.96748)
(2.73824 -0.748717 2.15986)
(2.86605 -0.664861 1.57122)
(2.65361 -1.52112 2.52515)
(2.65903 -1.51377 2.52556)
(3.00041 -1.29482 2.39029)
(3.09273 -1.27581 2.39131)
(3.02551 -0.791298 2.0244)
(2.63056 -0.504551 1.62184)
(2.50239 -1.61123 2.63913)
(2.39701 -1.882 2.34918)
(2.89394 -1.53457 2.39174)
(2.77794 -1.514 2.40424)
(3.12539 -0.975182 2.0845)
(2.99299 0.0885588 2.04269)
(3.03639 -0.423967 0.925091)
(2.72259 -1.37519 2.65572)
(2.37556 -1.83378 2.68582)
(2.51585 -2.0544 1.94038)
(2.73242 -1.8803 1.63153)
(3.19883 -1.28288 1.19337)
(2.87352 -0.0604277 1.70144)
(3.07389 0.154375 0.58554)
(3.03063 -0.393494 -0.95331)
(2.41528 -1.99099 2.75718)
(2.6074 -1.4557 2.99623)
(2.20652 -1.96589 2.27836)
(2.64803 -2.29633 1.04862)
(3.14747 -1.65837 0.239879)
(3.24104 -0.599901 -0.079308)
(3.29041 0.386544 0.615143)
(3.05572 -0.0561948 -0.165849)
(2.46666 -0.116254 -1.39963)
(2.77034 -1.63667 2.73988)
(2.16234 -1.28185 2.80626)
(2.48229 -1.61555 2.23946)
(2.68692 -2.2067 1.33073)
(3.21599 -1.96699 -0.399784)
(3.58404 -0.98223 -0.475939)
(3.63647 -0.292882 -0.455155)
(3.79426 0.628617 0.088157)
(2.95317 -0.320188 -0.792551)
(2.41335 -1.39122 -0.343676)
(2.54866 -2.19006 1.63884)
(2.08248 -1.5957 1.75777)
(1.58266 -1.40033 2.17373)
(2.24709 -2.6832 1.0982)
(3.08299 -2.43659 0.0593154)
(3.64739 -2.08125 0.301326)
(4.1142 -0.704381 -0.410064)
(4.36112 0.0297941 -0.80244)
(3.86441 0.451465 -0.146138)
(3.30087 -1.0896 -0.187645)
(1.97592 -1.17983 0.272055)
(2.03328 -1.28972 1.66203)
(1.47732 -0.762237 1.5656)
(1.62962 -1.60279 1.06186)
(2.5298 -2.72962 -0.00341207)
(2.5192 -2.69415 0.429828)
(2.12663 -2.18676 0.946077)
(2.98223 -0.276855 0.748851)
(3.28748 -0.867581 -0.508548)
(3.64487 0.298005 -0.875751)
(2.98697 -0.314259 -0.242937)
(1.55173 -0.981568 -0.624691)
(1.64586 -1.07265 -1.16249)
(1.2317 -0.563535 1.8453)
(1.2779 -0.854052 0.00839894)
(1.40918 -1.91709 -0.824752)
(0.933204 -2.67657 -1.56545)
(0.310374 -2.08668 -1.30913)
(0.62715 -0.0891044 -0.413785)
(0.912653 0.850576 -0.4532)
(1.73161 1.55605 -1.14632)
(2.76197 1.12705 -1.01099)
(2.60707 0.734871 -0.640206)
(1.9641 0.36804 -0.260034)
(2.16144 -0.61704 0.24541)
(2.03429 -1.29863 0.776507)
(1.60165 0.348122 -0.423361)
(1.24514 -0.616421 -1.12722)
(0.79187 -1.5146 -1.95)
(0.188482 -1.43153 -2.08135)
(-0.150694 -0.646034 -1.37134)
(-0.148955 -0.303508 -1.43739)
(0.0637267 0.221846 -1.34073)
(0.433009 0.689119 -1.68227)
(1.40902 1.41573 -0.896539)
(1.80628 0.861995 -0.866856)
(2.01526 0.397529 -0.683957)
(2.23962 -0.498106 -0.307051)
(1.96491 -1.49378 -0.623779)
(1.59156 -1.85506 -0.361445)
(1.15128 0.697744 -1.35901)
(1.10552 0.116957 -1.94999)
(0.68192 -0.546122 -2.40917)
(-0.043209 -1.02312 -2.71529)
(-0.226954 -0.815674 -2.65542)
(-0.176342 -0.520057 -1.93184)
(-0.0393819 0.265151 -1.91839)
(0.314226 0.518981 -1.91463)
(0.485354 0.628893 -1.91281)
(0.769769 0.597368 -1.94571)
(0.966352 0.145966 -1.49046)
(1.39448 -0.297247 -0.871097)
(1.8973 -0.796532 -0.642424)
(1.7913 -1.81768 -0.551264)
(1.61586 -2.18932 -0.555217)
(1.89454 0.274834 2.4993)
(2.09246 -0.0359039 2.43716)
(2.08246 0.248334 2.5793)
(2.18878 -0.301972 2.60128)
(2.16099 0.155856 2.63895)
(2.27002 0.306829 2.75613)
(2.29616 -0.668405 2.48647)
(2.37864 -0.051185 2.57794)
(2.42604 -0.360218 2.6868)
(2.64332 -0.272244 2.71553)
(2.39673 -0.65075 2.41926)
(2.47345 -0.436406 2.5988)
(2.30225 -0.675299 2.69986)
(2.46543 -0.765486 2.59694)
(2.42669 -0.931005 2.47542)
(2.33351 -0.915848 2.58761)
(2.51574 -0.664954 2.51357)
(2.66118 -0.920747 2.34418)
(2.47112 -0.988104 2.22346)
(2.46078 -0.971409 2.48702)
(2.57325 -1.0782 2.39956)
(2.58461 -0.949864 2.49428)
(2.75668 -1.09038 2.13607)
(2.40929 -0.926435 2.29651)
(2.87398 -1.86792 0.990232)
(2.39992 -1.20662 2.57096)
(2.63662 -1.48034 2.32463)
(2.76727 -1.13536 2.46688)
(2.47263 -1.63521 2.23624)
(2.72375 -1.19964 2.05111)
(2.89497 -0.752122 1.45257)
(2.56372 -1.371 0.400064)
(2.50184 -1.63209 2.56469)
(2.63894 -1.65 2.41984)
(2.83625 -1.49435 2.44494)
(2.85499 -1.43069 2.49101)
(2.97358 -1.02187 2.12907)
(2.72103 -0.557869 1.54875)
(2.6774 -1.04817 -0.0141338)
(2.56501 -1.73017 2.6659)
(2.31052 -1.91543 2.41961)
(2.34758 -2.31823 2.32764)
(2.77604 -1.59595 2.30977)
(2.96572 -1.34494 2.18749)
(3.03764 -0.426357 1.8456)
(2.9002 -0.422678 1.31989)
(3.17577 -0.967416 -0.193566)
(2.45769 -1.91237 2.59476)
(2.64905 -1.46683 2.91414)
(2.32108 -2.16417 2.24373)
(2.46799 -2.29102 1.77983)
(3.02235 -1.71718 1.43324)
(2.91657 -0.547361 1.47553)
(2.88957 -0.244873 0.950557)
(3.14437 -0.375532 -0.492031)
(2.6249 -0.844958 -0.783751)
(2.63076 -2.51757 2.02706)
(2.313 -1.84213 2.91947)
(2.08891 -1.72421 2.57688)
(2.52539 -2.09233 1.52166)
(2.85148 -2.03805 0.388689)
(3.20929 -1.14207 -0.185574)
(3.25824 0.146921 0.698182)
(3.14282 0.0915535 -0.16172)
(2.52047 -0.638786 -0.609366)
(2.1179 -1.63331 -0.954447)
(2.61951 -2.03449 2.68789)
(2.02584 -2.02587 2.44593)
(2.13407 -1.45712 2.64549)
(2.36939 -1.90773 2.11307)
(2.46029 -2.74707 0.669768)
(3.27864 -1.75431 -0.228054)
(3.62236 -0.635033 -0.420103)
(3.72803 0.407181 0.208578)
(3.18918 -0.0928868 -0.535164)
(2.59314 -1.17408 -0.329854)
(1.87146 -1.93763 -0.728518)
(2.50315 -2.20985 1.66995)
(2.08875 -1.96206 1.46901)
(1.68992 -1.69719 1.19324)
(2.23151 -2.08972 0.659876)
(2.92423 -2.37866 0.43753)
(3.32716 -2.31608 0.415138)
(4.1335 -0.731674 -0.353181)
(4.25256 -0.355086 -0.639982)
(4.07835 0.0264844 0.18359)
(3.5088 -0.743824 0.0050583)
(2.20186 -1.11477 0.482443)
(1.07389 -2.05538 -1.04911)
(2.01699 -1.37863 1.41313)
(1.45796 -0.780216 1.675)
(1.60373 -1.5394 1.20425)
(0.953937 -3.41502 -0.58831)
(2.42155 -2.76143 0.374491)
(2.55398 -1.80199 0.895141)
(2.72923 -1.03826 1.43628)
(3.24307 -1.07377 -0.124026)
(3.68231 0.114667 -0.795618)
(3.18231 -0.122574 -0.509609)
(1.77075 -1.13213 0.105075)
(1.80701 -0.93703 -0.914449)
(1.62959 -2.01245 -0.340912)
(1.20746 -0.602985 1.71585)
(1.20453 -0.722498 0.101278)
(1.40616 -1.67238 -0.75492)
(0.79834 -2.72409 -1.56279)
(0.188699 -2.47508 -1.47638)
(0.666592 -0.151739 -0.262344)
(0.874765 0.649163 -0.588735)
(1.77969 1.41081 -0.997713)
(2.7301 0.974683 -1.14859)
(2.69 0.825692 -0.630662)
(2.16072 0.106678 -0.325264)
(2.15297 -0.796802 0.369873)
(2.14314 -1.42398 0.405972)
(1.38975 -2.20735 0.30828)
(1.60086 0.322017 -0.380343)
(1.32416 -0.496473 -0.914996)
(0.843055 -1.36936 -1.88055)
(0.208202 -1.5575 -2.15268)
(-0.103899 -0.740076 -1.27464)
(-0.255739 -0.405232 -1.42027)
(-0.00972534 0.171008 -1.31366)
(0.368262 0.633042 -1.65421)
(1.35253 1.21497 -1.02187)
(1.79582 0.907229 -0.863141)
(2.02794 0.382685 -0.696706)
(2.24738 -0.55085 -0.380549)
(2.00166 -1.51235 -0.565959)
(1.61678 -1.88469 -0.493173)
(1.36368 -2.16107 -0.617782)
(1.15163 0.716259 -1.3331)
(1.12985 0.150996 -1.90165)
(0.726999 -0.496248 -2.36066)
(-0.0614917 -1.02795 -2.64679)
(-0.282699 -0.897976 -2.73362)
(-0.230527 -0.622329 -1.93623)
(-0.0362662 0.25494 -1.89696)
(0.306435 0.495693 -1.87741)
(0.458555 0.666988 -1.8277)
(0.715895 0.549354 -1.96964)
(0.98869 0.113342 -1.49791)
(1.37714 -0.315556 -0.894946)
(1.83929 -0.79126 -0.627364)
(1.79527 -1.79664 -0.530296)
(1.61352 -2.18891 -0.554907)
(1.1241 -2.18233 -0.865854)
(1.82131 0.366885 2.42568)
(1.70302 0.15522 2.68456)
(2.07607 0.322755 2.4159)
(2.23696 0.155966 2.36877)
(1.98209 0.103804 2.63129)
(2.12002 -0.0927685 2.69424)
(2.08639 -0.292834 2.60744)
(2.20137 0.127501 2.63167)
(2.23166 -0.165137 2.68143)
(2.48507 -0.449067 2.6666)
(2.32164 -0.305063 2.39436)
(2.28895 -0.45632 2.62597)
(2.38607 -0.38351 2.66021)
(2.51119 -0.663693 2.66789)
(2.5782 -0.19804 2.84411)
(2.36016 -0.801609 2.45009)
(2.31166 -0.592939 2.64287)
(2.29688 -0.597836 2.66684)
(2.47959 -1.11558 2.50319)
(2.38821 -0.741208 2.65033)
(2.33894 -0.964693 2.4705)
(2.40902 -0.886092 2.4753)
(2.42248 -0.869101 2.54599)
(2.58158 -0.939037 2.40844)
(2.4286 -1.05873 2.29803)
(2.07659 -1.08357 2.95997)
(2.38138 -1.17571 2.47943)
(2.42745 -1.33415 2.39516)
(2.52932 -1.01278 2.51137)
(2.53081 -1.01729 2.37745)
(2.38935 -1.12564 2.17027)
(2.53269 -1.59384 1.61602)
(2.9717 -1.75777 0.706137)
(2.3166 -1.35022 2.53023)
(2.57508 -1.53833 2.35045)
(2.27522 -1.48581 2.73455)
(2.88419 -1.27667 1.99989)
(2.46252 -1.21036 2.40407)
(2.69998 -1.1291 1.28064)
(2.40272 -1.39522 0.556248)
(2.38324 -1.22535 -0.466838)
(2.52301 -1.65571 2.53593)
(2.41598 -1.83121 2.50468)
(2.57377 -1.65935 2.45729)
(2.78857 -1.64601 2.31793)
(2.80539 -1.25279 2.22844)
(2.73074 -0.651114 1.62681)
(2.49578 -1.16302 0.506227)
(2.95489 -1.25185 -0.50405)
(2.47842 -1.87909 2.62649)
(2.43604 -1.83819 2.60743)
(2.44368 -1.83673 2.4073)
(2.67154 -1.95134 2.23671)
(2.79236 -1.55226 2.2809)
(3.00121 -0.607667 1.85545)
(2.76741 -0.520089 1.48559)
(2.95573 -1.19267 -0.642468)
(2.49855 -0.992905 -0.774992)
(2.22643 -2.23116 2.38073)
(2.60394 -1.74257 2.79159)
(2.24404 -1.91213 2.58773)
(2.433 -2.17991 2.05534)
(2.91387 -1.81973 1.48841)
(2.86156 -0.807191 1.45517)
(2.79322 -0.205868 1.39478)
(3.0578 -0.530783 -0.645682)
(2.67921 -0.839411 -0.652905)
(2.04644 -1.82717 -0.816539)
(2.53797 -2.19845 2.40167)
(2.25069 -2.18548 2.65855)
(2.14532 -1.66692 2.6326)
(1.97316 -2.27962 2.01423)
(2.30186 -2.33697 0.652885)
(3.06127 -1.47554 0.0850455)
(3.21931 -0.118132 0.607647)
(3.13019 0.067919 0.0557918)
(2.59546 -0.6049 -1.05285)
(1.9467 -1.33826 -0.906592)
(1.93874 -2.60794 -0.423773)
(2.51908 -1.88628 2.89933)
(1.98203 -1.79416 2.73877)
(2.32662 -1.82876 2.24546)
(2.42221 -1.82999 1.91765)
(2.8078 -1.82417 0.747853)
(3.16342 -1.60661 0.0846891)
(3.65398 -0.747393 -0.352776)
(3.57522 0.143095 0.405362)
(3.30407 -0.141243 -0.664388)
(2.49539 -1.405 -0.432079)
(1.9228 -1.97764 -0.631842)
(1.10938 -2.22362 -1.34246)
(2.26645 -2.24029 1.71701)
(2.19436 -1.95255 1.4488)
(1.49127 -1.4318 1.97437)
(1.79846 -2.20752 0.781362)
(2.97259 -2.26566 0.532399)
(3.48543 -2.07801 0.477445)
(3.80355 -1.49997 0.0848983)
(4.152 -0.882611 -0.390574)
(4.20364 -0.210357 0.205603)
(3.68976 -0.603359 0.298022)
(2.26945 -1.30682 0.107779)
(1.22764 -2.0339 -0.605072)
(1.30795 -2.66206 -0.769857)
(2.06174 -1.42275 1.20235)
(1.47156 -0.935181 1.61624)
(1.57625 -1.47769 1.39008)
(2.53777 -2.15721 0.31302)
(2.38828 -2.78032 0.377788)
(2.76251 -1.8672 0.810127)
(2.47826 -1.66132 1.84281)
(3.14806 -1.32805 0.267527)
(3.698 -0.47407 -0.615073)
(3.43814 -0.0675965 -0.417228)
(1.94263 -0.930997 0.267746)
(2.05053 -0.914041 -0.285367)
(2.03546 -1.93092 0.408299)
(1.60062 -2.20881 0.351145)
(1.19191 -0.589534 1.52968)
(1.15501 -0.589232 0.164622)
(1.39166 -1.52815 -0.624662)
(0.889134 -2.38561 -1.64492)
(0.10763 -2.70643 -1.45874)
(0.653342 -0.274266 -0.191359)
(0.854365 0.526516 -0.656021)
(1.81278 1.29634 -0.807371)
(2.79847 0.653763 -1.0744)
(2.75162 0.800344 -0.700569)
(2.23819 0.169346 -0.454887)
(2.18886 -0.868482 0.2486)
(2.12102 -1.77791 -0.204131)
(1.39281 -2.21622 0.138312)
(1.08638 -2.1075 0.369172)
(1.61642 0.315698 -0.224643)
(1.36736 -0.414447 -0.761666)
(0.893951 -1.28439 -1.73142)
(0.207642 -1.62198 -2.20596)
(-0.162039 -1.0521 -1.3081)
(-0.351042 -0.527065 -1.41352)
(-0.113482 0.0802626 -1.3235)
(0.263196 0.560713 -1.65705)
(1.31109 1.12167 -1.04755)
(1.75913 0.931555 -0.890827)
(2.04906 0.404863 -0.623809)
(2.2838 -0.560229 -0.243876)
(2.03665 -1.57787 -0.639456)
(1.62608 -1.9298 -0.551156)
(1.34636 -2.13507 -0.72317)
(0.716015 -2.28131 -0.620649)
(1.1504 0.717005 -1.30856)
(1.15311 0.180983 -1.86325)
(0.769632 -0.452269 -2.31699)
(-0.0290818 -1.00607 -2.58095)
(-0.301842 -0.953699 -2.76078)
(-0.28308 -0.715736 -1.96556)
(-0.0306227 0.244426 -1.87231)
(0.298773 0.465593 -1.84459)
(0.48341 0.715324 -1.71584)
(0.749691 0.566614 -1.94336)
(0.99286 0.1364 -1.525)
(1.42683 -0.312641 -0.881178)
(1.86856 -0.782864 -0.55924)
(1.79725 -1.81255 -0.556489)
(1.60108 -2.19507 -0.556401)
(1.11855 -2.16384 -0.898484)
(0.87827 -1.85525 -1.003)
(1.88808 0.292627 2.11793)
(1.80336 0.274406 2.5077)
(1.96979 0.242783 2.31927)
(1.76851 0.00608013 2.69405)
(2.08185 0.28832 2.40826)
(2.13013 0.30992 2.49604)
(1.91661 -0.646991 2.54951)
(2.12211 -0.0947719 2.58539)
(2.11142 -0.228977 2.63471)
(2.23121 -0.127202 2.69275)
(2.13041 -0.348106 2.55189)
(2.185 -0.110051 2.57585)
(2.21058 -0.225151 2.62756)
(2.31156 -0.271692 2.76332)
(2.40848 -0.352914 2.76622)
(2.12117 -0.802272 2.54254)
(2.49508 -0.376289 2.38518)