/*--------------------------------*- C++ -*----------------------------------*\
  =========                 |
  \\      /  F ield         | OpenFOAM: The Open Source CFD Toolbox
   \\    /   O peration     | Website:  https://openfoam.org
    \\  /    A nd           | Version:  7
     \\/     M anipulation  |
\*---------------------------------------------------------------------------*/
FoamFile
{
    version     2.0;
    format      ascii;
    class       volScalarField;
    location    "6.5";
    object      p;
}
// * * * * * * * * * * * * * * * * * * * * * * * * * * * * * * * * * * * * * //

dimensions      [0 2 -2 0 0 0 0];

internalField   nonuniform List<scalar> 
18630
(
-72.2356
-73.6679
-72.206
-71.8217
-74.0196
-73.5743
-72.225
-72.1848
-71.8049
-71.7208
-73.0009
-73.9151
-71.8995
-73.4581
-72.1733
-71.6434
-72.1674
-71.7848
-71.6985
-71.5753
-72.5122
-72.6339
-70.7573
-73.9133
-71.8617
-71.2971
-73.3663
-72.1311
-71.5627
-71.5588
-72.1523
-71.761
-71.6756
-71.555
-71.6073
-72.0239
-71.8999
-70.5124
-72.221
-70.4762
-70.1359
-73.8549
-71.8366
-71.144
-70.5583
-73.2659
-72.0938
-71.487
-71.4585
-71.3349
-72.1372
-71.7368
-71.6525
-71.552
-71.579
-71.5359
-70.0646
-71.2843
-69.7718
-71.3918
-70.0564
-68.8967
-71.7791
-70.1983
-69.9076
-69.6388
-73.6172
-71.8321
-71.0098
-70.3647
-70.5703
-73.1601
-72.0606
-71.4176
-71.3519
-71.2221
-71.2792
-72.1139
-71.7098
-71.6322
-71.5585
-71.5497
-71.4795
-70.9371
-68.1677
-69.4383
-68.3855
-70.5853
-69.3383
-68.3562
-70.9371
-69.6213
-68.678
-68.4217
-71.4301
-69.9119
-69.7185
-69.456
-69.4044
-73.5058
-71.8287
-70.9075
-70.2253
-70.374
-70.142
-73.0623
-72.0303
-71.3544
-71.2535
-71.1175
-71.1815
-70.9297
-72.0789
-71.677
-71.6155
-71.561
-71.513
-71.4256
-70.8982
-70.1414
-66.4401
-67.6626
-67.1722
-68.8512
-67.8773
-67.1311
-70.0598
-68.9238
-68.034
-67.5101
-70.4816
-69.1834
-68.4946
-68.279
-67.9005
-71.0802
-69.698
-69.5466
-69.2482
-69.148
-68.9231
-73.3561
-71.8325
-70.831
-70.1157
-70.1635
-69.973
-69.6363
-72.9706
-72.0006
-71.2955
-71.1466
-71.0313
-71.0897
-70.8131
-69.919
-72.0378
-71.6437
-71.6014
-71.5576
-71.4742
-71.3763
-70.8782
-70.1337
-69.6612
-65.0075
-66.0177
-65.6678
-67.1311
-66.5799
-66.0714
-68.3328
-67.3718
-66.7593
-66.2918
-69.6249
-68.4639
-67.7505
-67.2568
-66.885
-70.0391
-68.8381
-68.3297
-68.0565
-67.6293
-67.4886
-70.7844
-69.5399
-69.3984
-69.0523
-68.9633
-68.7407
-68.4157
-73.2027
-71.8341
-70.7368
-70.0018
-69.9682
-69.78
-69.3899
-69.1476
-72.8793
-71.9678
-71.2428
-71.0566
-70.9612
-70.9921
-70.676
-69.8053
-68.8466
-71.9928
-71.6115
-71.5884
-71.5533
-71.4368
-71.335
-70.8782
-70.1312
-69.6615
-68.4865
-63.4563
-64.587
-64.3883
-65.52
-65.2563
-64.8781
-66.7673
-66.2028
-65.6435
-65.2327
-67.8763
-66.9608
-66.5021
-66.0235
-65.8666
-69.1151
-68.028
-67.4742
-67.0299
-66.6837
-66.2668
-69.5889
-68.4557
-68.1339
-67.8219
-67.4033
-67.297
-67.0819
-70.5066
-69.3929
-69.2695
-68.9148
-68.8142
-68.5826
-68.2614
-67.6176
-73.0978
-71.8447
-70.6621
-69.8673
-69.835
-69.5807
-69.2401
-68.9089
-68.0964
-72.7875
-71.9385
-71.1876
-70.9857
-70.9016
-70.8946
-70.5396
-69.6957
-68.7092
-67.817
-71.9439
-71.5794
-71.5756
-71.526
-71.4028
-71.3019
-70.8871
-70.1309
-69.6652
-68.4884
-67.8253
-62.6824
-63.423
-63.3294
-64.4462
-64.2598
-63.8905
-65.1835
-65.0623
-64.7832
-64.4213
-66.3518
-65.9985
-65.5347
-65.0507
-64.7284
-67.3975
-66.5944
-66.2119
-65.8474
-65.6835
-65.4121
-68.4993
-67.6471
-67.1342
-66.7798
-66.4987
-66.0653
-65.8447
-69.0907
-68.162
-67.8878
-67.6082
-67.2405
-67.111
-66.7489
-66.4608
-70.2254
-69.2896
-69.1664
-68.788
-68.6712
-68.393
-68.1601
-67.3865
-66.863
-72.9249
-71.8473
-70.5944
-69.8126
-69.6733
-69.4803
-69.1306
-68.6772
-67.9325
-66.9103
-72.6975
-71.9095
-71.1385
-70.9275
-70.8317
-70.8097
-70.4161
-69.5931
-68.5771
-67.6805
-66.3676
-71.8887
-71.5473
-71.5659
-71.5032
-71.3677
-71.2761
-70.8922
-70.1309
-69.6714
-68.5043
-67.7517
-66.6463
-61.3739
-62.058
-62.6084
-62.6516
-63.4321
-63.3048
-63.1244
-64.1824
-64.0703
-63.8433
-63.6221
-64.9237
-64.7957
-64.534
-64.2948
-63.8618
-65.8765
-65.5617
-65.1701
-64.9259
-64.6201
-64.4535
-67.0026
-66.2763
-65.9353
-65.6714
-65.4593
-65.2097
-64.9107
-67.9966
-67.3502
-66.9184
-66.5693
-66.3127
-65.9707
-65.6109
-65.4277
-68.592
-67.8847
-67.648
-67.4543
-67.0828
-66.9099
-66.6363
-66.2553
-65.7241
-70.006
-69.2044
-69.1116
-68.7034
-68.5608
-68.2826
-67.9503
-67.1913
-66.6206
-66.0006
-72.7185
-71.8576
-70.5705
-69.8217
-69.5602
-69.3584
-69.084
-68.5658
-67.7926
-66.6942
-66.0026
-72.6116
-71.8858
-71.0946
-70.9169
-70.7822
-70.7197
-70.2934
-69.4881
-68.4521
-67.5296
-66.3225
-65.7819
-71.8306
-71.515
-71.5564
-71.4844
-71.3301
-71.2597
-70.882
-70.1352
-69.6778
-68.5099
-67.6788
-66.6054
-66.4148
-61.1065
-61.5504
-61.4755
-62.0541
-62.072
-62.3872
-62.5364
-62.5058
-63.2246
-63.1272
-63.0086
-62.8936
-63.7584
-63.6564
-63.5995
-63.54
-63.2685
-64.7202
-64.4815
-64.2504
-64.0742
-63.7981
-63.6454
-65.7506
-65.1842
-64.9044
-64.7104
-64.4982
-64.3169
-63.937
-66.6296
-66.0666
-65.751
-65.5527
-65.2945
-65.0374
-64.8005
-64.5879
-67.5449
-67.0665
-66.656
-66.3001
-66.0995
-65.8273
-65.4933
-65.1464
-64.7697
-68.2746
-67.526
-67.4556
-67.3183
-66.9385
-66.8039
-66.5148
-66.0344
-65.5674
-65.0024
-69.8003
-69.1429
-69.0631
-68.6302
-68.4201
-68.192
-67.7948
-67.1246
-66.4795
-65.8011
-65.1385
-72.5644
-71.8997
-70.5532
-69.7732
-69.3985
-69.2867
-68.9516
-68.4181
-67.5662
-66.4911
-65.8228
-64.9665
-72.5208
-71.8639
-71.0589
-70.8367
-70.7447
-70.6145
-70.1802
-69.393
-68.3432
-67.3993
-66.2804
-65.6777
-65.8261
-71.7908
-71.4828
-71.5476
-71.4554
-71.2968
-71.2536
-70.8543
-70.1432
-69.6826
-68.5067
-67.6028
-66.5706
-66.3898
-66.7301
-60.4902
-60.7915
-61.1522
-61.2017
-61.3998
-61.4666
-61.4462
-61.9656
-61.9625
-61.9713
-62.3364
-62.3007
-62.3339
-62.3985
-63.149
-63.0112
-62.8781
-62.7439
-62.6519
-63.6541
-63.5818
-63.4081
-63.3003
-63.2159
-62.9853
-64.397
-64.2813
-64.0583
-63.8461
-63.6782
-63.4633
-63.2924
-65.3202
-64.9821
-64.789
-64.565
-64.339
-64.12
-63.8052
-63.7674
-66.2792
-65.8133
-65.61
-65.3651
-65.215
-64.8091
-64.655
-64.384
-64.0766
-67.193
-66.8428
-66.4038
-66.0543
-65.9112
-65.6443
-65.3111
-64.956
-64.6561
-64.126
-67.9838
-67.2777
-67.3278
-67.1567
-66.7987
-66.6667
-66.3284
-65.888
-65.3999
-64.884
-64.2931
-69.591
-69.0802
-69.0141
-68.7179
-68.4043
-68.1242
-67.5884
-66.9593
-66.2773
-65.6685
-65.0167
-64.2625
-72.379
-71.9502
-70.5394
-69.8402
-69.226
-69.1086
-68.7754
-68.2054
-67.317
-66.3637
-65.6009
-64.8802
-64.9223
-72.4248
-71.8351
-71.0245
-70.7815
-70.7003
-70.5091
-70.0916
-69.3006
-68.2303
-67.2689
-66.2385
-65.5926
-65.7702
-65.9774
-71.7383
-71.4513
-71.5398
-71.4423
-71.2841
-71.2512
-70.8193
-70.1596
-69.6836
-68.4945
-67.5236
-66.5364
-66.3815
-66.7224
-67.2356
-60.3523
-60.5516
-60.6022
-60.7905
-60.9163
-61.1064
-61.1801
-61.1736
-61.4008
-61.4104
-61.4111
-61.4096
-61.8491
-61.8654
-61.8379
-61.8495
-62.2508
-62.3528
-62.2835
-62.2344
-62.2298
-62.9675
-62.9133
-62.8453
-62.6739
-62.5652
-62.4592
-63.5625
-63.457
-63.3243
-63.1081
-63.0707
-62.9187
-62.7871
-64.1189
-64.1115
-63.8502
-63.569
-63.5357
-63.3862
-63.154
-63.0743
-64.9801
-64.7659
-64.4884
-64.4979
-64.2876
-63.9391
-63.7387
-63.6922
-63.2841
-65.9874
-65.4594
-65.3908
-65.232
-65.0185
-64.6739
-64.5176
-64.313
-63.9509
-63.7091
-66.9455
-66.6174
-66.2314
-65.9439
-65.7168
-65.4974
-65.1433
-64.7824
-64.5492
-63.9386
-63.4751
-67.7028
-67.0647
-67.1654
-67.0447
-66.7797
-66.5799
-66.1275
-65.7466
-65.2802
-64.766
-64.165
-63.4416
-69.4325
-69.0428
-69.0119
-68.8657
-68.4311
-68.1328
-67.3996
-66.7976
-66.1691
-65.4746
-64.7573
-64.1555
-64.2601
-72.1985
-71.9842
-70.6018
-69.913
-69.3848
-68.9783
-68.6671
-67.9839
-67.1199
-66.1751
-65.4009
-64.8053
-64.8397
-65.5324
-72.3404
-71.7957
-70.9976
-70.7723
-70.6042
-70.4423
-70.0395
-69.2123
-68.1175
-67.1412
-66.2046
-65.5217
-65.6945
-65.8962
-66.2312
-71.6865
-71.4211
-71.5316
-71.4228
-71.2847
-71.2465
-70.7746
-70.1826
-69.677
-68.4819
-67.4546
-66.511
-66.3826
-66.7056
-67.1935
-66.1227
-60.2212
-60.3424
-60.4539
-60.5331
-60.6202
-60.7187
-60.7956
-60.8792
-60.939
-61.0498
-61.1403
-61.1578
-61.1231
-61.3523
-61.4459
-61.4341
-61.3763
-61.3488
-61.8
-61.7811
-61.7865
-61.8002
-61.7467
-62.1694
-62.2132
-62.3148
-62.2339
-62.149
-62.1256
-62.8071
-62.7238
-62.7057
-62.5924
-62.4524
-62.3926
-62.2367
-63.3711
-63.2936
-63.1317
-62.98
-62.9388
-62.8623
-62.6861
-62.5677
-64.0407
-63.9666
-63.6927
-63.3695
-63.5208
-63.282
-63.0943
-62.9634
-62.8073
-64.9073
-64.5698
-64.4258
-64.0041
-64.1159
-63.7948
-63.7353
-63.4969
-63.1615
-62.8938
-65.706
-65.3289
-65.1306
-64.7843
-64.8317
-64.607
-64.4132
-63.9583
-63.9088
-63.5187
-63.0883
-66.7249
-66.4174
-66.0883
-65.8078
-65.5855
-65.3426
-64.9973
-64.5746
-64.4113
-63.7775
-63.3247
-62.9209
-67.5176
-66.902
-67.0657
-66.7963
-66.6793
-66.4733
-66.0493
-65.6264
-65.2278
-64.6791
-64.0609
-63.4056
-63.8973
-69.3215
-69.0362
-69.0542
-69.0052
-68.502
-68.0954
-67.3022
-66.7193
-66.1172
-65.3819
-64.5619
-64.0796
-64.2173
-65.0307
-72.0623
-72.0147
-70.663
-69.8929
-69.2599
-68.9804
-68.558
-67.8071
-66.9573
-66.0031
-65.2453
-64.7452
-64.8024
-65.414
-64.9873
-72.2746
-71.7493
-70.9674
-70.7424
-70.525
-70.3825
-69.9682
-69.1253
-68.0267
-67.0266
-66.1691
-65.463
-65.6425
-65.825
-66.11
-66.0571
-71.6332
-71.3919
-71.5237
-71.3989
-71.282
-71.2438
-70.7308
-70.1963
-69.6665
-68.4679
-67.4003
-66.4914
-66.3685
-66.6884
-67.1525
-66.0823
-64.8988
-60.0893
-60.2389
-60.3025
-60.3332
-60.4385
-60.465
-60.5123
-60.6147
-60.6711
-60.7407
-60.7252
-60.8676
-60.8541
-60.8969
-61.0152
-61.13
-61.152
-61.1327
-61.0755
-61.3404
-61.3804
-61.3686
-61.3799
-61.371
-61.3359
-61.6728
-61.6451
-61.7021
-61.7291
-61.7114
-61.6303
-62.1451
-62.1274
-62.1758
-62.153
-62.0676
-62.0534
-61.9323
-62.8117
-62.6004
-62.5698
-62.4625
-62.3196
-62.3044
-62.1823
-62.0523
-63.293
-63.1772
-63.0054
-62.8521
-62.8418
-62.7978
-62.6136
-62.4608
-62.3517
-63.8834
-63.8354
-63.5268
-63.1966
-63.2144
-63.1503
-62.963
-62.8437
-62.61
-62.4412
-64.6854
-64.3516
-64.3662
-63.7894
-63.8212
-63.7817
-63.5833
-63.2307
-63.0848
-62.7531
-62.6357
-65.4798
-65.0756
-64.9873
-64.7059
-64.6525
-64.4434
-64.239
-63.7992
-63.7885
-63.3878
-62.9368
-62.6069
-66.5918
-66.1883
-65.9436
-65.6784
-65.3695
-65.1985
-64.7969
-64.4489
-64.225
-63.7332
-63.2167
-62.9157
-63.0085
-67.3961
-66.8913
-67.006
-66.733
-66.5747
-66.3434
-66.091
-65.5127
-65.187
-64.5719
-64.0634
-63.3781
-63.8606
-64.6267
-69.1445
-69.0997
-69.0425
-69.1174
-68.5958
-67.9096
-67.162
-66.6436
-65.9443
-65.3403
-64.5475
-64.0071
-64.1868
-64.9105
-64.5268
-71.9213
-71.9797
-70.7211
-69.8607
-69.1824
-68.8883
-68.3906
-67.6699
-66.8439
-65.8902
-65.122
-64.6867
-64.7469
-65.3402
-65.0293
-65.771
-72.2366
-71.6837
-70.9464
-70.71
-70.4925
-70.3319
-69.8817
-69.04
-67.9349
-66.918
-66.1357
-65.4138
-65.5999
-65.7618
-66.0142
-65.9119
-65.0943
-71.5777
-71.3631
-71.5156
-71.3845
-71.2737
-71.2457
-70.6925
-70.2022
-69.669
-68.4496
-67.3421
-66.489
-66.3169
-66.6659
-67.112
-66.0846
-64.8798
-64.105
-59.9845
-60.1253
-60.2165
-60.219
-60.3365
-60.341
-60.3933
-60.4618
-60.4955
-60.4763
-60.5096
-60.6028
-60.6601
-60.6667
-60.6015
-60.7409
-60.8109
-60.8465
-60.85
-60.8797
-60.9837
-61.0445
-61.1145
-61.0678
-61.0093
-61.0059
-61.2973
-61.325
-61.3394
-61.3535
-61.345
-61.2783
-61.22
-61.5981
-61.6119
-61.6581
-61.628
-61.6166
-61.5915
-61.5334
-62.0708
-62.0903
-62.0027
-62.0139
-62.0148
-61.9627
-61.852
-61.712
-62.5904
-62.6089
-62.423
-62.3214
-62.3359
-62.2896
-62.1491
-62.0227
-61.9066
-63.0825
-63.1006
-62.9252
-62.7856
-62.7946
-62.6592
-62.4929
-62.4079
-62.2503
-62.0289
-63.7276
-63.5539
-63.4519
-63.3294
-62.9646
-62.9889
-62.8944
-62.758
-62.4348
-62.3804
-62.206
-64.5138
-64.076
-64.182
-64.0268
-63.5419
-63.6404
-63.4098
-63.3811
-63.0201
-62.8168
-62.4861
-62.3193
-65.2271
-64.8695
-64.7744
-64.6214
-64.4754
-64.321
-64.1179
-63.8624
-63.582
-63.29
-62.7584
-62.547
-62.7135
-66.4168
-66.0488
-65.8493
-65.461
-65.2301
-65.0461
-64.6288
-64.3337
-64.0294
-63.6302
-63.1765
-62.918
-62.9688
-64.1268
-67.277
-66.88
-66.9687
-66.801
-66.5835
-66.3484
-66.0346
-65.4298
-65.0035
-64.6654
-63.9037
-63.3631
-63.8363
-64.5682
-63.9576
-69.0857
-69.189
-69.1093
-69.2027
-68.5392
-67.7658
-67.0294
-66.4735
-65.7864
-65.1127
-64.4512
-64.0237
-64.1893
-64.8688
-64.4833
-63.9668
-71.8503
-71.9544
-70.8599
-69.8929
-69.2145
-68.7847
-68.2688
-67.5339
-66.7207
-65.8721
-64.993
-64.6249
-64.716
-65.2687
-65.0773
-65.829
-65.4173
-72.1649
-71.6154
-70.9267
-70.6804
-70.4295
-70.2869
-69.826
-68.9511
-67.836
-66.8207
-66.1067
-65.3857
-65.561
-65.707
-65.9407
-65.8527
-65.0983
-64.3014
-71.5219
-71.3332
-71.5081
-71.3794
-71.2532
-71.2382
-70.6603
-70.2162
-69.6779
-68.4297
-67.2748
-66.5037
-66.2998
-66.6522
-67.0725
-66.1369
-64.8639
-64.1117
-64.131
-59.952
-59.9729
-60.1061
-60.1255
-60.1946
-60.2391
-60.2762
-60.3156
-60.3521
-60.31
-60.3277
-60.4471
-60.5224
-60.4937
-60.4782
-60.5323
-60.5438
-60.6261
-60.6432
-60.5501
-60.572
-60.7357
-60.8147
-60.8582
-60.8774
-60.8152
-60.8116
-60.9698
-61.0236
-61.0187
-61.0397
-60.9794
-60.9488
-60.9261
-61.2207
-61.1932
-61.2725
-61.318
-61.3112
-61.2338
-61.1679
-61.1089
-61.5281
-61.6584
-61.5791
-61.5753
-61.5587
-61.5553
-61.4776
-61.4105
-61.7544
-62.0397
-61.968
-61.9859
-62.0113
-61.8833
-61.789
-61.6368
-61.6619
-62.4336
-62.5368
-62.3967
-62.2644
-62.2374
-62.228
-62.0993
-62.015
-61.8206
-61.7211
-62.9459
-62.9096
-62.8782
-62.6655
-62.6322
-62.5303
-62.3909
-62.3279
-62.1604
-61.9464
-61.8637
-63.6049
-63.4008
-63.2399
-63.2825
-63.1653
-62.8914
-62.7629
-62.549
-62.5564
-62.2885
-62.119
-62.1035
-64.3392
-64.0848
-63.9169
-63.8965
-63.6094
-63.4391
-63.2459
-63.2247
-62.9026
-62.7419
-62.4583
-62.2933
-62.4254
-65.1198
-64.9801
-64.4253
-64.4886
-64.3739
-64.2582
-63.9848
-63.7861
-63.4938
-63.1356
-62.6777
-62.5302
-62.6743
-63.1846
-66.2228
-65.9765
-65.6798
-65.4547
-65.2215
-64.9036
-64.5075
-64.2147
-63.9168
-63.5704
-63.1654
-62.9112
-62.9966
-63.8624
-63.8591
-67.1475
-66.8292
-66.9541
-66.783
-66.6278
-66.3534
-65.9876
-65.3386
-64.8706
-64.7445
-63.7692
-63.3788
-63.8438
-64.4589
-63.9513
-63.4442
-68.9894
-69.1856
-69.3586
-69.2375
-68.4679
-67.8211
-67.0344
-66.3222
-65.6549
-65.0022
-64.3859
-64.0406
-64.2113
-64.8055
-64.4544
-64.0159
-64.9731
-71.7682
-71.9417
-70.8489
-69.9513
-69.1743
-68.7157
-68.1335
-67.435
-66.61
-65.833
-64.9113
-64.5774
-64.7325
-65.2159
-65.1052
-65.8711
-65.3578
-64.3463
-72.0556
-71.5529
-70.8972
-70.6558
-70.3679
-70.2437
-69.7842
-68.8953
-67.7422
-66.7302
-66.0771
-65.3676
-65.5819
-65.6557
-65.8794
-65.846
-65.0595
-64.2833
-63.6843
-71.4649
-71.3024
-71.5013
-71.3785
-71.2247
-71.2223
-70.6396
-70.2275
-69.6856
-68.4081
-67.2187
-66.5182
-66.3166
-66.6313
-67.0303
-66.2125
-64.8626
-64.1187
-64.1403
-64.1704
-59.7326
-59.9105
-59.9751
-59.9922
-60.0969
-60.082
-60.1069
-60.224
-60.2255
-60.2233
-60.2551
-60.3574
-60.3389
-60.3145
-60.3169
-60.3518
-60.4896
-60.4793
-60.5205
-60.5071
-60.4601
-60.5138
-60.6282
-60.5649
-60.642
-60.6204
-60.5824
-60.5449
-60.6738
-60.7895
-60.8132
-60.8223
-60.8204
-60.7592
-60.7063
-60.9699
-60.9809
-60.9963
-60.9968
-60.9546
-60.9633
-60.9248
-60.8693
-61.118
-61.2117
-61.275
-61.2862
-61.262
-61.2029
-61.1486
-61.0803
-61.0161
-61.554
-61.5703
-61.5853
-61.5621
-61.5419
-61.5395
-61.4629
-61.3577
-61.2843
-61.9744
-61.8617
-61.9996
-61.9794
-61.8911
-61.8164
-61.7184
-61.6167
-61.557
-61.4584
-62.4765
-62.4572
-62.2521
-62.1741
-62.1977
-62.1987
-62.0088
-61.9065
-61.775
-61.6593
-61.5594
-62.8869
-62.8314
-62.7728
-62.5869
-62.5243
-62.4802
-62.2853
-62.216
-62.0865
-61.8943
-61.7809
-61.7516
-63.4311
-63.331
-63.1326
-63.1108
-63.0257
-62.8704
-62.6927
-62.5234
-62.3921
-62.2367
-62.0288
-62.0096
-62.0985
-64.127
-63.9933
-63.8857
-63.7113
-63.4064
-63.3566
-63.0957
-63.1176
-62.8555
-62.6283
-62.3643
-62.2386
-62.3925
-62.4114
-64.9687
-64.7605
-64.4023
-64.4304
-64.2833
-64.207
-63.848
-63.6735
-63.3939
-63.0276
-62.6145
-62.5651
-62.6927
-63.073
-63.2425
-66.0121
-65.8481
-65.5318
-65.4669
-65.1652
-64.8514
-64.3649
-64.108
-63.8772
-63.5574
-63.1638
-62.9467
-63.0583
-63.7223
-63.664
-63.2665
-66.935
-66.8203
-66.9363
-66.844
-66.7616
-66.341
-65.9448
-65.245
-64.7604
-64.6915
-63.8123
-63.3607
-63.8873
-64.3928
-63.9413
-63.4805
-63.1109
-68.9397
-69.259
-69.4055
-69.3648
-68.3975
-67.7614
-66.9686
-66.2439
-65.5343
-65.0782
-64.2941
-64.0175
-64.1626
-64.7059
-64.4397
-64.0245
-64.7876
-64.3106
-71.6239
-71.9212
-70.8538
-70.0025
-69.123
-68.6249
-67.9925
-67.3688
-66.513
-65.6758
-64.8679
-64.5378
-64.7255
-65.1858
-65.1206
-65.903
-65.2801
-64.342
-63.602
-71.955
-71.4841
-70.8724
-70.6432
-70.3105
-70.2238
-69.7433
-68.836
-67.6374
-66.633
-66.0385
-65.3313
-65.5552
-65.625
-65.8413
-65.8171
-65.0505
-64.2541
-63.7063
-63.5015
-71.4065
-71.2728
-71.4955
-71.3784
-71.1984
-71.2249
-70.6316
-70.2321
-69.6213
-68.3937
-67.1827
-66.5235
-66.3454
-66.5826
-66.9892
-66.2588
-64.8727
-64.1313
-64.1503
-64.1854
-64.2544
-59.7171
-59.8033
-59.8391
-59.9775
-59.9739
-59.9972
-60.0483
-60.1008
-60.108
-60.0929
-60.1909
-60.1811
-60.2511
-60.2371
-60.2138
-60.2467
-60.3751
-60.314
-60.3348
-60.3153
-60.2729
-60.3581
-60.4643
-60.5305
-60.4711
-60.4969
-60.4567
-60.3924
-60.4895
-60.5984
-60.6325
-60.552
-60.6049
-60.5879
-60.5281
-60.4743
-60.648
-60.749
-60.8518
-60.8621
-60.7556
-60.74
-60.6832
-60.6426
-60.8771
-60.9499
-60.9536
-60.9559
-60.9425
-60.9329
-60.9129
-60.8215
-60.725
-61.0725
-61.1637
-61.2443
-61.2274
-61.1852
-61.1892
-61.1102
-61.0407
-60.96
-60.9074
-61.4845
-61.508
-61.501
-61.5246
-61.5351
-61.478
-61.4032
-61.3289
-61.2484
-61.173
-61.8502
-61.8748
-61.973
-61.8724
-61.8078
-61.7717
-61.6444
-61.5977
-61.4769
-61.3959
-61.2701
-62.2563
-62.3728
-62.2212
-62.178
-62.1273
-62.0884
-61.9525
-61.8739
-61.7578
-61.6153
-61.4828
-61.5253
-62.8261
-62.846
-62.6813
-62.473
-62.4046
-62.3858
-62.3309
-62.1527
-62.0275
-61.8491
-61.7189
-61.719
-61.687
-63.2401
-63.2
-63.1704
-63.0215
-62.8656
-62.8366
-62.677
-62.4609
-62.3463
-62.1506
-61.9425
-61.9054
-62.108
-62.0213
-63.9581
-63.7887
-63.8165
-63.6396
-63.37
-63.2219
-62.9598
-62.9927
-62.8275
-62.546
-62.2063
-62.3702
-62.4285
-62.5164
-62.6492
-64.788
-64.52
-64.4017
-64.4129
-64.215
-64.0959
-63.7617
-63.5809
-63.3087
-62.9818
-62.5669
-62.5695
-62.8137
-63.0644
-62.9317
-62.5047
-65.761
-65.7858
-65.4847
-65.3077
-65.1265
-64.7075
-64.3129
-64.0101
-63.7417
-63.5266
-63.0668
-62.9897
-63.1243
-63.6234
-63.596
-63.3778
-63.0674
-66.8529
-66.9215
-66.9881
-66.9463
-66.9145
-66.4023
-65.9152
-65.1896
-64.7001
-64.6497
-63.7541
-63.4274
-63.9022
-64.3406
-63.8425
-63.5258
-63.0325
-63.4597
-69.0397
-69.245
-69.4404
-69.5118
-68.3784
-67.7095
-66.905
-66.1221
-65.4509
-65.0163
-64.19
-64.0315
-64.1754
-64.6301
-64.3956
-64.0179
-64.7502
-64.3109
-63.8446
-71.5681
-71.898
-70.9139
-70.044
-69.1104
-68.555
-67.9366
-67.3097
-66.4277
-65.6742
-64.7747
-64.4841
-64.7222
-65.1586
-65.1373
-65.878
-65.209
-64.3647
-63.6208
-63.1639
-71.8445
-71.4006
-70.846
-70.6348
-70.2528
-70.1838
-69.6946
-68.783
-67.5903
-66.5703
-65.9961
-65.3317
-65.5282
-65.619
-65.8191
-65.7818
-65.0058
-64.2236
-63.7454
-63.5385
-63.5439
-71.3478
-71.2446
-71.4911
-71.3808
-71.1784
-71.2132
-70.6342
-70.2322
-69.4631
-68.3365
-67.1515
-66.5281
-66.3483
-66.5446
-66.9509
-66.2303
-64.8768
-64.1643
-64.1655
-64.2001
-64.2785
-63.9847
-71.2321
-59.6019
-59.7154
-59.8045
-59.8133
-59.9162
-59.9263
-59.8839
-60.0079
-60.0402
-60.0457
-60.1171
-60.0841
-60.1648
-60.1336
-60.0984
-60.2059
-60.2483
-60.2375
-60.2826
-60.2414
-60.2196
-60.2435
-60.3718
-60.3426
-60.3066
-60.3491
-60.2937
-60.2233
-60.3711
-60.4659
-60.5428
-60.5378
-60.4849
-60.4075
-60.3899
-60.342
-60.471
-60.5449
-60.5645
-60.5877
-60.5858
-60.5693
-60.503
-60.408
-60.4062
-60.594
-60.7576
-60.7765
-60.827
-60.7515
-60.6908
-60.6556
-60.6125
-60.5625
-60.8376
-60.8944
-60.9376
-60.97
-60.9366
-60.9033
-60.8616
-60.7359
-60.6777
-60.6491
-61.0179
-61.1574
-61.1872
-61.1294
-61.1554
-61.1472
-61.1034
-61.0297
-60.9492
-60.9091
-60.8355
-61.3197
-61.4398
-61.4157
-61.4859
-61.4838
-61.4109
-61.3217
-61.2999
-61.1968
-61.0707
-61.0474
-61.7599
-61.8089
-61.8648
-61.8081
-61.789
-61.7516
-61.6078
-61.5437
-61.4688
-61.3343
-61.2419
-61.1624
-62.1689
-62.229
-62.18
-62.1412
-62.0517
-61.91
-61.9613
-61.8098
-61.7497
-61.5668
-61.4335
-61.444
-61.4022
-62.6688
-62.6689
-62.5721
-62.4723
-62.4181
-62.3012
-62.1713
-62.0735
-61.9575
-61.8052
-61.6261
-61.7403
-61.6864
-61.6925
-63.2128
-62.9819
-63.0264
-62.9913
-62.8101
-62.7308
-62.6189
-62.3981
-62.3449
-62.0455
-61.9145
-61.8664
-62.1419
-62.0173
-61.9945
-63.814
-63.7022
-63.6308
-63.6423
-63.4237
-63.146
-62.9714
-62.8868
-62.7491
-62.5061
-62.2275
-62.4216
-62.5529
-62.6027
-62.5679
-62.439
-64.7611
-64.4631
-64.333
-64.2702
-64.2159
-63.9228
-63.5774
-63.4785
-63.2324
-62.9021
-62.6173
-62.5723
-62.924
-63.0093
-62.8272
-62.5347
-62.3867
-65.7368
-65.6148
-65.5263
-65.3444
-65.063
-64.6421
-64.3025
-64
-63.6001
-63.5272
-63.0645
-63.007
-63.2225
-63.5807
-63.4972
-63.3435
-63.0126
-62.9141
-66.8868
-66.8813
-67.1489
-67.0464
-66.9751
-66.5173
-65.9023
-65.1122
-64.5759
-64.4904
-63.6915
-63.4442
-63.8988
-64.2779
-63.7705
-63.5396
-62.9098
-63.1632
-63.415
-68.9958
-69.1791
-69.6304
-69.5722
-68.3185
-67.7674
-66.8686
-66.0372
-65.4224
-64.919
-64.1337
-64.072
-64.208
-64.5667
-64.3983
-64.0243
-64.6234
-64.3317
-63.8202
-63.3375
-71.4392
-71.8852
-71.0032
-70.0121
-69.0716
-68.4583
-67.8973
-67.2586
-66.371
-65.6426
-64.6685
-64.4484
-64.7358
-65.1281
-65.1444
-65.8218
-65.1911
-64.4272
-63.787
-63.2439
-63.0711
-71.7242
-71.3113
-70.8189
-70.6026
-70.2119
-70.1606
-69.6499
-68.7643
-67.605
-66.5684
-65.9342
-65.3398
-65.5201
-65.6131
-65.7956
-65.7511
-64.9864
-64.1845
-63.797
-63.5896
-63.5978
-63.4722
-71.4824
-71.2903
-71.218
-71.4878
-71.3835
-71.1744
-71.1754
-70.6448
-70.2369
-69.3654
-68.2555
-67.1164
-66.536
-66.3447
-66.5143
-66.9171
-66.0931
-64.8836
-64.2172
-64.1836
-64.2124
-64.2736
-64.0192
-63.6018
-71.1706
-59.5887
-59.6919
-59.7412
-59.8082
-59.8397
-59.8314
-59.8995
-59.9268
-59.97
-60.0582
-60.0744
-60.0533
-60.0541
-60.0433
-60.1391
-60.1486
-60.1487
-60.1517
-60.1408
-60.1001
-60.1188
-60.2899
-60.2889
-60.3817
-60.2347
-60.2166
-60.1518
-60.1866
-60.3048
-60.3506
-60.4069
-60.3295
-60.3062
-60.2256
-60.1757
-60.3434
-60.4417
-60.4911
-60.5323
-60.5071
-60.4215
-60.3427
-60.251
-60.2327
-60.4314
-60.5398
-60.53
-60.5937
-60.6068
-60.5967
-60.4892
-60.4145
-60.3531
-60.3355
-60.5559
-60.7136
-60.7148
-60.7587
-60.7257
-60.67
-60.6387
-60.5913
-60.5333
-60.4514
-60.7341
-60.8455
-60.9001
-60.9414
-60.8821
-60.8573
-60.7983
-60.7254
-60.6333
-60.598
-60.5769
-61.0063
-61.0991
-61.1014
-61.083
-61.1154
-61.094
-61.0635
-60.9714
-60.9159
-60.8599
-60.7915
-60.7677
-61.3852
-61.3236
-61.4325
-61.4655
-61.4487
-61.381
-61.2857
-61.2593
-61.1534
-61.0555
-60.9967
-60.8813
-61.8074
-61.7286
-61.7184
-61.8054
-61.707
-61.6682
-61.5419
-61.4858
-61.4644
-61.3282
-61.2187
-61.0547
-61.2026
-62.1247
-62.138
-62.1056
-62.0832
-61.9864
-61.9438
-61.9318
-61.7282
-61.6794
-61.5086
-61.3422
-61.4194
-61.3258
-61.3358
-62.5881
-62.5548
-62.5683
-62.4333
-62.3685
-62.2689
-62.0882
-61.9704
-61.8758
-61.798
-61.5936
-61.7036
-61.7501
-61.6965
-61.6416
-63.1762
-62.985
-62.9541
-62.817
-62.7187
-62.6583
-62.4986
-62.4128
-62.261
-62.0235
-61.9285
-61.9966
-62.1689
-62.1198
-62.041
-61.9841
-63.7559
-63.6582
-63.5462
-63.4718
-63.4344
-63.1664
-62.9037
-62.8253
-62.5904
-62.4609
-62.2759
-62.4005
-62.626
-62.6576
-62.5876
-62.2566
-62.0936
-64.6234
-64.4131
-64.4136
-64.253
-64.1318
-63.7962
-63.4984
-63.4051
-63.1639
-62.8525
-62.5762
-62.6478
-62.9461
-63.0076
-62.7637
-62.4668
-62.3131
-62.7969
-65.6474
-65.5673
-65.5009
-65.3844
-64.9461
-64.614
-64.3311
-63.9168
-63.6238
-63.5553
-63.0511
-63.0274
-63.2415
-63.6602
-63.5155
-63.3027
-62.917
-62.7438
-62.2749
-66.8578
-66.9293
-67.2215
-67.2015
-67.019
-66.4705
-65.7666
-65.0236
-64.5287
-64.2922
-63.668
-63.5303
-63.9533
-64.1447
-63.8008
-63.58
-62.8867
-63.0602
-63.4333
-62.7513
-69.0477
-69.264
-69.7697
-69.5302
-68.2289
-67.7138
-66.7908
-65.9925
-65.4058
-64.9048
-64.0953
-64.0966
-64.209
-64.4943
-64.4099
-64.0553
-64.4129
-64.2768
-63.9285
-63.5461
-63.0667
-71.314
-71.6384
-71.0854
-69.9382
-69.0413
-68.3871
-67.8737
-67.2179
-66.3587
-65.4704
-64.6009
-64.4261
-64.7388
-65.1014
-65.1447
-65.7473
-65.163
-64.5
-63.8694
-63.3046
-63.1692
-63.3265
-71.3886
-71.5842
-71.1878
-70.8088
-70.5727
-70.171
-70.1555
-69.6085
-68.751
-67.6239
-66.5778
-65.9005
-65.3287
-65.5116
-65.6093
-65.7677
-65.7428
-65.0061
-64.1347
-63.8564
-63.6551
-63.6333
-63.5304
-63.5251
-70.9801
-71.1939
-71.4856
-71.3864
-71.1777
-71.1588
-70.6575
-70.2413
-69.3472
-68.2093
-67.0598
-66.5477
-66.3561
-66.4917
-66.8911
-66.0059
-64.8926
-64.2568
-64.205
-64.2224
-64.2626
-64.0398
-63.636
-63.8762
-71.485
-59.6543
-59.7093
-59.7471
-59.8626
-59.8249
-59.876
-59.8836
-59.8602
-59.9398
-59.9348
-59.9611
-59.9748
-60.0799
-60.0242
-60.1002
-60.0651
-60.083
-60.0433
-60.1011
-60.1258
-60.1875
-60.1727
-60.228
-60.1089
-60.0553
-60.1402
-60.2341
-60.2735
-60.2546
-60.2908
-60.2185
-60.1054
-60.0612
-60.1938
-60.251
-60.3615
-60.3723
-60.353
-60.2862
-60.2274
-60.1412
-60.0311
-60.302
-60.4024
-60.5093
-60.5375
-60.4727
-60.427
-60.3209
-60.2884
-60.1799
-60.1299
-60.4187
-60.5322
-60.5069
-60.5239
-60.5439
-60.4876
-60.4509
-60.3726
-60.3685
-60.2993
-60.2091
-60.5202
-60.6164
-60.7229
-60.7131
-60.6914
-60.6677
-60.6265
-60.5253
-60.4446
-60.3953
-60.3788
-60.7205
-60.7845
-60.8727
-60.9132
-60.8223
-60.805
-60.7603
-60.7118
-60.6424
-60.6337
-60.5295
-60.5084
-60.9532
-61.0148
-60.9516
-61.037
-61.0722
-61.0747
-61.0069
-60.9365
-60.8856
-60.7902
-60.7749
-60.7157
-60.4834
-61.349
-61.3269
-61.349
-61.4037
-61.3741
-61.3138
-61.2086
-61.1916
-61.0865
-61.0358
-60.9636
-60.8022
-60.9049
-61.5415
-61.6623
-61.6656
-61.6779
-61.6842
-61.6166
-61.5505
-61.44
-61.3793
-61.2905
-61.1871
-61.0969
-61.1
-61.0617
-61.9747
-62.0274
-62.0514
-62.0111
-61.9491
-61.8549
-61.8716
-61.7055
-61.5618
-61.5022
-61.2984
-61.4077
-61.2994
-61.3029
-61.2347
-62.4623
-62.432
-62.4531
-62.3829
-62.3278
-62.1794
-61.9986
-61.9563
-61.8016
-61.7442
-61.5665
-61.6683
-61.8571
-61.7107
-61.6197
-61.547
-63.0579
-63.0036
-62.9758
-62.8501
-62.6585
-62.5891
-62.4291
-62.4132
-62.24
-62.0463
-61.8806
-62.0343
-62.2071
-62.2803
-62.2048
-61.9405
-61.7265
-63.5709
-63.5513
-63.4633
-63.35
-63.3003
-63.103
-62.8052
-62.7144
-62.5459
-62.4344
-62.2672
-62.4549
-62.6743
-62.8198
-62.5997
-62.1847
-62.0721
-62.232
-64.542
-64.3433
-64.3643
-64.2497
-64.0789
-63.8173
-63.4721
-63.373
-63.0823
-62.8274
-62.597
-62.7172
-62.9815
-62.9817
-62.8381
-62.5011
-62.288
-62.6523
-62.2424
-65.5372
-65.4868
-65.4255
-65.3657
-64.9218
-64.6201
-64.4412
-63.9088
-63.6256
-63.4598
-63.0714
-63.0647
-63.3206
-63.7026
-63.4931
-63.2974
-62.9122
-62.6597
-62.2521
-61.9065
-66.9431
-67.0022
-67.2777
-67.3798
-67.1439
-66.5184
-65.7167
-64.9555
-64.425
-64.1181
-63.5797
-63.6672
-63.9241
-64.0753
-63.7989
-63.607
-63.0212
-63.071
-63.0123
-63.0914
-62.7483
-69.1733
-69.4243
-69.8547
-69.5087
-68.1649
-67.6986
-66.6992
-65.9138
-65.3328
-64.896
-64.0683
-64.0887
-64.1812
-64.4573
-64.418
-64.1081
-64.4034
-64.2668
-64.0434
-63.4281
-63.2582
-63.1102
-69.2014
-71.4517
-71.3732
-71.0752
-69.8605
-69.0195
-68.336
-67.8611
-67.1806
-66.3293
-65.4988
-64.5413
-64.4039
-64.739
-65.0739
-65.1078
-65.6644
-65.1464
-64.5891
-63.8121
-63.4661
-63.2978
-63.4209
-63.1793
-71.0765
-71.0788
-70.7908
-70.5526
-70.1267
-70.1464
-69.5743
-68.7435
-67.6316
-66.5797
-65.9168
-65.3459
-65.512
-65.6072
-65.7435
-65.7683
-65.0436
-64.1298
-63.9248
-63.7357
-63.6866
-63.5807
-63.5826
-63.7169
-70.7225
-71.4849
-71.3889
-71.1619
-71.1456
-70.6638
-70.2428
-69.3332
-68.1744
-67.0237
-66.5201
-66.3638
-66.4777
-66.8745
-65.9631
-64.8936
-64.2814
-64.2334
-64.2334
-64.2667
-64.0573
-63.6832
-63.8926
-64.1538
-71.3953
-59.6996
-59.7921
-59.7831
-59.785
-59.8443
-59.8324
-59.8449
-59.9222
-59.9038
-59.8852
-59.9267
-59.9297
-59.9913
-60.0404
-59.9465
-60.06
-60.0636
-60.0818
-60.0653
-60.1017
-60.0603
-59.9381
-60.0723
-60.1477
-60.1491
-60.2054
-60.162
-60.177
-60.0512
-59.9579
-60.0985
-60.2414
-60.3054
-60.2484
-60.2311
-60.1908
-60.1327
-60.0478
-59.9048
-60.1772
-60.248
-60.3456
-60.3153
-60.3264
-60.2314
-60.1858
-60.1158
-60.0542
-59.9484
-60.2477
-60.4343
-60.5054
-60.5264
-60.4833
-60.3982
-60.3252
-60.2616
-60.1358
-60.1202
-60.048
-60.3927
-60.4874
-60.5184
-60.5464
-60.5472
-60.4699
-60.3944
-60.3372
-60.3601
-60.2696
-60.1927
-60.1523
-60.5165
-60.6031
-60.6428
-60.6346
-60.6383
-60.6607
-60.5897
-60.4967
-60.3777
-60.3603
-60.334
-60.2549
-60.7172
-60.7458
-60.7759
-60.8039
-60.7396
-60.7504
-60.6862
-60.6548
-60.6367
-60.5482
-60.5038
-60.4682
-60.3431
-60.8154
-60.9421
-60.972
-61.029
-61.0922
-61.0191
-60.9701
-60.936
-60.8239
-60.7788
-60.7178
-60.6529
-60.5467
-60.4717
-61.2397
-61.2484
-61.2953
-61.2443
-61.2568
-61.2339
-61.2073
-61.1445
-61.0879
-60.9742
-60.9927
-60.7464
-60.8272
-60.7458
-61.5032
-61.4842
-61.5405
-61.5892
-61.5863
-61.5566
-61.4643
-61.3886
-61.3227
-61.2205
-61.101
-61.0611
-60.9753
-61.0818
-60.9205
-61.8987
-61.9442
-61.9437
-62.0037
-61.9323
-61.8112
-61.7357
-61.6433
-61.5368
-61.4288
-61.2914
-61.4049
-61.4409
-61.3008
-61.1753
-61.0754
-62.3991
-62.4342
-62.3742
-62.2938
-62.237
-62.1462
-61.9561
-61.8588
-61.7732
-61.7736
-61.5082
-61.6685
-61.8737
-61.7641
-61.6968
-61.538
-61.3827
-63.001
-62.9757
-62.8797
-62.8124
-62.6429
-62.5374
-62.3984
-62.3965
-62.2255
-62.0418
-61.978
-62.1117
-62.3209
-62.4044
-62.2183
-61.9271
-61.767
-61.745
-63.5592
-63.3244
-63.4018
-63.2963
-63.1431
-63.0898
-62.8584
-62.7418
-62.5145
-62.3771
-62.2703
-62.4997
-62.8358
-62.8968
-62.6138
-62.2364
-62.0544
-62.2613
-62.082
-64.6709
-64.4013
-64.3114
-64.3774
-64.0905
-63.7106
-63.458