/*--------------------------------*- C++ -*----------------------------------*\
  =========                 |
  \\      /  F ield         | OpenFOAM: The Open Source CFD Toolbox
   \\    /   O peration     | Website:  https://openfoam.org
    \\  /    A nd           | Version:  7
     \\/     M anipulation  |
\*---------------------------------------------------------------------------*/
FoamFile
{
    version     2.0;
    format      ascii;
    class       surfaceScalarField;
    location    "6.5";
    object      phi;
}
// * * * * * * * * * * * * * * * * * * * * * * * * * * * * * * * * * * * * * //

dimensions      [0 3 -1 0 0 0 0];

internalField   nonuniform List<scalar> 
53739
(
-7.78591e-05
-0.00146955
2.755e-05
-0.000317836
0.000411304
0.000136118
-8.27614e-05
-0.0013693
2.80204e-05
-5.3652e-05
1.81242e-05
2.09123e-07
-0.000617277
0.00310791
2.41459e-06
-0.000311009
0.000666119
0.000136917
-0.000145093
7.72106e-05
7.53953e-05
-8.87899e-05
-0.0012624
2.86215e-05
-5.2553e-05
9.84667e-05
2.30841e-07
-9.55136e-05
0.000222826
-3.3204e-05
-0.000984025
0.00378678
-6.41143e-05
-0.000644031
0.0035097
-1.3337e-05
-0.000568758
0.0034804
0.000121145
-0.000351893
0.000953808
0.000139545
-0.000133341
0.000216279
7.86363e-05
-0.000229417
0.00033071
9.78568e-05
-9.25064e-05
-0.00115149
2.92588e-05
-5.19857e-05
0.000178502
5.71965e-07
-9.5837e-05
0.000353443
-3.45496e-05
-0.000122177
-4.30768e-05
-5.6204e-05
-0.00147735
0.00293662
0.000677133
-0.00106517
0.00403458
-5.17565e-06
-0.00108084
0.00448497
0.000103308
-0.000720266
0.00393834
9.70165e-07
-0.000555295
0.00376541
0.000123609
-0.000529313
0.00342411
0.000236173
-0.000296302
0.00117782
0.000140556
-0.0001216
0.00034207
8.33682e-05
-0.000222164
0.000438635
9.70376e-05
-0.000313587
0.00199666
0.000170904
-0.000100386
-0.00103224
3.00941e-05
-5.108e-05
0.000258028
8.12416e-07
-9.49978e-05
0.000484288
-3.52753e-05
-0.000120753
0.000100503
-5.73758e-05
-0.000130662
-8.07498e-05
-5.75655e-05
-0.00179196
0.00500948
0.00103546
-0.00143307
0.00317783
0.000697709
-0.00147355
0.00370578
0.000681122
-0.00110238
0.00427236
-3.68297e-06
-0.00107315
0.0048754
0.00012226
-0.000911382
0.00585813
0.000257072
-0.000652805
0.00429554
-4.36722e-05
-0.000512954
0.00403755
0.000120183
-0.000495442
0.00358932
0.000231679
-0.000576703
0.00368925
0.000357641
-0.000342856
0.00144204
0.00014338
-0.000113538
0.000454874
9.02106e-05
-0.000212701
0.000541719
9.79871e-05
-0.000288027
0.00208984
0.000171138
-0.0003122
0.00174566
0.000191815
-0.000102669
-0.000911145
3.14256e-05
-4.98365e-05
0.000336362
1.59647e-06
-9.27357e-05
0.000613009
-3.51724e-05
-0.000119256
0.000243036
-5.85524e-05
-0.000132755
5.32601e-05
-5.86304e-05
-0.000138744
0.000445602
-6.55456e-05
-0.00187012
0.00572753
0.00157968
-0.00159097
0.00522708
0.00104435
-0.00165751
0.00540338
0.000998154
-0.0014559
0.00340422
0.000754729
-0.00143586
0.00404916
0.000717039
-0.00121921
0.00531782
0.000730403
-0.00113725
0.00458045
4.12905e-05
-0.00101055
0.00522793
0.000141377
-0.000844987
0.00604642
0.000283516
-0.000898368
0.00562267
0.00041841
-0.000685498
0.00462351
-4.43702e-05
-0.000509773
0.00427421
0.000115902
-0.000466427
0.00371075
0.00025248
-0.000515673
0.00379968
0.000348895
-0.000491339
0.0036135
0.000426254
-0.000287945
0.00164793
0.000151169
-0.000107623
0.000559216
9.6824e-05
-0.000196377
0.000637785
9.7786e-05
-0.000250395
0.00214733
0.000171628
-0.00031128
0.00190316
0.000192163
-0.000320432
0.00223478
0.000210912
-0.00010878
-0.000783748
3.23358e-05
-4.76471e-05
0.000412952
2.48364e-06
-9.06327e-05
0.000739481
-3.42428e-05
-0.000118344
0.000385374
-5.91669e-05
-0.000134278
0.000188883
-5.98966e-05
-0.000135952
0.000591185
-6.82624e-05
-0.000173982
0.000192045
-7.40943e-05
-0.00184913
0.00586392
0.00226825
-0.00160884
0.00589589
0.00156787
-0.00158454
0.00596261
0.00144442
-0.00161726
0.00546907
0.00105327
-0.00159547
0.00560695
0.00100038
-0.00153499
0.00555339
0.00100788
-0.00142759
0.00363352
0.00076755
-0.00137132
0.00439236
0.0007723
-0.00112502
0.00555387
0.000761024
-0.00104767
0.00556446
0.000760467
-0.00110125
0.00483914
4.24932e-05
-0.00101775
0.00560956
0.000167631
-0.000828278
0.00625038
0.000299273
-0.000820434
0.00579085
0.0004201
-0.000710214
0.00585465
0.000453517
-0.000615953
0.00492159
-6.59705e-05
-0.000462817
0.00447422
0.000110813
-0.000427281
0.00381062
0.00024693
-0.000448135
0.00387933
0.000370572
-0.000485865
0.00371377
0.000423209
-0.000420535
0.00349117
0.000483167
-0.00030034
0.00186181
0.000156389
-9.91191e-05
0.000657715
0.000104143
-0.000184459
0.000734198
9.42367e-05
-0.000230324
0.00218742
0.000169682
-0.00028459
0.00203622
0.000188872
-0.000302916
0.00238088
0.00021302
-0.000337114
0.00234258
0.000208728
-0.000112032
-0.000652491
3.32925e-05
-4.63384e-05
0.000488214
3.4119e-06
-8.72727e-05
0.000862367
-3.31303e-05
-0.000115876
0.000526546
-5.95393e-05
-0.000133284
0.000324753
-6.1753e-05
-0.000135222
0.000737591
-7.10803e-05
-0.000174323
0.000374132
-7.60261e-05
-0.000172999
0.000241018
-7.57134e-05
-0.00141191
0.00614135
0.00258441
-0.00177561
0.00625312
0.00217216
-0.00118206
0.00628807
0.0019005
-0.00166142
0.00609272
0.00152726
-0.00152423
0.00605147
0.00140777
-0.00163481
0.00598109
0.00133854
-0.00150904
0.005628
0.0010703
-0.00154065
0.00582234
0.00100721
-0.00143235
0.00582961
0.00103149
-0.00115585
0.00604446
0.00104225
-0.00142597
0.00396633
0.000789676
-0.00133335
0.00469613
0.000779383
-0.00111934
0.0058416
0.000775635
-0.000997654
0.00572671
0.000775992
-0.000875407
0.00621571
0.000749298
-0.001127
0.00517557
5.37659e-05
-0.000946956
0.00597059
0.000165609
-0.000763437
0.00644453
0.000309631
-0.000775015
0.00600431
0.00041269
-0.000666044
0.00600296
0.000451975
-0.00051341
0.00589028
0.000469261
-0.000604678
0.00516706
-6.58123e-05
-0.00043516
0.00464359
0.000100705
-0.000397162
0.00389109
0.000243046
-0.000394946
0.00393424
0.000356641
-0.000402335
0.00376704
0.000435047
-0.000391564
0.00350862
0.000494406
-0.000427216
0.00343903
0.000512606
-0.000307008
0.00207468
0.000165016
-9.61611e-05
0.000752073
0.000111854
-0.000155005
0.000812036
9.40376e-05
-0.00021889
0.00222132
0.000163349
-0.000268697
0.00215284
0.000188479
-0.000290638
0.0025164
0.000208771
-0.000347466
0.00251791
0.000210834
-0.000371826
0.0022173
0.000188363
-0.000115332
-0.000518397
3.42456e-05
-4.40433e-05
0.000560951
4.59889e-06
-8.41648e-05
0.000980431
-3.04872e-05
-0.000118083
0.000670838
-5.93385e-05
-0.000134273
0.00046341
-6.39234e-05
-0.000133053
0.000882126
-7.32351e-05
-0.000172193
0.000553278
-7.80329e-05
-0.000172354
0.000413648
-7.63027e-05
-0.000188176
-7.38095e-05
-6.22452e-05
-0.00102987
0.00688132
0.00260131
-0.00164411
0.00637094
0.00240848
-0.00110408
0.00627327
0.00234771
-0.00161902
0.00645618
0.00201896
-0.00134456
0.00638847
0.00189208
-0.0013927
0.0059203
0.00167304
-0.00162379
0.00638973
0.00150661
-0.00156946
0.00621774
0.0013898
-0.00159547
0.00621001
0.00134197
-0.00127935
0.00629793
0.00131121
-0.00139825
0.00572841
0.00108546
-0.00145346
0.00598074
0.001032
-0.00135768
0.0060116
0.00106357
-0.00111823
0.00613182
0.0010647
-0.000993836
0.00617716
0.00103567
-0.00145559
0.00432079
0.000788477
-0.00127052
0.00501657
0.000792801
-0.00102025
0.00607403
0.000803759
-0.000944681
0.00589429
0.000777718
-0.000762855
0.00632805
0.000760469
-0.000653374
0.00639254
0.00076781
-0.00111971
0.00555536
5.33812e-05
-0.000895007
0.00630383
0.000180372
-0.000704429
0.00659594
0.000321474
-0.000686059
0.00620345
0.000401607
-0.000591073
0.00616035
0.000444036
-0.000475574
0.00597676
0.000449506
-0.000538217
0.00583858
0.000434416
-0.000586432
0.00539025
-5.57056e-05
-0.00039693
0.00477987
9.86697e-05
-0.000338049
0.00393601
0.000238828
-0.00037453
0.00398316
0.000349766
-0.000365078
0.0037821
0.000437957
-0.00035738
0.00350511
0.000505303
-0.000428375
0.00350304
0.000511306
-0.000469181
0.00353544
0.00047767
-0.000293559
0.00227117
0.000171803
-9.31321e-05
0.000845839
0.000120339
-0.000143717
0.00089725
8.61925e-05
-0.000187785
0.00222439
0.000160672
-0.000250178
0.00224506
0.000187034
-0.000268571
0.00263042
0.000209978
-0.00028512
0.00263486
0.000204752
-0.000353356
0.00242354
0.000185601
-0.000387941
0.00216235
0.000170938
-0.000116504
-0.000383482
3.52459e-05
-4.12461e-05
0.000632133
4.30971e-06
-8.02742e-05
0.00109204
-2.67354e-05
-0.000108003
0.000806367
-5.8013e-05
-0.000132756
0.000602673
-6.58451e-05
-0.000130157
0.0010235
-7.51447e-05
-0.000169838
0.000729402
-7.9521e-05
-0.00017237
0.000584943
-7.69579e-05
-0.00018937
0.000100975
-6.17169e-05
-0.000221553
-0.000371832
-2.73709e-05
-0.00126536
0.00644144
0.00314298
-0.00110063
0.0065418
0.00265751
-0.00130048
0.00641791
0.00243691
-0.00152317
0.00651969
0.00234826
-0.00124821
0.00634053
0.00224488
-0.00114448
0.00620155
0.00202986
-0.00152999
0.00659124
0.00196369
-0.00136577
0.00636003
0.00184371
-0.00133681
0.00583749
0.00171622
-0.00124079
0.00591941
0.00158778
-0.00132893
0.00656427
0.00147949
-0.00151403
0.00641123
0.00137369
-0.00145244
0.00635547
0.00133911
-0.00118358
0.00636809
0.00133716
-0.000975189
0.00640421
0.00117328
-0.00146223
0.00581536
0.00105131
-0.00136136
0.00611892
0.00103812
-0.00123081
0.00617995
0.00107421
-0.00103004
0.0062027
0.00107805
-0.000895284
0.0062946
0.00107969
-0.000721771
0.00618004
0.00108062
-0.00146723
0.00472154
0.000794718
-0.00120818
0.00533829
0.000779929
-0.000940672
0.00629309
0.000809982
-0.000879237
0.0061064
0.000784825
-0.000698997
0.00647489
0.000738795
-0.000603688
0.00650145
0.000779664
-0.000620487
0.00624713
0.000771263
-0.00102888
0.00585809
7.15706e-05
-0.000811945
0.00658295
0.000189273
-0.00065536
0.00676823
0.000325391
-0.000629529
0.0063744
0.000405524
-0.000514579
0.0062727
0.000438758
-0.000390932
0.0060148
0.000439551
-0.000448106
0.00589229
0.00041553
-0.000428666
0.00560091
0.000412041
-0.000559772
0.00559464
-3.99278e-05
-0.000385276
0.00491498
0.00010133
-0.000291309
0.00393172
0.000250554
-0.000266665
0.00395636
0.000344511
-0.000309937
0.00374714
0.000444491
-0.000278608
0.00344257
0.000510534
-0.000316814
0.0035196
0.000520437
-0.000418364
0.00363844
0.00047332
-0.000467192
0.00336135
0.000406165
-0.000289623
0.00246058
0.000180575
-7.70562e-05
0.000923457
0.000129994
-0.00012832
0.000985196
8.0439e-05
-0.000155322
0.00220857
0.000149323
-0.000230588
0.00231643
0.000187137
-0.0002598
0.00273837
0.000208729
-0.000298501
0.00275666
0.00021684
-0.000325716
0.00260099
0.000180644
-0.000369069
0.00236502
0.000162625
-0.000356897
0.00184305
0.000137006
-0.000117993
-0.000247625
3.62219e-05
-3.87769e-05
0.000701279
4.8767e-06
-7.62478e-05
0.0012001
-2.74988e-05
-0.000112996
0.000947815
-5.51876e-05
-0.000131401
0.000743977
-6.79159e-05
-0.000127983
0.00116237
-7.67312e-05
-0.000170811
0.00090558
-8.05117e-05
-0.000164436
0.000747164
-7.73059e-05
-0.000189128
0.000273532
-6.03874e-05
-0.000221691
-0.000184893
-2.69652e-05
-0.000257158
0.00111592
-1.5439e-05
-0.00128
0.00596884
0.00317479
-0.00100397
0.00637605
0.00309281
-0.0011691
0.00610264
0.00299131
-0.00119558
0.00647499
0.00254099
-0.00109611
0.00649534
0.00242798
-0.000939125
0.00634156
0.00224018
-0.00134618
0.00645771
0.00238777
-0.00114604
0.00625087
0.00221819
-0.00108076
0.00614974
0.00204064
-0.00106257
0.00600457
0.00189342
-0.00134193
0.00681264
0.00190626
-0.00126815
0.00632275
0.0017551
-0.00138468
0.00588656
0.00172688
-0.00113199
0.00594639
0.00163765
-0.000889423
0.00626707
0.00152393
-0.00139957
0.00668768
0.00142151
-0.00140313
0.00660835
0.00132413
-0.00136497
0.00650682
0.0013565
-0.00108171
0.00644489
0.00131398
-0.000907156
0.00655238
0.00120086
-0.000797417
0.00660549
0.00120496
-0.00149031
0.00593989
0.00112137
-0.00130142
0.00620823
0.00105525
-0.00113858
0.00631887
0.00109711
-0.000991855
0.00630891
0.00108061
-0.000788274
0.00637882
0.00108311
-0.000681567
0.00620738
0.00113024
-0.000534015
0.00591749
0.00106501
-0.00134171
0.00507736
0.000826753
-0.00111931
0.00564076
0.00079961
-0.000857831
0.00649952
0.00077597
-0.00082598
0.00632745
0.000785388
-0.00060828
0.00660177
0.000751654
-0.000427145
0.00650297
0.000773493
-0.000577207
0.0063745
0.000781395
-0.000456769
0.0061456
0.000718967
-0.000978236
0.0061131
0.000121931
-0.000742407
0.00681426
0.000197393
-0.000582642
0.00691441
0.000334425
-0.000537465
0.00656399
0.000406595
-0.000434408
0.00634247
0.000460223
-0.000301099
0.00604524
0.000430807
-0.000365887
0.00593836
0.00044255
-0.000326071
0.00550016
0.000423986
-0.000422497
0.00506855
0.000340667
-0.000533711
0.00574442
-1.45408e-05
-0.000338442
0.00503007
0.00010637
-0.000259966
0.00391093
0.00025376
-0.000217952
0.00390709
0.000362454
-0.00022859
0.00363757
0.000452081
-0.000298125
0.00341687
0.000508511
-0.000315667
0.0035161
0.000531197
-0.000352737
0.00370356
0.000482337
-0.00043232
0.00349978
0.000398136
-0.000360624
0.00326886
0.000336366
-0.000288655
0.00263929
0.000187845
-7.8036e-05
0.001003
0.000140292
-0.000118497
0.00107034
8.7098e-05
-0.000144916
0.00218219
0.000138742
-0.000243732
0.00239177
0.000186308
-0.000242025
0.00283211
0.000207434
-0.000304624
0.00289717
0.000202023
-0.000297552
0.00276184
0.00018911
-0.000346188
0.00254609
0.000156635
-0.000338913
0.00198335
0.000139542
-0.000444197
0.0021576
4.32696e-05
-0.000117927
-0.000112375
3.72217e-05
-3.56659e-05
0.000767685
5.48121e-06
-7.17995e-05
0.00130257
-2.57981e-05
-0.000111482
0.00108735
-5.55539e-05
-0.000129937
0.000887935
-6.92093e-05
-0.000125028
0.00129696
-7.74737e-05
-0.000170184
0.00108043
-8.13935e-05
-0.00017259
0.000917313
-7.80699e-05
-0.000190518
0.000444557
-5.78132e-05
-0.000221638
2.25549e-06
-2.58978e-05
-0.000246972
0.00135215
-1.62306e-05
-0.00020107
0.00100732
-2.38017e-05
-0.000829644
0.00535759
0.0037396
-0.00115542
0.00560021
0.00358565
-0.000752756
0.00578972
0.00315851
-0.000947681
0.00588737
0.00304037
-0.00100811
0.00622135
0.0031032
-0.000979726
0.00612684
0.00295222
-0.000791751
0.00602931
0.00282789
-0.00127192
0.00662556
0.0024216
-0.000984768
0.00646979
0.00240528
-0.000920106
0.00629341
0.00231548
-0.000834912
0.00627637
0.00212273
-0.00130707
0.00650561
0.00233694
-0.00103656
0.00614382
0.00226324
-0.00103888
0.00595562
0.00206651
-0.00102353
0.00599984
0.00193691
-0.000846379
0.00583106
0.00191231
-0.00126312
0.00683292
0.0017789
-0.00122765
0.00628238
0.00177114
-0.0013627
0.00592319
0.0017162
-0.00108481
0.00600171
0.00167465
-0.000858942
0.00626697
0.00158954
-0.000781063
0.00601593
0.00152049
-0.00135783
0.00674802
0.00140656
-0.00141771
0.0067873
0.00135885
-0.00129272
0.00662779
0.0013573
-0.000993158
0.00643792
0.00136477
-0.000786011
0.00665725
0.00120684
-0.000778744
0.00664219
0.00126134
-0.000469922
0.00606071
0.00125267
-0.00136551
0.00609578
0.00115807
-0.0011824
0.00632262
0.00107008
-0.00101345
0.00644258
0.00108716
-0.000917475
0.00640169
0.00109582
-0.000665963
0.00642982
0.0010873
-0.000520451
0.00627071
0.00111308
-0.000554121
0.00596256
0.00106209
-0.000484857
0.00609161
0.00105575
-0.00125024
0.00543748
0.000853222
-0.00098871
0.00588598
0.000827833
-0.000746355
0.00662577
0.000837076
-0.000727648
0.00651382
0.000779776
-0.000499727
0.00669493
0.000757539
-0.000350209
0.0065386
0.000765132
-0.0004925
0.00647263
0.000801983
-0.000297592
0.00616325
0.00073527
-0.000401256
0.00591581
0.000636157
-0.000911504
0.00633048
0.000140233
-0.00068477
0.00707005
0.000212469
-0.000528279
0.00704564
0.000334473
-0.000377913
0.00667707
0.00038131
-0.000314903
0.00640187
0.000433511
-0.000288436
0.00603668
0.000459099
-0.000257759
0.00586697
0.000444296
-0.000293874
0.00542478
0.000459067
-0.000366532
0.00504856
0.000378188
-0.00029773
0.00449697
0.000296395
-0.000507743
0.00590284
-1.70621e-05
-0.000310011
0.00512961
0.000117896
-0.000232371
0.00386943
0.00026175
-0.000137425
0.00382967
0.00032369
-0.000209712
0.00349
0.000475999
-0.000146691
0.00326057
0.000513048
-0.000317136
0.0035223
0.000514829
-0.000336209
0.00378837
0.000485041
-0.000398914
0.00362162
0.000413225
-0.000332875
0.00334891
0.000312047
-0.000509618
0.0018223
0.000175426
-0.000267591
0.00279833
0.000196758
-5.14262e-05
0.00105487
0.00015173
-9.95085e-05
0.00115428
8.40612e-05
-0.000129142
0.00214798
0.000138967
-0.000217314
0.00243624
0.000181657
-0.000230402
0.00291144
0.00021235
-0.00027845
0.00301327
0.000199607
-0.000320691
0.00293315
0.000178812
-0.00032513
0.00272399
0.000145827
-0.000321044
0.00210698
0.000132411
-0.00042314
0.00242867
4.46392e-05
-0.000322276
0.00155062
-2.56243e-05
-0.000115484
1.92945e-05
3.81746e-05
-3.32679e-05
0.000832257
5.91825e-06
-6.67025e-05
0.00139871
-2.39572e-05
-0.000104422
0.00122122
-5.52463e-05
-0.000130087
0.00103297
-7.05063e-05
-0.000123597
0.00142937
-7.80221e-05
-0.000162511
0.00124657
-8.11073e-05
-0.00016918
0.00108401
-7.89127e-05
-0.000188466
0.00061136
-5.64068e-05
-0.000220816
0.000187828
-2.25697e-05
-0.000236217
0.00158038
-1.7912e-05
-0.000196958
0.00121236
-2.43051e-05
-0.000167835
0.00108502
-2.6605e-05
-0.000668332
0.00522201
0.00400653
-0.000941627
0.00520987
0.00365768
-0.00070478
0.00532429
0.00363217
-0.000726324
0.00563221
0.00355972
-0.000711064
0.00553448
0.00350654
-0.000976009
0.00580366
0.00312996
-0.000814971
0.0058891
0.00299202
-0.00068774
0.00610471
0.00292424
-0.00121566
0.00622651
0.0030604
-0.000870419
0.00612638
0.00298931
-0.000678232
0.00588594
0.00285372
-0.000689352
0.00582818
0.00275028
-0.00107538
0.00631982
0.00247477
-0.000977465
0.00636265
0.00246964
-0.000785031
0.00607102
0.00237382
-0.000786048
0.00611278
0.00224158
-0.000734877
0.00605814
0.00216097
-0.00102494
0.00639363
0.00222857
-0.00103137
0.00605242
0.00223206
-0.00113162
0.00592751
0.00206027
-0.00091755
0.00590527
0.00199383
-0.000822677
0.00580994
0.00192176
-0.000708917
0.00564266
0.0019023
-0.00107375
0.00679989
0.00176726
-0.00135369
0.00624866
0.00174859
-0.00126361
0.00590354
0.00176168
-0.000994139
0.00608972
0.00162917
-0.000767911
0.00632338
0.00160014
-0.000751273
0.00598763
0.00159037
-0.000466857
0.00598773
0.00154754
-0.00113956
0.00678775
0.00137628
-0.00127881
0.00689068
0.00139959
-0.00114627
0.00669885
0.00142061
-0.000822553
0.00642591
0.00127439
-0.000620975
0.00676634
0.00121069
-0.000599024
0.00662051
0.0013071
-0.000403657
0.00587637
0.00129521
-0.000514272
0.00599267
0.00120623
-0.00117259
0.00615771
0.00121556
-0.00104981
0.00643194
0.00110984
-0.000824589
0.00646824
0.00112265
-0.000803955
0.00647669
0.00108846
-0.000657529
0.0065943
0.00108914
-0.000302872
0.00617794
0.00113273
-0.000564002
0.00607451
0.00107263
-0.000347414
0.0061523
0.00105122
-0.000326053
0.00552356
0.00100432
-0.00117329
0.00575077
0.000845971
-0.000905844
0.00612636
0.000833919
-0.000670068
0.00679632
0.000799076
-0.0006002
0.00674466
0.000828532
-0.000400469
0.0068056
0.000754677
-0.000281511
0.00650139
0.000787825
-0.000340824
0.00654767
0.000773153
-0.000131814
0.00604415
0.000759025
-0.000303252
0.00600066
0.000587139
-0.00032288
0.00569043
0.000499266
-0.000861932
0.0065259
0.000164817
-0.000575589
0.0072759
0.000199961
-0.000463621
0.00716606
0.0003233
-0.000353258
0.00684537
0.000382006
-0.000172272
0.00633848
0.00040726
-5.17655e-05
0.0059573
0.000417959
-0.000188169
0.00573317
0.000463933
-0.000252766
0.00532097
0.000464659
-0.000291551
0.00500122
0.00039905
-0.000229216
0.00445132
0.000320177
-0.000256857
0.00419348
0.000354762
-0.000463731
0.00603841
-8.30849e-06
-0.000212328
0.00516545
0.000107998
-0.000187106
0.00381482
0.000260098
-0.000127299
0.00372746
0.000362122
-0.000154947
0.00331844
0.000432882
-0.000178629
0.0031691
0.000515701
-0.000218119
0.00346215
0.000512863
-0.00033694
0.00383992
0.000479527
-0.000335955
0.00369436
0.00042312
-0.00029864
0.00342073
0.000319006
-0.00049904
0.00206758
0.000142665
-0.000355731
0.00214816
2.56581e-05
-0.000256048
0.00293708
0.000205474
-5.83799e-05
0.0011134
0.00016334
-8.36547e-05
0.00122716
9.58016e-05
-0.000130128
0.0021285
0.00012925
-0.000227932
0.00249215
0.000180896
-0.000223438
0.00298906
0.000203886
-0.000261389
0.00311982
0.000204671
-0.000296224
0.00308284
0.000176962
-0.000311074
0.0028869
0.000138508
-0.000311649
0.00221965
0.000123992
-0.00039258
0.002685
3.24464e-05
-0.000299258
0.00172553
-2.79717e-05
-0.000262207
0.00169079
-4.81432e-05
-0.000111118
0.000145357
3.91154e-05
-3.1444e-05
0.000895664
6.21115e-06
-6.13818e-05
0.00148995
-2.39362e-05
-0.00010462
0.00135681
-5.49268e-05
-0.000128042
0.00117818
-7.24048e-05
-0.000119334
0.00155687
-7.86775e-05
-0.000166534
0.00141568
-8.05948e-05
-0.000166768
0.00124919
-7.95145e-05
-0.0001889
0.000777363
-5.60162e-05
-0.000219262
0.00037106
-2.03766e-05
-0.000227539
0.00180289
-1.75349e-05
-0.000191958
0.00141173
-2.53302e-05
-0.000166141
0.001253
-2.61493e-05
-0.000163688
0.000256347
-3.67048e-05
-0.000664098
0.00483942
0.00426307
-0.000686545
0.00520293
0.0040125
-0.000875474
0.00506568
0.00399274
-0.00061438
0.00504538
0.00401136
-0.000924284
0.00538457
0.003663
-0.00070423
0.00536094
0.0036142
-0.000520364
0.00551239
0.00353908
-0.000889843
0.00559116
0.00349548
-0.000572964
0.00539585
0.00345634
-0.000521511
0.00539753
0.0034194
-0.00105398
0.00571779
0.00312878
-0.000851196
0.00601426
0.00298557
-0.000699998
0.00619492
0.00292358
-0.000596452
0.00582189
0.00292361
-0.000988607
0.00619151
0.00302264
-0.000865738
0.00610355
0.0029715
-0.000621163
0.00581375
0.00289763
-0.000501521
0.00559127
0.0028061
-0.000563811
0.00544604
0.00273343
-0.000805453
0.00608642
0.00260594
-0.000922788
0.0061986
0.00253025
-0.000903376
0.00585017
0.00246224
-0.000688387
0.00594327
0.00231417
-0.000664503
0.00584692
0.00229464
-0.000697159
0.00553881
0.00230588
-0.000765084
0.00606676
0.00230473
-0.0010242
0.00573706
0.00221445
-0.00105834
0.00583396
0.00212034
-0.000860686
0.00581688
0.00201521
-0.000648423
0.00566249
0.0020218
-0.000674654
0.00557335
0.00191446
-0.000511029
0.00566311
0.00194623
-0.000900603
0.0067067
0.00171083
-0.00125756
0.00624634
0.00174835
-0.00117474
0.00588391
0.00179669
-0.000854131
0.00619475
0.00168823
-0.000572847
0.0063443
0.00156011
-0.000562663
0.00596673
0.00158468
-0.000381599
0.00601702
0.00153902
-0.000481107
0.00604789
0.0014666
-0.00100415
0.00681716
0.00140455
-0.00110501
0.00701517
0.001307
-0.000947204
0.00683663
0.00138443
-0.000883915
0.00661166
0.00131483
-0.000692431
0.00689997
0.00117566
-0.000290267
0.00653114
0.00128746
-0.000449736
0.00578861
0.0012806
-0.000383777
0.00607893
0.00124532
-0.000275522
0.00573789
0.00127598
-0.00114828
0.00627842
0.00123012
-0.000879387
0.00649695
0.00112408
-0.000664745
0.00644708
0.00112568
-0.000639002
0.00649479
0.00114337
-0.000322413
0.00650912
0.00109558
-0.000309374
0.00618586
0.00110908
-0.000407627
0.00617503
0.00109901
-6.5984e-05
0.00607347
0.00108562
-0.000203453
0.00545928
0.0010157
-0.000294935
0.00523873
0.000905934
-0.00110658
0.00604223
0.00084983
-0.000786425
0.00636607
0.0008171
-0.000595025
0.00696444
0.000797204
-0.0005995
0.00701357
0.000776406
-0.000263803
0.00698807
0.000737589
-0.000187332
0.00675953
0.000632102
-0.000192828
0.0065683
0.000771851
-0.000197334
0.00604629
0.000715575
-0.000192645
0.00608794
0.000572845
-0.000185899
0.00582638
0.000407871
-0.000130167
0.00585345
0.000418893
-0.000812341
0.00674981
0.000146651
-0.000457371
0.00749772
0.00018804
-0.00040073
0.00725914
0.000320507
-0.000332836
0.007002
0.000372204
-0.000150524
0.00629735
0.000418714
-9.52549e-05
0.0058522
0.000428987
-8.56468e-05
0.00554358
0.000475069
-0.00022591
0.00517777
0.000496105
-0.000186952
0.00490248
0.000414395
-0.000127443
0.00434355
0.000335626
-0.000198519
0.00389242
0.000320714
-0.000286526
0.00298671
0.000166218
-0.000429531
0.00613921
3.05456e-05
-0.000181356
0.00515512
0.000125001
-0.000149913
0.00371872
0.000270364
-7.18179e-06
0.0034903
0.000374303
-0.000147419
0.00313133
0.00046872
-0.00017739
0.00306639
0.000489543
-0.000283596
0.00349002
0.000510039
-0.000297675
0.00387608
0.000478152
-0.000340489
0.00378504
0.000418269
-0.00030037
0.00351881
0.000313753
-0.000457812
0.00233903
0.000112792
-0.000295193
0.00229346
-6.69789e-06
-0.000144647
0.0021022
-5.54988e-05
-0.000244377
0.00305302
0.000210794
-5.0858e-05
0.00116243
0.000175858
-7.49001e-05
0.001301
0.000103024
-0.000119227
0.0021035
0.000135412
-0.000211204
0.00252477
0.000179798
-0.000246346
0.00309522
0.000201743
-0.000287031
0.00324998
0.000194227
-0.000282594
0.00323164
0.000171694
-0.000302772
0.00304994
0.000127792
-0.000315163
0.00234412
0.000109941
-0.000378436
0.00293715
2.27343e-05
-0.000278636
0.00188241
-3.77542e-05
-0.000261086
0.00179896
-4.119e-05
-0.000276804
0.00124412
-9.38164e-05
-0.000106229
0.000265527
3.9989e-05
-3.0534e-05
0.000958989
6.32456e-06
-5.55647e-05
0.0015749
-2.31738e-05
-9.89269e-05
0.00148734
-5.55375e-05
-0.00012368
0.00132161
-7.46796e-05
-0.000116072
0.00167993
-7.93906e-05
-0.000162214
0.00157945
-8.02365e-05
-0.000165581
0.00141349
-7.93201e-05
-0.00019005
0.000944371
-5.64723e-05
-0.00021818
0.000555679
-2.24558e-05
-0.000216827
0.00201804
-1.86977e-05
-0.000187235
0.00160796
-2.65312e-05
-0.000163974
0.00141712
-2.54695e-05
-0.000160939
0.000427689
-3.65525e-05
-0.00011764
0.001126
-1.02667e-05
-0.000622566
0.00427804
0.00423434
-0.000749483
0.0048387
0.00417415
-0.00043398
0.00488522
0.00433849
-0.000798794
0.00511853
0.0039902
-0.000534516
0.00516491
0.00400373
-0.000944441
0.00502572
0.00393886
-0.000699858
0.00501114
0.00402262
-0.000486726
0.00495822
0.0040069
-0.000914009
0.00540642
0.00364483
-0.000535416
0.00532145
0.00366494
-0.000408018
0.00538744
0.00362567
-0.000376004
0.00545874
0.00355447
-0.000758948
0.00535521
0.00347403
-0.000718663
0.00531559
0.0034432
-0.000588591
0.00542744
0.00331502
-0.000392868
0.00546791
0.00322601
-0.000996022
0.00579444
0.00311935
-0.000831107
0.00612528
0.00298314
-0.000591159
0.0062194
0.00293108
-0.00056584
0.00584018
0.00296961
-0.000534636
0.00532268
0.00299967
-0.000672329
0.0060974
0.00299471
-0.000725659
0.00598762
0.00294144
-0.000711586
0.00574669
0.00284677
-0.000490006
0.00550782
0.0027827
-0.000385925
0.0052282
0.00274536
-0.000548106
0.00509757
0.00269774
-0.000706133
0.00598635
0.00264561
-0.000722149
0.00587788
0.0026246
-0.000897714
0.00565982
0.00255997
-0.000594808
0.00567317
0.00246646
-0.000423373
0.00557579
0.00236024
-0.00066289
0.00548448
0.00233721
-0.000557386
0.00534854
0.00235993
-0.00089094
0.00597055
0.0023405
-0.000914673
0.00545552
0.00224338
-0.00096903
0.00563446
0.00220823
-0.000818087
0.00575586
0.00214531
-0.000564364
0.00566593
0.00200328
-0.000510136
0.00556583
0.00197679
-0.000489635
0.00573088
0.00195472
-0.000446228
0.00569377
0.00192569
-0.000907253
0.00655178
0.00177252
-0.0010949
0.00618979
0.00175726
-0.00101987
0.00611452
0.0015904
-0.000864955
0.00638894
0.00158354
-0.000574437
0.00633306
0.00158148
-0.000310214
0.00592142
0.00162537
-0.000376364
0.00610271
0.00142563
-0.000243611
0.00601614
0.0014306
-0.000216312
0.00584384
0.00140565
-0.000899993
0.00669539
0.00142796
-0.00072233
0.00689757
0.00136509
-0.000680351
0.0068172
0.00134204
-0.00026073
0.00631373
0.00130408
-0.00010824
0.00675636
0.00124427
-0.000186249
0.00626087
0.00132281
-0.000349947
0.00581437
0.00120401
-0.000170799
0.0061991
0.00126525
-0.000110448
0.00560011
0.00129009
-0.000204748
0.00539631
0.00116321
-0.00104638
0.00636308
0.00126044
-0.000735464
0.00650282
0.00117328
-0.000656979
0.00644682
0.0011863
-0.000637781
0.00654604
0.0011127
-0.000379616
0.00665124
0.00111707
-0.000230397
0.00622863
0.00109589
-0.000227393
0.00620116
0.00111752
-7.02661e-05
0.00597741
0.001068
-9.75206e-05
0.00546531
0.000984475
-0.000260537
0.0054257
0.000903368
-9.8405e-05
0.0055593
0.000810464
-0.00100046
0.00627087
0.000849011
-0.000730535
0.00666148
0.000827578
-0.000504268
0.00709964
0.000785436
-0.000431776
0.00714248
0.000767233
-0.000189997
0.00707604
0.000727915
-0.00010997
0.0068332
0.000678641
-8.84864e-05
0.00657755
0.000625693
-0.0001537
0.00611009
0.000635843
-0.000163759
0.00625866
0.000521657
1.12653e-05
0.00581346
0.000447059
2.15999e-05
0.00568143
0.000359769
-5.69523e-05
0.00374102
0.00025402
-0.000725123
0.00689509
0.000142419
-0.000338594
0.00759136
0.000210249
-0.000341001
0.00736308
0.000275191
-3.1334e-05
0.00698772
0.000358944
-6.53611e-05
0.00618064
0.000406856
-8.052e-05
0.00571917
0.000454872
-9.66421e-05
0.00529085
0.000494771
-0.000208357
0.00504714
0.000516382
-0.000157516
0.00477257
0.000443043
-8.14162e-05
0.00416825
0.000370738
-0.000255469
0.00374248
0.000283223
-0.000195679
0.00307816
0.000129755
0.000106067
0.00223211
-8.33837e-05
-0.000377191
0.00623338
1.41925e-05
-0.000156152
0.00517113
0.000119831
-8.63895e-05
0.00357982
0.000275391
1.39073e-05
0.00325542
0.000372111
-1.93413e-05
0.0028469
0.000466869
-0.000213877
0.0030147
0.000487935
-0.000305083
0.00350705
0.000490564
-0.000279452
0.00390088
0.0004821
-0.000316688
0.00384589
0.000431217
-0.000320546
0.00364006
0.000302404
-0.000433587
0.00262769
8.0242e-05
-0.000230631
0.0023951
-3.68566e-05
-0.000179508
0.0020639
-4.99756e-05
-0.000211807
0.0018151
-0.000108428
-0.000201921
0.00312546
0.000217281
-4.50249e-05
0.00120193
0.00018579
-2.59717e-05
0.00133508
0.00011218
-0.000108492
0.00207925
0.00013684
-0.000208335
0.00256797
0.000176864
-0.000246573
0.00320665
0.000198867
-0.000250726
0.00335211
0.000188129
-0.000276528
0.00337261
0.000164205
-0.000297002
0.0032141
0.00011449
-0.000310878
0.00247191
9.27014e-05
-0.000354211
0.00317539
9.08473e-06
-0.000264143
0.00202387
-4.18189e-05
-0.00026071
0.00189443
-3.64946e-05
-0.000269541
0.00139897
-8.74414e-05
-0.00031777
0.00116358
-2.90911e-05
-0.000101013
0.000379843
4.08022e-05
-2.75752e-05
0.00102016
6.39385e-06
-4.98761e-05
0.00165513
-2.40312e-05
-9.3305e-05
0.00161184
-5.43719e-05
-0.0001213
0.00146333
-7.59625e-05
-0.000115725
0.00180188
-8.0906e-05
-0.000156543
0.00173705
-8.04432e-05
-0.000160109
0.00157202
-7.86541e-05
-0.000186464
0.00110741
-5.58923e-05
-0.00021348
0.000735118
-2.24311e-05
-0.000203418
0.00222102
-2.20252e-05
-0.000180301
0.00179716
-2.75953e-05
-0.000161353
0.00157808
-2.61441e-05
-0.000159516
0.000597841
-3.61058e-05
-0.000113613
0.00121381
-1.07427e-05