/*--------------------------------*- C++ -*----------------------------------*\
  =========                 |
  \\      /  F ield         | OpenFOAM: The Open Source CFD Toolbox
   \\    /   O peration     | Website:  https://openfoam.org
    \\  /    A nd           | Version:  7
     \\/     M anipulation  |
\*---------------------------------------------------------------------------*/
FoamFile
{
    version     2.0;
    format      ascii;
    class       surfaceScalarField;
    location    "6.5";
    object      phi_0;
}
// * * * * * * * * * * * * * * * * * * * * * * * * * * * * * * * * * * * * * //

dimensions      [0 3 -1 0 0 0 0];

internalField   nonuniform List<scalar> 
53739
(
-7.81436e-05
-0.00145554
2.75486e-05
-0.000317412
0.000401093
0.000137397
-8.33837e-05
-0.00135475
2.79953e-05
-5.38031e-05
3.33552e-05
3.79585e-07
-0.000620515
0.00313084
5.32353e-06
-0.000311602
0.000656414
0.000138178
-0.000143838
7.60714e-05
7.54946e-05
-8.90154e-05
-0.00124768
2.85724e-05
-5.26669e-05
0.000113629
3.88858e-07
-9.53261e-05
0.000238121
-3.3109e-05
-0.000987349
0.00382263
-5.99848e-05
-0.00064802
0.00353545
-9.91389e-06
-0.00056609
0.00348627
0.000123676
-0.000348903
0.000940738
0.000140911
-0.000131386
0.000214165
7.88032e-05
-0.000227802
0.000336907
9.70551e-05
-9.28993e-05
-0.00113643
2.92321e-05
-5.21088e-05
0.00019374
5.69701e-07
-9.55993e-05
0.000368538
-3.44281e-05
-0.000121806
-3.93473e-05
-5.63051e-05
-0.0014751
0.00296702
0.000676322
-0.0010684
0.0040749
-5.6419e-06
-0.00107974
0.00453518
0.000104065
-0.000716611
0.00396071
1.17116e-06
-0.000549218
0.00376824
0.000125953
-0.000525264
0.00341026
0.000239294
-0.000296302
0.00116399
0.000141807
-0.000119895
0.000339068
8.37947e-05
-0.000220418
0.000444353
9.61758e-05
-0.000309745
0.00199676
0.000169071
-0.000100741
-0.00101689
3.00774e-05
-5.12034e-05
0.00027338
7.95782e-07
-9.4727e-05
0.000498886
-3.50513e-05
-0.000120216
0.000103959
-5.75193e-05
-0.000130408
-7.48205e-05
-5.79544e-05
-0.00178715
0.00502848
0.00103752
-0.00143261
0.00320225
0.000698247
-0.00147087
0.00373499
0.000682379
-0.00110423
0.00432132
-5.8251e-06
-0.00106896
0.00492652
0.000122768
-0.000905405
0.00587291
0.000259274
-0.000649432
0.00431529
-4.17054e-05
-0.000507514
0.00403483
0.000122193
-0.000491215
0.0035726
0.000234416
-0.000569482
0.00367881
0.000359868
-0.000342193
0.00142671
0.000145139
-0.000112128
0.000451112
9.06877e-05
-0.000210643
0.000547195
9.68688e-05
-0.000284071
0.00208765
0.000169141
-0.000312209
0.00174592
0.000189359
-0.000102959
-0.000895494
3.13996e-05
-4.99367e-05
0.000351796
1.59821e-06
-9.24801e-05
0.000627062
-3.49e-05
-0.000118929
0.000246334
-5.84971e-05
-0.000132448
5.91999e-05
-5.90914e-05
-0.000138068
0.000454826
-6.60295e-05
-0.00186172
0.00574419
0.00157954
-0.00158663
0.00523967
0.0010452
-0.00165199
0.00540568
0.00100133
-0.0014552
0.00342497
0.000756577
-0.00143288
0.00407788
0.000719269
-0.00120843
0.00535677
0.000729824
-0.00113373
0.00463026
3.81914e-05
-0.0010067
0.00527867
0.000141206
-0.000839671
0.00605863
0.000285506
-0.000892361
0.00562851
0.000418514
-0.000681797
0.00463988
-4.24646e-05
-0.000504551
0.00426784
0.00011771
-0.000462583
0.00369161
0.000255123
-0.000507726
0.00378584
0.000351045
-0.000492162
0.00360459
0.000427535
-0.000285508
0.0016294
0.000153049
-0.000106435
0.000555266
9.74827e-05
-0.000194021
0.000643127
9.6297e-05
-0.000247103
0.00214336
0.000169325
-0.000309524
0.00190279
0.000189345
-0.000318817
0.00223841
0.000208089
-0.000109168
-0.000767793
3.23038e-05
-4.77932e-05
0.000428551
2.43698e-06
-9.03277e-05
0.00075292
-3.39323e-05
-0.000117936
0.000388447
-5.90759e-05
-0.000133759
0.000194822
-6.03599e-05
-0.000135358
0.000599715
-6.86226e-05
-0.000174018
0.000200878
-7.36812e-05
-0.00184766
0.00587869
0.00226571
-0.00160317
0.0059111
0.00156199
-0.0015671
0.00596906
0.00144285
-0.00161255
0.00547541
0.00105444
-0.00159445
0.0056109
0.00100155
-0.00152169
0.00557311
0.00101134
-0.00142569
0.00365892
0.000767337
-0.00136852
0.00442267
0.000773612
-0.00111829
0.00559329
0.00076137
-0.00104477
0.00557781
0.000760636
-0.00109687
0.00488907
3.75046e-05
-0.00101432
0.00566072
0.000165917
-0.00082472
0.00626189
0.000300082
-0.00081357
0.00579985
0.000420013
-0.000707547
0.00586056
0.000452617
-0.000609113
0.0049334
-6.43633e-05
-0.00045619
0.00446261
0.000112526
-0.000422995
0.00378999
0.000248298
-0.000442359
0.0038638
0.000372422
-0.000481684
0.0037028
0.000424998
-0.000419722
0.0034785
0.00048578
-0.000301487
0.00184352
0.000158279
-9.81247e-05
0.000653878
0.000104768
-0.000182469
0.000739917
9.28336e-05
-0.000228703
0.00218346
0.000166963
-0.000281626
0.00203379
0.000186197
-0.000301361
0.00238417
0.000209584
-0.000336551
0.00234056
0.000204257
-0.000112224
-0.00063646
3.32676e-05
-4.65038e-05
0.000503972
3.38676e-06
-8.69719e-05
0.000875151
-3.2822e-05
-0.000115729
0.00052968
-5.94366e-05
-0.000132925
0.000330887
-6.22162e-05
-0.000134626
0.000745066
-7.10842e-05
-0.000174335
0.000382052
-7.54612e-05
-0.00017274
0.000248595
-7.46667e-05
-0.00142144
0.00613406
0.00257579
-0.00176718
0.00627193
0.00215814
-0.00115411
0.00629478
0.00189506
-0.001663
0.00611618
0.00152285
-0.00153115
0.00606394
0.00140382
-0.00162851
0.00599684
0.00133795
-0.00150181
0.00562762
0.00107218
-0.00153902
0.00582603
0.00100979
-0.001424
0.00584491
0.00103546
-0.00115155
0.00604678
0.00104558
-0.00142721
0.0039991
0.000788699
-0.00133237
0.00472966
0.000778396
-0.0011135
0.00587963
0.000776048
-0.00099298
0.0057418
0.000776788
-0.000869001
0.0062294
0.000749887
-0.00112269
0.00522845
4.87829e-05
-0.000937052
0.00601612
0.000162964
-0.000757649
0.00645302
0.000309433
-0.000771027
0.00601678
0.00041182
-0.00066148
0.00600821
0.00045215
-0.00051207
0.00588614
0.000469468
-0.00060081
0.00517483
-6.24566e-05
-0.00042964
0.00462779
0.000101964
-0.00039342
0.00386907
0.000244403
-0.000390999
0.00391703
0.000357355
-0.000394506
0.00375059
0.000437511
-0.00038961
0.0034944
0.000497348
-0.000427595
0.00343941
0.000513792
-0.000307124
0.00205565
0.000167042
-9.58901e-05
0.000748946
0.000112598
-0.000152492
0.000817648
9.25573e-05
-0.000217046
0.00221701
0.000160607
-0.000266903
0.00214896
0.000185766
-0.000288235
0.00251926
0.000204717
-0.000346742
0.0025167
0.000205847
-0.000369334
0.00220772
0.000182776
-0.000115522
-0.000502259
3.42212e-05
-4.41915e-05
0.000576953
4.47834e-06
-8.38536e-05
0.000992283
-2.98924e-05
-0.000117768
0.000673831
-5.92045e-05
-0.000133902
0.000469698
-6.43455e-05
-0.000132699
0.000888496
-7.29478e-05
-0.000172209
0.000560319
-7.71424e-05
-0.000172162
0.000420534
-7.52378e-05
-0.000187127
-6.43537e-05
-6.16106e-05
-0.0010259
0.00686662
0.00259125
-0.00165414
0.00638142
0.00240009
-0.00108287
0.00628677
0.00234216
-0.00161543
0.00646672
0.00201132
-0.00135061
0.00638675
0.00188562
-0.00138806
0.00591339
0.00167074
-0.00160989
0.00640945
0.00150271
-0.00156907
0.00623105
0.00138579
-0.00159105
0.00622582
0.00134189
-0.00127257
0.00630882
0.00131261
-0.00139782
0.00572461
0.00108456
-0.00144953
0.0059809
0.00103449
-0.00134894
0.00602268
0.00106746
-0.00111318
0.00613482
0.00106762
-0.000991406
0.0061849
0.00104023
-0.00145581
0.00435866
0.00078706
-0.00126631
0.00505761
0.000790007
-0.0010108
0.00610673
0.00080445
-0.000941768
0.00591102
0.000777565
-0.000756464
0.00634105
0.000760124
-0.000651165
0.00640512
0.000768226
-0.00111052
0.00560323
4.9298e-05
-0.000886999
0.00634322
0.000179044
-0.000701807
0.00660287
0.0003215
-0.00067939
0.00621416
0.000400435
-0.000581958
0.00616341
0.000444077
-0.000470719
0.00597131
0.000448092
-0.000534187
0.0058334
0.000435229
-0.000583079
0.00539675
-5.1018e-05
-0.000393341
0.00476195
0.000100836
-0.000331859
0.00390933
0.000241073
-0.000368541
0.00396217
0.000350763
-0.000361451
0.00376248
0.000440017
-0.0003525
0.00348836
0.000507823
-0.000428485
0.00350543
0.000513064
-0.000464847
0.00354474
0.000477849
-0.000293595
0.00225151
0.000173685
-9.21443e-05
0.000842786
0.000121154
-0.000142707
0.000904914
8.41862e-05
-0.000185097
0.00221896
0.000157936
-0.000248271
0.00223952
0.000184419
-0.000267078
0.00263354
0.000205863
-0.000279502
0.00262953
0.00019918
-0.000351385
0.00241307
0.000179722
-0.000385761
0.0021484
0.000166141
-0.00011659
-0.000367365
3.522e-05
-4.14117e-05
0.000648311
4.27525e-06
-7.9952e-05
0.0011035
-2.67869e-05
-0.000107306
0.000808835
-5.75908e-05
-0.000132416
0.000609074
-6.61652e-05
-0.00012971
0.00102865
-7.47869e-05
-0.000169722
0.000735496
-7.84033e-05
-0.000172186
0.000591503
-7.59246e-05
-0.000188219
0.000109339
-6.07113e-05
-0.000221004
-0.000366314
-2.78728e-05
-0.00125514
0.00644521
0.00314239
-0.0011126
0.00652913
0.00265124
-0.0012879
0.00642658
0.00243162
-0.00150943
0.00651406
0.00234365
-0.00124383
0.00633976
0.00224032
-0.00114065
0.00619696
0.00202942
-0.00152034
0.00660526
0.00195792
-0.00136355
0.00635329
0.00183927
-0.00134026
0.00583169
0.00171653
-0.00123422
0.00593112
0.00158965
-0.00131803
0.00657388
0.00147431
-0.00151107
0.00642494
0.00137036
-0.00144525
0.00636853
0.0013394
-0.00117562
0.0063757
0.00133746
-0.000973452
0.0064129
0.00117455
-0.00147107
0.00581642
0.00105442
-0.00135963
0.00611937
0.0010394
-0.00122175
0.00619031
0.00107781
-0.00102411
0.00620501
0.0010796
-0.000887441
0.0063017
0.0010818
-0.000719392
0.00618149
0.00108604
-0.00146122
0.00476146
0.000794406
-0.00120046
0.00537941
0.000778718
-0.000936417
0.00632409
0.000807256
-0.000874999
0.00612733
0.000783753
-0.00069258
0.00649113
0.000738105
-0.000593301
0.0065078
0.00078002
-0.000619947
0.00625986
0.000771442
-0.00102124
0.00589734
7.15624e-05
-0.000801741
0.00661296
0.000187956
-0.000649365
0.00677379
0.000325634
-0.000622851
0.00638412
0.000405858
-0.000508296
0.00627115
0.000439543
-0.000385475
0.00600916
0.000439201
-0.000440348
0.00587594
0.000417414
-0.000423506
0.00557992
0.00041589
-0.000556407
0.00559757
-3.42371e-05
-0.000382073
0.00489683
0.000104032
-0.000287813
0.00390243
0.000252834
-0.000259423
0.00393052
0.000347049
-0.000303959
0.0037225
0.000446422
-0.000275563
0.00342457
0.000512294
-0.000306986
0.00351976
0.000520981
-0.000414782
0.00364667
0.000474532
-0.000464002
0.0033746
0.000406591
-0.000290357
0.00244086
0.000182467
-7.63228e-05
0.000920716
0.000130667
-0.000127229
0.000993289
8.00558e-05
-0.000152745
0.0022027
0.000145885
-0.000230495
0.00231108
0.000184453
-0.000257841
0.0027417
0.000204391
-0.000298796
0.00275328
0.000211192
-0.000323888
0.00258911
0.000174844
-0.000367008
0.00234997
0.000156942
-0.000355753
0.00182692
0.000135334
-0.000118108
-0.000231494
3.6193e-05
-3.89654e-05
0.000717561
4.93562e-06
-7.58975e-05
0.00121091
-2.72316e-05
-0.000113249
0.000950586
-5.52896e-05
-0.000131153
0.000750791
-6.81551e-05
-0.000127663
0.00116649
-7.63437e-05
-0.000171064
0.000911146
-7.93733e-05
-0.000164519
0.0007539
-7.62809e-05
-0.000187984
0.000280859
-5.946e-05
-0.000221028
-0.000178829
-2.7168e-05
-0.000255648
0.00112141
-1.60537e-05
-0.00126717
0.00596741
0.00317253
-0.000997522
0.00636507
0.00309116
-0.0011586
0.00609985
0.00298941
-0.00119415
0.00647655
0.00253381
-0.00108773
0.00649708
0.00242464
-0.000932667
0.00634121
0.00223745
-0.00134088
0.00644891
0.00238784
-0.00113906
0.00624153
0.0022174
-0.00108188
0.0061399
0.00203899
-0.00106059
0.00599814
0.00189674
-0.00133002
0.00682464
0.0018964
-0.00126717
0.006316
0.0017513
-0.00138828
0.00588905
0.00172493
-0.00112308
0.00595367
0.00164144
-0.000884692
0.00626569
0.0015242
-0.00140454
0.00669149
0.00141497
-0.00140605
0.00662272
0.00132295
-0.00135911
0.00651847
0.00135778
-0.00107193
0.0064488
0.00131412
-0.000904614
0.00656426
0.00120327
-0.000790339
0.00660315
0.00120862
-0.00148422
0.00594273
0.00112613
-0.00129306
0.00620848
0.00105792
-0.00112954
0.00632348
0.00109935
-0.000989466
0.00631472
0.00108257
-0.000780308
0.00638442
0.00108461
-0.000671776
0.00621109
0.00113067
-0.000536822
0.00591578
0.00106573
-0.00133266
0.00511546
0.000825261
-0.00110822
0.00567876
0.000801539
-0.000850161
0.00652643
0.000777177
-0.000819783
0.00634738
0.000784135
-0.000598735
0.00661429
0.000751033
-0.000420915
0.00650819
0.000773155
-0.000570683
0.00638771
0.000782503
-0.000444069
0.0061504
0.00072048
-0.000970863
0.00614424
0.000122406
-0.000736439
0.00684254
0.000196351
-0.000576688
0.0069164
0.000334224
-0.000525601
0.00657121
0.000404721
-0.000424632
0.00633566
0.000462015
-0.000294064
0.00603328
0.000433918
-0.000355881
0.00591862
0.000445413
-0.000322237
0.0054753
0.00042949
-0.000421617
0.00504915
0.000346182
-0.000530951
0.00574751
-1.07692e-05
-0.000333608
0.00501003
0.000109848
-0.000257846
0.00388143
0.000255655
-0.000211613
0.00387897
0.000363252
-0.000223042
0.00360722
0.000454876
-0.000296389
0.00340074
0.000508801
-0.000317077
0.00351921
0.000531122
-0.000349234
0.0037106
0.000482397
-0.00042904
0.00351155
0.000399613
-0.000358719
0.00326797
0.000336011
-0.000287966
0.00261817
0.000189706
-7.68694e-05
0.00100007
0.000141015
-0.000117281
0.00107901
8.63291e-05
-0.00014344
0.00217588
0.000137058
-0.000243753
0.00238638
0.000183189
-0.000240475
0.00283544
0.000203523
-0.000305766
0.00289655
0.000195823
-0.000299688
0.00275205
0.000183411
-0.000344627
0.00253045
0.000151002
-0.00033853
0.00196467
0.000136702
-0.000442792
0.00218082
4.24007e-05
-0.000117885
-9.63917e-05
3.71884e-05
-3.58779e-05
0.000784131
5.50047e-06
-7.14368e-05
0.00131281
-2.55314e-05
-0.000111127
0.00108996
-5.54783e-05
-0.000129645
0.000894378
-6.92314e-05
-0.000124795
0.0013004
-7.72745e-05
-0.000169895
0.00108503
-8.03283e-05
-0.000172483
0.000924105
-7.7096e-05
-0.000189591
0.000450919
-5.675e-05
-0.000221091
8.8086e-06
-2.60074e-05
-0.000245532
0.00135668
-1.69063e-05
-0.000200718
0.00101779
-2.39381e-05
-0.000833621
0.00534962
0.00373618
-0.00114523
0.00559941
0.0035837
-0.000743122
0.00578699
0.00315513
-0.000940644
0.00588955
0.00303744
-0.00100985
0.0062175
0.0031013
-0.000970258
0.00612265
0.00295089
-0.000783
0.00602424
0.00282769
-0.00126803
0.00661718
0.00241801
-0.000981897
0.00646716
0.00240656
-0.000917773
0.00628415
0.0023176
-0.000833205
0.00626982
0.00212369
-0.00129905
0.00650171
0.00233289
-0.00103489
0.00613454
0.00226255
-0.00104405
0.00594686
0.00206622
-0.00102137
0.00599687
0.00193856
-0.000842622
0.00582888
0.00191351
-0.00125437
0.00682955
0.00177503
-0.00123672
0.00627588
0.0017672
-0.00136214
0.00592667
0.00171672
-0.00107839
0.00601121
0.00167385
-0.000860018
0.00626977
0.00159277
-0.00077696
0.00601768
0.00152218
-0.00134848
0.00675044
0.00140817
-0.00141464
0.00679663
0.00136264
-0.00128046
0.00663353
0.00135881
-0.000985065
0.00643848
0.0013637
-0.000777083
0.006666
0.00120915
-0.000771259
0.00663869
0.00126721
-0.000464175
0.00604653
0.00125458
-0.00135722
0.00609979
0.00116218
-0.00117259
0.00632483
0.00107415
-0.00100291
0.00644445
0.00108969
-0.000911616
0.00640864
0.00109726
-0.000658337
0.00643713
0.00108946
-0.000508683
0.00626843
0.00111505
-0.000557528
0.00597205
0.00106125
-0.000472892
0.00609923
0.00105554
-0.00124308
0.00547425
0.000850524
-0.000978479
0.00591884
0.000827216
-0.000739869
0.00665403
0.000837124
-0.000719261
0.00653689
0.000781326
-0.000490355
0.00670641
0.000757746
-0.000344646
0.00654462
0.000765189
-0.000481421
0.00648467
0.000801735
-0.000288314
0.00616195
0.000737025
-0.00039938
0.00592584
0.00063441
-0.000903976
0.00635538
0.000139795
-0.000676832
0.00709792
0.000210253
-0.000525068
0.00704754
0.000332431
-0.000370557
0.00668474
0.000379641
-0.000300125
0.00638751
0.000429959
-0.000283333
0.00601997
0.00046227
-0.000252082
0.00583791
0.000449635
-0.000292702
0.00540052
0.000463653
-0.000363522
0.00503053
0.000382594
-0.000293274
0.00448565
0.000302919
-0.000503549
0.00590685
-1.49029e-05
-0.000302622
0.00510494
0.000120075
-0.000229539
0.00383931
0.000264228
-0.000133161
0.00379861
0.000325742
-0.000209515
0.00345955
0.000476682
-0.000137842
0.00323885
0.000514126
-0.000316555
0.00352453
0.000514271
-0.00033859
0.0037953
0.000485326
-0.000395291
0.00362992
0.000414687
-0.00033261
0.00334903
0.000312625
-0.000514134
0.00184015
0.000173203
-0.000266469
0.00277561
0.000198683
-5.03272e-05
0.00105171
0.000152522
-9.80615e-05
0.00116277
8.38815e-05
-0.000129438
0.00214347
0.000137054
-0.000216767
0.00243192
0.000178638
-0.000229646
0.00291479
0.000208691
-0.00027641
0.0030123
0.000194284
-0.000320254
0.00292223
0.000173414
-0.000324917
0.00270903
0.000140163
-0.000320915
0.00208612
0.000129369
-0.000422077
0.00245112
4.29558e-05
-0.000320268
0.0015612
-2.63231e-05
-0.000115223
3.49007e-05
3.81336e-05
-3.35363e-05
0.000848968
5.88721e-06
-6.63455e-05
0.0014083
-2.36447e-05
-0.00010416
0.00122387
-5.52803e-05
-0.000129931
0.00103928
-7.04483e-05
-0.000123585
0.00143264
-7.78828e-05
-0.000162697
0.00125072
-8.02735e-05
-0.000168899
0.00109065
-7.79729e-05
-0.00018743
0.00061664
-5.53866e-05
-0.000220151
0.000194639
-2.24293e-05
-0.000234851
0.00158401
-1.84872e-05
-0.000196642
0.00122199
-2.44694e-05
-0.000167573
0.00108912
-2.65756e-05
-0.000669958
0.00521163
0.00400656
-0.00094103
0.00520998
0.00365655
-0.000701349
0.00532618
0.00362948
-0.000714849
0.00562957
0.0035569
-0.000701833
0.00552793
0.00350272
-0.000979979
0.00580459
0.00312799
-0.000815849
0.0059007
0.00298957
-0.000684091
0.00610847
0.00292318
-0.00121626
0.00622854
0.0030583
-0.000867427
0.00612241
0.00298707
-0.000673352
0.00587614
0.00285456
-0.000682211
0.00581802
0.00275248
-0.00106932
0.00630313
0.00248228
-0.000970526
0.00634845
0.00247237
-0.000787303
0.00605594
0.00237802
-0.000784983
0.00610378
0.00224725
-0.000731206
0.00604492
0.00216772
-0.00100822
0.00637604
0.00222601
-0.00103549
0.0060363
0.0022299
-0.00113237
0.00592004
0.00205959
-0.000913786
0.00590063
0.00199785
-0.000820115
0.00580363
0.00192391
-0.000709731
0.00564031
0.00190431
-0.0010701
0.00680012
0.00176237
-0.00135724
0.00624543
0.00174808
-0.00125662
0.00590764
0.0017624
-0.00098479
0.00609873
0.00162892
-0.000761477
0.00632991
0.0015981
-0.000744566
0.00599078
0.00159297
-0.000460974
0.00599127
0.00154746
-0.00113169
0.00679218
0.00137497
-0.00126749
0.00690072
0.00139899
-0.00113425
0.00670459
0.00142292
-0.00081531
0.00643155
0.00126942
-0.000615421
0.00677675
0.00121003
-0.00058551
0.00661343
0.00131124
-0.000406505
0.00586516
0.00129756
-0.000510343
0.00599773
0.00120957
-0.00116502
0.00616145
0.00121871
-0.00103555
0.00643118
0.0011129
-0.000814798
0.00646787
0.00112566
-0.000797502
0.0064848
0.00109177
-0.000645069
0.00659806
0.00109105
-0.000295291
0.00617427
0.00113427
-0.000557422
0.00608593
0.00107716
-0.000334005
0.00615369
0.00105249
-0.000320506
0.00551858
0.00100374
-0.00116499
0.00578251
0.000842049
-0.000897906
0.00615943
0.000831012
-0.000665331
0.00682535
0.000796159
-0.000595028
0.00677211
0.000826377
-0.000390704
0.0068255
0.000752811
-0.000275488
0.00651252
0.000782003
-0.000329488
0.00655557
0.000771697
-0.000126423
0.00603922
0.000758186
-0.000297217
0.006014
0.00058256
-0.000314211
0.00570846
0.000496614
-0.00085637
0.00655019
0.000161985
-0.000562458
0.00730116
0.000196391
-0.000459417
0.0071676
0.000320074
-0.000351729
0.00685418
0.000381551
-0.000166051
0.00631606
0.000407623
-3.80423e-05
0.00593242
0.000417708
-0.000183577
0.00569785
0.000469357
-0.000253378
0.00529613
0.000468812
-0.000287752
0.00498373
0.000402906
-0.000222725
0.00443493
0.000323436
-0.000261106
0.00414594
0.000358265
-0.000459785
0.00604184
-3.52565e-06
-0.000204861
0.00513437
0.000110202
-0.0001838
0.00378262
0.000262498
-0.000114018
0.00368193
0.000365487
-0.000154111
0.00328854
0.000434102
-0.000181722
0.00315286
0.000514754
-0.000219471
0.00346867
0.00051305
-0.000336434
0.00384482
0.000480928
-0.00033486
0.00370041
0.00042478
-0.000298941
0.00342254
0.000319203
-0.000499691
0.00209071
0.000139674
-0.000351132
0.00215845
2.28001e-05
-0.00025669
0.002914
0.000207189
-5.90651e-05
0.00111172
0.000164199
-8.27318e-05
0.00123591
9.57622e-05
-0.000130459
0.00212588
0.000127777
-0.000228312
0.0024893
0.000178053
-0.000226368
0.00299649
0.000199724
-0.000262506
0.00312121
0.000199589
-0.000295226
0.0030717
0.000171149
-0.000310581
0.00287248
0.000133113
-0.000313314
0.00219855
0.000120897
-0.000391057
0.00270598
3.07058e-05
-0.000297167
0.00173381
-2.91298e-05
-0.000262389
0.00169304
-4.80617e-05
-0.000110833
0.000160602
3.90782e-05
-3.17857e-05
0.000912756
6.13144e-06
-6.10139e-05
0.00149893
-2.37329e-05
-0.000104293
0.00135901
-5.4498e-05
-0.000127804
0.00118413
-7.23242e-05
-0.000118663
0.00155952
-7.86609e-05
-0.000166948
0.00141982
-8.00291e-05
-0.000166725
0.00125563
-7.85262e-05
-0.000188315
0.000782068
-5.50858e-05
-0.000218396
0.000378482
-2.08329e-05
-0.000226392
0.00180597
-1.79973e-05
-0.000191599
0.00142069
-2.55907e-05
-0.000165965
0.00125674
-2.61215e-05
-0.000163314
0.000267062
-3.67427e-05
-0.000663998
0.00483989
0.00426294
-0.000686254
0.0052017
0.00401043
-0.000879112
0.00506009
0.00399241
-0.000615784
0.00504017
0.00401101
-0.000918885
0.00538846
0.00366376
-0.000697122
0.00536328
0.00361474
-0.000514015
0.00551352
0.00353841
-0.000891957
0.00558596
0.00349304
-0.000574811
0.0053911
0.00345268
-0.000520889
0.00539763
0.00341364
-0.00105526
0.00572223
0.00312647
-0.000845348
0.00602269
0.00298393
-0.000695522
0.00619615
0.00292407
-0.000596663
0.00581363
0.00292657
-0.000975809
0.00618538
0.00302051
-0.000856995
0.00609732
0.00296986
-0.000622146
0.00580221
0.00289584
-0.000495593
0.00557645
0.00280673
-0.000558417
0.00543179
0.00273515
-0.000796153
0.00607625
0.0026093
-0.00092053
0.00617987
0.00253589
-0.000903202
0.00583287
0.00246627
-0.000682955
0.00593173
0.00231924
-0.000661818
0.005833
0.00230087
-0.000698618
0.00552756
0.00231154
-0.000765346
0.00604784
0.00230746
-0.00102584
0.00571612
0.00221478
-0.00105837
0.0058267
0.002125
-0.000855023
0.00581344
0.00201701
-0.000640692
0.00565492
0.00202577
-0.000668545
0.00557096
0.00191725
-0.000507658
0.00566821
0.00194796
-0.000893424
0.00669667
0.00170936
-0.00125276
0.00624614
0.00174693
-0.00116572
0.00589549
0.0017917
-0.000845295
0.00620774
0.00168337
-0.00056282
0.00634712
0.00155911
-0.000550785
0.00596946
0.0015847
-0.000378789
0.00602131
0.00153522
-0.000475848
0.00605031
0.00146452
-0.000996023
0.0068135
0.00140871
-0.00108408
0.00701815
0.00130607
-0.000926556
0.00683414
0.0013812
-0.000870871
0.00661001
0.00131783
-0.000674213
0.00689961
0.00117571
-0.000275325
0.00651464
0.00128885
-0.000446403
0.00578555
0.00127983
-0.000371927
0.00608488
0.00124834
-0.00026638
0.00572819
0.00127877
-0.00114282
0.00628426
0.00123177
-0.000868579
0.00649273
0.00112783
-0.000660536
0.00644862
0.00112736
-0.000632423
0.00650356
0.0011443
-0.000313434
0.00651384
0.00109872
-0.000307497
0.00618879
0.00110853
-0.00039626
0.00618473
0.00110224
-5.23888e-05
0.00606828
0.00108854
-0.000198569
0.00545694
0.00101547
-0.000290506
0.00525251
0.000904302
-0.00110009
0.00607081
0.000846673
-0.000778629
0.0064039
0.000813746
-0.000590993
0.00699343
0.000794499
-0.000592426
0.00703459
0.000774371
-0.000252918
0.00700368
0.000735061
-0.000180602
0.00678102
0.000626869
-0.000185476
0.00657517
0.000764305
-0.000201699
0.00605136
0.000707876
-0.00019014
0.00610386
0.000570718
-0.000173066
0.00583667
0.000404689
-0.000122786
0.00583996
0.000416705
-0.000805174
0.00677016
0.000141486
-0.000443749
0.00751621
0.000185819
-0.000394491
0.00725744
0.000317235
-0.000304929
0.00699464
0.000370524
-0.000147269
0.00627041
0.000420358
-9.90056e-05
0.00582298
0.000434347
-8.68149e-05
0.00550301
0.000479891
-0.000227013
0.00515519
0.000500885
-0.000182928
0.00488224
0.000418379
-0.000124331
0.00432274
0.000340484
-0.000202567
0.00385315
0.000319107
-0.000280355
0.00298843
0.000163522
-0.000426664
0.00614172
3.49707e-05
-0.000180537
0.00512438
0.000127929
-0.000145335
0.0036823
0.000273131
-6.23757e-06
0.00344353
0.000376677
-0.000141241
0.00309591
0.000471048
-0.000187916
0.00305941
0.000489094
-0.000290553
0.00350237
0.000509095
-0.000296852
0.0038798
0.000479694
-0.000340374
0.00379131
0.000419822
-0.000305621
0.00352564
0.000313987
-0.000456846
0.0023645
0.000111206
-0.000289624
0.0023007
-1.01241e-05
-0.000147409
0.00210044
-5.51981e-05
-0.000242302
0.00302761
0.000212443
-5.10593e-05
0.00116147
0.000176716
-7.2574e-05
0.00130868
0.000102995
-0.000118594
0.00210215
0.000133791
-0.000210485
0.00252328
0.000176483
-0.000244152
0.0031022
0.000197832
-0.000286735
0.003252
0.000188726
-0.000283005
0.00322202
0.000165543
-0.000304337
0.00303819
0.000121462
-0.00031652
0.0023235
0.000106285
-0.000377414
0.00295679
2.11173e-05
-0.000277372
0.00188921
-3.89196e-05
-0.000260873
0.00179992
-4.11032e-05
-0.000277082
0.00124831
-9.39983e-05
-0.000106214
0.000280733
3.99431e-05
-3.08532e-05
0.000976473
6.21526e-06
-5.51992e-05
0.00158366
-2.33916e-05
-9.84353e-05
0.00148866
-5.49462e-05
-0.000123704
0.00132757
-7.42337e-05
-0.00011601
0.0016827
-7.95008e-05
-0.000162281
0.00158342
-7.99808e-05
-0.00016509
0.00141893
-7.82415e-05
-0.000189187
0.000948411
-5.56828e-05
-0.0002171
0.000563157
-2.26602e-05
-0.000214964
0.00201983
-1.97257e-05
-0.000186837
0.00161623
-2.66942e-05
-0.000163653
0.00142034
-2.55382e-05
-0.00016054
0.000438008
-3.65273e-05
-0.000115805
0.00114672
-1.08921e-05
-0.000623841
0.00427962
0.00423208
-0.000749943
0.00483951
0.0041728
-0.000432319
0.00488411
0.00433643
-0.000798244
0.00511349
0.00398876
-0.000533993
0.00515816
0.00400199
-0.000941218
0.00502198
0.00393895
-0.000694571
0.0050081
0.00402193
-0.000482214
0.00495582
0.004006
-0.000911409
0.00540562
0.00364416
-0.000530456
0.00531682
0.00366586
-0.000403728
0.00538199
0.00362911
-0.000372033
0.00545279
0.00355588
-0.000755792
0.00534723
0.00347178
-0.000717483
0.00531623
0.00344005
-0.000586836
0.00543065
0.00331098
-0.000395908
0.00546789
0.00322167
-0.000985757
0.00580134
0.00311653
-0.00082103
0.00613232
0.00298087
-0.000587988
0.00621358
0.00293234
-0.000559423
0.00582958
0.00297195
-0.00053272
0.00531282
0.00300233
-0.000665391
0.00609327
0.00299153
-0.000719753
0.00597722
0.00293983
-0.000711404
0.00573496
0.00284532
-0.000487938
0.00549584
0.00278143
-0.000381054
0.00521325
0.00274451
-0.000545342
0.00508813
0.00269731
-0.000705771
0.00597574
0.00264803
-0.000721638
0.00585497
0.00263
-0.000897143
0.00564175
0.00256578
-0.000588734
0.0056595
0.00247221
-0.000415398
0.00556273
0.00236422
-0.000657083
0.00547962
0.00233736
-0.000551006
0.00534988
0.00235953
-0.000888763
0.00595772
0.00234011
-0.000913868
0.0054417
0.00224299
-0.000962889
0.00563156
0.00220709
-0.000811948
0.00575758
0.0021475
-0.000556309
0.00566303
0.00200239
-0.000501297
0.0055703
0.00197694
-0.000484118
0.00573695
0.00195384
-0.000438528
0.00569432
0.00192465
-0.000905753
0.00654249
0.00177497
-0.00107952
0.00619116
0.00175977
-0.00100185
0.00612737
0.00159034
-0.000844352
0.00639494
0.00157797
-0.000555674
0.00633345
0.00157851
-0.000294592
0.00592182
0.00162602
-0.000369549
0.00610465
0.00142451
-0.000232502
0.00601621
0.00142989
-0.00020573
0.00584074
0.00140763
-0.000892169
0.00668689
0.00143034
-0.000697944
0.00688398
0.00137224
-0.000667761
0.00680426
0.00134318
-0.000256689
0.00631167
0.00130381
-9.2799e-05
0.00674403
0.00125278
-0.00018436
0.00623984
0.00132737
-0.000344755
0.00581335
0.00120954
-0.000154891
0.00620072
0.00126649
-0.000105376
0.0055914
0.00129193
-0.00020128
0.00540311
0.00116163
-0.00104096
0.00636969
0.00126235
-0.000731181
0.00650074
0.00117631
-0.000653017
0.00644891
0.00118957
-0.000627159
0.00655134
0.00111431
-0.00036502
0.00665177
0.00111847
-0.000225588
0.00623713
0.00109537
-0.000216828
0.00620536
0.00111925
-7.83676e-05
0.00597911
0.00106808
-9.72766e-05
0.0054731
0.000979514
-0.000258383
0.00545153
0.00090177
-8.81634e-05
0.00556981
0.000807036
-0.000991656
0.0062955
0.000844692
-0.000721584
0.00670315
0.000825263
-0.000497057
0.00712559
0.000784154
-0.000418238
0.00717732
0.000765081
-0.000181542
0.00708635
0.000725977
-0.000104445
0.0068419
0.00067962
-8.02403e-05
0.00657109
0.000624366
-0.000152102
0.00611918
0.00062158
-0.000159214
0.00627391
0.000514111
1.98151e-05
0.00581395
0.000449294
2.59951e-05
0.00565767
0.000358411
-5.13546e-05
0.00372369
0.000248803
-0.000712892
0.00690425
0.000140742
-0.000331503
0.00759966
0.000209005
-0.000331103
0.00735568
0.000273349
-2.11575e-05
0.00696878
0.000358022
-4.89936e-05
0.00614105
0.000407641
-8.47526e-05
0.00568042
0.000459759
-0.000100164
0.00524747
0.000499495
-0.000207804
0.00502603
0.000519994
-0.000155259
0.00475153
0.000446477
-8.15326e-05
0.00414319
0.000373837
-0.00026269
0.0037186
0.000280871
-0.000188735
0.00308123
0.000125416
0.00010637
0.00223561
-8.56243e-05
-0.000366876
0.00623286
1.10105e-05
-0.000158222
0.00514156
0.000124961
-8.02187e-05
0.00354058
0.000277291
6.11101e-06
0.00321678
0.000375176
-1.82802e-05
0.00281236
0.000468018
-0.000215573
0.00301379
0.000488094
-0.000303369
0.00351719
0.000490907
-0.000280052
0.00390258
0.000483361
-0.000318143
0.00385198
0.000432834
-0.000322682
0.0036489
0.000302723
-0.000431735
0.00265473
7.80818e-05
-0.000225968
0.00239881
-3.83021e-05
-0.000182069
0.00206169
-5.01798e-05
-0.000217942
0.0018135
-0.000106565
-0.00019954
0.00309825
0.000219374
-4.4438e-05
0.00120093
0.000186559
-2.56502e-05
0.00134312
0.000112725
-0.000108527
0.00208012
0.000135112
-0.000209102
0.0025694
0.000173064
-0.000247182
0.00321514
0.000194709
-0.000249178
0.00335403
0.000182694
-0.00027599
0.00336399
0.000157656
-0.00029668
0.00320211
0.000109112
-0.000311158
0.00245078
8.82445e-05
-0.000352269
0.00319292
7.45132e-06
-0.00026296
0.00202993
-4.34749e-05
-0.000260748
0.00189468
-3.6581e-05
-0.000268774
0.00140313
-8.7687e-05
-0.000316807
0.00116052
-2.93873e-05
-0.000100969
0.000395004
4.0765e-05
-2.77968e-05
0.00103794
6.27314e-06
-4.94663e-05
0.00166384
-2.45039e-05
-9.29124e-05
0.0016123
-5.41161e-05
-0.000120891
0.00146878
-7.52677e-05
-0.000115795
0.00180532
-8.10598e-05
-0.000156805
0.00174108
-8.03555e-05
-0.000159469
0.00157588
-7.74665e-05
-0.000185647
0.00111076
-5.49411e-05
-0.000212065
0.000742304
-2.27652e-05
-0.000201784
0.00222167
-2.27134e-05
-0.000179817
0.00180402
-2.77003e-05
-0.000160715
0.0015805
-2.61323e-05
-0.000159026
0.0006076