/*--------------------------------*- C++ -*----------------------------------*\
  =========                 |
  \\      /  F ield         | OpenFOAM: The Open Source CFD Toolbox
   \\    /   O peration     | Website:  https://openfoam.org
    \\  /    A nd           | Version:  7
     \\/     M anipulation  |
\*---------------------------------------------------------------------------*/
FoamFile
{
    version     2.0;
    format      ascii;
    class       volVectorField;
    location    "6.5";
    object      U_0;
}
// * * * * * * * * * * * * * * * * * * * * * * * * * * * * * * * * * * * * * //

dimensions      [0 1 -1 0 0 0 0];

internalField   nonuniform List<vector> 
18630
(
(0.864481 -0.321816 1.04216)
(0.087715 -1.03536 1.25355)
(0.856361 -0.321305 1.05649)
(0.145498 -0.649763 0.208788)
(-0.996801 -2.02005 -0.088297)
(0.026376 -1.11017 1.18488)
(0.0288855 -0.13788 0.911187)
(0.834339 -0.320192 1.08029)
(0.150276 -0.650115 0.211985)
(0.0898814 -0.78926 -0.196786)
(-1.49991 -1.87159 -0.450066)
(-1.28191 -2.08001 -0.266094)
(-1.37326 -1.51349 0.160473)
(0.00258973 -1.20177 1.14548)
(-0.0399015 -0.12206 0.980581)
(0.0321554 -0.806528 0.199306)
(0.81668 -0.332418 1.09648)
(0.152085 -0.650592 0.211378)
(0.0756725 -0.795214 -0.199163)
(0.258236 -0.933885 -1.30172)
(-0.823434 -2.83338 1.56215)
(-1.4245 -2.23148 -0.114798)
(-1.7064 -2.27552 0.108119)
(-1.02496 -2.41925 -0.140862)
(-1.45098 -1.56795 0.194864)
(-1.37569 -1.50247 0.889274)
(-0.0651531 -1.25373 1.08032)
(-0.100783 -0.128735 1.05052)
(0.0283266 -0.817432 0.177525)
(-0.704092 -1.31752 1.22905)
(0.797475 -0.345007 1.11307)
(0.149895 -0.644898 0.220911)
(0.0590822 -0.802113 -0.19003)
(0.252279 -0.956373 -1.35446)
(0.283873 -0.967253 -1.2607)
(-1.84582 -2.89087 2.17417)
(-0.760716 -2.94599 1.5916)
(-1.1929 -2.96789 1.74736)
(-1.50198 -2.39421 -0.124881)
(-1.77628 -2.38999 0.0934511)
(-2.44444 -2.27301 0.50633)
(-1.47438 -2.20119 -0.440448)
(-1.5143 -1.62372 0.160453)
(-1.39353 -1.53302 0.880813)
(-1.45256 -1.71696 1.30469)
(-0.036671 -1.38454 1.04747)
(-0.152672 -0.14903 1.1159)
(0.0226015 -0.813194 0.180973)
(-0.703701 -1.29066 1.23076)
(-0.528988 -1.37771 1.33555)
(0.785199 -0.356375 1.12692)
(0.149483 -0.63179 0.23881)
(0.0427439 -0.807466 -0.189962)
(0.249645 -0.986074 -1.3879)
(0.284762 -0.988122 -1.25139)
(0.0519964 -1.07908 -1.38945)
(-2.19838 -2.92049 2.80282)
(-1.91474 -2.85071 2.12898)
(-2.01445 -2.82225 2.04316)
(-0.635825 -3.15291 1.64483)
(-1.16556 -3.05089 1.79395)
(-2.1312 -2.45783 1.59808)
(-1.28171 -2.61156 0.114299)
(-1.90164 -2.40839 0.103511)
(-2.43253 -2.33071 0.635403)
(-2.30325 -2.35119 1.17758)
(-1.12763 -2.5214 -0.394289)
(-1.5472 -1.70892 0.1151)
(-1.38378 -1.5641 0.891133)
(-1.4864 -1.68587 1.25189)
(-1.437 -1.65628 1.86323)
(-0.0807342 -1.42381 1.08208)
(-0.190079 -0.181867 1.1852)
(0.011526 -0.795284 0.218958)
(-0.675445 -1.25365 1.23093)
(-0.548796 -1.42814 1.32875)
(-0.77148 -1.49032 1.48943)
(0.769443 -0.372192 1.14058)
(0.136418 -0.613592 0.279573)
(0.0261418 -0.816013 -0.173953)
(0.24607 -1.00811 -1.3773)
(0.288296 -1.00724 -1.24974)
(0.0485069 -1.08971 -1.43933)
(0.250077 -1.40539 -1.60417)
(-2.40717 -2.51695 3.49045)
(-2.3225 -2.74069 2.82524)
(-2.48065 -2.68029 2.55525)
(-1.79079 -2.87371 2.1755)
(-2.00979 -2.84309 2.04475)
(-2.1866 -2.63136 1.98132)
(-0.615205 -3.23941 1.80416)
(-1.13189 -3.0551 2.00433)
(-2.14386 -2.45539 1.71992)
(-2.28008 -2.34541 1.95241)
(-1.38694 -2.64237 0.134264)
(-1.84254 -2.58519 0.150239)
(-2.42095 -2.41931 0.73623)
(-2.30707 -2.31625 1.2021)
(-2.55394 -1.94958 1.45784)
(-1.55672 -2.36927 -0.591588)
(-1.56059 -1.80336 0.0585591)
(-1.37828 -1.55147 0.908447)
(-1.44874 -1.55235 1.40396)
(-1.43029 -1.71671 1.80825)
(-1.40422 -1.59336 2.00127)
(-0.031972 -1.5316 1.07854)
(-0.224609 -0.21628 1.25485)
(0.00220072 -0.786865 0.250289)
(-0.641055 -1.2393 1.18193)
(-0.519082 -1.45636 1.31937)
(-0.774113 -1.49033 1.47571)
(-0.780803 -1.68388 1.62807)
(0.754852 -0.382038 1.15447)
(0.127256 -0.604608 0.301067)
(0.00972516 -0.819563 -0.178325)
(0.248117 -1.02491 -1.34505)
(0.293674 -1.02195 -1.2742)
(0.0426263 -1.10326 -1.48785)
(0.252214 -1.4266 -1.66101)
(0.20063 -1.30376 -1.73528)
(-2.51175 -2.40103 3.47628)
(-2.37593 -2.47689 3.39104)
(-2.78819 -2.26165 3.05103)
(-2.02804 -3.00948 2.72867)
(-2.27254 -2.78255 2.44362)
(-2.44506 -2.60662 2.2945)
(-1.77973 -2.93609 2.20861)
(-2.02343 -2.89411 2.02016)
(-2.18838 -2.65754 1.98978)
(-2.54935 -2.22356 2.03805)
(-0.482569 -3.29206 1.93881)
(-1.18268 -3.20827 1.89995)
(-2.09065 -2.6419 1.75046)
(-2.2531 -2.38441 1.97555)
(-2.67005 -2.07678 1.81869)
(-1.27385 -2.85083 0.131376)
(-2.00909 -2.5932 0.119764)
(-2.38362 -2.50278 0.840805)
(-2.27503 -2.35416 1.19114)
(-2.44608 -2.10765 1.44582)
(-2.59966 -1.60024 1.42873)
(-1.39364 -2.51318 -0.534875)
(-1.56216 -1.87791 0.0731079)
(-1.34285 -1.58277 0.9292)
(-1.46946 -1.59605 1.30697)
(-1.40575 -1.56547 1.83259)
(-1.38195 -1.59544 1.9976)
(-1.43552 -1.51843 2.34473)
(-0.0198433 -1.60854 1.12397)
(-0.248858 -0.261188 1.31916)
(-0.00683876 -0.771634 0.286686)
(-0.638926 -1.22469 1.09661)
(-0.521128 -1.46323 1.32077)
(-0.752589 -1.53121 1.432)
(-0.763126 -1.70098 1.65696)
(-0.678393 -1.74964 1.4869)
(0.738188 -0.393713 1.16685)
(0.120708 -0.59349 0.325791)
(-0.00826999 -0.82693 -0.159232)
(0.249023 -1.0342 -1.28545)
(0.297361 -1.03524 -1.31041)
(0.0379046 -1.11805 -1.53715)
(0.257509 -1.44769 -1.7124)
(0.200013 -1.32681 -1.74432)
(0.370446 -1.38402 -1.65672)
(-3.25897 -1.45463 3.1131)
(-2.46037 -2.60782 3.21713)
(-2.92542 -1.31647 3.15458)
(-2.42251 -2.69494 3.08564)
(-2.55254 -2.3132 2.8586)
(-2.57798 -2.34742 2.50626)
(-2.10625 -3.02498 2.6836)
(-2.19382 -2.9164 2.38041)
(-2.36541 -2.63875 2.25613)
(-2.68075 -2.0997 2.20759)
(-1.63544 -3.06499 2.27332)
(-1.98238 -2.91562 2.07568)
(-2.14423 -2.75797 2.01787)
(-2.46701 -2.3324 2.09167)
(-2.63404 -1.99977 2.14593)
(-0.469039 -3.40775 1.8901)
(-1.14118 -3.2305 1.88584)
(-2.1199 -2.65405 1.85737)
(-2.19581 -2.47906 2.00046)
(-2.64808 -2.05861 1.8616)
(-2.82931 -1.68472 1.85359)
(-1.33865 -2.9539 0.159173)
(-2.00682 -2.71001 0.19357)
(-2.35717 -2.59532 0.852254)
(-2.33157 -2.34471 1.13898)
(-2.46413 -2.07756 1.39342)
(-2.55714 -1.71371 1.41951)
(-2.52039 -1.68615 1.56255)
(-1.27422 -2.64365 -0.461434)
(-1.51531 -1.98634 0.0245361)
(-1.43027 -1.51634 0.842479)
(-1.3597 -1.66643 1.23761)
(-1.34345 -1.58333 1.80045)
(-1.24822 -1.57049 2.06448)
(-1.21292 -1.72879 2.42597)
(-1.3711 -1.78764 2.27105)
(0.0158446 -1.69395 1.13465)
(-0.27536 -0.298676 1.38751)
(-0.00904573 -0.76723 0.335782)
(-0.506679 -1.27013 1.05164)
(-0.468684 -1.50474 1.29614)
(-0.738851 -1.55369 1.42077)
(-0.767164 -1.68845 1.61983)
(-0.691127 -1.75674 1.46198)
(-0.632157 -1.82702 1.25807)
(0.720368 -0.403749 1.17983)
(0.11077 -0.585465 0.350641)
(-0.0220655 -0.833944 -0.137827)
(0.236094 -1.03597 -1.16639)
(0.298095 -1.0478 -1.34845)
(0.0387432 -1.13267 -1.58722)
(0.262952 -1.46772 -1.73512)
(0.201925 -1.3476 -1.75389)
(0.379661 -1.41343 -1.66012)
(0.605188 -1.73965 -1.14259)
(-2.74969 -1.53774 3.2355)
(-2.72971 -1.94641 3.17379)
(-2.7055 -1.88908 2.83605)
(-2.57789 -2.44056 3.05361)
(-2.60735 -1.9537 2.9282)
(-2.66129 -1.6821 2.80885)
(-2.29016 -2.89633 2.99944)
(-2.40514 -2.58942 2.71973)
(-2.16837 -2.4492 2.60069)
(-2.46376 -2.01153 2.3571)
(-2.19706 -2.92818 2.6979)
(-2.1674 -2.98115 2.35107)
(-2.36898 -2.66395 2.24093)
(-2.60039 -2.22025 2.24378)
(-2.75712 -1.93714 2.18473)
(-1.49189 -3.28843 2.16321)
(-1.90656 -2.93403 2.05184)
(-2.1446 -2.74802 2.0235)
(-2.38083 -2.38586 2.19138)
(-2.62357 -2.00119 2.15986)
(-2.77047 -1.65756 2.0364)
(-0.380464 -3.53118 1.90544)
(-1.12106 -3.22456 1.91317)
(-2.11169 -2.71069 1.89142)
(-2.18691 -2.47661 2.03483)
(-2.60241 -2.1303 1.82268)
(-2.80391 -1.7482 1.84215)
(-2.83054 -1.68796 1.93702)
(-1.34799 -3.0387 0.235353)
(-2.08003 -2.7652 0.167869)
(-2.32151 -2.66717 0.874796)
(-2.29697 -2.40008 1.18824)
(-2.44288 -2.15096 1.36164)
(-2.50495 -1.76721 1.41331)
(-2.58597 -1.69723 1.43868)
(-2.54298 -1.52898 1.24493)
(-1.34943 -2.73485 -0.354432)
(-1.45535 -2.09354 0.0421332)
(-1.31569 -1.52078 0.887301)
(-1.42227 -1.46572 1.25783)
(-1.32679 -1.52941 1.80693)
(-1.22623 -1.5446 2.10195)
(-1.50333 -1.39195 2.44999)
(-1.36372 -1.77872 2.17765)
(-1.28516 -1.7755 2.04564)
(0.0492613 -1.74338 1.17556)
(-0.296965 -0.329861 1.45541)
(-0.0225496 -0.759975 0.391581)
(-0.620026 -1.17498 0.870206)
(-0.445414 -1.5189 1.28936)
(-0.72066 -1.5644 1.41825)
(-0.740641 -1.66664 1.64083)
(-0.681031 -1.79382 1.37955)
(-0.630515 -1.82951 1.22758)
(-0.47095 -1.81668 1.25145)
(0.702712 -0.4156 1.19116)
(0.100338 -0.578776 0.376172)
(-0.0306383 -0.845949 -0.17427)
(0.249455 -1.05857 -1.04301)
(0.302563 -1.05769 -1.38459)
(0.0367728 -1.15617 -1.62124)
(0.273117 -1.48092 -1.75453)
(0.20206 -1.36372 -1.77094)
(0.391484 -1.43895 -1.66817)
(0.618474 -1.74377 -1.08904)
(-0.0228088 -2.10741 -0.128422)
(-2.5848 -1.56128 2.98326)
(-2.87549 -1.54457 3.21161)
(-2.66342 -1.44981 3.1561)
(-2.56305 -2.30413 3.09642)
(-2.70811 -1.89672 2.82523)
(-2.77063 -1.57591 2.64928)
(-2.48429 -2.36259 2.99623)
(-2.61359 -2.04031 2.8775)
(-2.7135 -1.75633 2.74092)
(-2.66143 -1.69053 2.37627)
(-2.41269 -2.72587 2.83061)
(-2.30535 -2.72414 2.62777)
(-2.19827 -2.47169 2.5855)
(-2.45943 -2.02123 2.381)
(-2.75179 -1.53173 2.20443)
(-1.99157 -3.14824 2.52091)
(-2.08236 -3.04697 2.21588)
(-2.33593 -2.68663 2.18634)
(-2.5706 -2.2605 2.24972)
(-2.71037 -2.00246 2.2114)
(-2.98021 -1.62899 1.79669)
(-1.26947 -3.35345 2.31047)
(-1.79934 -3.01335 2.01825)
(-2.0775 -2.78531 2.03616)
(-2.30111 -2.49868 2.22714)
(-2.59078 -2.077 2.09554)
(-2.60849 -1.73284 2.16367)
(-2.67424 -1.50915 2.30958)
(-0.540697 -3.49807 1.98578)
(-1.18705 -3.2367 1.90117)
(-2.10405 -2.80788 1.78935)
(-2.16506 -2.54818 2.0158)
(-2.62341 -2.13732 1.7926)
(-2.84677 -1.67761 1.75952)
(-2.7306 -1.63527 1.99975)
(-2.7776 -1.38699 1.88652)
(-1.2452 -3.16605 0.355826)
(-2.01648 -2.91655 0.224534)
(-2.31855 -2.69285 0.954241)
(-2.36328 -2.35081 1.17918)
(-2.44136 -2.18075 1.33798)
(-2.55808 -1.6392 1.41187)
(-2.42376 -1.69801 1.38924)
(-2.40339 -1.49653 1.25022)
(-2.18779 -1.50201 1.37993)
(-1.24455 -2.83921 -0.30001)
(-1.46477 -2.1314 0.0758477)
(-1.28591 -1.53323 0.897784)
(-1.33564 -1.51424 1.30371)
(-1.30179 -1.51616 1.75876)
(-1.11795 -1.58166 2.13342)
(-1.08276 -1.62419 2.45623)
(-1.35509 -1.64467 2.20436)
(-1.2439 -1.76039 2.08168)
(-1.2284 -1.43633 1.64595)
(0.0982349 -1.81492 1.19425)
(-0.309693 -0.372719 1.52286)
(-0.0426321 -0.749844 0.464728)
(-0.384281 -1.23439 0.754096)
(-0.393611 -1.52868 1.2855)
(-0.686716 -1.58693 1.41679)
(-0.693746 -1.739 1.61006)
(-0.720211 -1.67555 1.53361)
(-0.639872 -1.82297 1.22859)
(-0.465136 -1.81166 1.14004)
(-0.545736 -2.11466 0.810832)
(0.679318 -0.428987 1.20293)
(0.089199 -0.573749 0.401557)
(-0.0395225 -0.858452 -0.173472)
(0.251592 -1.07116 -1.02156)
(0.300379 -1.07383 -1.39791)
(0.0410797 -1.16208 -1.66497)
(0.282974 -1.48809 -1.77663)
(0.211781 -1.38142 -1.77947)
(0.412598 -1.47151 -1.65383)
(0.645221 -1.73961 -1.01503)
(-0.013646 -2.07268 -0.139236)
(-0.0610202 -1.75678 -0.571511)
(-2.43316 -1.1013 2.92188)
(-2.48258 -1.30722 3.07135)
(-2.61292 -1.48709 2.98555)
(-2.6466 -1.42696 2.91077)
(-2.72308 -1.56556 3.21508)
(-2.73513 -1.43899 3.09989)
(-2.72798 -1.16604 2.96425)
(-2.56937 -2.36439 2.72181)
(-2.78551 -1.98861 2.65353)
(-2.74235 -1.78293 2.67493)
(-2.8237 -1.43992 2.44759)
(-2.20315 -2.52663 2.99217)
(-2.44082 -1.9932 3.03151)
(-2.39069 -2.06022 2.74946)
(-2.53436 -1.72296 2.46868)
(-2.57499 -1.4422 2.4388)
(-2.11159 -2.95481 2.68642)
(-2.12091 -2.64233 2.57892)
(-2.13563 -2.57342 2.41474)
(-2.38892 -2.07269 2.40575)
(-2.69809 -1.67489 2.33365)
(-2.74133 -1.45019 2.23746)
(-1.80849 -3.34211 2.39198)
(-2.04473 -3.11228 2.16308)
(-2.26654 -2.73207 2.14377)
(-2.42369 -2.36046 2.34278)
(-2.74966 -2.01942 2.10535)
(-2.85257 -1.71563 1.87627)
(-2.79716 -1.18713 2.26306)
(-1.26454 -3.34615 2.42008)
(-1.70802 -3.04565 2.10721)
(-2.03974 -2.76755 2.12043)
(-2.21052 -2.56512 2.28133)
(-2.52382 -2.12144 2.06253)
(-2.66605 -1.65276 2.20288)
(-2.49317 -1.71557 2.35774)
(-2.82161 -1.25906 1.96799)
(-0.524197 -3.43903 2.04995)
(-1.24479 -3.1873 1.94177)
(-2.01723 -2.85467 1.88698)
(-2.19853 -2.64997 1.97462)
(-2.60696 -2.14593 1.80082)
(-2.69678 -1.79124 1.84638)
(-2.75531 -1.61185 2.0172)
(-2.7869 -1.32221 1.86416)
(-2.65278 -1.25149 1.66123)
(-1.2392 -3.25503 0.531632)
(-2.00074 -3.01085 0.404037)
(-2.23316 -2.81493 0.950033)
(-2.41145 -2.33054 1.14066)
(-2.43593 -2.03143 1.33742)
(-2.33728 -1.90709 1.54454)
(-2.46735 -1.65728 1.33666)
(-2.22391 -1.51714 1.43001)
(-2.12094 -1.54354 1.44747)
(-2.01415 -1.21988 0.851122)
(-1.14111 -2.90916 -0.216399)
(-1.33606 -2.24715 0.214633)
(-1.19493 -1.58203 0.920931)
(-1.35525 -1.41829 1.30786)
(-0.912536 -1.57067 1.8622)
(-1.02144 -1.52153 2.20563)
(-1.05704 -1.80035 2.36148)
(-1.23783 -1.71623 2.25216)
(-1.24521 -1.74887 2.0997)
(-1.31508 -1.46505 1.51887)
(-0.495503 -1.82597 1.34897)
(0.149614 -1.86118 1.24075)
(-0.318345 -0.402907 1.59076)
(-0.0610852 -0.743092 0.543974)
(-0.340592 -1.25881 0.769347)
(-0.341316 -1.5516 1.2567)
(-0.650817 -1.6217 1.3886)
(-0.65809 -1.79039 1.5896)
(-0.628616 -1.88264 1.32351)
(-0.616212 -1.84819 1.19139)
(-0.407651 -1.8123 1.04693)
(-0.584686 -2.04892 0.916283)
(-0.403818 -1.51974 -0.164092)
(0.657393 -0.437992 1.21329)
(0.0780216 -0.571013 0.426832)
(-0.0433268 -0.871507 -0.175646)
(0.225982 -1.05885 -0.935172)
(0.293704 -1.08632 -1.41865)
(0.0430042 -1.19033 -1.68967)
(0.298295 -1.50761 -1.7591)
(0.214975 -1.40419 -1.78462)
(0.427719 -1.48499 -1.67)
(0.662745 -1.72228 -0.897404)
(-0.0223265 -2.04014 -0.151731)
(-0.0553161 -1.75051 -0.595481)
(-0.183431 -1.46096 -0.528352)
(-2.48849 -0.652092 2.88142)
(-2.3582 -1.17218 2.87487)
(-2.4381 -0.913309 2.90039)
(-2.54582 -1.02633 3.05389)
(-2.56781 -1.0157 3.00453)
(-2.35564 -1.72206 2.92411)
(-2.5377 -1.51391 2.84176)
(-2.78413 -1.1973 2.71977)
(-2.39602 -1.97219 3.12902)
(-2.58498 -1.57529 3.06704)
(-2.7091 -1.26677 2.91562)
(-2.67433 -1.11826 2.81095)
(-2.36895 -2.2817 2.75874)
(-2.48708 -2.03447 2.72839)
(-2.63601 -1.67185 2.7753)
(-2.60642 -1.63919 2.55299)
(-2.76837 -1.27959 2.33983)
(-2.37106 -2.45385 2.75212)
(-2.23475 -2.2491 2.89752)
(-2.24189 -2.20342 2.68192)
(-2.4181 -1.89903 2.47466)
(-2.53955 -1.56749 2.43101)
(-2.50574 -1.26652 2.44312)
(-2.13635 -2.96569 2.61765)
(-1.87988 -2.87619 2.39329)
(-1.91093 -2.59639 2.48379)
(-2.30576 -2.06709 2.49071)
(-2.66461 -1.73067 2.3738)
(-2.54238 -1.62394 2.31897)
(-2.73199 -1.05774 2.21048)
(-1.64855 -3.33129 2.4662)
(-2.03718 -3.09035 2.25915)
(-2.17955 -2.74398 2.31221)
(-2.3768 -2.40485 2.38581)
(-2.71341 -1.99665 2.15852)
(-2.80629 -1.7081 1.97891)
(-2.6221 -1.3123 2.36505)
(-2.67174 -1.24025 1.99486)
(-1.1416 -3.3392 2.54675)
(-1.6933 -3.04928 2.11143)
(-2.08562 -2.72426 2.09863)
(-2.29179 -2.54925 2.16543)
(-2.51915 -2.13428 2.04941)
(-2.64864 -1.62933 2.23409)
(-2.49884 -1.82674 2.25933)
(-2.76405 -1.15429 1.89476)
(-2.49614 -1.14493 2.26074)
(-0.55955 -3.4627 2.04976)
(-1.17832 -3.21395 1.97767)
(-2.01148 -2.90511 1.95719)
(-2.30502 -2.48249 2.17588)
(-2.5847 -2.15362 1.79461)
(-2.70355 -1.78594 1.85773)
(-2.83847 -1.63758 1.88767)
(-2.64595 -1.39824 1.93896)
(-2.6604 -1.27457 1.73694)
(-2.57138 -0.967414 1.45435)
(-1.1564 -3.34846 0.575149)
(-2.04632 -3.07931 0.312735)
(-2.2 -2.89653 0.864226)
(-2.45248 -2.34765 1.12101)
(-2.4436 -1.98436 1.20504)
(-2.67737 -1.40608 1.32323)
(-2.35228 -1.68155 1.38537)
(-2.19774 -1.62904 1.49569)
(-2.06507 -1.59612 1.50717)
(-1.88387 -1.26907 1.00278)
(-1.72165 -1.36961 1.12136)
(-1.16268 -2.93698 -0.224366)
(-1.41201 -2.22681 0.0904583)
(-1.16198 -1.56178 0.881875)
(-1.27232 -1.36824 1.33471)
(-1.17993 -1.59969 1.54901)
(-0.869354 -1.46938 2.26604)
(-1.11269 -1.67232 2.34374)
(-1.20988 -1.83659 2.18995)
(-1.25374 -1.71969 2.06929)
(-1.23038 -1.41245 1.63077)
(-0.493901 -1.80064 1.27101)
(-0.740178 -1.3432 0.260645)
(0.1753 -1.87839 1.27741)
(-0.308363 -0.443749 1.65865)
(-0.0826086 -0.734126 0.637733)
(-0.353387 -1.23786 0.638981)
(-0.238139 -1.60125 1.23593)
(-0.586722 -1.66072 1.34332)
(-0.692555 -1.71808 1.68606)
(-0.624635 -1.89241 1.29857)
(-0.611275 -1.85006 1.24353)
(-0.36788 -1.83436 0.915938)
(-0.643884 -2.0317 0.880311)
(-0.409798 -1.50792 -0.258257)
(-0.519547 -1.38019 -0.255555)
(0.639632 -0.439796 1.22355)
(0.0675266 -0.571213 0.451575)
(-0.0449729 -0.885983 -0.185846)
(0.245315 -1.08326 -0.845321)
(0.294779 -1.09397 -1.48335)
(0.0566599 -1.19705 -1.71748)
(0.31484 -1.5103 -1.74489)
(0.229123 -1.42574 -1.78307)
(0.454581 -1.4921 -1.69292)
(0.681047 -1.69872 -0.808327)
(-0.0198718 -2.01851 -0.100132)
(-0.0582684 -1.7352 -0.651795)
(-0.172106 -1.45946 -0.528354)
(0.20096 -1.2576 -0.690841)
(-2.26637 -0.494793 2.64906)
(-2.42133 -0.822086 2.69166)
(-2.28642 -0.968723 2.89441)
(-2.38197 -0.669917 2.92246)
(-2.28928 -1.21814 2.83366)
(-2.43308 -0.925838 2.8304)
(-2.56018 -0.75216 2.79788)
(-2.39723 -1.37398 2.96443)
(-2.43521 -1.03138 2.97508)
(-2.47398 -0.883251 2.93913)
(-2.23999 -1.86289 2.93995)
(-2.50592 -1.52091 2.80076)
(-2.70956 -1.27857 2.67362)
(-2.65483 -1.07697 2.68203)
(-2.41984 -2.05319 3.086)
(-2.47198 -1.77536 3.04125)
(-2.45195 -1.41407 3.0103)
(-2.56685 -1.10643 2.87113)
(-2.50108 -1.0306 2.79398)
(-2.19425 -2.24659 2.91009)
(-2.39686 -2.08464 2.7959)
(-2.32046 -1.88982 2.81376)
(-2.6161 -1.5725 2.55933)
(-2.57867 -1.41224 2.51646)
(-2.53483 -1.14336 2.57156)
(-2.11852 -2.32099 2.84756)
(-1.94184 -2.43449 2.83412)
(-2.13227 -2.16652 2.71264)
(-2.28586 -1.97203 2.51011)
(-2.35284 -1.6127 2.57202)
(-2.45639 -1.3152 2.44813)
(-2.56464 -1.03211 2.42608)
(-2.22416 -2.71415 2.42369)
(-1.78179 -2.90974 2.39511)
(-1.86683 -2.55066 2.57854)
(-2.3939 -2.03584 2.55873)
(-2.67819 -1.74274 2.18649)
(-2.55901 -1.55424 2.27531)
(-2.69891 -1.1034 2.28297)
(-2.69743 -1.11619 2.2503)
(-1.81671 -3.16442 2.39104)
(-2.02061 -3.08489 2.06206)
(-2.23354 -2.73942 2.30992)
(-2.18831 -2.48212 2.43298)
(-2.6188 -2.34769 1.77562)
(-2.91806 -1.54259 1.92033)
(-2.46492 -1.51138 2.40325)
(-2.63038 -1.31177 1.99188)
(-2.70684 -0.870059 2.07039)
(-1.03861 -3.38992 2.54795)
(-1.60577 -3.04769 2.19681)
(-1.89694 -2.73832 2.23814)
(-2.01734 -2.63117 2.30791)
(-2.47223 -2.18725 2.09487)
(-2.50505 -1.74134 2.2415)
(-2.5045 -1.70686 2.29677)
(-2.81407 -0.873313 2.02022)
(-2.45357 -1.12309 2.27956)
(-2.36246 -1.0936 1.79368)
(-0.542903 -3.52802 2.06408)
(-1.2897 -3.20501 1.92549)
(-1.97951 -2.98152 1.93762)
(-2.18054 -2.82751 1.89159)
(-2.69555 -2.11773 1.78021)
(-2.68909 -1.82691 1.83862)
(-2.69698 -1.60972 1.94771)
(-2.58674 -1.42637 1.91311)
(-2.68661 -1.24525 1.74198)
(-2.67564 -0.918552 1.10595)
(-2.79718 -0.670759 1.00729)
(-1.02401 -3.45471 0.528197)
(-2.11552 -3.08294 0.39184)
(-2.13351 -2.96135 0.87985)
(-2.31922 -2.5397 1.10054)
(-2.34356 -2.10501 1.22903)
(-2.25491 -1.73928 1.34333)
(-2.31318 -1.53749 1.34009)
(-2.0534 -1.69244 1.57042)
(-2.02134 -1.52134 1.48284)
(-1.81527 -1.33829 1.03663)
(-1.65379 -1.51107 1.07791)
(-1.22044 -0.992122 1.20893)
(-1.02956 -3.03183 -0.0101018)
(-1.18867 -2.33009 0.197537)
(-1.07128 -1.53993 0.925289)
(-1.04793 -1.47298 1.3495)
(-0.694039 -1.43361 1.87062)
(-0.850174 -1.54701 2.15497)
(-0.868089 -1.71587 2.28882)
(-1.187 -1.79937 2.17071)
(-1.17792 -1.74181 2.0827)
(-1.21005 -1.46881 1.73305)
(-0.565485 -1.6899 1.21553)
(-0.773122 -1.27467 0.0188609)
(-0.825384 -0.974223 -0.0629421)
(0.186027 -1.87238 1.29421)
(-0.283527 -0.491082 1.72525)
(-0.110473 -0.729994 0.732807)
(-0.201461 -1.19243 0.715392)
(-0.191082 -1.60957 1.23141)
(-0.567735 -1.66307 1.34626)
(-0.548367 -1.87848 1.58627)
(-0.601228 -1.90661 1.26706)
(-0.590246 -1.90984 1.23248)
(-0.326 -1.85149 0.755901)
(-0.642701 -2.01761 0.871111)
(-0.411325 -1.4995 -0.4063)
(-0.479591 -1.40671 -0.204554)
(-0.278659 -1.34846 -0.453012)
(0.621813 -0.439463 1.23285)
(0.0571358 -0.57415 0.475414)
(-0.050074 -0.901224 -0.202075)
(0.234797 -1.10118 -0.838358)
(0.299093 -1.11479 -1.5355)
(0.0537815 -1.21889 -1.73253)
(0.316947 -1.51295 -1.73385)
(0.245255 -1.44592 -1.77261)
(0.485059 -1.51506 -1.7061)
(0.695477 -1.6722 -0.758593)
(-0.0173085 -1.97613 -0.112012)
(-0.0580956 -1.73172 -0.677827)
(-0.166318 -1.46195 -0.524772)
(0.180401 -1.24888 -0.667367)
(-0.364715 -0.712347 -1.04031)
(-1.99521 -0.535972 2.51189)
(-2.25725 -0.587792 2.60246)
(-2.31856 -0.339091 2.72094)
(-2.32421 -0.978366 2.68119)
(-2.42597 -0.728332 2.71586)
(-2.20573 -1.17633 2.8235)
(-2.24477 -0.92905 2.88811)
(-2.3071 -0.610397 2.90281)
(-2.28069 -1.39067 2.81711)
(-2.38363 -1.03852 2.84087)
(-2.50204 -0.825009 2.80147)
(-2.57672 -0.696426 2.73084)
(-2.25743 -1.56451 2.95105)
(-2.25871 -1.34495 2.93909)
(-2.37013 -1.11969 2.84227)
(-2.46778 -0.828788 2.82016)
(-2.27074 -1.7836 2.90213)
(-2.5112 -1.63376 2.78815)
(-2.70031 -1.35463 2.67859)
(-2.58283 -1.0852 2.70753)
(-2.40668 -0.884061 2.75187)
(-2.4173 -1.85437 3.00628)
(-2.38328 -1.92421 2.98817)
(-2.34168 -1.64817 2.95807)
(-2.35748 -1.29591 2.85188)
(-2.36494 -1.04586 2.82067)
(-2.34698 -1.02452 2.77503)
(-2.14936 -2.11816 2.91458)
(-2.24713 -2.05546 2.90086)
(-2.10687 -2.03711 2.88085)
(-2.34539 -1.61663 2.72153)
(-2.47352 -1.28428 2.64023)
(-2.37677 -1.29322 2.67146)
(-2.41492 -0.986096 2.70209)
(-1.74424 -2.52111 2.85313)
(-1.72023 -2.36516 2.88891)
(-1.93393 -2.26592 2.73772)
(-2.1239 -2.02802 2.62688)
(-2.33009 -1.56528 2.55386)
(-2.35937 -1.31795 2.53485)
(-2.55045 -1.14503 2.44165)
(-2.62169 -0.989326 2.52687)
(-1.77922 -2.80739 2.40531)
(-1.72171 -2.85778 2.36965)
(-1.90813 -2.48622 2.55644)
(-2.12384 -2.29613 2.54358)
(-2.42853 -1.80294 2.23938)
(-2.52191 -1.39601 2.30019)
(-2.67968 -1.31836 2.29053)
(-2.72982 -1.0495 2.14074)
(-2.66776 -0.880386 2.05665)
(-1.55738 -3.21041 2.29273)
(-1.97788 -2.90431 2.19277)
(-2.32741 -2.58672 2.156)
(-2.36884 -2.30174 2.25299)
(-2.85067 -1.79165 1.8717)
(-2.5853 -1.67865 2.14555)
(-2.42351 -1.52068 2.35131)
(-2.76322 -1.22186 1.87854)
(-2.58721 -0.845441 2.21054)
(-2.47524 -0.771606 2.23249)
(-0.923284 -3.40946 2.599)
(-1.5264 -3.09216 2.23789)
(-1.84398 -2.80111 2.19456)
(-2.03984 -2.72335 2.15336)
(-2.41123 -2.19613 2.15293)
(-2.47458 -1.76463 2.22673)
(-2.60302 -1.61884 2.16237)
(-2.63075 -1.41935 2.05458)
(-2.38801 -1.13464 2.29946)
(-2.35035 -1.03806 1.81818)
(-2.53818 -0.86196 1.85014)
(-0.532343 -3.55107 2.06707)
(-1.29048 -3.21064 1.93308)
(-1.9267 -3.0532 1.89117)
(-2.19204 -2.82392 1.86968)
(-2.64967 -2.29929 1.80572)
(-2.72749 -1.97256 1.75085)
(-2.81867 -1.78687 1.18497)
(-2.53601 -1.5591 1.80225)
(-2.73993 -1.2464 1.51038)
(-2.71596 -0.720943 1.04119)
(-2.77579 -0.536811 0.914443)
(-1.71158 -0.745484 1.12205)
(-0.989667 -3.51103 0.424237)
(-2.13346 -3.15325 0.307219)
(-2.08585 -3.03968 0.741232)
(-2.71938 -2.1587 1.03964)
(-2.26213 -2.09355 1.18671)
(-2.10488 -1.94189 1.37407)
(-1.89789 -1.87863 1.39723)
(-1.8772 -1.6925 1.67985)
(-1.71949 -1.67465 1.56896)
(-1.61526 -1.47954 1.14418)
(-1.39053 -1.51936 1.15588)
(-1.28137 -0.882373 0.988335)
(-1.06058 -0.180169 -0.177833)
(-0.8969 -3.09374 -0.121998)
(-1.12022 -2.36044 0.307587)
(-0.940838 -1.54091 0.956248)
(-0.963752 -1.38211 1.39185)
(-0.672787 -1.41515 1.9138)
(-0.468067 -1.68378 2.15692)
(-0.756168 -1.8703 2.15469)
(-1.08555 -1.81074 2.15777)
(-1.13935 -1.81002 2.07782)
(-1.19917 -1.64414 1.65424)
(-0.592188 -1.71333 1.06658)
(-0.781447 -1.23588 -0.19546)
(-0.758948 -1.01969 -0.120921)
(-0.606416 -1.15288 -0.476993)
(0.213994 -1.86108 1.35113)
(-0.240843 -0.552235 1.76555)
(-0.127634 -0.720898 0.837343)
(-0.185828 -1.19964 0.723278)
(-0.157218 -1.57502 1.23646)
(-0.525196 -1.7151 1.31314)
(-0.513521 -1.92228 1.54406)
(-0.565489 -1.95751 1.18793)
(-0.530325 -1.98329 1.17667)
(-0.259395 -1.86777 0.58848)
(-0.687874 -2.02158 0.802317)
(-0.410085 -1.49781 -0.542306)
(-0.458599 -1.42647 -0.206991)
(-0.294763 -1.33686 -0.395513)
(-0.24551 -1.4396 -1.00437)
(0.597612 -0.437801 1.24202)
(0.0475414 -0.580204 0.496047)
(-0.0516118 -0.915606 -0.224073)
(0.227516 -1.11141 -0.799449)
(0.302295 -1.13348 -1.55402)
(0.0737146 -1.23139 -1.74736)
(0.326286 -1.51675 -1.7374)
(0.247652 -1.45043 -1.77155)
(0.497816 -1.52486 -1.69049)
(0.71397 -1.63006 -0.760279)
(-0.0454713 -1.94813 -0.240012)
(-0.0566249 -1.71379 -0.739518)
(-0.167 -1.45445 -0.547799)
(0.178576 -1.25522 -0.638399)
(-0.374307 -0.704427 -1.04664)
(-2.29627 -0.781688 0.572008)
(-2.06258 -0.403869 2.23217)
(-1.93612 -0.771755 2.46939)
(-2.10823 -0.47969 2.49004)
(-2.1835 -0.80723 2.54058)
(-2.26103 -0.514781 2.64916)
(-2.28011 -0.307191 2.7514)
(-2.18527 -1.08911 2.644)
(-2.30667 -0.805937 2.6692)
(-2.33832 -0.619959 2.6845)
(-2.08377 -1.24159 2.82186)
(-2.25322 -0.904584 2.85003)
(-2.25889 -0.690934 2.90514)
(-2.29433 -0.491098 2.89033)
(-2.30621 -1.3292 2.7723)
(-2.29285 -1.15633 2.83522)
(-2.3727 -0.951987 2.85928)
(-2.42881 -0.705966 2.85591)
(-2.46344 -0.471577 2.82184)
(-1.95645 -1.77686 2.90159)
(-2.163 -1.49366 2.89246)
(-2.36517 -1.21573 2.82451)
(-2.41228 -1.09361 2.73857)
(-2.45756 -0.872248 2.66588)
(-2.2016 -1.87007 2.85237)
(-2.52397 -1.6476 2.74807)
(-2.61414 -1.55391 2.6553)
(-2.55826 -1.17518 2.71246)
(-2.39264 -0.875142 2.77928)
(-2.33201 -0.824149 2.78904)
(-2.12663 -2.04651 2.91511)
(-2.23847 -1.81955 2.96738)
(-2.25226 -1.71252 2.90552)
(-2.28777 -1.32565 2.8063)
(-2.26474 -1.03486 2.74632)
(-2.18113 -1.0461 2.76875)
(-2.21155 -0.890358 2.74283)
(-1.94748 -2.18077 2.9279)
(-1.99983 -2.00285 2.96325)
(-1.9928 -1.96381 2.95473)
(-2.15535 -1.70627 2.85907)
(-2.24445 -1.42868 2.78891)
(-2.33736 -1.26379 2.68443)
(-2.35512 -1.14203 2.63519)
(-2.48464 -0.917666 2.64182)
(-1.67595 -2.53227 2.87612)
(-1.54324 -2.26216 2.9607)
(-1.76058 -2.29608 2.74173)
(-2.0577 -1.97089 2.74783)
(-2.14019 -1.68484 2.71144)
(-2.41219 -1.29596 2.48122)
(-2.47796 -1.23727 2.48991)
(-2.57774 -0.905829 2.50072)
(-2.65953 -0.691969 2.39488)
(-1.75805 -2.8291 2.44497)
(-1.82882 -2.4557 2.59089)
(-1.88697 -2.49326 2.57149)
(-2.83564 -1.73313 1.99457)
(-2.73928 -1.62912 1.93507)
(-2.57499 -1.30377 2.29194)
(-2.56914 -1.39731 2.35931)
(-2.78795 -1.05235 1.83936)
(-2.66184 -0.851514 2.03571)
(-2.60846 -0.755549 1.99998)
(-1.39896 -3.09783 2.40748)
(-1.93745 -2.83612 2.32834)
(-1.97819 -2.68211 2.25877)
(-2.04927 -2.40078 2.27347)
(-2.41487 -2.1491 2.01649)
(-2.45113 -1.74479 2.26468)
(-2.40622 -1.50357 2.2517)
(-2.86229 -1.092 1.71279)
(-2.50439 -0.838361 2.35288)
(-2.44139 -1.05502 2.10936)
(-2.66369 -0.49295 1.75494)
(-0.908667 -3.39558 2.63901)
(-1.29989 -3.1675 2.29342)
(-1.75058 -2.74448 2.31905)
(-2.01979 -2.5176 2.40025)
(-2.40149 -2.19957 2.17057)
(-2.48507 -1.8156 2.21471)
(-2.58302 -1.56502 2.11015)
(-2.51262 -1.4227 2.2559)
(-2.32357 -1.39768 2.16771)
(-2.5193 -1.01492 1.64068)
(-2.556 -0.859913 1.80448)
(-1.96282 -0.188745 1.43646)
(-0.543696 -3.52104 2.04381)
(-1.3873 -3.26188 1.89972)
(-1.84412 -3.12758 1.92273)
(-2.30265 -2.81437 1.85095)
(-2.64063 -2.30027 1.77776)
(-2.70762 -2.01794 1.67304)
(-2.69733 -1.58498 1.53454)
(-2.46996 -1.73734 1.87503)
(-2.8145 -1.20808 1.19044)
(-2.77849 -0.651102 0.974112)
(-2.44879 -0.913634 1.19251)
(-1.63969 -0.68423 0.91659)
(-1.52069 0.0452406 0.0498735)
(-1.00764 -3.48976 0.271386)
(-1.97178 -3.29544 0.400785)
(-2.16263 -2.94743 0.96993)
(-2.55908 -2.37706 0.900196)
(-2.45674 -1.66934 1.21254)
(-2.01973 -1.94298 1.31897)
(-1.71583 -1.91845 1.51126)
(-1.73104 -1.75739 1.72447)
(-1.69656 -1.73313 1.55627)
(-1.44776 -1.57192 1.2397)
(-1.25347 -1.52198 1.25207)
(-1.34454 -0.737673 0.64424)
(-1.0107 -0.43767 -0.205124)
(-1.27118 -0.339385 -0.420296)
(-0.986648 -3.05656 -0.235456)
(-1.06125 -2.39435 0.209876)
(-1.13342 -1.40055 0.829169)
(-0.831129 -1.33057 1.39625)
(-0.528312 -1.45977 1.84883)
(-0.348152 -1.7912 2.11976)
(-0.850583 -1.71879 2.13847)
(-1.00318 -1.86271 2.12528)
(-1.07227 -1.82726 2.10946)
(-1.07478 -1.66597 1.74589)
(-0.676968 -1.70731 1.03675)
(-0.763449 -1.23676 -0.359077)
(-0.675546 -1.08293 -0.158507)
(-0.58511 -1.18234 -0.368858)
(-1.04226 -1.37288 -0.413793)
(0.252681 -1.83906 1.42205)
(-0.218055 -0.567034 1.79481)
(-0.141665 -0.721501 0.92663)
(-0.145511 -1.16758 0.748739)
(-0.078565 -1.5757 1.23829)
(-0.432474 -1.80432 1.24044)
(-0.481702 -1.93537 1.52362)
(-0.53229 -1.98826 1.12847)
(-0.508151 -2.00472 1.13366)
(-0.254138 -1.88358 0.446465)
(-0.712609 -2.02085 0.693554)
(-0.401713 -1.48573 -0.689723)
(-0.385913 -1.45949 -0.13933)
(-0.275812 -1.34767 -0.323825)
(-0.209441 -1.43689 -0.962423)
(-2.02563 -0.974804 0.570436)
(0.574183 -0.437756 1.25082)
(0.0395424 -0.588193 0.514003)
(-0.0522724 -0.930445 -0.243739)
(0.233779 -1.12092 -0.8179)
(0.319864 -1.16093 -1.548)
(0.0950013 -1.2667 -1.74101)
(0.346532 -1.51725 -1.77237)
(0.256683 -1.45123 -1.77242)
(0.525728 -1.51393 -1.64669)
(0.701683 -1.60294 -0.731216)
(-0.0579591 -1.94402 -0.23724)
(-0.0745011 -1.71693 -0.74629)
(-0.170089 -1.47982 -0.518516)
(0.178012 -1.2477 -0.635578)
(-0.380189 -0.70735 -1.0478)
(-2.2825 -0.785914 0.586362)
(-2.24714 -0.34993 0.537095)
(-1.93148 -0.452699 2.09688)
(-1.96181 -0.500096 2.28718)
(-2.025 -0.298201 2.21456)
(-1.90662 -0.859819 2.45325)
(-1.97564 -0.658557 2.49858)
(-2.12904 -0.218172 2.55499)
(-2.1389 -0.82569 2.52629)
(-2.18865 -0.646889 2.58563)
(-2.20248 -0.419316 2.66943)
(-2.30493 -0.299425 2.62467)
(-2.06738 -1.10846 2.61995)
(-2.14292 -0.921881 2.62535)
(-2.20273 -0.551564 2.67747)
(-2.22202 -0.446659 2.73139)
(-1.95303 -1.40217 2.76704)
(-2.04147 -1.20627 2.79301)
(-2.164 -0.859453 2.8602)
(-2.26859 -0.546472 2.83734)
(-2.29622 -0.492272 2.78693)
(-2.10014 -1.4719 2.77088)
(-2.13976 -1.30319 2.76928)
(-2.26394 -0.986565 2.85942)
(-2.37258 -0.762603 2.8569)
(-2.40256 -0.688 2.80278)
(-2.42627 -0.49756 2.75392)
(-2.00525 -1.69545 2.84112)
(-2.19213 -1.33474 2.84732)
(-2.31707 -1.28365 2.77447)
(-2.38163 -1.15655 2.70867)
(-2.39953 -0.961878 2.64757)
(-2.39672 -0.755781 2.64406)
(-2.07572 -2.04476 2.85167)
(-2.37761 -1.69686 2.78301)
(-2.49163 -1.57342 2.64532)
(-2.4512 -1.26895 2.70486)
(-2.35943 -0.874101 2.77452)
(-2.22934 -0.868058 2.78232)
(-2.12931 -0.847275 2.80174)
(-2.12175 -2.21828 2.78057)