/*--------------------------------*- C++ -*----------------------------------*\
  =========                 |
  \\      /  F ield         | OpenFOAM: The Open Source CFD Toolbox
   \\    /   O peration     | Website:  https://openfoam.org
    \\  /    A nd           | Version:  7
     \\/     M anipulation  |
\*---------------------------------------------------------------------------*/
FoamFile
{
    version     2.0;
    format      ascii;
    class       volScalarField;
    location    "8";
    object      nut;
}
// * * * * * * * * * * * * * * * * * * * * * * * * * * * * * * * * * * * * * //

dimensions      [0 2 -1 0 0 0 0];

internalField   nonuniform List<scalar> 
18720
(
0.000224486
0.00026469
0.000209806
0.000240173
0.000152242
0.000455863
0.000246745
0.000183043
0.000298002
0.000127065
0.00025743
0.000139621
9.15077e-05
0.000976051
0.000529242
0.000510577
0.000548948
0.000179953
0.000155469
0.000190088
0.000389582
0.000115737
0.00029517
0.000115038
0.000137294
0.000272458
0.00100606
0.000638236
0.00113803
0.000708918
0.000482823
0.000484938
0.000479332
0.000529959
0.000266088
0.000202692
0.000238864
0.000447306
0.000363919
0.000353972
0.000313838
8.82329e-05
0.000175887
0.000193066
0.000185151
0.00085878
0.000811387
0.0011263
0.000738376
0.000704899
0.0004767
0.00093195
0.000857677
0.000314643
0.000627286
0.000459174
0.00086871
0.000517204
0.000534539
0.000300235
0.000305761
0.000358807
0.000322904
0.000469868
0.00041509
0.000336334
7.3848e-05
0.000139198
0.000201804
0.000371883
0.000140378
0.000500738
0.00083912
0.00101008
0.000882533
0.000713231
0.000733581
0.000941833
0.00100607
0.000721911
0.000563263
0.000769208
0.000812586
0.00106029
0.000528964
0.000719976
0.00071601
0.000596249
0.000555492
0.000306772
0.000458997
0.000275186
0.000333829
0.00035116
0.000534202
0.000394884
0.000298921
0.000261397
0.000322149
0.000178856
0.0002427
0.000155621
0.000443237
0.000145543
0.000245837
0.000398461
0.000604623
0.000497848
0.000969872
0.000859457
0.000657457
0.000791528
0.000571568
0.000847728
0.000736229
0.000912704
0.000968657
0.00124759
0.000671466
0.000559862
0.000993386
0.000796762
0.00144826
0.000444793
0.000466347
0.00110715
0.000745583
0.00106065
0.00101145
0.000618589
0.000885359
0.000578058
0.000346654
0.000414609
0.000325315
0.000536503
0.000912843
0.000335116
0.000701592
3.36972e-05
0.000261116
0.000206186
0.000292146
0.000139479
0.000443416
0.000176512
0.000442895
0.000270137
0.000479947
0.000519507
0.000797651
0.000297771
0.000822811
0.000607563
0.00108704
0.000698755
0.000474921
0.000666076
0.00102799
0.000880327
0.000590483
0.00107446
0.00091324
0.000722155
0.000915457
0.000941574
0.000887584
0.000534639
0.000455622
0.000746066
0.000897447
0.000832069
0.000448299
0.000687073
0.000726547
0.000624245
0.000339598
0.000982784
0.000982951
0.000466963
0.00155659
0.000794009
0.000952817
0.000410078
0.00027929
0.000386971
0.00065492
0.00084771
0.00054594
0.000350601
0.000699565
0.000332956
0.000174481
0.000234125
0.000265286
0.000159709
0.000334901
9.20327e-05
0.000430723
0.000298733
0.00026444
0.000502689
0.00049871
0.000471107
0.000330512
0.000381757
0.000830759
0.000878874
0.000710598
0.000798635
0.000347435
0.00062006
0.000659738
0.000469783
0.000699427
0.00091016
0.00102582
0.000578986
0.00070355
0.00107006
0.000819724
0.000904291
0.000764561
0.000746474
0.00083299
0.000962066
0.000751795
0.000555161
0.000780279
0.00055137
0.000672859
0.000681672
0.000698561
0.000629485
0.00039712
0.000879443
0.000438681
0.00110661
0.000841332
0.000789239
0.000385533
0.00137128
0.000871114
0.000633376
0.000853712
0.000373906
0.000185684
0.00049851
0.00082974
0.000282799
0.000465342
0.000611461
0.000660327
0.00057986
0.000237373
9.56181e-05
7.88359e-05
0.000239435
0.000162079
0.000434094
0.000194958
0.000306153
0.000155727
0.000201084
0.000703555
0.000415515
0.000440396
0.000456798
0.000349155
0.000386369
0.000600945
0.000491344
0.000482358
0.00066376
0.000261758
0.000667259
0.000501707
0.000428891
0.000638569
0.000666345
0.000368885
0.000699041
0.000669103
0.000567557
0.000886254
0.000676289
0.000923527
0.000617548
0.000624665
0.000878144
0.00096827
0.000680166
0.0009242
0.000679675
0.000587315
0.000995867
0.00106392
0.000812698
0.000684862
0.000323034
0.00097828
0.000394656
0.000557339
0.000839454
0.00111196
0.000862214
0.000657358
0.000725004
0.000424672
0.000582915
0.00100045
0.00061263
0.000405503
0.000468241
0.000499686
0.000947161
0.000920523
0.000549419
0.000517904
0.000430258
0.000308478
0.000525848
0.000670064
0.000452779
0.000156764
0.000341578
0.000668217
0.000954387
0.000337636
0.000836617
0.000253116
0.000181634
0.000203035
0.000213095
0.000478726
0.000304284
5.50914e-05
0.00036293
0.000141927
0.000546331
0.000702443
0.000410964
0.000266323
0.000449298
0.000427242
0.000512821
0.000233608
0.000283302
0.000300148
0.000228347
0.000608298
0.000873253
0.000536197
0.00065202
0.000685315
0.000692891
0.00022185
0.000650198
0.00054045
0.000256902
0.000581365
0.000636194
0.000246549
0.000660392
0.000716374
0.000963016
0.000963834
0.00092072
0.000541489
0.000813616
0.000518651
0.000603136
0.000907886
0.000824988
0.000649148
0.000510655
0.000844961
0.000632017
0.000769101
0.000889631
0.00108279
0.000952122
0.000656998
0.000516827
0.000736873
0.000711866
0.000345358
0.00087407
0.000503936
0.00118828
0.00143394
0.000660014
0.000589569
0.000728018
0.000633261
0.000832535
0.000544988
0.000579777
0.000988633
0.00116165
0.000390187
0.00112191
0.00142229
0.00103553
0.000801273
0.000273232
0.000337744
0.000301399
0.00047383
0.000675415
0.000742141
0.000775737
0.00021151
0.000952088
0.00130784
0.000655316
0.000173773
0.000786923
0.000377225
0.000125334
0.000313768
0.000235256
0.000623268
0.00019539
8.15186e-05
0.000706401
9.5272e-05
0.000499183
0.000636693
0.000738377
0.000309978
0.00040236
0.000439794
0.000394167
0.000189518
0.000507389
0.000287533
0.000423358
0.000436463
0.000382971
0.000440593
0.000417153
0.000609197
0.000552504
0.000421334
0.000583952
0.000695331
0.000447372
0.000419141
0.000560931
0.000797053
0.000358028
0.000434249
0.00062647
0.000245104
0.000921727
0.00102502
0.000532135
0.000338236
0.000792932
0.000839989
0.000702092
0.00101706
0.000600908
0.000298567
0.000465749
0.000741191
0.000565134
0.000746394
0.000806052
0.000972699
0.000791739
0.000526151
0.000590087
0.000958268
0.000758795
0.000627483
0.000924921
0.00093098
0.000654624
0.000637517
0.000442665
0.000468484
0.00053578
0.000667139
0.000356894
0.000894535
0.000963141
0.00105744
0.00113934
0.00111834
0.000493514
0.000646237
0.000444736
0.000484765
0.000443895
0.000941066
0.000529866
0.000910776
0.00120723
0.000352505
0.000805529
0.00175039
0.00119716
0.0012192
0.000489823
0.000154724
0.000245311
0.000440076
0.000382479
0.000594219
0.000543943
0.000599031
0.000279686
0.000798009
0.00128831
0.00104629
0.000251138
0.000373104
0.000717883
0.000392715
8.48214e-05
0.000328413
0.00010342
0.000629407
8.2284e-05
0.000492814
0.000143616
0.000317916
0.000514841
0.000526349
0.00076888
0.000337763
0.000253149
0.000436765
0.000484113
0.000426047
0.000361052
0.000365231
0.000444735
0.000277879
0.000198114
0.000373606
0.000417661
0.00055675
0.000318307
0.000374132
0.000396781
0.000458706
0.000390978
0.000527254
0.000380413
0.000182011
0.000726127
0.000436827
0.00036391
0.000503935
0.000371311
0.000596578
0.000780146
0.000779733
0.000433946
0.000492817
0.000659026
0.000486467
0.000733853
0.000616462
0.000635191
0.000462282
0.00034761
0.000657789
0.000662329
0.000618801
0.000711322
0.00079371
0.000655359
0.000443916
0.000406736
0.000648974
0.000808443
0.000769278
0.000765802
0.00111883
0.00112297
0.000591292
0.000551685
0.00059688
0.000806176
0.000982957
0.000511631
0.000899736
0.000587702
0.00122133
0.00102161
0.000457618
0.000989727
0.000677428
0.000562866
0.000677922
0.000455873
0.000845197
0.00104353
0.000838275
0.000644753
0.00120039
0.000485635
0.000939433
0.000668786
0.000427472
0.00041403
0.000965406
0.000968818
0.000470461
0.000385462
0.000621857
0.000510507
0.000573084
0.00141026
0.000873138
0.000937227
0.000650973
0.000369128
0.000318346
0.000222741
0.000531561
0.000413592
0.000569165
0.000902632
0.00013148
0.000563675
0.000493475
0.00100449
0.0012691
0.000464835
0.000431278
0.00032417
0.000534969
0.000392065
0.000118913
0.000300696
0.000167385
0.000479015
0.000201185
0.000493048
0.000150827
0.000482469
0.000384893
0.000413769
0.00071627
0.000861987
0.000765147
0.000270568
0.000364031
0.000391844
0.000332757
0.000321882
0.000402374
0.000485375
0.000495024
0.00053493
0.000510323
0.000423988
0.0003612
0.000536868
0.000632988
0.000390879
0.000398628
0.000211875
0.000355884
0.000505801
0.000367804
0.000347914
0.000411198
0.000657877
0.000627195
0.000384318
0.000307062
0.000698211
0.000606374
0.000463187
0.000355368
0.000489802
0.000612076
0.000489949
0.000825909
0.000614666
0.000818571
0.000603411
0.000436014
0.000546647
0.000599224
0.000637343
0.000773061
0.000724537
0.000512217
0.000581709
0.000549445
0.000630097
0.000880984
0.000646718
0.000775864
0.000869105
0.000639487
0.00056261
0.000467421
0.000848766
0.00099283
0.000756082
0.00058861
0.000673201
0.000955528
0.000786121
0.000654553
0.000684541
0.00045944
0.000663498
0.000723273
0.000715321
0.00111755
0.000655196
0.000866766
0.00129945
0.000619347
0.000821199
0.00130415
0.000690718
0.00040628
0.000335906
0.000519863
0.00090644
0.000526844
0.00053961
0.000568547
0.000714445
0.00106478
0.000799428
0.00112929
0.00169302
0.000579
0.0012937
0.000339442
0.000537975
0.000351138
0.0011302
0.000460299
0.000686231
0.000490771
0.000839666
0.000999726
0.00140033
0.00057617
0.000649141
0.000401872
0.000420305
0.000323332
0.000245867
0.000466104
0.000455079
0.000563197
0.00150431
0.00059898
0.000563321
0.000371269
0.00102258
0.00115367
0.000760986
0.000531096
0.000368833
0.000407386
0.000604729
0.000378079
0.000171832
0.000150011
0.000204829
0.000362161
0.000384087
5.75088e-05
0.000394731
0.000166023
0.000267224
0.000297056
0.00061585
0.00097354
0.000914621
0.000100888
0.000353595
0.000241492
0.000302961
0.000260522
0.000380989
0.000403934
0.000304499
0.00036456
0.000527997
0.000422526
0.000516343
0.000441066
0.000510801
0.000365297
0.00051764
0.0004045
0.000737271
0.000304814
0.000244347
0.000793472
0.000391233
0.000350066
0.000210456
0.000283479
0.000662355
0.000648481
0.000276832
0.0003321
0.000515307
0.000370986
0.00048463
0.000560884
0.000294473
0.000516028
0.00041277
0.000650172
0.00044984
0.000572197
0.000379184
0.000556245
0.000579218
0.00083994
0.000615133
0.000734147
0.000620719
0.00100982
0.000540451
0.000502123
0.000502042
0.000503296
0.000823813
0.000810756
0.000754581
0.000550626
0.000360721
0.000518275
0.000392995
0.000582761
0.000735517
0.000778824
0.00105892
0.00061882
0.000621881
0.000522629
0.000534049
0.000389078
0.00113481
0.000874839
0.000550239
0.00070805
0.000910949
0.000908146
0.000718332
0.00106082
0.00037825
0.000466568
0.000455295
0.000665698
0.000662509
0.000792038
0.000463402
0.00069409
0.000957859
0.00103944
0.000836888
0.000879724
0.000715314
0.000362848
0.000936076
0.000981504
0.000945575
0.00102138
0.000621537
0.000452505
0.00103134
0.000895383
0.000931954
0.001159
0.000628185
0.00150599
0.000555453
0.00070867
0.00054507
0.000344487
0.000563696
0.0007997
0.000819001
0.000441317
0.000358439
0.000861397
0.00063415
0.000961468
0.00188936
0.001043
0.000584323
0.000297376
0.000471994
0.00044509
0.000381381
0.000235292
0.000456566
0.000513166
0.000577485
0.000799548
0.000589851
0.000439179
0.000400343
0.00096776
0.00126988
0.00103835
0.000581404
0.000377348
0.000492253
0.000387739
9.28047e-05
0.00035094
0.000182936
0.000115657
0.00022554
0.000629676
0.000240005
0.000179094
0.000398895
0.000289414
0.000246161
0.000449273
0.000787602
0.000909968
0.000929007
0.000136632
0.000370736
0.000326552
0.000305195
0.000572326
0.00020583
0.000198419
0.000219262
0.000247232
0.000192981
0.000300498
0.000494149
0.000372359
0.000396287
0.000505167
0.000385339
0.000559796
0.000487778
0.000423825
0.000389308
0.000320426
0.00053794
0.000338441
0.000436011
0.000323899
0.000428231
0.000597919
0.000496495
0.000316914
0.000550791
0.000331217
0.000492188
0.000574323
0.000224936
0.000674907
0.000422591
0.00043366
0.000242996
0.000410899
0.000370024
0.000897244
0.000846115
0.000380434
0.000685713
0.000596873
0.000563642
0.000501144
0.000384398
0.000374029
0.000436792
0.000332381
0.000485158
0.000873448
0.000432721
0.00136177
0.000794464
0.00044601
0.000890009
0.000745418
0.000441642
0.00069288
0.000323037
0.000968596
0.000597765
0.000860217
0.000618763
0.000596961
0.000846099
0.000330833
0.000369132
0.000620458
0.000842354
0.000783123
0.000908244
0.000516278
0.00104044
0.000507897
0.000593116
0.000598086
0.00047421
0.000671345
0.000661584
0.000602714
0.000809335
0.000810179
0.000916288
0.000755291
0.000849927
0.000623128
0.000510111
0.000513917
0.000811112
0.000656419
0.000621406
0.000588577
0.000651482
0.000866699
0.000821173
0.00103571
0.000962562
0.000822669
0.00116423
0.000525634
0.000617256
0.00078989
0.000465468
0.000712799
0.000720377
0.000641355
0.000685901
0.000736264
0.000547268
0.000676958
0.00127531
0.000839186
0.000648423
0.000929863
0.000572999
0.000755936
0.000430026
0.000488488
0.000851885
0.000903885
0.000318275
0.000638831
0.00070324
0.000604703
0.000336556
0.000720643
0.00168482
0.00168528
0.000459487
0.000430064
0.000497854
0.000571227
0.000493347
0.000379402
0.000308679
0.000455463
0.000533583
0.000636954
0.000654096
0.000259415
0.000343239
0.000662313
0.00114264
0.00134976
0.00114528
0.000458053
0.00044574
0.00054306
0.000455377
0.000308508
0.000333325
0.000312311
0.000240573
0.000209913
0.000215767
0.000620905
0.000257739
0.000259989
0.000174436
0.0004689
0.00044227
0.000519514
0.00083874
0.00104242
0.000819228
0.000301144
0.000307952
0.000282011
0.000223921
0.000214686
0.00044112
0.00071633
0.000162765
0.000414044
0.000210254
0.000270403
0.000194955
0.0003289
0.000353779
0.0003656
0.000436306
0.00049447
0.000649858
0.000483306
0.000356471
0.000237811
0.000464959
0.000388566
0.000379703
0.000449836
0.000355921
0.000349758
0.000165726
0.000396886
0.00026293
0.000394054
0.000384034
0.000422627
0.000293815
0.000454908
0.00079804
0.000576277
0.000549115
0.000314378
0.000534412
0.000315731
0.000591713
0.000599124
0.000511707
0.00036246
0.000333529
0.000603033
0.000534954
0.000221654
0.000378437
0.00025472
0.000548427
0.000406034
0.00079013
0.000753919
0.00125008
0.00160929
0.000480792
0.000743919
0.000515601
0.000268222
0.000541811
0.00043996
0.000495827
0.00051655
0.00117917
0.00111547
0.000764629
0.000774181
0.000579309
0.000573321
0.000531379
0.000647198
0.00033682
0.000655898
0.000588694
0.00155712
0.000781466
0.000645859
0.000586325
0.000439476
0.000126085
0.000700024
0.000925106
0.000875458
0.000641901
0.000913127
0.00052352
0.00115643
0.000938785
0.000590123
0.000527118
0.000516422
0.000348583
0.000524263
0.000642065
0.000809878
0.000614997
0.000733458
0.000876329
0.00114375
0.000802528
0.000902768
0.000574833
0.000791603
0.000510132
0.000675288
0.000727747
0.000649353
0.000700603
0.000696527
0.000791048
0.000796593
0.00130082
0.00096596
0.000844908
0.00129728
0.000518669
0.000319409
0.00080653
0.000479769
0.0002617
0.000750627
0.000703635
0.000252776
0.00103022
0.000426175
0.000225025
0.000583515
0.000985313
0.00135781
0.000459531
0.000805378
0.000534965
0.00086704
0.000408398
0.00036572
0.000517511
0.000570056
0.000631821
0.000539946
0.000827776
0.000505063
0.000501014
0.000569454
0.00061772
0.0011339
0.00168927
0.000944396
0.000762537
0.000518277
0.000583143
0.000598771
0.000414931
0.000272673
0.000451564
0.000380933
0.000503174
0.0006362
0.00054266
0.000349846
0.000308877
0.000522758
0.000842077
0.000742091
0.00125724
0.000432629
0.000607003
0.000532233
0.000468383
0.000434062
0.000335211
0.000256334
0.000268764
0.000299851
0.000170165
0.000211949
0.000574717
0.000169631
9.79598e-05
0.000125936
0.000728847
0.000260732
0.000296714
0.000583615
0.000984469
0.000700944
0.00051563
0.000271762
0.000220027
0.000184532
0.000191543
0.000411997
0.000251683
0.000356837
0.000419049
0.000483977
0.000431172
0.000170482
0.000198894
0.000475019
0.000292361
0.000335384
0.000171555
0.000235335
0.000577262
0.000318287
0.000265945
0.000171074
0.000377312
0.000353086
0.000372323
0.000370422
0.000338633
0.000357956
0.000421117
0.000220692
0.000589649
0.000369394
0.000440175
0.000489612
0.000428457
0.000570867
0.000346915
0.000335361
0.000549062
0.00049182
0.000392929
0.000458776
0.000429178
0.000571788
0.000481291
0.000785894
0.000371538
0.000432287
0.000367449
0.000323933
0.000381667
0.000167827
0.00052859
0.000309724
0.000646961
0.000944313
0.00113921
0.00134268
0.000286426
0.000392841
0.000385669
0.000312089
0.000273263
0.000348982
0.000493
0.000200627
0.0012843
0.00116792
0.000824576
0.000574348
0.00049961
0.000538888
0.000436717
0.000323482
0.000662244
0.000743769
0.000700069
0.00114546
0.00127134
0.000670776
0.000500079
0.000938809
0.000492492
0.000557971
0.000655214
0.00049612
0.000668136
0.000771798
0.00074019
0.00072509
0.00146827
0.000833251
0.000498513
0.000659791
0.000470741
0.00045717
0.00035362
0.000791787
0.000606904
0.000790749
0.000695564
0.000646403
0.000904053
0.00100174
0.000975599
0.000459612
0.000878178
0.000658678
0.00048617
0.000437117
0.000667263
0.000743565
0.000551228
0.000885498
0.000868727
0.001162
0.000907389
0.000861584
0.000741101
0.000916104
0.000611768
0.000805685
0.000519799
0.000609716
0.000844306
0.000845695
0.000484336
0.000406052
0.000594371
0.00133456
0.00107682
0.000840802
0.000894056
0.000711263
0.00034147
0.000812357
0.000460835
0.000572833
0.000413745
0.000681981
0.000622778
0.000267626
0.000622626
0.000595714
0.000472958
0.000599614
0.000843605
0.00130116
0.000883775
0.000412558
0.000466218
0.000846138
0.000314276
0.000484913
0.000808733
0.000438611
0.000616744
0.000414477
0.00059884
0.000393894
0.000752059
0.000303934
0.000399554
0.000566468
0.000858541
0.00160867
0.00168226
0.000742113
0.000645649
0.000495001
0.000570554
0.000492967
0.000282934
0.000395839
0.000467581
0.000323057
0.00047132
0.000627826
0.000404265
0.000353447
0.000310301
0.000351034
0.000256126
0.000423133
0.00118426
0.000574947
0.000642817
0.000429195
0.000439299
0.000482726
0.000464457
0.000439033
0.000253467
0.000222882
0.000243896
0.000145394
0.000221923
0.000541337
0.00028751
0.000104587
0.000433786
9.70997e-05
0.000252071
0.000123018
0.000464684
0.00060732
0.000608955
0.000637277
0.000313034
0.000124269
0.000286833
0.000181491
0.000465047
0.000308861
0.000366024
0.000270936
0.000611108
0.000307125
0.000613537
0.000513728
0.000633015
0.000209197
0.000202962
0.000478084
0.000388281
0.000275323
0.00067092
0.000443461
0.000476768
0.000361298
0.000291283
0.000284376
0.000446057
0.00038305
0.000272628
0.000339368
0.000379862
0.000295293
0.000456221
0.000329345
0.000305316
0.000354572
0.000300721
0.00041373
0.000442334
0.000421856
0.000491265
0.000454603
0.000404879
0.000374552
0.000441519
0.000519309
0.000528891
0.000471161
0.000507516
0.00033834
0.000381526
0.000452144
0.000340163
0.000590332
0.000381632
0.000283463
0.000597436
0.000225396
0.000751252
0.00134264
0.000433543
0.000281239
0.000373925
0.000369282
0.000369434
0.000397316
0.000439443
0.000620124
0.00118598
0.000896106
0.00127026
0.000270418
0.000389734
0.000387317
0.000397573
0.000304163
0.000608561
0.000662147
0.000281987
0.000943059
0.00148494
0.000823232
0.000483464
0.000558598
0.000503785
0.000614263
0.000592423
0.000263283
0.00032611
0.000316408
0.00049664
0.000994033
0.00165065
0.000701375
0.00037522
0.00059991
0.000558915
0.000471079
0.000635157
0.000625326
0.000407181
0.00086618
0.000586847
0.000896689
0.000824819
0.00219932
0.000873515
0.000491279
0.000725997
0.00099742
0.000434278
0.000611919
0.00017233
0.000572304
0.000871739
0.000895315
0.000634366
0.000837341
0.000583504
0.000651899
0.000786406
0.000514972
0.000858083
0.000700248
0.000857281
0.00032254
0.000523589
0.000768065
0.000637147
0.000623518
0.000774146
0.000861974
0.000727966
0.000924506
0.000768278
0.000545541
0.000686949
0.000701109
0.000921552
0.000655803
0.000669583
0.000791877
0.000870449
0.000731985
0.000622928
0.00054781
0.00061239
0.00114325
0.00131476
0.00141722
0.000772256
0.000672126
0.000257098
0.000902433
0.000496574
0.000613136
0.000644672
0.000871687
0.000667287
0.000597435
0.000541825
0.000593118
0.000528757
0.000423978
0.000527007
0.000745617
0.000892798
0.00102168
0.00041955
0.000428008
0.000782866
0.000342109
0.000596883
0.000769284
0.00106397
0.000459045
0.00060415
0.000506822
0.000810869
0.000280601
0.00026984
0.000387082
0.000317473
0.000477481
0.00083789
0.00109356
0.00171236
0.000497152
0.000672442
0.000378902
0.000561989
0.000567302
0.000360927
0.000384021
0.000365335
0.00043367
0.000373138
0.000563703
0.000590117
0.000296938
0.000460446
0.000320245
0.000379722
0.000748235
0.000295432
0.00146908
0.000754815
0.00064894
0.000343304
0.000371786
0.000492205
0.000568584
0.000524952
0.000611087
0.000194247
0.000201598
0.000220322
0.000212583
0.000216672
0.000510211
0.000330845
0.000349783
0.000202302
0.000176215
0.000123319
0.000156987
0.000365727
0.000350237
0.000572427
0.000612579
0.000309992
0.000137784
0.000364707
0.000124454
0.000181431
0.000524078
0.000454547
0.00020649
0.000326943
0.000366637
0.00023676
0.000287344
0.000422585
0.000420118
0.000436364
0.000233797
0.000287975
0.000357162
0.000246749
0.000662259
0.000503186
0.000302322
0.000179585
0.000360686
0.000259105
0.000290862
0.000352182
0.000453395
0.000408378
0.000419262
0.000256318
0.000338325
0.000216877
0.000306987
0.000267093
0.000344709
0.000397109
0.000436045
0.000309416
0.000660797
0.000408657
0.000322486
0.000453124
0.00038738
0.000235605
0.000369638
0.000312973
0.000575246
0.000672952
0.000382425
0.000360882
0.000362748
0.000466845
0.000490388
0.000468173
0.000512382
0.000241825
0.000218852
0.000703312
0.000391661
0.000423695
0.000352832
0.000394609
0.000265398
0.000332778
0.000397061
0.000979669
0.000935659
0.00074333
0.000905189
0.000152395
0.000489743
0.00055345
0.000351121
0.000518614
0.000318184
0.000354387
0.000837808
0.000279857
0.00109944
0.000906172
0.000568358
0.000460861
0.000275838
0.00027676
0.000550922
0.000242278
0.000479533
0.000410961
0.000208412
0.000454518
0.00128754
0.00112592
0.000350635
0.000504114
0.000420268
0.000492357
0.000608605
0.000516573
0.000301137
0.000305155
0.00052475
0.000665684
0.000480908
0.00169786
0.000849494
0.000227595
0.000619972
0.000616511
0.00046433
0.000680744
0.000394732
0.000533069
0.000511096
0.000687915
0.000643187
0.00080577
0.000868025
0.00118223
0.000930808
0.000510595
0.00057253
0.0007721
0.000670261
0.000628697
0.000585607
0.000373088
0.000415105
0.000867476
0.000875262
0.000826027
0.00108319
0.000656319
0.000646856
0.000715877
0.000820436
0.000789876
0.0011692
0.00104339
0.000394602
0.000341755
0.000962651
0.000697897
0.000809474
0.000440232
0.000743835
0.00123653
0.00123966
0.000676176
0.000772293
0.000684254
0.000667269
0.000685352
0.000604083
0.00125784
0.00040555
0.000660491
0.000847766
0.000513294
0.000642168
0.000608558
0.000711028
0.000883897
0.000932627
0.00150593
0.000974288
0.000850182
0.000703872
0.000420872
0.000686488
0.000730483
0.000442584
0.000942975
0.00100379
0.00107191
0.000688009
0.00052424
0.000698758
0.000353098
0.00053299
0.000680675
0.000747803
0.000523871
0.000965082
0.00092296
0.000585064
0.00066402
0.000825247
0.000385881
0.000433396
0.000713026
0.00110818
0.000773781
0.000342033
0.000805894
0.000511865
0.00117978
0.000280504
0.000425233
0.000670432
0.00042976
0.000323334
0.00063068
0.000860342
0.00159927
0.000522607
0.000282248
0.000516973
0.00064417
0.000501253
0.000326211
0.000602064
0.000371715
0.000179969
0.000479851
0.000455269
0.000605063
0.000532598
0.000378714
0.00046474
0.000351016
0.000295941
0.000962875
0.000267057
0.00169514
0.000916027
0.000572949
0.000363812
0.000327552
0.000580497
0.000504754
0.000578902
0.000187656
0.000234735
0.000118616
0.000201253
0.000230019
0.000210626
0.000202355
0.000477107
0.000104612
7.5155e-05
0.000155193
0.000253569
0.000152677
9.81068e-05
0.000275047
0.000178084
0.000539206
0.000467551
0.000370226
0.00016793
0.000330276
0.000149487
0.00021931
0.000100085
0.000677324
0.000415566
0.00058106
0.000533073
0.000427943
0.000267393
0.000234163
0.000333197
0.000289845
0.000274543
0.000346684
0.000127594
0.000339138
0.000301319
0.000320415
0.000427896
0.000421461
0.000461009
0.000407539
0.000246038
0.000553723
0.000352158
0.000542225
0.000324289
0.000374637
0.000224214
0.000576253
0.000258397
0.000402565
0.000418898
0.000359098
0.000345879
0.000228528
0.000370299
0.000291289
0.000364997
0.000219264
0.000228588
0.000387039
0.000417714
0.000586439
0.00022485
0.000406483
0.000463731
0.00036339
0.000385001
0.000407879
0.000420564
0.000447352
0.000329038
0.000436957
0.000485121
0.000346942
0.000865049
0.000382895
0.000427807
0.000424933
0.000231378
0.000360647
0.000260743
0.000214207
0.000392924
0.000250788
0.000269242
0.000465421
0.000256547
0.000499906
0.000338155
0.000341691
0.000420624
0.000346086
0.000481178
0.000542363
0.000886347
0.00116567
0.000918253
0.000965518
0.000434066
0.000349916
0.000431471
0.000562539
0.000384874
0.000769501
0.000663165
0.000471422
0.000905907
0.00127646
0.000981082
0.000824366
0.000496355
0.00026196
0.000357149
0.000334076
0.000354261
0.000358229
0.000172633
0.000659809
0.000696953
0.000478697
0.00150376
0.000920176
0.000500677
0.000587406
0.000559143
0.000596571
0.000377191
0.000371565
0.000580031
0.000333776
0.000648861
0.000660367
0.000403924
0.00117845
0.00122369
0.0010648
0.000479218
0.000636502
0.000572941
0.000919718
0.000475157
0.000635133
0.000693686
0.000450756
0.000489073
0.000782295
0.000617581
0.000486056
0.000957991
0.000792612
0.00119261
0.000691461
0.000662792
0.00090959
0.00117762
0.000686326
0.000768155
0.00078159
0.000502453
0.00040186
0.000880661
0.000632439
0.00092442
0.000667379
0.000938604
0.000780325
0.000577867
0.000691017
0.00053748
0.00112897
0.000937601
0.0014439
0.000306526
0.000445951
0.000365749
0.000587513
0.000509931
0.000990905
0.00063439
0.00126868
0.000694972
0.000902564
0.000715442
0.000526984
0.000471962
0.000903888
0.000559941
0.001285
0.00106986
0.000568764
0.000855512
0.000590725
0.000631879
0.00113185
0.000833311
0.00055136
0.000589322
0.000864271
0.00122659
0.00130805
0.00100882
0.000787179
0.00044593
0.000773025
0.000879387
0.000202459
0.000818071
0.000965086
0.000702418
0.000808197
0.000693309
0.000543825
0.000859015
0.00120438
0.000588818
0.000720015
0.0013335
0.000679951
0.000719035
0.000797532
0.00119775
0.000777508
0.000725922
0.000632793
0.000415039
0.000672553
0.00106366
0.000864293
0.000199764
0.000963834
0.000482666
0.000898826
0.000324981
0.000797777
0.00044943
0.000476208
0.00100011
0.000431076
0.000533577
0.00107024
0.00135263
0.00110616
0.000333535
0.000365567
0.00079076
0.000521915
0.000379321
0.0005417
0.00143032
0.000450762
0.000428765
0.000584802
0.000423265
0.000556712
0.000626789
0.000318187
0.000297078
0.000403174
0.000316148
0.000922264
0.000330479
0.00110326
0.00107
0.000445545
0.000454698
0.000416219
0.000592123
0.000598824
0.000307286
0.000597691
0.000397708
0.000258645
0.000204625
0.000249342
0.000238001
0.000170101
0.00023138
0.000416145
0.000300987
5.27112e-05
0.000277825
0.000152639
0.000262815
0.000244026
0.000181867
0.000194137
0.000428371
0.000381714
0.000348853
0.000212304
0.000220552
0.000207835
0.000235829
0.000109118
8.07488e-05
0.00128368
0.000705756
0.000689339
0.000781643
0.000517836
0.000616697
0.000533489
0.000556178
0.000388072
0.000504814
0.000259179
0.000353804
0.000350876
0.000646042
0.000321184
0.00027019
0.000263628
0.00047077
0.00042313
0.000335989
0.000298405
0.000471979
0.000281914
0.000400794
0.000385138
0.00035765
0.000401174
0.000218362
0.000326996
0.000413504
0.000476843
0.000375464
0.000555416
0.000293582
0.00041011
0.00021694
0.000223045
0.000406337
0.000347944
0.000401004
0.000537805
0.000552648
0.000773265
0.000395369
0.000421173
0.000234339
0.000371079
0.000416595
0.000348469
0.000518632
0.000515476
0.000373301
0.000428163
0.000641676
0.000338562
0.000376698
0.000348485
0.000397224
0.000312999
0.000328648
0.00037819
0.000250715
0.000366307
0.00052476
0.000313976
0.000259169
0.000494973
0.000400369
0.000342376
0.000313877
0.000419329
0.000446005
0.000538519
0.00101404
0.000322449
0.000466937
0.00111006
0.000368853
0.000327713
0.00040406
0.000427347
0.000336783
0.000402942
0.000399017
0.000491189
0.000888081
0.00102543
0.00112494
0.000680387
0.000636018
0.00038804
0.000338428
0.00030183
0.000496001
0.00028975
0.000429249
0.000313008
0.000450535
0.000364968
0.000967772
0.00144236
0.00135878
0.000968641
0.0008686
0.000380289
0.000183701
0.000357087
0.000251691
0.000349743
0.000379444
0.00028928
0.000665683
0.000625836
0.00091128
0.00094802
0.000506347
0.000681448
0.000936889
0.0010161
0.000581677
0.00055387
0.000298584
0.000363658
0.000421691
0.000380469
0.000463285
0.000350942
0.000665093
0.000725035
0.00172374
0.000628504
0.000380736
0.000926339
0.000530325
0.000663236
0.000875814
0.000597307
0.000562551
0.000555961
0.000338568
0.000468364
0.000780529
0.000665329
0.000854498
0.000624026
0.00120969
0.000685818
0.000671911
0.000642919
0.0010425
0.000602759
0.000537165
0.000597219
0.000720968
0.000585485
0.000526375
0.000607333
0.000657297
0.0010658
0.000417661
0.000839114
0.000620524
0.00058594
0.000662202
0.000438979
0.000826509
0.00103919
0.000857911
0.000365876
0.000654398
0.000626525
0.000706787
0.000708244
0.000505468
0.00103833
0.000487796
0.000923278
0.00119903
0.00067968
0.000715003
0.000648803
0.000669509
0.000774232
0.000510551
0.00074664
0.000642452
0.00068988
0.000561118
0.000644959
0.000580592
0.00045795
0.000506003
0.000859055
0.000800269
0.000765869
0.000825127
0.00116106
0.000903949
0.00142553
0.000780786
0.000602419
0.000700364
0.000722629
0.00103803
0.000721655
0.00104626
0.000823329
0.000538682
0.000548707
0.000619505
0.000576549
0.000854532
0.000577934
0.000895617
0.00069148
0.00108304
0.000656844
0.00100088
0.00104441
0.000938501
0.000305055
0.000455365
0.00071767
0.000304655
0.000725148
0.00109408