/*--------------------------------*- C++ -*----------------------------------*\
  =========                 |
  \\      /  F ield         | OpenFOAM: The Open Source CFD Toolbox
   \\    /   O peration     | Website:  https://openfoam.org
    \\  /    A nd           | Version:  7
     \\/     M anipulation  |
\*---------------------------------------------------------------------------*/
FoamFile
{
    version     2.0;
    format      ascii;
    class       volVectorField;
    location    "8";
    object      U;
}
// * * * * * * * * * * * * * * * * * * * * * * * * * * * * * * * * * * * * * //

dimensions      [0 1 -1 0 0 0 0];

internalField   nonuniform List<vector> 
18720
(
(0.149336 0.119992 -1.39917)
(-0.218498 0.263982 -1.57898)
(0.0991416 0.126481 -1.41665)
(0.200374 0.110353 -1.37688)
(-0.0165401 0.501299 -1.5132)
(-0.575853 1.885 -0.892965)
(-0.241955 0.282011 -1.58444)
(-0.184151 0.245617 -1.57921)
(-0.176332 0.770013 -1.49709)
(-0.0385743 0.505714 -1.54933)
(0.249943 0.0952855 -1.35337)
(0.0101888 0.497188 -1.48011)
(-0.053533 0.677731 -1.68445)
(0.381759 3.33475 -0.0985085)
(-0.788537 1.80575 -0.984432)
(-0.219308 1.96582 -0.754325)
(-0.534536 1.96108 -0.733046)
(-0.109773 0.795687 -1.56703)
(-0.0808406 0.250784 -1.56527)
(-0.0942337 0.758658 -1.43835)
(-0.518602 1.27964 -1.57636)
(-0.0764723 0.684537 -1.69656)
(0.31202 0.077724 -1.32806)
(0.0363274 0.487082 -1.45283)
(-0.0371021 0.666862 -1.6733)
(-0.33075 0.867474 -1.48433)
(0.123512 3.84439 1.14188)
(0.45909 3.28777 -0.143811)
(0.397196 3.34997 0.502168)
(0.413113 3.13061 -0.0701694)
(-0.638108 1.86486 -0.889488)
(0.0183105 1.98554 -0.645201)
(-0.42915 2.01878 -0.630261)
(-0.647017 1.89215 -0.645465)
(-0.53592 1.29794 -1.52858)
(0.0226317 0.23847 -1.52012)
(-0.0194269 0.716407 -1.40073)
(-0.596698 1.28831 -1.60262)
(-0.905646 1.44056 -1.52441)
(-0.249757 0.871202 -1.49918)
(0.378893 0.0566505 -1.30512)
(0.0554634 0.48362 -1.43156)
(-0.0563125 0.656011 -1.66415)
(-0.342798 0.841786 -1.50964)
(-0.669834 1.08905 -1.36318)
(0.205792 3.54572 2.67935)
(-0.0906293 3.86013 1.03484)
(0.438033 3.80983 1.4872)
(0.053572 3.5088 1.1658)
(0.151002 3.09708 -0.257116)
(0.494317 3.32026 0.803395)
(0.237874 3.11733 0.119087)
(0.369826 3.10076 -0.697564)
(-0.643223 1.87668 -0.677855)
(0.0862635 2.01061 -0.559082)
(-0.360822 2.05799 -0.537612)
(-0.432508 2.04542 -0.290848)
(-0.672062 2.28095 -0.292855)
(-0.915104 1.38293 -1.48504)
(0.105921 0.216009 -1.45379)
(0.133961 0.650355 -1.35523)
(-0.583584 1.24814 -1.70398)
(-0.872261 1.43605 -1.5661)
(-0.412847 2.19083 -0.480873)
(-0.755655 1.0544 -1.28665)
(0.448735 0.0298983 -1.28615)
(0.0753278 0.478631 -1.42199)
(-0.0685461 0.645915 -1.65846)
(-0.375262 0.838697 -1.52263)
(-0.659991 1.04363 -1.37789)
(-0.612724 1.89611 -0.674077)
(0.7414 3.44921 2.99026)
(0.0107016 3.49491 2.6776)
(0.65803 3.4734 2.74895)
(0.413917 3.19768 2.12161)
(-0.181559 3.49237 1.29884)
(0.62099 3.83739 1.68914)
(0.237968 3.44949 1.19906)
(0.466821 3.11263 1.00596)
(-0.246122 3.03723 -0.859506)
(0.790308 3.34443 0.555179)
(0.204459 3.08381 0.27136)
(0.546673 3.20332 -0.577111)
(-0.685134 2.65596 -0.505101)
(-0.743439 2.25909 -0.537883)
(0.10818 2.04375 -0.446189)
(-0.354962 2.05348 -0.51075)
(-0.371388 2.17365 -0.20307)
(-0.485034 2.32347 -0.0872279)
(-0.487211 2.51534 -0.367979)
(-0.478502 2.14225 -0.355604)
(0.197155 0.199644 -1.37672)
(0.228502 0.58706 -1.27286)
(-0.598048 1.24327 -1.70782)
(-0.862353 1.47645 -1.53502)
(-0.261105 2.21266 -0.55969)
(-0.283708 2.47852 -0.503359)
(-0.619121 1.87392 -0.682535)
(0.526048 -0.00536326 -1.2701)
(0.094718 0.468931 -1.41826)
(-0.0448307 0.618255 -1.66177)
(-0.391966 0.82724 -1.52436)
(-0.44886 1.07839 -1.46848)
(-0.607673 1.90941 -0.642042)
(-0.174956 1.98922 -0.355645)
(0.544536 3.43508 2.68508)
(0.841491 3.5398 2.71406)
(0.760172 3.4259 2.9882)
(0.189852 3.24027 2.35836)
(0.375372 3.33563 1.7829)
(0.91304 3.52238 2.71312)
(0.29711 3.14946 2.29197)
(0.486045 3.22265 1.59404)
(0.171629 3.21158 0.791369)
(0.631474 3.86644 1.76972)
(0.497157 3.42732 1.34271)
(0.726616 3.10709 0.992572)
(0.650079 2.88127 0.395994)
(-0.825933 2.58854 -0.587127)
(1.22465 3.27182 0.62228)
(0.624968 3.06015 0.512002)
(0.41409 3.33851 -0.36169)
(-0.0472412 2.83037 -0.0987216)
(0.119357 2.37581 -0.815692)
(-0.410531 2.48008 -0.509838)
(0.911888 1.93404 -0.120009)
(-0.122533 2.15368 -0.103504)
(-0.152995 2.22399 0.0101922)
(-0.261264 2.35661 0.0911305)
(-0.434077 2.53326 -0.326636)
(0.256719 2.48534 -0.704616)
(-0.28758 2.40544 -0.481695)
(0.264428 0.215064 -1.29394)
(0.191313 0.555217 -1.19388)
(-0.584661 1.24098 -1.71496)
(-0.794735 1.5613 -1.55003)
(-0.0942946 2.21543 -0.592679)
(-0.285422 2.51244 -0.453296)
(0.299179 2.39307 -0.178987)
(-0.169678 1.9975 -0.3548)
(0.586019 -0.0375246 -1.2612)
(0.157919 0.448376 -1.41835)
(0.0360506 0.577867 -1.6666)
(-0.40537 0.819659 -1.52084)
(-0.623146 1.12938 -1.44085)
(-0.573287 1.92559 -0.605677)
(-0.245951 2.01343 -0.263334)
(0.397185 1.94138 -0.0732797)
(0.477173 3.12191 2.71256)
(0.591734 3.46404 2.63377)
(0.759659 3.38373 2.74031)
(0.714426 3.35771 2.5733)
(0.272407 3.32166 2.0644)
(1.05455 3.4931 2.88876)
(1.1338 3.1332 2.53137)
(0.710718 3.07351 2.00114)
(0.486714 3.20117 1.66999)
(0.975993 3.4695 2.90179)
(0.505424 3.17634 2.24213)
(0.738371 3.1788 1.51816)
(0.969816 3.12702 1.63403)
(0.098191 2.71028 0.589596)
(0.837096 3.78326 1.82102)
(0.765825 3.43441 1.39002)
(0.582318 3.1065 1.28319)
(0.85275 2.99486 0.424825)
(0.342187 2.38502 -0.176511)
(-0.098105 2.35657 -0.612973)
(1.2618 3.2295 0.747463)
(1.04994 3.0424 0.784238)
(0.652394 3.31988 -0.0806846)
(0.250255 3.02291 -0.0976243)
(0.0212816 2.44678 -0.703152)
(0.899237 2.3869 -0.832385)
(0.289804 2.42426 -0.877257)
(1.47659 1.67718 -0.458643)
(0.0477133 2.16553 -0.118212)
(0.271122 2.26095 0.63969)
(0.326592 2.40199 0.511004)
(-0.245231 2.57564 0.0553856)
(0.117163 2.58049 -0.300223)
(1.10456 2.23369 -0.565377)
(0.462434 2.29721 -0.482326)
(0.360577 0.245189 -1.1993)
(0.186593 0.522886 -1.12715)
(-0.535853 1.23185 -1.63997)
(-0.695066 1.58474 -1.4686)
(0.34434 2.25035 -0.782325)
(-0.245372 2.53102 -0.260195)
(0.290974 2.44035 -0.229552)
(1.25275 1.8491 -0.462677)
(0.42819 1.9089 -0.169033)
(0.633097 -0.0670743 -1.25759)
(0.18496 0.431265 -1.41751)
(0.079036 0.549606 -1.65942)
(-0.405932 0.819089 -1.52178)
(-0.598278 1.13423 -1.50007)
(-0.544497 1.94185 -0.576184)
(-0.241913 2.02819 -0.181764)
(0.417548 1.93179 -0.0535349)
(0.728456 1.22138 -0.0635461)
(0.38641 2.96782 2.59255)
(0.363165 3.14046 2.64619)
(0.530131 3.15832 2.76964)
(0.616961 3.12304 2.67489)
(0.636506 3.29594 2.61968)
(1.41847 3.09225 2.74251)
(0.782988 3.31162 2.61452)
(0.816548 2.96656 2.46734)
(0.620781 3.05468 1.92523)
(1.08601 3.62255 2.77085)
(1.21673 3.18586 2.71637)
(0.471002 3.02287 2.20015)
(1.17978 2.89345 1.8499)
(0.801542 3.03429 1.65006)
(1.31509 3.35624 2.97661)
(0.988166 3.14206 2.22182)
(0.849702 3.02742 1.71521)
(1.01132 3.13496 1.62299)
(0.788721 2.58027 1.41311)
(0.198668 2.32646 -0.193164)
(1.07081 3.70926 1.85114)
(1.01861 3.34079 1.36017)
(0.564313 3.03028 1.46746)
(1.27967 2.86613 0.720125)
(0.429293 2.47736 -0.0650407)
(0.795495 2.47903 -0.18728)
(0.910159 2.34201 -0.985905)
(1.53057 3.05222 0.63982)
(1.31735 3.04142 0.860444)
(0.797948 3.18992 0.348797)
(0.548885 3.04852 -0.401218)
(0.0459677 2.44062 -0.659916)
(0.75242 2.43997 -0.629794)
(1.74736 1.90929 -0.801019)
(1.13193 2.17971 -0.962587)
(1.63337 1.65801 -0.601548)
(0.320689 2.13731 0.0364319)
(0.124175 2.3783 0.615402)
(0.716542 2.38669 0.173128)
(-0.198878 2.56401 0.0511728)
(0.0522325 2.64124 0.448148)
(0.804859 2.29127 -0.611844)
(1.568 1.38649 -1.48225)
(1.39563 1.84878 -0.638115)
(0.482316 0.250536 -1.10225)
(0.276553 0.46825 -1.07467)
(-0.474222 1.19358 -1.50563)
(-0.532672 1.65924 -1.19109)
(0.387003 2.24237 -0.895004)
(0.013457 2.58291 -0.255372)
(0.175026 2.49253 -0.187858)
(1.18391 1.85242 -0.323161)
(1.60751 1.20949 -1.62423)
(0.731482 1.20085 -0.0605601)
(0.65485 -0.0877268 -1.26534)
(0.261779 0.387196 -1.41364)
(0.134539 0.503965 -1.65418)
(-0.350745 0.777738 -1.57872)
(-0.595328 1.18256 -1.52948)
(-0.484545 1.92597 -0.582062)
(-0.245648 2.08129 -0.128689)
(0.402478 1.92985 0.0979186)
(0.687964 1.24463 -0.069844)
(0.908018 0.942935 -0.404757)
(0.229531 2.92084 2.42228)
(0.173045 2.96953 2.56477)
(0.591782 2.9395 2.58266)
(0.650555 2.88513 2.64286)
(0.578656 3.14525 2.66087)
(0.781895 3.00959 2.78326)
(0.648866 3.11043 2.71433)
(0.619121 3.00771 2.59073)
(0.444147 3.11961 2.31867)
(1.18996 3.29075 2.48144)
(1.47857 3.01643 2.67384)
(0.753173 2.94358 2.52908)
(1.39132 2.69271 2.1014)
(1.06368 2.89546 1.67024)
(1.34424 3.52953 2.70838)
(1.50059 3.2052 2.70186)
(0.794698 2.95044 2.35939)
(1.16242 2.93582 2.00403)
(0.934293 2.66843 1.93482)
(0.509654 2.60702 1.45026)
(1.75604 3.28163 2.87436)
(1.18435 3.0837 2.32132)
(0.842506 2.9972 1.73941)
(1.03574 3.1206 1.61597)
(1.35026 2.60842 1.13309)
(0.785145 2.61567 0.641389)
(0.684756 2.5119 -0.122062)
(1.49671 3.57317 1.97111)
(1.36146 3.24424 1.20331)
(0.536483 3.06628 1.41618)
(1.11682 2.95636 0.612523)
(0.529235 2.60703 0.0700858)
(0.904533 2.4354 -0.279326)
(1.64489 2.18322 -0.581137)
(1.61092 1.94475 -0.961292)
(1.80767 2.92037 0.484024)
(1.51484 3.05266 0.979743)
(0.818587 3.16942 0.371932)
(0.997952 2.99298 -0.159766)
(0.132747 2.57451 -0.280667)
(0.669134 2.48358 -0.462187)
(1.69506 1.99518 -0.790755)
(1.69177 1.65512 -1.1262)
(1.25564 1.505 -1.45328)
(1.74973 1.65825 -0.563304)
(1.15421 1.96665 0.413692)
(0.0874189 2.42838 0.762586)
(0.766288 2.40751 -0.0326158)
(0.0306913 2.58148 0.167246)
(0.0584185 2.67769 0.785002)
(0.580801 2.37293 -0.413033)
(1.65797 1.42547 -1.36651)
(0.311711 1.08822 -1.66787)
(1.57286 1.2638 -1.6426)
(0.504198 0.289055 -1.05772)
(0.339853 0.454273 -1.03584)
(-0.440285 1.17577 -1.36371)
(-0.305802 1.66109 -1.02119)
(0.495325 2.26237 -0.741195)
(-0.0207466 2.63253 -0.205823)
(0.0684318 2.55333 -0.000169778)
(1.11553 1.89393 -0.18375)
(1.63997 1.09126 -1.46577)
(1.26404 1.1823 -1.89097)
(0.894961 0.941062 -0.579294)
(0.634019 -0.0851809 -1.28463)
(0.180981 0.443647 -1.40477)
(0.153034 0.469762 -1.63663)
(-0.350164 0.774098 -1.59346)
(-0.654336 1.21634 -1.57266)
(-0.424877 1.94742 -0.527048)
(-0.260241 2.08727 -0.138583)
(0.415089 1.95809 -0.125778)
(0.682475 1.2497 -0.0519816)
(0.92281 0.946311 -0.259865)
(0.953556 1.04675 -0.717593)
(0.293717 2.67525 2.45169)
(0.237847 2.9074 2.42931)
(0.583032 2.86422 2.42632)
(0.542335 2.83226 2.48026)
(0.426987 2.92981 2.58857)
(0.966349 2.80949 2.59192)
(0.657023 2.92828 2.62618)
(0.774722 2.75124 2.64648)
(0.601395 3.01097 2.62282)
(0.949494 2.83109 2.81652)
(0.938741 2.96412 2.74754)
(0.815835 3.00173 2.61119)
(1.39488 2.68139 2.56971)
(1.05735 2.81408 2.14422)
(1.13311 3.26052 2.57005)
(1.35291 3.08289 2.56577)
(1.1927 2.85779 2.56386)
(1.12331 2.77566 2.15931)
(1.32074 2.58372 2.24638)
(0.940065 2.59232 1.85224)
(1.68954 3.51632 2.53693)
(1.48887 3.19046 2.78844)
(0.630069 2.99983 2.58942)
(1.42128 2.87755 2.08742)
(1.15793 2.6484 1.91348)
(1.18985 2.46306 1.20012)
(0.84316 2.6546 0.430957)
(1.93191 3.21221 2.92195)
(1.52112 2.91227 2.43127)
(0.958301 2.98468 1.8039)
(1.05688 3.09622 1.60577)
(1.3419 2.6492 1.29977)
(0.805014 2.58442 0.988375)
(1.31008 2.57646 0.243393)
(1.45702 2.27476 -0.487023)
(1.52938 3.52149 1.98078)
(1.44623 3.23543 1.14637)
(0.80664 2.95993 1.56831)
(1.09287 2.87578 0.990907)
(0.900309 2.61059 0.294359)
(0.975518 2.40614 -0.303513)
(1.65109 2.23472 -0.498112)
(1.56362 2.25016 -0.646508)
(1.26149 1.73923 -1.30911)
(2.27239 2.57421 0.408962)
(1.66041 3.04486 1.07017)
(1.00033 3.1359 0.647042)
(1.11435 2.96723 0.0208052)
(0.518171 2.68999 -0.000855592)
(0.500668 2.65344 -0.0127858)
(1.65275 2.09836 -0.712279)
(2.01634 1.60399 -1.00828)
(0.541085 1.71891 -1.53762)
(0.0746978 1.28216 -1.51866)
(1.92654 1.6108 -0.170784)
(1.38282 1.94363 0.301478)
(0.442087 2.31367 1.10054)
(0.833825 2.432 0.127838)
(0.22028 2.5636 0.141215)
(0.18724 2.68375 0.773276)
(0.4475 2.42447 -0.261337)
(1.84094 1.43743 -1.07694)
(0.533647 1.09454 -1.64875)
(0.52827 1.44434 -1.41575)
(1.2401 1.21475 -1.89566)
(0.552492 0.326579 -1.0406)
(0.338879 0.471005 -1.01957)
(-0.429315 1.18183 -1.24169)
(-0.177199 1.67329 -0.785869)
(0.536152 2.284 -0.61088)
(0.0775267 2.59926 -0.173428)
(0.0832401 2.57261 -0.0698338)
(1.04574 1.94165 -0.0308882)
(1.63976 1.05653 -1.09976)
(1.27135 1.13194 -1.75818)
(1.12189 1.21611 -2.1993)
(0.950041 1.04654 -0.88715)
(0.568467 -0.0466236 -1.30872)
(0.201434 0.426831 -1.40115)
(0.129044 0.463791 -1.60013)
(-0.391448 0.793761 -1.53503)
(-0.617051 1.25592 -1.66584)
(-0.396823 1.96795 -0.503679)
(-0.263334 2.01518 -0.135882)
(0.381753 2.00778 0.0333817)
(0.664527 1.25411 -0.0292324)
(0.937486 0.946466 -0.165258)
(0.958473 1.04616 -0.564142)
(1.02184 0.875663 -0.845921)
(0.254746 2.57945 2.58346)
(0.188249 2.70158 2.43669)
(0.501655 2.68985 2.43769)
(0.391872 2.68021 2.44364)
(0.365129 2.84648 2.48062)
(0.652113 2.8151 2.44408)
(0.62586 2.83935 2.45086)
(0.601063 2.76911 2.56792)
(0.582121 2.82929 2.62315)
(0.762887 2.87371 2.51557)
(0.88647 2.84909 2.6232)
(0.807344 2.73292 2.67787)
(0.966851 2.80011 2.53506)
(0.708803 3.03208 2.48268)
(1.03811 2.77737 2.85203)
(1.27789 2.76831 2.71475)
(0.931434 2.98996 2.64108)
(1.24771 2.68131 2.51021)
(1.19551 2.83916 2.41224)
(1.13391 2.55734 2.20339)
(1.5487 3.14367 2.46898)
(1.39878 3.04419 2.63065)
(1.19894 2.99175 2.57589)
(1.24993 2.691 2.20368)
(1.41991 2.58488 2.25685)
(1.16475 2.5418 1.90299)
(1.09945 2.56149 1.18171)
(1.9691 3.28831 2.62568)
(1.70576 3.15173 2.74428)
(1.11484 2.98044 2.65494)
(1.23916 2.87103 2.24194)
(1.82262 2.48971 1.76853)
(1.30976 2.32021 1.49408)
(1.50496 2.5185 0.544241)
(1.28524 2.64127 0.0742727)
(2.03649 3.22358 2.93312)
(1.66805 2.83303 2.52406)
(0.992174 2.95292 1.90525)
(1.1843 2.89689 1.79987)
(1.1953 2.86842 1.36251)
(0.882844 2.55469 1.07198)
(1.30023 2.56649 0.305263)
(1.45128 2.5231 0.248846)
(1.09037 2.34919 -0.708085)
(1.85183 3.16056 1.93985)
(1.65345 3.17085 1.17026)
(1.03616 2.95187 1.61211)
(1.07012 2.82149 0.988197)
(1.22714 2.54818 0.661542)
(0.965553 2.38274 -0.202375)
(2.03242 1.80756 -0.694342)
(1.83989 2.18175 -0.574546)
(0.18989 2.29636 -0.795993)
(-0.0343084 1.75166 -1.49315)
(2.28639 2.41968 0.482709)
(1.91834 2.98765 1.08719)
(1.29795 2.96581 1.01236)
(1.15395 2.93257 0.16779)
(0.919766 2.78727 0.222264)
(0.482448 2.69462 0.74064)
(1.53625 2.14678 -0.492038)
(2.30502 1.49447 -0.959954)
(0.897477 1.68008 -1.5746)
(-0.0736474 1.65044 -1.34854)
(0.43685 1.48313 -1.40327)
(2.05813 1.46897 0.195999)
(1.79282 1.82503 0.202729)
(0.538031 2.40797 1.0445)
(0.726095 2.54102 0.614938)
(1.02692 2.4247 0.377431)
(0.349957 2.67338 0.821564)
(0.210722 2.57115 0.128805)
(1.92669 1.42942 -0.465588)
(1.17334 0.966703 -1.81231)
(0.991529 1.31647 -1.5239)
(0.869097 1.28729 -1.49046)
(1.05538 1.21392 -2.1975)
(0.642149 0.302232 -1.05099)
(0.457758 0.455151 -0.996273)
(-0.367955 1.15976 -1.18959)
(-0.0729451 1.6842 -0.593704)
(0.72716 2.36099 -0.295212)
(0.418473 2.61667 0.117299)
(0.0701526 2.59887 -0.104065)
(0.918041 2.0623 0.252649)
(1.63322 1.04885 -0.669815)
(1.24384 1.11241 -1.4627)
(1.14218 1.21752 -2.18896)
(0.518839 0.857792 -1.74393)
(1.05767 0.888042 -1.00213)
(0.500256 0.00618136 -1.3231)
(0.238418 0.396263 -1.40627)
(0.0767112 0.48323 -1.55047)
(-0.371496 0.786316 -1.51753)
(-0.639184 1.30417 -1.75766)
(-0.368011 1.98125 -0.488981)
(-0.264163 2.03404 -0.202109)
(0.349026 2.01073 0.168582)
(0.631076 1.25479 -0.030335)
(0.956295 0.946773 -0.0337801)
(0.96163 1.04483 -0.432871)
(0.992587 0.869343 -0.676882)
(1.63305 0.481079 -0.493712)
(0.243258 2.45701 2.69435)
(0.247923 2.59119 2.5472)
(0.472354 2.54343 2.57963)
(0.385268 2.52571 2.60444)
(0.332923 2.71245 2.46258)
(0.565938 2.63531 2.46846)
(0.532888 2.64574 2.43666)
(0.55426 2.75525 2.49013)
(0.312641 2.80534 2.54863)
(0.70092 2.76616 2.47041)
(0.666276 2.83587 2.44114)
(0.737848 2.72399 2.55606)
(0.82465 2.81699 2.42451)
(0.852824 2.95343 2.59683)
(1.10817 2.68401 2.62422)
(0.950217 2.79402 2.56185)
(0.950563 2.77465 2.61715)
(1.07639 2.71579 2.53921)
(0.886836 2.93513 2.48488)
(0.947192 2.92995 2.37569)
(1.15917 2.73514 2.8284)
(1.31405 2.69629 2.73206)
(1.4334 2.52664 2.85608)
(1.35438 2.64993 2.51228)
(1.27366 2.78574 2.36467)
(1.15336 2.81754 2.49615)
(1.07299 2.73418 1.73695)
(1.49863 3.15262 2.41265)
(1.46128 3.0559 2.61688)
(1.39332 2.93353 2.60986)
(1.34881 2.65362 2.38571)
(1.65266 2.43556 2.18451)
(1.11033 2.53577 1.99405)
(1.68248 2.51114 1.30675)
(1.54217 2.56392 0.285493)
(1.9918 3.26701 2.61395)
(1.89655 3.04095 2.72517)
(1.34344 2.99186 2.75586)
(0.886237 2.78948 2.54798)
(1.7439 2.63327 1.82351)
(1.44266 2.18682 1.84817)
(1.52936 2.45967 0.727523)
(1.09172 2.49217 0.485553)
(1.11586 2.56327 0.257209)
(2.16231 3.17078 2.93837)
(1.81754 2.76594 2.56412)
(1.28471 2.8904 1.94983)
(1.15421 2.91417 1.74536)
(1.47597 2.78781 1.46321)
(1.07198 2.45995 1.025)
(1.7431 2.25884 0.327978)
(1.62559 2.50086 0.277713)
(0.46346 2.61784 0.458176)
(-0.104602 2.27778 -1.01781)
(2.00758 3.00098 1.81122)
(1.7207 3.09031 1.4764)
(1.25409 2.94427 1.53444)
(1.21074 2.6897 1.41345)
(1.34607 2.62928 0.595537)
(0.924774 2.39061 0.00516523)
(1.56089 2.24608 -0.432081)
(2.03601 2.0944 -0.664185)
(0.410123 2.25825 -0.814173)
(0.29033 2.12963 -0.758644)
(0.0443816 1.62312 -1.4136)
(2.43274 2.25812 0.401539)
(1.97685 2.99044 1.15394)
(1.69299 2.86805 1.14985)
(1.41358 2.77615 0.728307)
(1.3899 2.82246 -0.0259231)
(0.515244 2.76321 0.989288)
(1.24016 2.26454 -0.168481)
(2.47079 1.32227 -1.02002)
(1.25048 1.61044 -1.77084)
(-0.0965283 1.65942 -1.34346)
(0.838392 1.31273 -1.10097)
(0.934883 1.32624 -1.22095)
(2.10201 1.50409 0.0700827)
(2.39122 1.46676 0.00715609)
(0.865254 2.319 1.15081)
(0.82516 2.53706 0.703982)
(1.18136 2.46092 0.45608)
(0.444171 2.64742 0.849153)
(0.382554 2.58234 0.127302)
(1.73487 1.52125 0.105835)
(1.55639 0.842664 -1.86242)
(1.38097 1.19497 -1.68685)
(1.14474 1.26986 -1.58553)
(0.551852 0.916908 -1.41663)
(0.428983 0.83141 -1.67815)
(0.776434 0.240435 -1.04805)
(0.516102 0.506865 -1.006)
(-0.266682 1.12412 -1.17329)
(-0.00899111 1.70708 -0.452987)
(0.808721 2.31967 -0.342306)
(0.328689 2.6724 0.0249624)
(0.0749326 2.6579 -0.0578127)
(0.869773 2.14044 0.249947)
(1.60322 1.07759 -0.31026)
(1.26877 1.09598 -1.05905)
(1.186 1.22469 -2.09717)
(0.626139 0.880616 -1.81537)
(0.868997 0.315944 -1.03405)
(1.68458 0.485196 -0.416233)
(0.438696 0.0664616 -1.32558)
(0.238878 0.40746 -1.40906)
(0.036379 0.490513 -1.51032)
(-0.359133 0.75622 -1.56074)
(-0.637127 1.35355 -1.85035)
(-0.355571 1.97289 -0.470983)
(-0.288587 2.11552 -0.0818029)
(0.318834 1.99221 0.103307)
(0.560716 1.32478 -0.00733413)
(0.965856 0.948174 0.0723258)
(0.966342 1.04603 -0.32727)
(0.971545 0.863245 -0.507149)
(1.56993 0.47293 -0.336371)
(1.80508 -0.0167185 0.250868)
(0.195756 2.41219 2.65029)
(0.104744 2.47061 2.71222)
(0.286392 2.44814 2.66574)
(0.351593 2.43178 2.71756)
(0.31214 2.56569 2.54696)
(0.482483 2.52316 2.58781)
(0.587106 2.51396 2.58791)
(0.548686 2.53746 2.57231)
(0.575218 2.72384 2.43159)
(0.661474 2.58545 2.47897)
(0.701315 2.67796 2.42891)
(0.716101 2.65779 2.48721)
(0.780214 2.71732 2.42141)
(0.701555 2.87226 2.39862)
(0.914388 2.71607 2.46299)
(0.930905 2.71792 2.45931)
(1.35589 2.49281 2.52771)
(0.974387 2.78307 2.4308)
(0.881229 2.66224 2.58832)
(1.25001 2.96976 2.39605)
(1.20663 2.63533 2.59553)
(1.19314 2.66614 2.6111)
(1.05624 2.77251 2.55585)
(1.12992 2.81717 2.53409)
(1.0336 2.87641 2.463)
(1.15227 2.78527 2.58288)
(1.04066 2.82693 2.54689)
(1.43333 2.65118 2.84253)
(1.47768 2.52595 2.80838)
(1.13433 2.83379 2.62993)
(1.4613 2.57728 2.50018)
(1.48714 2.62579 2.39998)
(1.38149 2.5479 2.6445)
(1.63028 2.8154 1.78272)
(1.2843 2.61029 1.40587)
(1.92647 2.97684 2.28127)
(1.57135 2.99854 2.61139)
(1.6373 2.9374 2.52541)
(1.3434 2.66413 2.58224)
(1.76589 2.40624 2.1329)
(1.3486 2.41327 2.23188)
(1.51478 2.43752 1.66418)
(1.03131 2.46925 1.1771)
(0.77473 2.54542 0.425514)
(2.2946 3.20985 2.61001)
(2.06939 2.95751 2.66779)
(1.81085 2.91177 2.68494)
(1.05549 2.88262 2.47058)
(1.63399 2.60798 2.05997)
(1.45704 2.27259 1.86959)
(1.49829 2.39553 0.933827)
(1.33381 2.40824 0.629405)
(0.587744 2.42977 0.461052)
(0.299736 2.54 0.64802)
(2.37695 3.0767 2.89545)
(1.7986 2.47702 2.8496)
(1.58953 2.89377 1.98303)
(1.22955 2.86894 1.79736)
(1.62122 2.68038 1.55633)
(1.21871 2.40325 1.00921)
(1.77531 2.12819 0.105597)
(1.9097 2.34226 0.239452)
(0.645302 2.65481 0.276513)
(0.253961 2.36454 -0.00292216)
(0.181561 2.06735 -0.873086)
(2.07292 3.04709 1.76259)
(1.83706 2.9931 1.82627)
(1.51679 2.82903 1.48474)
(1.27001 2.64058 1.38919)
(1.53268 2.59249 0.756685)
(0.903133 2.53441 0.705161)
(1.83888 1.98757 -0.148999)
(2.23199 1.94904 -0.527032)
(1.34067 2.17295 -1.01083)
(0.4849 2.1892 -0.618)
(1.0092 2.046 -0.681616)
(0.821511 1.31868 -1.13021)
(2.56719 2.09279 0.383755)
(2.24714 2.77222 1.05014)
(1.92509 2.89837 1.2139)
(1.46356 2.73654 0.935597)
(1.57989 2.81324 -0.0932504)
(0.776555 2.7749 1.00433)
(1.04743 2.36014 -0.00362576)
(2.48963 1.23842 -0.921454)
(2.00007 1.46529 -1.81448)
(0.550854 1.66995 -1.33404)
(0.776534 1.38227 -1.22044)
(0.938359 1.00669 -1.02655)
(0.490131 0.910095 -1.44655)
(2.10466 1.575 -0.153893)
(2.78506 1.19545 -0.10667)
(1.22292 2.12505 1.14585)
(0.90606 2.51101 0.661503)
(0.886965 2.66305 0.592515)
(0.714121 2.58803 0.978578)
(0.575214 2.54548 0.142758)
(1.44682 1.65736 0.231387)
(1.85267 0.745584 -1.65479)
(1.6922 1.13229 -1.75919)
(1.29316 1.22954 -1.82968)
(0.575419 0.940704 -1.31909)
(0.871146 0.369034 -1.96284)
(0.883887 0.307866 -1.06835)
(0.891744 0.139913 -1.08275)
(0.632754 0.519595 -1.02889)
(-0.146109 1.11044 -1.15323)
(0.0513076 1.74936 -0.327425)
(1.15036 2.20551 0.32444)
(0.50704 2.61506 0.142531)
(0.108449 2.71271 0.1488)
(0.797848 2.21985 0.335434)
(1.59287 1.12481 -0.0965946)
(1.37237 1.06512 -0.623647)
(1.19685 1.2174 -1.93212)
(0.772742 0.89032 -1.85773)
(0.817621 0.33746 -1.0213)
(1.29715 -0.0353867 -0.412897)
(1.69504 -0.0113452 0.136092)
(0.38556 0.133225 -1.31939)
(0.224443 0.425244 -1.40555)
(0.00605912 0.517341 -1.47002)
(-0.35288 0.749163 -1.57593)
(-0.629903 1.37969 -1.87297)
(-0.289931 1.99669 -0.432979)
(-0.265964 2.11995 -0.0957691)
(0.255561 2.01464 0.186154)
(0.532169 1.36199 0.038133)
(0.943113 0.959897 0.145084)
(0.969212 1.03989 -0.247397)
(0.963468 0.862172 -0.346896)
(1.51535 0.466357 -0.126269)
(1.92124 -0.0303306 0.406628)
(1.39949 -0.206695 -0.2622)
(0.0924128 2.29669 2.57415)
(0.12046 2.41048 2.70093)
(0.282199 2.37019 2.60241)
(0.331314 2.35125 2.7401)
(0.249175 2.4427 2.70485)
(0.370256 2.48851 2.64595)
(0.458177 2.41108 2.73672)
(0.494186 2.4346 2.67577)
(0.342283 2.56729 2.58742)
(0.590895 2.51385 2.57041)
(0.742806 2.48318 2.58442)
(0.656813 2.49511 2.61041)
(0.745648 2.592 2.52658)
(0.460934 2.59572 2.57894)
(0.983295 2.55681 2.45461)
(0.833867 2.61545 2.47714)
(0.897819 2.53973 2.44272)
(0.847057 2.70555 2.46605)
(0.706307 2.60412 2.55824)
(0.777858 2.90118 2.38412)
(1.05429 2.65188 2.49405)
(1.04912 2.66167 2.48822)
(0.857973 2.72419 2.44911)
(1.02364 2.68624 2.51488)
(1.19005 2.50287 2.57634)
(1.17057 2.68837 2.38627)
(1.04446 2.87361 2.53525)
(1.42884 2.47472 2.65976)
(1.29491 2.57936 2.61315)
(1.26529 2.61559 2.67976)
(1.49727 1.98254 3.01443)
(1.15078 2.83612 2.50046)
(1.3355 2.73262 2.52824)
(1.39145 2.88677 2.29294)
(1.48132 2.93174 1.73706)
(1.52355 2.58749 2.8318)
(1.56299 2.55546 2.75744)
(1.51521 2.54432 2.74464)
(1.27787 2.61151 2.6097)
(1.57016 2.60394 2.39146)
(1.46926 2.62308 2.41055)
(2.0642 2.43596 2.00629)
(1.32428 2.52794 1.89129)
(0.673718 2.50582 1.25327)
(1.99579 2.91006 2.20917)
(1.82038 2.9113 2.53635)
(1.72382 2.94953 2.50258)
(1.46826 2.62639 2.67887)
(1.89622 2.40919 2.10397)
(1.79942 2.24937 2.28039)
(1.71996 2.36256 1.683)
(1.43197 2.38321 1.22249)
(0.711324 2.32077 0.683858)
(0.278927 2.42121 0.44909)
(2.42112 3.13884 2.59893)
(2.49745 2.73207 2.63777)
(2.12606 2.749 2.70806)
(1.32307 2.7499 2.60235)
(1.72759 2.55291 2.08244)
(1.55028 2.29861 1.79108)
(1.67132 2.18695 1.03358)
(1.5924 2.26383 0.844768)
(0.708324 2.39137 0.488741)
(0.481828 2.26766 -0.0113495)
(0.200074 2.40049 0.0371896)
(2.85534 2.60118 2.90019)
(2.38512 2.69925 2.20792)
(1.90803 2.71232 2.11427)
(1.35132 2.64698 1.96471)
(1.71441 2.63669 1.49871)
(1.4672 2.29515 1.18002)
(1.63402 2.04155 0.387659)
(1.89391 2.34186 0.136396)
(1.14156 2.5243 0.0301464)
(0.285343 2.32278 -0.100222)
(0.789601 2.4325 -0.292805)
(0.734064 2.04663 -0.583443)
(2.56378 2.6046 1.7676)
(1.93808 2.99596 1.98443)
(2.19007 2.56743 1.47234)
(1.43483 2.39298 1.48206)
(1.82918 2.41639 0.95284)
(1.51898 2.38493 0.871674)
(1.55584 2.07753 -0.0594949)
(2.31289 1.73995 -0.688739)
(1.90193 2.04986 -1.24201)
(0.665851 2.22629 -0.458728)
(1.25669 2.04107 -0.607763)
(1.00765 1.60411 -0.658471)
(0.665441 0.838819 -1.71065)
(2.4116 2.21029 0.4965)
(2.50843 2.43772 1.02418)
(2.18848 2.79145 1.09873)
(1.40562 2.74776 1.13148)
(1.78124 2.74123 0.390831)
(1.15449 2.72924 1.0299)
(0.838819 2.44772 0.224348)
(2.4238 1.16747 -0.554915)
(2.5571 1.27057 -1.67227)
(1.5648 1.42263 -1.56577)
(0.831825 1.4352 -1.29638)
(0.975022 0.91666 -0.861066)
(0.99418 0.682147 -2.08415)
(0.896699 0.365214 -2.0392)
(2.33601 1.09569 0.464399)
(2.82803 1.19797 0.0356826)
(1.99823 1.80332 0.988849)
(0.875431 2.56034 0.685611)
(0.935822 2.74912 0.552724)
(0.847819 2.55444 0.991336)
(0.866344 2.47796 0.437061)
(1.20697 1.85833 0.256797)
(2.17616 0.628588 -0.98656)
(1.89142 1.12541 -1.60694)
(1.48777 1.21308 -2.01975)
(0.558682 0.947266 -1.257)
(0.763503 0.364118 -1.94325)
(1.33267 -0.25361 -1.83408)
(1.26783 -0.0277586 -0.468954)
(1.00734 0.0363154 -1.05969)
(0.760851 0.483212 -1.07235)
(-0.0469398 1.1255 -1.10419)
(0.109145 1.77235 -0.237287)
(1.18462 2.20108 0.70145)
(0.752451 2.57778 0.14094)
(0.129479 2.72438 0.296121)
(0.755336 2.26413 0.288918)
(1.57491 1.23118 0.23871)
(1.45187 1.04456 -0.32111)
(1.26995 1.2054 -1.63926)
(0.961746 0.881468 -1.85667)
(0.763517 0.358187 -1.02614)
(1.35752 -0.0535535 -0.326076)
(1.28938 -0.0252232 -0.863491)
(1.39428 -0.196703 -0.244381)
(0.346213 0.197218 -1.30592)
(0.208311 0.457109 -1.40237)
(0.00721063 0.475544 -1.47338)
(-0.360501 0.757605 -1.58807)
(-0.581491 1.39316 -1.75382)
(-0.271629 2.03219 -0.419892)
(-0.292251 2.10523 -0.0572393)
(0.339619 2.06588 0.101903)
(0.509388 1.34036 0.059107)
(0.912454 0.973871 0.180808)
(0.979623 1.0398 -0.196036)
(0.978888 0.865156 -0.226162)
(1.462 0.463725 0.100906)
(2.01862 -0.0497925 0.594718)
(1.41036 -0.217147 -0.272952)
(1.33277 -0.344627 -0.131774)
(-0.0399252 2.14187 2.55663)
(0.0630465 2.35741 2.57382)
(0.113766 2.24719 2.53804)
(0.32801 2.29994 2.64311)
(0.247237 2.38007 2.72539)
(0.312388 2.32875 2.60506)
(0.506167 2.3673 2.6551)
(0.471142 2.34851 2.68185)
(0.378967 2.47996 2.67161)
(0.595995 2.34357 2.69167)
(0.579376 2.30599 2.77333)
(0.643506 2.38667 2.69655)
(0.667401 2.38072 2.68982)
(0.582488 2.54489 2.65168)
(0.862403 2.38838 2.59558)
(0.787641 2.44398 2.60038)
(0.794294 2.45586 2.60302)
(0.87669 2.51077 2.53513)
(0.792393 2.56274 2.60609)
(0.553365 2.62904 2.5802)
(1.02579 2.55859 2.52789)
(0.947879 2.55958 2.47465)
(0.911012 2.53573 2.49401)
(1.02584 2.5628 2.48208)
(0.795475 2.56681 2.57387)
(0.866346 2.68435 2.41697)
(1.01382 2.65357 2.51524)
(1.23722 2.51352 2.5246)
(1.10537 2.63429 2.50588)
(1.20676 2.55403 2.52352)
(1.0592 2.58583 2.52827)
(1.06758 2.76108 2.40614)
(1.46982 2.49572 2.45838)
(1.32679 2.79904 2.30873)
(1.25989 3.11032 2.10053)
(1.41138 2.55192 2.60907)
(1.51936 2.36395 2.69755)
(1.38192 2.5918 2.59707)
(1.42562 2.50394 2.42548)
(1.45561 2.54159 2.63358)
(1.34482 2.75776 2.48663)
(1.53347 2.80039 2.20637)
(1.15434 2.76737 2.32136)
(1.0651 2.43527 2.11586)
(1.6565 2.44389 2.75907)
(1.62975 2.52436 2.78497)
(1.52958 2.61744 2.65295)
(1.46993 2.52236 2.70565)
(1.95416 2.17823 2.4988)
(1.62173 2.49365 2.45108)
(2.26648 2.29384 2.00746)
(1.64548 2.604 1.67703)
(0.870111 2.40687 1.77218)
(0.546212 2.33162 0.679414)
(2.03774 2.8556 2.23064)
(2.35947 2.61283 2.3573)
(1.97975 2.76586 2.54417)
(1.60717 2.6872 2.62253)
(1.89411 2.2584 2.28114)
(2.02752 2.26741 2.13276)
(1.53389 2.42054 1.98401)
(1.75301 2.26657 1.30978)
(0.772621 2.301 0.690116)
(0.694179 1.91441 0.306306)
(0.414671 2.31765 -0.137966)
(2.49197 2.90432 2.52949)
(2.7463 2.72268 2.57878)
(2.15079 2.89647 2.67891)
(1.45388 2.67506 2.59478)
(1.74436 2.52859 2.143)
(1.81677 2.1965 1.70799)
(1.75338 1.97611 1.09832)
(1.69064 2.22818 0.924759)
(0.914002 2.27742 0.547027)
(0.535277 2.20872 -0.141069)
(1.12641 2.10615 -0.369163)
(0.821197 2.38123 -0.271537)
(2.67787 2.74351 2.80429)
(2.49893 2.48148 2.69064)
(2.24451 2.51125 2.15302)
(1.39174 2.7402 1.78373)
(1.84582 2.46467 1.61116)
(1.74557 2.23772 1.21619)
(1.68707 1.9525 0.469292)
(2.33302 1.82372 0.384858)
(1.58786 2.33797 -0.0499248)
(0.393016 2.29232 -0.140166)
(0.825381 2.45626 -0.260749)
(1.58667 1.80058 0.00652019)
(1.20413 1.62614 -0.491214)
(2.47649 2.56942 1.84964)
(2.06174 3.00599 1.95832)
(1.94693 2.74447 1.66064)
(1.49905 2.43552 1.4138)
(1.43349 2.79224 1.0435)
(1.32771 2.57103 1.29736)
(1.47317 2.08491 0.267695)
(2.43881 1.57515 -0.664465)
(2.23583 1.80355 -1.42511)
(1.16986 2.14796 -0.404676)
(1.27652 2.05878 -0.610346)
(0.733807 1.83013 -0.400872)
(1.41112 1.33014 -0.755033)
(0.945613 0.661797 -2.08751)
(2.20292 2.4141 0.768809)
(2.64485 2.22681 0.933596)
(2.56488 2.43979 1.2072)
(1.63233 2.75282 1.07342)
(1.7462 2.86781 0.748192)
(1.49932 2.73517 0.852903)
(0.69104 2.51009 0.443184)
(2.18461 1.2362 -0.117277)
(2.68476 1.14353 -1.52802)
(2.07836 1.32244 -1.64435)
(1.25082 1.41665 -1.17947)
(1.03011 0.910964 -0.643242)
(1.12645 0.61375 -1.94057)
(1.13592 0.159058 -2.05765)
(1.25321 -0.214163 -1.93133)
(2.20689 1.16113 0.109053)
(2.74468 1.34976 0.276025)
(1.99951 1.90661 1.01994)
(0.911645 2.56076 0.723925)
(1.0283 2.72106 0.669093)
(1.4367 2.33123 0.962364)
(0.505561 2.59526 0.55751)
(1.00344 2.0928 0.220622)
(2.2514 0.64022 -0.227592)
(2.13099 1.08873 -1.00006)
(1.73059 1.23038 -2.03705)