/*--------------------------------*- C++ -*----------------------------------*\
  =========                 |
  \\      /  F ield         | OpenFOAM: The Open Source CFD Toolbox
   \\    /   O peration     | Website:  https://openfoam.org
    \\  /    A nd           | Version:  7
     \\/     M anipulation  |
\*---------------------------------------------------------------------------*/
FoamFile
{
    version     2.0;
    format      ascii;
    class       volVectorField;
    location    "8";
    object      U_0;
}
// * * * * * * * * * * * * * * * * * * * * * * * * * * * * * * * * * * * * * //

dimensions      [0 1 -1 0 0 0 0];

internalField   nonuniform List<vector> 
18720
(
(0.146601 0.121206 -1.39906)
(-0.219816 0.268904 -1.57808)
(0.0965285 0.127709 -1.41623)
(0.197588 0.111364 -1.37692)
(-0.0182807 0.504168 -1.51524)
(-0.597266 1.88304 -0.902007)
(-0.243864 0.287539 -1.58333)
(-0.186314 0.250256 -1.57884)
(-0.173098 0.777579 -1.49796)
(-0.0387173 0.508891 -1.55187)
(0.247193 0.0967032 -1.35308)
(0.0079305 0.500509 -1.48125)
(-0.0509227 0.68544 -1.68681)
(0.409869 3.33413 -0.126853)
(-0.806204 1.79575 -0.992214)
(-0.237728 1.96558 -0.763715)
(-0.535822 1.96027 -0.746412)
(-0.106885 0.803303 -1.5675)
(-0.0846354 0.253034 -1.56742)
(-0.0940794 0.765917 -1.43826)
(-0.50323 1.29261 -1.5685)
(-0.07911 0.692362 -1.69817)
(0.307358 0.0790165 -1.32775)
(0.034632 0.490059 -1.45319)
(-0.0290021 0.674952 -1.67517)
(-0.319918 0.876345 -1.4832)
(0.105106 3.84814 1.12247)
(0.479143 3.28795 -0.131443)
(0.415258 3.35241 0.455885)
(0.434745 3.13167 -0.0761156)
(-0.631621 1.87047 -0.890987)
(0.0212929 1.98704 -0.648204)
(-0.422321 2.02338 -0.636066)
(-0.631508 1.89698 -0.642189)
(-0.525136 1.31 -1.52113)
(0.0186076 0.242793 -1.52363)
(-0.0202798 0.727085 -1.39853)
(-0.583157 1.29885 -1.59745)
(-0.894985 1.44765 -1.51815)
(-0.217409 0.875134 -1.50772)
(0.374536 0.057821 -1.30436)
(0.0544206 0.486566 -1.4307)
(-0.0449651 0.663944 -1.66503)
(-0.327346 0.855589 -1.50383)
(-0.67011 1.08827 -1.36115)
(0.199388 3.53993 2.68111)
(-0.076279 3.86206 1.04685)
(0.432244 3.81038 1.46257)
(0.0475174 3.51032 1.18018)
(0.109744 3.09469 -0.268876)
(0.505173 3.32247 0.799662)
(0.274829 3.12199 0.103843)
(0.324467 3.092 -0.706448)
(-0.631567 1.87918 -0.677761)
(0.095365 2.01037 -0.563288)
(-0.343426 2.06569 -0.533735)
(-0.439862 2.0352 -0.321748)
(-0.671598 2.28256 -0.316646)
(-0.894203 1.38626 -1.48743)
(0.101843 0.220852 -1.45849)
(0.133353 0.660958 -1.35449)
(-0.571668 1.26037 -1.69544)
(-0.860721 1.43874 -1.56576)
(-0.419917 2.19034 -0.464368)
(-0.757662 1.05445 -1.28074)
(0.439887 0.0326975 -1.28622)
(0.0737407 0.481505 -1.42003)
(-0.0601161 0.655211 -1.65815)
(-0.360745 0.844843 -1.52179)
(-0.672705 1.03422 -1.37463)
(-0.603022 1.88943 -0.68646)
(0.749248 3.4482 2.97865)
(0.0263827 3.49119 2.67005)
(0.646963 3.46889 2.74962)
(0.433591 3.20307 2.09911)
(-0.173598 3.48957 1.31573)
(0.633632 3.83041 1.68203)
(0.246131 3.45008 1.19887)
(0.455042 3.11765 0.993953)
(-0.244719 3.03359 -0.863875)
(0.75641 3.34688 0.580409)
(0.219926 3.08603 0.271021)
(0.568857 3.19289 -0.584114)
(-0.675775 2.65277 -0.503342)
(-0.735775 2.26136 -0.562529)
(0.113418 2.04161 -0.458019)
(-0.339527 2.05987 -0.509228)
(-0.359783 2.17343 -0.206688)
(-0.501151 2.32209 -0.114423)
(-0.472254 2.51523 -0.371595)
(-0.473654 2.13316 -0.387676)
(0.193328 0.202069 -1.38168)
(0.234373 0.596736 -1.27233)
(-0.587631 1.25333 -1.7012)
(-0.855605 1.4756 -1.53189)
(-0.282271 2.20928 -0.55207)
(-0.267008 2.47464 -0.499268)
(-0.607544 1.87186 -0.689939)
(0.518554 -0.00332188 -1.26946)
(0.0925552 0.472587 -1.41584)
(-0.0439676 0.628964 -1.66086)
(-0.379373 0.835569 -1.52566)
(-0.445496 1.07411 -1.46315)
(-0.602793 1.90438 -0.651355)
(-0.136517 1.97351 -0.373423)
(0.547536 3.43626 2.68388)
(0.856037 3.53757 2.69532)
(0.767025 3.42023 2.99037)
(0.174763 3.24502 2.33542)
(0.388535 3.34035 1.75583)
(0.91157 3.51541 2.70929)
(0.313175 3.14901 2.28403)
(0.488633 3.22318 1.60729)
(0.186205 3.20898 0.793183)
(0.638606 3.8647 1.76989)
(0.485981 3.42552 1.33628)
(0.737115 3.108 0.983141)
(0.634532 2.86696 0.408579)
(-0.812783 2.57954 -0.591852)
(1.22402 3.27229 0.612218)
(0.586699 3.06278 0.482694)
(0.415402 3.33151 -0.395527)
(-0.105069 2.80986 -0.130989)
(0.129259 2.37055 -0.810505)
(-0.370634 2.47913 -0.520634)
(0.819387 1.95808 -0.130256)
(-0.136226 2.15232 -0.135497)
(-0.185102 2.21741 -0.0496985)
(-0.288581 2.35365 0.0615629)
(-0.41935 2.53616 -0.322558)
(0.271886 2.48194 -0.704735)
(-0.276042 2.39367 -0.521495)
(0.25991 0.213552 -1.29985)
(0.197345 0.563902 -1.19268)
(-0.575377 1.25026 -1.71191)
(-0.785933 1.56551 -1.55039)
(-0.124747 2.21174 -0.573773)
(-0.272778 2.50468 -0.488953)
(0.338189 2.37946 -0.217486)
(-0.151906 1.99054 -0.347888)
(0.578803 -0.0353681 -1.2604)
(0.15103 0.454133 -1.41597)
(0.0312784 0.589481 -1.66573)
(-0.394523 0.827949 -1.52242)
(-0.610085 1.12614 -1.43888)
(-0.567998 1.91506 -0.616994)
(-0.223387 2.01313 -0.278913)
(0.411575 1.93113 -0.0947083)
(0.479725 3.12185 2.70882)
(0.6036 3.46685 2.62869)
(0.755591 3.38527 2.74209)
(0.722757 3.35399 2.57324)
(0.290361 3.32415 2.04448)
(1.06213 3.47878 2.90021)
(1.11165 3.13396 2.51548)
(0.726652 3.07172 1.99738)
(0.50392 3.19773 1.67482)
(0.971579 3.46635 2.8917)
(0.494814 3.17352 2.24384)
(0.740779 3.18714 1.51625)
(0.978352 3.12035 1.64055)
(0.089178 2.69703 0.602652)
(0.827717 3.78822 1.82177)
(0.766303 3.4313 1.39564)
(0.609249 3.10761 1.26857)
(0.837323 2.99332 0.415174)
(0.347195 2.38042 -0.174621)
(-0.0658381 2.35373 -0.604981)
(1.26814 3.22963 0.763727)
(1.03731 3.03944 0.775822)
(0.665648 3.32221 -0.103444)
(0.242707 3.0157 -0.0692435)
(0.0356075 2.44192 -0.705108)
(0.916351 2.38075 -0.849792)
(0.31149 2.41309 -0.902706)
(1.45194 1.6867 -0.430645)
(0.0315191 2.17156 -0.129451)
(0.278919 2.25763 0.61321)
(0.29875 2.39954 0.510727)
(-0.251518 2.57515 0.0212752)
(0.150037 2.56723 -0.378686)
(1.14008 2.22078 -0.575393)
(0.485365 2.28809 -0.512689)
(0.354546 0.243631 -1.20659)
(0.187743 0.531644 -1.12619)
(-0.530266 1.24269 -1.64904)
(-0.701762 1.5828 -1.49468)
(0.325334 2.24823 -0.756317)
(-0.243682 2.52999 -0.252848)
(0.317455 2.43453 -0.224315)
(1.27985 1.84072 -0.486251)
(0.450176 1.90233 -0.197011)
(0.626337 -0.0650996 -1.25629)
(0.17858 0.436181 -1.41534)
(0.0751774 0.561114 -1.65912)
(-0.396929 0.828528 -1.5202)
(-0.596946 1.12918 -1.49417)
(-0.543557 1.94289 -0.574359)
(-0.237022 2.0305 -0.219554)
(0.421165 1.93008 -0.063423)
(0.736823 1.20925 -0.0673992)
(0.386143 2.96848 2.59352)
(0.373388 3.1411 2.6455)
(0.535075 3.15847 2.76883)
(0.623803 3.12196 2.67344)
(0.639764 3.29263 2.61923)
(1.41283 3.09244 2.74678)
(0.777795 3.31435 2.61311)
(0.81939 2.96646 2.46268)
(0.618246 3.05364 1.92019)
(1.0955 3.6155 2.77621)
(1.21489 3.17905 2.71169)
(0.486719 3.02577 2.18854)
(1.18821 2.88637 1.84332)
(0.80546 3.02581 1.64469)
(1.30277 3.3512 2.97612)
(0.975991 3.14272 2.21664)
(0.861117 3.03435 1.70912)
(1.02465 3.13309 1.63206)
(0.765599 2.57829 1.42707)
(0.206463 2.32545 -0.188468)
(1.05953 3.71442 1.84821)
(1.00405 3.34412 1.37609)
(0.587363 3.02825 1.46983)
(1.294 2.86124 0.7264)
(0.436179 2.4681 -0.0688409)
(0.79439 2.48067 -0.174194)
(0.923789 2.33812 -0.983725)
(1.51971 3.06379 0.665545)
(1.31319 3.03455 0.856376)
(0.813073 3.19488 0.33223)
(0.530039 3.04812 -0.394072)
(0.058729 2.43556 -0.664835)
(0.776501 2.43032 -0.649357)
(1.75545 1.89925 -0.807602)
(1.17416 2.16719 -0.967848)
(1.62971 1.6532 -0.593189)
(0.286389 2.14716 0.0172588)
(0.153379 2.37068 0.608561)
(0.69897 2.38301 0.213796)
(-0.198585 2.56649 0.0489399)
(0.0733323 2.63444 0.365664)
(0.843504 2.2781 -0.617846)
(1.56746 1.38095 -1.48415)
(1.42122 1.83847 -0.674644)
(0.478512 0.247959 -1.10876)
(0.276861 0.475273 -1.07304)
(-0.46851 1.20311 -1.52232)
(-0.546523 1.66167 -1.21833)
(0.390233 2.23746 -0.897742)
(0.000859124 2.57336 -0.257741)
(0.214422 2.48163 -0.207425)
(1.20745 1.84138 -0.34345)
(1.60865 1.20955 -1.63434)
(0.745473 1.19275 -0.0648002)
(0.650452 -0.0865861 -1.26275)
(0.262985 0.388192 -1.41206)
(0.130573 0.516667 -1.65437)
(-0.344406 0.787043 -1.57236)
(-0.58092 1.1769 -1.52499)
(-0.507737 1.929 -0.590983)
(-0.228619 2.07153 -0.134293)
(0.407424 1.9283 0.0874295)
(0.70411 1.23071 -0.074134)
(0.91221 0.937672 -0.439351)
(0.227212 2.92181 2.42237)
(0.168605 2.97137 2.56415)
(0.599947 2.93845 2.58229)
(0.654308 2.88371 2.64266)
(0.582717 3.1459 2.65923)
(0.779642 3.01571 2.78106)
(0.653041 3.11009 2.71302)
(0.629281 3.00418 2.58994)
(0.446026 3.11923 2.31582)
(1.20823 3.27852 2.48783)
(1.46596 3.02122 2.67457)
(0.757576 2.94171 2.52491)
(1.40117 2.68662 2.10395)
(1.0624 2.88806 1.67194)
(1.33305 3.52614 2.7221)
(1.50403 3.19791 2.70149)
(0.803307 2.94984 2.34596)
(1.16315 2.93327 1.9978)
(0.938821 2.66331 1.93471)
(0.514275 2.60646 1.44678)
(1.74387 3.27692 2.8773)
(1.17783 3.08755 2.31069)
(0.851018 2.99859 1.73908)
(1.04798 3.12021 1.6227)
(1.34416 2.60331 1.14429)
(0.793973 2.61519 0.633094)
(0.694417 2.51182 -0.11481)
(1.49938 3.57142 1.96934)
(1.36082 3.24128 1.2208)
(0.552256 3.06438 1.41909)
(1.13637 2.961 0.584708)
(0.5247 2.59969 0.0624304)
(0.910715 2.43303 -0.271839)
(1.64497 2.18427 -0.578824)
(1.6108 1.94138 -0.964686)
(1.81275 2.91895 0.497874)
(1.51912 3.0441 0.975788)
(0.831435 3.16754 0.360957)
(0.990868 2.99428 -0.175275)
(0.127153 2.56244 -0.309666)
(0.68935 2.4718 -0.477558)
(1.70897 1.98184 -0.79492)
(1.67743 1.65697 -1.13178)
(1.24717 1.50598 -1.44952)
(1.74464 1.65285 -0.587366)
(1.12294 1.97489 0.408537)
(0.0906243 2.43155 0.740367)
(0.776884 2.4016 -0.0166788)
(0.0202298 2.58221 0.175947)
(0.0702504 2.67596 0.775809)
(0.616247 2.36197 -0.43377)
(1.66437 1.41558 -1.37844)
(0.302242 1.09055 -1.66394)
(1.57732 1.25831 -1.64181)
(0.502787 0.286517 -1.06145)
(0.341899 0.45765 -1.03426)
(-0.432323 1.18465 -1.37842)
(-0.314649 1.664 -1.04973)
(0.494687 2.25309 -0.781128)
(-0.0160921 2.63035 -0.206892)
(0.0908401 2.5469 -0.00126408)
(1.13512 1.88449 -0.196813)
(1.64456 1.08737 -1.49782)
(1.26843 1.17996 -1.89754)
(0.899386 0.936591 -0.617606)
(0.632978 -0.0862674 -1.28201)
(0.183652 0.443893 -1.40347)
(0.153665 0.479758 -1.63935)
(-0.333565 0.776905 -1.59756)
(-0.650537 1.2113 -1.56139)
(-0.434506 1.93833 -0.543394)
(-0.251871 2.08289 -0.129111)
(0.429905 1.94849 -0.105939)
(0.69641 1.24003 -0.0601933)
(0.926632 0.942342 -0.28853)
(0.958403 1.04315 -0.758037)
(0.293839 2.67511 2.45183)
(0.240372 2.90742 2.42952)
(0.588016 2.86308 2.42607)
(0.543969 2.83151 2.48016)
(0.430261 2.92942 2.58738)
(0.963177 2.81073 2.59323)
(0.663492 2.92479 2.62659)
(0.777358 2.75058 2.64721)
(0.607395 3.0092 2.62134)
(0.954239 2.83169 2.81402)
(0.927437 2.97226 2.74635)
(0.81708 2.99948 2.60993)
(1.37821 2.6903 2.56923)
(1.05606 2.81529 2.14571)
(1.13995 3.25696 2.57113)
(1.36184 3.07708 2.56678)
(1.18443 2.85565 2.56141)
(1.12996 2.77354 2.15682)
(1.31971 2.58184 2.24587)
(0.946025 2.58631 1.84708)
(1.7005 3.50954 2.5401)
(1.49046 3.18551 2.79018)
(0.630438 2.99766 2.58065)
(1.4312 2.87421 2.08264)
(1.1426 2.64818 1.92017)
(1.1962 2.46236 1.19681)
(0.85678 2.65647 0.417991)
(1.93628 3.20211 2.91939)
(1.51364 2.91746 2.42343)
(0.964215 2.98461 1.80122)
(1.06474 3.09905 1.6051)
(1.36134 2.63376 1.29856)
(0.809256 2.58351 0.982135)
(1.31825 2.57638 0.240428)
(1.45769 2.27678 -0.482141)
(1.52315 3.53365 1.98182)
(1.45641 3.22834 1.15162)
(0.79276 2.96408 1.55906)
(1.11201 2.87583 0.997764)
(0.886215 2.60906 0.276287)
(0.979644 2.405 -0.300613)
(1.6545 2.23267 -0.495459)
(1.55109 2.25115 -0.64414)
(1.24677 1.74225 -1.31495)
(2.2335 2.60416 0.421365)
(1.65928 3.04012 1.07363)
(1.00245 3.13505 0.627496)
(1.12794 2.9655 0.00502556)
(0.495795 2.67809 -0.0214802)
(0.524146 2.63818 -0.0680436)
(1.67125 2.08409 -0.721638)
(2.00708 1.60509 -1.0085)
(0.522724 1.72426 -1.53001)
(0.0659327 1.28597 -1.51509)
(1.9206 1.60782 -0.207768)
(1.36105 1.94776 0.319341)
(0.434371 2.31705 1.08683)
(0.855821 2.41944 0.0851891)
(0.198081 2.56663 0.136006)
(0.178519 2.68275 0.775292)
(0.47826 2.41326 -0.287189)
(1.84194 1.4293 -1.12008)
(0.495395 1.09585 -1.64431)
(0.510688 1.44599 -1.40751)
(1.24439 1.21146 -1.89514)
(0.548981 0.323961 -1.0432)
(0.34061 0.473138 -1.01778)
(-0.42354 1.19033 -1.25231)
(-0.180774 1.67228 -0.819984)
(0.530743 2.27102 -0.65149)
(0.0601033 2.59847 -0.197638)
(0.0970954 2.56727 -0.0522824)
(1.08174 1.92265 -0.0736024)
(1.64145 1.0475 -1.15232)
(1.2798 1.12782 -1.78398)
(1.12661 1.20939 -2.20449)
(0.954399 1.04275 -0.929446)
(0.57172 -0.0508668 -1.30556)
(0.2 0.429733 -1.39945)
(0.134558 0.470795 -1.60529)
(-0.374967 0.801776 -1.54208)
(-0.60956 1.24979 -1.65306)
(-0.39661 1.95665 -0.508311)
(-0.257041 2.01325 -0.120322)
(0.410059 1.9941 -0.0263529)
(0.673551 1.24999 -0.0313002)
(0.940159 0.938955 -0.180962)
(0.963664 1.04238 -0.601304)
(1.03025 0.870474 -0.883878)
(0.25793 2.57873 2.58369)
(0.189235 2.70055 2.43694)
(0.503993 2.68943 2.43788)
(0.391594 2.68164 2.44416)
(0.366664 2.847 2.48024)
(0.655859 2.81502 2.44297)
(0.627608 2.83757 2.45123)
(0.60083 2.77044 2.56805)
(0.582663 2.83081 2.62257)
(0.759915 2.87902 2.51249)
(0.881042 2.85068 2.62361)
(0.811644 2.72951 2.67791)
(0.964631 2.80674 2.53343)
(0.71584 3.03218 2.48184)
(1.04297 2.77331 2.85256)
(1.27872 2.77064 2.71543)
(0.935892 2.98848 2.63923)
(1.25437 2.67966 2.51128)
(1.19211 2.84196 2.4129)
(1.12452 2.55956 2.19938)
(1.54425 3.14118 2.47734)
(1.40653 3.0384 2.63024)
(1.20077 2.98546 2.57437)
(1.25915 2.68689 2.19981)
(1.42156 2.58282 2.26015)
(1.171 2.54467 1.90029)
(1.10042 2.56797 1.17789)
(1.95911 3.29667 2.62241)
(1.70525 3.14781 2.75012)
(1.09971 2.97792 2.65211)
(1.26659 2.86816 2.22881)
(1.81688 2.48228 1.77522)
(1.31147 2.32448 1.47225)
(1.51329 2.51611 0.532902)
(1.29425 2.63861 0.0714342)
(2.0423 3.2119 2.93264)
(1.66551 2.83207 2.51785)
(0.995955 2.95259 1.9008)
(1.19517 2.89965 1.79989)
(1.20124 2.86034 1.36221)
(0.885479 2.55269 1.07683)
(1.30847 2.56405 0.304141)
(1.44292 2.52002 0.250892)
(1.07633 2.35098 -0.700773)
(1.84029 3.17737 1.95385)
(1.65465 3.16696 1.16297)
(1.03118 2.94498 1.62)
(1.08022 2.82802 0.967639)
(1.22464 2.5437 0.656099)
(0.979769 2.37701 -0.215845)
(2.0311 1.81143 -0.685994)
(1.83411 2.18217 -0.566976)
(0.179076 2.30057 -0.797439)
(-0.043859 1.75687 -1.48738)
(2.29123 2.42008 0.489317)
(1.92044 2.97934 1.09033)
(1.27324 2.97587 0.979808)
(1.16269 2.93378 0.145833)
(0.888981 2.77859 0.232691)
(0.497644 2.68489 0.696252)
(1.56586 2.13052 -0.51787)
(2.29758 1.49946 -0.954333)
(0.889256 1.68403 -1.5659)
(-0.0669317 1.65249 -1.34815)
(0.425968 1.48525 -1.39902)
(2.05774 1.46681 0.177037)
(1.74192 1.84859 0.227659)
(0.526096 2.40817 1.04267)
(0.744701 2.53262 0.58905)
(0.974437 2.43108 0.362671)
(0.347239 2.67474 0.82089)
(0.223155 2.56237 0.113333)
(1.94662 1.41518 -0.520122)
(1.14676 0.971153 -1.80646)
(0.955265 1.32342 -1.50871)
(0.866383 1.28575 -1.47118)
(1.05817 1.20752 -2.19884)
(0.637651 0.302448 -1.05285)
(0.455144 0.454 -0.994978)
(-0.366422 1.16797 -1.19683)
(-0.072987 1.68196 -0.622964)
(0.725517 2.35194 -0.311987)
(0.414194 2.61289 0.103713)
(0.0849343 2.5923 -0.0963431)
(0.949105 2.04664 0.238191)
(1.6414 1.03803 -0.717192)
(1.25018 1.10724 -1.50505)
(1.14943 1.21048 -2.19646)
(0.514483 0.850192 -1.74599)
(1.06602 0.883307 -1.03716)
(0.502984 0.00196763 -1.32107)
(0.236409 0.399833 -1.40491)
(0.0850465 0.486992 -1.5579)
(-0.359228 0.78948 -1.52391)
(-0.632088 1.29775 -1.74466)
(-0.365528 1.97756 -0.493041)
(-0.244291 2.02224 -0.207815)
(0.362616 2.00642 0.150704)
(0.658874 1.24311 -0.0320745)
(0.956455 0.940486 -0.0815244)
(0.966777 1.04066 -0.465038)
(1.00093 0.864121 -0.71638)
(1.63956 0.469623 -0.516578)
(0.24598 2.45658 2.69553)
(0.248625 2.59063 2.54669)
(0.472859 2.54317 2.58032)
(0.385911 2.52541 2.6043)
(0.338149 2.71315 2.46265)
(0.566005 2.63586 2.46758)
(0.534926 2.64472 2.43745)
(0.5585 2.75553 2.48964)
(0.31468 2.80707 2.54785)
(0.704323 2.76659 2.4701)
(0.672935 2.83311 2.44116)
(0.725684 2.72899 2.55658)
(0.825135 2.81852 2.42295)
(0.852461 2.95706 2.59408)
(1.11094 2.68359 2.62423)
(0.948917 2.79791 2.56113)
(0.953045 2.76999 2.6176)
(1.07745 2.72025 2.53883)
(0.895457 2.93506 2.48307)
(0.939853 2.92905 2.38242)
(1.16041 2.73155 2.82858)
(1.31646 2.69815 2.72879)
(1.43119 2.52859 2.85497)
(1.35744 2.65136 2.51251)
(1.2697 2.78958 2.36618)
(1.14957 2.82603 2.49154)
(1.07358 2.74209 1.73322)
(1.50275 3.1489 2.419)
(1.46682 3.05067 2.61894)
(1.38959 2.92788 2.61218)
(1.35809 2.64822 2.37538)
(1.64687 2.4375 2.19033)
(1.11485 2.53816 1.98506)
(1.68237 2.5121 1.30857)
(1.54438 2.56206 0.284055)
(1.99765 3.25879 2.61506)
(1.88877 3.04514 2.73234)
(1.326 2.98955 2.75755)
(0.905972 2.78601 2.54079)
(1.75957 2.61962 1.81773)
(1.44445 2.18357 1.84192)
(1.53688 2.45531 0.726114)
(1.08153 2.49224 0.482563)
(1.10726 2.55895 0.26383)
(2.15954 3.16322 2.94406)
(1.82254 2.75782 2.55894)
(1.26942 2.89224 1.9469)
(1.16306 2.91541 1.74685)
(1.47352 2.79053 1.46024)
(1.06961 2.45993 1.03132)
(1.72357 2.27276 0.339521)
(1.61596 2.50352 0.281373)
(0.462499 2.61377 0.4731)
(-0.111348 2.27768 -1.02752)
(2.01428 2.99961 1.8234)
(1.72858 3.08775 1.4447)
(1.2369 2.94401 1.54779)
(1.2233 2.69035 1.40472)
(1.34653 2.62364 0.596301)
(0.9371 2.38065 -0.0190662)
(1.57519 2.23305 -0.442982)
(2.02742 2.0972 -0.663532)
(0.391816 2.26355 -0.803705)
(0.284347 2.12697 -0.763441)
(0.0497977 1.62398 -1.41722)
(2.43406 2.26196 0.410686)
(1.98315 2.98514 1.1639)
(1.67557 2.86462 1.14224)
(1.41535 2.782 0.687437)
(1.37347 2.81765 -0.00401691)
(0.51614 2.75689 0.984905)
(1.27536 2.24739 -0.189401)
(2.47466 1.32337 -1.01111)
(1.22475 1.6206 -1.75352)
(-0.094102 1.66162 -1.34125)
(0.840957 1.31285 -1.09648)
(0.925884 1.32384 -1.2116)
(2.11416 1.48807 0.0983145)
(2.33602 1.50147 0.0349987)
(0.82216 2.33905 1.14992)
(0.829793 2.53514 0.71603)
(1.21152 2.44193 0.449579)
(0.440904 2.64882 0.844637)
(0.364256 2.58358 0.130888)
(1.7725 1.49959 0.0780143)
(1.53412 0.846789 -1.87508)
(1.35867 1.19632 -1.67537)
(1.13611 1.26709 -1.56829)
(0.553232 0.91406 -1.41445)
(0.426301 0.824255 -1.67982)
(0.769086 0.243059 -1.04856)
(0.513952 0.502779 -1.00306)
(-0.269003 1.1314 -1.17775)
(-0.00434278 1.70322 -0.470563)
(0.801334 2.32287 -0.348143)
(0.322338 2.67352 0.0174885)
(0.0862226 2.64955 -0.0786115)
(0.896484 2.12244 0.245623)
(1.61204 1.06304 -0.354872)
(1.26742 1.09199 -1.10871)
(1.18969 1.21768 -2.11645)
(0.619893 0.872891 -1.81943)
(0.865011 0.310144 -1.04423)
(1.68252 0.47222 -0.432096)
(0.441746 0.0616704 -1.32431)
(0.240251 0.406754 -1.40861)
(0.0413094 0.49792 -1.51383)
(-0.341981 0.765832 -1.55248)
(-0.632017 1.34786 -1.84526)
(-0.371141 1.96299 -0.486109)
(-0.279622 2.11277 -0.0825677)
(0.343523 1.99748 0.11536)
(0.590656 1.31196 -0.0179314)
(0.970251 0.942013 0.0590433)
(0.971073 1.04109 -0.355244)
(0.978787 0.857263 -0.546848)
(1.5765 0.462908 -0.378089)
(1.80068 -0.0278871 0.24356)
(0.197661 2.41192 2.65201)
(0.106553 2.47036 2.71252)
(0.288849 2.4468 2.66733)
(0.350861 2.43194 2.71668)
(0.314284 2.56591 2.54679)
(0.48496 2.52245 2.58881)
(0.584749 2.51358 2.58887)
(0.551526 2.53833 2.57163)
(0.566304 2.72007 2.43531)
(0.661467 2.58438 2.47932)
(0.702296 2.67715 2.42833)
(0.716332 2.66055 2.48783)
(0.779106 2.71372 2.42441)
(0.703263 2.87393 2.39614)
(0.911337 2.71741 2.46211)
(0.931866 2.71908 2.45795)
(1.36979 2.48676 2.52848)
(0.976026 2.78607 2.42832)
(0.877086 2.66665 2.58499)
(1.23937 2.96849 2.40114)
(1.20661 2.63653 2.59372)
(1.19748 2.66642 2.61102)
(1.05797 2.76902 2.55593)
(1.13548 2.81898 2.53158)
(1.03636 2.87879 2.46223)
(1.15224 2.78726 2.58037)
(1.04155 2.83041 2.54692)
(1.43897 2.64609 2.84185)
(1.48139 2.52427 2.80673)
(1.13256 2.83465 2.63037)
(1.47082 2.57413 2.49669)
(1.48374 2.63167 2.40131)
(1.38818 2.54326 2.64998)
(1.62697 2.82256 1.77846)
(1.27749 2.61061 1.414)
(1.91694 2.97995 2.29158)
(1.57594 2.99536 2.61301)
(1.63831 2.92974 2.52926)
(1.34929 2.65902 2.57297)
(1.76799 2.40451 2.13422)
(1.33811 2.41896 2.22506)
(1.52443 2.43645 1.65857)
(1.01504 2.46958 1.18314)
(0.7695 2.54441 0.42575)
(2.292 3.20492 2.61147)
(2.07152 2.95496 2.67129)
(1.79571 2.91205 2.68931)
(1.05328 2.88164 2.46809)
(1.64761 2.60056 2.05244)
(1.46233 2.26511 1.87303)
(1.50195 2.39848 0.926638)
(1.32502 2.40947 0.622668)
(0.585397 2.42695 0.46038)
(0.299121 2.53586 0.654384)
(2.37873 3.07001 2.89496)
(1.81096 2.48223 2.82831)
(1.57737 2.89659 1.97948)
(1.23665 2.8745 1.7928)
(1.62676 2.67861 1.56236)
(1.22061 2.40011 1.00843)
(1.78506 2.12646 0.105306)
(1.91025 2.34189 0.245887)
(0.641582 2.65363 0.288502)
(0.258261 2.36506 0.00287931)
(0.183147 2.06519 -0.874882)
(2.06606 3.05283 1.76955)
(1.84494 2.98512 1.80328)
(1.49569 2.83392 1.49209)
(1.27579 2.64837 1.38732)
(1.52968 2.5948 0.750388)
(0.892092 2.53011 0.679171)
(1.84887 1.98342 -0.163733)
(2.23183 1.95381 -0.517112)
(1.3036 2.17615 -0.994445)
(0.480303 2.18662 -0.620824)
(0.998319 2.04831 -0.677959)
(0.822446 1.31998 -1.1284)
(2.59018 2.07513 0.379882)
(2.22465 2.79916 1.0686)
(1.91946 2.88986 1.22625)
(1.48345 2.73198 0.921042)
(1.57886 2.81082 -0.104)
(0.758261 2.77146 1.00769)
(1.06734 2.3511 -0.0102235)
(2.49455 1.24085 -0.938789)
(1.96491 1.4735 -1.82062)
(0.485626 1.67986 -1.32352)
(0.775404 1.38165 -1.21454)
(0.937373 1.00568 -1.03115)
(0.491123 0.908023 -1.44339)
(2.09198 1.60038 -0.197085)
(2.76965 1.19463 -0.104686)
(1.1799 2.14031 1.16644)
(0.9293 2.50076 0.670187)
(0.922559 2.63596 0.595789)
(0.705215 2.58859 0.974764)
(0.569651 2.54595 0.127824)
(1.46936 1.64168 0.227447)
(1.84514 0.744991 -1.68603)
(1.67729 1.12666 -1.76506)
(1.28729 1.22587 -1.81228)
(0.580432 0.936624 -1.31677)
(0.870772 0.36853 -1.96736)
(0.878319 0.301814 -1.07949)
(0.884917 0.142956 -1.08151)
(0.62871 0.517523 -1.02515)
(-0.148593 1.11362 -1.15771)
(0.054136 1.73868 -0.34967)
(1.09761 2.22591 0.161644)
(0.511046 2.6154 0.141999)
(0.117359 2.70757 0.120707)
(0.818887 2.20686 0.338479)
(1.60317 1.10669 -0.129314)
(1.37074 1.0612 -0.67127)
(1.20013 1.21163 -1.96352)
(0.763351 0.883069 -1.86496)
(0.816438 0.330468 -1.02906)
(1.29316 -0.0415752 -0.42022)
(1.69202 -0.0230125 0.131613)
(0.388323 0.128295 -1.31872)
(0.225024 0.425115 -1.40506)
(0.010349 0.525902 -1.47065)
(-0.337633 0.754603 -1.56839)
(-0.629326 1.37853 -1.89474)
(-0.291188 1.98451 -0.440343)
(-0.256111 2.11659 -0.102709)
(0.26405 2.01305 0.192752)
(0.553531 1.3468 0.0281347)
(0.960491 0.947434 0.120471)
(0.974013 1.03756 -0.271184)
(0.967666 0.85715 -0.385867)
(1.52199 0.4554 -0.168015)
(1.9172 -0.042009 0.397218)
(1.39835 -0.212997 -0.263304)
(0.0964767 2.2967 2.57552)
(0.126254 2.40972 2.7016)
(0.284357 2.37084 2.60269)
(0.3321 2.35068 2.74023)
(0.25166 2.44243 2.70464)
(0.373854 2.48689 2.64721)
(0.459956 2.41127 2.73628)
(0.497826 2.43453 2.67521)
(0.342679 2.56665 2.58886)
(0.591625 2.51375 2.57065)
(0.747512 2.48174 2.58464)
(0.657867 2.49578 2.61003)
(0.746323 2.59196 2.52804)
(0.457819 2.59413 2.58208)
(0.982475 2.55608 2.45357)
(0.835087 2.61583 2.47656)
(0.900293 2.54027 2.44273)
(0.847335 2.7059 2.46565)
(0.704984 2.60525 2.55768)
(0.780403 2.9013 2.38191)
(1.05477 2.65389 2.49317)
(1.05198 2.66133 2.48752)
(0.85854 2.72454 2.44813)
(1.02557 2.68795 2.51362)
(1.1952 2.49533 2.58226)
(1.16706 2.69191 2.38142)
(1.04984 2.87318 2.53119)
(1.43384 2.46974 2.66052)
(1.29113 2.58644 2.60995)
(1.26714 2.61391 2.68015)
(1.49253 1.99053 3.01208)
(1.15167 2.83748 2.50105)
(1.34013 2.73097 2.52899)
(1.38825 2.89378 2.28575)
(1.47823 2.93671 1.73703)
(1.52482 2.58862 2.83436)
(1.5644 2.55103 2.75696)
(1.51458 2.54293 2.74678)
(1.29279 2.60356 2.60297)
(1.57113 2.60473 2.39495)
(1.4695 2.62624 2.41189)
(2.06355 2.44353 1.99802)
(1.31257 2.52174 1.90815)
(0.675278 2.50313 1.25913)
(2.00468 2.90523 2.21154)
(1.80405 2.91597 2.54622)
(1.72444 2.94794 2.50221)
(1.46928 2.61816 2.67858)
(1.90417 2.40558 2.1011)
(1.7902 2.24967 2.28657)
(1.7318 2.35795 1.67536)
(1.42308 2.38422 1.22125)
(0.713465 2.32033 0.684238)
(0.27803 2.4187 0.447592)
(2.43131 3.13395 2.60277)
(2.47748 2.73419 2.6435)
(2.12091 2.74347 2.71268)
(1.31791 2.75139 2.6001)
(1.73768 2.54657 2.08036)
(1.55284 2.29258 1.79474)
(1.66877 2.19519 1.03214)
(1.58792 2.26351 0.841488)
(0.7076 2.39151 0.487566)
(0.485107 2.26575 -0.0118767)
(0.204938 2.40176 0.0392955)
(2.84134 2.60925 2.90507)
(2.35684 2.68771 2.23174)
(1.89847 2.72165 2.10772)
(1.35934 2.64285 1.97405)
(1.71748 2.64056 1.50012)
(1.46078 2.29266 1.17531)
(1.63997 2.04163 0.382746)
(1.89697 2.33718 0.141397)
(1.11808 2.53087 0.0470786)
(0.286813 2.32396 -0.0945063)
(0.793734 2.42871 -0.294413)
(0.722613 2.04632 -0.577438)
(2.55044 2.62137 1.76646)
(1.9415 2.98439 1.98647)
(2.19402 2.55943 1.46584)
(1.4448 2.39367 1.48493)
(1.84187 2.4065 0.952035)
(1.51637 2.37502 0.849469)
(1.57646 2.06437 -0.0746924)
(2.3171 1.7409 -0.676551)
(1.88148 2.05837 -1.2214)
(0.655791 2.22587 -0.461618)
(1.25587 2.04226 -0.604627)
(1.01604 1.60409 -0.653669)
(0.667423 0.840332 -1.71334)
(2.44568 2.17369 0.477914)
(2.50022 2.45706 1.04185)
(2.17229 2.7998 1.10598)
(1.4157 2.74132 1.12607)
(1.78595 2.73428 0.335947)
(1.12722 2.72576 1.04637)
(0.874938 2.43256 0.197528)
(2.44295 1.16008 -0.588337)
(2.55249 1.27154 -1.67758)
(1.52414 1.43264 -1.55004)
(0.823601 1.43645 -1.29493)
(0.974315 0.919009 -0.862002)
(0.993118 0.680596 -2.08237)
(0.895134 0.365909 -2.04402)
(2.34448 1.09269 0.472144)
(2.83585 1.18248 0.0336616)
(1.96884 1.80908 1.00276)
(0.893606 2.55243 0.68891)
(0.946601 2.73903 0.554904)
(0.832311 2.55939 0.995223)
(0.894025 2.46834 0.411936)
(1.25465 1.82128 0.257456)
(2.17243 0.624648 -1.04391)
(1.88766 1.11865 -1.6361)
(1.47717 1.20688 -2.01325)
(0.564327 0.943055 -1.25117)
(0.764877 0.363163 -1.94602)
(1.32706 -0.255076 -1.84126)
(1.26457 -0.0338736 -0.475033)
(1.00273 0.0370967 -1.06061)
(0.753905 0.484706 -1.06711)
(-0.0476997 1.12624 -1.10837)
(0.114565 1.76361 -0.255291)
(1.20521 2.18479 0.640454)
(0.713774 2.5834 0.146846)
(0.134396 2.72295 0.280163)
(0.779522 2.24977 0.29218)
(1.59133 1.21248 0.218223)
(1.45592 1.03822 -0.349808)
(1.26734 1.20069 -1.68182)
(0.949782 0.875058 -1.86581)
(0.759536 0.352025 -1.03578)
(1.35131 -0.0590801 -0.336921)
(1.2875 -0.030712 -0.867359)
(1.39364 -0.203148 -0.2449)
(0.348499 0.192615 -1.30565)
(0.209431 0.457484 -1.40257)
(0.0108162 0.486574 -1.4739)
(-0.348435 0.763636 -1.58096)
(-0.58719 1.39453 -1.8074)
(-0.275071 2.02774 -0.427623)
(-0.282268 2.0999 -0.0614015)
(0.357196 2.05854 0.0967623)
(0.491486 1.33625 0.0835274)
(0.924411 0.969286 0.176868)
(0.981624 1.03689 -0.216124)
(0.977525 0.859904 -0.258271)
(1.46864 0.453557 0.055224)
(2.0165 -0.0617265 0.584408)
(1.40877 -0.223235 -0.272919)
(1.33555 -0.348182 -0.121706)
(-0.0404686 2.14264 2.55595)
(0.0668405 2.35874 2.57386)
(0.114739 2.24782 2.53835)
(0.33052 2.30023 2.64302)
(0.249348 2.37972 2.72463)
(0.317134 2.32858 2.60415)
(0.506562 2.36755 2.65658)
(0.473364 2.34862 2.68091)
(0.379693 2.48035 2.67124)
(0.594744 2.34498 2.69278)
(0.58208 2.30583 2.7729)
(0.643499 2.38745 2.69545)
(0.663866 2.3815 2.68989)
(0.578031 2.54664 2.65151)
(0.86161 2.38814 2.59651)
(0.789305 2.44383 2.60055)
(0.793616 2.45619 2.60367)
(0.879644 2.51121 2.53462)
(0.792279 2.56202 2.6069)
(0.557764 2.62814 2.5816)
(1.03083 2.55632 2.52713)
(0.946874 2.56 2.47412)
(0.911986 2.53542 2.49365)
(1.02693 2.56289 2.4826)
(0.791853 2.56627 2.57646)
(0.872273 2.68448 2.41728)
(1.01905 2.64966 2.51662)
(1.23626 2.51605 2.52335)
(1.10856 2.63407 2.50506)
(1.20769 2.55296 2.52316)
(1.0573 2.58911 2.52833)
(1.07615 2.75538 2.40698)
(1.47407 2.50204 2.45066)
(1.32586 2.7976 2.31055)
(1.26458 3.10878 2.09911)
(1.4192 2.54527 2.60947)
(1.52104 2.36366 2.6983)
(1.38016 2.59427 2.59589)
(1.43174 2.49792 2.42711)
(1.44107 2.55984 2.62592)
(1.35101 2.75466 2.48683)
(1.53485 2.80386 2.2021)
(1.15379 2.76305 2.32614)
(1.06717 2.43207 2.11945)
(1.66045 2.44416 2.76232)
(1.63435 2.52107 2.78507)
(1.53186 2.61543 2.65252)
(1.46911 2.52014 2.70312)
(1.95813 2.18001 2.49739)
(1.62288 2.49339 2.45286)
(2.27467 2.29754 1.99361)
(1.63873 2.60445 1.68092)
(0.881356 2.40284 1.76619)
(0.547951 2.32965 0.67686)
(2.05714 2.84785 2.22364)
(2.35037 2.61762 2.36691)
(1.97117 2.77042 2.54387)
(1.60574 2.67976 2.62614)
(1.90457 2.2571 2.27185)
(2.02339 2.26457 2.14215)
(1.53746 2.42549 1.97471)
(1.7471 2.2671 1.308)
(0.776344 2.29933 0.689285)
(0.700385 1.90677 0.304848)
(0.420863 2.3142 -0.146634)
(2.49763 2.90573 2.53484)
(2.76034 2.70665 2.57904)
(2.14655 2.89541 2.67726)
(1.45884 2.67046 2.59528)
(1.75642 2.52384 2.13922)
(1.81096 2.19355 1.71297)
(1.75686 1.97789 1.09988)
(1.6882 2.22767 0.925498)
(0.907984 2.27837 0.544251)
(0.541 2.20548 -0.140668)
(1.13777 2.0938 -0.367631)
(0.830287 2.3744 -0.273562)
(2.69647 2.72777 2.8073)
(2.49256 2.48004 2.67538)
(2.23307 2.52136 2.14345)
(1.39127 2.74208 1.78143)
(1.85371 2.46926 1.6039)
(1.73963 2.23354 1.21447)
(1.69207 1.94938 0.460377)
(2.32306 1.83551 0.383215)
(1.57481 2.34186 -0.0408462)
(0.391356 2.29107 -0.145482)
(0.825709 2.45431 -0.267501)
(1.59432 1.79018 0.00754815)
(1.21498 1.62323 -0.484453)
(2.47654 2.56272 1.84252)
(2.04878 3.01453 1.96671)
(1.96119 2.73486 1.65438)
(1.48905 2.43308 1.42266)
(1.44334 2.79168 1.01072)
(1.32306 2.56355 1.29119)
(1.48467 2.07908 0.250581)
(2.4354 1.58421 -0.661759)
(2.22193 1.81667 -1.40933)
(1.13709 2.15847 -0.379595)
(1.27955 2.06077 -0.606627)
(0.751912 1.8228 -0.410981)
(1.41351 1.32606 -0.758966)
(0.941703 0.65917 -2.08717)
(2.21538 2.40838 0.758591)
(2.66161 2.22318 0.940273)
(2.55212 2.45157 1.20347)
(1.62666 2.74857 1.0808)
(1.76077 2.85331 0.722575)
(1.48791 2.72932 0.870657)
(0.707773 2.50085 0.43023)
(2.22202 1.21041 -0.140204)
(2.68244 1.14915 -1.55552)
(2.06411 1.32324 -1.63858)
(1.22248 1.41943 -1.18)
(1.02999 0.91117 -0.643745)
(1.1237 0.613421 -1.94082)
(1.13184 0.158467 -2.05865)
(1.24849 -0.217067 -1.93624)
(2.20936 1.16375 0.123922)
(2.76402 1.32376 0.228294)
(1.97255 1.91156 1.03581)
(0.903443 2.56646 0.717107)
(1.02367 2.72955 0.649099)
(1.40622 2.34029 0.968641)
(0.504864 2.59398 0.554641)
(1.02457 2.07293 0.221225)
(2.26675 0.623737 -0.275492)
(2.12263 1.08412 -1.0621)
(1.72224 1.22278 -2.0453)